/*--------------------------------*- C++ -*----------------------------------*\
  =========                 |
  \\      /  F ield         | OpenFOAM: The Open Source CFD Toolbox
   \\    /   O peration     | Website:  https://openfoam.org
    \\  /    A nd           | Version:  8
     \\/     M anipulation  |
\*---------------------------------------------------------------------------*/
FoamFile
{
    version     2.0;
    format      ascii;
    class       scalarField;
    location    "1.2/lagrangian/reactingCloud1";
    object      age;
}
// * * * * * * * * * * * * * * * * * * * * * * * * * * * * * * * * * * * * * //


134
(
0.2734343351
0.2498841846
0.2311979617
0.230327899
0.2282148897
0.2257289963
0.2559786325
0.2220262755
0.2213784438
0.2541728702
0.2183984183
0.2516899469
0.2482289025
0.2076095483
0.2040184285
0.2410810932
0.1982553529
0.1980174465
0.1906429328
0.2040972212
0.1860302457
0.1961129067
0.1787548558
0.2021274033
0.1767565747
0.1737031204
0.1732245271
0.1728409007
0.1669378024
0.1664513358
0.1662567492
0.192148016
0.2081168515
0.161972022
0.1598283357
0.1595360149
0.158561612
0.1570025674
0.1553460826
0.15446912
0.1534947171
0.1518382323
0.1661594559
0.1479640189
0.1478828615
0.1458140496
0.1959541735
0.1936541885
0.1418159476
0.1407075131
0.1401034524
0.1399031857
0.1860862914
0.1378359652
0.1621669026
0.1353112686
0.1344215299
0.1338181938
0.1327172009
0.1461507657
0.1310644347
0.1309879214
0.1295139745
0.1237133618
0.1231520988
0.1190829421
0.1165572586
0.1159959956
0.1143122066
0.1141718908
0.1126284175
0.1512535905
0.1108043128
0.1082786293
0.1077173663
0.1504720069
0.1300931945
0.1049781588
0.1034224842
0.149437232
0.1001555675
0.09766718507
0.09720062208
0.1122074703
0.0965785381
0.09564541213
0.09517884914
0.09300155521
0.09253499222
0.1102430498
0.0883597962
0.1162766271
0.0854463678
0.08530832844
0.08223208038
0.08176573588
0.1681036277
0.1021779445
0.2026001596
0.1972240385
0.05340935225
0.06825210251
0.04964720441
0.04799502719
0.06008146976
0.04533927465
0.04493536151
0.07419908445
0.04426906158
0.04338965035
0.04180615129
0.04165495264
0.04119350031
0.04111548232
0.04015572878
0.2104351061
0.03737839194
0.03575561076
0.03525916397
0.1042003215
0.03437132944
0.03428205326
0.03419277708
0.03190009579
0.02525130714
0.02275690311
0.05211738825
0.02197648979
0.01896101822
0.008719167474
0.0200627788
0.03410326719
0.005680669718
0.03611781429
)


// ************************************************************************* //
