/*--------------------------------*- C++ -*----------------------------------*\
  =========                 |
  \\      /  F ield         | OpenFOAM: The Open Source CFD Toolbox
   \\    /   O peration     | Website:  https://openfoam.org
    \\  /    A nd           | Version:  8
     \\/     M anipulation  |
\*---------------------------------------------------------------------------*/
FoamFile
{
    version     2.0;
    format      ascii;
    class       scalarField;
    location    "1.2/lagrangian/reactingCloud1";
    object      nParticle;
}
// * * * * * * * * * * * * * * * * * * * * * * * * * * * * * * * * * * * * * //


134
(
107.9552358
100.2367551
100.0582828
100.4421784
100.1779325
100.8049443
100.0554721
101.5274451
163.5104567
102.1707466
285.5021293
100.7885473
100.9989621
100.0892566
100.4614687
100.1406021
375.4489729
655.1921813
100.5356367
4891.896153
100.7213825
5460.006921
122.984916
783.9832266
100.4877982
101.0705067
104.7356435
131.7948226
100.4785311
101.0371396
100.8874434
4841.387017
4586.048882
101.1258335
102.3611338
152.1678818
104.2151612
105.507346
101.8634221
100.1067631
609.262596
100.2650587
2291.103423
103.1752821
103.6773453
103.3968156
103.2858959
101.8925678
101.9577186
101.4157603
106.2263391
100.6476226
6019.049291
100.6857251
3303.82041
103.0792897
108.5043658
106.5827279
148.6072306
1073.646084
100.004546
102.1802962
100.280878
103.5530955
100.0061642
103.6137881
101.5730819
106.5611026
108.0035385
100.0201321
104.2468523
106.6687292
100.1956166
102.365797
124.4944532
106.9317821
927.5844499
102.1451434
106.4458483
106.4378048
102.0789816
101.6748794
115.2559147
3381.90246
107.9685869
102.4533192
128.4623953
106.7606683
132.7115609
887.8964602
100.3671646
1801.575258
100.7452575
102.1683699
100.3758228
102.1022743
5382.620506
4885.799653
100.1471074
100.6560156
100.5595698
100.2212719
114.583867
100.0373741
1854.002721
100.1637233
100.25996
1935.750665
100.0199223
100.0524587
100.8533525
829.752163
100.3740538
101.4809563
106.3819293
100.0106119
101.2779922
100.1276297
100.1307188
7257.285591
100.7967011
101.7375191
248.4671594
101.7171059
100.0061744
100.4204903
1888.959135
101.1218577
101.1530192
100.1083322
1038.932627
3198.613932
100.6295179
2663.474727
)


// ************************************************************************* //
