/*--------------------------------*- C++ -*----------------------------------*\
  =========                 |
  \\      /  F ield         | OpenFOAM: The Open Source CFD Toolbox
   \\    /   O peration     | Website:  https://openfoam.org
    \\  /    A nd           | Version:  8
     \\/     M anipulation  |
\*---------------------------------------------------------------------------*/
FoamFile
{
    version     2.0;
    format      ascii;
    class       volScalarField;
    location    "1/wallFilmRegion";
    object      alpha;
}
// * * * * * * * * * * * * * * * * * * * * * * * * * * * * * * * * * * * * * //

dimensions      [0 0 0 0 0 0 0];

internalField   nonuniform List<scalar> 
1369
(
3.924454333
0.2010067575
0.1433883175
0.1313142831
0.1213163191
0.1034419563
0.07632917275
4.356853913
0.2045188596
0.1331233314
0.1133848547
0.09934700394
0.08065650657
0.05808872337
0.03299291943
0.03314203937
0.08069184024
0.285376745
4.715315793
0.1713570185
0.08545556213
0.06545860959
0.05744984479
0.04897798026
0.04153919377
0.03738148194
0.04366594496
0.07089487274
0.1989688596
0.1260824917
0.1082616307
5.007706401
0.1907277665
0.07118503708
0.03908243433
0.03652594475
0.04025383243
0.04778361213
0.05742951333
0.06012176553
0.05465507055
0.05667310027
0.06514509818
0.07662764072
0.08538803696
0.08388853191
0.05759548501
0.01334961817
5.320360106
0.5596514472
0.342597689
0.1594003446
0.103215762
0.08770704455
0.08199507124
0.07337167626
0.06657005993
0.0589854565
0.05774893925
0.06227906741
0.06664379714
0.0697541002
0.0681415653
0.04859412623
0.01144929112
0.007977443085
0.005832121822
4.186372119
0.4095156892
0.5323832049
0.4800951936
0.3447895986
0.2250938862
0.1708432243
0.1265335441
0.08214940526
0.07523809214
0.06926407249
0.06672481353
0.06405810097
0.06453076499
0.06390878323
0.04602238398
0.008826439886
0.007866205469
0.00995378486
0.02444046924
0.04036255342
0.2368059057
1.126785158
3.04968945
0.06042447951
0.08004065193
0.08690648115
0.140236472
0.1902124594
0.1981258695
0.1558064003
0.1007871236
0.09695776355
0.08759815391
0.07491101185
0.06433768853
0.06299185312
0.0629659552
0.04642879837
0.005451042407
0.009063151859
0.02425438407
0.093195424
0.1094012656
0.4373090911
1.586204564
0.2704863548
0.01012367005
2.605011032
0.02232922181
0.03811485801
0.04030455799
0.06840988071
0.1034666381
0.1299671164
0.132039265
0.1213337236
0.1198597518
0.1075777658
0.08327443115
0.06520845669
0.06274148645
0.06322762789
0.05275988555
0.04037465312
0.06529707603
0.2096282576
0.4817784658
0.5519603016
0.425996344
0.137129121
0.01264145486
0.007089635937
0.01559734782
2.358815387
0.01977237743
0.04940857084
0.05673157638
0.08495219406
0.1093786759
0.1253405466
0.1349577302
0.1435164523
0.1406679633
0.1163579055
0.08273555962
0.06204118721
0.058356376
0.05532522562
0.03828777265
0.1352026291
0.3581839493
0.3164371591
0.3583026418
0.1632594745
0.04444729556
0.006463296705
0.001601563035
0.005672717838
0.01516287003
2.257803673
0.03045818612
0.07214151496
0.0813892803
0.1067989115
0.1203670501
0.1192403841
0.1180092231
0.1264568471
0.123985443
0.09740376307
0.06630619773
0.04824950091
0.04461291759
0.03962017665
0.02328296657
0.0797530557
0.4634860797
0.4159223555
0.05356915195
0.02016115714
0.01851537124
0.01290870166
0.01191920219
0.04699366394
0.1909722103
0.2894590789
2.435101068
0.05384974972
0.1060096134
0.1065749504
0.1184925492
0.1101237696
0.08751899544
0.06461809601
0.04680326598
0.03435296971
0.03489189931
0.0543490284
0.04499658219
0.0339766469
0.03298241141
0.02541621692
0.02025801445
0.4688883824
0.3394196768
0.005205050867
0.01135754133
0.01195228176
0.06596570997
0.02117608712
0.08295040175
0.4224757211
0.3708605231
3.023057573
0.098988003
0.1668142261
0.1227191828
0.1106871719
0.08704543628
0.06335799462
0.04517223277
0.03244318664
0.02479941437
0.02663314541
0.04437984982
0.05111490242
0.04309073343
0.04124471433
0.03126688209
0.04627695171
0.8977833731
0.7181536376
0.08835721934
0.058385586
0.1309345224
0.03206028029
0.02102820345
0.07652561108
0.4135907347
0.6305728136
3.745265259
0.1922740657
0.2135615282
0.113117683
0.08564663145
0.0609553861
0.04278247031
0.03102592134
0.02429655868
0.02138552278
0.0233135984
0.03571379064
0.0514195039
0.04976774976
0.04633110604
0.03124311347
0.005056586478
0.07779397086
0.996852074
0.112935255
0.06752656065
1.322507372
0.1403756719
0.01381619422
0.05874203898
0.3604220884
1.13843201
0.8441337182
4.165472594
0.2362629617
0.1578420432
0.08490030747
0.05848536033
0.03930377676
0.02673599669
0.01961312525
0.01677839689
0.01810599971
0.02605471496
0.04143492524
0.07217504598
0.08422280404
0.05283767068
0.03398243017
6.450136614e-05
0.000110934324
0.1624338203
0.02799464273
0.02341877538
0.3295759409
0.9458747708
0.1803861338
0.05016822349
0.2539530871
1.529374743
0.9152517192
0.5010106238
4.288657164
0.2096252522
0.1067648272
0.05877427552
0.03825445774
0.0241663987
0.01547706307
0.01085461014
0.009236327342
0.01039890422
0.01478288463
0.1577388654
0.6800630502
1.637114353
0.1433501166
0.07447990495
0.001198704112
0.0005185520773
0.02704216386
0.1093118299
0.06656636674
0.06485908907
1.326131663
0.176993324
0.1004664071
0.462736795
1.33019874
1.012052743
0.3100510335
4.031601674
0.1613138949
0.07577617649
0.04186381263
0.02567994641
0.01485421542
0.008595427858
0.005565417946
0.004734086561
0.005937286381
0.01149643706
0.05463594307
0.2621509561
0.2335862246
0.4976631667
0.4868992984
0.2255024401
0.04985650189
0.2912641619
0.9076239588
0.05960126991
0.007216084214
0.1065024951
1.105166661
0.04631613588
0.2626176853
0.9513735725
0.9598300951
0.7874381671
3.628185873
0.1216091572
0.06044637943
0.03296078098
0.01829441481
0.009172091305
0.004940785891
0.003703160723
0.004521272976
0.00866370502
0.02574809778
0.09472805706
0.354472814
0.1478703203
0.1061434213
0.1245684628
0.1421342998
0.2995099557
0.8622235583
0.2431386597
0.007601595625
0.01026300023
0.01579393116
0.3565740015
0.04561356778
0.07718584736
0.2932931089
0.6027408332
0.2125922506
0.2272045118
1.007568232
0.3050708758
0.004941164462
0.002471450496
3.579505562
0.1697689218
0.1050683629
0.05535727807
0.03359285544
0.02043078704
0.01313156865
0.01023860926
0.0117987993
0.02265819889
0.06622116178
0.1127940743
0.3259052627
0.009815675967
0.01255585465
0.0632409306
0.1208519385
0.02985718408
0.5277799177
0.1848762535
0.0001389699729
0.0002143396748
0.0002627194571
0.04696179782
0.05516718094
0.08246248672
0.2872554631
0.1295263645
0.01925174357
0.0163003306
0.2110118492
0.0952732293
0.02896531457
0.09293632473
3.710720207
0.3383502055
0.1706514365
0.08377950758
0.05054970152
0.03657590586
0.03007467727
0.0293147982
0.03887134976
0.06825699248
0.1035796181
0.06894562504
0.07111143816
0.005743077247
0.02000326398
0.07711617222
0.1260458417
0.03757151953
0.4447022407
0.1562947834
0.03264311921
0.03937197704
0.08410131808
0.04950797048
0.08765759152
0.2646108318
0.2815793881
0.03873045763
0.007002300989
0.006505399402
0.009463425506
0.05057581478
0.1088807515
0.6037714772
2.008402891
0.09154006075
0.1306769278
0.08402211231
0.08169503488
0.08368438874
0.08509854685
0.08636742419
0.09499898399
0.1017039859
0.06439347151
0.01478586319
0.006413988697
0.006658472659
0.02530859799
0.0788355033
0.1340673176
0.06383325943
0.3647007625
0.1079279921
0.02964652334
0.1029570921
1.516861781
0.115151354
0.1247746334
0.3536000629
0.05695772473
0.009271871141
0.009919191971
0.01986027153
0.03340427069
0.06379420254
0.1411734967
1.910552485
0.02310494278
0.1613476202
0.126452914
0.1721207113
0.2211800126
0.2402130228
0.2191967065
0.1664034539
0.09485777691
0.0298215145
0.003366284614
0.00272790222
0.00709677083
0.02330546023
0.06449616549
0.1409025644
0.08272868057
0.2662544805
0.07931390296
0.04446210646
0.2097250894
0.9467464061
0.1065349332
0.07290732413
0.3530837096
0.03241896786
0.0245064578
0.05240589668
0.04699924944
0.0263415026
0.0108326981
2.241066963
0.2252126829
0.7315303122
0.6673092698
0.8548081171
1.033574331
1.075406819
0.9043866694
0.5663380922
0.2279270267
0.04130754407
0.0008312038143
0.001528258363
0.005034500735
0.01404163446
0.03719905887
0.1453062499
0.08494148529
0.1701280381
0.07513043083
0.04936124313
0.04702695976
0.4303968674
0.2776603042
0.0896626461
0.3841831595
0.03600392603
0.005590058487
0.005757539133
0.01263058964
0.03471226939
0.1530512629
3.230247988
0.1827686757
0.1153233422
0.08481728524
0.07348254932
0.06284854639
0.04886512799
0.03223659166
0.01671294764
0.005966236439
0.0006315509061
7.854562771e-05
3.395939497e-05
1.879928805e-05
0.000296035779
0.0003602870146
0.141851002
0.06476450145
0.09168823471
0.06745523181
0.04055270044
0.0575056518
0.1689166658
0.3497378567
0.1966796636
0.3751027122
0.1995465901
0.1025268111
0.1327476259
0.1881496379
0.2713188943
0.3977622716
2.893993928
0.03992216953
0.02255130359
0.01641499412
0.01440570447
0.01273792173
0.01161254935
0.01078412476
0.009283135961
0.006311740297
0.0001363091362
5.48654279e-05
1.987824579e-05
5.556637086e-05
0.000281646889
0.002347761087
0.07661878849
0.04061411103
0.05696603921
0.06493494389
0.0683833915
0.05446838801
0.1525450819
0.2881221551
0.3916640094
0.2192096395
0.6637661599
0.7208216547
0.7082414572
0.7395181229
0.6889866331
2.692107038
0.02374850737
0.01375021293
0.009994414406
0.009540253576
0.01166830198
0.02234007399
0.04807124762
0.08407966595
0.1219555839
0.1546370138
0.1679329583
0.1637208833
0.1422133656
0.1047999765
0.0587893968
0.01631273537
0.0575671664
0.09916187747
0.1365208146
0.1673239282
0.1600938576
0.4636819986
0.1506878301
0.05783696577
0.114405869
0.9678571402
1.01207878
0.5406933174
0.4152362975
0.2656786591
2.8560006
0.0468484517
0.02391908465
0.01633179909
0.01222657433
0.009486692752
0.008700862258
0.0125422187
0.02452630172
0.04673240836
0.08080060188
0.1167741162
0.1394924572
0.1476630885
0.1380729326
0.1021386724
0.04685078086
0.01822354219
0.02718305698
0.04006653954
0.04021033326
0.02106125676
0.3508985688
0.5060033917
0.5018190007
0.213538582
1.175469931
1.714318972
0.9777861361
0.4163457797
0.05933085846
3.605465996
0.203050162
0.1182756179
0.07277063696
0.04273355793
0.02480500321
0.01501774233
0.009846528823
0.007834052965
0.008475416229
0.0153425983
0.0412513856
0.06560659885
0.09625341723
0.1655371574
0.1470135293
0.06587433348
0.005093445675
0.004711636982
0.0007653531145
0.0001747055936
0.05092105013
0.4583113105
0.6634435244
0.6594280854
0.9754311721
1.716175161
1.94211472
0.5083964214
0.05361933075
0.02130389928
4.055220776
0.333354502
0.214183033
0.1357452536
0.07909109869
0.04327797625
0.02377723192
0.01316881514
0.007097050644
0.003855616692
0.004247400265
0.0141341743
0.02831173012
0.05864485081
0.1499843211
0.160315415
0.07920383766
0.003728923214
0.004068800433
0.0002322114621
0.000110950875
0.0008399299803
0.1877323465
0.01622641769
0.03173283234
1.142213805
2.07682085
1.828306168
0.5401481661
0.07948993517
0.04676903446
3.959989246
0.2786096942
0.2080063551
0.1509314003
0.1009325735
0.05978614915
0.03346994601
0.01821006381
0.009412957794
0.004616477558
0.003331939933
0.01024891556
0.02106955193
0.04744746291
0.114843753
0.1512232362
0.08756781021
0.003423042027
0.005996753279
0.0001695146
0.0007408515231
0.01054474054
0.02830825338
0.04998154093
0.2962694407
1.916326106
2.811484666
1.378431203
0.2873783656
0.07802835075
0.09984267831
3.843821777
0.1828956919
0.1658943017
0.1398762039
0.1095032424
0.07349318159
0.04413925677
0.02476073608
0.01312715337
0.006870011985
0.004892161978
0.01045128605
0.01997037762
0.03693041313
0.08932021039
0.1372239824
0.09246907936
0.003178177898
0.01048590479
4.64942534e-05
0.005021117348
0.01851114919
0.05380872881
0.2700825726
0.9513160914
2.439621567
3.051798805
1.032672326
0.1226379273
0.05385681267
0.07837372971
3.749988561
0.1204020177
0.1291491053
0.1251824357
0.1137196717
0.08637600756
0.05644955071
0.0332513763
0.01822721592
0.01007002455
0.007483888175
0.01149365235
0.0165633972
0.02016700699
0.05403761133
0.1209523245
0.09687435132
0.006704347675
0.01749855473
1.609819309e-05
0.002680187152
0.01435844746
0.03264600904
0.3076970718
1.047226262
2.317140322
2.885056816
1.335721036
0.1317762715
0.04791691699
0.04329602978
3.524204321
0.08826140063
0.1021915649
0.1103180668
0.1161469899
0.09948924977
0.07091170548
0.04418141989
0.02510820264
0.01431088625
0.01054198736
0.01265649484
0.01381417007
0.01377811369
0.0330791974
0.09313905903
0.1051059386
0.02903453844
0.01038436525
0.0006176165268
0.0005806288749
0.00477226655
0.01059088277
0.02706724849
0.09758120815
1.162813759
1.140858789
1.631670048
0.5436854597
0.09723814744
0.03244672747
3.37166897
0.07251583571
0.08328143672
0.0948282248
0.1118399739
0.1093886239
0.08633078369
0.05756209731
0.03449665112
0.02058006162
0.01508344797
0.01488297475
0.0127463573
0.01071698413
0.02118031136
0.06095618949
0.09156082499
0.01911196078
0.006234651843
0.0007742812306
0.0007244768425
0.002001807791
0.004479812019
0.009528996253
0.03219873855
0.1394530516
0.337064474
1.26479565
1.37296972
0.4514567124
0.1418689764
3.610801898
0.06687439663
0.06956561464
0.07936957767
0.1000229691
0.1104036636
0.09919450364
0.07270347869
0.0474322473
0.03139072051
0.02447954761
0.02123722645
0.01429829756
0.008853970477
0.01158773246
0.02444315428
0.03566302126
0.004608846571
0.002060050809
0.0007389547175
0.0008717915931
0.001408085503
0.00257406146
0.00532903121
0.02689935825
0.1344965036
0.2323128455
0.3644039251
1.136257173
1.668894461
0.3430347849
3.719664335
0.07098500675
0.06762501722
0.07752347286
0.1051408012
0.129020776
0.1326380555
0.1109910678
0.08119111278
0.06086663555
0.05038709235
0.03944006578
0.02720758362
0.02128158634
0.02172704401
0.02439767433
0.02454990688
0.01569613685
0.008774894848
0.003983615475
0.006264917582
0.007574105913
0.009434779524
0.01964911736
0.1833480369
0.5377333602
0.1794865083
0.04365804244
0.09995313502
0.1660300771
0.07674448223
3.725238193
0.09291705929
0.1011320893
0.132039216
0.191236494
0.2411268809
0.2529678998
0.2137561985
0.1526578073
0.1060741627
0.07738579683
0.05571932863
0.04227671274
0.03925926172
0.04349981628
0.05159811203
0.06165614082
0.067078976
0.05139572291
0.008398920505
0.01382398611
0.01659669931
0.02157605899
0.06193189732
0.3434160672
0.7204811823
0.1992931782
0.0438537488
0.04300308236
0.03210704598
0.023050464
3.538950675
0.118439522
0.134949905
0.1677500579
0.2197670429
0.2528796247
0.2526129105
0.2224991739
0.1765337595
0.1291477462
0.08954471514
0.06548472328
0.05763710775
0.06485477788
0.09025580814
0.1491582718
0.2681029614
0.4172552133
0.3226931954
0.01172515137
0.01949435895
0.02410925723
0.03912284357
0.2127687744
0.3765010698
0.2079587863
0.1932130061
0.06686862361
0.04050159601
0.02658362051
0.01529710033
3.184551227
0.1293502358
0.1317777887
0.1328727908
0.1392104697
0.1335558816
0.1303240835
0.1360695836
0.1374315263
0.1191868206
0.08977440328
0.07059622933
0.06672418253
0.07795240757
0.1059089529
0.1500147191
0.1816159515
0.1345225771
0.05319611514
0.01331100509
0.02277336611
0.03087456045
0.08339253357
0.4710285309
0.159566928
0.09082965538
0.1373063514
0.08970806022
0.04846352081
0.02752878118
0.01561276866
2.824833966
0.1305711028
0.1146288259
0.09441953791
0.08012066493
0.06569664963
0.06274006508
0.07478373443
0.09483618293
0.1061823521
0.1019201216
0.09084894676
0.08336792303
0.08690992654
0.09890546513
0.102803127
0.07848523112
0.03297466756
0.01280464678
0.01755654922
0.02959642637
0.05369757035
0.2125623615
0.4000644663
0.09058267722
0.09373497915
0.1254020638
0.1009244673
0.05710129449
0.03062659648
0.01782358768
2.573658476
0.1297137263
0.1017361769
0.0764468833
0.05948493974
0.04606410548
0.04136451038
0.04773270793
0.0663753557
0.09516064833
0.1286654337
0.1447231317
0.1207976814
0.1006648308
0.0995896785
0.09679923626
0.08184720136
0.0578270113
0.03162940163
0.02273234916
0.04284499846
0.1139009953
0.3766889387
0.2886923105
0.1475945597
0.16374725
0.1313168704
0.09745573314
0.0600690261
0.03398947685
0.02037583458
2.485118443
0.1336368002
0.1003922147
0.07589135981
0.05873082598
0.0426460593
0.03709284452
0.03852677095
0.05040745106
0.08289548837
0.1548293046
0.2306434951
0.1777102669
0.1135433537
0.1010248269
0.0978811338
0.08961751884
0.07384935891
0.04544678115
0.02705850938
0.06354208475
0.1970236616
0.4470025486
0.2338033667
0.2879361838
0.3326442951
0.2145395366
0.1087155478
0.05872574337
0.03627464418
0.02270370137
2.840614019
0.2277654638
0.1805552972
0.1343948708
0.08973167434
0.05382042409
0.03929977134
0.03920386639
0.04795911209
0.08172691779
0.1850057126
0.3258049676
0.2414360953
0.1237689052
0.1004886615
0.09679802966
0.09209117571
0.08064184664
0.05216069831
0.03041379437
0.08374014044
0.2128407572
0.3306262341
0.2374895083
0.3999295526
0.6372350185
0.7317452858
0.3060968429
0.07878185283
0.03622627376
0.02455273603
3.657445071
0.4975336327
1.249752105
2.7722856
4.355215559
0.1874275572
0.05285745752
0.04553144789
0.05685284867
0.0990165921
0.2285461231
0.3986847223
0.2984692331
0.1361320271
0.1006921956
0.0944810275
0.09084083217
0.08168015083
0.05463038907
0.03236884026
0.08511387446
0.1387754161
0.1771696903
0.228037858
0.3333150816
0.3864193925
0.3358312165
0.60352041
0.6747746148
0.1224813717
0.08926655877
5.285033345
0.1889439727
2.29974403
2.892277224
4.109728887
6.734796436
0.199372984
0.0634181528
0.070657798
0.1263121021
0.2714199615
0.4342555393
0.3414802585
0.1559563534
0.1053576198
0.09418177229
0.08955648018
0.08100892441
0.05587171427
0.03027168851
0.06026489875
0.06258159031
0.08334734218
0.2017199958
0.2428781238
0.1992232389
0.1146965091
0.4796889321
1.328558899
1.69185168
1.574872178
7.985695545
0.788111548
3.32013094
4.264935801
4.391145363
3.871084607
4.951074091
0.1428572595
0.08933727218
0.1477228039
0.2897593709
0.4363707415
0.3679894156
0.1834323484
0.1169500579
0.09894019416
0.09119930031
0.08133508827
0.05697096499
0.02335738507
0.02946495983
0.02576143773
0.04280997718
0.1400824614
0.1739498701
0.1262068199
0.09173807814
0.1730726836
0.4417775773
0.9522368948
0.09369675153
11.47803895
3.830285092
5.709578734
4.744278916
3.207508059
3.600969673
4.296376823
1.573986248
0.124430501
0.1617728983
0.2935941622
0.4320360173
0.3908890787
0.2206592502
0.1437759864
0.1194301164
0.1062570715
0.09039861142
0.06143430252
0.01921995357
0.01503690192
0.01522200191
0.03831357147
0.2266041989
0.4327757058
0.5423837099
0.4998736737
0.3079312983
0.1728362219
0.09492386821
0.01888072995
13.06114357
6.236798774
4.66179166
2.179474948
0.5828141016
0.1694596834
0.6626688411
0.9496575003
0.1536661518
0.152445721
0.2547157276
0.3781917252
0.379714251
0.2591690985
0.1958203882
0.1748460153
0.1607808825
0.1384417593
0.09278785313
0.0208010676
0.01632866899
0.01902435163
0.03866902734
0.1669925838
0.1856349554
0.1802567074
0.2214477949
0.3774609699
0.3404474196
0.2035861657
0.08070774473
12.81846667
11.56119293
12.30397643
10.2110151
8.809535293
6.435510512
5.646602609
4.203934525
2.635220064
2.40908694
2.805496877
3.232639416
3.244061329
3.01675199
3.258728146
3.655136165
3.736339836
3.33239209
2.492357096
1.522957931
0.91183908
0.5899612285
0.6598509738
1.119633534
1.460769405
1.989013777
2.26899019
2.652569056
3.106709022
3.473535689
4.651812884
)
;

boundaryField
{
    walls
    {
        type            zeroGradient;
    }
    wallFilmFace_top
    {
        type            zeroGradient;
    }
    region0_to_wallFilmRegion_wallFilmFace
    {
        type            zeroGradient;
    }
    mirrorFace_top
    {
        type            zeroGradient;
    }
    region0_to_wallFilmRegion_mirrorFace
    {
        type            zeroGradient;
    }
    procBoundary1to0
    {
        type            processor;
        value           nonuniform List<scalar> 
52
(
3.487152963
0.1796071916
0.1338296291
0.1302276807
0.1303309666
0.1231404656
0.1025772014
0.04050019613
0.04050019613
0.03418925036
0.08773060391
0.2462692595
0.1885594099
0.1885594099
0.1519552503
0.1382091738
0.1382091738
0.1439490139
0.09386897005
0.02198661746
0.008121074947
0.008121074947
0.004331094265
0.009396354161
0.009396354161
0.02178562104
0.1128938292
0.7393565772
0.3730284843
0.3730284843
0.01582124662
0.01486703211
0.01486703211
0.02264076834
0.09073982485
0.09073982485
0.2537097007
0.3149080469
0.5767147568
0.5767147568
0.5206365614
0.5206365614
0.7804794057
0.8085948279
0.579799392
0.579799392
1.085244889
0.2261949292
0.1194040294
0.2190153223
0.5208244598
0.6744148173
)
;
    }
    procBoundary1to2
    {
        type            processor;
        value           nonuniform List<scalar> 
33
(
0.3626339411
0.1351104955
0.1351104955
0.006913099883
0.006913099883
0.3714461513
0.3820252816
0.5841093347
0.5841093347
0.3634910348
0.04011995839
0.03389767877
0.09224042364
0.1940492601
0.1020679307
0.03783555163
0.02873123631
0.05764625827
0.06185000838
0.001774739616
0.0026126614
0.005685150095
0.009061869371
0.01204550231
0.01437124366
0.01607125106
0.01732039115
0.01805712492
0.02127830479
0.03407039709
0.08787290454
0.2282059054
5.093690611
)
;
    }
}


// ************************************************************************* //
