/*--------------------------------*- C++ -*----------------------------------*\
  =========                 |
  \\      /  F ield         | OpenFOAM: The Open Source CFD Toolbox
   \\    /   O peration     | Website:  https://openfoam.org
    \\  /    A nd           | Version:  8
     \\/     M anipulation  |
\*---------------------------------------------------------------------------*/
FoamFile
{
    version     2.0;
    format      ascii;
    class       volVectorField;
    location    "1/wallFilmRegion";
    object      contactForce:contactAngle;
}
// * * * * * * * * * * * * * * * * * * * * * * * * * * * * * * * * * * * * * //

dimensions      [1 -2 -2 0 0 0 0];

internalField   nonuniform List<vector> 
1369
(
(0 0 0)
(0 0 0)
(0 0 0)
(0 0 0)
(0 0 0)
(-604.2881521 -553.9308051 0)
(0 0 0)
(0 0 0)
(0 0 0)
(-266.4889953 0 0)
(-260.7121478 0 0)
(-706.1440096 -647.2986743 0)
(0 0 0)
(0 0 0)
(0 0 0)
(0 0 0)
(0 0 0)
(0 390.4324784 0)
(0 0 0)
(0 -549.7216103 -1.625480078e-12)
(0 0 0)
(0 0 0)
(0 0 0)
(0 0 0)
(0 0 0)
(0 0 0)
(0 0 0)
(0 0 0)
(-1077.34943 987.5703147 -2.920161482e-12)
(-307.6050784 0 -8.337652356e-13)
(-518.1619939 0 -1.404480899e-12)
(0 0 0)
(0 -646.4522469 0)
(0 0 0)
(0 0 0)
(0 0 0)
(0 0 0)
(0 0 0)
(0 0 0)
(0 0 0)
(0 0 0)
(0 0 0)
(0 0 0)
(0 0 0)
(0 0 0)
(0 0 0)
(0 0 0)
(0 0 0)
(0 0 0)
(0 0 0)
(684.6043194 0 0)
(546.539127 0 0)
(938.903208 -860.6612724 0)
(0 0 0)
(0 0 0)
(0 0 0)
(0 0 0)
(0 0 0)
(0 0 0)
(0 0 0)
(0 0 0)
(0 0 0)
(0 0 0)
(0 0 0)
(0 0 0)
(0 0 0)
(0 0 0)
(0 0 0)
(-697.9547789 0 0)
(-303.5291039 0 0)
(-470.0165649 0 0)
(0 0 0)
(659.9574436 0 0)
(454.2159041 0 0)
(733.6980972 -672.5565879 0)
(0 0 0)
(0 0 0)
(0 0 0)
(0 0 0)
(0 0 0)
(0 0 0)
(0 0 0)
(0 0 0)
(0 0 0)
(0 0 0)
(0 0 0)
(0 0 0)
(0 0 0)
(0 690.0172891 0)
(0 0 0)
(0 -521.2791508 0)
(0 0 0)
(0 0 0)
(0 0 0)
(-546.8559071 501.2845806 0)
(0 0 0)
(0 0 0)
(0 0 0)
(537.3464368 -492.5675689 0)
(0 0 0)
(0 0 0)
(0 0 0)
(0 0 0)
(0 0 0)
(0 0 0)
(0 0 0)
(0 0 0)
(0 0 0)
(0 0 0)
(0 0 0)
(865.6285361 793.4928277 0)
(0 0 0)
(0 0 0)
(-660.8831871 -605.8095887 -1.791327463e-12)
(0 0 0)
(0 -275.6848053 0)
(0 0 0)
(0 0 0)
(0 0 0)
(0 0 0)
(0 381.4098622 0)
(0 0 0)
(0 0 0)
(0 0 0)
(525.6498983 0 0)
(729.0233829 -668.2714331 0)
(0 0 0)
(0 0 0)
(0 0 0)
(0 0 0)
(0 0 0)
(0 0 0)
(0 0 0)
(604.4036208 554.0366514 0)
(562.4600698 0 0)
(0 0 0)
(-689.6836113 0 0)
(-983.8551389 -901.867209 0)
(0 0 0)
(0 0 0)
(0 0 0)
(0 -487.3178799 0)
(0 0 0)
(0 0 0)
(0 0 0)
(0 0 0)
(0 768.7680839 0)
(0 0 0)
(0 0 0)
(0 0 0)
(0 0 0)
(-500.6735057 -458.9507153 0)
(0 0 0)
(0 0 0)
(0 0 0)
(0 0 0)
(0 0 0)
(1.143507285e-05 1921.725277 0)
(324.2075823 0 0)
(0 0 0)
(-252.691382 0 0)
(-696.4931587 -638.4520645 0)
(0 0 0)
(0 0 0)
(0 0 0)
(0 0 0)
(0 0 0)
(0 -441.8387181 0)
(0 0 0)
(0 0 0)
(0 0 0)
(752.3370287 689.6422788 0)
(0 0 0)
(-241.330079 0 0)
(-226.9793321 0 0)
(-540.5772436 0 0)
(-511.067334 -468.4783886 0)
(0 0 0)
(0 0 0)
(0 0 0)
(0 0 0)
(0 0 0)
(0 0 0)
(0 0 0)
(0 253.4485564 0)
(0 -412.0930431 0)
(0 0 0)
(0 0 0)
(0 0 0)
(0 0 0)
(0 0 0)
(0 0 0)
(1015.499654 930.8746866 0)
(383.4041265 0 0)
(0 -654.877098 -1.936415939e-12)
(0 0 0)
(471.8730514 432.5502963 0)
(485.2830535 0 0)
(0 0 0)
(-946.7333123 -867.838868 0)
(0 0 0)
(0 0 0)
(0 0 0)
(0 0 0)
(0 0 0)
(0 0 0)
(0 0 0)
(0 0 0)
(0 0 0)
(0 0 0)
(0 0 0)
(0 557.7612029 0)
(0 -736.880731 0)
(0 0 0)
(0 0 0)
(0 0 0)
(0 0 0)
(0 0 0)
(0 0 0)
(0 601.3235432 0)
(0 0 0)
(0 -679.0996506 0)
(0 0 0)
(0 662.0215199 0)
(0 0 0)
(-989.0581551 -906.6366454 0)
(0 0 0)
(0 0 0)
(0 0 0)
(0 0 0)
(0 0 0)
(0 0 0)
(0 0 0)
(0 0 0)
(0 0 0)
(0 0 0)
(0 0 0)
(0 0 0)
(-975.7172683 894.4074992 0)
(0 -660.7221355 0)
(0 0 0)
(0 0 0)
(2177.380297 0 0)
(0 0 0)
(0 0 0)
(0 0 0)
(0 416.3774087 0)
(0 0 0)
(0 0 0)
(431.9718837 0 0)
(0 0 0)
(-1076.204506 -986.5207955 0)
(0 0 0)
(0 0 0)
(0 0 0)
(0 0 0)
(0 0 0)
(0 0 0)
(0 0 0)
(0 0 0)
(0 0 0)
(0 0 0)
(0 0 0)
(0 0 0)
(0 0 0)
(0 0 0)
(0 717.7033071 0)
(-4.149450187e-06 -697.3381003 0)
(0 0 0)
(0 327.9427169 0)
(584.9919262 -536.2426004 0)
(0 0 0)
(0 0 0)
(0 336.7615651 0)
(0 0 0)
(0 0 0)
(0 0 0)
(0 0 0)
(0 -264.8964109 7.832761807e-13)
(0 0 0)
(0 0 0)
(0 0 0)
(0 0 0)
(0 0 0)
(0 0 0)
(0 0 0)
(0 0 0)
(0 0 0)
(0 0 0)
(0 0 0)
(0 0 0)
(0 0 0)
(0 0 0)
(0 0 0)
(-1910.931354 0 5.179589841e-12)
(0 0 0)
(0 0 0)
(-491.5405713 450.5788562 1.332323395e-12)
(0 0 0)
(884.213093 -810.5286686 2.396664411e-12)
(0 0 0)
(0 346.5647956 -1.024762644e-12)
(0 0 0)
(0 0 0)
(0 0 0)
(0 0 0)
(0 0 0)
(-855.8165624 -784.4985183 0)
(0 0 0)
(0 0 0)
(0 0 0)
(0 0 0)
(0 0 0)
(0 0 0)
(0 0 0)
(0 0 0)
(6.532778578e-06 1097.865996 0)
(531.2859802 0 0)
(257.1837941 0 0)
(958.7464854 -878.8509434 -2.598687542e-12)
(0 0 0)
(0 0 0)
(0 0 0)
(0 0 0)
(1531.039646 3.112418439e-11 0)
(0 0 0)
(0 0 0)
(0 519.2951182 0)
(0 0 0)
(538.7272366 0 0)
(0 0 0)
(0 0 0)
(0 0 0)
(0 0 0)
(0 0 0)
(0 -655.8427885 0)
(0 0 0)
(0 0 0)
(0 0 0)
(0 0 0)
(0 0 0)
(0 0 0)
(0 0 0)
(0 0 0)
(0 0 0)
(0 0 0)
(0 362.7873989 0)
(0 0 0)
(0 0 0)
(347.2175756 0 0)
(853.651054 -782.513469 0)
(0 0 0)
(750.4542602 687.9164077 0)
(0 -360.8549474 0)
(0 0 0)
(0 0 0)
(-1021.269578 936.1637778 0)
(0 -632.9895368 0)
(0 0 0)
(-968.8329499 888.0968691 0)
(0 0 0)
(0 0 0)
(0 0 0)
(0 0 0)
(0 -780.5605741 0)
(0 0 0)
(0 0 0)
(0 0 0)
(0 0 0)
(0 0 0)
(0 0 0)
(0 0 0)
(0 0 0)
(0 0 0)
(0 0 0)
(0 664.1113923 0)
(-543.7261406 0 0)
(-378.4968308 0 0)
(-279.4441296 0 0)
(0 0 0)
(0 0 0)
(0 0 0)
(0 -569.9559738 0)
(0 0 0)
(0 0 0)
(0 0 0)
(-1183.366452 2.405640909e-11 0)
(0 0 0)
(0 0 0)
(0 572.7438658 -1.693554949e-12)
(0 0 0)
(-602.4061127 0 0)
(-477.9623576 0 0)
(0 0 0)
(-597.1222261 -547.3620396 0)
(0 0 0)
(0 0 0)
(0 0 0)
(0 0 0)
(437.7654005 -401.2849497 0)
(0 0 0)
(0 0 0)
(0 0 0)
(0 0 0)
(0 0 0)
(0 0 0)
(0 0 0)
(0 0 0)
(7.612068202e-06 1279.241706 0)
(-940.2338593 -861.8810408 0)
(0 0 0)
(0 0 0)
(0 0 0)
(0 -715.8492469 0)
(0 0 0)
(0 382.0497271 0)
(0 -701.4069976 0)
(0 0 0)
(0 0 0)
(0 0 0)
(0 0 0)
(0 0 0)
(0 0 0)
(0 690.6812074 2.042285626e-12)
(-923.5904982 -846.6246264 0)
(0 0 0)
(0 0 0)
(-1265.036135 -3.857498228e-11 0)
(0 0 0)
(0 0 0)
(0 0 0)
(0 0 0)
(-704.3028445 0 -1.909016675e-12)
(0 -512.5300433 -1.515507776e-12)
(0 0 0)
(0 0 0)
(0 0 0)
(0 0 0)
(0 0 0)
(0 0 0)
(0 0 0)
(-1713.997516 0.00479100154 -0.0008517336072)
(0 0 0)
(0 0 0)
(0 0 0)
(0 0 0)
(0 0 0)
(0 622.0232897 -331.7457545)
(0 0 0)
(0 449.0134997 -1.327694755e-12)
(0 -664.9082255 -1.966077109e-12)
(0 0 0)
(0 0 0)
(0 0 0)
(0 0 0)
(0 0 0)
(484.6040815 444.2204096 -1.313521995e-12)
(-339.4395696 -311.1529382 0)
(0 0 0)
(0 0 0)
(0 0 0)
(0 0 0)
(0 0 0)
(406.8542592 372.949739 -1.102780679e-12)
(642.4372311 0 -1.741329604e-12)
(0 -290.4107658 -8.587199605e-13)
(0 0 0)
(0 814.5197511 0)
(0 0 0)
(0 0 0)
(0 0 0)
(0 0 0)
(0 0 0)
(0 0 0)
(491.5687553 1053.361618 0)
(0 0 0)
(0 0 0)
(0 0 0)
(0 0 0)
(0 0 0)
(0 0 0)
(0 0 0)
(0 0 0)
(0 245.3101227 0)
(-887.9033947 -813.9114436 0)
(0 0 0)
(1016.926525 932.1826464 0)
(573.0857592 0 0)
(388.7474777 0 0)
(545.789504 0 0)
(0 -624.0671271 0)
(0 0 0)
(0 0 0)
(0 0 0)
(0 0 0)
(0 0 0)
(0 0 0)
(-783.6769063 718.3704962 0)
(0 -564.9575473 -1.670531449e-12)
(0 0 0)
(0 542.0880861 0)
(357.0871918 0 0)
(251.1857238 0 0)
(633.2125725 0 0)
(516.5691619 0 0)
(238.6456869 0 0)
(1016.652762 -931.9316968 0)
(0 0 0)
(0 0 0)
(0 0 0)
(0 0 0)
(0 0 0)
(0 0 0)
(0 0 0)
(0 -1428.731603 0)
(0 0 0)
(0 -1470.723906 0)
(0 0 0)
(0 0 0)
(-1008.294111 924.2696049 0)
(0 0 0)
(0 -488.1032975 0)
(0 0 0)
(0 1356.147611 0)
(0 0 0)
(0 0 0)
(0 0 0)
(0 0 0)
(0 0 0)
(0 0 0)
(0 0 0)
(523.2544499 0 0)
(0 0 0)
(-495.2206054 0 0)
(-525.090115 0 0)
(-671.706118 0 0)
(-644.4567011 0 0)
(-341.7254875 0 0)
(-323.9376123 0 0)
(-8.720385992e-06 -1465.515703 0)
(0 0 0)
(0 0 0)
(0 0 0)
(0 0 0)
(0 0 0)
(0 0 0)
(0 -1060.944078 0)
(0 0 0)
(-944.0727272 -9.595928403e-12 0)
(0 0 0)
(0 0 0)
(0 0 0)
(0 304.8059322 0)
(0 -277.6821176 0)
(0 0 0)
(0 -1403.081983 0)
(0 0 0)
(0 0 0)
(0 0 0)
(0 0 0)
(0 0 0)
(660.6493407 605.5952312 0)
(0 0 0)
(-281.1909419 0 0)
(-890.6180573 -816.3998843 0)
(0 0 0)
(0 0 0)
(0 0 0)
(0 0 0)
(0 0 0)
(0 0 0)
(0 0 0)
(0 0 0)
(0 0 0)
(0 0 0)
(0 0 0)
(0 0 0)
(0 0 0)
(-1432.351833 1.455899041e-11 0)
(0 0 0)
(0 0 0)
(0 0 0)
(0 0 0)
(0 0 0)
(0 785.8931494 0)
(0 0 0)
(714.1793863 0 0)
(0 0 0)
(718.7807649 0 -1.948259178e-12)
(526.4815545 0 0)
(411.3486987 0 0)
(224.9800838 0 0)
(622.9580371 0 0)
(0 0 0)
(0 -652.755889 1.930143683e-12)
(0 0 0)
(0 0 0)
(0 0 0)
(0 0 0)
(0 0 0)
(0 0 0)
(0 0 0)
(0 0 0)
(0 0 0)
(0 0 0)
(0 0 0)
(0 0 0)
(0 0 0)
(0 0 0)
(0 0 0)
(0 0 0)
(0 0 0)
(0 0 0)
(0 0 0)
(0 0 0)
(0 0 0)
(0 456.1658303 0)
(0 0 0)
(-520.5501147 0 0)
(0 0 0)
(0 0 0)
(0 0 0)
(0 0 0)
(0 0 0)
(0 0 0)
(0 -264.7611115 0)
(0 0 0)
(0 0 0)
(0 0 0)
(0 0 0)
(0 0 0)
(0 0 0)
(0 0 0)
(0 0 0)
(-9.448834765e-06 1587.929048 0)
(-646.7333311 0 0)
(533.9124325 0 0)
(405.7126048 0 0)
(303.1362688 0 0)
(485.2537189 -444.8159106 -1.315282841e-12)
(0 0 0)
(0 0 0)
(0 0 0)
(0 0 0)
(-1.043139138e-05 1753.045346 0)
(-534.175013 0 -0.0002654436636)
(-811.1923745 0 0)
(0 0 0)
(0 -348.0124004 0)
(0 0 0)
(0 717.9533114 0)
(0 0 0)
(0 0 0)
(0 0 0)
(0 0 0)
(-357.8363531 0 0)
(0 -350.975066 0)
(0 0 0)
(0 0 0)
(0 0 0)
(0 0 0)
(0 0 0)
(0 0 0)
(0 0 0)
(0 0 0)
(0 0 0)
(0 0 0)
(-1060.898212 972.4900257 0)
(-542.4332448 0 0)
(-610.8167354 0 0)
(0 0 0)
(835.7950608 -766.145471 0)
(0 0 0)
(0 0 0)
(0 0 0)
(0 0 0)
(0 0 0)
(0 0 0)
(0 755.2615649 0)
(0 0 0)
(377.8551241 0 0)
(0 0 0)
(0 0 0)
(0 0 0)
(0 0 0)
(-1066.70588 -977.8137214 0)
(0 0 0)
(0 0 0)
(711.0312618 0 0)
(423.4346217 -388.1484025 0)
(0 0 0)
(0 0 0)
(0 0 0)
(0 0 0)
(0 0 0)
(0 0 0)
(0 0 0)
(0 0 0)
(0 0 0)
(0 0 0)
(0 0 0)
(0 472.2537652 0)
(0 -318.494497 0)
(0 0 0)
(0 0 0)
(0 0 0)
(0 0 0)
(0 0 0)
(0 0 0)
(0 704.9255722 0)
(-693.6143819 0 0)
(-516.0683295 0 0)
(0 0 0)
(0 0 0)
(0 0 0)
(0 -669.4419917 0)
(0 0 0)
(0 0 0)
(0 0 0)
(0 0 0)
(0 0 0)
(585.0363573 -536.2833295 0)
(0 0 0)
(0 0 0)
(0 0 0)
(0 0 0)
(0 0 0)
(0 0 0)
(0 0 0)
(0 0 0)
(0 0 0)
(0 0 0)
(0 446.8528062 -1.321305768e-12)
(0 -609.2243796 0)
(0 0 0)
(0 0 0)
(0 0 0)
(0 0 0)
(0 0 0)
(0 0 0)
(-1564.870541 -2.412404357e-11 0)
(0 0 0)
(0 0 0)
(0 315.5873381 0)
(0 0 0)
(0 0 0)
(0 -243.8109321 0)
(0 0 0)
(0 0 0)
(0 0 0)
(0 0 0)
(0 0 0)
(0 0 0)
(658.3854025 -603.5199512 0)
(0 0 0)
(0 0 0)
(0 0 0)
(0 0 0)
(0 0 0)
(0 0 0)
(0 0 0)
(0 0 0)
(0 0 0)
(-957.7192 877.909265 0)
(0 -566.3171879 0)
(0 0 0)
(0 0 0)
(0 0 0)
(0 0 0)
(0 0 0)
(0 0 0)
(0 0 0)
(0 0 0)
(829.7624817 760.6156068 0)
(0 0 0)
(0 0 0)
(0 0 0)
(0 -653.9255982 0)
(0 0 0)
(0 0 0)
(0 0 0)
(0 0 0)
(0 0 0)
(0 0 0)
(0 -427.2883971 0)
(0 0 0)
(0 0 0)
(0 0 0)
(0 0 0)
(0 0 0)
(0 0 0)
(0 0 0)
(0 0 0)
(0 0 0)
(0 0 0)
(0 -892.1660198 0)
(0 0 0)
(0 0 0)
(0 0 0)
(0 0 0)
(0 0 0)
(0 0 0)
(0 0 0)
(927.9634959 850.633203 0)
(0 0 0)
(0 0 0)
(0 0 0)
(0 0 0)
(0 -330.0615998 0)
(0 0 0)
(0 0 0)
(0 0 0)
(-400.4189954 0 0)
(0 0 0)
(0 0 0)
(0 -306.0442208 0)
(0 0 0)
(0 0 0)
(0 0 0)
(0 0 0)
(0 0 0)
(0 0 0)
(0 0 0)
(0 0 0)
(0 0 0)
(0 0 0)
(-1925.708482 -1.957366227e-11 0)
(0 0 0)
(0 0 0)
(0 0 0)
(0 0 0)
(0 0 0)
(0 0 0)
(0 0 0)
(-590.4180513 541.2165461 0)
(-245.7590362 0 0)
(0 0 0)
(0 0 0)
(0 0 0)
(0 -384.8920601 0)
(0 0 0)
(0 0 0)
(0 -765.1948695 0)
(0 0 0)
(-897.9839288 823.1519332 0)
(-645.8241227 0 1.750509802e-12)
(0 -783.8439209 0)
(0 0 0)
(0 0 0)
(0 0 0)
(0 0 0)
(0 0 0)
(0 0 0)
(0 0 0)
(0 0 0)
(0 0 0)
(0 0 0)
(0 0 0)
(-2265.096789 -950.3902611 0)
(0 0 0)
(0 0 0)
(0 0 0)
(0 0 0)
(0 0 0)
(0 0 0)
(0 0 0)
(0 0 0)
(0 745.9792297 0)
(0 0 0)
(0 0 0)
(0 -673.3306698 0)
(0 0 0)
(0 0 0)
(0 -302.2919649 8.938516469e-13)
(0 0 0)
(0 0 0)
(0 0 0)
(-638.4174469 585.2159952 0)
(528.765685 -484.701877 0)
(0 0 0)
(0 0 0)
(0 0 0)
(0 0 0)
(0 0 0)
(0 0 0)
(0 0 0)
(0 0 0)
(0 0 0)
(0 0 0)
(0 0 0)
(0 0 0)
(0 0 0)
(0 0 0)
(0 0 0)
(0 0 0)
(0 0 0)
(0 0 0)
(0 0 0)
(0 286.1809265 0)
(0 0 0)
(0 0 0)
(0 0 0)
(349.1629189 0 0)
(654.4144069 -599.8798719 0)
(0 -256.795329 0)
(0 0 0)
(0 0 0)
(0 0 0)
(0 0 0)
(0 -1313.617617 0)
(0 0 0)
(0 0 0)
(0 0 0)
(0 0 0)
(0 0 0)
(0 0 0)
(0 0 0)
(0 0 0)
(0 0 0)
(0 0 0)
(0 0 0)
(0 0 0)
(0 0 0)
(0 0 0)
(0 0 0)
(0 0 0)
(0 0 0)
(0 0 0)
(0 0 0)
(0 250.8914851 0)
(0 0 0)
(-600.5602335 0 0)
(-681.6763734 0 0)
(0 0 0)
(-562.2598362 -515.4048489 0)
(0 -748.8904501 0)
(0 0 0)
(0 0 0)
(0 0 0)
(549.9572982 504.1275224 0)
(0 0 0)
(400.2586822 0 0)
(864.3623068 -792.3321131 0)
(0 0 0)
(0 0 0)
(0 0 0)
(0 0 0)
(0 0 0)
(0 0 0)
(0 0 0)
(0 0 0)
(0 0 0)
(0 0 0)
(0 0 0)
(0 0 0)
(0 0 0)
(0 0 0)
(0 0 0)
(0 0 0)
(628.3204709 575.9604306 0)
(0 0 0)
(0 -752.2412473 -2.224313456e-12)
(0 0 0)
(0 0 0)
(-981.1939551 4.820400951e-12 0)
(0 0 0)
(0 -786.6469161 0)
(0 0 0)
(972.7003426 891.6419791 0)
(255.8492582 0 -6.934808003e-13)
(0 0 0)
(0 0 0)
(0 0 0)
(0 0 0)
(275.0303184 0 0)
(829.5125286 -760.3864831 0)
(0 0 0)
(0 0 0)
(0 0 0)
(0 0 0)
(0 0 0)
(0 0 0)
(0 0 0)
(0 0 0)
(0 0 0)
(0 0 0)
(0 0 0)
(0 0 0)
(0 0 0)
(0 0 0)
(0 616.995884 0)
(0 0 0)
(0 -390.1767832 0)
(0 0 0)
(0 0 0)
(0 0 0)
(0 0 0)
(0 0 0)
(493.7525593 0 0)
(0 0 0)
(0 0 0)
(0 0 0)
(0 0 0)
(0 0 0)
(0 0 0)
(0 0 0)
(0 -353.1094265 0)
(0 0 0)
(0 0 0)
(0 0 0)
(0 0 0)
(0 0 0)
(1092.055603 1001.050973 0)
(405.9241701 0 0)
(256.3633566 0 0)
(-5.214409761e-06 -876.3104587 0)
(0 0 0)
(0 0 0)
(0 0 0)
(0 0 0)
(480.3359988 440.3080005 0)
(0 0 0)
(-552.758853 0 0)
(0 -692.1976303 0)
(0 0 0)
(0 0 0)
(0 0 0)
(0 0 0)
(0 0 0)
(0 0 0)
(0 0 0)
(-449.2004075 0 0)
(-404.9036514 0 0)
(-234.9818037 0 0)
(-616.8637754 0 0)
(-221.6216634 0 0)
(-243.2811677 0 0)
(0 -351.0664079 0)
(0 0 0)
(0 0 0)
(0 0 0)
(0 0 0)
(-2.70838198e-11 2064.109362 0)
(0 0 0)
(-408.4257875 0 0)
(-382.304085 -350.4454106 0)
(0 0 0)
(0 0 0)
(0 0 0)
(0 0 0)
(0 0 0)
(0 525.5503104 0)
(-1061.916949 -973.4238683 0)
(0 0 0)
(0 1147.395828 -611.9444416)
(0 0 0)
(0 0 0)
(0 0 0)
(0 0 0)
(0 0 0)
(0 0 0)
(0 -735.3751144 0)
(0 0 0)
(0 0 0)
(0 0 0)
(0 0 0)
(0 0 0)
(0 0 0)
(-497.2242168 455.7888671 0)
(487.2987876 -446.6905545 0)
(0 0 0)
(0 0 0)
(0 0 0)
(0 0 0)
(-1957.49884 9.948396071e-12 0)
(0 0 0)
(0 0 0)
(0 0 0)
(0 0 0)
(0 0 0)
(0 0 0)
(737.9444207 676.4490511 0)
(0 -417.9861809 0)
(0 0 0)
(0 0 0)
(0 378.4014139 0)
(4.824421183e-06 -810.7743178 0)
(0 0 0)
(0 0 0)
(0 0 0)
(0 0 0)
(0 0 0)
(0 -595.220586 0)
(0 0 0)
(0 0 0)
(0 0 0)
(0 0 0)
(0 0 0)
(0 0 0)
(0 0 0)
(0 348.7921704 0)
(533.0469653 0 0)
(588.2890866 0 0)
(681.4312985 -624.6453592 0)
(0 0 0)
(0 0 0)
(0 0 0)
(0 0 0)
(0 0 0)
(0 0 0)
(0 0 0)
(641.6397666 588.1697882 0)
(0 0 0)
(0 0 0)
(448.7157938 0 0)
(658.2344579 0 0)
(0 -448.3014125 0)
(0 0 0)
(0 0 0)
(0 0 0)
(0 0 0)
(0 0 0)
(0 0 0)
(0 -500.1660772 0)
(0 0 0)
(0 0 0)
(0 0 0)
(0 0 0)
(0 0 0)
(0 0 0)
(0 0 0)
(0 431.010352 0)
(0 0 0)
(0 0 0)
(0 0 0)
(1074.084487 -984.5774451 0)
(0 0 0)
(0 0 0)
(0 0 0)
(0 0 0)
(0 0 0)
(0 0 0)
(0 770.2096655 0)
(0 0 0)
(0 0 0)
(0 0 0)
(0 0 0)
(0 0 0)
(448.7634726 -411.3665158 0)
(0 0 0)
(0 0 0)
(0 0 0)
(0 0 0)
(0 0 0)
(0 0 0)
(1014.719943 -930.1599462 -2.750403902e-12)
(0 0 0)
(0 0 0)
(0 0 0)
(0 0 0)
(0 0 0)
(0 0 0)
(0 594.8224933 0)
(0 0 0)
(0 0 0)
(0 0 0)
(0 -596.6370947 -1.764205178e-12)
(0 0 0)
(0 0 0)
(0 0 0)
(0 0 0)
(0 0 0)
(0 0 0)
(0 659.527945 0)
(0 0 0)
(0 0 0)
(0 0 0)
(0 0 0)
(0 0 0)
(0 -657.1411142 0)
(0 0 0)
(0 0 0)
(0 0 0)
(0 0 0)
(0 0 0)
(0 0 0)
(0 0 0)
(713.4525854 0 0)
(830.5875111 -761.371888 0)
(0 0 0)
(0 0 0)
(0 0 0)
(0 0 0)
(0 340.9462188 0)
(0 0 0)
(0 0 0)
(0 0 0)
(0 -373.8762431 0)
(0 0 0)
(0 0 0)
(0 0 0)
(0 0 0)
(0 0 0)
(0 0 0)
(-953.8253248 874.3398794 0)
(-693.6135274 0 0)
(0 0 0)
(0 0 0)
(0 0 0)
(0 0 0)
(0 0 0)
(678.3675237 0 0)
(522.1651876 -478.6514237 0)
(0 0 0)
(0 0 0)
(0 0 0)
(0 0 0)
(0 0 0)
(0 0 0)
(0 0 0)
(514.276237 -471.4198831 0)
(0 0 0)
(0 0 0)
(574.9321389 527.0211263 0)
(0 0 0)
(0 0 0)
(0 0 0)
(0 0 0)
(0 -695.4300079 0)
(0 0 0)
(0 0 0)
(0 0 0)
(0 0 0)
(0 0 0)
(0 0 0)
(0 0 0)
(0 0 0)
(0 363.5488924 0)
(0 0 0)
(0 0 0)
(-426.1869415 0 -1.155182026e-12)
(0 0 0)
(0 0 0)
(0 0 0)
(5.555907338e-11 -2087.726667 0)
(0 0 0)
(0 0 0)
(0 0 0)
(0 0 0)
(0 0 0)
(0 0 0)
(0 0 0)
(627.7517481 -575.4391013 0)
(0 0 0)
(0 317.8156872 0)
(0 0 0)
(0 0 0)
(0 0 0)
(0 0 0)
(0 -392.4319988 0)
(0 0 0)
(0 0 0)
(0 0 0)
(0 0 0)
(0 0 0)
(0 0 0)
(0 0 0)
(0 0 0)
(0 344.1147114 0)
(0 0 0)
(0 -667.8133116 0)
(0 0 0)
(0 677.8619704 0)
(0 0 0)
(-486.2936773 -445.7692058 0)
(0 0 0)
(0 0 0)
(0 0 0)
(0 0 0)
(0 0 0)
(0 0 0)
(0 0 0)
(0 0 0)
(0 0 0)
(259.8354734 0 -7.042854618e-13)
(0 0 0)
(0 0 0)
(0 0 0)
(0 0 0)
(0 0 0)
(0 0 0)
(383.8085193 0 0)
(656.0207344 -601.3523421 0)
(0 0 0)
(0 0 0)
(0 0 0)
(0 0 0)
(0 0 0)
(0 0 0)
(0 549.9001142 0)
(0 0 0)
(0 0 0)
(575.8985234 0 0)
(0 0 0)
(0 -316.3000933 0)
(0 0 0)
(0 0 0)
(0 0 0)
(0 0 0)
(0 0 0)
(0 0 0)
(0 0 0)
(0 0 0)
(0 0 0)
(0 0 0)
(0 0 0)
(0 0 0)
(0 0 0)
(0 0 0)
(0 0 0)
(0 0 0)
(0 0 0)
(0 0 0)
(0 0 0)
(855.1462993 -783.8841062 0)
(0 0 0)
(0 0 0)
(0 0 0)
(0 0 0)
(0 0 0)
(0 552.0528534 0)
(0 0 0)
(0 0 0)
(0 0 0)
(0 0 0)
(0 0 0)
(827.4658295 -758.5103423 0)
(0 0 0)
(0 0 0)
(0 0 0)
(0 0 0)
(0 0 0)
(0 0 0)
(0 0 0)
(0 0 0)
(0 0 0)
(0 0 0)
(0 0 0)
(0 0 0)
(0 0 0)
(0 0 0)
(0 0 0)
(0 0 0)
(0 0 0)
(0 0 0)
(0 0 0)
(264.0007062 0 0)
(509.3281431 0 0)
(315.4947247 0 -8.551501603e-13)
(357.8680743 0 0)
(243.0189703 0 0)
(0 0 0)
(0 0 0)
(0 0 0)
(0 0 0)
(0 0 0)
(0 0 0)
(0 0 0)
(317.7266276 0 0)
)
;

boundaryField
{
    walls
    {
        type            calculated;
        value           uniform (0 0 0);
    }
    wallFilmFace_top
    {
        type            calculated;
        value           uniform (0 0 0);
    }
    region0_to_wallFilmRegion_wallFilmFace
    {
        type            calculated;
        value           uniform (0 0 0);
    }
    mirrorFace_top
    {
        type            calculated;
        value           nonuniform List<vector> 0();
    }
    region0_to_wallFilmRegion_mirrorFace
    {
        type            calculated;
        value           nonuniform List<vector> 0();
    }
    procBoundary1to0
    {
        type            processor;
        value           uniform (0 0 0);
    }
    procBoundary1to2
    {
        type            processor;
        value           uniform (0 0 0);
    }
}


// ************************************************************************* //
