/*--------------------------------*- C++ -*----------------------------------*\
  =========                 |
  \\      /  F ield         | OpenFOAM: The Open Source CFD Toolbox
   \\    /   O peration     | Website:  https://openfoam.org
    \\  /    A nd           | Version:  8
     \\/     M anipulation  |
\*---------------------------------------------------------------------------*/
FoamFile
{
    version     2.0;
    format      ascii;
    class       volScalarField;
    location    "1/wallFilmRegion";
    object      mu;
}
// * * * * * * * * * * * * * * * * * * * * * * * * * * * * * * * * * * * * * //

dimensions      [1 -1 -1 0 0 0 0];

internalField   nonuniform List<scalar> 
1369
(
0.0008861473725
0.0008861474013
0.0008861474028
0.0008861474034
0.0008861474036
0.0008861474034
0.0008861474024
0.0008861473729
0.0008861474018
0.0008861474037
0.0008861474041
0.0008861474041
0.0008861474036
0.0008861474016
0.0008861473955
0.0008861473814
0.000886147388
0.0008861473852
0.0008861473724
0.0008861474
0.0008861474031
0.0008861474034
0.000886147403
0.0008861474015
0.0008861473968
0.0008861473852
0.0008861473725
0.0008861473831
0.0008861473848
0.0008861473826
0.00088614739
0.0008861473718
0.0008861473909
0.0008861473913
0.0008861473904
0.0008861473895
0.0008861473861
0.0008861473779
0.0008861473684
0.0008861473663
0.0008861473733
0.0008861473802
0.0008861473877
0.0008861473941
0.0008861473982
0.0008861473997
0.0008861473964
0.0008861473571
0.0008861473748
0.0008861473931
0.0008861473945
0.0008861473944
0.000886147393
0.0008861473902
0.000886147384
0.0008861473741
0.0008861473676
0.0008861473723
0.0008861473801
0.0008861473893
0.0008861473965
0.0008861474002
0.0008861474014
0.0008861473982
0.0008861473572
0.0008861473558
0.0008861473675
0.0008861473747
0.0008861473867
0.0008861473892
0.0008861473907
0.0008861473903
0.000886147388
0.0008861473839
0.0008861473765
0.0008861473692
0.0008861473721
0.0008861473805
0.0008861473912
0.0008861473987
0.0008861474017
0.0008861474027
0.0008861474007
0.0008861473605
0.0008861473817
0.0008861474161
0.0008861474579
0.0008861474377
0.0008861474326
0.0008861474412
0.0008861473731
0.0008861473471
0.0008861473486
0.0008861473561
0.0008861473669
0.0008861473733
0.0008861473755
0.0008861473764
0.0008861473761
0.0008861473763
0.0008861473833
0.0008861473936
0.0008861474007
0.0008861474029
0.000886147404
0.0008861474038
0.0008861473708
0.0008861474227
0.0008861474541
0.0008861474703
0.0008861474429
0.0008861474371
0.0008861474488
0.0008861474565
0.000886147362
0.0008861473733
0.0008861472989
0.0008861473242
0.000886147354
0.0008861473706
0.0008861473802
0.0008861473851
0.0008861473864
0.0008861473848
0.0008861473846
0.0008861473892
0.0008861473968
0.0008861474024
0.0008861474038
0.0008861474049
0.0008861474079
0.0008861474338
0.0008861474654
0.0008861474686
0.0008861474579
0.0008861474394
0.0008861474436
0.0008861474538
0.0008861474371
0.0008861474189
0.0008861474878
0.0008861473728
0.0008861472901
0.0008861473456
0.0008861473736
0.0008861473839
0.0008861473895
0.0008861473917
0.0008861473909
0.0008861473898
0.0008861473913
0.0008861473954
0.0008861474004
0.0008861474035
0.0008861474039
0.0008861474036
0.0008861474017
0.0008861473984
0.0008861474437
0.0008861474548
0.0008861474502
0.0008861474369
0.0008861474105
0.0008861473328
0.0008861471835
0.0008861474222
0.0008861475245
0.0008861473706
0.0008861473331
0.0008861473697
0.0008861473851
0.0008861473906
0.0008861473935
0.0008861473938
0.000886147392
0.0008861473907
0.0008861473925
0.0008861473967
0.0008861474017
0.0008861474039
0.0008861474036
0.0008861474028
0.0008861473989
0.0008861474047
0.0008861474242
0.0008861474412
0.0008861474318
0.0008861473507
0.0008861473212
0.000886147403
0.0008861474752
0.0008861475335
0.0008861475785
0.0008861475924
0.0008861473675
0.0008861473615
0.0008861473801
0.0008861473898
0.0008861473931
0.0008861473944
0.0008861473933
0.0008861473892
0.000886147381
0.0008861473677
0.0008861473653
0.000886147384
0.0008861473972
0.0008861473999
0.0008861473995
0.0008861473957
0.0008861473881
0.0008861474266
0.0008861474416
0.0008861472507
0.0008861472503
0.0008861472219
0.00088614732
0.0008861474613
0.0008861475156
0.0008861475591
0.0008861475477
0.000886147367
0.0008861473662
0.0008861473823
0.0008861473914
0.0008861473934
0.0008861473931
0.0008861473902
0.0008861473842
0.0008861473736
0.0008861473566
0.0008861473516
0.0008861473805
0.0008861473958
0.0008861474012
0.0008861474008
0.0008861473958
0.0008861473682
0.0008861474071
0.0008861474283
0.0008861473629
0.0008861473434
0.0008861473755
0.0008861473702
0.0008861474477
0.000886147493
0.0008861475263
0.0008861475005
0.0008861473693
0.0008861473677
0.0008861473839
0.0008861473915
0.0008861473916
0.0008861473892
0.000886147384
0.0008861473759
0.0008861473644
0.0008861473468
0.0008861473295
0.0008861473659
0.0008861473911
0.0008861474
0.0008861474013
0.0008861473971
0.0008861472576
0.0008861473754
0.0008861474103
0.0008861473637
0.0008861473731
0.0008861474203
0.0008861474414
0.0008861474001
0.0008861474665
0.0008861474864
0.0008861474582
0.0008861474895
0.0008861473713
0.0008861473776
0.0008861473875
0.0008861473894
0.000886147387
0.0008861473815
0.0008861473729
0.0008861473624
0.0008861473518
0.000886147338
0.0008861473081
0.0008861473069
0.0008861473721
0.0008861473934
0.0008861473991
0.0008861473965
0.0008861407462
0.0008861406946
0.0008861473994
0.00088614733
0.0008861472485
0.0008861474002
0.0008861474182
0.0008861474119
0.0008861474058
0.0008861474281
0.0008861474408
0.0008861474777
0.0008861474992
0.0008861473729
0.0008861473818
0.0008861473864
0.0008861473845
0.0008861473788
0.0008861473685
0.0008861473533
0.0008861473373
0.0008861473309
0.0008861473417
0.0008861473616
0.0008861473931
0.0008861473958
0.0008861473889
0.0008861473883
0.0008861473905
0.0008861465809
0.0008861448051
0.0008861472767
0.0008861473602
0.0008861473244
0.0008861472985
0.0008861474032
0.0008861474191
0.000886147536
0.0008861475526
0.0008861474365
0.0008861474674
0.000886147492
0.0008861473738
0.0008861473807
0.0008861473822
0.0008861473778
0.0008861473678
0.0008861473488
0.0008861473184
0.0008861472857
0.0008861472803
0.000886147317
0.000886147362
0.0008861473912
0.0008861474002
0.0008861473925
0.0008861473838
0.0008861473719
0.0008861473363
0.0008861472726
0.0008861473469
0.0008861473901
0.0008861473298
0.0008861471957
0.0008861473252
0.0008861473699
0.0008861474252
0.0008861475074
0.0008861475555
0.0008861474586
0.0008861474822
0.0008861473742
0.0008861473776
0.000886147378
0.0008861473725
0.0008861473584
0.0008861473273
0.0008861472807
0.0008861472598
0.0008861472992
0.0008861473518
0.000886147383
0.0008861473955
0.0008861474005
0.0008861473812
0.000886147372
0.0008861473421
0.0008861473295
0.0008861472842
0.0008861473571
0.0008861473976
0.0008861472486
0.0008861472303
0.0008861472181
0.0008861473596
0.0008861473708
0.0008861474038
0.0008861475164
0.0008861475768
0.000886147472
0.000886147403
0.0008861474701
0.0008861475629
0.0008861473545
0.0008861470659
0.0008861473723
0.0008861473664
0.0008861473724
0.0008861473755
0.0008861473732
0.0008861473654
0.0008861473529
0.0008861473446
0.0008861473545
0.0008861473763
0.0008861473922
0.0008861473947
0.0008861473972
0.0008861469985
0.0008861471833
0.0008861473438
0.0008861473763
0.0008861472638
0.0008861473678
0.0008861473762
0.0008861397155
0.0008861422098
0.000886143146
0.0008861472973
0.0008861473533
0.0008861474083
0.000886147579
0.0008861475784
0.0008861472791
0.000886147152
0.0008861474501
0.0008861475541
0.0008861475251
0.0008861475172
0.0008861473802
0.0008861473873
0.0008861473884
0.0008861473873
0.0008861473838
0.00088614738
0.0008861473772
0.0008861473781
0.0008861473847
0.0008861473924
0.0008861473948
0.0008861473846
0.0008861473754
0.0008861470395
0.0008861472936
0.0008861473761
0.0008861473924
0.0008861473244
0.0008861473697
0.0008861473808
0.0008861473152
0.0008861473486
0.0008861473794
0.0008861473561
0.0008861473505
0.0008861474513
0.0008861475
0.0008861473845
0.0008861470866
0.0008861470902
0.0008861473413
0.0008861475186
0.0008861475197
0.0008861475191
0.0008861473807
0.0008861473599
0.0008861473758
0.0008861473877
0.000886147389
0.0008861473902
0.0008861473916
0.0008861473934
0.0008861473954
0.0008861473958
0.0008861473885
0.0008861473198
0.0008861471816
0.0008861472039
0.000886147341
0.0008861473862
0.000886147397
0.000886147352
0.0008861473708
0.0008861473883
0.0008861473608
0.0008861473469
0.0008861474149
0.0008861473995
0.000886147335
0.0008861473924
0.0008861473634
0.0008861471475
0.0008861470708
0.0008861472178
0.0008861473898
0.0008861474677
0.0008861474992
0.0008861473812
0.0008861473211
0.0008861473444
0.0008861473826
0.0008861473897
0.0008861473938
0.0008861473964
0.000886147398
0.0008861473983
0.0008861473952
0.0008861473744
0.0008861471171
0.000886147015
0.0008861472463
0.0008861473526
0.00088614739
0.000886147399
0.0008861473644
0.0008861473726
0.0008861473932
0.0008861474019
0.0008861473809
0.0008861474166
0.0008861473803
0.000886147307
0.0008861473557
0.0008861473052
0.0008861472403
0.0008861472483
0.0008861472384
0.0008861472184
0.0008861472682
0.0008861473802
0.000886147373
0.0008861473789
0.000886147394
0.0008861473969
0.0008861473988
0.0008861474002
0.0008861474009
0.0008861474006
0.0008861473973
0.0008861473778
0.0008861466092
0.0008861469682
0.0008861472594
0.0008861473502
0.0008861473895
0.0008861474001
0.0008861473709
0.0008861473749
0.0008861473883
0.0008861474031
0.0008861474373
0.0008861474323
0.0008861474004
0.0008861472997
0.0008861473351
0.0008861473144
0.0008861471309
0.0008861470757
0.0008861472068
0.000886147309
0.0008861473874
0.0008861473837
0.0008861473928
0.0008861473894
0.000886147386
0.0008861473831
0.000886147379
0.0008861473715
0.0008861473566
0.0008861473237
0.0008861472326
0.0008861464047
0.0008861424519
0.0008861382087
0.0008861361901
0.000886146372
0.0008861457855
0.0008861474002
0.0008861473779
0.0008861473794
0.0008861473857
0.0008861473862
0.000886147454
0.0008861474473
0.0008861474323
0.0008861473724
0.0008861473234
0.0008861473503
0.0008861473921
0.0008861474123
0.0008861474186
0.0008861474224
0.0008861474224
0.0008861473812
0.0008861473746
0.0008861473644
0.0008861473571
0.0008861473506
0.0008861473425
0.0008861473355
0.0008861473329
0.0008861473302
0.0008861473136
0.000886143958
0.0008861407702
0.0008861356443
0.0008861422989
0.0008861457409
0.0008861467339
0.0008861473982
0.0008861473873
0.0008861473886
0.0008861473936
0.0008861474113
0.0008861474045
0.0008861474302
0.0008861474259
0.0008861474174
0.0008861473449
0.0008861473677
0.0008861474117
0.0008861474366
0.0008861474431
0.0008861474493
0.0008861473816
0.0008861473652
0.000886147352
0.0008861473427
0.0008861473382
0.0008861473439
0.0008861473652
0.000886147383
0.0008861473924
0.0008861473974
0.0008861474
0.0008861474017
0.0008861474027
0.0008861474028
0.000886147402
0.0008861473985
0.0008861473938
0.0008861473932
0.0008861474
0.0008861474061
0.0008861474189
0.0008861474245
0.0008861474555
0.0008861474422
0.0008861474063
0.0008861473252
0.0008861473809
0.0008861474355
0.0008861475006
0.0008861474919
0.0008861474522
0.0008861473855
0.0008861473868
0.0008861473795
0.0008861473714
0.000886147361
0.000886147348
0.0008861473383
0.0008861473499
0.0008861473703
0.0008861473823
0.0008861473874
0.0008861473896
0.0008861473899
0.000886147389
0.0008861473886
0.0008861473903
0.0008861473935
0.0008861473153
0.0008861473979
0.0008861474988
0.0008861475548
0.0008861473926
0.000886147461
0.0008861474688
0.0008861475202
0.0008861473863
0.0008861473907
0.0008861474619
0.0008861475399
0.0008861475233
0.0008861474696
0.0008861473916
0.0008861474005
0.0008861473989
0.0008861473953
0.0008861473886
0.0008861473773
0.0008861473608
0.0008861473406
0.0008861473301
0.0008861473443
0.0008861473585
0.0008861473726
0.000886147379
0.0008861473782
0.0008861473751
0.0008861473869
0.0008861473964
0.0008861471734
0.0008861471296
0.0008861461832
0.0008861444888
0.0008861473785
0.0008861474331
0.0008861474481
0.000886147571
0.0008861475366
0.0008861474929
0.0008861475748
0.0008861475873
0.0008861474587
0.0008861474538
0.0008861473955
0.0008861474027
0.0008861474018
0.0008861473997
0.0008861473954
0.0008861473878
0.0008861473751
0.0008861473551
0.0008861473242
0.0008861472884
0.0008861472876
0.000886147345
0.0008861473635
0.000886147366
0.0008861473649
0.0008861473866
0.000886147398
0.0008861471658
0.0008861471773
0.0008861449651
0.000886143546
0.0008861457958
0.0008861474518
0.0008861474039
0.000886147446
0.0008861474872
0.0008861475665
0.0008861476142
0.0008861475867
0.0008861474552
0.0008861474728
0.0008861473969
0.0008861474019
0.0008861474014
0.0008861474
0.0008861473972
0.0008861473919
0.0008861473827
0.0008861473668
0.000886147339
0.0008861472921
0.000886147253
0.0008861473311
0.0008861473502
0.0008861473465
0.0008861473645
0.0008861473874
0.0008861473987
0.0008861472096
0.0008861472663
0.0008861443574
0.0008861465251
0.0008861477326
0.0008861477893
0.0008861477177
0.0008861474917
0.0008861474699
0.0008861475458
0.0008861475758
0.0008861475146
0.0008861474362
0.0008861474579
0.0008861473962
0.0008861473992
0.0008861473994
0.0008861473988
0.0008861473972
0.0008861473936
0.0008861473869
0.0008861473745
0.0008861473521
0.0008861473139
0.0008861472805
0.000886147326
0.0008861473346
0.0008861473328
0.000886147367
0.0008861473884
0.000886147399
0.0008861472865
0.0008861473299
0.0008861398313
0.000886146618
0.0008861476167
0.0008861477663
0.0008861476905
0.0008861474494
0.0008861474526
0.000886147511
0.0008861475078
0.0008861474464
0.0008861473825
0.0008861473931
0.000886147393
0.0008861473947
0.0008861473962
0.0008861473969
0.0008861473963
0.0008861473941
0.0008861473893
0.0008861473796
0.0008861473611
0.0008861473291
0.0008861472998
0.0008861473156
0.0008861473105
0.0008861473087
0.0008861473638
0.000886147388
0.0008861473986
0.0008861473015
0.0008861473572
0.0008861337725
0.0008861468467
0.0008861474728
0.0008861476469
0.0008861475129
0.0008861474277
0.0008861474373
0.0008861474798
0.0008861474602
0.0008861474214
0.0008861473985
0.0008861473927
0.0008861473881
0.0008861473891
0.0008861473922
0.0008861473943
0.0008861473948
0.0008861473938
0.0008861473903
0.0008861473827
0.0008861473671
0.0008861473387
0.0008861473066
0.0008861472986
0.0008861472733
0.0008861472751
0.0008861473574
0.0008861473846
0.0008861473937
0.0008861473619
0.000886147371
0.0008861470748
0.0008861466752
0.0008861473284
0.0008861475132
0.000886147507
0.0008861474079
0.00088614742
0.0008861474428
0.000886147457
0.0008861474304
0.0008861474112
0.0008861473949
0.0008861473824
0.000886147383
0.0008861473874
0.0008861473909
0.0008861473926
0.0008861473925
0.0008861473902
0.0008861473841
0.000886147371
0.0008861473461
0.0008861473124
0.0008861472835
0.0008861472321
0.0008861472322
0.0008861473372
0.0008861473745
0.0008861473857
0.0008861473687
0.0008861473535
0.0008861469848
0.0008861466767
0.0008861470652
0.000886147303
0.000886147402
0.0008861473829
0.0008861473849
0.0008861474001
0.0008861474506
0.0008861474429
0.000886147431
0.0008861474209
0.0008861473815
0.0008861473775
0.0008861473818
0.0008861473866
0.0008861473895
0.0008861473903
0.0008861473889
0.000886147384
0.000886147373
0.0008861473523
0.0008861473222
0.0008861472837
0.0008861472153
0.00088614719
0.0008861472909
0.0008861473496
0.0008861473708
0.000886147321
0.0008861472783
0.0008861467846
0.0008861466058
0.0008861467683
0.0008861470245
0.0008861472304
0.0008861473438
0.0008861473793
0.00088614739
0.0008861474209
0.0008861474349
0.0008861474341
0.0008861474273
0.0008861473816
0.0008861473742
0.0008861473766
0.0008861473817
0.0008861473853
0.0008861473869
0.0008861473862
0.0008861473825
0.0008861473738
0.0008861473595
0.0008861473439
0.00088614733
0.0008861473227
0.0008861473391
0.0008861473593
0.0008861473723
0.000886147381
0.0008861473853
0.0008861473767
0.0008861472777
0.000886147288
0.000886147287
0.0008861472927
0.0008861473273
0.0008861473782
0.0008861474187
0.0008861474323
0.0008861474227
0.0008861474192
0.0008861474108
0.0008861474153
0.0008861473806
0.0008861473753
0.000886147378
0.0008861473822
0.0008861473851
0.0008861473863
0.000886147386
0.0008861473833
0.0008861473771
0.0008861473686
0.0008861473635
0.000886147364
0.0008861473702
0.0008861473797
0.000886147387
0.0008861473926
0.0008861473969
0.000886147399
0.0008861473983
0.000886147347
0.0008861473543
0.0008861473543
0.0008861473552
0.0008861473652
0.0008861473805
0.0008861474266
0.0008861474395
0.0008861474106
0.0008861474056
0.0008861473971
0.0008861473901
0.0008861473797
0.0008861473767
0.0008861473799
0.0008861473833
0.0008861473854
0.0008861473862
0.0008861473856
0.000886147383
0.0008861473784
0.0008861473739
0.0008861473739
0.0008861473789
0.0008861473858
0.0008861473922
0.0008861473974
0.0008861474016
0.0008861474045
0.000886147406
0.0008861474064
0.0008861473665
0.0008861473704
0.0008861473702
0.0008861473702
0.0008861473917
0.0008861473981
0.000886147392
0.0008861474085
0.0008861474084
0.0008861474007
0.0008861473883
0.0008861473686
0.0008861473793
0.0008861473769
0.0008861473801
0.0008861473827
0.0008861473842
0.0008861473843
0.0008861473831
0.0008861473807
0.0008861473777
0.0008861473756
0.0008861473775
0.0008861473832
0.0008861473893
0.0008861473943
0.0008861473984
0.0008861474015
0.0008861474036
0.0008861474042
0.0008861474029
0.0008861473669
0.0008861473718
0.0008861473713
0.0008861473722
0.0008861474137
0.0008861474151
0.0008861473869
0.0008861474007
0.0008861474058
0.0008861473986
0.0008861473842
0.0008861473633
0.0008861473794
0.000886147377
0.00088614738
0.0008861473819
0.0008861473822
0.000886147381
0.0008861473791
0.0008861473775
0.0008861473763
0.0008861473762
0.000886147379
0.0008861473847
0.0008861473908
0.0008861473955
0.0008861473987
0.0008861474009
0.0008861474017
0.0008861473989
0.0008861473907
0.0008861473752
0.0008861473794
0.0008861473801
0.0008861473783
0.000886147407
0.0008861474095
0.0008861473876
0.000886147395
0.0008861474018
0.0008861473963
0.0008861473827
0.0008861473651
0.0008861473795
0.0008861473773
0.0008861473804
0.0008861473816
0.0008861473812
0.0008861473791
0.0008861473764
0.000886147375
0.0008861473753
0.0008861473769
0.0008861473804
0.0008861473853
0.0008861473911
0.0008861473965
0.0008861473995
0.0008861474013
0.0008861474021
0.0008861474015
0.0008861473986
0.0008861473841
0.0008861473877
0.0008861473847
0.0008861473805
0.000886147403
0.0008861474133
0.0008861473904
0.0008861473896
0.0008861473968
0.0008861473928
0.0008861473816
0.0008861473678
0.0008861473791
0.0008861473773
0.0008861473808
0.0008861473821
0.0008861473815
0.0008861473791
0.0008861473763
0.0008861473743
0.0008861473746
0.0008861473771
0.0008861473808
0.0008861473846
0.0008861473897
0.0008861473964
0.0008861473997
0.0008861474015
0.0008861474024
0.0008861474025
0.0008861474008
0.0008861473882
0.0008861473894
0.0008861473818
0.0008861473828
0.0008861474225
0.0008861474134
0.0008861473889
0.0008861473859
0.0008861473905
0.0008861473884
0.0008861473801
0.0008861473696
0.0008861473777
0.0008861473758
0.0008861473805
0.0008861473828
0.0008861473828
0.0008861473804
0.0008861473772
0.000886147375
0.0008861473745
0.0008861473764
0.0008861473797
0.0008861473827
0.000886147387
0.0008861473948
0.0008861473989
0.000886147401
0.0008861474022
0.0008861474025
0.0008861474014
0.0008861473877
0.0008861473839
0.0008861473762
0.0008861473901
0.0008861474463
0.0008861474222
0.0008861473835
0.0008861473639
0.0008861473672
0.0008861473824
0.0008861473777
0.0008861473704
0.0008861473761
0.0008861473623
0.0008861473614
0.0008861473604
0.0008861473601
0.0008861473821
0.0008861473785
0.0008861473757
0.0008861473744
0.0008861473751
0.0008861473773
0.0008861473798
0.0008861473836
0.0008861473914
0.000886147397
0.0008861473998
0.0008861474013
0.000886147402
0.0008861474012
0.0008861473821
0.0008861473732
0.0008861473677
0.0008861474004
0.0008861474602
0.0008861474499
0.0008861474015
0.0008861473494
0.0008861473488
0.0008861473554
0.0008861473785
0.0008861473779
0.0008861473743
0.0008861473589
0.0008861473579
0.0008861473604
0.0008861473596
0.0008861473596
0.0008861473799
0.0008861473761
0.0008861473738
0.0008861473732
0.0008861473743
0.0008861473766
0.00088614738
0.0008861473867
0.0008861473937
0.0008861473975
0.0008861473998
0.0008861474008
0.0008861473998
0.0008861473709
0.0008861473585
0.000886147353
0.0008861473961
0.0008861474578
0.0008861474722
0.0008861474261
0.0008861473586
0.0008861473475
0.0008861473563
0.0008861473669
0.0008861473751
0.0008861473684
0.0008861473631
0.0008861473616
0.0008861473613
0.0008861473606
0.0008861473597
0.0008861473598
0.000886147377
0.0008861473726
0.0008861473712
0.0008861473716
0.0008861473736
0.0008861473768
0.0008861473821
0.000886147389
0.0008861473938
0.0008861473971
0.0008861473986
0.000886147397
0.0008861473536
0.0008861473368
0.0008861473276
0.000886147371
0.0008861474401
0.000886147478
0.0008861474264
0.0008861473706
0.0008861473508
0.0008861473565
0.0008861473606
0.0008861473748
0.0008861473619
0.0008861473637
0.0008861473628
0.000886147362
0.0008861473611
0.0008861473598
0.0008861473594
0.0008861473609
0.0008861473713
0.0008861473691
0.0008861473693
0.0008861473713
0.0008861473745
0.0008861473788
0.000886147384
0.0008861473884
0.0008861473925
0.0008861473948
0.0008861473922
0.0008861473277
0.0008861472951
0.0008861472886
0.0008861473476
0.0008861474152
0.0008861474052
0.0008861473869
0.0008861473805
0.0008861473778
0.0008861473771
0.0008861473745
0.0008861473765
0.0008861473604
0.0008861473647
0.0008861473629
0.0008861473616
0.0008861473606
0.0008861473586
0.0008861473584
0.0008861473582
0.000886147369
0.0008861473671
0.0008861473676
0.0008861473698
0.0008861473731
0.0008861473769
0.0008861473801
0.0008861473822
0.000886147385
0.0008861473874
0.0008861473846
0.0008861473099
0.0008861472762
0.0008861472794
0.0008861473132
0.0008861474181
0.0008861474381
0.000886147419
0.0008861473861
0.0008861473725
0.0008861473778
0.0008861473814
0.0008861473881
0.0008861473654
0.0008861473651
0.0008861473598
0.0008861473603
0.0008861473628
0.0008861473642
0.0008861473648
0.0008861473662
0.0008861473709
0.0008861473723
0.000886147373
0.0008861473736
0.0008861473742
0.0008861473751
0.0008861473755
0.0008861473745
0.0008861473729
0.0008861473708
0.0008861473676
0.0008861473619
0.0008861473561
0.0008861473529
0.0008861473724
0.0008861474055
0.0008861473957
0.0008861473817
0.0008861473685
0.0008861473692
0.0008861473706
0.0008861473734
0.0008861473792
)
;

boundaryField
{
    walls
    {
        type            zeroGradient;
    }
    wallFilmFace_top
    {
        type            zeroGradient;
    }
    region0_to_wallFilmRegion_wallFilmFace
    {
        type            zeroGradient;
    }
    mirrorFace_top
    {
        type            zeroGradient;
    }
    region0_to_wallFilmRegion_mirrorFace
    {
        type            zeroGradient;
    }
    procBoundary1to0
    {
        type            processor;
        value           nonuniform List<scalar> 
52
(
0.0008861473715
0.0008861473996
0.000886147401
0.0008861474016
0.0008861474019
0.0008861474019
0.000886147401
0.0008861473988
0.0008861473988
0.0008861473828
0.000886147385
0.0008861473802
0.0008861473759
0.0008861473759
0.0008861473836
0.0008861473939
0.0008861473939
0.0008861473958
0.0008861473938
0.0008861473673
0.0008861473428
0.0008861473428
0.000886147326
0.0008861474236
0.0008861474236
0.0008861474218
0.0008861474247
0.0008861474236
0.0008861474488
0.0008861474488
0.0008861473603
0.0008861474388
0.0008861474388
0.000886147517
0.0008861475717
0.0008861475717
0.0008861475804
0.0008861475391
0.0008861475082
0.0008861475082
0.0008861475068
0.0008861475068
0.0008861475086
0.0008861475028
0.0008861474488
0.0008861474488
0.0008861474953
0.0008861475422
0.0008861474591
0.0008861474025
0.0008861474308
0.0008861474877
)
;
    }
    procBoundary1to2
    {
        type            processor;
        value           nonuniform List<scalar> 
33
(
0.0008861474898
0.000886147509
0.000886147509
0.00088614725
0.00088614725
0.0008861474099
0.0008861474188
0.0008861474563
0.0008861474563
0.0008861474542
0.0008861474689
0.0008861474734
0.0008861474894
0.0008861474667
0.000886147397
0.0008861473884
0.0008861473924
0.0008861474041
0.0008861473987
0.0008861470584
0.0008861472293
0.0008861473055
0.0008861473372
0.0008861473522
0.0008861473599
0.0008861473637
0.0008861473656
0.0008861473665
0.0008861473678
0.0008861473751
0.0008861473835
0.0008861473848
0.0008861473744
)
;
    }
}


// ************************************************************************* //
