/*--------------------------------*- C++ -*----------------------------------*\
  =========                 |
  \\      /  F ield         | OpenFOAM: The Open Source CFD Toolbox
   \\    /   O peration     | Website:  https://openfoam.org
    \\  /    A nd           | Version:  8
     \\/     M anipulation  |
\*---------------------------------------------------------------------------*/
FoamFile
{
    version     2.0;
    format      ascii;
    class       volScalarField;
    location    "2";
    object      epsilon;
}
// * * * * * * * * * * * * * * * * * * * * * * * * * * * * * * * * * * * * * //

dimensions      [0 2 -3 0 0 0 0];

internalField   nonuniform List<scalar> 
67193
(
0.2913538123
0.2468750763
0.2319763529
0.2394854109
0.5255377542
0.368431554
0.2372350905
0.1631580338
0.121473691
0.09969012899
0.1051829735
0.1356057392
0.1646606049
0.1888405433
0.1975769182
0.1923039465
0.1858888562
0.1845411588
0.1844360963
0.1788163697
0.1643854521
0.1419144196
0.1150149615
0.08901735082
0.06843279246
0.05427960527
0.04479029357
0.03815648219
0.03386837301
0.03193302927
0.0312258853
0.03026009473
0.02833240679
0.01478502347
0.3660279096
0.3246532787
0.3392443912
0.4717851016
1.216691441
0.8327279581
0.4971636577
0.2994474698
0.2038208253
0.1606568525
0.1511859194
0.1692280584
0.1972950478
0.2423869567
0.2632559712
0.2504030095
0.2332907524
0.2276296561
0.2278864244
0.2228459278
0.2075066044
0.1828034319
0.1519223863
0.1192497271
0.09011104889
0.06837101301
0.05443280377
0.04668708965
0.04350882502
0.0431502461
0.04292590369
0.04142242166
0.03892643359
0.04010498115
0.4079641701
0.3867783531
0.4876123961
0.8642764222
2.050417523
1.42446537
0.8576562882
0.4924547056
0.3099445498
0.2341664636
0.2120035907
0.2258428968
0.267283375
0.3504398849
0.3942169239
0.3687788891
0.3229154658
0.2900750404
0.2737083673
0.2608712687
0.2415535476
0.2140772137
0.1805342291
0.1439755462
0.1088051436
0.0804014583
0.06200112258
0.05318056456
0.05113242731
0.05228185302
0.05248375172
0.05124177074
0.05141654934
0.0615929998
0.4315884867
0.4360532939
0.6168551845
1.222191929
2.690379053
1.893879116
1.11721553
0.639104292
0.4008668292
0.3046331487
0.278840285
0.3018433435
0.3872032085
0.5211101391
0.5971746542
0.5560565726
0.4671335619
0.3819052661
0.3235106647
0.2880126722
0.260280553
0.2307906612
0.1971209727
0.1600001969
0.1222381944
0.08949585657
0.06765411573
0.05819204612
0.05723235894
0.06107802713
0.06403586522
0.06645726484
0.07297875972
0.09655239416
0.4514973
0.4532276764
0.568383693
1.067091843
2.537831422
1.761833085
1.020712633
0.6188613333
0.4394133233
0.3657998479
0.3460443759
0.3866274596
0.540310377
0.7493087027
0.8821014814
0.8194083313
0.6754655332
0.5227142701
0.4017449471
0.3255778013
0.2814104487
0.2497504456
0.2189006663
0.1844980623
0.1462375284
0.1088633279
0.08139222036
0.06927421337
0.06858858511
0.07995051701
0.09186855652
0.101203835
0.1121202057
0.1436092112
0.467587584
0.4588599733
0.4351805858
0.5503968184
1.365749602
0.9427303558
0.6419776287
0.5189659853
0.4749952596
0.4395483082
0.4165407229
0.4739576369
0.6922924982
1.056942507
1.30047973
1.193545015
0.9643249523
0.7201276205
0.521342615
0.3937803233
0.3270615211
0.2920879172
0.2660829483
0.2377146771
0.2014374745
0.1579703938
0.1181551076
0.09607370664
0.09408026383
0.1226230201
0.1522391549
0.168304318
0.1741520253
0.20016697
0.4627516215
0.4626591717
0.4379722553
0.4571568348
0.5167268874
0.5176819636
0.52455637
0.5718126783
0.6016293581
0.5656502888
0.5033875544
0.5954579521
0.8377534636
1.50038998
1.923122451
1.73501956
1.363702758
0.9854576216
0.67972165
0.4904179271
0.4003585053
0.3622838527
0.341174175
0.3201145041
0.2887415896
0.2412778232
0.1851084426
0.1441919747
0.1403644414
0.1952765543
0.2471827947
0.266256851
0.2567087475
0.2649166929
0.4387714937
0.4514624579
0.4474633223
0.4827684016
0.5275235965
0.5609955699
0.6142365583
0.7678988919
0.8518296872
0.7834052036
0.6341941716
0.8931902951
1.020205446
2.083346043
2.731049819
2.42912908
1.858457324
1.308143694
0.8673300072
0.6011448897
0.4853893636
0.4442946576
0.4265043642
0.410918638
0.3845939863
0.3369013145
0.2687248844
0.2080626785
0.206448904
0.2907863642
0.3613240308
0.3777292364
0.3467376114
0.330789514
0.4020887194
0.4323966223
0.4559341601
0.5207008531
0.5939402652
0.6444766376
0.7745605346
1.134387338
1.281868433
1.138912415
0.8611664844
1.702319367
1.345566406
2.613042355
3.50141763
3.108408795
2.320154458
1.591570937
1.034049671
0.7038879091
0.5680768043
0.5247734993
0.5085049738
0.4952822448
0.4703244829
0.4210308275
0.3450876715
0.271476434
0.282898201
0.3976815365
0.4786640818
0.4838481188
0.4270111063
0.385813723
0.3609580579
0.411522238
0.4672447841
0.5589635708
0.6608999342
0.7512407731
1.058408314
1.748510084
1.92913128
1.641576301
1.264679638
3.505698939
2.102118618
2.780598471
3.776694255
3.421504095
2.496472892
1.661255938
1.074588774
0.756573188
0.6362095603
0.6002618072
0.5863208154
0.5728639131
0.5430797885
0.484893799
0.3988621784
0.3188412638
0.3571925628
0.5054020597
0.5894661676
0.5720434434
0.4833456327
0.4185503553
0.3256704832
0.3904447962
0.4760998154
0.5950842044
0.7307658089
0.9107104093
1.532658409
2.593653135
2.757546702
2.261464464
1.982905282
6.259714048
3.680981386
2.75538753
3.220967793
3.016420487
2.113944943
1.34632812
0.9163580285
0.7404472702
0.6886453765
0.6708340964
0.6618478073
0.6478212561
0.6054274074
0.526526133
0.4246164553
0.3427709296
0.4182345459
0.5998697093
0.6736628136
0.6256790521
0.5043471114
0.4215295169
0.3003920731
0.3679213662
0.4760295966
0.627742456
0.8215025743
1.152673367
2.171892648
3.496490813
3.665920325
3.027445693
2.913015836
6.994150465
4.853217022
2.679371994
1.678412905
1.232227996
0.8910626056
0.7214950321
0.7006887159
0.7207765574
0.7257477243
0.7206229053
0.7217434285
0.7095264921
0.6490567094
0.5399732065
0.4194186708
0.3420432927
0.4546643381
0.6530380893
0.7047187224
0.6239428019
0.4814751733
0.3929815854
0.3016432475
0.3427350028
0.4716685369
0.6626363779
0.9348632806
1.378587422
2.691860858
4.210529659
4.427504097
3.83631533
3.153755362
2.852868072
1.739798583
0.9738480436
0.7220015841
0.6507137191
0.6295989193
0.6636727209
0.7078080751
0.7297684337
0.7252994403
0.7260146213
0.7460006164
0.7367564109
0.6515325252
0.5121517667
0.3812208505
0.3192244251
0.4537756692
0.638746181
0.6606512384
0.5556695051
0.4159903545
0.340415577
0.3525229361
0.3285529272
0.4865342011
0.7167007138
1.064173324
1.42170928
2.695581489
4.350243987
4.645800933
4.158247191
3.303391186
2.402612232
1.667799014
1.083889383
0.7115679708
0.5932942318
0.6160437194
0.6618971423
0.6823889974
0.6795065966
0.6591165926
0.6726050984
0.7176596149
0.7025317392
0.5858265982
0.4339422984
0.3172814218
0.2829672504
0.4083893045
0.5489280671
0.5403365219
0.4351191363
0.3283997211
0.2836897716
0.4431255852
0.3525502355
0.5562272239
0.8353535256
1.259033087
1.39547831
2.125182003
3.511361221
4.002629547
3.713171915
2.97983408
2.174759228
1.483872679
0.9782947017
0.6720130349
0.5557130956
0.5546768427
0.579991385
0.5895312132
0.5771194906
0.5373306624
0.5669626901
0.6274953647
0.5846137071
0.4497989789
0.3283673691
0.2555851266
0.2492488924
0.3327025971
0.41044181
0.3854971711
0.314272289
0.2559365082
0.2464768437
0.538463465
0.4269777927
0.7158079981
1.079832543
1.554097694
1.651656037
1.724090596
1.990186282
2.157662345
1.98640512
1.601641515
1.242121856
0.9793005539
0.786502916
0.636590846
0.5235533386
0.4523693083
0.4196803531
0.4094486891
0.3973566799
0.3567591735
0.4226176898
0.4762718564
0.4075539086
0.324383419
0.261459042
0.2309767005
0.2323312813
0.2671923361
0.291559715
0.2834350122
0.2471440062
0.2250561647
0.2357260354
0.5972968432
0.5420274172
0.9528169949
1.428982191
1.884145707
1.987980199
1.961020339
1.813720586
1.574628668
1.350717798
1.190187506
1.066320901
0.9564410129
0.8405508214
0.71207053
0.5781267311
0.454427604
0.3602236955
0.307087515
0.2681616944
0.2226809708
0.2726427016
0.3138960603
0.3007265626
0.3288061663
0.2869713657
0.251943923
0.2362812255
0.2396330073
0.2484790358
0.2909100458
0.2614643507
0.2349348184
0.2401494582
0.5712459587
0.6713865068
1.195812487
1.759816503
2.173427154
2.267983154
2.246812472
2.121013421
1.90911971
1.664155356
1.444342637
1.267717363
1.113038435
0.9556911277
0.7895905168
0.6269497876
0.4674612869
0.3171804662
0.2024505811
0.1508054078
0.1645257932
0.225719628
0.2901912948
0.3883021733
0.4988309902
0.4086360224
0.3175253252
0.2631427305
0.249685396
0.2836704452
0.428511326
0.3726274046
0.2885543354
0.2576319562
0.5551465138
0.7491767336
1.303548957
1.957318609
2.343115123
2.419640383
2.402854861
2.30055367
2.124998082
1.900707478
1.659638385
1.428788305
1.215027894
1.010641572
0.8102316093
0.6198570189
0.4398426555
0.2755547031
0.1613885331
0.1396471175
0.191278955
0.2877808127
0.4373316339
0.6356767889
0.8007537102
0.6350031874
0.4502278038
0.324376078
0.2951625915
0.4058648212
0.7059745928
0.620815641
0.4291613656
0.313085376
0.750769324
0.7136454918
1.122615759
1.939482672
2.347774269
2.439630121
2.429026154
2.339746283
2.186519053
1.978750871
1.731826872
1.4681703
1.20688578
0.9561916918
0.7267421576
0.5231995528
0.3435738794
0.2034317533
0.1428282141
0.1712416594
0.260048924
0.4346205645
0.6974798524
0.9978490428
1.194385809
0.9683178796
0.6695636063
0.436290013
0.3933673765
0.6655729581
1.111191024
1.027592016
0.7177499463
0.4584318789
0.9095116688
0.8196505979
0.7696679942
1.304418501
1.934455164
2.189802675
2.234649599
2.160485982
2.006442338
1.794654289
1.545079621
1.282389607
1.03595146
0.8151923238
0.6184479432
0.4430817616
0.2848837707
0.1720049798
0.2150824243
0.3229638044
0.3670261025
0.6303322865
1.009922133
1.405883632
1.623354457
1.35875712
0.9491032031
0.5928892821
0.5703479189
1.093032013
1.610109828
1.54462236
1.154137883
0.7372694949
1.086160649
1.095629279
1.015987837
0.9828456918
1.319320185
1.633928311
1.764555727
1.746950536
1.628673139
1.443453626
1.228429233
1.014121091
0.8171454174
0.644096132
0.4910588058
0.3457469231
0.2176173964
0.1737594248
0.7196838558
1.103847528
0.5853999508
0.7920607826
1.26521282
1.746314973
1.993336637
1.716605141
1.211015599
0.7470091895
0.8334172943
1.601369142
2.137689457
2.101139175
1.643267072
1.117366086
1.188133251
1.127140325
1.095593794
1.025438574
1.062084363
1.194903391
1.286099472
1.282893824
1.194094459
1.056036761
0.8959847918
0.7367598829
0.5947298008
0.4721619273
0.3587046259
0.2481935998
0.1738152374
0.4947673604
2.951553037
4.244983435
1.500595813
0.9082375643
1.316742205
1.876628577
2.164269225
1.907354525
1.348077627
0.8310865666
1.128484179
1.989372606
2.513024566
2.540886032
2.063971804
1.493274609
1.122453318
1.081874585
1.036844918
0.9700948199
0.9247424616
0.9372176899
0.9635527502
0.9377018107
0.8539179644
0.7464557251
0.6296007268
0.518593826
0.4208687634
0.3324578364
0.2479195622
0.1764463821
0.3000677953
2.194367557
8.208335319
14.67034683
5.131639871
1.627214182
1.144795908
1.678286076
2.032790686
1.800600933
1.218609682
0.7633777961
1.212225773
1.972033059
2.494605538
2.597667003
2.192556852
1.729476534
0.9091007433
1.051355596
1.032250126
0.9857321046
0.9175214384
0.8516599954
0.8671892671
0.8735448124
0.8041310064
0.6974581582
0.5902043783
0.4971660562
0.4146574289
0.3400874627
0.2694905966
0.2060002269
0.1539558818
0.1231349723
0.1558609125
0.8119636317
2.050692631
0.4805888312
0.4696345825
0.7637561429
1.207707995
1.444674581
0.9912579978
0.5242762229
0.3637491937
0.6398805478
1.127915187
1.538868394
1.503428759
1.016930907
0.6360225844
0.8697772066
1.0077156
0.996870829
0.9479447744
0.8843049634
0.820309409
0.7778774144
0.7348836983
0.6685223755
0.5855160817
0.5087892569
0.436863528
0.3667289071
0.2962781642
0.2320753655
0.1818002346
0.1434944844
0.1243068446
0.1451106327
0.2260346785
0.4264477233
0.2746816912
0.3236696063
0.4122608193
0.5618038134
0.7174195707
0.4394895176
0.2983647083
0.2727916871
0.2762381999
0.3322660236
0.8436438787
0.8369808216
0.5242347714
0.297388488
0.8026704166
0.911629446
0.9110532756
0.8694856328
0.8142279859
0.7585884159
0.7108926903
0.662977295
0.6042159952
0.5346892061
0.4674454833
0.3999112949
0.3317185657
0.2683155148
0.2286598389
0.2008091877
0.1674432678
0.1432368764
0.1530524052
0.1988647926
0.2400625804
0.2726191605
0.3026657597
0.3270201901
0.3452385378
0.3555802979
0.3210221008
0.2999869403
0.2890679311
0.2735711561
0.2655836407
0.4284167458
0.4175299064
0.2835384979
0.1914678505
0.6770552897
0.7571337972
0.7676177551
0.7442904832
0.7075787522
0.6700078578
0.6350731226
0.5951440703
0.542323246
0.4821123429
0.4183212354
0.3508794704
0.2836979291
0.2598775956
0.29038555
0.2941104692
0.2430530142
0.1837424142
0.1692867201
0.2086300923
0.2477201703
0.282578269
0.3103892569
0.3281388743
0.3325042515
0.3223877631
0.3147937624
0.2996135076
0.2942589689
0.293897918
0.2752105858
0.2699915881
0.2556453837
0.2099531537
0.1667393703
0.5800716857
0.596863443
0.5936513752
0.5793711499
0.5615395286
0.5400693232
0.509459301
0.4670943891
0.4148389143
0.3548081575
0.2891571774
0.243554089
0.3202947909
0.4387002536
0.4439612248
0.3463078781
0.2339828693
0.1844435748
0.2135963728
0.2531277274
0.2901052042
0.32308978
0.3422564963
0.3429436175
0.3280865687
0.3146349522
0.300474015
0.3376942726
0.5093968428
0.457528819
0.3070334247
0.2354727822
0.1962138773
0.1616591306
0.4435165241
0.4564044372
0.4634987625
0.463901731
0.4583727449
0.4448119952
0.420077962
0.383698484
0.3365973481
0.2804372425
0.2224856169
0.2404750809
0.3476650493
0.3276625099
0.3120034439
0.3327803546
0.6302785173
1.504965636
1.344830579
0.7148327826
0.3341772108
0.2025055369
0.15961243
0.3514178022
0.3541362342
0.3518250786
0.3411995771
0.3202392251
0.2889383492
0.3403120019
0.2890952346
0.2640531256
0.2483888056
0.3162376083
0.2522529173
0.1896322785
0.1492598609
0.1200337585
0.1046810346
0.115060338
0.1497441215
0.1863410207
0.2118124066
0.2189781258
0.2122378254
0.2039308614
0.1993507509
0.1935642237
0.1800446309
0.1579234715
0.131675074
0.1069765475
0.08754966243
0.073879216
0.06400436597
0.05589139742
0.04921962825
0.04491344966
0.04363053719
0.04369225589
0.04198311329
0.03670208113
0.008236043617
0.3454019653
0.3086122474
0.3027731377
0.3678486976
0.6228987353
0.4701080977
0.2994018462
0.2142740975
0.1698496693
0.1467898195
0.1441293236
0.159849927
0.1777523748
0.1944324972
0.1990653014
0.1924255049
0.1872320112
0.1874872239
0.1861234873
0.1767294353
0.1588907394
0.1363548338
0.1132744493
0.0924448996
0.07563173761
0.06347951584
0.05545536503
0.05101061379
0.04970956767
0.05037884747
0.05043670519
0.04854298979
0.04535722393
0.04682024025
0.3476435074
0.3277152513
0.3644058388
0.6395494997
1.264850614
0.9426980457
0.501390113
0.3117718023
0.2332935804
0.1989110632
0.1886564307
0.1987567151
0.2161226498
0.2387222288
0.246784818
0.2372342307
0.2278561068
0.2246482477
0.2197273664
0.2069286065
0.1859765592
0.1601649446
0.1333958027
0.1083411041
0.08682699909
0.07068930701
0.06081832189
0.05684675673
0.05703217859
0.05880977461
0.0589956933
0.05754374536
0.05790084832
0.07175735273
0.3306766808
0.3241285018
0.4035125216
0.9439202956
1.715794109
1.358331864
0.6971775631
0.391411554
0.2852313532
0.247012888
0.2382287693
0.254724184
0.2891089917
0.3228680254
0.330181159
0.3105913161
0.2874776132
0.2688404778
0.2500906432
0.2278428292
0.2016633386
0.1730818609
0.1444863684
0.117636348
0.09369918088
0.07492540397
0.06365044307
0.06008424944
0.06112824209
0.06393941646
0.06570400084
0.06820754468
0.07576444997
0.1095798682
0.3138821336
0.3115304505
0.3970629753
0.9702077515
1.641098618
1.311943763
0.7029813746
0.4150811197
0.320718227
0.2936052475
0.2935205363
0.3287919708
0.4043412961
0.4720277114
0.480861582
0.4309251068
0.3757600989
0.327384654
0.2848574699
0.2481332733
0.2153911862
0.1849163249
0.1565886105
0.1303708955
0.1056950804
0.08448829845
0.0709535131
0.06687706035
0.0679874503
0.07348150333
0.08054890103
0.09018942578
0.1030903875
0.1580829904
0.2985710072
0.2947203541
0.3426238749
0.650560515
1.10971561
0.8501332897
0.5356202639
0.393493005
0.3531463483
0.3474159181
0.3556139098
0.4193428823
0.5620488157
0.7047440531
0.7303725151
0.6359726207
0.5057875238
0.4066314271
0.3305580598
0.2752412836
0.2352682022
0.204710608
0.1800445281
0.158165038
0.1350138655
0.110640125
0.09150612101
0.08397884703
0.08446880711
0.09631986075
0.1133295277
0.1305471077
0.1416481322
0.2126297941
0.2837723449
0.2837794977
0.3020106204
0.3748776599
0.5332969074
0.4547021054
0.3959844833
0.3953963791
0.4096747265
0.4220598074
0.4299180705
0.5370744642
0.7798362968
1.035276617
1.092919084
0.9455272174
0.7042846112
0.5123604589
0.3924839656
0.316840792
0.2694827086
0.2395239182
0.2202979994
0.205166514
0.1856649968
0.1580903555
0.1299343465
0.1153249828
0.1161697265
0.1380278839
0.1674212468
0.1896199046
0.1916523319
0.2719741302
0.2706530228
0.2766182634
0.2970959624
0.3290574345
0.3690845291
0.381122215
0.413744554
0.4766368809
0.5099128554
0.5288664008
0.5269636236
0.7132928937
1.078056958
1.480837253
1.584598999
1.370262852
0.9806894552
0.6384502527
0.4642023453
0.3708975485
0.3170852272
0.2868402297
0.271547685
0.2618686413
0.2458345222
0.2159443367
0.179366329
0.1577562035
0.16322944
0.1964510092
0.2363953213
0.2590896674
0.2465746703
0.3335482015
0.2601406626
0.2711829694
0.2996253088
0.3366073775
0.3750068268
0.4217609227
0.5200809562
0.6454422947
0.6773859513
0.6854719641
0.6898907239
1.056731385
1.46568472
1.996678162
2.102409632
1.806824116
1.244947892
0.7602783881
0.5292073992
0.4293889538
0.3728402181
0.3418183421
0.3272923038
0.3188505834
0.3027308696
0.2689243893
0.2260643066
0.2021008335
0.219464779
0.2650208394
0.311805048
0.3281846308
0.2971494866
0.3902654564
0.2529034476
0.2673100835
0.3042856146
0.354115706
0.4125692075
0.5075945026
0.7238299095
0.9437335197
0.9714515247
0.922094108
1.060137144
1.989877634
1.949922532
2.398552909
2.396231733
2.003005225
1.32886544
0.8022915144
0.5701258163
0.4814709001
0.4302015224
0.4021658216
0.3875035302
0.3758239818
0.3533378432
0.3099249314
0.2601326146
0.2390627754
0.2751633078
0.3354114547
0.3865460021
0.3882159332
0.3346324914
0.4318148784
0.2497385086
0.2658676783
0.3112913598
0.3768401314
0.464861694
0.6352545761
1.043776942
1.378950194
1.411103765
1.280006671
1.888866036
3.504871001
2.550022524
2.424951104
2.264165019
1.79471401
1.168327475
0.7511516512
0.5845068549
0.5185908211
0.4822056698
0.4613415861
0.4491477004
0.4350437135
0.4014624082
0.3389275717
0.2790168269
0.2638211551
0.3204560473
0.3955456229
0.4418596076
0.4261661601
0.3512713953
0.4480165125
0.2497011496
0.268862437
0.323265781
0.4069516425
0.5309608878
0.8002722582
1.446676906
1.876299447
1.923171252
1.764316595
2.63914665
3.677711065
2.784079072
1.955177735
1.676158947
1.289228498
0.9101249164
0.6792508444
0.576778901
0.533807327
0.5127371276
0.5036300791
0.4988329124
0.4840326265
0.4390531533
0.3548912113
0.2832116876
0.2747821121
0.3470294514
0.4282245901
0.4650547096
0.4301806692
0.3424907097
0.4354666077
0.2581933563
0.2765658537
0.345211583
0.4492653172
0.6064327385
0.9684591599
1.802131721
2.255739122
2.311901928
2.045727202
2.015210988
2.597590147
1.733247898
0.9733809664
0.7592384561
0.6927185329
0.6437490001
0.5874624948
0.5459954448
0.5229704441
0.5116107223
0.5145413999
0.5210997916
0.5084737382
0.4519413296
0.3504935953
0.2721096654
0.2709119452
0.3497898951
0.4266436904
0.4490038246
0.3972545545
0.3105392194
0.4026078727
0.2857283976
0.2932955196
0.3841081628
0.5113497677
0.6845450065
1.076665202
1.932819968
2.354260139
2.413037447
2.142838879
1.696134168
1.337607239
0.9495874715
0.6779704042
0.5583992323
0.5365031044
0.5282268219
0.5081854052
0.4877555212
0.4733007483
0.4651142538
0.4806866754
0.5012456013
0.4907158441
0.423540006
0.3180173017
0.2460502813
0.2525433705
0.3274005669
0.3895008114
0.3946539
0.3355331701
0.265359609
0.3664878268
0.3400481932
0.3281331479
0.4468792039
0.6044038785
0.7696470586
1.08753058
1.781965166
2.183128566
2.221223213
1.966277683
1.55710283
1.180103729
0.8727104007
0.6468561335
0.5185262263
0.4717954903
0.4533390723
0.432242208
0.4123306839
0.3947531491
0.3797058091
0.404275185
0.4347996238
0.4214399016
0.3511360009
0.264242162
0.2130339376
0.2246036788
0.2844361118
0.3261035218
0.3176854714
0.2671445753
0.22309399
0.3416339495
0.42055321
0.3889322585
0.5401931743
0.7395300972
0.8848246061
1.063545927
1.46292428
1.853576264
1.911504543
1.706034644
1.394091865
1.088381499
0.8280887584
0.6289400369
0.4986171997
0.4237451237
0.3786139212
0.3445275902
0.3199669412
0.2998689102
0.278897175
0.3120559123
0.3398262394
0.321722465
0.2704538605
0.2162936737
0.1878104086
0.1968087324
0.2353101471
0.2589109117
0.2496502337
0.2163601322
0.1983520445
0.3306634773
0.5076421714
0.4729085794
0.6577164383
0.9115423089
1.037301666
1.116430613
1.24705232
1.41782876
1.46841472
1.371531883
1.191396538
0.9838715575
0.7869677668
0.6235521586
0.500808729
0.4108221062
0.3387943263
0.2777008296
0.234600326
0.209140134
0.1933710044
0.2274912739
0.2530642343
0.2480454988
0.2334775119
0.2035520346
0.1811645718
0.1799076074
0.2001756053
0.2173891467
0.2208537605
0.2039068188
0.1963059457
0.3273393023
0.5779908352
0.5631654656
0.7743287518
1.084950412
1.177436804
1.190216769
1.217676396
1.235796094
1.218549397
1.154754026
1.043718694
0.9022479932
0.7569993501
0.6260295163
0.5084049899
0.4108389309
0.3193709326
0.229384433
0.1613488029
0.1365824914
0.1508514759
0.185521067
0.2176670047
0.253611018
0.2662272753
0.2338639367
0.1970560699
0.1824463802
0.1970015297
0.2243971525
0.2481435275
0.2372470895
0.2168652619
0.3269572513
0.6095608166
0.6300504486
0.8640816808
1.197796081
1.254432618
1.249526376
1.23401846
1.197262203
1.141723394
1.06752972
0.9720005315
0.8588875989
0.7379303764
0.6179677239
0.4956079655
0.3837823027
0.2819095174
0.1916100283
0.1354841814
0.128999804
0.1579396568
0.1997916727
0.261249869
0.3408418822
0.3710046247
0.314062394
0.240660968
0.210293189
0.2379440941
0.2939682309
0.3391722776
0.3249345782
0.2674639567
0.3342636672
0.5650247738
0.6718365691
0.9357802461
1.235059811
1.271868073
1.253718643
1.220183886
1.165380202
1.095656651
1.016041502
0.9252785426
0.8220539594
0.7080077225
0.5822726531
0.4592796438
0.3435244298
0.238372171
0.1581175611
0.1474991296
0.147420726
0.1862569776
0.2520377111
0.3618845774
0.5040800757
0.5557792868
0.4642985208
0.320091757
0.2679747583
0.3367088127
0.4433514241
0.5253165617
0.4969049895
0.3660228904
0.370462046
0.5427713987
0.6708763154
0.9518800111
1.242661674
1.2961342
1.265341522
1.212077851
1.141937205
1.058124712
0.9645184555
0.8629642344
0.7549078936
0.6431643294
0.5316146652
0.4207627845
0.3119398544
0.2133251107
0.1508423032
0.302176106
0.2233850892
0.2423448236
0.32925593
0.502875736
0.7094667317
0.7842726938
0.6757954727
0.4519043305
0.3577781299
0.5058978163
0.6866891281
0.8179868563
0.7988909805
0.5405916552
0.4712272512
0.5156476773
0.5832199553
0.7463148378
0.9950171168
1.106518773
1.101673235
1.050102489
0.9826675026
0.9064735881
0.8235940496
0.7362269106
0.6442811281
0.5492243024
0.4547528962
0.3614988344
0.2671231896
0.1855464004
0.1853867512
1.049888879
0.5920183371
0.3852035609
0.4210376479
0.6463401761
0.8866369158
0.980640262
0.8827509599
0.6115393767
0.472182167
0.7332681829
0.9815019736
1.156292985
1.184407965
0.8375194886
0.6714481645
0.4996773537
0.4901990365
0.5832184844
0.7118932842
0.8015182761
0.8169895423
0.7905195141
0.7475555768
0.6958830205
0.641515053
0.5779728898
0.5057875363
0.4318384899
0.3595261118
0.2870501225
0.2140087112
0.1703119975
0.4684428196
3.495796777
3.346690139
1.028452572
0.529417191
0.7210732818
0.9578041068
1.05835439
0.9796341067
0.7106654435
0.5748278725
0.9318460556
1.191968259
1.379246137
1.458192381
1.137121919
0.9088728732
0.4906213762
0.4741339796
0.5033208709
0.5507048479
0.5925615322
0.603310017
0.626336528
0.6139304661
0.5681596427
0.5093132471
0.4522412437
0.396575733
0.3411194888
0.2839439145
0.2274859372
0.1699728243
0.199189299
1.221308262
5.217720259
11.40483816
2.865183945
0.6307064395
0.7144158648
0.8989242547
0.9792898088
0.89952117
0.6601278835
0.5832551219
0.9315021914
1.174221094
1.348565135
1.409282615
1.097889145
0.8555436992
0.4887690917
0.4565656908
0.4501035169
0.4525091875
0.4584395443
0.4656117857
0.4930218946
0.4965859951
0.4771080209
0.4749711393
0.4400607068
0.3936279522
0.3467072167
0.2970053018
0.245207363
0.1944624028
0.1485645224
0.1358265265
0.2058730155
1.366535095
1.403745419
0.4145752389
0.3683386273
0.5008076527
0.6866529583
0.7545713954
0.6605665539
0.4776287572
0.4342475745
0.6771884087
0.9519159435
1.075063267
0.9700353612
0.5694290072
0.373408092
0.4419580793
0.4266633959
0.4320047675
0.4276605859
0.4170204762
0.4148477296
0.4099825352
0.3964982074
0.3763766818
0.3636084422
0.3514666581
0.3298124265
0.295061965
0.2511501545
0.2089319945
0.170100709
0.1372599243
0.1288625109
0.1480563343
0.2399454331
0.2695254827
0.2421653616
0.2706472542
0.3445909811
0.439507465
0.4618807816
0.3820606838
0.2918813482
0.265120261
0.3327744823
0.4248321757
0.4376268519
0.3730626099
0.2955746485
0.2712717319
0.4070376142
0.4093939555
0.4162875814
0.4088273234
0.3932231122
0.381243343
0.3712949751
0.3579875651
0.3424509619
0.3279965882
0.3144437811
0.2918881313
0.2570155687
0.2201068876
0.1924751679
0.1690795267
0.1462954794
0.1377770817
0.1506959885
0.1836342115
0.2160523944
0.2235237151
0.238624266
0.2630220316
0.2892176301
0.289582451
0.2500183578
0.2177539632
0.2065768047
0.2141750488
0.2190093203
0.2378813608
0.2423054249
0.2244524075
0.2590341741
0.3704961017
0.3827936135
0.3900743032
0.3844139997
0.3714053099
0.3580234507
0.3456220545
0.3326778714
0.317845848
0.3039174661
0.2864604669
0.2575879977
0.2239628549
0.2149265607
0.2312517289
0.2271651935
0.1916184097
0.1606149517
0.1590615637
0.1797885556
0.1989919125
0.212203755
0.2232661976
0.2331505307
0.2393353037
0.235180363
0.219622608
0.2131002765
0.2319262197
0.2590585397
0.2284412684
0.2077834278
0.1981294761
0.1905249429
0.2441386069
0.3504165006
0.3571855566
0.3542472545
0.3451815241
0.3337650784
0.3217214342
0.3095516854
0.2969469905
0.2812627851
0.2559793037
0.2217578062
0.2036428945
0.25573959
0.3330242968
0.329249409
0.2506456552
0.1838168977
0.165929725
0.181215975
0.1973710295
0.2091584777
0.2177903231
0.2236207164
0.2251339633
0.2227786217
0.2223642416
0.250106477
0.3768433957
0.5232078358
0.4095574174
0.26412701
0.2024115303
0.1856955656
0.2424760014
0.3184743672
0.3230553965
0.32262406
0.3178697971
0.3101681368
0.3002041776
0.2879196995
0.2718631581
0.2474175855
0.2142943609
0.1825551979
0.1985984748
0.2208525009
0.2231085961
0.2465259371
0.3866560318
0.8562677742
1.27417126
1.115117263
0.6220782068
0.3056972139
0.1967896284
0.2290805094
0.286971953
0.2830679536
0.2762545529
0.2656073126
0.2495818094
0.2260544386
0.3711351778
0.3153200078
0.2833758771
0.2629396029
0.2667499176
0.2176873796
0.1728219483
0.1403310413
0.1160228979
0.1063129717
0.1218327794
0.1605836215
0.2018064484
0.2278437859
0.2324577074
0.2221508268
0.209609516
0.1995710638
0.1873140255
0.1684216952
0.1446988981
0.1216608119
0.1035942705
0.0912706726
0.08256372682
0.07476766666
0.06681090782
0.05967297787
0.05503997116
0.05387338006
0.05417435237
0.05149389102
0.04338850468
0.03476183729
0.3390620295
0.292608999
0.27829303
0.3541655328
0.4794223335
0.344732248
0.2172461434
0.1628969824
0.137331789
0.126586748
0.1329273679
0.153971484
0.174883739
0.1868246643
0.1860000134
0.1784997201
0.1748536612
0.1752719695
0.1713767821
0.1581134931
0.1376680401
0.1158211382
0.09694398827
0.08240563729
0.07176782439
0.06408189532
0.05871598836
0.05579963797
0.05528107777
0.05605195978
0.05566184324
0.0529784509
0.04900404974
0.05133891657
0.3448571547
0.3045146441
0.3447330478
0.7216332258
1.086865038
0.7668581164
0.3617682337
0.2202500623
0.1788074597
0.1651021528
0.1662504792
0.1829568065
0.2029384755
0.2146726889
0.2107689185
0.2020012982
0.2020693069
0.2074571225
0.2060175065
0.1917315843
0.1667339797
0.1382870582
0.1129472669
0.09313255534
0.078533505
0.06860270237
0.06304937119
0.06155796792
0.06279514897
0.06454476905
0.06419231213
0.06205839355
0.06171477336
0.07649565095
0.329638652
0.3010840275
0.4317950801
1.229106319
1.692816286
1.325809414
0.5437522258
0.276004731
0.2171918343
0.2056698834
0.2085982105
0.2317590719
0.2656553426
0.2823783802
0.2666772006
0.242930808
0.2331885569
0.2330958528
0.2285162731
0.212231918
0.1845839772
0.1520711311
0.1224006383
0.09907335019
0.08179998281
0.07021509957
0.06449537837
0.06400232606
0.06612388281
0.06842200111
0.06937106256
0.07122758669
0.07820211425
0.1137193214
0.3085232759
0.2922084181
0.4614888713
1.362346319
1.762589321
1.435218512
0.6046519103
0.308052218
0.2539019822
0.2532268578
0.2677492554
0.3192361974
0.3991340452
0.4376717026
0.3966178875
0.3276628583
0.2797625927
0.2565169185
0.2405386757
0.2199606535
0.1914664674
0.1587622706
0.1285687643
0.1045758908
0.08628493973
0.07356835038
0.06749754945
0.06753773537
0.06997362443
0.0736718146
0.07901534545
0.08805731296
0.1010305882
0.1605866844
0.2846126159
0.2724790761
0.3702754193
0.929090856
1.373816065
0.9992211669
0.4862410412
0.311911357
0.2936055299
0.3103701579
0.3440963157
0.4496591023
0.6161211566
0.7010456461
0.6312548422
0.4831792245
0.3591010774
0.2897502353
0.2527662454
0.224768479
0.1955276548
0.1651865726
0.1383050121
0.1171871892
0.09980016316
0.08580062525
0.07800914003
0.07757768122
0.08023048125
0.08747401747
0.1011318121
0.1182412109
0.1305794252
0.21132174
0.2646036105
0.2529855631
0.2804940768
0.4365867965
0.7346792092
0.5027572148
0.3461416888
0.3264781103
0.3479111369
0.3789485814
0.4372784099
0.6227537599
0.9099156559
1.060815336
0.9712759255
0.7257721572
0.4835612033
0.3449960001
0.2796823884
0.2425820209
0.2118386761
0.1838921996
0.1615891697
0.1449922799
0.1291443422
0.1125298933
0.1004115217
0.09843104586
0.1029464932
0.1170519249
0.1417455064
0.1645198956
0.1685568946
0.2643280063
0.2522848578
0.2423038754
0.2589654269
0.3017653627
0.3605368283
0.3474224246
0.3590959651
0.4079271053
0.4285480641
0.459138034
0.5631554391
0.8794191839
1.28702949
1.528003363
1.432303366
1.071620638
0.6578106143