/*--------------------------------*- C++ -*----------------------------------*\
  =========                 |
  \\      /  F ield         | OpenFOAM: The Open Source CFD Toolbox
   \\    /   O peration     | Website:  https://openfoam.org
    \\  /    A nd           | Version:  8
     \\/     M anipulation  |
\*---------------------------------------------------------------------------*/
FoamFile
{
    version     2.0;
    format      ascii;
    class       volScalarField;
    location    "2";
    object      O2;
}
// * * * * * * * * * * * * * * * * * * * * * * * * * * * * * * * * * * * * * //

dimensions      [0 0 0 0 0 0 0];

internalField   nonuniform List<scalar> 
67193
(
0.2100011699
0.2100011789
0.2100012169
0.2100012089
0.2100011721
0.2100013658
0.2100012009
0.2100009619
0.2100007759
0.2100006829
0.2100006206
0.2100005913
0.2100005387
0.2100004594
0.2100003971
0.2100003429
0.2100003228
0.2100003581
0.2100004392
0.210000543
0.2100006515
0.2100007497
0.2100008123
0.210000803
0.2100007004
0.2100005289
0.2100003465
0.2100001998
0.2100001013
0.2100000496
0.2100000485
0.2100001053
0.2100002146
0.2100003284
0.2100010062
0.2100010721
0.2100011771
0.2100011941
0.2100005043
0.2100012099
0.2100013384
0.2100011492
0.2100008827
0.2100006766
0.2100005956
0.210000654
0.2100007226
0.2100006619
0.2100006146
0.2100005984
0.2100006268
0.2100006875
0.2100007502
0.2100008051
0.2100008579
0.2100009151
0.210000974
0.2100010094
0.2100009754
0.2100008469
0.2100006659
0.2100005114
0.2100004175
0.210000372
0.2100003623
0.2100003923
0.2100004501
0.2100004901
0.2100009006
0.2100010309
0.2100010898
0.2100008687
0.2099996027
0.2100005879
0.2100011644
0.2100012479
0.2100010501
0.210000803
0.2100006434
0.2100006396
0.2100007111
0.2100005923
0.2100005502
0.2100005963
0.2100007242
0.2100008838
0.2100009939
0.2100010392
0.2100010535
0.2100010662
0.2100010896
0.2100011169
0.2100011128
0.2100010307
0.2100008745
0.2100007213
0.2100006265
0.2100005845
0.2100005757
0.2100005916
0.2100006055
0.210000573
0.2100008477
0.2100009535
0.2100008356
0.2100003496
0.2099990686
0.2099999668
0.2100006999
0.2100010563
0.2100010419
0.2100008738
0.2100007047
0.2100006327
0.2100006361
0.2100004748
0.210000454
0.210000521
0.2100006607
0.2100008806
0.2100010853
0.2100011877
0.2100012037
0.210001188
0.2100011742
0.2100011691
0.2100011539
0.2100010891
0.2100009597
0.2100008245
0.2100007389
0.2100006972
0.2100006784
0.210000665
0.2100006345
0.2100005686
0.2100008188
0.2100008826
0.2100007035
0.2100003311
0.20999913
0.209999847
0.2100004958
0.2100008575
0.2100009285
0.2100008561
0.2100007202
0.2100006517
0.2100005981
0.2100005039
0.2100005181
0.2100006002
0.2100006663
0.2100007982
0.2100010096
0.210001185
0.2100012443
0.2100012202
0.2100011703
0.2100011242
0.2100010829
0.2100010232
0.210000925
0.2100008224
0.2100007543
0.2100007066
0.2100006727
0.2100006426
0.2100006108
0.2100005686
0.2100008055
0.2100008874
0.2100008034
0.210000784
0.2099998951
0.2100003982
0.2100007326
0.2100008683
0.2100008876
0.2100008608
0.2100007248
0.210000755
0.2100006493
0.2100006814
0.2100006234
0.2100007495
0.2100008269
0.2100008515
0.210000932
0.2100010704
0.21000115
0.210001124
0.2100010392
0.2100009498
0.2100008875
0.2100008563
0.2100008286
0.2100007816
0.2100007218
0.2100006586
0.2100006171
0.2100005961
0.2100005915
0.2100005975
0.2100007518
0.2100008278
0.2100007587
0.210000756
0.2100006158
0.2100007427
0.2100008074
0.2100008736
0.2100008992
0.2100009411
0.2100007719
0.2100010288
0.2100008037
0.2100008542
0.2100005525
0.2100006935
0.2100008898
0.2100009738
0.2100009697
0.2100009848
0.2100010036
0.210000953
0.2100008391
0.2100007165
0.2100006402
0.2100006471
0.2100007194
0.2100007649
0.2100007185
0.2100006297
0.2100005744
0.2100005519
0.2100005557
0.2100005991
0.2100006644
0.2100007245
0.2100006682
0.2100006563
0.2100006327
0.2100007146
0.2100007865
0.2100008952
0.2100009328
0.2100010828
0.2100009102
0.2100014323
0.2100010562
0.2100008731
0.2100002885
0.2100003596
0.2100006592
0.2100009011
0.2100009757
0.2100009412
0.2100008858
0.210000795
0.2100006609
0.2100005216
0.2100004323
0.2100004474
0.2100005842
0.2100007351
0.2100007402
0.2100006296
0.2100005443
0.2100004946
0.2100004753
0.2100005298
0.2100005619
0.2100005924
0.2100005464
0.2100005568
0.2100006236
0.2100007055
0.2100007933
0.2100009065
0.2100009263
0.2100011901
0.2100011629
0.2100014443
0.2100013837
0.2100007633
0.2100000061
0.2099999547
0.2100002573
0.2100005955
0.2100007957
0.2100008217
0.2100007629
0.2100006621
0.2100005288
0.210000393
0.2100002971
0.2100002935
0.2100004361
0.2100006532
0.2100007297
0.2100006206
0.210000508
0.2100004212
0.2100003564
0.2100003916
0.2100004548
0.2100004519
0.2100004204
0.2100004678
0.2100005927
0.2100006894
0.210000791
0.2100008305
0.2100008178
0.2100010883
0.2100014489
0.2100002794
0.2100015535
0.2100008321
0.2099999619
0.2099997443
0.2099999583
0.2100002683
0.2100005007
0.2100006014
0.2100005964
0.2100005284
0.2100004236
0.2100003123
0.2100002231
0.2100001968
0.2100003126
0.2100005443
0.2100006739
0.2100005897
0.2100004676
0.2100003469
0.2100002259
0.2100002185
0.2100003513
0.2100003278
0.2100003167
0.2100003898
0.2100005297
0.2100006353
0.2100007295
0.2100006352
0.2100005813
0.2100006732
0.210001439
0.2099984737
0.2100008991
0.2100012178
0.2100004293
0.2099999971
0.2099999814
0.2100001242
0.2100002816
0.2100003948
0.2100004314
0.2100003955
0.2100003292
0.2100002591
0.21000019
0.2100001444
0.2100002306
0.2100004458
0.2100006004
0.210000553
0.2100004265
0.2100002789
0.2100001076
0.2100000532
0.2100002339
0.2100002367
0.210000238
0.2100003102
0.2100004136
0.2100005245
0.2100005565
0.2100004101
0.2100003015
0.2100002256
0.2100009668
0.2099979821
0.2099998323
0.2100011317
0.2100011236
0.2100007513
0.2100004485
0.2100002481
0.2100002356
0.2100002923
0.210000299
0.2100002637
0.2100002309
0.2100002022
0.2100001623
0.2100001158
0.2100001881
0.2100003777
0.210000536
0.2100005205
0.2100003897
0.210000217
0.2100000192
0.2099999353
0.2100000716
0.2100001568
0.2100001643
0.2100002129
0.2100002343
0.2100003465
0.2100003462
0.2100002302
0.2100001047
0.210000181
0.210000562
0.2100008348
0.2100010864
0.210000932
0.2100006078
0.2100003547
0.2100001691
0.2100000961
0.2100001269
0.2100001644
0.2100001453
0.2100001211
0.2100001319
0.2100001407
0.2100001256
0.2100001019
0.2100001843
0.2100003466
0.2100004908
0.2100004915
0.2100003586
0.2100001662
0.2099999781
0.2099998993
0.2099998864
0.2100000473
0.2100000664
0.2100000925
0.210000021
0.2100001419
0.210000197
0.2100001219
0.2100000253
0.2100000542
0.2100002821
0.2100003349
0.2100006468
0.210000794
0.210000684
0.2100004531
0.2100002051
0.2100000718
0.2100000393
0.2100000201
0.2099999702
0.2099999828
0.2100000508
0.2100000884
0.2100000966
0.2100001193
0.2100002245
0.2100003489
0.2100004564
0.2100004533
0.2100003275
0.2100001342
0.2099999985
0.2099999648
0.2099997131
0.209999892
0.2099999039
0.2099999515
0.2099998504
0.2099999777
0.2100001294
0.2100001833
0.2100001931
0.2100002786
0.2100004168
0.2100005161
0.2100005653
0.2100005312
0.2100004755
0.2100003544
0.2100001978
0.2100000588
0.2099999837
0.2099999133
0.209999856
0.209999932
0.2100000275
0.2100000689
0.2100001114
0.2100001932
0.2100002985
0.2100003671
0.2100004183
0.2100003875
0.2100002885
0.2100001398
0.2100000843
0.210000113
0.2099995414
0.2099997102
0.2099996676
0.209999776
0.2099997515
0.2099998913
0.2100000493
0.2100001718
0.2100002795
0.210000393
0.2100004824
0.2100005141
0.2100005064
0.2100004548
0.2100003773
0.210000294
0.2100002096
0.2100001048
0.209999996
0.2099999224
0.2100000271
0.2100000832
0.2100000652
0.2100000968
0.2100001914
0.2100002892
0.2100003623
0.2100003808
0.2100003827
0.2100003041
0.2100002636
0.2100001844
0.2100002191
0.2100002823
0.2099993939
0.2099995214
0.2099994177
0.2099995799
0.209999654
0.209999771
0.2099999062
0.2099999556
0.210000025
0.2100001671
0.2100003227
0.2100004096
0.2100004201
0.2100003748
0.2100002907
0.2100001731
0.2100000572
0.2099999826
0.2099999794
0.2100000618
0.2100002094
0.2100000969
0.2100000369
0.2100001298
0.2100002406
0.2100003404
0.2100003951
0.2100003952
0.2100003773
0.2100002718
0.210000298
0.2100002889
0.2100003773
0.2100004381
0.2099993233
0.2099993517
0.2099992524
0.2099994184
0.2099995232
0.2099996116
0.2099997907
0.2099999182
0.2100000228
0.21000014
0.2100002584
0.2100003357
0.2100003524
0.2100003166
0.210000235
0.2100001177
0.2099999942
0.2099999482
0.2100000689
0.2100002552
0.2100002729
0.2100001398
0.2100001249
0.2100001746
0.2100002195
0.2100003389
0.210000411
0.2100004256
0.210000416
0.2100003292
0.2100003978
0.2100004452
0.2100005436
0.2100006139
0.2099992741
0.2099992185
0.2099991567
0.2099992894
0.2099993626
0.2099994373
0.2099995981
0.2099997599
0.2099999083
0.2100000494
0.2100001821
0.2100002801
0.2100003166
0.210000288
0.2100002013
0.2100000735
0.2099999559
0.209999955
0.210000136
0.210000308
0.2100002406
0.2100001626
0.2100001411
0.2100001498
0.210000139
0.210000269
0.2100003815
0.2100004558
0.2100004819
0.2100004352
0.2100004694
0.2100005465
0.2100006809
0.2100008154
0.209999102
0.209999185
0.2099991652
0.2099992306
0.2099992668
0.2099993243
0.2099994715
0.2099996469
0.2099998118
0.2099999528
0.2100000667
0.2100001513
0.2100001965
0.2100001904
0.2100001315
0.2100000358
0.2099999679
0.2100000449
0.2100002189
0.2100004165
0.2100002333
0.2100001412
0.2100000947
0.2100000705
0.2100000062
0.2100001112
0.2100002587
0.2100004345
0.2100005381
0.2100005477
0.2100004618
0.2100004801
0.2100006588
0.2100009701
0.2099991848
0.2099991577
0.2099992709
0.2099992926
0.2099992477
0.2099992775
0.2099994014
0.2099995695
0.209999736
0.2099998765
0.2099999846
0.2100000626
0.210000105
0.2100000966
0.2100000377
0.2099999599
0.2099999529
0.2100001061
0.2100002187
0.2100007552
0.2100003456
0.2100001277
0.2100000172
0.20999995
0.2099998193
0.2099998831
0.2100000444
0.2100003154
0.2100005233
0.2100006059
0.2100003772
0.2100002735
0.2100003962
0.2100009004
0.2099986678
0.2099987968
0.2099990386
0.2099992
0.2099992403
0.2099992756
0.2099993772
0.209999522
0.2099996691
0.2099997933
0.2099998945
0.2099999669
0.2099999972
0.2099999741
0.2099999124
0.2099998669
0.2099999299
0.2100001377
0.2100001824
0.2100013743
0.2100008937
0.2100002002
0.2099999345
0.2099998022
0.2099996104
0.2099996318
0.2099997851
0.2100000976
0.2100003887
0.2100005364
0.2100002162
0.2100000025
0.2099999818
0.210000518
0.2099983945
0.2099985362
0.2099987588
0.2099989586
0.2099990869
0.2099991794
0.2099993014
0.2099994472
0.2099995864
0.2099997026
0.2099997863
0.2099998315
0.2099998332
0.2099997966
0.2099997613
0.2099998058
0.209999966
0.2100000468
0.2099994606
0.2099993965
0.2100017141
0.2100007377
0.2099999647
0.2099996934
0.2099994459
0.2099994237
0.2099995545
0.2099998408
0.2100001453
0.2100003702
0.2100000137
0.209999727
0.2099995605
0.2099999046
0.2099983505
0.2099984925
0.2099986481
0.2099987977
0.209998925
0.2099990571
0.209999237
0.2099994
0.2099995246
0.2099996071
0.2099996471
0.2099996528
0.2099996363
0.2099996221
0.2099996601
0.2099998041
0.2099998019
0.2099987374
0.2099962348
0.2099911654
0.2099976445
0.2100008816
0.2100002407
0.209999748
0.2099994543
0.2099993975
0.2099994883
0.2099996978
0.20999993
0.2100002659
0.2099999868
0.2099996373
0.209999275
0.2099991415
0.2099983948
0.2099982715
0.2099984226
0.2099985491
0.2099986688
0.2099987384
0.2099989243
0.2099991909
0.2099992978
0.2099993861
0.2099994417
0.209999468
0.2099994787
0.2099994895
0.2099995129
0.2099995901
0.2099997171
0.2099998133
0.2099998123
0.2099995403
0.2099998712
0.2100000938
0.2099996882
0.2099996009
0.2099995153
0.2099994487
0.2099997002
0.2099999183
0.2100000732
0.2100001619
0.2100002704
0.2100001195
0.2099999307
0.2099999158
0.2100001682
0.2099983029
0.2099982321
0.2099984012
0.2099985376
0.2099986891
0.2099988645
0.2099989809
0.2099990754
0.2099991835
0.2099992622
0.2099993137
0.2099993489
0.2099993776
0.2099994188
0.2099994521
0.2099995734
0.2099997461
0.2099998565
0.2099998147
0.2099995816
0.2099999162
0.2099996356
0.2099996173
0.2099996548
0.2099996549
0.2099996098
0.2099997464
0.2099998189
0.2099999004
0.2099999757
0.2100000646
0.210000025
0.2099999771
0.2100000669
0.2100002269
0.2099983234
0.2099983147
0.2099984438
0.2099985607
0.2099986871
0.2099988204
0.2099989231
0.2099990163
0.2099991126
0.2099991871
0.2099992417
0.2099992863
0.2099993337
0.2099993969
0.2099994864
0.2099996107
0.2099997576
0.2099998529
0.2099997909
0.2099995831
0.209999661
0.2099994751
0.2099994539
0.2099994731
0.2099995244
0.2099995773
0.2099996609
0.2099997358
0.2099998263
0.2099999013
0.2099999849
0.2100000325
0.2100000928
0.2100000899
0.2100000493
0.2099983764
0.2099983979
0.2099984953
0.2099985929
0.2099986965
0.2099988008
0.2099988972
0.2099989897
0.2099990748
0.2099991432
0.2099991984
0.2099992496
0.2099993139
0.2099993782
0.209999431
0.2099995233
0.209999672
0.2099998113
0.2099997797
0.2099995931
0.2099995389
0.2099994528
0.2099994055
0.209999393
0.209999417
0.2099994785
0.2099995619
0.2099996512
0.2099997429
0.2099998361
0.2099999246
0.2099999952
0.2100000331
0.2099999789
0.2099998858
0.2099984791
0.2099985549
0.2099986359
0.2099987201
0.2099988048
0.2099988911
0.2099989758
0.2099990528
0.2099991191
0.209999179
0.209999239
0.2099993089
0.2099993207
0.2099993175
0.2099993846
0.2099995267
0.2099996998
0.2099997335
0.2099995876
0.2099994994
0.2099994116
0.2099993482
0.2099993178
0.2099993277
0.2099993935
0.2099994882
0.2099995911
0.2099996849
0.209999774
0.2099999137
0.2099999879
0.2099999962
0.2099999391
0.209999833
0.209998561
0.2099986234
0.2099986919
0.209998763
0.209998836
0.2099989127
0.2099989899
0.209999064
0.2099991332
0.2099991985
0.2099992339
0.2099991979
0.2099992828
0.2099993303
0.2099994345
0.2099995417
0.2099996122
0.209999563
0.2099997343
0.2099999656
0.2100000332
0.2099999608
0.2099998321
0.2099987535
0.2099988209
0.2099988913
0.2099989648
0.209999038
0.2099991054
0.2100012774
0.2100012387
0.2100012118
0.2100011221
0.2100010649
0.210000988
0.2100008466
0.2100007309
0.2100006705
0.2100006667
0.2100006551
0.210000643
0.2100006018
0.2100005196
0.2100004269
0.2100003499
0.210000323
0.2100003608
0.2100004465
0.2100005511
0.2100006512
0.2100007257
0.2100007499
0.2100007021
0.2100005843
0.2100004269
0.2100002698
0.2100001388
0.2100000415
0.2099999904
0.2100000122
0.2100001029
0.2100002295
0.2100003321
0.2100012216
0.2100011934
0.2100011742
0.2100011108
0.2100010108
0.2100009522
0.2100008365
0.2100007273
0.210000631
0.2100005785
0.2100006046
0.2100007055
0.2100007876
0.2100007821
0.210000723
0.2100006651
0.2100006691
0.2100007332
0.2100008156
0.2100008872
0.2100009401
0.2100009743
0.2100009866
0.2100009628
0.2100008824
0.2100007463
0.2100005917
0.2100004648
0.2100003813
0.2100003407
0.2100003473
0.210000399
0.2100004651
0.210000502
0.2100012134
0.2100012198
0.2100012105
0.2100011906
0.2100010646
0.2100010558
0.2100009506
0.2100008259
0.2100007075
0.2100006113
0.2100005886
0.2100006698
0.210000781
0.2100008192
0.2100007974
0.2100007814
0.2100008577
0.2100009927
0.2100011067
0.2100011701
0.2100011918
0.2100011873
0.2100011677
0.2100011348
0.2100010718
0.2100009599
0.2100008184
0.2100006973
0.2100006203
0.2100005842
0.2100005843
0.2100006061
0.2100006168
0.2100005847
0.2100012238
0.2100012579
0.2100012597
0.2100012323
0.210001038
0.210001069
0.2100010666
0.2100009314
0.2100008059
0.2100007028
0.2100006455
0.2100006649
0.2100007335
0.2100007858
0.2100007894
0.210000794
0.210000906
0.2100010981
0.2100012589
0.2100013376
0.2100013464
0.210001315
0.2100012669
0.2100012141
0.2100011507
0.2100010553
0.2100009336
0.2100008288
0.2100007619
0.2100007236
0.2100007015
0.2100006772
0.2100006343
0.2100005655
0.2100012181
0.2100012705
0.2100012567
0.2100011902
0.2100010512
0.210001031
0.2100010822
0.210000984
0.2100008674
0.2100007778
0.210000726
0.2100007251
0.2100007688
0.21000082
0.2100008185
0.2100008117
0.2100008845
0.2100010618
0.210001257
0.2100013747
0.2100013933
0.2100013436
0.2100012638
0.2100011804
0.2100011016
0.2100010151
0.21000092
0.210000844
0.210000795
0.2100007508
0.2100007004
0.2100006432
0.2100005899
0.2100005338
0.2100011682
0.21000124
0.2100012006
0.2100011349
0.2100010142
0.2100010138
0.210001033
0.2100009841
0.2100008901
0.2100008237
0.210000796
0.2100008169
0.2100008943
0.2100009498
0.2100009467
0.2100009037
0.2100008891
0.2100009707
0.210001143
0.2100012924
0.2100013385
0.2100012818
0.2100011674
0.2100010431
0.2100009428
0.2100008729
0.210000822
0.2100007839
0.2100007478
0.2100006958
0.2100006356
0.2100005855
0.2100005609
0.2100005404
0.2100010825
0.2100011701
0.2100011706
0.2100011661
0.2100010592
0.210001113
0.2100010998
0.2100010237
0.2100009155
0.2100008597
0.2100008528
0.2100008858
0.2100010382
0.2100011269
0.2100011716
0.2100011002
0.210000995
0.2100009411
0.2100010229
0.2100011609
0.2100012259
0.2100011714
0.2100010326
0.210000875
0.2100007604
0.2100007177
0.210000727
0.2100007334
0.2100006973
0.210000637
0.2100005859
0.2100005628
0.2100005597
0.2100005628
0.2100009606
0.2100010525
0.2100010717
0.2100010963
0.2100010926
0.2100011399
0.2100011348
0.2100010613
0.2100009581
0.2100009043
0.2100009251
0.2100009067
0.2100011491
0.21000127
0.2100013658
0.210001319
0.2100011854
0.2100010191
0.2100009821
0.210001069
0.2100011289
0.2100010786
0.2100009375
0.2100007723
0.2100006532
0.2100006217
0.2100006712
0.2100007231
0.2100006953
0.2100006335
0.2100005954
0.2100005879
0.2100005749
0.2100005655
0.2100008145
0.2100009035
0.2100009438
0.2100010029
0.2100010841
0.2100011601
0.2100011908
0.2100011246
0.2100010515
0.2100009958
0.2100010547
0.2100010637
0.2100012172
0.2100013898
0.2100014669
0.2100014348
0.2100013234
0.2100011174
0.210001008
0.2100010358
0.2100010716
0.210001023
0.2100009016
0.2100007596
0.2100006512
0.2100006095
0.2100006497
0.2100007243
0.2100007248
0.2100006797
0.2100006513
0.210000643
0.2100006002
0.2100005371
0.2100006568
0.2100007391
0.2100008008
0.2100009016
0.2100010484
0.2100011699
0.210001248
0.2100012133
0.2100012009
0.2100011502
0.210001261
0.2100014886
0.2100013278
0.2100015588
0.2100015424
0.2100014538
0.2100013374
0.2100011447
0.2100010383
0.2100010317
0.2100010325
0.2100009756
0.2100008802
0.2100007798
0.2100007009
0.2100006539
0.2100006545
0.2100007173
0.2100007555
0.210000742
0.2100007152
0.2100006945
0.2100006235
0.2100004875
0.2100004937
0.210000577
0.2100006577
0.2100007984
0.2100009954
0.2100011552
0.2100012701
0.2100012995
0.2100013682
0.2100013468
0.2100014432
0.2100019192
0.2100014596
0.2100016939
0.2100015282
0.2100013845
0.210001235
0.2100010831
0.2100010246
0.2100010144
0.2100009802
0.2100009166
0.2100008432
0.2100007749
0.210000728
0.2100006982
0.2100006646
0.2100007034
0.2100007791
0.2100007949
0.210000768
0.2100007238
0.2100006289
0.210000434
0.2100003209
0.2100004243
0.2100005214
0.2100006909
0.2100009128
0.2100010937
0.2100012284
0.2100013515
0.2100014658
0.2100014653
0.2100014186
0.2100020185
0.2100014224
0.2100012948
0.2100010755
0.2100010321
0.2100009969
0.2100009635
0.2100009595
0.2100009484
0.2100009033
0.210000848
0.2100007984
0.210000752
0.2100007182
0.2100007047
0.2100006585
0.2100006853
0.2100007923
0.2100008274
0.2100007977
0.2100007258
0.2100006061
0.2100003946
0.2100001292
0.2100002815
0.2100003925
0.2100005756
0.210000796
0.2100009822
0.2100011306
0.2100013451
0.2100014453
0.2100014328
0.2100013136
0.2100011478
0.2100010247
0.2100009241
0.2100008924
0.2100008833
0.2100008752
0.2100008585
0.21000085
0.2100008336
0.2100007903
0.2100007572
0.2100007367
0.2100007089
0.2100006812
0.2100006706
0.210000632
0.2100006646
0.2100007873
0.2100008307
0.2100007916
0.2100006932
0.2100005551
0.2100003841
0.2099999446
0.2100001372
0.2100002737
0.2100004532
0.2100006564
0.2100008353
0.2100010044
0.2100012806
0.2100013652
0.2100013428
0.2100012643
0.2100010958
0.2100008763
0.210000788
0.2100008642
0.2100008674
0.2100008212
0.2100007482
0.2100007138
0.2100006914
0.2100006546
0.2100006519
0.2100006571
0.2100006403
0.2100006181
0.2100006096
0.2100005963
0.2100006428
0.2100007573
0.2100007921
0.2100007377
0.2100006226
0.210000493
0.2100004102
0.2099998181
0.2099999893
0.2100001728
0.2100003285
0.2100005165
0.2100006815
0.2100008538
0.2100011147
0.2100011898
0.2100011666
0.2100010876
0.2100009488
0.210000773
0.2100006955
0.2100008615
0.2100007836
0.2100006954
0.2100006091
0.2100005647
0.2100005488
0.2100005254
0.2100005572
0.2100005673
0.2100005469
0.2100005341
0.2100005387
0.2100005655
0.2100006209
0.2100007029
0.2100007097
0.2100006353
0.2100005186
0.2100004492
0.2100004654
0.2099997358
0.2099998525
0.2100000756
0.2100002019
0.2100003801
0.210000545
0.2100006807
0.2100008067
0.2100008733
0.2100009012
0.2100008952
0.2100008387
0.2100007384
0.2100006399
0.210000573
0.2100005059
0.2100004403
0.2100003774
0.210000357
0.2100003596
0.2100004071
0.2100004544
0.2100004561
0.2100004309
0.2100004373
0.2100004847
0.2100005467
0.2100006012
0.2100006428
0.210000605
0.2100005101
0.2100004332
0.210000447
0.2100005282
0.2099996356
0.2099997332
0.2099999545
0.2100000535
0.2100002147
0.2100003847
0.2100005292
0.2100006095
0.2100006668
0.2100007177
0.2100007489
0.2100007475
0.2100006989
0.2100006167
0.2100005183
0.2100003722
0.210000238
0.2100001687
0.210000206
0.2100002857
0.2100003566
0.2100003231
0.2100003001
0.210000304
0.2100003638
0.2100004516
0.2100005343
0.2100005877
0.2100006027
0.2100005321
0.2100004328
0.2100004057
0.2100004785
0.2100005822
0.2099994923
0.2099996164
0.2099998048
0.2099998659
0.210000004
0.2100001864
0.2100003659
0.2100004874
0.2100005683
0.2100006255
0.2100006563
0.2100006498
0.2100006006
0.2100005182
0.210000411
0.2100002656
0.2100001251
0.2100000823
0.2100001905
0.2100003081
0.2100003179
0.2100002399
0.2100002132
0.2100002424
0.2100003306
0.2100004317
0.2100005233
0.2100005815
0.2100005978
0.2100005306
0.2100004402
0.2100004267
0.210000515
0.2100006277
0.2099993142
0.2099995026
0.2099996738
0.2099996661
0.2099997657
0.2099999245
0.2100001293
0.2100003013
0.210000419
0.210000493
0.2100005312
0.2100005308
0.2100004882
0.2100004096
0.2100003074
0.2100001898
0.2100000927
0.21000009
0.2100002074
0.2100002669
0.2100002419
0.2100001763
0.2100001624
0.2100002039
0.2100003146
0.2100004164
0.2100005117
0.2100005778
0.2100006167
0.2100005849
0.2100005367
0.2100004872
0.2100005445
0.2100006716
0.2099991158
0.2099993703
0.209999511
0.2099994759
0.209999556
0.2099997135
0.2099999244
0.2100001169
0.2100002573
0.2100003407
0.2100003745
0.2100003686
0.210000331
0.2100002651
0.2100001812
0.2100001006
0.2100000663
0.2100001071
0.2100001927
0.2100001665
0.2100001382
0.21000008
0.2100000958
0.2100001656
0.210000287
0.21000039
0.2100005043
0.2100005736
0.2100006534
0.2100006965
0.2100007255
0.2100006287
0.2100005869
0.2100007293
0.2099987734
0.209999144
0.2099993243
0.2099993165
0.2099993929
0.2099995404
0.2099997304
0.2099999129
0.2100000513
0.2100001378
0.2100001798
0.2100001891
0.2100001647
0.2100001101
0.2100000441
0.2099999966
0.2100000172
0.2100000743
0.210000072
0.2099999817
0.2099999924
0.2099999528
0.2100000089
0.2100001136
0.2100002278
0.2100003291
0.2100004729
0.2100005648
0.2100007015
0.2100008492
0.2100009698
0.2100008533
0.2100006968
0.2100007939
0.2099985825
0.2099988426
0.2099990401
0.2099991523
0.2099992829
0.2099994397
0.2099996114
0.2099997657
0.2099998763
0.2099999407
0.2099999682
0.2099999764
0.2099999633
0.2099999272
0.2099998927
0.2099998955
0.2099999627
0.2100000034
0.2099997892
0.2099997985
0.2099997914
0.2099997997
0.2099999025
0.2100000221
0.2100001247
0.2100002231
0.2100003944
0.2100005328
0.2100007203
0.2100009601
0.2100011407
0.2100010496
0.2100008468
0.2100008261
0.2099984433
0.2099986155
0.2099988666
0.2099990538
0.2099992101
0.2099993707
0.2099995325
0.2099996643
0.209999733
0.2099997516
0.2099997563
0.2099997587
0.2099997521
0.2099997441
0.2099997672
0.2099998428
0.209999936
0.2099999407
0.2099993105
0.2100000149
0.2099996356
0.2099997231
0.2099997955
0.209999893
0.2099999944
0.2100000939
0.2100002817
0.2100004686
0.21000067
0.2100009314
0.2100011308
0.2100010952
0.2100009029
0.2100007716
0.2099983863
0.2099985151
0.2099987391
0.2099989475
0.2099991232
0.209999289
0.2099994537
0.2099995755
0.2099996003
0.2099995918
0.2099995889
0.2099995932
0.2099996054
0.2099996434
0.209999724
0.2099998488
0.2099998041
0.209999857
0.2099995261
0.2100011309
0.2099995765
0.2099995987
0.2099996533
0.2099997543
0.209999862
0.2099999739
0.2100001675
0.2100003606
0.210000544
0.2100007722
0.2100009847
0.2100010029
0.2100008262
0.2100006057
0.2099983322
0.2099983744
0.2099984902
0.2099986835
0.2099988816
0.2099990504
0.2099991204
0.2099993237
0.2099995565
0.2099994838
0.2099994349
0.2099994513
0.2099994941
0.2099995441
0.2099996233
0.2099997332
0.2099998397
0.2099998982
0.2099998617
0.209999528
0.2099996736
0.2099996632
0.2099995832
0.209999581
0.209999615
0.2099997142
0.2099998502
0.2100000505
0.210000237
0.2100004011
0.2100004727
0.2100006041
0.2100006238
0.2100004935
0.2100004115
0.209998324
0.2099983949
0.2099984923
0.2099986582
0.2099988394
0.2099989972
0.2099991208
0.2099992706
0.2099993626
0.2099993651
0.2099993799
0.2099994207
0.209999471
0.2099995357
0.2099996449
0.2099997743
0.2099998739
0.2099999127
0.2099998645
0.2099996015
0.2099996439
0.2099995432
0.2099995226
0.2099995346
0.2099995548
0.2099996537
0.2099997812
0.2099999348
0.2100000877
0.2100002296
0.2100003296
0.2100004315
0.2100003661
0.2100002812
0.2100002949
0.2099983473
0.2099984023
0.2099984947
0.2099986388
0.2099987973
0.2099989456
0.2099990752
0.2099991926
0.209999275
0.2099993217
0.2099993594
0.2099994021
0.2099994564
0.2099995321
0.2099996318
0.2099997426
0.2099998524
0.209999913
0.2099998517
0.2099997042
0.2099996191
0.2099995126
0.2099994591
0.2099994607
0.2099994836
0.2099995578
0.2099996602
0.2099997797
0.2099999074
0.210000028
0.210000126
0.2100001838
0.2100001965
0.2100001872
0.2100001652
0.2099983864
0.2099984249
0.2099985106
0.2099986358
0.2099987744
0.209998912
0.2099990389
0.2099991465
0.2099992273
0.2099992828
0.2099993278
0.2099993766
0.2099994463
0.2099995473
0.2099996539
0.2099997452
0.2099998302
0.2099998902
0.2099998392
0.2099997052
0.2099995985
0.2099995055
0.2099994313
0.209999404
0.2099994074
0.2099994577
0.2099995403
0.2099996506
0.2099997723
0.209999889
0.2099999952
0.2100000687
0.2100001
0.2100000821
0.21000003
0.2099984782
0.2099985537
0.209998662
0.2099987827
0.2099989053
0.2099990196
0.2099991158
0.2099991905
0.2099992485
0.2099993006
0.2099993593
0.2099994483
0.209999582
0.2099996981
0.2099997604
0.2099998003
0.2099998386
0.2099998064
0.2099997004
0.2099995973
0.2099995023
0.2099994179
0.2099993681
0.209999349
0.2099993778
0.2099994455
0.209999546
0.2099996499
0.2099997418
0.2099998707
0.2099999712
0.2100000236
0.2100000242
0.20999997
0.2099985595
0.2099986281
0.2099987204
0.2099988224
0.2099989259
0.2099990235
0.2099991087
0.2099991795
0.2099992371
0.2099992844
0.2099993242
0.2099993903
0.2099993318
0.2099993433
0.2099994052
0.2099994943
0.209999567
0.2099996235
0.2099997793
0.2099999287
0.209999999
0.2099999884
0.2099999254
0.2099987882
0.2099988757
0.2099989646
0.2099990489
0.2099991214
0.2099991716
0.2100013177
0.2100012556
0.2100011921
0.210001082
0.2100009784
0.2100008561
0.2100007293
0.2100006488
0.2100006355
0.2100006678
0.2100006717
0.2100006558
0.2100006124
0.2100005318
0.2100004357
0.2100003564
0.210000329
0.2100003655
0.2100004468
0.2100005437
0.2100006298
0.2100006808
0.2100006752
0.2100006052
0.2100004846
0.2100003409
0.2100002005
0.2100000778
0.2099999811
0.2099999383
0.2099999907
0.2100001066
0.2100002396
0.2100003414
0.2100013229
0.210001264
0.210001201
0.2100011159
0.2100009745
0.2100008654
0.2100007307
0.210000628
0.2100005709
0.210000576
0.2100006437
0.210000749
0.2100008201
0.2100008147
0.2100007556
0.2100006984
0.2100006985
0.2100007547
0.2100008286
0.2100008929
0.2100009388
0.2100009612
0.2100009515
0.2100008994
0.2100007999
0.2100006656
0.2100005271
0.2100004138
0.2100003367
0.2100003053
0.2100003315
0.2100003997
0.210000474
0.2100005187
0.2100013563
0.21000132
0.2100012682
0.2100011969
0.2100010203
0.2100009434
0.2100008128
0.210000689
0.2100005954
0.210000556
0.2100006018
0.2100007265
0.2100008495
0.2100009029
0.2100008909
0.2100008832
0.2100009468
0.2100010523
0.2100011394
0.2100011862
0.2100011997
0.2100011899
0.2100011593
0.2100011042
0.2100010163
0.2100008958
0.2100007666
0.2100006623
0.2100005954
0.2100005677
0.2100005796
0.2100006095
0.2100006236
0.210000597
0.2100013871
0.2100013811
0.2100013444
0.210001227
0.2100010484
0.2100010029
0.210000918
0.2100007873
0.2100006855
0.2100006278
0.2100006308
0.2100007064
0.2100008083
0.2100008836
0.2100009041
0.2100009407
0.2100010618
0.2100012185
0.2100013313
0.2100013762
0.2100013692
0.2100013322
0.2100012784
0.2100012118
0.2100011278
0.2100010213
0.2100009083
0.2100008188
0.2100007608
0.2100007273
0.2100007097
0.210000685
0.2100006384
0.2100005689
0.2100013831
0.2100014085
0.2100013768
0.2100012134
0.2100011086
0.2100010265
0.2100010023
0.2100008861
0.2100007918
0.2100007442
0.2100007337
0.2100007694
0.2100008334
0.2100008912
0.210000898
0.2100009337
0.2100010663
0.2100012503
0.2100013933
0.2100014523
0.2100014368
0.2100013749
0.2100012907
0.2100011997
0.2100011079
0.2100010129
0.2100009244
0.2100008613
0.2100008181
0.2100007743
0.2100007187
0.2100006505
0.2100005848
0.2100005191
0.2100013311
0.2100013897
0.2100013685
0.2100012319
0.2100011329
0.2100010859
0.2100010534
0.2100009624
0.2100008857
0.2100008684
0.2100008768
0.2100009166
0.2100009967
0.2100010403
0.2100010024
0.2100009685
0.2100010354
0.2100011908
0.2100013463
0.2100014256
0.2100014125
0.2100013289
0.2100012069
0.2100010784
0.2100009699
0.2100008896
0.2100008365
0.2100008069
0.2100007803
0.2100007297
0.2100006546
0.2100005856
0.2100005468
0.2100005087
0.2100012372
0.2100013289
0.210001342
0.2100012912
0.2100011234
0.2100011716
0.2100011231
0.2100010379
0.2100009752
0.2100009915
0.2100010322
0.2100011003
0.2100012417
0.2100012953
0.2100012303
0.2100010978
0.2100010471
0.2100011183
0.2100012486
0.2100013356
0.2100013272
0.2100012282
0.2100010731
0.2100009116
0.2100007936
0.2100007391
0.2100007289
0.2100007279
0.2100007057
0.2100006538
0.2100005909