/*--------------------------------*- C++ -*----------------------------------*\
  =========                 |
  \\      /  F ield         | OpenFOAM: The Open Source CFD Toolbox
   \\    /   O peration     | Website:  https://openfoam.org
    \\  /    A nd           | Version:  8
     \\/     M anipulation  |
\*---------------------------------------------------------------------------*/
FoamFile
{
    version     2.0;
    format      ascii;
    class       volScalarField;
    location    "2";
    object      p_rgh;
}
// * * * * * * * * * * * * * * * * * * * * * * * * * * * * * * * * * * * * * //

dimensions      [1 -1 -2 0 0 0 0];

internalField   nonuniform List<scalar> 
67193
(
100004.1505
100004.1484
100004.1849
100004.16
100004.2519
100004.2114
100004.1799
100004.1517
100004.1307
100004.1142
100004.0966
100004.0788
100004.0576
100004.0433
100004.0356
100004.0262
100004.0151
100004.0041
100003.9939
100003.9848
100003.977
100003.9707
100003.9661
100003.9633
100003.962
100003.9621
100003.9637
100003.9668
100003.9716
100003.9786
100003.9872
100003.9986
100004.0113
100004.0199
100004.0177
100004.0165
100004.0323
100004.001
100003.988
100004.0063
100004.0183
100004.0331
100004.0445
100004.0501
100004.0448
100004.0312
100004.0119
100003.9956
100003.9865
100003.9782
100003.9695
100003.96
100003.9509
100003.9435
100003.9387
100003.9371
100003.9383
100003.9416
100003.9457
100003.9499
100003.9539
100003.9582
100003.9631
100003.9696
100003.9773
100003.9877
100003.9982
100004.0079
100003.9429
100003.9462
100003.9493
100003.9107
100003.9295
100003.9388
100003.9287
100003.9527
100003.9791
100003.9968
100004.0009
100003.9949
100003.9791
100003.9639
100003.9569
100003.9526
100003.9489
100003.9438
100003.9368
100003.9297
100003.925
100003.9238
100003.926
100003.9309
100003.9369
100003.9427
100003.9476
100003.9518
100003.9557
100003.9613
100003.9679
100003.9771
100003.9864
100003.9964
100003.88
100003.8851
100003.8833
100003.8656
100003.9686
100003.932
100003.8754
100003.8906
100003.9211
100003.9452
100003.9545
100003.9558
100003.9407
100003.9266
100003.9204
100003.9214
100003.9241
100003.9254
100003.9224
100003.9165
100003.9113
100003.9097
100003.9124
100003.9184
100003.9261
100003.9335
100003.9391
100003.943
100003.9454
100003.9491
100003.9536
100003.9609
100003.9669
100003.9767
100003.8355
100003.8405
100003.8437
100003.8425
100003.9289
100003.8929
100003.8536
100003.8605
100003.8827
100003.9075
100003.9177
100003.9294
100003.9113
100003.9015
100003.8931
100003.8973
100003.9003
100003.9062
100003.9084
100003.9052
100003.9001
100003.8974
100003.8993
100003.9055
100003.9142
100003.9228
100003.929
100003.9323
100003.9327
100003.9335
100003.9353
100003.9401
100003.9432
100003.9527
100003.8056
100003.8082
100003.8177
100003.8215
100003.8545
100003.8476
100003.8384
100003.8441
100003.8569
100003.885
100003.894
100003.9242
100003.9005
100003.9013
100003.8923
100003.885
100003.8797
100003.8834
100003.8891
100003.8894
100003.8854
100003.8818
100003.8822
100003.8875
100003.8963
100003.9061
100003.9134
100003.9168
100003.9157
100003.9133
100003.9122
100003.9155
100003.917
100003.9287
100003.7847
100003.789
100003.7988
100003.8039
100003.825
100003.8266
100003.8257
100003.8324
100003.8386
100003.8777
100003.885
100003.9377
100003.9192
100003.9402
100003.9347
100003.9159
100003.8704
100003.8613
100003.8685
100003.8712
100003.8678
100003.863
100003.8614
100003.8647
100003.8723
100003.8823
100003.891
100003.8954
100003.894
100003.889
100003.8862
100003.8889
100003.8906
100003.907
100003.77
100003.7771
100003.7875
100003.7926
100003.8096
100003.8131
100003.8146
100003.8267
100003.8261
100003.8829
100003.8909
100003.9494
100003.977
100004.0255
100004.0273
100003.9945
100003.8989
100003.8522
100003.8553
100003.858
100003.8529
100003.8455
100003.841
100003.8415
100003.8466
100003.8551
100003.8642
100003.8702
100003.8693
100003.8633
100003.8604
100003.8637
100003.8667
100003.8884
100003.7641
100003.7724
100003.7833
100003.7911
100003.8048
100003.8142
100003.8163
100003.8353
100003.828
100003.9114
100003.9162
100003.9569
100004.0724
100004.1607
100004.1607
100004.1019
100003.9641
100003.8742
100003.8594
100003.8567
100003.8472
100003.8354
100003.8269
100003.8236
100003.8252
100003.831
100003.8393
100003.8461
100003.8455
100003.8401
100003.8388
100003.8431
100003.8472
100003.8732
100003.7687
100003.7759
100003.7872
100003.8002
100003.8155
100003.8324
100003.8322
100003.8674
100003.8688
100003.991
100003.9911
100004.0861
100004.2183
100004.3128
100004.286
100004.1867
100004.0292
100003.9167
100003.8795
100003.8667
100003.8508
100003.8343
100003.8218
100003.8142
100003.8116
100003.8138
100003.8205
100003.8272
100003.8263
100003.8222
100003.8238
100003.8285
100003.8329
100003.8609
100003.7859
100003.7889
100003.8
100003.8179
100003.8395
100003.861
100003.8727
100003.9325
100003.965
100004.0998
100004.1186
100004.4012
100004.3976
100004.3658
100004.2589
100004.1067
100003.9893
100003.9311
100003.9015
100003.8785
100003.8565
100003.8378
100003.8237
100003.8131
100003.8059
100003.8044
100003.809
100003.8144
100003.8125
100003.8099
100003.8151
100003.8197
100003.8235
100003.8497
100003.813
100003.8136
100003.8232
100003.8436
100003.8723
100003.8989
100003.9334
100004.0277
100004.0889
100004.164
100004.2335
100004.4343
100004.2573
100004.1337
100004.0949
100004.0628
100004.0179
100003.9652
100003.9213
100003.8873
100003.8613
100003.8425
100003.8285
100003.8167
100003.8066
100003.8017
100003.8038
100003.8063
100003.803
100003.8019
100003.8092
100003.8135
100003.8176
100003.8386
100003.8409
100003.8474
100003.8556
100003.8769
100003.9125
100003.9484
100004.0016
100004.121
100004.1793
100004.1725
100004.1624
100004.1444
100004.072
100004.0582
100004.0619
100004.0422
100004.0045
100003.9596
100003.918
100003.8846
100003.8597
100003.8423
100003.8297
100003.8186
100003.8085
100003.8026
100003.802
100003.8008
100003.7961
100003.796
100003.8039
100003.8095
100003.8145
100003.8282
100003.8665
100003.8851
100003.8971
100003.9157
100003.9566
100004.0049
100004.0589
100004.165
100004.201
100004.1508
100004.075
100004.0388
100004.0417
100004.0559
100004.0793
100004.0545
100004.0001
100003.9493
100003.9084
100003.8768
100003.8535
100003.8372
100003.8252
100003.8162
100003.8095
100003.8037
100003.8003
100003.7958
100003.7909
100003.792
100003.8009
100003.8081
100003.8134
100003.8203
100003.9003
100003.9254
100003.946
100003.9584
100004.0015
100004.049
100004.0969
100004.1454
100004.1232
100004.0406
100003.9629
100003.9288
100003.9444
100003.9887
100004.0435
100004.0206
100003.9733
100003.9276
100003.8954
100003.8702
100003.8536
100003.8359
100003.8208
100003.814
100003.8099
100003.8024
100003.7959
100003.7902
100003.7879
100003.7907
100003.8013
100003.8092
100003.8131
100003.8168
100003.9534
100003.9726
100003.9997
100004.0072
100004.0551
100004.0896
100004.1055
100004.0979
100004.041
100003.9621
100003.9061
100003.888
100003.9011
100003.9253
100003.9485
100003.9471
100003.9307
100003.9122
100003.8983
100003.8849
100003.8645
100003.8388
100003.8203
100003.813
100003.8061
100003.7953
100003.7886
100003.7845
100003.7862
100003.79
100003.8021
100003.8104
100003.8141
100003.8183
100004.0151
100004.0242
100004.0504
100004.0616
100004.1241
100004.1465
100004.1191
100004.0669
100003.9961
100003.9247
100003.8729
100003.8458
100003.8428
100003.857
100003.8783
100003.8901
100003.896
100003.8997
100003.9016
100003.8981
100003.8781
100003.8468
100003.8237
100003.8065
100003.7928
100003.7835
100003.7809
100003.7801
100003.7847
100003.7882
100003.7989
100003.8111
100003.8176
100003.8264
100004.0725
100004.0752
100004.0973
100004.1187
100004.1979
100004.215
100004.1534
100004.0582
100003.9616
100003.8821
100003.8297
100003.8041
100003.7997
100003.8095
100003.8277
100003.8468
100003.8665
100003.886
100003.8997
100003.9022
100003.8759
100003.8401
100003.812
100003.7886
100003.7735
100003.7708
100003.7754
100003.7791
100003.7848
100003.786
100003.7909
100003.8119
100003.8224
100003.8438
100004.1307
100004.1176
100004.1454
100004.171
100004.2449
100004.2443
100004.1639
100004.047
100003.9351
100003.8493
100003.795
100003.7684
100003.7623
100003.7707
100003.7899
100003.8168
100003.848
100003.8771
100003.8914
100003.9015
100003.8625
100003.8253
100003.7932
100003.77
100003.7621
100003.7649
100003.7754
100003.7847
100003.7898
100003.788
100003.7847
100003.8152
100003.8344
100003.866
100004.1974
100004.1527
100004.1884
100004.1917
100004.2326
100004.2124
100004.1275
100004.0093
100003.8958
100003.8079
100003.7527
100003.7275
100003.726
100003.7422
100003.7697
100003.8033
100003.8392
100003.8708
100003.8692
100003.903
100003.8522
100003.8173
100003.7858
100003.769
100003.7792
100003.7821
100003.7885
100003.8031
100003.8065
100003.8041
100003.8081
100003.8338
100003.8522
100003.9108
100004.3381
100004.1885
100004.1911
100004.1768
100004.1606
100004.1165
100004.0321
100003.9264
100003.8277
100003.7532
100003.7107
100003.6992
100003.7105
100003.7358
100003.769
100003.8051
100003.8415
100003.8769
100003.8193
100003.8524
100003.8598
100003.8379
100003.8077
100003.7996
100003.8276
100003.8304
100003.8257
100003.8445
100003.8464
100003.8545
100003.8903
100003.9065
100003.8916
100003.9909
100004.2657
100004.2164
100004.1595
100004.1196
100004.0759
100004.0053
100003.9186
100003.8298
100003.754
100003.7043
100003.686
100003.6913
100003.7135
100003.7463
100003.7857
100003.823
100003.8487
100003.8793
100003.7251
100003.7136
100003.8695
100003.8912
100003.8596
100003.8478
100003.8918
100003.8969
100003.8827
100003.9055
100003.9122
100003.9392
100004.0234
100004.0369
100003.9718
100004.1004
100004.2309
100004.1965
100004.1259
100004.0575
100003.9992
100003.9276
100003.8481
100003.7762
100003.7223
100003.6936
100003.6899
100003.7051
100003.7326
100003.7665
100003.8034
100003.8352
100003.8583
100003.8313
100003.7663
100003.9819
100003.9526
100003.9104
100003.9193
100003.8973
100003.9403
100003.9478
100003.932
100003.9504
100003.9642
100004.0309
100004.1534
100004.1661
100004.0689
100004.1931
100004.1543
100004.1328
100004.066
100003.9821
100003.91
100003.8566
100003.8035
100003.7564
100003.7201
100003.703
100003.7082
100003.7299
100003.762
100003.8001
100003.842
100003.8835
100003.8578
100003.7594
100003.7174
100004.1996
100003.8664
100003.886
100004.0322
100004.0055
100003.9595
100003.9368
100003.9316
100003.9497
100003.9702
100004.038
100004.132
100004.1256
100004.0158
100004.1629
100004.084
100004.0783
100004.0547
100004.0028
100003.951
100003.9246
100003.8444
100003.7545
100003.7311
100003.7043
100003.6974
100003.7136
100003.7408
100003.7708
100003.7968
100003.8137
100003.8174
100003.8019
100003.8047
100003.6431
100003.7607
100003.8041
100003.7874
100003.7853
100003.805
100003.8487
100003.8753
100003.9018
100003.9219
100003.9416
100003.9742
100003.9873
100003.975
100003.9473
100004.0316
100004.0371
100004.0053
100003.9703
100003.9199
100003.8636
100003.8142
100003.7676
100003.724
100003.7073
100003.7003
100003.709
100003.7308
100003.7599
100003.7909
100003.817
100003.8359
100003.8463
100003.8636
100003.8599
100003.7869
100003.8578
100003.8948
100003.8708
100003.8668
100003.8548
100003.8617
100003.8759
100003.8946
100003.91
100003.9199
100003.9202
100003.9209
100003.9429
100003.9626
100004.0109
100003.954
100003.9216
100003.8877
100003.8498
100003.8126
100003.7845
100003.756
100003.7283
100003.7151
100003.7148
100003.7259
100003.7468
100003.7733
100003.7994
100003.818
100003.8277
100003.8316
100003.8329
100003.842
100003.8125
100003.9107
100003.8079
100003.799
100003.8043
100003.8226
100003.8424
100003.8636
100003.8807
100003.8969
100003.9141
100003.9265
100003.935
100003.9477
100003.9623
100003.9968
100003.9003
100003.8645
100003.833
100003.8053
100003.7814
100003.7629
100003.7451
100003.7295
100003.7241
100003.7291
100003.7439
100003.7669
100003.7944
100003.8157
100003.8257
100003.8299
100003.8347
100003.8443
100003.8481
100003.8394
100003.8567
100003.8328
100003.8237
100003.8236
100003.8298
100003.843
100003.8573
100003.8736
100003.8892
100003.9121
100003.928
100003.9461
100003.9536
100003.962
100003.99
100003.8448
100003.8167
100003.7943
100003.7759
100003.7616
100003.7498
100003.7422
100003.7425
100003.7516
100003.7685
100003.7923
100003.8126
100003.8224
100003.8247
100003.8256
100003.8284
100003.8338
100003.8348
100003.8245
100003.8204
100003.8099
100003.8103
100003.8177
100003.8281
100003.8409
100003.8548
100003.8701
100003.8878
100003.9093
100003.9304
100003.9547
100003.9645
100003.968
100003.9954
100003.8539
100003.8322
100003.8137
100003.7979
100003.7851
100003.7755
100003.7706
100003.7724
100003.7821
100003.798
100003.8149
100003.8236
100003.8273
100003.8387
100003.8505
100003.8616
100003.8727
100003.91
100003.9357
100003.9478
100003.9613
100003.9781
100004.0141
100003.8532
100003.8401
100003.8288
100003.8207
100003.8167
100003.817
100004.0993
100004.0932
100004.0896
100004.0409
100003.9556
100003.974
100004.018
100004.054
100004.0737
100004.0781
100004.0696
100004.0511
100004.0261
100004.0041
100003.9897
100003.9816
100003.9764
100003.971
100003.9644
100003.9576
100003.9523
100003.9499
100003.9505
100003.9529
100003.9559
100003.9588
100003.9617
100003.9655
100003.9705
100003.9775
100003.9862
100003.9978
100004.0113
100004.0223
100003.9774
100003.9743
100003.9523
100003.8915
100003.791
100003.8234
100003.8681
100003.942
100003.9948
100004.0212
100004.0251
100004.0118
100003.9873
100003.9615
100003.9448
100003.9375
100003.9347
100003.9314
100003.9266
100003.9221
100003.9197
100003.9209
100003.9257
100003.9329
100003.9407
100003.9472
100003.9524
100003.957
100003.9619
100003.9683
100003.9758
100003.9863
100003.9978
100004.0074
100003.905
100003.9012
100003.8631
100003.8226
100003.8012
100003.8002
100003.7989
100003.8587
100003.9246
100003.9663
100003.981
100003.976
100003.9539
100003.925
100003.9071
100003.9015
100003.9048
100003.9097
100003.9112
100003.9098
100003.9087
100003.91
100003.9147
100003.9223
100003.9314
100003.9397
100003.9457
100003.9502
100003.9539
100003.9589
100003.9654
100003.9752
100003.9862
100003.9968
100003.844
100003.8413
100003.8083
100003.7912
100003.7778
100003.7784
100003.7652
100003.802
100003.8621
100003.9098
100003.9314
100003.9317
100003.9091
100003.8809
100003.8639
100003.8555
100003.8615
100003.8768
100003.8892
100003.8945
100003.8957
100003.8974
100003.9022
100003.9105
100003.9209
100003.9306
100003.9373
100003.9413
100003.9431
100003.9459
100003.9497
100003.9579
100003.9671
100003.9777
100003.8018
100003.8028
100003.7906
100003.7867
100003.7655
100003.7598
100003.7512
100003.7836
100003.8273
100003.8686
100003.8916
100003.8952
100003.8741
100003.8513
100003.8366
100003.8209
100003.8196
100003.838
100003.8622
100003.8775
100003.8828
100003.885
100003.8893
100003.8974
100003.9085
100003.9195
100003.9271
100003.9306
100003.9302
100003.9293
100003.9294
100003.9352
100003.942
100003.9537
100003.7737
100003.7764
100003.7811
100003.79
100003.778
100003.7673
100003.7632
100003.7821
100003.8064
100003.8403
100003.8648
100003.8717
100003.8617
100003.8426
100003.8257
100003.8087
100003.7878
100003.7957
100003.8268
100003.8526
100003.8636
100003.8665
100003.8699
100003.8771
100003.8881
100003.9005
100003.9102
100003.9149
100003.913
100003.9076
100003.9041
100003.9074
100003.9121
100003.926
100003.7542
100003.7584
100003.7659
100003.7724
100003.7771
100003.7677
100003.7642
100003.771
100003.783
100003.8174
100003.8492
100003.8487
100003.8706
100003.8552
100003.833
100003.8129
100003.7815
100003.7646
100003.7887
100003.8218
100003.8387
100003.8425
100003.8445
100003.8499
100003.8598
100003.8725
100003.8846
100003.8923
100003.8905
100003.8813
100003.8749
100003.8764
100003.8802
100003.8973
100003.7423
100003.748
100003.7558
100003.7592
100003.7604
100003.7576
100003.7564
100003.7581
100003.7625
100003.7961
100003.8467
100003.7811
100003.897
100003.8958
100003.8706
100003.8391
100003.7985
100003.7614
100003.7616
100003.7939
100003.8145
100003.8189
100003.8193
100003.822
100003.8291
100003.8402
100003.8535
100003.8643
100003.8638
100003.8529
100003.8464
100003.8469
100003.8497
100003.8707
100003.7382
100003.7453
100003.7532
100003.7567
100003.7585
100003.7595
100003.7575
100003.7525
100003.7562
100003.7863
100003.862
100003.7344
100003.9216
100003.9744
100003.9427
100003.8905
100003.8313
100003.7811
100003.7616
100003.7818
100003.7995
100003.8027
100003.8012
100003.801
100003.8042
100003.8116
100003.8233
100003.8361
100003.8368
100003.8267
100003.8232
100003.824
100003.8256
100003.8485
100003.743
100003.75
100003.7584
100003.7645
100003.7698
100003.7766
100003.7764
100003.766
100003.7722
100003.8042
100003.9044
100003.7869
100003.9501
100004.0899
100004.0321
100003.9477
100003.8697
100003.8147
100003.7876
100003.7919
100003.798
100003.7961
100003.7918
100003.7892
100003.7888
100003.7918
100003.8003
100003.8128
100003.8132
100003.8052
100003.8056
100003.8084
100003.8099
100003.8328
100003.7585
100003.7632
100003.7718
100003.7821
100003.7925
100003.805
100003.8073
100003.7951
100003.8072
100003.8538
100003.9675
100003.875
100003.9695
100004.1782
100004.0761
100003.9675
100003.8921
100003.8499
100003.8279
100003.8173
100003.8085
100003.7992
100003.7911
100003.7854
100003.7822
100003.7817
100003.7867
100003.7971
100003.7958
100003.7897
100003.7928
100003.7979
100003.8014
100003.8229
100003.7801
100003.7857
100003.7932
100003.8087
100003.8235
100003.8403
100003.846
100003.8379
100003.8502
100003.8886
100003.9766
100003.8765
100003.8566
100003.9618
100003.9847
100003.9788
100003.945
100003.9044
100003.867
100003.8378
100003.8173
100003.8034
100003.7932
100003.7858
100003.7813
100003.7787
100003.7817
100003.789
100003.7847
100003.7807
100003.7859
100003.7928
100003.7988
100003.8175
100003.7992
100003.817
100003.8213
100003.8421
100003.8587
100003.8812
100003.8903
100003.8816
100003.8844
100003.892
100003.933
100003.9492
100003.9506
100004.012
100004.0469
100004.023
100003.9738
100003.9198
100003.8746
100003.8409
100003.8182
100003.8039
100003.7937
100003.7867
100003.7827
100003.78
100003.7822
100003.7858
100003.779
100003.7773
100003.7843
100003.7924
100003.8004
100003.8148
100003.8136
100003.8528
100003.8538
100003.8793
100003.8929
100003.924
100003.9358
100003.9121
100003.8921
100003.868
100003.8616
100003.8654
100003.8966
100003.9896
100004.0872
100004.0483
100003.9782
100003.9158
100003.8694
100003.8361
100003.8138
100003.8002
100003.7901
100003.7847
100003.7833
100003.7831
100003.7843
100003.784
100003.7773
100003.7784
100003.7867
100003.7965
100003.8035
100003.8126
100003.8377
100003.889
100003.8905
100003.9159
100003.9227
100003.9529
100003.9705
100003.9385
100003.8852
100003.8353
100003.8158
100003.8286
100003.8829
100003.9874
100004.1627
100004.0618
100003.9699
100003.9035
100003.8564
100003.8287
100003.8123
100003.7976
100003.7848
100003.78
100003.7829
100003.7839
100003.7833
100003.7808
100003.7766
100003.7816
100003.7917
100003.8017
100003.8049
100003.8099
100003.8785
100003.9264
100003.9311
100003.9494
100003.9502
100003.9636
100003.9748
100003.9603
100003.9127
100003.8604
100003.829
100003.824
100003.848
100003.8941
100003.9358
100003.9333
100003.9138
100003.8873
100003.863
100003.8444
100003.8295
100003.8036
100003.785
100003.7808
100003.7794
100003.7779
100003.7767
100003.776
100003.7784
100003.7841
100003.7931
100003.8034
100003.804
100003.8088
100003.9327
100003.9697
100003.9717
100003.9808
100003.9779
100003.9707
100003.9534
100003.9229
100003.8802
100003.8375
100003.807
100003.7953
100003.8028
100003.8298
100003.8655
100003.874
100003.8772
100003.8795
100003.8782
100003.8708
100003.8517
100003.8178
100003.791
100003.7752
100003.7625
100003.7623
100003.766
100003.7702
100003.7763
100003.7798
100003.7829
100003.7978
100003.8032
100003.8118
100003.9876
100004.0109
100004.0088
100004.0109
100004.0038
100003.9811
100003.9375
100003.8822
100003.8261
100003.7816
100003.7544
100003.7448
100003.7514
100003.7719
100003.7982
100003.8185
100003.8381
100003.8583
100003.8727
100003.8687
100003.8436
100003.8064
100003.7739
100003.7486
100003.7347
100003.742
100003.7537
100003.765
100003.7734
100003.7699
100003.7611
100003.7823
100003.8
100003.819
100004.0214
100004.0389
100004.0428
100004.0346
100004.0184
100003.9844
100003.9224
100003.8491
100003.783
100003.7348
100003.7077
100003.6999
100003.7079
100003.7283
100003.7541
100003.7793
100003.8067
100003.8323
100003.8479
100003.8372
100003.8124
100003.7743
100003.739
100003.7172
100003.7143
100003.7268
100003.742
100003.7621
100003.7719
100003.7584
100003.7458
100003.7633
100003.7877
100003.8254
100004.0009
100004.0479
100004.0703
100004.0419
100004.0058
100003.9543
100003.8808
100003.8008
100003.7323
100003.6848
100003.6608
100003.658
100003.672
100003.6959
100003.7256
100003.7564
100003.7887
100003.8103
100003.809
100003.772
100003.7664
100003.7297
100003.7035
100003.6978
100003.7057
100003.7245
100003.7412
100003.7643
100003.7742
100003.7534
100003.7464
100003.7624
100003.7675
100003.8273
100003.9378
100004.0311
100004.0934
100004.0576
100003.9911
100003.9139
100003.8312
100003.7521
100003.6881
100003.6466
100003.6293
100003.6339
100003.6548
100003.6852
100003.7205
100003.752
100003.7803
100003.7821
100003.7418
100003.6465
100003.6946
100003.6723
100003.6708
100003.6857
100003.7097
100003.7365
100003.7555
100003.778
100003.7857
100003.7631
100003.7667
100003.7844
100003.7661
100003.827
100004.0249
100004.0059
100004.0097
100003.9946
100003.9417
100003.8617
100003.7794
100003.7077
100003.6547
100003.625
100003.6193
100003.637
100003.6681
100003.7058
100003.7429
100003.7667
100003.7743
100003.7118
100003.5691
100003.3294
100003.5341
100003.5908
100003.6458
100003.6791
100003.7228
100003.7602
100003.7833
100003.8045
100003.8072
100003.7933
100003.8101
100003.824
100003.797
100003.845
100003.991
100003.9797
100003.9556
100003.9228
100003.8771
100003.8145
100003.7473
100003.6885
100003.6478
100003.6308
100003.6399
100003.6668
100003.7028
100003.7402
100003.773
100003.7849
100003.7705
100003.6847
100003.5436
100003.4485
100003.4274
100003.5473
100003.6372
100003.6747
100003.7363
100003.783
100003.8137
100003.8412
100003.8481
100003.8351
100003.8604
100003.8684
100003.8348
100003.8736
100003.9556
100003.9383
100003.9042
100003.8616
100003.8171
100003.7726
100003.7322
100003.6953
100003.6687
100003.6612
100003.676
100003.7059
100003.7421
100003.776
100003.8018
100003.7934
100003.7098
100003.5506
100003.4157
100003.5659
100003.2258
100003.2539
100003.6113
100003.6774
100003.7456
100003.7927
100003.8326
100003.8673
100003.8762
100003.8603
100003.8729
100003.8714
100003.8406
100003.856
100003.9513
100003.9151
100003.8911
100003.8554
100003.8149
100003.7691
100003.7136
100003.6999
100003.6811
100003.6651
100003.6629
100003.6839
100003.7176
100003.7542
100003.7833
100003.8
100003.7994
100003.7808
100003.7144
100003.6167
100003.4235
100003.642
100003.6155
100003.676
100003.7046
100003.7566
100003.8141
100003.8597
100003.8878
100003.9127
100003.8918
100003.8828
100003.8787
100003.8657
100003.8963
100003.9137
100003.8645
100003.8378
100003.8047
100003.7695
100003.7343
100003.6993
100003.6812
100003.6693
100003.6676
100003.6809
100003.7072
100003.7397
100003.7715
100003.7954
100003.81
100003.8134
100003.8159
100003.775
100003.7063
100003.5587
100003.6997
100003.7026
100003.7424
100003.7628
100003.7971
100003.8416
100003.8704
100003.892
100003.9094
100003.901
100003.8701
100003.8635
100003.8814
100003.9273
100003.8669
100003.8209
100003.7938
100003.7666
100003.7405
100003.7182
100003.6983
100003.6853
100003.6792
100003.6829
100003.6986
100003.7234
100003.7531
100003.7825
100003.8039
100003.816
100003.8213
100003.8223
100003.8073
100003.7793
100003.7491
100003.7506
100003.7426
100003.7658
100003.7877
100003.8151
100003.8388
100003.8585
100003.874
100003.8885
100003.895
100003.8882
100003.8988
100003.9288
100003.965
100003.8364
100003.7967
100003.7696
100003.747
100003.7277
100003.7122
100003.6999
100003.6924
100003.692
100003.7007
100003.7192
100003.7451
100003.7744
100003.7975
100003.8085
100003.8141
100003.8197
100003.8277
100003.822
100003.8062
100003.7829
100003.7805
100003.7715
100003.7844
100003.8006
100003.8203
100003.8375
100003.8538
100003.8674
100003.8811
100003.8922
100003.9022
100003.9162
100003.9365
100003.9653
100003.7936
100003.7683
100003.7488
100003.7333
100003.7216
100003.7134
100003.7103
100003.714
100003.7264
100003.7465
100003.7721
100003.7952
100003.8037
100003.805
100003.8071
100003.8104
100003.8181
100003.819
100003.8065
100003.7923
100003.7864
100003.7824
100003.7927
100003.8054
100003.8213
100003.8353
100003.8478
100003.8575
100003.8666
100003.882
100003.9029
100003.9214
100003.94
100003.9687
100003.8139
100003.7937
100003.776
100003.7612
100003.7498
100003.7425
100003.7409
100003.7464
100003.7595
100003.7785
100003.7996
100003.8087
100003.8076
100003.8201
100003.8303
100003.8384
100003.8424
100003.8374
100003.8505
100003.8697
100003.8978
100003.9278
100003.9638
100003.8149
100003.8014
100003.7905
100003.784
100003.7833
100003.7893
100004.0019
100003.9937
100003.9863
100003.9682
100003.9526
100003.9462
100003.9514
100003.9651
100003.9777
100003.9852
100003.9853
100003.979
100003.9675
100003.9552
100003.9452
100003.9381
100003.9333
100003.9294
100003.9255
100003.9219
100003.9195
100003.9192
100003.9211
100003.9245
100003.9287
100003.9334
100003.9385
100003.9445
100003.9515
100003.9598
100003.9691
100003.9805
100003.9924
100004.0013
100003.9214
100003.9189
100003.9136
100003.9079
100003.9024
100003.897
100003.9009
100003.9166
100003.9358
100003.9506
100003.9557
100003.9519
100003.9414
100003.9293
100003.9198
100003.9131
100003.9087
100003.9055
100003.903
100003.9013
100003.9012
100003.9032
100003.9071
100003.9126
100003.9186
100003.9247
100003.9308
100003.9372
100003.9439
100003.9515
100003.9596
100003.9696
100003.9798
100003.9872
100003.8689
100003.8695
100003.8678
100003.8687
100003.8639
100003.8611
100003.8666
100003.879
100003.8963
100003.9144
100003.9241
100003.9256
100003.9194
100003.9114
100003.9045
100003.8987
100003.8949
100003.8926
100003.8911
100003.8905
100003.8912
100003.8937
100003.898
100003.9039
100003.9106
100003.9172
100003.9234
100003.9293
100003.9351
100003.9416
100003.9488
100003.9584
100003.9681
100003.9757
100003.8222
100003.8244
100003.8268
100003.8316
100003.8331
100003.8186
100003.8239
100003.8361
100003.8531
100003.8726
100003.8865
100003.8932
100003.8927
100003.8903
100003.8867
100003.8821
100003.8785
100003.8768
100003.8763
100003.8765
100003.8777
100003.8806
100003.8854
100003.8921
100003.8998
100003.9071
100003.9134
100003.9187
100003.9231
100003.9276
100003.9329
100003.941
100003.9491
100003.956
100003.7888
100003.7922
100003.7983
100003.807
100003.8092
100003.7887
100003.7898
100003.801
100003.8183
100003.8388
100003.8554
100003.8678
100003.8736
100003.8763
100003.8742
100003.8702
100003.8661
100003.8638
100003.8634
100003.8638
100003.8649
100003.8672
100003.8718
100003.8786
100003.8868
100003.8948
100003.9012
100003.906
100003.9086
100003.9107
100003.9131
100003.9192
100003.9251
100003.9317
100003.7635
100003.768
100003.7759
100003.7859
100003.7884
100003.7699
100003.768
100003.7787
100003.7953
100003.8178
100003.8382
100003.858
100003.8711
100003.877
100003.8717
100003.8648
100003.8575
100003.8528
100003.8508
100003.8503
100003.8505
100003.8516
100003.855
100003.861
100003.8692
100003.8778
100003.8848
100003.8896
100003.8911
100003.891
100003.8906
100003.8946
100003.898
100003.9051
100003.7445
100003.7484
100003.7556
100003.7633
100003.7681
100003.7565
100003.7567
100003.7674
100003.7839
100003.8114
100003.8382
100003.8687
100003.8931
100003.8999
100003.8863
100003.8679
100003.8552
100003.8462
100003.8402
100003.8371
100003.8353
100003.8347
100003.8362
100003.8406
100003.8475
100003.8561
100003.8637
100003.8692
100003.8707
100003.8693
100003.8677
100003.8695
100003.8709
100003.8789
100003.7328
100003.7363
100003.7419
100003.747
100003.7508
100003.7495
100003.7536
100003.7662
100003.784
100003.8203
100003.8568
100003.9037
100003.9419
100003.9639
100003.9323
100003.8935
100003.8629
100003.8475
100003.8352
100003.8272
100003.8222
100003.8191
100003.8183
100003.8203
100003.8253
100003.8323
100003.8396
100003.8458
100003.8479
100003.8468
100003.8453
100003.8461
100003.8466
100003.8551
100003.7293
100003.7326
100003.7377
100003.7421
100003.7465
100003.7525
100003.7617
100003.7796
100003.7981
100003.8439
100003.8947
100003.9556
100004.0193
100004.0932
100004.0176
100003.947
100003.8896
100003.8609
100003.8397
100003.8246
100003.8148
100003.8081
100003.8041
100003.8032
100003.8057
100003.8106
100003.8165
100003.8223
100003.8247
100003.8249
100003.8243
100003.8253
100003.8265
100003.8361
100003.735
100003.7378
100003.7431
100003.7484
100003.7545
100003.7643
100003.7763
100003.7957
100003.8194
100003.8842
100003.947
100004.0225
100004.1194
100004.3521
100004.1472
100004.0233
100003.9331
100003.8815
100003.8529
100003.8291
100003.8136
100003.803
100003.7959
100003.7917
100003.791
100003.7935
100003.7976
100003.802
100003.8041
100003.8054
100003.8063
100003.8085
100003.8116
100003.8227
100003.7487
100003.7514
100003.7577
100003.7647
100003.7736
100003.7871
100003.8015
100003.8201
100003.8476
100003.9229
100003.9885
100004.0833
100004.1876
100004.8485
100004.2905
100004.0873
100003.9685
100003.9023
100003.8614
100003.8328
100003.8132
100003.7998
100003.7909
100003.7855
100003.7828
100003.7828
100003.7848
100003.7873
100003.7884
100003.7909
100003.7937
100003.7978
100003.8027
100003.8148
100003.7693
100003.7746
100003.7813
100003.7901
100003.8018
100003.8191
100003.8344
100003.848
100003.8695
100003.9266
100003.9739
100004.0267
100004.0387
100004.3082
100004.1573
100004.0601
100003.9761
100003.9132
100003.8676
100003.835
100003.8129
100003.7982
100003.7885
100003.7825
100003.7796
100003.7785
100003.7784
100003.7786
100003.7785
100003.7826
100003.7869
100003.7931
100003.7991
100003.8112
100003.7949
100003.8052
100003.812
100003.8224
100003.8359
100003.8563
100003.8701
100003.8748
100003.8796
100003.9002
100003.926
100003.9532
100003.9864
100004.1101
100004.148
100004.0685
100003.986
100003.9184
100003.8688