/*--------------------------------*- C++ -*----------------------------------*\
  =========                 |
  \\      /  F ield         | OpenFOAM: The Open Source CFD Toolbox
   \\    /   O peration     | Website:  https://openfoam.org
    \\  /    A nd           | Version:  8
     \\/     M anipulation  |
\*---------------------------------------------------------------------------*/
FoamFile
{
    version     2.0;
    format      ascii;
    class       surfaceScalarField;
    location    "2";
    object      phi;
}
// * * * * * * * * * * * * * * * * * * * * * * * * * * * * * * * * * * * * * //

dimensions      [1 0 -1 0 0 0 0];

internalField   nonuniform List<scalar> 
196504
(
1.20457226e-05
-3.278249842e-05
3.120454969e-05
1.208467082e-05
-3.266214032e-05
3.262298587e-05
1.047258158e-05
-3.562864671e-05
3.724052857e-05
1.038386393e-05
-3.634625043e-05
3.643473934e-05
3.253350978e-05
-5.635573607e-05
3.420591169e-05
4.495116788e-05
-4.949348219e-05
3.707557969e-05
4.630759278e-05
-3.917142913e-05
3.781475538e-05
4.240214047e-05
-3.124282914e-05
3.514803024e-05
3.652267295e-05
-2.562478094e-05
3.150399558e-05
2.941928295e-05
-2.131385794e-05
2.84169892e-05
2.296476883e-05
-1.906395294e-05
2.551819716e-05
2.051394459e-05
-1.952741463e-05
2.197795674e-05
2.016921972e-05
-1.848578368e-05
1.883022374e-05
2.245793152e-05
-2.004357133e-05
1.775458005e-05
2.620072783e-05
-2.199025947e-05
1.824718597e-05
2.879811357e-05
-2.16459522e-05
1.904829093e-05
3.008624172e-05
-2.061682733e-05
1.932842743e-05
3.109516514e-05
-1.991772938e-05
1.89085406e-05
3.239083321e-05
-1.949629224e-05
1.820036789e-05
3.374459058e-05
-1.901610065e-05
1.76620989e-05
3.456236596e-05
-1.821272323e-05
1.739471808e-05
3.427195639e-05
-1.68660863e-05
1.71562829e-05
3.259542124e-05
-1.487523327e-05
1.655157395e-05
2.966438198e-05
-1.243157139e-05
1.536243669e-05
2.578855603e-05
-1.000048007e-05
1.387615553e-05
2.131798042e-05
-7.961746562e-06
1.24321979e-05
1.63368206e-05
-6.346105505e-06
1.132716773e-05
1.091921099e-05
-5.090465336e-06
1.050800191e-05
5.531798326e-06
-4.386520841e-06
9.773882147e-06
1.151017443e-06
-4.751568309e-06
9.13231737e-06
-1.714511868e-06
-6.00065432e-06
8.866168866e-06
-2.682589397e-06
-8.111268622e-06
9.079343363e-06
-1.979692916e-06
-1.033319729e-05
9.630300306e-06
-1.234396539e-05
1.036436081e-05
4.717502155e-06
-5.202856273e-05
1.985945218e-05
3.54941553e-06
-5.345812544e-05
2.196385951e-05
-1.522411784e-06
-5.762672038e-05
2.706967866e-05
5.112932399e-06
-6.189244341e-05
1.89106112e-05
3.054231596e-05
-7.825639423e-05
-3.528894578e-06
4.577616798e-05
-7.278177308e-05
8.054203502e-06
4.85616836e-05
-6.296803041e-05
2.101084563e-05
4.418801024e-05
-5.34372392e-05
2.656784206e-05
3.808612423e-05
-4.643537588e-05
2.691224084e-05
3.244838814e-05
-4.129014015e-05
2.561377866e-05
2.768175737e-05
-3.780764707e-05
2.351007535e-05
2.427651192e-05
-3.662086454e-05
2.049842913e-05
2.238873309e-05
-3.342792098e-05
1.682964056e-05
2.354761751e-05
-3.500799912e-05
1.380527147e-05
2.684088141e-05
-3.870230741e-05
1.341851569e-05
2.90873454e-05
-3.813311997e-05
1.424043491e-05
2.989155625e-05
-3.552781163e-05
1.410650251e-05
3.036778553e-05
-3.281949464e-05
1.242526541e-05
3.116596843e-05
-3.060382761e-05
1.03090884e-05
3.210769319e-05
-2.890455911e-05
8.946481882e-06
3.266768674e-05
-2.748979576e-05
8.716843442e-06
3.234851508e-05
-2.593216483e-05
9.385033857e-06
3.083877176e-05
-2.382609576e-05
1.046041042e-05
2.812346374e-05
-2.103159229e-05
1.131515516e-05
2.431273538e-05
-1.781727056e-05
1.16273676e-05
1.970875033e-05
-1.466348786e-05
1.13055997e-05
1.46593244e-05
-1.193457059e-05
1.063779042e-05
9.645813131e-06
-9.933037907e-06
9.856008131e-06
5.208321021e-06
-8.965423996e-06
9.01634195e-06
1.893606871e-06
-9.784662941e-06
8.347775605e-06
-3.861871737e-07
-1.184866893e-05
8.127792402e-06
-1.66935212e-06
-1.535306126e-05
8.524952836e-06
-1.438409965e-06
-1.983692117e-05
9.272782865e-06
-2.419400533e-05
1.041163818e-05
-2.613041599e-06
-6.170871036e-05
1.247029435e-05
-7.663948353e-06
-6.339735819e-05
1.498991544e-05
-1.669898611e-05
-6.606496785e-05
1.747305325e-05
-4.211565548e-06
-7.257016526e-05
-1.80992323e-06
3.128243334e-05
-7.895256378e-05
-3.479795914e-05
5.18671898e-05
-7.571753335e-05
-1.764920037e-05
5.639089681e-05
-7.093609734e-05
3.444119162e-06
5.084238297e-05
-6.526283413e-05
1.737386286e-05
4.236335243e-05
-6.063872959e-05
2.268214226e-05
3.457024873e-05
-5.698416945e-05
2.348689928e-05
2.797083565e-05
-5.362989153e-05
2.242142504e-05
2.267671224e-05
-5.185424843e-05
2.052726723e-05
2.053501583e-05
-4.770330012e-05
1.641683014e-05
2.291990474e-05
-4.83029404e-05
1.090980959e-05
2.801506495e-05
-5.354762822e-05
9.749921922e-06
3.160823445e-05
-5.304147632e-05
1.131494409e-05
3.266275868e-05
-4.875169641e-05
1.216910837e-05
3.251498505e-05
-4.339993141e-05
1.072794644e-05
3.246787996e-05
-3.859864857e-05
8.041658928e-06
3.277285592e-05
-3.515647812e-05
5.946684219e-06
3.296727845e-05
-3.302715884e-05
5.342697057e-06
3.245155706e-05
-3.151854724e-05
6.101879611e-06
3.079555805e-05
-2.986357742e-05
7.693278325e-06
2.786652539e-05
-2.756589041e-05
9.463151589e-06
2.378459082e-05
-2.450997996e-05
1.07744885e-05
1.885481517e-05
-2.098766092e-05
1.125381803e-05
1.354852633e-05
-1.754185147e-05
1.09134653e-05
8.503949338e-06
-1.498910644e-05
1.010056698e-05
4.196680982e-06
-1.378333067e-05
9.125120244e-06
1.10567003e-06
-1.518566013e-05
8.491974547e-06
-1.005140032e-06
-1.813998501e-05
8.40210984e-06
-2.297553857e-06
-2.30514397e-05
8.990787824e-06
-2.016561076e-06
-3.007068017e-05
9.95276909e-06
-3.748912043e-05
1.127856146e-05
-7.89080209e-06
-6.5345121e-05
6.093693734e-06
-1.393218267e-05
-6.569622602e-05
8.340022751e-06
-2.221881077e-05
-6.545816598e-05
7.679606104e-06
-8.234430453e-06
-7.053546674e-05
-1.60192635e-05
3.107487752e-05
-6.56944203e-05
-5.256749795e-05
5.43417127e-05
-6.617104109e-05
-3.28134732e-05
5.943471272e-05
-6.902203147e-05
-7.007282166e-06
5.370304049e-05
-6.983338926e-05
1.030199276e-05
4.397315784e-05
-6.968166093e-05
1.87725818e-05
3.433826203e-05
-6.876721017e-05
2.14177154e-05
2.540856469e-05
-6.597058086e-05
2.127017499e-05
1.853496527e-05
-6.485660234e-05
1.987574474e-05
1.722981883e-05
-6.043453431e-05
1.403617521e-05
2.260830986e-05
-5.95158874e-05
5.834246647e-06
3.102228458e-05
-6.59705095e-05
4.008699146e-06
3.750955619e-05
-6.62125112e-05
6.683542644e-06
3.987019441e-05
-6.088132053e-05
9.768762097e-06
3.912852961e-05
-5.334392493e-05
1.068541845e-05
3.742868016e-05
-4.61164877e-05
9.217431822e-06
3.607084824e-05
-4.084309229e-05
7.044186059e-06
3.502279133e-05
-3.788979228e-05
5.910440629e-06
3.361889453e-05
-3.642656872e-05
6.31168643e-06
3.125110045e-05
-3.533708788e-05
7.841094542e-06
2.770234305e-05
-3.381023083e-05
9.792911817e-06
2.310955404e-05
-3.13861752e-05
1.146882333e-05
1.786739236e-05
-2.803218918e-05
1.228655505e-05
1.254127821e-05
-2.42477908e-05
1.203194605e-05
7.759951834e-06
-2.128600806e-05
1.107814789e-05
3.741644768e-06
-1.968616848e-05
9.921090061e-06
1.122207798e-06
-2.192737839e-05
9.36112351e-06
-2.591400244e-07
-2.621219693e-05
9.453547428e-06
-9.962127199e-07
-3.253613452e-05
1.022176976e-05
-8.035142224e-07
-4.16139817e-05
1.135061681e-05
-5.120131114e-05
1.290869647e-05
-8.12273475e-06
-6.636474841e-05
-6.733190862e-08
-8.99841757e-06
-6.638841525e-05
1.567640511e-06
-1.443806122e-05
-6.343256617e-05
3.413821705e-06
-3.429538073e-06
-6.64604638e-05
-1.508372986e-05
2.977896272e-05
-5.007354153e-05
-4.882948238e-05
4.942372158e-05
-5.711788025e-05
-2.869808138e-05
5.323976724e-05
-6.754444387e-05
-5.293854028e-06
4.837585483e-05
-7.433529545e-05
9.365587931e-06
4.021731419e-05
-7.781935881e-05
1.629602087e-05
3.107470011e-05
-7.890728692e-05
1.928249221e-05
2.059947391e-05
-7.533956702e-05
1.984403371e-05
1.368134434e-05
-7.65163515e-05
1.857771228e-05
1.35468951e-05
-7.050692495e-05
1.020668109e-05
2.28440824e-05
-6.825312318e-05
-5.601235599e-07
3.565207674e-05
-7.534504648e-05
-3.433633293e-06
4.591630508e-05
-7.652959121e-05
5.260584696e-08
5.050000433e-05
-7.149751517e-05
6.032291856e-06
4.973651109e-05
-6.288267243e-05
1.030203349e-05
4.622367632e-05
-5.417224469e-05
1.156836265e-05
4.252412564e-05
-4.755666732e-05
1.041287882e-05
3.953399811e-05
-4.384187899e-05
8.941966611e-06
3.67348798e-05
-4.231608203e-05
8.688397581e-06
3.330425086e-05
-4.169482102e-05
9.788149352e-06
2.886111535e-05
-4.093120006e-05
1.156391698e-05
2.35250905e-05
-3.930819471e-05
1.325788292e-05
1.783612818e-05
-3.646341573e-05
1.412005415e-05
1.255678743e-05
-3.271118736e-05
1.374263019e-05
8.228207728e-06
-2.949809338e-05
1.254058607e-05
4.813284069e-06
-2.739383649e-05
1.112253967e-05
3.225897845e-06
-3.07923805e-05
1.045236276e-05
3.16587324e-06
-3.672287707e-05
1.057070213e-05
3.251336155e-06
-4.399962854e-05
1.1378046e-05
2.498401735e-06
-5.352650321e-05
1.266548286e-05
-6.326625875e-05
1.456337963e-05
-6.255417034e-06
-6.721251525e-05
-4.318072021e-06
6.68973678e-08
-6.898957025e-05
-3.721411436e-06
3.715293369e-08
-6.6249176e-05
2.846123925e-06
5.83572917e-06
-6.995801598e-05
-2.301302463e-06
2.778243827e-05
-5.320118491e-05
-1.881925581e-05
4.037748505e-05
-6.37840116e-05
-5.929140523e-06
4.209491886e-05
-7.499442961e-05
5.732308956e-06
3.93998876e-05
-8.310707032e-05
1.146657182e-05
3.448020764e-05
-8.714575029e-05
1.424586822e-05
2.72259569e-05
-8.886028129e-05
1.720707747e-05
1.583352803e-05
-8.244543868e-05
1.849817058e-05
1.034185644e-05
-8.919163366e-05
1.816684955e-05
1.027088595e-05
-7.808450166e-05
7.648454068e-06
2.321071992e-05
-7.512594563e-05
-6.067112008e-06
4.14968662e-05
-8.116239164e-05
-1.246888769e-05
5.548701956e-05
-8.294010181e-05
-7.579769205e-06
6.250807154e-05
-7.890461821e-05
3.858868228e-07
6.193257225e-05
-7.083566193e-05
8.528317647e-06
5.677299889e-05
-6.190226141e-05
1.288939414e-05
5.075493787e-05
-5.47880497e-05
1.324922134e-05
4.58495762e-05
-5.062275256e-05
1.168600057e-05
4.183798263e-05
-4.897813918e-05
1.06734223e-05
3.77029051e-05
-4.86746304e-05
1.111467791e-05
3.276340245e-05
-4.855595314e-05
1.256407287e-05
2.696574559e-05
-4.769775217e-05
1.418705969e-05
2.077280264e-05
-4.555027807e-05
1.527967745e-05
1.511813118e-05
-4.220705653e-05
1.515043774e-05
1.065931057e-05
-3.903955014e-05
1.400020121e-05
7.738320922e-06
-3.668623234e-05
1.221333847e-05
7.274159539e-06
-4.108371743e-05
1.075548195e-05
8.38563225e-06
-4.82600599e-05
1.042572028e-05
8.888557241e-06
-5.567985524e-05
1.117733098e-05
6.613721542e-06
-6.417445085e-05
1.292282326e-05
-7.250640711e-05
1.585390821e-05
-7.279082325e-06
-6.750062897e-05
-6.041378143e-06
-1.431009899e-07
-7.0160963e-05
-5.964850286e-06
4.319728268e-06
-7.010805641e-05
-6.042145705e-07
9.47076021e-06
-7.544623691e-05
3.369139156e-07
2.263387833e-05
-6.999932455e-05
3.634765077e-06
3.109273845e-05
-7.803782993e-05
5.794699553e-06
3.349501852e-05
-8.50928588e-05
7.695901545e-06
3.337170527e-05
-9.203379954e-05
9.049814106e-06
3.087894796e-05
-9.534846688e-05
1.069529168e-05
2.485836065e-05
-9.805124504e-05
1.521142768e-05
1.262716416e-05
-8.778695391e-05
1.757264377e-05
9.331197067e-06
-0.0001048495766
1.895388984e-05
7.680801904e-06
-8.454760974e-05
8.113505557e-06
2.297178292e-05
-7.949915483e-05
-1.091774872e-05
4.71692324e-05
-8.267755879e-05
-2.268223338e-05
6.520340619e-05
-8.391345391e-05
-1.706082378e-05
7.378952289e-05
-8.093229161e-05
-6.558506608e-06
7.335917827e-05
-7.471291061e-05
4.307478666e-06
6.642217007e-05
-6.697236411e-05
1.20069491e-05
5.819436717e-05
-6.039095817e-05
1.383051196e-05
5.182752229e-05
-5.629829094e-05
1.204216214e-05
4.727095662e-05
-5.466232083e-05
1.024052553e-05
4.321958089e-05
-5.462556382e-05
1.000210376e-05
3.865262236e-05
-5.50603089e-05
1.107113536e-05
3.314214031e-05
-5.493100186e-05
1.274358338e-05
2.679391276e-05
-5.35665141e-05
1.43643442e-05
2.031861981e-05
-5.100011001e-05
1.526825047e-05
1.464509515e-05
-4.835338537e-05
1.498728777e-05
1.151317609e-05
-4.629260538e-05
1.273825065e-05
1.17025977e-05
-5.084706019e-05
9.573913187e-06
1.347390238e-05
-5.816756484e-05
8.136220993e-06
1.403682541e-05
-6.516335514e-05
8.920618172e-06
1.04374059e-05
-7.223942906e-05
1.166445015e-05
-7.85252491e-05
1.645629674e-05
-9.354327905e-06
-6.771287094e-05
-5.305155002e-06
-3.100096309e-06
-7.046692165e-05
-5.948553388e-06
1.681824279e-06
-7.26418551e-05
-2.248401925e-06
6.563940956e-06
-7.859728396e-05
-1.731346244e-06
1.625966436e-05
-7.985456075e-05
1.592468974e-07
2.274370117e-05
-8.606815913e-05
1.546026548e-06
2.540290029e-05
-9.136693676e-05
3.614622839e-06
2.753286753e-05
-9.891172557e-05
4.747728639e-06
2.801418949e-05
-0.0001014731613
5.643204736e-06
2.270533596e-05
-0.0001057467371
1.300427081e-05
1.06112683e-05
-9.21402702e-05
1.644738192e-05
1.097872248e-05
-0.0001202098321
1.499288572e-05
7.327835588e-06
-9.079067021e-05
9.894092737e-06
2.284328579e-05
-7.963785194e-05
-1.537654782e-05
5.151663073e-05
-7.856214047e-05
-3.27885271e-05
7.272384134e-05
-7.806929661e-05
-2.705119782e-05
8.262546662e-05
-7.60560436e-05
-1.477783023e-05
8.206090948e-05
-7.194234155e-05
-2.206057638e-06
7.348131943e-05
-6.660372071e-05
8.210825623e-06
6.314637923e-05
-6.175128949e-05
1.169509007e-05
5.560564708e-05
-5.859808274e-05
9.840309053e-06
5.092111005e-05
-5.745833365e-05
7.480328899e-06
4.739392942e-05
-5.789415603e-05
6.795565955e-06
4.370281041e-05
-5.89210541e-05
7.551683545e-06
3.911194266e-05
-5.952966689e-05
9.18938479e-06
3.317071841e-05
-5.908872681e-05
1.146332223e-05
2.594657532e-05
-5.759057348e-05
1.381451913e-05
1.840747028e-05
-5.586684031e-05
1.505249582e-05
1.434690153e-05
-5.455216805e-05
1.232009726e-05
1.489441773e-05
-5.826066968e-05
6.866092464e-06
1.716942579e-05
-6.466215144e-05
4.21960728e-06
1.787905903e-05
-7.101077107e-05
5.137833551e-06
1.347881561e-05
-7.696876591e-05
9.129644579e-06
-8.129105291e-05
1.624468246e-05
-1.166410524e-05
-6.835324572e-05
-2.427810357e-06
-7.236588179e-06
-7.054284143e-05
-4.351893559e-06
-3.020628789e-06
-7.398596309e-05
-2.872141464e-06
1.929237613e-06
-7.954960133e-05
-3.997833227e-06
9.695022178e-06
-8.382254924e-05
-3.798076207e-06
1.445352727e-05
-8.927658326e-05
-1.550363082e-06
1.690592325e-05
-9.422748011e-05
4.078752359e-07
2.124982076e-05
-0.0001024509676
-8.048917934e-07
2.540549981e-05
-0.000103894369
-1.734639387e-06
1.88183629e-05
-0.0001091866571
1.002701514e-05
8.487711125e-06
-9.47669916e-05
1.295741342e-05
1.767646131e-05
-0.0001230985174
-6.299840594e-06
1.482241549e-05
-9.37944781e-05
5.858156501e-06
2.640887378e-05
-7.286212808e-05
-1.83617714e-05
5.445602451e-05
-6.660228698e-05
-4.000654825e-05
7.634255616e-05
-6.41769101e-05
-3.577854113e-05
8.649302935e-05
-6.369863168e-05
-2.25077151e-05
8.52755355e-05
-6.223506093e-05
-8.489765913e-06
7.600762482e-05
-5.970236548e-05
2.366469259e-06
6.458281954e-05
-5.746154326e-05
7.134892361e-06
5.649899736e-05
-5.624492434e-05
5.730450853e-06
5.192465958e-05
-5.632897748e-05
3.44475764e-06
4.896706083e-05
-5.765172424e-05
2.714955436e-06
4.618662811e-05
-5.945841679e-05
3.317610116e-06
4.264274889e-05
-6.090378955e-05
4.917850967e-06
3.739964505e-05
-6.149221601e-05
7.64647977e-06
2.96770585e-05
-6.122405407e-05
1.135598753e-05
2.021882032e-05
-6.062132778e-05
1.421267311e-05
1.509985593e-05
-6.025488825e-05
1.082166118e-05
1.618353918e-05
-6.253488771e-05
3.190542899e-06
1.921471489e-05
-6.742318611e-05
-2.701032071e-07
2.029979119e-05
-7.31170045e-05
1.021218041e-06
1.550202209e-05
-7.837960627e-05
6.208686506e-06
-8.096421321e-05
1.517526387e-05
-1.326113881e-05
-6.958975997e-05
2.131389002e-06
-1.129853659e-05
-7.068748847e-05
-1.818266374e-06
-8.059840771e-06
-7.430191426e-05
-2.923045658e-06
-3.384419319e-06
-7.861294318e-05
-5.612375e-06
2.917373329e-06
-8.421848802e-05
-5.906149048e-06
5.212976002e-06
-8.90865983e-05
-2.485883991e-06
7.570712276e-06
-9.384476828e-05
-2.740724599e-06
1.481555733e-05
-0.0001009643387
-8.731676704e-06
2.296372595e-05
-0.0001010543267
-1.098837978e-05
1.077588284e-05
-0.000102801031
5.802211567e-06
3.268318274e-06
-9.104295959e-05
3.783569911e-06
3.275913088e-05
-0.000107043933
-4.554477684e-05
3.688355037e-05
-8.347849683e-05
-1.443997483e-05
4.009103709e-05
-5.625255541e-05
-1.981653999e-05
5.840049063e-05
-4.513178033e-05
-3.977933766e-05
7.591117168e-05
-4.267870352e-05
-3.900834677e-05
8.311183249e-05
-4.438402192e-05
-2.651499526e-05
8.030059736e-05
-4.705860784e-05
-1.236515303e-05
7.116868737e-05
-4.822122554e-05
-2.349297614e-06
6.087917579e-05
-4.876721009e-05
1.595017216e-06
5.384713489e-05
-4.971570859e-05
5.026119839e-07
4.999910874e-05
-5.149725857e-05
-9.839198251e-07
4.775783703e-05
-5.404087846e-05
-1.369789353e-06
4.590352328e-05
-5.674164389e-05
-8.626476423e-07
4.33654455e-05
-5.912193813e-05
7.560739503e-07
3.873869735e-05
-6.09073143e-05
4.041735311e-06
3.055945377e-05
-6.188502483e-05
8.840143029e-06
1.95012333e-05
-6.238822386e-05
1.282507819e-05
1.386427366e-05
-6.29438511e-05
8.325913769e-06
1.588532977e-05
-6.375585579e-05
-8.000663147e-07
1.988143396e-05
-6.732097392e-05
-4.0982639e-06
2.138367848e-05
-7.235420429e-05
-2.264969022e-06
1.641555898e-05
-7.714902577e-05
3.737632319e-06
-7.816176578e-05
1.361321612e-05
-1.263754213e-05
-7.151375475e-05
7.678233977e-06
-1.384212267e-05
-7.084576576e-05
1.362531852e-06
-1.197351445e-05
-7.378344386e-05
-2.387395917e-06
-8.246797074e-06
-7.614961045e-05
-6.190361661e-06
-4.082005356e-06
-8.220770698e-05
-6.175886178e-06
-5.196996487e-06
-8.539697935e-05
-2.574931341e-06
-1.555365612e-06
-8.948394323e-05
-8.00273641e-06
1.070269034e-05
-9.291443643e-05
-2.030814395e-05
2.28370408e-05
-9.127102596e-05
-2.191781077e-05
4.083748315e-06
-8.223279034e-05
-1.814885357e-06
6.102251424e-07
-7.523920741e-05
-1.233013821e-05
5.138501283e-05
-7.023945415e-05
-8.757802918e-05
6.903751825e-05
-5.15222095e-05
-4.960815144e-05
6.877079683e-05
-2.961487321e-05
-2.637064272e-05
6.94884495e-05
-1.449350266e-05
-3.13554335e-05
7.123242026e-05
-1.076658435e-05
-3.36556538e-05
6.994680489e-05
-1.986317003e-05
-2.323498152e-05
6.501243658e-05
-3.122042076e-05
-1.090375183e-05
5.785278088e-05
-3.699582376e-05
-4.065826232e-06
5.152083838e-05
-3.952235002e-05
-2.913091772e-06
4.757291446e-05
-4.17291183e-05
-4.038886363e-06
4.538294475e-05
-4.458314679e-05
-4.72437105e-06
4.412607783e-05
-4.799988648e-05
-4.784340025e-06
4.322826631e-05
-5.151353228e-05
-4.330486699e-06
4.163168949e-05
-5.491858271e-05
-2.606927211e-06
3.749541304e-05
-5.796466298e-05
1.193520735e-06
2.880846247e-05
-6.014150606e-05
6.943372432e-06
1.682376438e-05
-6.167709072e-05
1.127354463e-05
1.160124224e-05
-6.30758755e-05
5.354557247e-06
1.483749051e-05
-6.280007377e-05
-4.191988607e-06
1.964147264e-05
-6.526175212e-05
-6.863129496e-06
2.121440355e-05
-6.971842263e-05
-4.208615097e-06
1.608087648e-05
-7.427238312e-05
2.256999951e-06
-7.391400636e-05
1.183324998e-05
-8.62744349e-06
-7.391958451e-05
1.29319798e-05
-1.388462481e-05
-7.085948406e-05
5.270556393e-06
-1.38821021e-05
-7.270446024e-05
-1.081843627e-06
-1.18291702e-05
-7.254911566e-05
-5.653757866e-06
-1.022967656e-05
-7.836197981e-05
-5.445547275e-06
-1.356028651e-05
-7.873323901e-05
-3.333445161e-06
-7.803750813e-06
-7.967607738e-05
-1.556467905e-05
1.198408538e-05
-7.944031783e-05
-3.32621394e-05
2.880622084e-05
-7.44516038e-05
-3.364168541e-05
2.101499928e-05
-5.889119894e-05
-1.555030547e-05
1.964328818e-05
-4.863380254e-05
-2.523354627e-05
6.291087777e-05
-2.033877115e-05
-9.316712771e-05
8.836925098e-05
-8.558384433e-06
-6.842142725e-05
9.515140772e-05
-6.012460441e-06
-3.038411123e-05
8.635018874e-05
3.676509262e-06
-9.368303783e-06
7.225281768e-05
5.936112544e-06
-2.604968219e-06
5.97633929e-05
-7.051791644e-06
-3.218146722e-07
5.056512186e-05
-2.107021188e-05
-9.519676359e-07
4.541881251e-05
-2.818823286e-05
-3.661421901e-06
4.296194927e-05
-3.097749225e-05
-6.088200991e-06
4.133332808e-05
-3.317824783e-05
-6.922482766e-06
3.995533038e-05
-3.630694173e-05
-6.898439215e-06
3.926159412e-05
-4.02577077e-05
-7.048653934e-06
3.911120132e-05
-4.452959659e-05
-6.833721272e-06
3.813288961e-05
-4.911460251e-05
-4.825805898e-06
3.411028443e-05
-5.355011902e-05
-3.920293219e-07
2.499984297e-05
-5.698783449e-05
5.956728972e-06
1.317462476e-05
-5.963117825e-05
9.779309284e-06
9.274725476e-06
-6.173919044e-05
2.563250347e-06
1.352153582e-05
-6.061494019e-05
-6.431875887e-06
1.845245238e-05
-6.213981201e-05
-8.052754551e-06
1.95254138e-05
-6.631931612e-05
-4.471942951e-06
1.42041904e-05
-7.100118857e-05
2.050173462e-06
-6.963792025e-05
9.928271026e-06
-1.5231247e-06
-7.607159975e-05
1.586122729e-05
-1.130008806e-05
-7.04825659e-05
9.399686812e-06
-1.332484112e-05
-7.125013921e-05
5.70077035e-07
-1.286772748e-05
-6.834974353e-05
-4.656834934e-06
-1.231168932e-05
-7.361979781e-05
-5.298555731e-06
-1.594254046e-05
-7.037789756e-05
-4.724814223e-06
-7.63065579e-06
-6.611652716e-05
-2.187171416e-05
1.802944123e-05
-6.193647913e-05
-4.31641258e-05
4.2317551e-05
-5.488091649e-05
-4.385891132e-05
5.972550746e-05
-4.399661148e-05
-3.230260386e-05
7.146162444e-05
-3.441506951e-05
-2.595485491e-05
8.410175133e-05
-6.766145706e-06
-2.621262646e-05
8.204427974e-05
2.325692658e-07
-6.733320299e-06
6.866077286e-05
-4.607263744e-06
1.197848208e-05
5.823682371e-05
-2.351919622e-06
1.645252287e-05
5.474956415e-05
-3.154157873e-06
1.257759642e-05
5.21393895e-05
-9.664869104e-06
5.223210355e-06
4.794685796e-05
-1.530968572e-05
-1.568132846e-06
4.3901441e-05
-1.868377166e-05
-5.459249833e-06
4.050919232e-05
-2.082295248e-05
-6.762533036e-06
3.706733117e-05
-2.331863823e-05
-6.417998173e-06
3.432100736e-05
-2.709585953e-05
-6.464993557e-06
3.339041233e-05
-3.177755694e-05
-7.549760648e-06
3.360358934e-05
-3.695028397e-05
-7.792654121e-06
3.282679125e-05
-4.304271163e-05
-5.295211596e-06
2.863173747e-05
-4.911031796e-05
-2.448157791e-07
1.96035061e-05
-5.392848196e-05
5.968864773e-06
9.351008362e-06
-5.777479139e-05
8.396145971e-06
7.305324108e-06
-6.032731676e-05
6.338797348e-07
1.180066909e-05
-5.822443898e-05
-6.885744498e-06
1.600241024e-05
-5.917337146e-05
-7.168047416e-06
1.597206362e-05
-6.354710278e-05
-2.741709115e-06
1.058388731e-05
-6.874700468e-05
3.134174092e-06
-6.69020654e-05
7.848238349e-06
6.856780075e-06
-7.617914473e-05
1.366849752e-05
-6.95759215e-06
-6.941147156e-05
1.27429116e-05
-1.057243951e-05
-6.90794488e-05
1.443789123e-06
-9.961015929e-06
-6.441960609e-05
-4.54192323e-06
-7.0703773e-06
-6.917347765e-05
-7.337303156e-06
-8.552269501e-06
-6.305687254e-05
-5.839460976e-06
9.948241196e-07
-5.355920514e-05
-2.210471445e-05
2.593203426e-05
-4.228153563e-05
-4.459237589e-05
5.052637456e-05
-3.326260953e-05
-4.621278917e-05
6.887145019e-05
-2.59138883e-05
-3.642790685e-05
7.975380923e-05
-2.092501056e-05
-2.437255146e-05
9.295708962e-05
-1.327779556e-05
-6.691682611e-06
9.584710453e-05
-1.042995644e-05
7.772452362e-06
8.435002348e-05
-8.76232664e-06
1.565201342e-05
6.968369626e-05
-4.070155523e-06
1.638433185e-05
5.780400395e-05
-1.081760683e-06
9.807058962e-06
5.00806323e-05
-2.888326555e-06
9.465790259e-07
4.520008923e-05
-6.517222929e-06
-3.912188481e-06
4.12662231e-05
-9.58295826e-06
-5.167234847e-06
3.657861817e-05
-1.194527196e-05
-4.190361627e-06
3.083937418e-05
-1.494283955e-05
-2.636824481e-06
2.688892116e-05
-1.970308732e-05
-3.442558911e-06
2.589451951e-05
-2.480674e-05
-5.976611844e-06
2.620279853e-05
-3.082186052e-05
-6.43684927e-06
2.535047938e-05
-3.900500038e-05
-3.185486234e-06
2.107924736e-05
-4.683494693e-05
1.995824266e-06
1.324789615e-05
-5.280034929e-05
6.703241047e-06
5.797262e-06
-5.74071635e-05
7.083081706e-06
5.373647575e-06
-6.002088475e-05
1.172920383e-07
9.196943731e-06
-5.693149202e-05
-5.11610064e-06
1.206059958e-05
-5.822215981e-05
-3.814695643e-06
1.070455314e-05
-6.31546058e-05
9.637485269e-07
5.629043518e-06
-6.866100217e-05
4.989735509e-06
-6.676480255e-05
5.492030071e-06
1.317583129e-05
-7.25126956e-05
6.799987854e-06
-3.25147257e-06
-6.69741013e-05
1.398956003e-05
-7.75309043e-06
-6.493802905e-05
3.598247968e-07
-4.238766095e-06
-6.121559222e-05
-6.718710719e-06
4.830839492e-06
-6.555071103e-05
-1.269273674e-05
1.042822903e-05
-5.948464091e-05
-9.169967227e-06
2.036248187e-05
-4.717449631e-05
-1.631928736e-05
4.156948512e-05
-2.940990874e-05
-3.407894533e-05
6.234754088e-05
-1.582648081e-05
-3.821445703e-05
7.799867987e-05
-9.307493755e-06
-3.225779992e-05
8.744983621e-05
-8.680485638e-06
-2.169595631e-05
9.168987068e-05
-8.41941324e-06
-9.098704487e-06
8.85664608e-05
-9.046100968e-06
1.739208737e-06
7.928276765e-05
-8.733606463e-06
9.254504001e-06
6.987578945e-05
-5.285236992e-06
1.06213336e-05
6.190591349e-05
-1.874078244e-06
8.761632582e-06
5.537314271e-05
-3.156606756e-07
3.959658521e-06
4.884892938e-05
-4.51687003e-07
4.582833203e-07
4.098941244e-05
-1.6984886e-06
-2.533963882e-08
3.077560655e-05
-3.790106343e-06
2.058316656e-06
2.193568344e-05
-1.07952547e-05
4.692056772e-06
1.782312307e-05
-1.763415213e-05
2.043385139e-06
1.686503126e-05
-2.180859285e-05
-2.040240148e-06
1.682484614e-05
-2.885112701e-05
-1.930673582e-06
1.6035946e-05
-4.010843859e-05
1.892277863e-06
1.248623369e-05
-4.879893929e-05
5.513709448e-06
7.216635211e-06
-5.475752108e-05
7.226838158e-06
3.027070747e-06
-5.896791248e-05
5.750439629e-06
3.224430371e-06
-6.12872883e-05
1.069218007e-06
5.674869582e-06
-5.798641433e-05
-1.395319905e-06
7.262252819e-06
-6.135485354e-05
1.545534454e-06
4.942885452e-06
-6.653598894e-05
5.701004553e-06
7.722266597e-07
-7.101785853e-05
6.527797558e-06
-6.906323657e-05
3.070955685e-06
1.613945974e-05
-6.455589156e-05
-8.635393654e-07
-2.658806074e-06
-6.166826267e-05
1.349204666e-05
-7.877088404e-06
-5.82462383e-05
-1.473880769e-06
-1.4453268e-07
-5.719689947e-05
-1.175162964e-05
1.505461151e-05
-6.030344626e-05
-2.04467988e-05
3.015030983e-05
-5.630490837e-05
-1.827580638e-05
4.406109725e-05
-4.634131647e-05
-1.474432681e-05
6.032101707e-05
-3.043325306e-05
-1.523691547e-05
7.542926321e-05
-1.685618436e-05
-1.407887444e-05
8.57236424e-05
-1.027070553e-05
-9.331501629e-06
9.006149272e-05
-9.965432316e-06
-3.053241485e-06
9.064623366e-05
-1.202025429e-05
3.015750517e-06
8.828822069e-05
-1.366092828e-05
6.972449354e-06
8.393385458e-05
-1.323014461e-05
8.850441818e-06
7.913240472e-05
-1.067142782e-05
1.018709387e-05
7.317892644e-05
-7.152939118e-06
1.123184503e-05
6.508575127e-05
-3.70593146e-06
1.148301007e-05
5.435454858e-05
-1.203542918e-06
1.148266955e-05
4.044811858e-05
-7.352309837e-08
1.22811274e-05
2.437215379e-05
-2.221504036e-06
1.450705115e-05
1.320656444e-05
-1.529694977e-05
1.566700446e-05
9.116836301e-06
-2.297316891e-05
9.428510456e-06
7.416495217e-06
-2.480244134e-05
4.694024302e-06
6.821146233e-06
-3.397624556e-05
5.720378746e-06
6.875372631e-06
-4.788320267e-05
7.720526044e-06
5.552591121e-06
-5.517241729e-05
7.696314173e-06
3.398418582e-06
-5.924457187e-05
6.641339334e-06
1.704652437e-06
-6.188030165e-05
4.606329096e-06
1.511952607e-06
-6.375719456e-05
2.662828502e-06
2.377924553e-06
-6.159159369e-05
2.739464495e-06
3.426702425e-06
-6.903707806e-05
6.633737674e-06
9.601448781e-07
-7.321994445e-05
9.150830153e-06
-2.181116202e-06
-7.503431416e-05
7.158052361e-06
-7.280250133e-05
1.558492471e-06
1.503130306e-05
-5.473408782e-05
-3.533416447e-06
-5.660056097e-06
-5.374465289e-05
1.276736914e-05
-1.129959456e-05
-4.999933271e-05
-2.607742e-06
-2.601942601e-07
-4.985022529e-05
-1.838647063e-05
1.931979047e-05
-5.08160133e-05
-2.906781818e-05
3.987452709e-05
-4.746821503e-05
-2.939181338e-05
5.678607208e-05
-4.0874065e-05
-2.237917895e-05
7.198047784e-05
-3.153560739e-05
-1.409241186e-05
8.403522388e-05
-2.285192764e-05
-6.059345406e-06
9.118192836e-05
-1.705351629e-05
-3.642443301e-07
9.293443603e-05
-1.418668225e-05
2.468375902e-06
9.114794422e-05
-1.30178394e-05
2.78368633e-06
8.736179947e-05
-1.229507447e-05
2.419870102e-06
8.276868362e-05
-1.146213607e-05
2.824654662e-06
7.760127936e-05
-1.041189839e-05
4.907398364e-06
7.07283896e-05
-9.230468207e-06
8.949969254e-06
6.130965707e-05
-8.167078374e-06
1.387947358e-05
4.959047348e-05
-7.965923921e-06
1.848119741e-05
3.700617171e-05
-9.409446029e-06
2.191987633e-05
2.435240908e-05
-1.410203372e-05
2.453399865e-05
1.165118817e-05
-2.594675301e-05
2.335077593e-05
2.85232716e-06
-3.122566318e-05
1.705117063e-05
-6.83444579e-07
-3.427214153e-05
1.300536416e-05
-1.06978388e-06
-4.514195461e-05
1.155202181e-05
1.13330408e-06
-5.86063447e-05
8.520102393e-06
2.672669045e-06
-6.328900448e-05
6.57733164e-06
2.600675728e-06
-6.465603103e-05
5.483621136e-06
2.113799981e-06
-6.549525458e-05
4.102055354e-06
1.115998363e-06
-6.69182638e-05
4.159149205e-06
8.250735931e-07
-6.625109303e-05
4.950747106e-06
2.343310821e-06
-7.860274643e-05
8.04779894e-06
5.038518392e-07
-8.150271371e-05
1.012260963e-05
-2.474939876e-06
-7.992867761e-05
7.873542245e-06
-7.742712824e-05
2.150085977e-06
1.15618029e-05
-4.676264203e-05
-8.011629085e-07
-9.326697459e-06
-4.480083997e-05
1.194430155e-05
-1.415140618e-05
-4.146206922e-05
-3.712944278e-06
-7.794591494e-07
-3.897241913e-05
-2.425016458e-05
2.15235944e-05
-3.61546705e-05
-3.696480117e-05
4.534499434e-05
-3.145686136e-05
-3.983312266e-05
6.436669697e-05
-2.706212947e-05
-3.283402137e-05
7.807463936e-05
-2.142254205e-05
-2.382139335e-05
8.645451773e-05
-1.565763609e-05
-1.557454716e-05
8.944905492e-05
-1.053780925e-05
-9.510616534e-06
8.823468299e-05
-6.818576582e-06
-6.154110121e-06
8.476405803e-05
-4.72894706e-06
-4.818656595e-06
8.074264185e-05
-4.132083549e-06
-4.141978648e-06
7.67525726e-05
-4.633587015e-06
-2.838895037e-06
7.216473684e-05
-5.778450976e-06
-4.602948646e-08
6.504628765e-05
-7.087590051e-06
4.975168479e-06
5.435569835e-05
-8.808838835e-06
1.133197784e-05
4.027181526e-05
-1.237106147e-05
1.848868484e-05
2.656715621e-05
-2.018166751e-05
2.447657888e-05
1.499652845e-05
-2.909121937e-05
2.655954885e-05
2.784364749e-06
-3.650238355e-05
2.276758505e-05
-5.701330947e-06
-4.080025112e-05
1.80601484e-05
-8.034344608e-06
-4.644635622e-05
1.450717684e-05
-5.832506377e-06
-5.603593979e-05
8.69217713e-06