/*--------------------------------*- C++ -*----------------------------------*\
  =========                 |
  \\      /  F ield         | OpenFOAM: The Open Source CFD Toolbox
   \\    /   O peration     | Website:  https://openfoam.org
    \\  /    A nd           | Version:  8
     \\/     M anipulation  |
\*---------------------------------------------------------------------------*/
FoamFile
{
    version     2.0;
    format      ascii;
    class       volScalarField;
    location    "2";
    object      T;
}
// * * * * * * * * * * * * * * * * * * * * * * * * * * * * * * * * * * * * * //

dimensions      [0 0 0 1 0 0 0];

internalField   nonuniform List<scalar> 
67193
(
300.0027031
300.0027235
300.002745
300.0027579
300.0027292
300.0027683
300.0027345
300.002679
300.002608
300.0025365
300.0025138
300.0025808
300.0026569
300.0026783
300.0026582
300.0026112
300.00256
300.0025231
300.0025026
300.0024894
300.0024754
300.0024587
300.0024418
300.0024266
300.0024079
300.0023749
300.0023242
300.0022691
300.0022325
300.0022238
300.0022239
300.0022099
300.0021703
300.0021138
300.0027582
300.0028011
300.0027909
300.0027604
300.0026006
300.0027077
300.0027556
300.0027584
300.0027212
300.0026479
300.0025958
300.0026107
300.0026646
300.0026888
300.0026697
300.0026304
300.0026051
300.0026081
300.0026234
300.0026314
300.0026245
300.0026031
300.0025722
300.002539
300.0025072
300.0024712
300.0024252
300.0023817
300.002363
300.0023692
300.0023748
300.002359
300.0023132
300.0022414
300.0027474
300.002795
300.0027139
300.0026102
300.0025221
300.0025687
300.0026481
300.0027204
300.0027434
300.0027058
300.0026456
300.0026074
300.0026197
300.0026473
300.0026265
300.0025895
300.0025721
300.0025928
300.0026309
300.0026566
300.0026595
300.0026415
300.0026079
300.0025655
300.0025222
300.002481
300.0024411
300.0024132
300.0024124
300.0024276
300.0024295
300.0024014
300.0023475
300.002291
300.0027395
300.0027662
300.0026427
300.0025443
300.002601
300.0025464
300.0025849
300.002672
300.0027277
300.0027178
300.002666
300.0026083
300.0026021
300.0026494
300.0026212
300.0025849
300.0025544
300.0025517
300.002579
300.0026095
300.0026198
300.0026059
300.0025724
300.002526
300.0024761
300.0024326
300.0024033
300.0023973
300.0024163
300.0024373
300.0024337
300.0023988
300.0023477
300.0023156
300.0027305
300.0027648
300.0026605
300.0026119
300.0027022
300.0026103
300.0026269
300.0026891
300.0027299
300.0027182
300.0026672
300.002614
300.0026076
300.0026664
300.0026158
300.0025816
300.0025466
300.002515
300.0025044
300.002516
300.0025262
300.0025166
300.0024853
300.0024389
300.0023896
300.0023542
300.0023478
300.0023713
300.0024073
300.002434
300.0024317
300.002401
300.0023583
300.0023396
300.0027171
300.0027709
300.0027093
300.0026961
300.0026068
300.0026459
300.0026968
300.0027355
300.0027449
300.002723
300.002668
300.0026284
300.0026105
300.0026546
300.0025836
300.0025377
300.0025076
300.0024745
300.0024397
300.0024234
300.0024238
300.0024177
300.0023925
300.0023523
300.0023115
300.002291
300.0023107
300.0023605
300.0024088
300.0024491
300.0024565
300.0024304
300.0023861
300.0023603
300.0026839
300.0027259
300.0026749
300.0026707
300.0026771
300.0027237
300.0027382
300.0027432
300.0027369
300.0027246
300.0026787
300.0026244
300.0025943
300.0026089
300.0025481
300.0024779
300.0024328
300.0024063
300.0023792
300.0023574
300.0023539
300.0023513
300.0023343
300.0023058
300.0022785
300.0022698
300.0022991
300.0023587
300.0024221
300.0024884
300.0025071
300.0024797
300.0024226
300.0023744
300.0026352
300.0026662
300.0026248
300.0026277
300.0026796
300.0027179
300.0027247
300.0027175
300.0027135
300.0027174
300.0027045
300.0025202
300.002567
300.0025644
300.0025469
300.0024465
300.0023763
300.0023334
300.0023208
300.0023139
300.002319
300.0023214
300.0023116
300.0022959
300.0022839
300.0022827
300.0023049
300.0023558
300.0024375
300.0025354
300.0025611
300.0025295
300.0024587
300.0023846
300.0025737
300.0025992
300.0025759
300.0026003
300.0026805
300.0027067
300.0026916
300.0026731
300.0026867
300.0026966
300.0027399
300.0022126
300.0025385
300.0025734
300.0026027
300.0024725
300.002376
300.0023104
300.0022902
300.0022929
300.0023055
300.0023106
300.0023062
300.0023032
300.0023066
300.0023125
300.0023239
300.0023565
300.0024539
300.0025775
300.0026027
300.0025667
300.0024866
300.0023927
300.0025058
300.0025364
300.0025392
300.0025868
300.0026711
300.0026821
300.0026409
300.0026363
300.0026797
300.0026706
300.0027618
300.0018165
300.0024546
300.0026327
300.0027016
300.0025591
300.0024386
300.0023494
300.0023045
300.0022995
300.0023076
300.0023092
300.0023093
300.0023189
300.0023363
300.0023483
300.0023506
300.0023655
300.0024755
300.0026112
300.0026283
300.0025866
300.0025019
300.0024001
300.002442
300.0024863
300.0025151
300.0025786
300.0026486
300.0026388
300.002589
300.0026364
300.0026964
300.0026482
300.0027324
300.0017258
300.0022396
300.0026291
300.0027675
300.0026802
300.0025375
300.0024223
300.0023535
300.0023298
300.0023219
300.0023146
300.0023202
300.002343
300.0023709
300.0023849
300.0023791
300.0023815
300.0025014
300.002635
300.0026411
300.0025909
300.0025042
300.002409
300.0023861
300.0024492
300.0024938
300.0025646
300.002615
300.0025894
300.0025582
300.0026911
300.0027329
300.0026749
300.0027602
300.0021842
300.0021734
300.0024782
300.0025997
300.0025966
300.0025691
300.0024949
300.0024181
300.0023704
300.0023371
300.0023218
300.0023378
300.0023738
300.0024074
300.0024185
300.0024059
300.0024028
300.0025268
300.0026456
300.002639
300.0025786
300.0024959
300.0024255
300.002345
300.002415
300.0024671
300.0025438
300.0025885
300.0025595
300.0025628
300.0027746
300.0027808
300.0027757
300.0028269
300.0027647
300.0027372
300.0027259
300.0026426
300.0025909
300.0025606
300.0025022
300.0024336
300.0023773
300.002334
300.0023249
300.0023612
300.0024094
300.0024415
300.0024461
300.0024308
300.0024306
300.0025454
300.0026364
300.0026159
300.0025459
300.0024833
300.0024599
300.0023437
300.0023846
300.0024406
300.0025255
300.0025931
300.0025658
300.002589
300.0028399
300.0028254
300.0027637
300.0027694
300.0026849
300.0026882
300.0027126
300.0027137
300.0026985
300.002641
300.002547
300.0024549
300.0023806
300.0023247
300.0023319
300.0023941
300.0024456
300.002467
300.0024655
300.0024586
300.0024676
300.0025528
300.0026019
300.0025643
300.0024931
300.0024795
300.0025209
300.0023755
300.0023763
300.0024279
300.0025236
300.0026339
300.0026102
300.0026234
300.0028212
300.0028231
300.0027665
300.0027229
300.0026975
300.002689
300.0026873
300.0026889
300.0026646
300.0026315
300.0025672
300.0024841
300.0023935
300.0023154
300.0023553
300.0024339
300.0024676
300.0024752
300.0024825
300.0024972
300.0025123
300.0025514
300.002545
300.0024882
300.0024402
300.0025017
300.0025992
300.002416
300.0023953
300.0024454
300.0025524
300.0026866
300.0026706
300.0026572
300.0026388
300.0025924
300.0025491
300.00254
300.0025627
300.0026116
300.002658
300.002671
300.0026384
300.0025803
300.0025034
300.0024007
300.0022834
300.0022605
300.0023711
300.0024351
300.0024479
300.0024775
300.002512
300.0025444
300.0025545
300.0025525
300.0024936
300.0024271
300.0024182
300.0025461
300.0026623
300.0024559
300.0024306
300.0024995
300.0026106
300.0027398
300.0027017
300.0026707
300.0026015
300.0025148
300.0024616
300.0024702
300.0025219
300.0025904
300.0026482
300.0026716
300.002639
300.0025514
300.0024207
300.0022758
300.0021682
300.0022207
300.0023083
300.002368
300.0024345
300.0025133
300.0025515
300.0025793
300.002585
300.0025651
300.0024866
300.0024194
300.0024307
300.0025749
300.0026946
300.0024855
300.0024779
300.002586
300.0026756
300.0027947
300.0027397
300.002695
300.0026347
300.0025696
300.0025241
300.0025192
300.0025526
300.0026036
300.0026505
300.0026765
300.0026597
300.0025834
300.0024424
300.0022834
300.0022407
300.002333
300.0023886
300.002437
300.0025091
300.0025674
300.0025758
300.0025913
300.0026004
300.0025781
300.0025106
300.0024509
300.002447
300.0025629
300.0027015
300.0025124
300.00253
300.0026535
300.0027241
300.0028471
300.0028011
300.0027301
300.0026536
300.0025878
300.0025464
300.0025383
300.0025628
300.0026056
300.002648
300.002674
300.0026619
300.0025897
300.0024514
300.0023174
300.0023475
300.0024277
300.0024663
300.0025095
300.002566
300.0026103
300.0025882
300.0025881
300.002599
300.0025748
300.0025345
300.0025032
300.002461
300.0025269
300.0026707
300.0025339
300.002574
300.0026651
300.0027477
300.0028721
300.0028378
300.0027651
300.0026891
300.0026275
300.0025852
300.0025636
300.0025636
300.0025812
300.0026051
300.0026189
300.0026031
300.0025276
300.0023962
300.0022944
300.0024095
300.0024679
300.0025051
300.0025533
300.0026074
300.0026498
300.0026065
300.0025859
300.0025868
300.002555
300.0025696
300.0025895
300.0024991
300.0024966
300.0026101
300.0026407
300.0026207
300.0026197
300.0026202
300.0027035
300.002703
300.0026555
300.0025999
300.0025546
300.0025253
300.0025129
300.0025178
300.0025385
300.0025652
300.0025809
300.0025625
300.0024712
300.0023483
300.0022259
300.0023715
300.0024941
300.0025489
300.0025982
300.0026492
300.0026896
300.0026347
300.0025992
300.0025788
300.0025344
300.002636
300.0026976
300.002583
300.0025084
300.0025555
300.00259
300.0025903
300.0025879
300.0025645
300.0025757
300.0025686
300.0025381
300.0025045
300.002478
300.0024613
300.0024573
300.0024683
300.0024935
300.0025224
300.0025339
300.0024989
300.002386
300.0022722
300.002055
300.0019408
300.0024809
300.0026111
300.0026511
300.0026932
300.0027365
300.0026742
300.0026274
300.0025828
300.002532
300.0027246
300.0028128
300.0026901
300.0025835
300.0025423
300.0025851
300.0025832
300.0025634
300.0025309
300.0024959
300.0024684
300.0024459
300.0024299
300.0024187
300.002414
300.002418
300.0024326
300.0024551
300.0024733
300.0024673
300.0024338
300.002326
300.0021155
300.0017005
300.0005352
300.0020161
300.0026249
300.0027141
300.002741
300.0027865
300.0027214
300.002663
300.0025895
300.0025496
300.0028243
300.002931
300.0028095
300.0026906
300.0025536
300.0025792
300.0025703
300.0025384
300.0024997
300.0024677
300.0024403
300.0024303
300.0024307
300.0024278
300.0024285
300.0024355
300.0024487
300.0024629
300.0024695
300.0024556
300.002435
300.0021499
300.0014961
300.0010096
299.9986762
299.9996046
300.0017895
300.0026458
300.0028017
300.0028338
300.0027709
300.0026985
300.0026031
300.0025923
300.0029104
300.0030437
300.0029409
300.0028032
300.0025263
300.0025635
300.0025641
300.0025463
300.0025171
300.0024899
300.0024545
300.0025117
300.0025529
300.002525
300.0024923
300.0024801
300.0024889
300.0025051
300.0025169
300.0025116
300.0024743
300.0024022
300.0022955
300.0022062
300.0019875
300.0013602
300.0023461
300.0024948
300.0025383
300.0025865
300.0026405
300.0026397
300.0026781
300.002737
300.002755
300.0027814
300.0027793
300.0026965
300.002607
300.0025856
300.0025436
300.00253
300.002513
300.0024881
300.0024751
300.0024717
300.002502
300.0024996
300.0025025
300.0025069
300.0025205
300.0025397
300.0025541
300.0025511
300.0025125
300.0024492
300.0023735
300.0022711
300.0022536
300.002201
300.0022335
300.0024135
300.0024697
300.0025214
300.0025488
300.0025646
300.002593
300.0026519
300.0027037
300.0027057
300.0027194
300.0026705
300.0025823
300.0025491
300.0025999
300.002518
300.0025003
300.0024812
300.0024643
300.0024618
300.0024667
300.0024773
300.0024884
300.0025078
300.0025286
300.0025484
300.0025628
300.002563
300.002532
300.0024686
300.0023909
300.0023141
300.0022633
300.0022776
300.0023621
300.0024844
300.0024567
300.0024643
300.0024817
300.0025099
300.002542
300.0026235
300.0026743
300.0027182
300.0027335
300.0027479
300.0026501
300.0026114
300.0026022
300.0026073
300.0024915
300.0024676
300.00245
300.0024429
300.0024496
300.0024636
300.0024803
300.0025
300.0025223
300.0025419
300.0025547
300.0025535
300.0025225
300.0024697
300.0024272
300.0023788
300.0023203
300.002276
300.0022889
300.0023672
300.0024487
300.0024651
300.00248
300.0024935
300.0025095
300.0025352
300.0025886
300.0026311
300.0026687
300.0026809
300.002705
300.0026961
300.0026763
300.0026381
300.0025826
300.0024425
300.0024275
300.0024286
300.0024418
300.0024609
300.0024822
300.0025033
300.0025214
300.0025324
300.0025306
300.0024988
300.0024323
300.0024375
300.0024555
300.0024271
300.0023614
300.0022928
300.0022864
300.0023697
300.0024384
300.0024681
300.0024882
300.0025021
300.0025104
300.0025209
300.0025497
300.0025755
300.0026018
300.002592
300.0026141
300.0026573
300.0026833
300.0026505
300.0025791
300.0024386
300.0024231
300.002426
300.0024397
300.0024574
300.0024751
300.0024895
300.0024976
300.0024944
300.0024676
300.0023882
300.0023472
300.0025195
300.0025095
300.0025136
300.0025113
300.0025355
300.002524
300.0025036
300.0025315
300.0025924
300.0026143
300.0025669
300.0024263
300.0024297
300.0024362
300.0024413
300.0024409
300.00243
300.0026404
300.00264
300.0026354
300.0026117
300.0025699
300.0025686
300.0025456
300.0025159
300.0024743
300.0024378
300.0024435
300.0025112
300.0025813
300.002608
300.0025919
300.0025464
300.0024935
300.0024507
300.0024218
300.0024023
300.002389
300.0023824
300.0023826
300.0023842
300.0023763
300.0023486
300.0023022
300.0022519
300.0022166
300.0022038
300.0021993
300.0021834
300.0021477
300.0021014
300.0027301
300.0027442
300.0027288
300.0026902
300.0027013
300.0026611
300.0026281
300.0026139
300.0025813
300.0025322
300.0025153
300.0025534
300.0026128
300.0026483
300.0026416
300.0026066
300.0025784
300.0025716
300.0025728
300.0025684
300.0025557
300.0025387
300.0025209
300.0025028
300.0024805
300.0024479
300.0024061
300.0023697
300.0023536
300.0023549
300.0023542
300.0023352
300.0022945
300.0022326
300.0027651
300.0027956
300.0027637
300.0027371
300.0028775
300.0027637
300.0026856
300.0026636
300.0026455
300.002605
300.0025701
300.0025663
300.0025955
300.0026258
300.0026182
300.0025874
300.00258
300.002606
300.002636
300.0026466
300.0026351
300.0026093
300.0025765
300.0025403
300.0025033
300.002466
300.0024318
300.0024122
300.0024137
300.0024225
300.0024157
300.0023829
300.0023337
300.0022845
300.0027827
300.0028227
300.0027853
300.002758
300.002992
300.0028104
300.0027269
300.0026886
300.0026745
300.0026453
300.0026113
300.0025873
300.0025957
300.0026177
300.0026016
300.0025649
300.0025553
300.0025862
300.0026282
300.0026507
300.0026426
300.0026103
300.0025639
300.0025115
300.0024619
300.002423
300.0024017
300.0024039
300.0024233
300.0024361
300.0024204
300.0023783
300.0023311
300.0023028
300.0027824
300.0028329
300.0027925
300.0027565
300.0030143
300.0028189
300.0027334
300.0026975
300.0026849
300.0026628
300.0026381
300.0026186
300.0026321
300.0026521
300.0026266
300.0025701
300.002533
300.002533
300.0025593
300.0025842
300.0025841
300.002553
300.0024988
300.0024351
300.0023788
300.0023463
300.0023469
300.0023746
300.0024085
300.0024234
300.0024056
300.0023669
300.0023306
300.0023199
300.0027632
300.0028222
300.0027868
300.0027505
300.0028679
300.002774
300.0027211
300.0027032
300.0026899
300.0026725
300.0026576
300.0026484
300.002677
300.0027027
300.0026832
300.0026149
300.0025332
300.00248
300.0024696
300.0024841
300.002491
300.0024679
300.0024157
300.0023508
300.0022978
300.0022798
300.002306
300.0023554
300.0023968
300.0024149
300.0024043
300.0023764
300.0023466
300.0023386
300.0027292
300.0027903
300.0027764
300.0027662
300.0027439
300.0027525
300.0027419
300.00272
300.0026949
300.0026794
300.0026741
300.002657
300.0026987
300.0027338
300.0027304
300.0026632
300.0025608
300.0024524
300.002399
300.0023999
300.0024108
300.0023973
300.0023551
300.002301
300.0022607
300.002257
300.0022975
300.0023566
300.0024034
300.0024299
300.0024298
300.0024108
300.0023778
300.0023565
300.0026802
300.002739
300.0027332
300.0027401
300.0027504
300.0027645
300.0027507
300.0027213
300.0026958
300.0026844
300.0026943
300.0026335
300.0026932
300.0027645
300.0027785
300.0027071
300.0026016
300.0024585
300.0023681
300.0023587
300.0023717
300.0023647
300.002335
300.0022984
300.0022748
300.0022791
300.0023161
300.0023708
300.0024273
300.0024675
300.0024775
300.002462
300.0024196
300.0023748
300.0026201
300.0026791
300.0026825
300.0027037
300.0027411
300.002758
300.0027418
300.0027195
300.0027076
300.0027005
300.00272
300.0026836
300.0026776
300.0028308
300.0028542
300.0027603
300.00264
300.0024844
300.0023789
300.0023603
300.002369
300.0023637
300.002346
300.0023287
300.0023217
300.0023295
300.0023523
300.0023933
300.002463
300.0025192
300.0025373
300.0025201
300.0024662
300.0023962
300.0025544
300.0026191
300.0026362
300.0026729
300.0027251
300.0027393
300.0027184
300.0027282
300.0027411
300.0027346
300.0027396
300.0028448
300.0026881
300.002925
300.0029429
300.0028162
300.0026694
300.002514
300.0024154
300.0023909
300.0023876
300.0023799
300.0023727
300.0023729
300.0023803
300.0023901
300.0023975
300.0024234
300.002507
300.0025774
300.0026
300.0025754
300.0025098
300.002422
300.0024884
300.0025657
300.0025985
300.0026485
300.0027056
300.0027099
300.0026871
300.0027548
300.0027919
300.0027827
300.002715
300.0030341
300.0027124
300.0029593
300.0029355
300.0028087
300.0026608
300.0025287
300.0024542
300.0024263
300.0024096
300.0023989
300.0024016
300.0024163
300.0024352
300.0024469
300.0024428
300.0024592
300.0025539
300.0026302
300.0026473
300.0026147
300.0025422
300.0024524
300.0024291
300.0025201
300.0025692
300.0026269
300.0026805
300.002672
300.002659
300.0027989
300.0028405
300.0028064
300.0026918
300.0031594
300.0027628
300.0027731
300.0027206
300.0026723
300.0026057
300.0025366
300.0024852
300.0024491
300.0024218
300.0024138
300.002428
300.0024528
300.0024775
300.0024915
300.0024819
300.002497
300.0025954
300.0026632
300.0026708
300.002629
300.0025582
300.0024882
300.0023883
300.002483
300.0025469
300.0026054
300.0026526
300.0026366
300.0026465
300.0028448
300.0028755
300.0028178
300.0027162
300.0026969
300.0026475
300.0027037
300.0027135
300.0026942
300.0026438
300.002571
300.0025023
300.0024486
300.0024156
300.0024193
300.0024497
300.0024824
300.0025071
300.0025211
300.0025132
300.0025339
300.0026249
300.0026766
300.0026699
300.0026191
300.0025592
300.0025302
300.0023855
300.0024569
300.0025337
300.002586
300.0026305
300.0026146
300.0026442
300.0028568
300.0028871
300.002828
300.0027804
300.0027564
300.0027339
300.002736
300.0027698
300.0027446
300.0026784
300.0025838
300.002492
300.0024205
300.0023876
300.0024146
300.0024642
300.0025013
300.0025239
300.0025376
300.0025398
300.0025688
300.0026399
300.0026693
300.0026449
300.0025898
300.0025541
300.0025775
300.0024271
300.0024491
300.0025348
300.0025742
300.0026227
300.0026092
300.0026274
300.0027825
300.0028025
300.0027556
300.0027203
300.0027092
300.0027051
300.002725
300.0028143
300.0027405
300.0026574
300.0025535
300.0024411
300.002355
300.0023345
300.0023983
300.0024654
300.0025018
300.0025253
300.0025455
300.0025671
300.0026013
300.0026443
300.0026462
300.0026018
300.0025501
300.0025561
300.0026246
300.0024811
300.0024646
300.002546
300.0025759
300.0026322
300.002624
300.0026023
300.0026388
300.002637
300.0026203
300.0026207
300.0026404
300.002662
300.0026738
300.0026679
300.0026263
300.0025582
300.0024557
300.0023365
300.002245
300.0022601
300.0023603
300.0024377
300.0024785
300.0025137
300.0025566
300.0025983
300.002631
300.0026474
300.0026202
300.0025561
300.0025252
300.0025731
300.0026641
300.0025232
300.0024983
300.0025591
300.0025908
300.0026571
300.0026549
300.0026158
300.0025853
300.0025618
300.0025594
300.0025785
300.0026123
300.0026426
300.002656
300.0026453
300.0025849
300.0024866
300.0023553
300.0022261
300.002157
300.0022182
300.0023185
300.0023945
300.0024532
300.0025173
300.0025782
300.0026275
300.0026563
300.0026564
300.0026116
300.0025409
300.0025281
300.0025964
300.0026927
300.002544
300.0025379
300.0025756
300.0026146
300.0026962
300.0027041
300.002658
300.0026089
300.0025754
300.0025676
300.0025823
300.0026069
300.0026255
300.0026271
300.0025972
300.0025361
300.0024405
300.002311
300.0021984
300.0021895
300.0022783
300.0023496
300.0024088
300.0024792
300.0025471
300.002601
300.0026472
300.0026752
300.0026716
300.0026296
300.0025639
300.0025446
300.0026091
300.002709
300.0025495
300.002575
300.0026053
300.0026451
300.0027357
300.0027395
300.0026912
300.0026363
300.0025953
300.002577
300.00258
300.002594
300.0026046
300.0025989
300.0025599
300.0024954
300.002406
300.0022917
300.0022138
300.002247
300.0023332
300.0023896
300.002445
300.0025158
300.0025829
300.0026201
300.0026577
300.0026848
300.0026834
300.0026598
300.002617
300.0025722
300.0026081
300.0027084
300.0025535
300.002588
300.0026157
300.0026579
300.0027442
300.0027512
300.0027074
300.0026517
300.0026038
300.0025725
300.0025595
300.0025595
300.0025626
300.0025519
300.0025196
300.002461
300.0023669
300.0022537
300.0021884
300.0022433
300.0023366
300.0023936
300.0024616
300.0025539
300.0026215
300.0026413
300.0026684
300.0026873
300.0026898
300.0027028
300.0026955
300.0026357
300.0026143
300.0026911
300.002454
300.0025613
300.0025978
300.0026178
300.0026733
300.0026772
300.0026396
300.0025906
300.0025472
300.0025187
300.0025079
300.0025122
300.0025189
300.0025165
300.002492
300.0024327
300.0023247
300.002212
300.0021215
300.0021868
300.0023031
300.0023776
300.0024719
300.002595
300.0026682
300.0026732
300.0026838
300.0026924
300.0027021
300.0027659
300.0027994
300.0027373
300.0026653
300.0026708
300.0025601
300.002598
300.0025661
300.0025506
300.0025608
300.0025553
300.0025335
300.0025073
300.0024838
300.0024685
300.0024639
300.0024716
300.002482
300.0024815
300.0024537
300.002387
300.002256
300.0021448
300.0019851
300.0020925
300.0022094
300.0023531
300.002487
300.0026348
300.0027167
300.0027127
300.0027068
300.0027072
300.0027305
300.0028411
300.002907
300.0028532
300.0027573
300.0026758
300.0025938
300.0026029
300.002575
300.0025418
300.0025201
300.0025043
300.0024927
300.0024834
300.0024693
300.0024529
300.002444
300.0024446
300.0024469
300.0024384
300.0024038
300.0023423
300.002199
300.00211
300.0019853
300.0021634
300.0020708
300.0023569
300.002503
300.0026576
300.0027495
300.0027451
300.0027324
300.0027345
300.0027759
300.0029063
300.0029921
300.0029518
300.0028459
300.0027048
300.0026031
300.0025988
300.0025735
300.0025413
300.0025163
300.0025051
300.0025177
300.0025281
300.0025113
300.0024849
300.0024681
300.00246
300.0024513
300.0024326
300.0023875
300.0023267
300.0020828
300.002073
300.0029232
300.0033062
300.0020915
300.0022667
300.0024718
300.0026481
300.0027391
300.0027429
300.0027454
300.0027621
300.0028244
300.002934
300.0030106
300.0029808
300.0028801
300.0027142
300.0025875
300.0026112
300.0025969
300.002575
300.0025517
300.0025328
300.0024999
300.0025596
300.0026344
300.0025814
300.0025298
300.0025016
300.0024904
300.0024776
300.0024523
300.0024031
300.0023253
300.0022168
300.0021306
300.0019329
300.0020669
300.0022399
300.0023792
300.0024887
300.0025833
300.0026589
300.0026871
300.0027347
300.0027876
300.0028565
300.0028684
300.0028685
300.0028173
300.0027461
300.0027039
300.0025942
300.0026106
300.0025861
300.0025639
300.0025477
300.002534
300.0025264
300.0025633
300.0025855
300.0025621
300.0025354
300.0025201
300.0025067
300.0024835
300.0024464
300.0023868
300.0023069
300.0022161
300.0022054
300.0021468
300.0022464
300.0023435
300.0024287
300.0025015
300.0025573
300.0026215
300.0026755
300.0027392
300.002792
300.0028217
300.0028204
300.0028195
300.0027605
300.0026828
300.002662
300.0025758
300.002573
300.0025521
300.002538
300.002532
300.0025304
300.0025322
300.0025467
300.0025561
300.0025487
300.0025353
300.00252
300.002497
300.0024603
300.0024082
300.0023414
300.0022754
300.0022396
300.002253
300.0023074
300.0023728
300.0024321
300.0024772
300.0025279
300.0025716
300.0026237
300.0026815
300.0027328
300.0027733
300.0027963
300.0028063
300.0027874
300.0027485
300.0027077
300.0026673
300.0025427
300.0025268
300.0025121
300.0025073
300.0025108
300.0025194
300.0025297
300.0025401
300.0025432
300.0025353
300.0025194
300.0024927
300.0024543
300.0024172
300.0023814
300.0023323
300.002281
300.0022592
300.0022841
300.0023426
300.0024095
300.0024694
300.0025107
300.0025513
300.0025865
300.002625
300.0026651
300.002699
300.0027245
300.0027371
300.0027571
300.002759
300.0027383
300.0026882
300.0026121
300.0024892
300.0024778
300.002479
300.002488
300.0025003
300.0025112
300.0025161
300.0025123
300.0024989
300.0024722
300.0024296
300.0023874
300.0023905
300.0023946
300.0023597
300.0023061
300.0022768
300.0023006
300.0023692
300.0024372
300.0024936
300.0025326
300.0025676
300.0025942
300.0026169
300.0026357
300.002645
300.0026464
300.0026359
300.0026573
300.0026844
300.0026903
300.0026577
300.0025863
300.0024629
300.0024498
300.0024501
300.0024572
300.0024656
300.0024707
300.002469
300.0024584
300.0024341
300.0023951
300.0023399
300.0023237
300.0025978
300.0026068
300.0026084
300.0025967
300.0026019
300.0025975
300.0026006
300.0026156
300.002624
300.0026048
300.0025472
300.0024134
300.0024106
300.002409
300.0024045
300.0023934
300.0023714
300.002535
300.0025228
300.0025095
300.002488
300.0024643
300.0024347
300.0023948
300.0023572
300.0023236
300.0023093
300.002334
300.0024034
300.0024703
300.0024979
300.0024832
300.0024386
300.0023854
300.0023409
300.0023105
300.0022926
300.0022863
300.0022908
300.0023019
300.002309
300.0023005
300.0022706
300.0022242
300.0021752
300.0021389
300.0021218
300.0021148
300.0021008
300.0020712
300.002029
300.0026476
300.0026439
300.0026306
300.0026075
300.0026114
300.0025593
300.0025086
300.0024684
300.0024257
300.0023913
300.0024
300.0024562
300.0025223
300.0025601
300.0025558
300.0025229
300.0024923
300.0024783
300.0024725
300.0024658
300.0024569
300.002448
300.0024391
300.0024264
300.0024043
300.0023701
300.0023293
300.0022954
300.0022786
300.0022753
300.0022711
300.0022535
300.0022189
300.0021667
300.002712
300.0027215
300.0027035
300.0026695
300.0027516
300.0026442
300.0025836
300.0025453
300.0025065
300.0024682
300.0024552
300.0024807
300.0025289
300.0025655
300.0025635
300.0025397
300.0025322
300.0025472
300.0025627
300.0025639
300.0025503
300.0025276
300.0025
300.0024685
300.0024335
300.0023967
300.0023648
300.0023478
300.0023472
300.0023499
300.0023389
300.0023083
300.0022653
300.0022217
300.0027459
300.0027672
300.0027398
300.0026787
300.0028678
300.0026817
300.0026184
300.0025881
300.0025594
300.0025286
300.002508
300.002509
300.0025361
300.0025632
300.0025547
300.0025303
300.0025309
300.0025588
300.0025861
300.0025927
300.0025756
300.002541
300.0024963
300.0024473
300.0024009
300.002365
300.0023472
300.0023508
300.0023659
300.0023707
300.0023501
300.0023095
300.0022673
300.0022409
300.0027528
300.002786
300.0027522
300.0026797
300.0029264
300.0026917
300.002631
300.0026079
300.0025887
300.0025704
300.002556
300.0025526
300.0025743
300.0025932
300.0025702
300.0025275
300.0025086
300.0025226
300.0025471
300.0025573
300.0025413
300.0025002
300.002442
300.0023781
300.0023244
300.0022958
300.0022991
300.0023257
300.0023542
300.0023605
300.0023364
300.0022985
300.0022678
300.0022584
300.0027391
300.0027854
300.0027598
300.0026975
300.002844
300.0026957
300.0026427
300.0026198
300.0026057
300.0026007
300.0025973
300.0025999
300.0026288
300.0026503
300.0026179
300.0025498
300.0024914
300.0024672
300.0024726
300.0024817
300.0024704
300.0024297
300.0023656
300.0022948
300.0022425
300.0022292
300.0022564
300.0023017
300.0023373
300.0023466
300.0023294
300.002304
300.0022838
300.0022809
300.0027072
300.0027614
300.0027547
300.0027238
300.0027082
300.0026841
300.0026549
300.0026305
300.0026178
300.002624
300.0026294
300.0026324
300.0026615
300.0026914
300.0026558
300.0025749
300.0024846
300.0024216
300.0024021
300.0024057
300.0023985
300.0023629
300.0023027
300.0022383
300.002198
300.0022019
300.0022454
300.002299
300.0023365
300.0023512
300.0023474
300.0023345
300.0023154
300.0023057
300.0026621
300.0027172
300.0027197
300.0027228
300.0027165
300.0027018
300.0026595
300.0026329
300.0026238
300.0026392
300.0026491
300.0026398
300.002657
300.0027225
300.0026809
300.0025896
300.0024788
300.0023983
300.0023655
300.0023643
300.0023575
300.0023267
300.0022772
300.0022292
300.0022061
300.0022209
300.0022664
300.0023186
300.002359
300.0023825
300.0023913
300.0023846
300.0023586
300.0023328
300.0026091
300.002663
300.0026714
300.0026899
300.0027073
300.0026944
300.0026496
300.0026337
300.0026254
300.0026429
300.0026423
300.0026106
300.0026262
300.0027914
300.0027363
300.002617
300.0024878
300.0023997
300.0023668
300.0023622
300.0023524
300.0023249
300.0022884
300.002259
300.0022512
300.0022696
300.0023071
300.0023529
300.0024003
300.0024343
300.0024516
300.0024439
300.0024072
300.0023633
300.0025541
300.0026087
300.0026249
300.0026551
300.0026855
300.0026686
300.0026288
300.0026364
300.0026219
300.0026263
300.0025804
300.0025927
300.0025891
300.0029594
300.0028366
300.0026675
300.0025164
300.0024216
300.0023919
300.0023816
300.0023677
300.0023448
300.0023218
300.0023084
300.0023106
300.0023283
300.0023555
300.0023952
300.0024514
300.0024956
300.0025168
300.0025022
300.0024545
300.0023975
300.0025012
300.0025598
300.0025854
300.0026244
300.0026588
300.0026323
300.0026008
300.0026539
300.0026211
300.0025743
300.0024839
300.0026927
300.002568
300.0032829
300.0029244
300.002701
300.0025427
300.0024547
300.0024211
300.0024037
300.0023854
300.002369
300.0023608
300.0023612
300.0023685
300.0023837
300.0024034
300.0024399
300.0025032
300.0025545
300.0025756
300.0025507
300.0024943
300.0024349
300.0024558
300.00252
300.0025544
300.0025971
300.0026279
300.0025898
300.0025758
300.0026871
300.0026276
300.002527
300.0024606
300.0028001
300.0025245
300.0027951
300.0027355
300.0026315
300.0025383
300.0024767
300.002441
300.0024145
300.0023936
300.0023856
300.0023915
300.0024042
300.0024166
300.0024288
300.0024452
300.0024817
300.002548
300.0026022
300.0026161
300.0025827
300.002523
300.0024742
300.0024248
300.0024911
300.0025318
300.0025721
300.0025957
300.0025501
300.0025626
300.0027236
300.0026536
300.002527
300.0024529
300.0025754
300.0024772
300.0026213
300.0026834
300.0026319
300.002567
300.0025015
300.0024461
300.0024048