/*--------------------------------*- C++ -*----------------------------------*\
  =========                 |
  \\      /  F ield         | OpenFOAM: The Open Source CFD Toolbox
   \\    /   O peration     | Website:  https://openfoam.org
    \\  /    A nd           | Version:  8
     \\/     M anipulation  |
\*---------------------------------------------------------------------------*/
FoamFile
{
    version     2.0;
    format      ascii;
    class       volScalarField;
    location    "0.3";
    object      alphat;
}
// * * * * * * * * * * * * * * * * * * * * * * * * * * * * * * * * * * * * * //

dimensions      [1 -1 -1 0 0 0 0];

internalField   nonuniform List<scalar> 
67451
(
6.66369e-07
6.663895632e-07
6.665547405e-07
6.668679502e-07
6.785426634e-07
9.049791387e-07
6.937618474e-07
6.688715384e-07
6.663313034e-07
6.65971189e-07
6.6591065e-07
6.661666e-07
6.662949277e-07
6.662882469e-07
6.664370545e-07
6.66591217e-07
6.668069647e-07
6.6840112e-07
6.982037666e-07
1.186138087e-06
6.517552694e-06
1.694837054e-06
7.94429275e-07
6.775745021e-07
6.671346886e-07
6.663296199e-07
6.66091934e-07
6.659975907e-07
6.659161979e-07
6.658729577e-07
6.658372179e-07
6.658230423e-07
6.658264437e-07
6.658374392e-07
6.655684476e-07
6.618500186e-07
5.363371643e-07
6.825366183e-07
6.673651005e-07
6.662660107e-07
6.663985208e-07
6.663768166e-07
6.665676031e-07
6.669642018e-07
6.696919643e-07
7.27215243e-07
1.633795937e-06
1.052688301e-05
5.458955213e-05
1.694156178e-05
3.606880063e-06
1.014562095e-06
7.000460229e-07
6.706524325e-07
6.668483402e-07
6.663733207e-07
6.662483692e-07
6.663789165e-07
6.66254699e-07
6.659926898e-07
6.658970532e-07
6.65826001e-07
6.655123582e-07
6.619328704e-07
5.270447129e-07
1.291656464e-06
7.093103777e-07
6.677836083e-07
6.666143651e-07
6.666085226e-07
6.672875399e-07
6.738822888e-07
7.674281988e-07
2.098130522e-06
1.486131062e-05
8.008360137e-05
0.0002017035111
0.0001029840472
3.145198363e-05
6.316401979e-06
1.435946431e-06
7.887490491e-07
6.825002275e-07
6.68369614e-07
6.687273558e-07
6.811466349e-07
6.826746465e-07
6.692234161e-07
6.664038874e-07
6.660206396e-07
6.656545365e-07
6.623885667e-07
5.270704929e-07
1.748623839e-06
7.201712796e-07
6.68772636e-07
6.672070643e-07
6.798210048e-07
8.656081129e-07
2.725037753e-06
1.845690713e-05
0.0001004042361
0.0003021978631
9.395343841e-05
0.000293315779
0.0001425747275
4.502184488e-05
1.023537835e-05
2.811459155e-06
1.056676179e-06
7.151117446e-07
7.246022651e-07
1.099258079e-06
1.215994028e-06
7.973542148e-07
6.811043148e-07
6.671825249e-07
6.658652189e-07
6.627146826e-07
5.273116022e-07
1.462637277e-05
1.764864849e-06
7.201605385e-07
6.814655066e-07
1.016270265e-06
4.42824366e-06
2.499823421e-05
0.0001137218593
0.0003364280436
0.0001182719819
0.0001190050915
0.0001040896162
0.0003259806865
0.000162269708
6.024113259e-05
2.102501164e-05
6.234431486e-06
1.602576659e-06
1.671706211e-06
7.398069266e-06
9.545040523e-06
3.564373125e-06
1.135644095e-06
7.099791996e-07
6.686987749e-07
6.630482029e-07
5.278718378e-07
8.718265111e-05
1.278074992e-05
1.554525925e-06
9.991420246e-07
6.306207205e-06
3.900473647e-05
0.0001417582944
0.0003580257875
0.000121332309
0.0001511777111
0.0001473079611
0.0001260790763
0.0001027792193
0.0003245059077
0.000188971705
0.0001010778221
4.414789089e-05
1.164871686e-05
1.118789437e-05
5.191545978e-05
6.500186651e-05
3.084100687e-05
8.127478861e-06
1.687501206e-06
7.502629464e-07
6.678521055e-07
5.287766074e-07
0.0002624696278
7.014457286e-05
9.251183868e-06
5.446977417e-06
4.974320321e-05
0.0001891763311
9.29352021e-05
0.0001236611797
0.0001611927047
0.0001967902397
0.0001886679293
0.0001485356901
0.0001154596865
9.660145134e-05
0.0003475276302
0.0002602593701
0.000175596722
7.240722167e-05
6.422564594e-05
0.0001823499746
0.0002129270689
0.0001416805926
5.657914602e-05
1.296747198e-05
2.191263744e-06
7.833106985e-07
5.357304893e-07
0.0001008789864
0.0002141160237
5.115337534e-05
3.433810006e-05
0.0001917860893
9.871804331e-05
0.0001197045309
0.0001330174259
0.0001512185562
0.0001739283823
0.0001665786243
0.0001397593016
0.0001186546604
0.0001096293447
0.0001041643841
9.680165055e-05
9.34817792e-05
0.0002560705457
0.0002105097967
0.0003512535143
9.14133336e-05
0.0003326250908
0.0001975610359
7.333800372e-05
1.557998111e-05
2.470041437e-06
6.652696987e-07
0.0001185998322
9.380628081e-05
0.0001904985937
4.866146605e-05
2.415946901e-05
0.0001537971132
9.44735056e-05
0.0001194703866
0.0001317901831
0.0001432245361
0.0001508721555
0.0001332942951
0.000120818664
0.0001106407811
8.94651942e-05
0.0001073888735
0.0001234778318
0.0001071468386
9.064800288e-05
9.998016607e-05
0.000104920638
0.0001023637015
8.878885445e-05
0.0002117397314
7.529979456e-05
1.622227714e-05
2.40799343e-06
0.0001273561927
0.0001092383952
8.869416067e-05
0.0001904998962
5.292021753e-05
2.912052981e-05
0.0001823147767
9.507671612e-05
0.0001148156993
0.0001220143318
0.0001313456173
0.0001252714818
0.0001156324963
9.712120407e-05
0.0003152955324
0.0001334563768
0.0001486326708
0.0001344072885
0.0001012321039
0.0001071887897
0.0001108713609
0.0001101278822
0.0001029004238
0.0003661101744
0.0002033348136
7.718586065e-05
1.662530989e-05
0.0001221434334
0.0001137326531
0.0001074706708
9.686607757e-05
0.0002494565324
6.383120812e-05
3.724124443e-05
0.0001866803415
9.116735466e-05
0.0001083447724
0.0001202634209
0.0001116045083
9.477605884e-05
0.0002705191886
0.0001237438996
0.0001624067589
0.0001631984594
0.0001494954951
0.0001110375082
0.0001181750951
0.0001218253835
0.0001171174633
0.000107544778
9.805414058e-05
0.0003530222599
0.0002198131923
7.836335594e-05
0.0001193567093
0.0001141424824
0.0001053759011
0.0003328363047
0.0001154481325
1.367538032e-05
6.037283564e-06
5.346474336e-05
0.0001906668751
0.0003592700215
9.952594915e-05
9.293032816e-05
0.0001191618691
0.0001502971717
0.000187195452
0.000188247119
0.0001972197226
0.0001856486219
0.0001430569294
0.0001321659227
0.0001369322634
0.0001362466817
0.0001292292434
0.0001226296098
0.0001161298707
0.0001039799644
0.0002384305321
0.0001134593404
0.0001072659854
8.934284335e-05
0.0001678775554
3.182737805e-05
2.307008557e-06
1.277251671e-06
1.011180131e-05
5.891650822e-05
0.0001662749956
0.000293508844
8.844126554e-05
0.0003400016349
0.000127447345
0.0001623053883
0.0001940822293
0.0002000712096
0.0001838838279
0.0001399957317
0.0001178597437
0.0001272255851
0.0001287380991
0.0001268172171
0.0001224140691
0.00011229761
8.909982188e-05
0.0001106955801
0.0001046331206
8.863131694e-05
0.0001848986341
4.450960468e-05
4.547884097e-06
9.684400902e-07
4.656965801e-06
2.409974497e-05
9.562143626e-05
0.0002444261398
9.599691234e-05
0.0001075468568
9.253427615e-05
0.0003510853322
0.0001295594006
0.0001747142249
0.0001787756905
0.0001663297736
0.0001267678924
0.0001120840262
0.0001272310131
0.0001281501818
0.0001255746118
0.0001177022779
0.0001000216101
0.000233080272
4.405670372e-05
0.0003449380232
0.0001690007368
4.484128425e-05
5.452130975e-06
1.060413285e-06
7.87946335e-06
4.938099924e-05
0.0001207046887
0.000228184474
0.0003542708377
0.0001091415038
0.0001199652137
0.0001059786836
9.110522554e-05
9.345060543e-05
0.0001548907967
0.000155187726
0.0001404630778
0.0001070190976
0.0001146309157
0.0001454157522
0.0001441825836
0.0001208705012
0.0001006291059
0.0002644689393
8.550835525e-05
9.838091573e-06
0.0001445726216
3.596829665e-05
4.929530244e-06
8.945365883e-07
8.698406498e-06
8.378479087e-05
0.0002670961278
9.54087912e-05
0.000101267921
0.0001041465144
0.0001190899488
0.0001290822698
0.0001152733568
0.0001066393512
0.0001048188717
0.0001190177468
0.0001190535482
0.0001098201504
0.0001365584226
0.0001925169405
0.000276341577
0.0002708397146
0.0002244834194
0.0001779250727
0.000119236345
0.0001618252269
1.272842549e-05
2.562145457e-05
3.752364602e-06
9.006053409e-07
6.823210953e-07
3.81905548e-06
4.987490705e-05
0.0002074706746
9.203963495e-05
0.0001037779304
0.0001065010426
0.0001177856275
0.0001247548563
0.0001142597094
0.0001077892936
0.000104799904
9.959456968e-05
0.0003700000834
0.0002678259995
0.0001122054994
0.0001688353099
0.0002499476799
0.0002312793006
0.0001863407559
0.0001391370958
0.0003505346808
6.932159474e-05
4.507018334e-06
4.73336205e-06
1.039915174e-06
6.88149754e-07
6.675658223e-07
8.464003032e-07
1.054731944e-05
8.712469081e-05
0.0002611210598
9.488687519e-05
0.0001023892358
0.0001074943826
0.0001120097376
0.0001087798302
0.0001047770798
9.900724009e-05
0.0003518203949
0.0002034491243
9.025312529e-05
0.0002142132096
0.0001213488174
0.0001977547997
0.0001732661032
0.0001357527256
9.232434847e-05
0.0001101398885
1.42897039e-05
1.057523052e-06
2.96226001e-05
3.708544697e-06
8.175374289e-07
6.708374646e-07
6.695083351e-07
1.315321531e-06
1.715966445e-05
0.0001015664636
0.0002543374037
8.93014212e-05
9.564449443e-05
9.99599234e-05
0.0001006888496
9.641529254e-05
0.0003529996161
0.0002187534982
8.804571246e-05
2.223573086e-05
4.434152419e-05
0.0002468149563
0.0001429683172
0.0001173375836
0.0003328086307
0.0001084852692
1.858154439e-05
2.040880497e-06
5.67952849e-07
0.0001955782671
3.108762818e-05
3.243319956e-06
7.901594191e-07
6.699098207e-07
6.722986713e-07
1.687210541e-06
1.792538342e-05
8.722654138e-05
0.0002039179578
0.0003025677265
0.0003602725635
0.0003676390201
0.0003123852762
0.0002064322091
9.311628006e-05
2.426997518e-05
4.17480405e-06
5.481613289e-06
4.726295328e-05
0.0002908957185
0.0001973022013
7.335548728e-05
1.527776148e-05
2.164346329e-06
7.408417036e-07
5.314820792e-07
0.0003266572061
7.206643622e-05
1.068972029e-05
1.529133107e-06
7.0370748e-07
6.67267136e-07
6.833920478e-07
1.730355396e-06
1.260005946e-05
5.885991065e-05
0.0001389182093
0.0002519217462
0.0002329245539
0.0001604256401
7.62594217e-05
2.262263161e-05
4.275024828e-06
1.041117631e-06
9.658831278e-07
4.767870113e-06
4.104763019e-05
3.122074136e-05
8.23712428e-06
1.654970165e-06
7.355185161e-07
6.657353343e-07
5.28829651e-07
7.132380658e-05
0.0002119303929
6.793455345e-05
1.038483174e-05
1.278081831e-06
6.872114454e-07
6.673486532e-07
6.876566331e-07
1.488446774e-06
6.765582942e-06
3.086002506e-05
0.0001334575119
9.555121472e-05
4.707122556e-05
1.500030351e-05
3.413719234e-06
9.900163114e-07
6.934106101e-07
6.78719394e-07
8.63215282e-07
3.241083959e-06
2.811436391e-06
1.05169147e-06
7.027490081e-07
6.677147355e-07
6.628783079e-07
5.280796094e-07
3.30629142e-05
0.0001356923546
0.0003677594717
8.624134579e-05
9.453814625e-06
1.146911409e-06
7.018262434e-07
8.850598836e-07
2.440861902e-05
8.935467964e-06
2.591402182e-06
3.787676223e-05
1.872297339e-05
6.774748235e-06
1.975432003e-06
8.539622702e-07
6.843719678e-07
6.676831256e-07
6.666253781e-07
6.723308748e-07
7.528822703e-07
7.402351122e-07
6.76676003e-07
6.666222927e-07
6.655528325e-07
6.626600065e-07
5.27665117e-07
0.0001065368791
0.0002241443027
0.000148808924
0.0003279537141
4.516850132e-05
4.191433367e-06
1.638440657e-06
1.297210013e-05
0.0003170561656
0.0001544193457
2.597826415e-05
4.861178687e-06
1.83223653e-06
9.955126261e-07
7.25719782e-07
6.736295057e-07
6.667997398e-07
6.660799884e-07
6.659576072e-07
6.660250616e-07
6.675725991e-07
6.671958835e-07
6.658699493e-07
6.656155677e-07
6.653667711e-07
6.625606423e-07
5.274252971e-07
0.0001366512282
0.0002112045927
0.0001492384055
9.723459207e-05
0.0001601336829
3.892788433e-05
1.805654247e-05
0.0001153064005
0.0001794684824
0.0001312642096
0.0002373346709
3.930810386e-05
3.785788212e-06
7.922806662e-07
6.699634934e-07
6.661655275e-07
6.658948863e-07
6.657939741e-07
6.657308204e-07
6.656822673e-07
6.656518754e-07
6.655958894e-07
6.655343491e-07
6.654786335e-07
6.652679873e-07
6.624975497e-07
5.272857482e-07
0.0001123208271
0.0001702197757
0.0001143359854
0.0002511304454
6.854920688e-05
1.059609489e-05
0.0002260165839
0.0001651342798
0.0002920921552
0.0002437360533
0.0001542947061
0.0003299321732
5.167470058e-05
4.309729063e-06
8.026021067e-07
6.690448703e-07
6.658101338e-07
6.656549603e-07
6.655917599e-07
6.655455254e-07
6.655051699e-07
6.654683892e-07
6.654350534e-07
6.653971537e-07
6.652023859e-07
6.624564558e-07
5.272039806e-07
0.0002340383903
0.0001261636601
0.0002616807385
8.222715065e-05
1.382582772e-05
2.489334421e-06
0.0001078960389
0.0001260339461
0.0002250492937
0.000205935332
0.0001361910854
0.0003201513105
7.835601476e-05
1.020310613e-05
1.198288592e-06
6.807386803e-07
6.658586232e-07
6.655451601e-07
6.654937716e-07
6.654549272e-07
6.6542202e-07
6.653935951e-07
6.653687588e-07
6.653398603e-07
6.65155654e-07
6.624289485e-07
5.27156535e-07
4.835503625e-05
0.000291814692
6.527635923e-05
1.318828455e-05
1.754292518e-06
8.45972768e-07
1.434543175e-05
0.0001628096109
0.0001239728363
0.0001400372464
8.999860328e-05
0.0001090287094
1.706262376e-05
1.884939648e-06
7.125461452e-07
6.666292527e-07
6.654688511e-07
6.653775526e-07
6.653297e-07
6.652951131e-07
6.652677117e-07
6.652451103e-07
6.652261097e-07
6.652043349e-07
6.650404452e-07
6.623810023e-07
5.27125879e-07
4.812208435e-06
5.699174663e-05
7.389543585e-06
1.448112469e-06
7.035021273e-07
6.701026185e-07
1.301701699e-06
1.484797098e-05
0.00011071709
0.00033954468
0.0001030981116
1.841037335e-05
2.234885039e-06
7.396582257e-07
6.659307104e-07
6.636996309e-07
6.636001917e-07
6.635626289e-07
6.635375161e-07
6.635188442e-07
6.635039782e-07
6.634915917e-07
6.634810658e-07
6.634703488e-07
6.633911511e-07
6.614342692e-07
5.26860919e-07
7.206309854e-07
3.993053901e-06
8.102610382e-07
6.195269099e-07
6.035325363e-07
6.028287484e-07
6.146173318e-07
1.046853089e-06
7.206977915e-06
6.618815157e-05
1.156965717e-05
1.703552088e-06
6.64677831e-07
6.045050704e-07
6.021303711e-07
6.019367146e-07
6.018736133e-07
6.018467202e-07
6.018342501e-07
6.018271791e-07
6.018210658e-07
6.018142131e-07
6.01806451e-07
6.017982595e-07
6.017712431e-07
6.008126493e-07
4.923968071e-07
9.701688381e-06
9.418715471e-06
9.428921464e-06
8.787406506e-06
9.021602137e-06
7.798844139e-06
8.600983078e-06
8.447909294e-06
9.00208211e-06
9.140203284e-06
9.464416929e-06
9.607156698e-06
9.529551909e-06
9.623111856e-06
9.544101899e-06
9.565343603e-06
9.352545453e-06
9.448309515e-06
8.701385922e-06
8.594456254e-06
5.23313044e-06
7.83287209e-06
7.950093986e-06
8.723566139e-06
8.703870753e-06
9.116522472e-06
9.287696079e-06
9.506262477e-06
9.635522031e-06
9.757419644e-06
9.853356084e-06
9.971117373e-06
1.008228346e-05
1.016439268e-05
9.627726676e-06
5.117362206e-06
4.421256059e-07
9.010201134e-06
8.755708688e-06
9.115407307e-06
8.977025779e-06
9.072522981e-06
8.801033103e-06
8.791637757e-06
8.182722775e-06
8.216396247e-06
6.463341269e-06
4.225436555e-06
6.937830731e-06
4.703970019e-06
5.415047691e-06
7.291721077e-06
7.640488634e-06
8.367411294e-06
8.727987946e-06
9.07115086e-06
9.248081505e-06
9.401762275e-06
9.494152933e-06
9.63166193e-06
9.732221459e-06
9.769722613e-06
9.248854408e-06
5.147922185e-06
4.419904409e-07
7.435150793e-06
7.68674103e-06
8.426144913e-06
8.386650134e-06
8.676463207e-06
8.625849761e-06
8.92758268e-06
8.625643436e-06
8.218106385e-06
4.759598037e-06
6.860623335e-06
2.539397558e-05
1.44560331e-05
6.600267049e-06
6.420161577e-06
6.964193283e-06
7.947252905e-06
8.291367838e-06
8.643262291e-06
8.864213821e-06
9.037322973e-06
9.132178861e-06
9.261479104e-06
9.319522365e-06
9.337681648e-06
8.913733119e-06
5.188843686e-06
4.425251451e-07
6.107902921e-06
7.557895327e-06
7.50025949e-06
7.729932687e-06
7.513893102e-06
7.681394572e-06
6.275910787e-06
4.743880605e-06
1.108831945e-05
2.107864842e-05
3.510004977e-05
4.13643012e-05
2.33170259e-05
8.802658082e-06
5.150851423e-06
5.979434537e-06
7.273709511e-06
7.832002445e-06
7.638924512e-06
7.434008655e-06
7.646774425e-06
8.349992668e-06
8.583933913e-06
8.70183095e-06
8.400039639e-06
5.107645172e-06
4.435063687e-07
3.967218976e-06
6.05034012e-06
6.646537888e-06
7.199727458e-06
7.383864591e-06
6.845833071e-06
6.405447358e-06
1.224217939e-05
3.287523974e-05
5.472665486e-06
1.034872274e-05
3.06731968e-05
5.225439987e-05
3.195198679e-05
1.219114651e-05
6.808578752e-06
5.576379116e-06
6.717353907e-06
5.071416815e-06
4.606266292e-06
5.185041635e-06
6.642218089e-06
8.061706338e-06
8.346613267e-06
7.975843404e-06
4.976712419e-06
4.457411046e-07
1.094846412e-05
4.47701259e-06
5.55897774e-06
6.050639782e-06
4.781138798e-06
6.551553012e-06
1.82274128e-05
3.997885386e-05
1.260126362e-05
3.00404779e-05
2.172477856e-05
1.338125943e-05
3.684248897e-05
5.242669253e-05
3.697282578e-05
2.137669366e-05
9.897859525e-06
4.681680905e-06
2.578522799e-06
6.926135182e-06
9.462060121e-06
6.302085404e-06
5.59101615e-06
6.996952773e-06
7.119056612e-06
4.625269982e-06
4.475475316e-07
4.385175085e-05
9.971233973e-06
4.369895041e-06
4.743711934e-06
7.877737583e-06
2.394368283e-05
2.749392444e-05
8.729609795e-06
0.0001210275009
0.0001971648068
0.0001834005896
7.974431417e-05
1.071807113e-05
2.180445211e-05
5.113854881e-05
6.492909025e-05
3.80509362e-05
1.330102886e-05
8.078296654e-06
2.608511073e-05
3.638352912e-05
2.400749014e-05
1.026537649e-05
5.930449499e-06
6.343590102e-06
4.448356791e-06
4.530613831e-07
3.774385811e-05
3.85135493e-05
9.589913403e-06
6.775246454e-06
3.308808017e-05
3.640921082e-05
2.371994039e-05
1.317133687e-05
8.39849373e-05
0.0001414470589
0.0001313405508
6.7152468e-05
2.204820299e-05
1.39625649e-05
5.501541236e-05
6.783882105e-05
6.289765677e-05
5.188615616e-05
3.477368915e-05
4.336143644e-05
6.026155218e-05
7.108976279e-05
3.926384573e-05
1.313805627e-05
5.25407983e-06
3.556995482e-06
4.577581853e-07
3.086834791e-05
4.627594439e-05
3.552020558e-05
8.796562168e-06
5.673915809e-06
2.338002961e-05
3.756665736e-05
1.57423695e-05
1.731328135e-05
5.933569863e-05
8.762514323e-05
4.782792604e-05
1.912850825e-05
6.310182002e-05
6.351927123e-05
4.69803284e-05
4.610839726e-05
4.446750406e-05
3.066496877e-05
1.05593871e-05
1.162821424e-05
3.962693476e-05
7.802236929e-05
4.649755457e-05
1.468702196e-05
4.38169572e-06
5.776316024e-07
1.049568647e-05
2.234270901e-05
5.430087951e-05
3.522082301e-05
1.196318258e-05
7.483850337e-06
3.360576933e-05
4.345567387e-05
2.349191315e-05
1.880107135e-05
3.390249894e-05
2.245839256e-05
5.114613085e-05
0.0001117706729
4.584265297e-05
3.804096023e-05
4.830181291e-05
4.7634623e-05
1.951950636e-05
3.328377314e-05
2.47491596e-05
1.682952233e-05
3.945920207e-05
7.740279492e-05
4.119482437e-05
1.255123813e-05
2.107656723e-06
1.406951367e-05
2.326006236e-05
4.566826534e-05
5.022106697e-05
5.152495313e-05
1.119456104e-05
7.821598485e-06
3.371016811e-05
4.859572066e-05
1.506518847e-05
2.432030022e-05
4.974501582e-05
6.728653506e-05
3.779914083e-05
0.000193580461
0.0001787236677
9.894743439e-05
5.929656751e-05
5.471614802e-05
6.168411426e-05
6.286081693e-05
4.771325618e-05
2.169735535e-05
1.129418903e-05
5.22695084e-05
3.951213312e-05
1.252976461e-05
1.753630199e-05
4.316482582e-05
4.643304514e-05
6.532691272e-05
1.758448056e-05
4.06656471e-06
5.052610765e-06
1.158029192e-05
4.053737719e-05
9.257985447e-05
8.146522119e-05
8.157049008e-05
6.689440677e-05
8.907062133e-05
0.000212101583
0.000199444213
0.0002039899156
0.0001531208796
9.693437875e-05
7.660670185e-05
7.877205332e-05
7.198491928e-05
4.176169442e-05
2.318108205e-05
6.171343644e-05
4.653328064e-05
5.629849252e-05
4.421509735e-05
5.08743456e-05
7.328131071e-05
3.046230586e-05
5.683982754e-06
4.679411604e-06
5.704343651e-06
4.422702062e-06
1.177013123e-05
3.85626457e-05
8.474926668e-05
9.749776616e-05
8.887256405e-05
6.091414521e-05
0.000152818683
0.0002163837877
0.0002404255189
0.0001609952239
7.033489134e-05
3.950172606e-05
5.381557347e-05
4.296879839e-05
2.290208434e-05
5.587885335e-05
5.484995161e-05
7.371776001e-05
1.753615946e-05
4.543239138e-05
7.872098006e-05
3.731582996e-05
7.67125502e-06
4.74690685e-06
5.650065438e-06
5.719721372e-06
7.373402604e-06
1.758774632e-05
2.552152523e-05
1.237455173e-05
2.106981383e-05
7.360163536e-05
0.0001734994792
5.761286206e-05
0.000121186078
8.589541246e-05
8.226812026e-05
6.146669206e-05
1.948750585e-05
3.509394837e-05
3.534223808e-05
6.084879086e-05
7.022613507e-05
6.571356748e-05
5.34750816e-05
5.830766863e-06
7.85674564e-05
3.316593901e-05
7.76895619e-06
4.168499049e-06
5.669298248e-06
4.239456076e-06
8.523291111e-06
1.649146799e-05
1.423475453e-05
2.504206681e-05
4.820635741e-05
6.694600481e-05
2.062113264e-05
8.246691629e-05
5.899903259e-05
5.425064754e-05
3.019141045e-05
6.454079372e-05
8.321851104e-05
6.858603436e-05
6.794375747e-05
4.801066145e-05
5.274093216e-05
7.312503006e-05
7.234808683e-05
1.653612657e-05
1.256194445e-06
2.728874184e-05
7.566736242e-06
4.579530385e-06
5.1290675e-06
4.558808782e-06
1.229218691e-05
4.677156196e-05
2.490637052e-05
9.019603108e-06
2.988574255e-05
5.720033981e-05
7.282887673e-05
3.719888334e-05
1.821311526e-05
3.583180967e-05
6.205410972e-05
5.67053779e-05
5.689156642e-05
5.651832958e-05
0.0001562766408
0.0002437876093
0.0002662901389
0.00011067801
3.412362729e-05
2.873569042e-05
1.711792959e-05
1.168098967e-06
5.475064206e-06
4.519972684e-06
6.311477572e-06
6.059449381e-06
5.616960336e-06
7.507039728e-06
3.29713016e-05
4.48156025e-05
1.077642823e-05
2.020596418e-05
5.303374905e-05
6.153054376e-05
3.245455226e-05
1.343698077e-05
2.681801295e-05
6.357515366e-05
0.0001021110361
5.760089655e-05
2.910185567e-05
0.0001136485744
0.0002155617769
0.0001704914727
4.053474705e-05
1.302638545e-05
3.370641061e-05
8.127576008e-06
6.204988674e-07
4.662071485e-07
1.096982931e-06
5.916748839e-06
6.909079711e-06
7.250489757e-06
5.305874157e-06
1.556839335e-05
4.962024679e-05
4.462716616e-05
1.098972216e-05
3.165086092e-05
3.344679572e-05
1.756526898e-05
1.7882337e-05
8.194138698e-05
9.763233283e-05
6.080130457e-05
2.347442234e-05
1.719404108e-05
2.011795823e-05
5.027107065e-05
2.348168913e-05
1.032520372e-05
3.359016333e-05
1.57283438e-05
4.368767673e-06
4.807272528e-07
1.621978737e-06
5.210303527e-07
1.486463506e-06
5.856527319e-06
8.164489053e-06
6.844587999e-06
6.6147285e-06
2.018161527e-05
4.561580995e-05
3.519648668e-05
1.065272947e-05
9.473828263e-06
2.19996118e-05
0.0001084279013
0.0001076746452
6.203001741e-05
2.304770053e-05
8.125418859e-06
5.203773025e-06
6.80892088e-06
9.590742276e-06
6.262946822e-06
3.200168535e-05
1.69985924e-05
7.37860271e-06
4.416484598e-06
4.59118568e-07
4.192597117e-05
5.968410067e-06
6.821582489e-07
7.779780167e-07
6.273259696e-06
7.319715665e-06
6.91164673e-06
6.683849703e-06
1.626799251e-05
3.356446576e-05
9.788093553e-06
3.298770909e-05
6.810173364e-05
8.004013238e-05
5.461567667e-05
2.302124929e-05
8.224127248e-06
5.988909293e-06
4.450301417e-06
2.732250578e-06
1.48536728e-05
1.511843336e-05
1.134044225e-05
7.476514456e-06
7.396893832e-06
4.676053632e-06
4.541299973e-07
2.557416592e-05
2.347256096e-06
5.972610676e-07
2.324959265e-06
7.53961464e-06
7.480444287e-06
7.546222059e-06
6.600671273e-06
6.003529466e-06
1.16674182e-05
1.600878429e-05
4.564570648e-05
4.927419244e-05
3.621886898e-05
1.822760754e-05
7.543773879e-06
6.260606316e-06
7.183514287e-06
7.208887881e-06
3.899116377e-06
3.58973931e-06
6.362853368e-06
7.09119788e-06
7.756312924e-06
7.663540234e-06
4.82999377e-06
4.501256161e-07
3.557772656e-06
7.150887043e-06
1.376620733e-06
4.743407912e-07
2.691978232e-06
7.795397636e-06
7.756242761e-06
6.194768749e-06
5.442652913e-07
3.132618665e-06
6.277421383e-06
2.370158869e-05
1.776335845e-05
9.595026256e-06
6.526999847e-06
5.939496061e-06
7.29501024e-06
7.711652003e-06
7.876930539e-06
7.489526798e-06
5.544462058e-06
7.14004033e-06
8.136368848e-06
8.206224169e-06
7.988991156e-06
5.026684402e-06
4.475102564e-07
1.580334968e-06
7.443222497e-05
1.174405051e-05
1.513437805e-06
1.552118898e-06
5.917639528e-06
7.469761343e-06
1.612788154e-06
3.28938291e-06
6.095345922e-07
3.391633328e-06
7.678736036e-06
5.577276473e-06
5.1857599e-06
6.726112759e-06
7.232724852e-06
7.885149105e-06
8.138231047e-06
8.340093866e-06
8.450494689e-06
8.33278141e-06
8.352424488e-06
8.588496334e-06
8.586405063e-06
8.371616416e-06
5.183603968e-06
4.457055195e-07
1.423883706e-05
0.0001477740317
3.936111384e-05
4.785780114e-06
4.7534469e-07
1.250932692e-06
1.236930494e-06
7.922885853e-07
3.824828323e-05
5.43065879e-06
1.043603239e-06
3.025804156e-06
6.485662772e-06
7.038112208e-06
7.710513166e-06
7.895586539e-06
8.315448088e-06
8.542411342e-06
8.721788249e-06
8.837932723e-06
8.866983403e-06
8.865166304e-06
8.956291675e-06
8.978241229e-06
8.698355896e-06
5.302248259e-06
4.445005388e-07
1.244913495e-05
0.0001283581442
4.10008565e-05
1.61892612e-06
3.421910305e-06
1.283014597e-05
1.078080628e-06
1.350764902e-05
0.0003141121676
0.0001613509747
8.680514393e-06
1.744349418e-06
2.65829028e-06
7.44103626e-06
8.207356118e-06
8.28108497e-06
8.641303775e-06
8.853010374e-06
9.016055903e-06
9.118722031e-06
9.168129942e-06
9.195397634e-06
9.249763032e-06
9.2647907e-06
8.944220152e-06
5.387655818e-06
4.437056889e-07
3.132817976e-06
6.340566281e-05
1.480595301e-05
1.237326233e-06
1.807725642e-05
7.891033063e-07
9.882706914e-06
6.7049472e-05
0.0004112644169
0.0003355212944
8.148363617e-05
1.197266167e-05
1.367128132e-06
6.222278343e-07
4.229667572e-06
8.502892371e-06
8.94944252e-06
9.091816966e-06
9.225378662e-06
9.319502151e-06
9.378390724e-06
9.419487999e-06
9.457838006e-06
9.465323122e-06
9.122183028e-06
5.448905451e-06
4.431917117e-07
5.851856883e-06
1.845545095e-05
2.188795479e-06
7.227175654e-06
2.417879303e-05
4.149536529e-06
3.071712889e-06
1.917337733e-05
0.0003007891278
0.0002154855947
5.367426056e-05
2.484032852e-06
8.236427193e-06
7.164847538e-06
8.86939471e-06
8.586436483e-06
8.956902858e-06
9.180301875e-06
9.344072291e-06
9.445156542e-06
9.509585116e-06
9.554186584e-06
9.587587988e-06
9.591498632e-06
9.240617816e-06
5.49142156e-06
4.428674195e-07
2.067309928e-06
4.041944445e-06
1.434652069e-06
9.554253066e-06
1.056131348e-05
7.9715558e-06
1.593898577e-06
4.308318471e-06
8.212353502e-05
5.917317345e-05
6.872071778e-06
4.879786573e-06
8.596647256e-06
8.934928615e-06
9.026640828e-06
8.754196094e-06
8.929017847e-06
9.088342797e-06
9.212963499e-06
9.300400234e-06
9.361305902e-06
9.404743373e-06
9.435953919e-06
9.4426026e-06
9.130112503e-06
5.472752483e-06
4.426460234e-07
3.615073162e-06
9.624943091e-07
2.067465369e-06
5.752033244e-06
5.506853649e-06
5.079130856e-06
5.076550913e-06
1.251077041e-06
7.943179186e-06
2.541472073e-06
5.002110253e-06
5.292455749e-06
6.604002477e-06
5.670252923e-06
5.804622204e-06
5.878748493e-06
6.015459943e-06
6.106999625e-06
6.169364216e-06
6.211600802e-06
6.240677894e-06
6.260967658e-06
6.274999576e-06
6.280924877e-06
6.177386303e-06
4.341466955e-06
4.417623372e-07
5.792448657e-07
7.847056634e-07
5.788664288e-07
5.809359607e-07
5.723021231e-07
5.701259112e-07
5.842063834e-07
5.891442306e-07
2.730989697e-06
5.538002825e-06
1.124510354e-06
6.150972312e-07
5.745170173e-07
5.681882092e-07
5.675082041e-07
5.667753104e-07
5.665107865e-07
5.663740544e-07
5.662920663e-07
5.662282956e-07
5.661596442e-07
5.660780077e-07
5.659857967e-07
5.658905136e-07
5.657171348e-07
5.631738795e-07
4.336659138e-07
7.158214513e-05
7.267320236e-05
7.440590207e-05
7.741149864e-05
7.661028596e-05
7.802673456e-05
7.290047758e-05
7.639049663e-05
7.432897439e-05
7.462897939e-05
7.376457514e-05
7.322204043e-05
7.293367153e-05
7.294563175e-05
7.361825644e-05
7.046548513e-05
7.129470171e-05
7.127239416e-05
7.408391596e-05
7.683117871e-05
8.214892716e-05
8.868016694e-05
8.103258199e-05
5.055020537e-05
6.614781752e-05
8.729315382e-05
8.293949118e-05
8.508231863e-05
8.123585438e-05
8.00715056e-05
7.838875001e-05
7.782841127e-05
7.76562349e-05
7.867556866e-05
7.983042472e-05
8.177527899e-05
8.352491864e-05
8.133881982e-05
5.520780164e-05
9.232625614e-06
4.415429865e-07
7.445484957e-05
7.374514103e-05
7.103844754e-05
7.087169944e-05
7.025723489e-05
7.34166832e-05
7.735533054e-05
8.266099266e-05
7.590379725e-05
2.465670016e-05
3.758521741e-06
1.466161731e-05
4.596154363e-05
6.625595383e-05
8.367405131e-05
8.539836563e-05
8.537747977e-05
8.419875468e-05
8.213801569e-05
8.056847183e-05
8.047786529e-05
8.034099918e-05
8.068426314e-05
8.070675656e-05
7.706235948e-05
5.257326218e-05
9.52403031e-06
4.417234472e-07
7.345083756e-05
7.648763802e-05
7.420327515e-05
7.439583929e-05
7.461356016e-05
8.244778756e-05
8.938868819e-05
8.505592431e-05
3.358482501e-05
4.577927044e-06
9.041740298e-07
9.566426025e-06
2.245233712e-05
3.332544566e-05
7.383347014e-05
8.945032893e-05
9.627240068e-05
9.517016699e-05
9.2021887e-05
8.781440065e-05
8.797835547e-05
8.829222888e-05
8.707028697e-05
8.41395014e-05
7.783883054e-05
5.302920979e-05
9.943504149e-06
4.423199352e-07
6.64887545e-05
7.51029894e-05
7.315251511e-05
7.280550236e-05
8.127493674e-05
7.697505282e-05
3.31808003e-05
4.418097111e-06
1.07647544e-06
1.411903518e-06
3.383658604e-06
9.277581856e-06
1.412445596e-05
2.613542023e-05
5.563368478e-05
8.629149113e-05
0.0001024899263
9.671827137e-05
7.294156183e-05
6.660339202e-05
8.856330076e-05
9.220602783e-05
8.917854512e-05
8.001881524e-05
5.393196116e-05
1.031975172e-05
4.433967457e-07
3.180209287e-05
7.186371028e-05
8.056350333e-05
8.097942843e-05
8.646175791e-05
3.735578248e-05
5.477920332e-06
9.293814215e-07
1.909223993e-06
8.216517718e-06
2.143645344e-06
3.934139587e-06
1.147410199e-05
2.281662882e-05
2.425115192e-05
4.789070164e-05
8.283773537e-05
8.212933649e-05
2.093560806e-05
1.425872662e-05
4.967863563e-05
8.635091447e-05
9.851250672e-05
9.02090005e-05
5.864269317e-05
1.089906555e-05
4.462484521e-07
5.839983294e-06
3.415116976e-05
6.886798853e-05
7.142755224e-05
4.417753204e-05
1.035990291e-05
1.898591311e-06
1.926675117e-06
1.119288093e-05
4.600908941e-05
1.595756707e-05
3.665910122e-06
3.940447726e-06
1.060854494e-05
1.408029295e-05
1.855234513e-05
2.611556129e-05
2.821105217e-05
2.368265296e-06
1.64628084e-06
9.223286111e-06
3.245943727e-05
7.850260904e-05
9.466256235e-05
6.338434234e-05
1.146262284e-05
4.498011566e-07
3.632309713e-06
9.670943514e-06
5.268882124e-05
6.603910405e-05
1.638566711e-05
3.939044656e-06
2.252183204e-06
2.125554585e-05
0.0001642324286
0.0002010272966
0.0001879802642
9.977353939e-05
1.605330981e-05
5.462440024e-06
1.071189173e-05
2.452023583e-05
1.096656399e-05
7.455496605e-06
1.201321993e-06
1.884207295e-06
4.948435691e-06
9.467956591e-06