/*--------------------------------*- C++ -*----------------------------------*\
  =========                 |
  \\      /  F ield         | OpenFOAM: The Open Source CFD Toolbox
   \\    /   O peration     | Website:  https://openfoam.org
    \\  /    A nd           | Version:  8
     \\/     M anipulation  |
\*---------------------------------------------------------------------------*/
FoamFile
{
    version     2.0;
    format      ascii;
    class       volScalarField;
    location    "0.3";
    object      N2;
}
// * * * * * * * * * * * * * * * * * * * * * * * * * * * * * * * * * * * * * //

dimensions      [0 0 0 0 0 0 0];

internalField   nonuniform List<scalar> 
67451
(
0.789993174
0.7899931723
0.7899931708
0.7899931674
0.7899931655
0.7899931592
0.7899931617
0.7899931619
0.7899931642
0.789993165
0.7899931658
0.7899931778
0.7899931777
0.789993177
0.7899931757
0.7899931742
0.7899931714
0.7899931688
0.7899931631
0.7899931582
0.789993152
0.78999315
0.7899931506
0.7899931552
0.7899931568
0.789993158
0.7899931579
0.7899931571
0.7899931555
0.789993153
0.7899931497
0.7899931452
0.789993139
0.7899931295
0.7899931113
0.7899930898
0.78999304
0.7899931759
0.789993177
0.7899931785
0.7899931785
0.7899931777
0.7899931756
0.7899931736
0.7899931687
0.7899931642
0.7899931547
0.7899931581
0.7899932303
0.7899931572
0.7899931348
0.789993141
0.7899931459
0.7899931486
0.7899931488
0.7899931478
0.7899931458
0.7899931424
0.7899931387
0.7899931348
0.7899931302
0.7899931241
0.7899931147
0.7899931008
0.7899930779
0.7899931702
0.789993174
0.7899931767
0.7899931776
0.7899931768
0.7899931745
0.7899931722
0.7899931664
0.7899931611
0.7899931662
0.7899932611
0.7899935248
0.789993331
0.7899931716
0.7899931275
0.7899931303
0.789993136
0.7899931379
0.7899931377
0.7899931361
0.7899931319
0.7899931278
0.7899931246
0.7899931219
0.7899931186
0.789993114
0.7899931044
0.7899930917
0.7899931676
0.7899931716
0.7899931751
0.7899931742
0.7899931709
0.7899931679
0.7899931589
0.7899931699
0.7899932749
0.7899935623
0.7899939028
0.7899937312
0.7899934195
0.7899931896
0.7899931212
0.7899931182
0.7899931225
0.7899931247
0.7899931244
0.7899931179
0.7899931119
0.7899931102
0.7899931104
0.7899931102
0.7899931088
0.7899931021
0.7899930935
0.7899931706
0.7899931621
0.7899931695
0.7899931689
0.7899931656
0.7899931648
0.7899931817
0.7899932995
0.7899935897
0.7899940327
0.789994215
0.7899941262
0.7899938333
0.789993479
0.78999322
0.7899931213
0.7899931
0.7899931051
0.7899931111
0.7899931056
0.7899930956
0.7899930901
0.7899930952
0.7899931008
0.7899931037
0.7899930999
0.7899930935
0.7899932725
0.7899931621
0.7899931596
0.7899931592
0.7899931591
0.7899932011
0.7899933448
0.78999363
0.7899940519
0.7899945335
0.7899945765
0.7899943939
0.7899941699
0.789993891
0.7899935773
0.789993295
0.7899931183
0.7899930808
0.7899931139
0.7899931681
0.7899931578
0.789993091
0.7899930724
0.7899930839
0.7899930947
0.7899930956
0.789993091
0.7899935689
0.7899932426
0.7899931512
0.7899931468
0.789993207
0.7899934328
0.7899937711
0.7899941597
0.7899946837
0.7899953688
0.7899953785
0.7899947328
0.7899943637
0.7899942197
0.7899940761
0.7899937322
0.7899933213
0.7899931126
0.7899932462
0.7899934832
0.7899934787
0.7899932831
0.789993112
0.7899930664
0.7899930799
0.789993089
0.7899930869
0.7899939854
0.7899934999
0.7899932051
0.7899931688
0.7899934429
0.7899939532
0.7899943228
0.7899944742
0.78999471
0.7899951934
0.7899953988
0.7899949696
0.7899946706
0.7899946363
0.789994686
0.789994187
0.7899936429
0.7899933162
0.7899936798
0.7899940019
0.7899940136
0.7899937533
0.7899933895
0.7899931322
0.7899930659
0.7899930761
0.7899930787
0.7899943417
0.789993902
0.7899934697
0.7899931972
0.7899931505
0.7899933861
0.7899939161
0.7899944062
0.789994655
0.7899950841
0.7899951886
0.789994936
0.7899948214
0.7899947473
0.7899941509
0.789993744
0.7899937362
0.7899936091
0.7899942815
0.7899944875
0.7899944924
0.7899942798
0.7899938582
0.7899934157
0.7899931349
0.7899930652
0.7899930602
0.7899945454
0.7899942326
0.7899938729
0.7899934963
0.7899931995
0.7899931399
0.7899934258
0.7899939299
0.7899943532
0.7899946378
0.7899948103
0.7899948651
0.7899948042
0.789994341
0.7899936053
0.7899938305
0.7899940754
0.7899940193
0.7899946307
0.7899947616
0.7899947887
0.7899946334
0.7899942806
0.7899938103
0.7899933867
0.789993132
0.7899930397
0.7899946607
0.7899945227
0.7899944424
0.789994189
0.789993657
0.7899932076
0.7899931434
0.7899934399
0.789993893
0.7899943135
0.7899947125
0.7899946571
0.7899941999
0.7899935574
0.7899936571
0.7899941626
0.7899942814
0.7899943828
0.7899950053
0.7899953215
0.7899953701
0.7899950853
0.7899946106
0.7899941628
0.7899937606
0.7899934003
0.7899930948
0.7899948173
0.7899947264
0.7899944871
0.7899939145
0.7899933475
0.789993123
0.7899931005
0.7899931681
0.7899934457
0.7899938414
0.7899941959
0.78999382
0.7899938071
0.7899941149
0.7899946113
0.7899948375
0.789994728
0.7899947235
0.7899949954
0.789995259
0.7899953468
0.7899950678
0.7899947449
0.7899945814
0.789994468
0.7899941226
0.7899934511
0.7899947505
0.7899945651
0.7899940625
0.7899934752
0.7899931583
0.7899931143
0.7899931114
0.7899930967
0.7899931553
0.789993379
0.7899937074
0.789993873
0.7899934913
0.7899938592
0.7899944172
0.7899947455
0.7899946925
0.7899947274
0.7899948849
0.7899948942
0.7899950417
0.789994932
0.789994885
0.7899948127
0.7899944718
0.7899937938
0.7899931636
0.789994517
0.7899940565
0.7899935195
0.7899931832
0.7899931235
0.7899931253
0.7899931248
0.7899931353
0.7899932709
0.7899936146
0.789994135
0.7899943481
0.7899940433
0.789993537
0.7899938707
0.7899944632
0.7899945602
0.7899945029
0.7899945696
0.7899948414
0.7899951423
0.7899950446
0.789994928
0.7899946388
0.7899940433
0.7899933825
0.7899930212
0.7899939758
0.78999349
0.7899931946
0.7899931331
0.7899931389
0.7899931399
0.7899932094
0.7899933516
0.7899936494
0.7899941259
0.7899947973
0.7899947764
0.7899944044
0.7899940346
0.7899935886
0.7899942703
0.7899943037
0.7899940368
0.7899939248
0.7899945142
0.7899943143
0.7899942864
0.7899942065
0.7899939017
0.7899934107
0.7899930851
0.7899930189
0.7899934327
0.7899931835
0.7899931408
0.789993142
0.7899931432
0.7899932554
0.7899936523
0.7899940974
0.789994305
0.7899945426
0.7899951538
0.7899951686
0.7899947139
0.7899945329
0.7899945209
0.7899942761
0.7899938984
0.7899935353
0.7899937751
0.7899943575
0.7899957096
0.7899957568
0.7899949831
0.7899939219
0.7899930986
0.7899929057
0.7899929676
0.7899931644
0.789993149
0.7899931586
0.7899931601
0.7899931504
0.7899932
0.7899935155
0.7899940123
0.7899943654
0.7899945266
0.7899950802
0.7899950961
0.7899948104
0.7899946807
0.789994667
0.7899942923
0.7899936773
0.7899931759
0.7899933156
0.7899937788
0.7899952603
0.7899953072
0.7899946101
0.7899934601
0.7899928344
0.7899928741
0.789992993
0.7899931165
0.7899931504
0.7899931551
0.7899931583
0.7899931533
0.7899931405
0.7899932575
0.789993645
0.7899941023
0.7899943698
0.7899947392
0.7899947552
0.7899947124
0.7899946844
0.7899945643
0.7899940838
0.7899934677
0.789993066
0.7899930632
0.7899932806
0.7899942271
0.7899943817
0.789993556
0.7899928556
0.7899927994
0.7899929722
0.7899930429
0.7899929486
0.7899930619
0.7899931072
0.7899931442
0.7899931567
0.7899931498
0.7899931486
0.78999329
0.7899936514
0.78999402
0.7899943132
0.7899944758
0.7899945957
0.7899945176
0.7899942106
0.7899936839
0.7899932201
0.789993067
0.7899930691
0.7899931065
0.7899933366
0.7899932757
0.7899928507
0.7899928012
0.7899929675
0.7899930651
0.7899930912
0.7899928207
0.789993002
0.7899930767
0.7899931392
0.7899931558
0.7899931624
0.7899931538
0.789993151
0.7899932748
0.7899935622
0.7899938771
0.7899942307
0.7899943209
0.7899941137
0.7899936986
0.7899932855
0.7899931136
0.7899931126
0.789993125
0.7899931067
0.789993046
0.7899929012
0.7899928874
0.7899930045
0.7899930888
0.789993122
0.7899931292
0.7899914123
0.7899922195
0.7899927329
0.7899929971
0.7899930939
0.7899931425
0.7899931598
0.7899931574
0.7899931595
0.7899932387
0.7899934399
0.7899939424
0.7899938658
0.7899935709
0.7899932703
0.7899931357
0.7899931357
0.7899931557
0.7899931633
0.7899931516
0.7899931016
0.789993032
0.7899930748
0.7899931209
0.7899931477
0.7899931579
0.7899931579
0.7899911877
0.7899926695
0.7899928582
0.7899930301
0.7899931086
0.7899931623
0.7899931785
0.7899931826
0.789993179
0.7899931656
0.7899932064
0.7899935233
0.7899933804
0.7899932204
0.7899931496
0.7899931537
0.789993173
0.7899931834
0.7899931871
0.7899931832
0.7899931678
0.7899931462
0.7899931595
0.7899931717
0.7899931811
0.7899931828
0.7899931794
0.7899923317
0.7899936724
0.7899932991
0.7899930997
0.7899930914
0.7899931446
0.7899931614
0.7899931724
0.7899931849
0.7899931544
0.7899931734
0.789993216
0.7899931806
0.7899931636
0.7899931733
0.7899931863
0.7899931958
0.7899932009
0.7899932032
0.7899932023
0.789993198
0.7899931909
0.7899931948
0.7899931988
0.7899932023
0.7899932003
0.7899931954
0.7899932898
0.7899958222
0.7899940849
0.7899931962
0.7899930127
0.789993143
0.7899931762
0.7899932103
0.7899933419
0.7899932527
0.7899931929
0.7899931766
0.7899931854
0.7899931903
0.7899931974
0.7899932034
0.7899932085
0.7899932121
0.7899932143
0.7899932148
0.789993214
0.7899932119
0.7899932135
0.7899932153
0.7899932166
0.7899932128
0.7899932071
0.7899948044
0.7899970918
0.7899961576
0.7899946765
0.7899929818
0.7899927851
0.7899930276
0.7899932016
0.7899936992
0.7899935626
0.7899933207
0.789993192
0.7899931819
0.7899931893
0.7899931994
0.7899932091
0.7899932153
0.7899932193
0.7899932219
0.7899932233
0.7899932239
0.7899932239
0.7899932248
0.7899932259
0.7899932264
0.7899932218
0.7899932158
0.7899938849
0.7899961819
0.7899950527
0.7899931852
0.7899925642
0.7899928902
0.7899931604
0.7899936831
0.7899951146
0.7899947326
0.7899939432
0.7899933309
0.7899931833
0.7899931873
0.7899932045
0.7899932139
0.7899932197
0.7899932238
0.7899932268
0.7899932289
0.7899932303
0.7899932312
0.7899932322
0.7899932331
0.7899932332
0.7899932284
0.7899932223
0.7899929715
0.7899942899
0.7899930731
0.7899925599
0.7899927963
0.7899930078
0.7899930833
0.7899933682
0.789994193
0.7899951863
0.7899944434
0.7899934361
0.7899930711
0.7899931065
0.7899931716
0.7899932018
0.7899932166
0.7899932249
0.7899932296
0.7899932326
0.7899932346
0.7899932359
0.7899932371
0.7899932379
0.789993238
0.7899932331
0.7899932269
0.7899928736
0.7899929475
0.7899926988
0.7899928302
0.7899929973
0.7899930738
0.7899930914
0.7899931486
0.7899933333
0.7899946625
0.7899935671
0.7899930196
0.7899930414
0.7899931387
0.7899931859
0.7899932079
0.7899932196
0.7899932268
0.7899932315
0.7899932347
0.789993237
0.7899932387
0.7899932399
0.7899932408
0.789993241
0.7899932363
0.7899932302
0.7899929792
0.7899927906
0.7899929432
0.789993001
0.7899930702
0.7899930987
0.7899931189
0.7899931144
0.7899931104
0.7899935226
0.7899929805
0.7899930145
0.7899931055
0.7899931579
0.789993187
0.7899932052
0.7899932164
0.7899932236
0.7899932284
0.7899932318
0.7899932342
0.789993236
0.7899932373
0.7899932383
0.7899932388
0.7899932367
0.7899932321
0.7899930281
0.7899929144
0.7899930325
0.7899930402
0.7899930898
0.7899931019
0.7899931253
0.789993108
0.789993102
0.7899929524
0.7899929684
0.7899930675
0.7899931232
0.7899931609
0.7899931843
0.7899931999
0.7899932101
0.7899932171
0.7899932218
0.7899932252
0.7899932277
0.7899932296
0.789993231
0.789993232
0.7899932327
0.789993233
0.7899932328
0.7899936484
0.7899936436
0.7899936402
0.7899936318
0.7899936291
0.7899936151
0.7899936229
0.7899936236
0.7899936302
0.7899936339
0.7899936377
0.7899936547
0.7899936515
0.7899936519
0.789993648
0.7899936448
0.7899936383
0.7899936322
0.7899936185
0.7899936107
0.7899935798
0.7899935969
0.7899935983
0.7899936104
0.789993616
0.7899936216
0.7899936248
0.7899936263
0.7899936264
0.7899936253
0.7899936238
0.7899936219
0.7899936198
0.7899936168
0.7899936087
0.789993598
0.7899935857
0.7899936471
0.7899936408
0.7899936496
0.7899936455
0.7899936463
0.7899936392
0.7899936341
0.7899936198
0.7899936088
0.7899935768
0.7899935627
0.7899935144
0.7899935384
0.7899935461
0.7899935719
0.7899935859
0.7899935973
0.789993604
0.7899936074
0.7899936085
0.7899936073
0.7899936055
0.7899936039
0.7899936022
0.7899935999
0.7899935937
0.7899935822
0.7899935756
0.7899936297
0.7899936235
0.7899936395
0.7899936363
0.7899936388
0.7899936317
0.7899936246
0.7899936086
0.789993589
0.7899935477
0.7899935435
0.7899935171
0.789993505
0.7899934904
0.7899935249
0.789993548
0.7899935659
0.789993577
0.7899935833
0.7899935862
0.7899935847
0.7899935831
0.7899935832
0.7899935838
0.7899935841
0.789993581
0.7899935706
0.7899935668
0.7899935961
0.7899936209
0.7899936189
0.7899936223
0.7899936079
0.7899935963
0.7899935582
0.7899935279
0.7899934765
0.7899935302
0.7899935069
0.7899934984
0.7899934428
0.7899934474
0.7899934814
0.7899935116
0.7899935339
0.7899935469
0.7899935528
0.7899935502
0.7899935486
0.7899935525
0.7899935578
0.7899935628
0.7899935635
0.7899935559
0.7899935541
0.7899935478
0.7899935899
0.7899935956
0.7899936039
0.7899935909
0.789993574
0.7899935376
0.7899935215
0.7899935179
0.7899936133
0.7899935161
0.7899935038
0.7899934817
0.7899934526
0.7899934325
0.7899934482
0.7899934757
0.7899934974
0.7899935084
0.7899935022
0.7899934995
0.7899935112
0.789993526
0.7899935391
0.7899935458
0.789993542
0.7899935425
0.7899935008
0.7899935466
0.7899935579
0.7899935667
0.7899935355
0.789993511
0.7899934679
0.7899934986
0.7899935138
0.7899938695
0.789993743
0.789993454
0.7899934159
0.7899934491
0.7899934165
0.7899933797
0.7899933839
0.7899934144
0.7899934411
0.7899934379
0.789993431
0.7899934428
0.78999347
0.7899934991
0.7899935176
0.7899935214
0.7899935253
0.7899934817
0.7899934855
0.7899935071
0.7899935284
0.7899935042
0.7899935232
0.7899935653
0.7899936512
0.7899946482
0.7899953239
0.7899955027
0.7899945013
0.7899936677
0.7899934831
0.7899934604
0.7899934168
0.7899933351
0.7899933305
0.7899933975
0.7899934424
0.789993434
0.7899934095
0.7899934125
0.7899934495
0.7899934831
0.7899934967
0.7899935045
0.7899935467
0.7899934836
0.789993448
0.7899934544
0.7899934524
0.7899935331
0.789993494
0.7899936105
0.7899943831
0.7899950154
0.7899952646
0.7899945572
0.789993912
0.7899934404
0.7899933614
0.7899934529
0.7899933436
0.7899932644
0.7899934037
0.7899934523
0.7899934328
0.7899934222
0.7899933831
0.7899933867
0.7899934266
0.7899934568
0.789993471
0.7899934762
0.7899935013
0.7899934372
0.7899934295
0.7899934313
0.7899934552
0.7899935135
0.7899935602
0.7899937052
0.7899947431
0.7899948114
0.7899942851
0.7899936426
0.7899934258
0.7899934595
0.7899933594
0.7899934163
0.7899933483
0.7899935874
0.789993596
0.7899935071
0.7899934516
0.7899934502
0.7899934071
0.7899933956
0.7899934182
0.7899934331
0.7899936472
0.7899935581
0.7899935323
0.7899934734
0.7899934112
0.7899933935
0.7899933888
0.7899934774
0.7899934257
0.7899939576
0.7899939957
0.7899935797
0.7899934126
0.7899934687
0.7899933213
0.7899934093
0.7899935127
0.7899935064
0.7899937208
0.7899939082
0.789993833
0.789993525
0.7899933703
0.7899934009
0.7899933685
0.7899933568
0.7899933562
0.7899936259
0.7899934486
0.7899934664
0.7899935068
0.7899934606
0.7899933951
0.7899933745
0.7899934089
0.7899934518
0.7899935204
0.7899934468
0.7899935008
0.7899934549
0.789993312
0.7899945539
0.7899945717
0.7899939986
0.78999426
0.7899946916
0.7899949546
0.7899950347
0.7899947942
0.7899941208
0.789993568
0.7899934791
0.7899934239
0.7899933205
0.7899934939
0.78999347
0.7899935193
0.7899935076
0.7899934318
0.7899934371
0.7899934077
0.7899933591
0.7899933377
0.7899934012
0.7899934103
0.7899933059
0.7899933532
0.7899934925
0.7899946146
0.7899947534
0.789994395
0.7899940053
0.789994691
0.7899949642
0.7899949426
0.7899945774
0.7899939551
0.7899934293
0.7899933461
0.7899934058
0.7899932566
0.7899934079
0.7899934841
0.7899935038
0.7899934221
0.7899934277
0.7899934643
0.7899934506
0.7899934003
0.7899933203
0.7899932983
0.7899933625
0.7899933852
0.789993255
0.7899934048
0.7899944943
0.7899945661
0.7899942848
0.7899937094
0.7899937249
0.7899940169
0.789994197
0.7899939158
0.7899935232
0.7899933856
0.7899934606
0.7899934191
0.7899932875
0.7899935001
0.7899935184
0.7899934306
0.789993438
0.7899934732
0.7899934818
0.7899934456
0.7899933894
0.7899933423
0.7899933905
0.789993526
0.7899933959
0.7899933828
0.7899932107
0.7899936263
0.78999385
0.7899936206
0.7899934017
0.7899935509
0.7899934473
0.7899937623
0.7899935452
0.7899934297
0.7899934874
0.7899934391
0.7899933069
0.7899932611
0.7899935163
0.7899934533
0.7899934405
0.7899934938
0.7899935103
0.7899935053
0.7899934881
0.7899934877
0.7899935234
0.7899944086
0.7899948898
0.7899948671
0.7899936388
0.7899933784
0.7899933528
0.7899934744
0.7899933755
0.7899933379
0.7899933459
0.78999459
0.7899938721
0.7899932966
0.7899933839
0.7899934048
0.7899933293
0.7899933137
0.7899933559
0.7899934743
0.7899934906
0.7899935097
0.7899935293
0.7899935076
0.7899934635
0.7899934954
0.7899934856
0.7899935403
0.7899944179
0.7899950979
0.7899950869
0.7899941431
0.7899935739
0.7899934047
0.789993491
0.789993351
0.7899932009
0.789993241
0.7899944858
0.7899942594
0.7899940557
0.7899934551
0.7899933585
0.7899933482
0.7899933398
0.7899933833
0.7899935337
0.7899935831
0.7899935727
0.7899935798
0.7899935504
0.7899934974
0.7899935031
0.7899935067
0.7899935417
0.789993822
0.789994829
0.7899948439
0.7899941648
0.7899935745
0.7899933602
0.7899934376
0.7899933328
0.7899931588
0.7899932729
0.7899940172
0.7899940544
0.7899936191
0.7899931526
0.789993273
0.7899934181
0.7899934002
0.7899934424
0.7899936497
0.7899936623
0.7899936189
0.7899936072
0.7899935733
0.7899935187
0.7899934648
0.7899934701
0.7899934889
0.7899934203
0.7899943875
0.7899942734
0.7899937586
0.7899933387
0.7899933856
0.7899934396
0.7899933246
0.7899932392
0.7899933019
0.7899934807
0.789993471
0.7899933295
0.7899934104
0.7899934973
0.7899934716
0.7899934757
0.7899934957
0.7899937581
0.7899937663
0.789993652
0.7899936507
0.7899936121
0.7899935734
0.7899935174
0.7899934554
0.7899934995
0.7899934662
0.7899938094
0.7899936582
0.7899934678
0.7899933778
0.7899934688
0.7899934106
0.7899933522
0.7899933665
0.7899934257
0.7899934845
0.7899935628
0.7899934684
0.7899935532
0.7899934932
0.7899935201
0.7899935277
0.7899935424
0.7899941562
0.7899938438
0.7899936669
0.7899936606
0.7899936281
0.7899936025
0.7899935642
0.7899935021
0.7899934691
0.7899934707
0.7899935544
0.7899934986
0.7899934894
0.7899934685
0.7899934563
0.7899934014
0.7899934288
0.7899934744
0.7899935093
0.7899935384
0.7899935614
0.789993591
0.7899935624
0.7899935629
0.7899935716
0.7899935763
0.7899935821
0.7899942513
0.7899939756
0.7899936688
0.7899936639
0.7899936362
0.7899936256
0.7899936052
0.7899935685
0.7899935338
0.7899934759
0.7899935439
0.7899935365
0.7899935355
0.7899934729
0.7899934506
0.7899934689
0.7899935171
0.7899935525
0.7899935737
0.7899935877
0.7899935869
0.7899935838
0.7899935947
0.789993605
0.7899936124
0.7899936133
0.7899936149
0.7899938355
0.7899937204
0.7899936312
0.789993626
0.7899936292
0.7899936333
0.7899936237
0.7899936076
0.7899935909
0.7899935363
0.7899935399
0.7899935341
0.7899935186
0.7899934869
0.789993517
0.7899935499
0.7899935835
0.7899936059
0.78999362
0.7899936293
0.7899936306
0.7899936317
0.7899936366
0.789993642
0.7899936447
0.7899936409
0.7899936406
0.789993551
0.7899941822
0.7899935868
0.7899935732
0.7899935971
0.7899936329
0.7899936332
0.789993618
0.789993623
0.7899935552
0.7899935893
0.7899935284
0.7899935587
0.7899935629
0.7899935888
0.7899936097
0.7899936288
0.7899936422
0.7899936515
0.789993658
0.7899936596
0.7899936617
0.7899936645
0.7899936686
0.7899936682
0.7899936616
0.7899936604
0.7899936504
0.7899951309
0.7899940093
0.7899937548
0.7899936848
0.7899936683
0.7899936447
0.7899936278
0.7899937503
0.7899936576
0.7899936236
0.7899935894
0.7899936106
0.7899936161
0.789993632
0.7899936453
0.7899936571
0.7899936662
0.7899936729
0.7899936777
0.7899936802
0.7899936822
0.7899936843
0.7899936866
0.7899936852
0.7899936771
0.7899936755
0.7899934157
0.7899951516
0.7899931987
0.7899934961
0.7899935416
0.7899936353
0.7899936022
0.7899936218
0.7899944215
0.789993785
0.7899936681
0.7899935982
0.789993647
0.7899936454
0.7899936571
0.7899936678
0.7899936755
0.7899936823
0.7899936875
0.7899936914
0.7899936941
0.7899936963
0.789993698
0.7899936995
0.7899936977
0.7899936889
0.7899936871
0.789993612
0.7899947213
0.7899935995
0.7899937102
0.7899936188
0.7899935742
0.7899936291
0.7899937046
0.7899948634
0.7899943873
0.7899940496
0.7899937562
0.7899936579
0.7899936529
0.7899936663
0.7899936771
0.7899936851
0.7899936918
0.789993697
0.7899937008
0.7899937037
0.7899937059
0.7899937077
0.7899937089
0.7899937069
0.7899936978
0.789993696
0.7899935932
0.7899940405
0.7899935012
0.789993652
0.7899935479
0.789993566
0.7899935995
0.7899935557
0.7899948126
0.7899941471
0.7899938703
0.7899936048
0.7899936795
0.7899936371
0.7899936614
0.7899936802
0.78999369
0.7899936978
0.7899937031
0.7899937072
0.7899937102
0.7899937126
0.7899937144
0.7899937155
0.7899937135
0.7899937044
0.7899937025
0.7899935727
0.789993642
0.7899936031
0.7899935839
0.7899935799
0.7899935766
0.7899935886
0.7899935441
0.7899939782
0.7899938155
0.7899937782
0.7899936436
0.7899936242
0.7899936496
0.7899936649
0.7899936818
0.7899936918
0.7899936993
0.7899937049
0.7899937092
0.7899937124
0.7899937149
0.7899937167
0.7899937179
0.7899937167
0.7899937088
0.7899937071
0.7899935538
0.7899935143
0.7899935576
0.7899935637
0.7899935814
0.7899935819
0.7899936035
0.789993562
0.7899936872
0.78999358
0.7899936328
0.7899935892
0.7899936183
0.7899936431
0.7899936595
0.7899936753
0.7899936849
0.789993692
0.7899936976
0.7899937019
0.7899937052
0.7899937077
0.7899937096
0.7899937111
0.7899937118
0.7899937105
0.7899937099
0.7899935569
0.7899935122
0.7899935682
0.7899935588
0.7899935862
0.7899935826
0.7899936022
0.7899935721
0.789993623
0.7899935008
0.7899935712
0.7899935902
0.7899936152
0.7899936429
0.7899936587
0.7899936726
0.7899936824
0.7899936898
0.7899936956
0.7899937
0.7899937033
0.7899937059
0.7899937078
0.7899937093
0.7899937103
0.7899937108
0.7899937118
0.7899939366
0.7899939339
0.7899939309
0.7899939277
0.7899939242
0.7899939212
0.7899939169
0.7899939178
0.7899939188
0.7899939205
0.7899939227
0.7899939239
0.7899939251
0.7899939252
0.7899939249
0.7899939421
0.7899939391
0.7899939382
0.7899939348
0.7899939315
0.7899939274
0.7899939225
0.7899939168
0.7899939109
0.789993902
0.7899939049
0.7899939056
0.7899939084
0.7899939111
0.7899939124
0.7899939136
0.7899939132
0.7899939123
0.7899939103
0.7899939079
0.7899939055
0.7899939024
0.7899938989
0.7899938888
0.7899938771
0.7899938659
0.7899939414
0.7899939366
0.78999394
0.7899939361
0.7899939351
0.7899939303
0.7899939256
0.7899939193
0.7899939112
0.7899939003
0.7899938891
0.7899938726
0.7899938798
0.7899938834
0.7899938883
0.7899938943
0.7899938963
0.7899938987
0.789993898
0.7899938966
0.7899938933
0.7899938896
0.7899938857
0.7899938827
0.7899938781
0.7899938702
0.7899938601
0.7899938562
0.7899939361
0.78999393
0.789993936
0.7899939319
0.7899939313
0.7899939264
0.7899939207
0.7899939142
0.789993902
0.7899938882
0.7899938766
0.7899938558
0.7899938566
0.7899938592
0.7899938671
0.7899938757
0.7899938785
0.7899938822
0.7899938822
0.7899938817
0.7899938786
0.7899938752
0.7899938722
0.7899938706
0.7899938688
0.7899938645
0.789993856
0.7899938544
0.7899939175
0.7899939277
0.7899939228
0.7899939224
0.7899939151
0.7899939062
0.7899938948
0.789993874
0.7899938611
0.7899938772
0.7899938597
0.7899938252
0.7899938238
0.7899938276
0.7899938457
0.7899938498
0.7899938584
0.7899938598
0.7899938601
0.7899938557
0.7899938516
0.7899938481
0.7899938482
0.7899938483
0.7899938459
0.7899938391
0.7899938393
0.7899939015
0.7899939169
0.7899939135
0.7899939142
0.7899939074
0.7899938951
0.7899938866
0.7899938678
0.7899938952
0.7899939734
0.7899939361
0.7899938547
0.789993844
0.7899938146
0.789993818
0.7899938172
0.7899938284
0.7899938328
0.7899938351
0.7899938311
0.7899938294
0.7899938309
0.7899938348
0.7899938384
0.7899938385
0.7899938333
0.7899938347
0.7899938714
0.7899938975
0.7899938943
0.7899938945
0.7899938791
0.7899938613
0.7899938501
0.7899938437
0.789993941
0.7899942823
0.7899941003
0.7899938344
0.7899938784
0.7899938018
0.7899937821
0.7899937592
0.7899937777
0.7899937879
0.7899937966
0.789993791
0.7899937921
0.7899937992
0.7899938107
0.7899938197
0.7899938239
0.789993821
0.7899938237
0.7899938517
0.7899938762
0.7899938774
0.7899938771
0.7899938633
0.7899938507
0.7899938891
0.789994044
0.7899949677
0.7899953296
0.7899955155
0.7899948972
0.7899941072
0.7899938669
0.7899937925
0.7899937169
0.789993711
0.7899937284
0.7899937533
0.7899937594
0.789993755
0.7899937601
0.7899937791
0.7899937987
0.7899938094
0.7899938104
0.7899938149
0.7899938514
0.7899938533
0.7899938387
0.7899938392
0.7899938059
0.7899937992
0.7899937904
0.7899938821
0.7899946132
0.789995034
0.7899952691
0.7899946305
0.7899939645
0.7899937698
0.7899937092
0.7899936343
0.7899936342
0.7899936542
0.7899937259
0.7899937632
0.7899937542
0.7899937414
0.7899937504
0.7899937709
0.7899937896
0.7899937945
0.789993801
0.7899939343
0.7899938711
0.7899938237
0.789993829
0.7899938208
0.7899938033
0.7899938026
0.7899937991
0.7899939817
0.7899944873
0.7899946122
0.7899940615
0.7899938136
0.7899937126
0.7899936944
0.7899936604
0.7899936925
0.7899936851
0.7899937765
0.7899938609
0.7899937989
0.7899937631
0.7899937546
0.7899937511
0.7899937667
0.7899937758
0.7899937839
0.7899940855
0.7899939654
0.7899938577
0.7899938201
0.7899937961
0.7899937816
0.7899937492
0.7899937321
0.7899937864
0.7899939949
0.7899938924
0.7899937006
0.7899936487
0.7899936205
0.789993658
0.7899937878
0.7899938996
0.7899943076
0.7899943374
0.7899941681
0.7899939755
0.7899938802
0.7899938435
0.7899937777
0.7899937494
0.7899937439
0.7899937467
0.7899940308
0.7899939242
0.7899938444
0.7899938004
0.7899937734
0.7899937753
0.7899937638
0.7899937393
0.78999374
0.789993766
0.7899936784
0.7899936217
0.789993656
0.7899943935
0.7899949303
0.7899950877
0.7899947016
0.7899951249
0.7899952367
0.7899951857
0.7899950354
0.7899947784
0.7899943224
0.7899939682
0.7899938251
0.7899937579
0.7899937204
0.7899938387
0.7899938592
0.7899938098
0.7899937967
0.7899937896
0.7899937987
0.7899937739
0.7899937329
0.7899936596
0.7899936193
0.7899934909
0.7899933626
0.7899935098
0.789994191
0.7899947825
0.789995011
0.7899945933
0.7899947291
0.7899952041
0.7899952275
0.7899949677
0.7899945759
0.7899941688
0.789993878
0.7899937555
0.7899936871
0.789993594
0.7899938275
0.7899938084
0.7899937629
0.7899937788
0.789993797
0.7899938152
0.7899937976
0.7899937736
0.7899936985
0.7899936483
0.7899935782
0.789993585
0.7899935484
0.7899938002
0.7899945887
0.7899947146
0.7899943869
0.7899939723
0.7899940596
0.7899941107
0.7899941572
0.7899939362
0.7899938274
0.7899937851
0.7899937552
0.7899937146
0.7899936934
0.7899937739
0.7899937813
0.7899937686
0.7899938062
0.7899938162
0.7899938257
0.7899937921
0.78999378
0.7899937207
0.7899940377
0.7899941033
0.7899937213
0.7899935651
0.7899935095
0.7899939969
0.7899941196
0.7899938622
0.7899936031
0.7899936106
0.789993736
0.7899938218
0.7899937226
0.7899937227
0.7899937281
0.7899936866
0.7899936656
0.789993678
0.7899937845
0.789993808
0.7899938095
0.7899938425
0.7899938415
0.7899938504
0.7899938229
0.789993865
0.7899938454
0.7899950591
0.7899951965
0.7899950351
0.7899941026
0.7899937101
0.7899936879
0.7899937627
0.789993745
0.7899936538
0.7899939919
0.7899951001
0.7899949421
0.7899940256
0.7899937826
0.7899937273
0.7899937047
0.7899937245
0.7899937477
0.789993823
0.7899938589
0.7899938489
0.7899938658
0.7899938472
0.7899938318
0.789993791
0.7899937936
0.7899938541
0.7899949945
0.7899953755
0.7899952671
0.7899943259
0.7899937795
0.7899936532
0.7899935744
0.789993579
0.7899935381
0.7899936089
0.7899947051
0.789994764
0.7899943081
0.7899938189
0.7899936961
0.7899936968
0.7899937341
0.7899937593
0.7899938929
0.789993926
0.7899938935
0.7899939086
0.7899938775
0.7899938686
0.7899938186
0.7899938286
0.7899937893
0.789994223
0.789994825
0.7899948697
0.7899941503
0.7899939048
0.7899937354
0.7899936552
0.7899936245
0.7899936022
0.7899936185
0.7899945795
0.7899944802
0.7899941713
0.7899938032
0.7899937804
0.78999378
0.7899937888
0.7899938012
0.7899940096
0.789994006
0.7899939301
0.7899939356
0.7899938942
0.7899938818
0.7899938289
0.7899938143
0.7899937707
0.7899938849
0.789994353
0.7899942997
0.7899938687
0.7899938126
0.7899937524
0.7899936984
0.7899936707
0.7899936827
0.7899936858
0.7899939911
0.7899938388
0.7899938496
0.7899937921
0.7899938196
0.7899938144
0.7899938218
0.7899938313
0.7899940387
0.7899940036
0.789993937
0.7899939631
0.7899939152
0.7899939137
0.7899938723
0.7899938513
0.7899938081
0.78999386
0.789994054
0.7899940383
0.7899938391
0.7899938209
0.7899937728
0.7899937402
0.7899937503
0.789993778
0.7899937985
0.7899938554
0.7899938339
0.7899938622
0.7899938488
0.789993855
0.789993855
0.7899938591
0.7899938641
0.7899942632
0.7899941077
0.7899939852
0.7899939895
0.7899939323
0.7899939307
0.7899938977
0.7899938837
0.7899938387
0.7899938423
0.7899938932
0.7899939289
0.7899938469
0.789993816
0.789993788
0.7899937923
0.7899938178
0.7899938414
0.7899938519
0.7899938692
0.7899938579
0.7899938808
0.7899938768
0.7899938858
0.7899938888
0.7899938882
0.789993892
0.7899939942
0.7899939923
0.7899938978
0.7899939551
0.7899939182
0.7899939322
0.7899939141
0.7899939094
0.7899938845
0.7899938663
0.7899938726
0.7899938841
0.7899938555
0.7899938298
0.7899938334
0.7899938521
0.7899938724
0.7899938881
0.7899938978
0.789993904
0.7899939048
0.7899939103
0.7899939111
0.7899939168
0.7899939173
0.7899939141
0.7899939164
0.7899939223
0.7899939844
0.789993935
0.7899939315
0.789993928
0.7899939375
0.7899939243
0.7899939246
0.7899938982
0.7899938876
0.7899938831
0.7899938701
0.7899938714
0.7899938687
0.7899938829
0.7899938978
0.7899939111
0.7899939208
0.7899939279
0.7899939318
0.7899939339
0.7899939349
0.7899939378
0.7899939405
0.78999394
0.7899939351
0.7899939367
0.7899938651
0.7899950843
0.7899940945
0.7899939068
0.7899939162
0.7899939218
0.7899939234
0.7899939194
0.7899939245
0.7899939111
0.7899939179
0.7899938925
0.7899939057
0.7899939106
0.7899939199
0.7899939295
0.7899939379
0.7899939443
0.7899939494
0.7899939525