/*--------------------------------*- C++ -*----------------------------------*\
  =========                 |
  \\      /  F ield         | OpenFOAM: The Open Source CFD Toolbox
   \\    /   O peration     | Website:  https://openfoam.org
    \\  /    A nd           | Version:  8
     \\/     M anipulation  |
\*---------------------------------------------------------------------------*/
FoamFile
{
    version     2.0;
    format      ascii;
    class       volScalarField;
    location    "0.3";
    object      nut;
}
// * * * * * * * * * * * * * * * * * * * * * * * * * * * * * * * * * * * * * //

dimensions      [0 2 -1 0 0 0 0];

internalField   nonuniform List<scalar> 
67451
(
5.77806638e-07
5.778244628e-07
5.779676824e-07
5.782392566e-07
5.883623616e-07
7.847047484e-07
6.015588624e-07
5.79976549e-07
5.777739243e-07
5.774616721e-07
5.774091803e-07
5.776311578e-07
5.777424267e-07
5.777366307e-07
5.778656552e-07
5.779993231e-07
5.781863882e-07
5.795686673e-07
6.054104391e-07
1.028496838e-06
5.651350442e-06
1.469588163e-06
6.88847262e-07
5.875228465e-07
5.784705187e-07
5.777724486e-07
5.775663507e-07
5.774845425e-07
5.774139614e-07
5.773764594e-07
5.773454587e-07
5.773331534e-07
5.773360851e-07
5.773455942e-07
5.771123073e-07
5.738880298e-07
4.650561554e-07
5.918255597e-07
5.786703761e-07
5.777173621e-07
5.778322571e-07
5.778134338e-07
5.779788562e-07
5.783227381e-07
5.806879592e-07
6.305662138e-07
1.416659624e-06
9.127828925e-06
4.733443794e-05
1.468997697e-05
3.127514765e-06
8.797237472e-07
6.07007814e-07
5.815207244e-07
5.78222206e-07
5.778103134e-07
5.777019609e-07
5.778151469e-07
5.777074257e-07
5.77480225e-07
5.773972843e-07
5.773356576e-07
5.770636752e-07
5.739598891e-07
4.569987612e-07
1.119991631e-06
6.150410029e-07
5.790332661e-07
5.78019415e-07
5.780143451e-07
5.786031092e-07
5.843213873e-07
6.654347549e-07
1.819282806e-06
1.28861981e-05
6.944025722e-05
0.0001748965669
8.929716367e-05
2.727191827e-05
5.476932783e-06
1.245104785e-06
6.839219158e-07
5.91793885e-07
5.795412691e-07
5.798514588e-07
5.906201646e-07
5.919450848e-07
5.802815521e-07
5.778367368e-07
5.775044126e-07
5.771869532e-07
5.743550275e-07
4.570211388e-07
1.516226708e-06
6.244584591e-07
5.798908429e-07
5.78533336e-07
5.894708356e-07
7.505662869e-07
2.362872228e-06
1.600392944e-05
8.706021959e-05
0.0002620349747
8.14668184e-05
0.0002543333551
0.0001236261305
3.903830272e-05
8.875064853e-06
2.43780759e-06
9.162406751e-07
6.200711995e-07
6.283003947e-07
9.531632705e-07
1.054384619e-06
6.913833332e-07
5.905834045e-07
5.785118594e-07
5.773696224e-07
5.746377952e-07
4.572302071e-07
1.268248539e-05
1.530309219e-06
6.244491351e-07
5.908967799e-07
8.812050018e-07
3.839717145e-06
2.167589491e-05
9.860789443e-05
0.0002917158647
0.0001025533818
0.0001031890928
9.025588399e-05
0.0002826570334
0.0001407035949
5.223489943e-05
1.823072157e-05
5.405856018e-06
1.389589217e-06
1.449531238e-06
6.414842513e-06
8.276474217e-06
3.090656534e-06
9.847133677e-07
6.156207013e-07
5.798265799e-07
5.749269861e-07
4.577159873e-07
7.559582678e-05
1.108215088e-05
1.347924921e-06
8.663531441e-07
5.468093775e-06
3.38208925e-05
0.0001229182113
0.0003104432368
0.0001052069901
0.0001310859204
0.0001277304721
0.0001093229442
8.911965439e-05
0.0002813782889
0.0001638568299
8.764426547e-05
3.828049467e-05
1.010056509e-05
9.700987701e-06
4.501572999e-05
5.636290991e-05
2.674213648e-05
7.047310475e-06
1.463226853e-06
6.505505984e-07
5.790924287e-07
4.585005082e-07
0.000227586718
6.082215408e-05
8.021674191e-06
4.723058026e-06
4.313218451e-05
0.000164034264
8.058388198e-05
0.0001072263633
0.0001397698681
0.000170636314
0.0001635934048
0.0001287949549
0.0001001148787
8.376293032e-05
0.0003013403694
0.0002256701469
0.000152259354
6.278406389e-05
5.568985252e-05
0.00015811511
0.000184628415
0.0001228507899
4.905959163e-05
1.124405248e-05
1.900037713e-06
6.792061966e-07
4.645301932e-07
8.747194543e-05
0.0001856594163
4.435493814e-05
2.977446138e-05
0.0001662971563
8.55981693e-05
0.0001037955692
0.0001153392063
0.0001311213106
0.0001508128341
0.0001444398128
0.0001211849315
0.000102885231
9.505942469e-05
9.032072267e-05
8.393644111e-05
8.105775512e-05
0.0002220379277
0.0001825324047
0.000304570991
7.926426211e-05
0.0002884182729
0.0001713045605
6.359114359e-05
1.350935068e-05
2.141764962e-06
5.768532175e-07
0.0001028377103
8.133920925e-05
0.0001651807999
4.2194209e-05
2.094860082e-05
0.0001333570177
8.191773213e-05
0.0001035925294
0.0001142750319
0.0001241896405
0.00013082084
0.0001155791678
0.0001047616276
9.593637168e-05
7.757500635e-05
9.311657922e-05
0.000107067266
9.290669394e-05
7.860065587e-05
8.669258863e-05
9.097646457e-05
8.875932945e-05
7.698857945e-05
0.0001835988804
6.529220814e-05
1.406628369e-05
2.087963274e-06
0.0001104303755
9.47204175e-05
7.690650321e-05
0.0001651819284
4.588695716e-05
2.525031898e-05
0.0001580845943
8.244077608e-05
9.95564558e-05
0.0001057983871
0.0001138895193
0.0001086226458
0.0001002646677
8.421351115e-05
0.0002733917242
0.0001157196971
0.0001288790033
0.0001165441698
8.777812866e-05
9.294317147e-05
9.613633367e-05
9.549168002e-05
8.922474098e-05
0.0003174532023
0.00017631101
6.69276103e-05
1.441575076e-05
0.0001059103968
9.861742708e-05
9.318764354e-05
8.399236225e-05
0.0002163030553
5.534783735e-05
3.229176284e-05
0.0001618699617
7.905097483e-05
9.394551811e-05
0.000104280172
9.677197309e-05
8.218002411e-05
0.0002345662561
0.0001072979311
0.0001408224658
0.0001415089625
0.0001296270806
9.628031057e-05
0.0001024692582
0.0001056344011
0.0001015522381
9.325185158e-05
8.502254983e-05
0.0003061047358
0.0001905993712
6.794859964e-05
0.0001034940304
9.897275945e-05
9.137122435e-05
0.0002886014716
0.0001001047242
1.185787937e-05
5.234909495e-06
4.635910927e-05
0.0001653266641
0.0003115220017
8.629865901e-05
8.057955727e-05
0.0001033248777
0.0001303223047
0.0001623167139
0.0001632285489
0.0001710086876
0.0001609753573
0.000124044162
0.0001146006355
0.0001187334989
0.0001181391089
0.0001120544043
0.0001063319208
0.0001006959778
9.016075159e-05
0.0002067422425
9.838041295e-05
9.301011909e-05
7.746895052e-05
0.0001455661255
2.759742027e-05
2.00039996e-06
1.107500957e-06
8.767910921e-06
5.108631446e-05
0.0001441765097
0.0002545005906
7.668714004e-05
0.0002948142356
0.0001105092202
0.0001407345782
0.0001682881722
0.0001734812117
0.0001594451084
0.0001213898492
0.000102195865
0.0001103169309
0.0001116284925
0.0001099629506
0.000106144982
9.737296739e-05
7.725817677e-05
9.598373645e-05
9.072716661e-05
7.685198874e-05
0.0001603250598
3.859414071e-05
3.943456393e-06
8.397314513e-07
4.038040789e-06
2.089681367e-05
8.291305439e-05
0.0002119412184
8.323868707e-05
9.325363857e-05
8.023619762e-05
0.0003044248842
0.0001123405918
0.0001514943222
0.0001550160039
0.000144224046
0.0001099200227
9.718778667e-05
0.0001103216197
0.0001111186384
0.0001088854074
0.0001020593239
8.672842847e-05
0.0002021031012
3.820140618e-05
0.000299094875
0.0001465400451
3.88817413e-05
4.727526333e-06
9.194811869e-07
6.832258955e-06
4.281811804e-05
0.0001046626866
0.0001978581828
0.0003071874009
9.463631792e-05
0.0001040215084
9.189388179e-05
7.89970793e-05
8.103073206e-05
0.000134305417
0.0001345628862
0.0001217950809
9.279589978e-05
9.939605396e-05
0.0001260894428
0.0001250202013
0.0001048064547
8.725519644e-05
0.0002293201509
7.41440048e-05
8.530575748e-06
0.0001253584951
3.11880016e-05
4.274380972e-06
7.756500136e-07
7.542362055e-06
7.264953918e-05
0.0002315983141
8.272874624e-05
8.78092381e-05
9.030521139e-05
0.0001032625396
0.0001119268303
9.99532562e-05
9.246677161e-05
9.088819936e-05
0.0001031999292
0.0001032309604
9.522465668e-05
0.0001184093483
0.0001669307238
0.0002396144193
0.0002348436949
0.0001946487098
0.00015427816
0.0001033893822
0.0001403180656
1.103677207e-05
2.221628745e-05
3.253664512e-06
7.80912294e-07
5.916386447e-07
3.311491713e-06
4.324638267e-05
0.0001798972333
7.980734343e-05
8.998564945e-05
9.234684733e-05
0.0001021315879
0.0001081745591
9.907432128e-05
9.34638871e-05
9.087177668e-05
8.635817345e-05
0.0003208258779
0.0002322309639
9.729300833e-05
0.0001463965609
0.0002167283941
0.000200541033
0.0001615753364
0.0001206452447
0.000303947348
6.01085143e-05
3.908020086e-06
4.104285056e-06
9.017074806e-07
5.96692676e-07
5.7884439e-07
7.339112138e-07
9.145548929e-06
7.554555817e-05
0.0002264173563
8.2276199e-05
8.87815274e-05
9.320814561e-05
9.712339155e-05
9.432278614e-05
9.085201465e-05
8.584896062e-05
0.0003050624882
0.0001764100905
7.825818434e-05
0.0001857435736
0.0001052212325
0.000171472622
0.0001502384288
0.0001177106964
8.005411099e-05
9.550191732e-05
1.239055473e-05
9.169747622e-07
2.568566828e-05
3.215668317e-06
7.088842617e-07
5.816812069e-07
5.805287252e-07
1.140511424e-06
1.48790937e-05
8.806798051e-05
0.0002205352935
7.74330737e-05
8.293317215e-05
8.667508219e-05
8.730712305e-05
8.360150338e-05
0.0003060850931
0.0001896805157
7.634415989e-05
1.928053271e-05
3.844840013e-05
0.0002140125363
0.000123967413
0.0001017430343
0.0002885772279
9.40672151e-05
1.61119974e-05
1.769641079e-06
4.92470151e-07
0.0001695850684
2.695600462e-05
2.812273748e-06
6.851449697e-07
5.808768742e-07
5.829482312e-07
1.462975318e-06
1.554304656e-05
7.563388066e-05
0.0001768167325
0.0002623558486
0.0003123917175
0.000318779048
0.0002708685237
0.0001789967933
8.074084337e-05
2.104442172e-05
3.619960208e-06
4.753090908e-06
4.098156976e-05
0.0002522348199
0.0001710801406
6.360631237e-05
1.324729962e-05
1.876698133e-06
6.423816273e-07
4.608465322e-07
0.0002832419749
6.248854145e-05
9.269017379e-06
1.325906244e-06
6.10182577e-07
5.785853566e-07
5.925672546e-07
1.50038614e-06
1.092547477e-05
5.103725988e-05
0.0001204556231
0.0002184408185
0.0002019683048
0.0001391046288
6.612431903e-05
1.961601657e-05
3.706861606e-06
9.0275012e-07
8.375145198e-07
4.134206591e-06
3.559228108e-05
2.707141285e-05
7.14238603e-06
1.435019764e-06
6.377659702e-07
5.772571933e-07
4.58546674e-07
6.184448107e-05
0.0001837637381
5.890580638e-05
9.004654063e-06
1.10822092e-06
5.95879065e-07
5.786561259e-07
5.96265125e-07
1.290627972e-06
5.866417315e-06
2.675864066e-05
0.0001157206601
8.285218988e-05
4.081532257e-05
1.300671956e-05
2.960026188e-06
8.584403588e-07
6.012544062e-07
5.885157014e-07
7.484915676e-07
2.810334798e-06
2.437788482e-06
9.119186849e-07
6.093516782e-07
5.78973573e-07
5.747799286e-07
4.578963556e-07
2.866869529e-05
0.0001176581121
0.0003188829309
7.477958076e-05
8.197373296e-06
9.944835141e-07
6.085515104e-07
7.674329011e-07
2.116464465e-05
7.747918023e-06
2.246997445e-06
3.284283161e-05
1.623463648e-05
5.87436486e-06
1.712891538e-06
7.40468312e-07
5.934170486e-07
5.78946209e-07
5.780290442e-07
5.829762636e-07
6.528221509e-07
6.418558198e-07
5.86743897e-07
5.780263577e-07
5.770990383e-07
5.745906801e-07
4.575369805e-07
9.237770834e-05
0.0001943540819
0.0001290316592
0.0002843678146
3.916548661e-05
3.63438065e-06
1.420687391e-06
1.124807283e-05
0.0002749185894
0.000133896588
2.252568087e-05
4.215114191e-06
1.588727179e-06
8.632062358e-07
6.29269626e-07
5.841023027e-07
5.781802423e-07
5.775561557e-07
5.774500444e-07
5.775085356e-07
5.788503998e-07
5.785237462e-07
5.773740351e-07
5.771534645e-07
5.76937737e-07
5.745045509e-07
4.573290556e-07
0.0001184896848
0.0001831333972
0.0001294037484
8.431177319e-05
0.000138851414
3.375425249e-05
1.565677252e-05
9.99818666e-05
0.0001556166544
0.0001138188446
0.0002057922872
3.408394749e-05
3.282646281e-06
6.869843628e-07
5.809235005e-07
5.776303185e-07
5.773956601e-07
5.773081688e-07
5.772534146e-07
5.772113178e-07
5.771849666e-07
5.771364213e-07
5.77083062e-07
5.770347535e-07
5.768521047e-07
5.74449865e-07
4.572080698e-07
9.739293208e-05
0.0001475962391
9.914012256e-05
0.0002177540996
5.943876178e-05
9.187838134e-06
0.0001959782382
0.0001431874802
0.0002532720023
0.0002113425309
0.0001337885002
0.0002860833411
4.480699361e-05
3.736954276e-06
6.959341033e-07
5.801270018e-07
5.773221817e-07
5.771876404e-07
5.771328466e-07
5.770927619e-07
5.770577732e-07
5.77025883e-07
5.7699698e-07
5.769641194e-07
5.767952383e-07
5.744142485e-07
4.571371818e-07
0.0002029338465
0.0001093958887
0.000226902332
7.12988568e-05
1.198832654e-05
2.158493388e-06
9.355630118e-05
0.0001092836742
0.0001951393271
0.0001785654402
0.0001180907772
0.000277602308
6.794227437e-05
8.847084117e-06
1.03903268e-06
5.902666478e-07
5.773642196e-07
5.770924351e-07
5.770478874e-07
5.770142128e-07
5.769856839e-07
5.769610403e-07
5.769395077e-07
5.769144522e-07
5.767547288e-07
5.743904085e-07
4.570960509e-07
4.192848289e-05
0.0002530313358
5.660090815e-05
1.143551529e-05
1.521141177e-06
7.335402518e-07
1.243887897e-05
0.0001411717193
0.0001074964947
0.0001214257908
7.80374656e-05
9.453845021e-05
1.479495014e-05
1.634425783e-06
6.178467854e-07
5.780324144e-07
5.77026257e-07
5.769471083e-07
5.769056265e-07
5.768756442e-07
5.768518902e-07
5.768322967e-07
5.768158247e-07
5.767969463e-07
5.766548395e-07
5.743488424e-07
4.570694755e-07
4.172649444e-06
4.94173281e-05
6.407448413e-06
1.255653401e-06
6.100044445e-07
5.81043874e-07
1.128701602e-06
1.28746298e-05
9.60024791e-05
0.0002944180927
8.939602743e-05
1.596357787e-05
1.937862201e-06
6.413555399e-07
5.774266712e-07
5.754921466e-07
5.754059478e-07
5.753733937e-07
5.7535163e-07
5.753354478e-07
5.753225636e-07
5.753118279e-07
5.753027045e-07
5.752934144e-07
5.75224744e-07
5.73527937e-07
4.568397334e-07
6.248567022e-07
3.462362028e-06
7.025746378e-07
5.371897028e-07
5.233211612e-07
5.227109254e-07
5.329328367e-07
9.077230473e-07
6.249149085e-06
5.739150111e-05
1.003201096e-05
1.477144671e-06
5.763401817e-07
5.241646294e-07
5.221055776e-07
5.219376899e-07
5.21882996e-07
5.218596918e-07
5.218488894e-07
5.218427658e-07
5.218374706e-07
5.218315329e-07
5.218248058e-07
5.218177054e-07
5.217942813e-07
5.209630882e-07
4.269559932e-07
8.412325171e-06
8.166959524e-06
8.175809035e-06
7.619551875e-06
7.822622617e-06
6.762370149e-06
7.457904119e-06
7.325173993e-06
7.805696789e-06
7.925461577e-06
8.206586951e-06
8.330357184e-06
8.263066039e-06
8.34419175e-06
8.275682164e-06
8.294100719e-06
8.109583484e-06
8.192620251e-06
7.54496329e-06
7.452244548e-06
4.53764198e-06
6.791875425e-06
6.893518412e-06
7.56419548e-06
7.547117703e-06
7.904927655e-06
8.053352132e-06
8.242870813e-06
8.354951587e-06
8.460648791e-06
8.543835082e-06
8.645945673e-06
8.742337581e-06
8.813534334e-06
8.34819173e-06
4.437259515e-06
3.833666531e-07
7.81273761e-06
7.592067278e-06
7.903961758e-06
7.783971131e-06
7.866776635e-06
7.631367848e-06
7.623221015e-06
7.095231179e-06
7.124429215e-06
5.604356663e-06
3.663871682e-06
6.015785436e-06
4.078807314e-06
4.695381989e-06
6.322643645e-06
6.625059743e-06
7.255373699e-06
7.568029365e-06
7.865585536e-06
8.019001837e-06
8.15225814e-06
8.232369834e-06
8.351603592e-06
8.438798522e-06
8.471315627e-06
8.019671309e-06
4.463757612e-06
3.832494188e-07
6.447012729e-06
6.665166252e-06
7.306302884e-06
7.27205687e-06
7.523353499e-06
7.479466448e-06
7.741098593e-06
7.479287094e-06
7.125911814e-06
4.127042457e-06
5.948839301e-06
2.201908934e-05
1.253481023e-05
5.723083875e-06
5.566914792e-06
6.038644241e-06
6.891054287e-06
7.189436045e-06
7.494563336e-06
7.686150113e-06
7.836252726e-06
7.918502009e-06
8.030617976e-06
8.080947127e-06
8.09669295e-06
7.729087644e-06
4.499240374e-06
3.837130438e-07
5.296156963e-06
6.553444264e-06
6.503468203e-06
6.7026176e-06
6.515289663e-06
6.660529829e-06
5.441835879e-06
4.113413863e-06
9.614669598e-06
1.827727539e-05
3.043521929e-05
3.586694446e-05
2.021816682e-05
7.632774305e-06
4.466297177e-06
5.184760691e-06
6.307025112e-06
6.791120294e-06
6.623702623e-06
6.446020184e-06
6.630508987e-06
7.240268588e-06
7.443118717e-06
7.54534708e-06
7.28366422e-06
4.428833013e-06
3.845638443e-07
3.439971721e-06
5.246244282e-06
5.763206804e-06
6.242876959e-06
6.402541894e-06
5.936015051e-06
5.554156774e-06
1.061518081e-05
2.850608666e-05
4.745343228e-06
8.973366647e-06
2.659669872e-05
4.530973707e-05
2.770553164e-05
1.057092804e-05
5.903710015e-06
4.835271339e-06
5.824609243e-06
4.39741929e-06
3.994087752e-06
4.495943016e-06
5.75945885e-06
6.99029538e-06
7.237337914e-06
6.915843936e-06
4.315301261e-06
3.865015732e-07
9.493402243e-06
3.882013196e-06
4.820184161e-06
5.246503815e-06
4.145720558e-06
5.68084472e-06
1.580496989e-05
3.466562349e-05
1.092654342e-05
2.604807216e-05
1.88375359e-05
1.160287659e-05
3.19460861e-05
4.545913354e-05
3.205909551e-05
1.853570323e-05
8.582420486e-06
4.059479189e-06
2.235833744e-06
6.005642799e-06
8.204539918e-06
5.464529889e-06
4.847962735e-06
6.067048686e-06
6.172924947e-06
4.010565846e-06
3.880679153e-07
3.802381085e-05
8.646046679e-06
3.789131483e-06
4.11326776e-06
6.830777974e-06
2.076154305e-05
2.383995726e-05
7.569437293e-06
0.0001049428703
0.0001709615441
0.0001590265255
6.914622935e-05
9.293629879e-06
1.890661978e-05
4.434218395e-05
5.629993536e-05
3.299391271e-05
1.153330251e-05
7.004679904e-06
2.261836661e-05
3.154811284e-05
2.081686324e-05
8.901093955e-06
5.142284739e-06
5.500518654e-06
3.857164511e-06
3.92848959e-07
3.272767e-05
3.339506013e-05
8.315403413e-06
5.874808562e-06
2.869063726e-05
3.157039176e-05
2.056753839e-05
1.142085323e-05
7.282327887e-05
0.0001226486785
0.0001138852999
5.822787048e-05
1.911798549e-05
1.210692828e-05
4.770380859e-05
5.882296148e-05
5.453846951e-05
4.49904054e-05
3.015222064e-05
3.759865407e-05
5.22527294e-05
6.164185873e-05
3.404563383e-05
1.13919914e-05
4.555805666e-06
3.084266205e-06
3.969215421e-07
2.676592073e-05
4.012583079e-05
3.079953286e-05
7.627489061e-06
4.919845903e-06
2.027279755e-05
3.257401359e-05
1.365019422e-05
1.50123322e-05
5.144996293e-05
7.59797148e-05
4.147157165e-05
1.658631307e-05
5.471552482e-05
5.507748428e-05
4.073658334e-05
3.998053639e-05
3.855771023e-05
2.658955917e-05
9.156033877e-06
1.008281341e-05
3.436047656e-05
6.765312038e-05
4.031797615e-05
1.273509782e-05
3.799362631e-06
5.008636103e-07
9.100802651e-06
1.937334592e-05
4.708424791e-05
3.053993858e-05
1.037326135e-05
6.489237323e-06
2.913952213e-05
3.768037179e-05
2.036981598e-05
1.630239492e-05
2.939683552e-05
1.947365519e-05
4.434876225e-05
9.691621621e-05
3.975009713e-05
3.298527599e-05
4.188245606e-05
4.130392704e-05
1.69253466e-05
2.886033585e-05
2.145998122e-05
1.459286594e-05
3.421503878e-05
6.711589344e-05
3.571998637e-05
1.088316281e-05
1.827546304e-06
1.219966576e-05
2.016878093e-05
3.959891422e-05
4.354664134e-05
4.467723029e-05
9.706789614e-06
6.782098011e-06
2.923004569e-05
4.213729956e-05
1.306301099e-05
2.108810765e-05
4.313384744e-05
5.834406238e-05
3.27755742e-05
0.0001678534384
0.0001549711049
8.579722961e-05
5.141598647e-05
4.744432702e-05
5.34862514e-05
5.45065766e-05
4.137213749e-05
1.881376304e-05
9.79318224e-06
4.532284706e-05
3.426093096e-05
1.08645426e-05
1.520571352e-05
3.742818212e-05
4.026205574e-05
5.664490072e-05
1.524748231e-05
3.526113276e-06
4.381112307e-06
1.004125544e-05
3.514990528e-05
8.02758778e-05
7.06383865e-05
7.072963422e-05
5.800404999e-05
7.723304848e-05
0.0001839132032
0.0001729379344
0.0001768795316
0.000132770971
8.405167961e-05
6.642558553e-05
6.830317424e-05
6.241807768e-05
3.621154571e-05
2.010030133e-05
5.3511666e-05
4.034896892e-05
4.881634687e-05
3.833887344e-05
4.411310305e-05
6.354215441e-05
2.64138293e-05
4.928574485e-06
4.057512145e-06
4.946229299e-06
3.83491911e-06
1.020586394e-05
3.343761329e-05
7.348596229e-05
8.45401761e-05
7.706125125e-05
5.281858117e-05
0.0001325089897
0.0001876262434
0.0002084728178
0.0001395988474
6.098732583e-05
3.425192353e-05
4.666345354e-05
3.725822637e-05
1.985838426e-05
4.845250988e-05
4.756035417e-05
6.392060065e-05
1.52055809e-05
3.939438997e-05
6.825888901e-05
3.235651299e-05
6.651736111e-06
4.116037397e-06
4.899165172e-06
4.959563459e-06
6.393467956e-06
1.52503112e-05
2.212968461e-05
1.072996055e-05
1.826961401e-05
6.38198898e-05
0.0001504411236
4.995605961e-05
0.0001050803773
7.447985776e-05
7.133461796e-05
5.329770636e-05
1.689760637e-05
3.042994283e-05
3.064523362e-05
5.276194479e-05
6.089303693e-05
5.69801799e-05
4.636817734e-05
5.055849519e-06
6.812577232e-05
2.875815037e-05
6.736452963e-06
3.614500921e-06
4.915842281e-06
3.676027707e-06
7.390536325e-06
1.429973453e-05
1.234294182e-05
2.171395301e-05
4.179969844e-05
5.804882088e-05
1.788056881e-05
7.150696802e-05
5.115798574e-05
4.704068989e-05
2.61789485e-05
5.596325528e-05
7.215865165e-05
5.947087073e-05
5.891392301e-05
4.163000555e-05
4.573161813e-05
6.340664955e-05
6.273294398e-05
1.433845377e-05
1.089244551e-06
2.366204086e-05
6.561109338e-06
3.970905993e-06
4.447409131e-06
3.952938168e-06
1.065854148e-05
4.055557384e-05
2.159629119e-05
7.82088915e-06
2.591390179e-05
4.959837113e-05
6.314985371e-05
3.22551362e-05
1.579258334e-05
3.106973028e-05
5.380704923e-05
4.916917317e-05
4.933059525e-05
4.900697482e-05
0.0001355073555
0.0002113880949
0.0002309001483
9.596889303e-05
2.958859537e-05
2.49167029e-05
1.48429376e-05
1.012857182e-06
4.747423791e-06
3.919264975e-06
5.472676595e-06
5.254143121e-06
4.870460802e-06
6.509346416e-06
2.858938407e-05
3.885957238e-05
9.344231893e-06
1.752057889e-05
4.598554392e-05
5.335308885e-05
2.81413303e-05
1.165119863e-05
2.325387768e-05
5.512595645e-05
8.854035959e-05
4.994564931e-05
2.523419091e-05
9.854457545e-05
0.0001869134677
0.000147832954
3.514765967e-05
1.129517812e-05
2.922681772e-05
7.047413329e-06
5.380338925e-07
4.04247999e-07
9.511933163e-07
5.130408388e-06
5.990857284e-06
6.286892888e-06
4.600718114e-06
1.349933754e-05
4.302567168e-05
3.869618095e-05
9.529179753e-06
2.744444974e-05
2.900169903e-05
1.523083703e-05
1.550576099e-05
7.105131907e-05
8.46569099e-05
5.272074009e-05
2.035463926e-05
1.490893565e-05
1.744426998e-05
4.359003499e-05
2.036096297e-05
8.952985396e-06
2.912603586e-05
1.363803762e-05
3.788154188e-06
4.168381043e-07
1.406418252e-06
4.517855406e-07
1.288911592e-06
5.078191008e-06
7.079421691e-06
5.93493608e-06
5.735624524e-06
1.74994586e-05
3.955343121e-05
3.051884758e-05
9.236975614e-06
8.21475092e-06
1.907584812e-05
9.40177478e-05
9.336460899e-05
5.378616729e-05
1.998463354e-05
7.045540865e-06
4.512186294e-06
5.904010594e-06
8.316130847e-06
5.43060032e-06
2.774866387e-05
1.473947158e-05
6.39798021e-06
3.829529626e-06
3.981012707e-07
3.635399401e-05
5.175212623e-06
5.914991427e-07
6.745842803e-07
5.439538612e-06
6.346919213e-06
5.993082449e-06
5.795559494e-06
1.410596057e-05
2.910372068e-05
8.487249567e-06
2.86036183e-05
5.905096561e-05
6.940274237e-05
4.735720817e-05
1.996170066e-05
7.131131605e-06
5.192976916e-06
3.858852155e-06
2.369132293e-06
1.287961259e-05
1.310918923e-05
9.833291476e-06
6.482879941e-06
6.413840169e-06
4.054601918e-06
3.937757165e-07
2.217541465e-05
2.035310371e-06
5.178849698e-07
2.015971047e-06
6.537594452e-06
6.486287335e-06
6.543322739e-06
5.723436202e-06
5.205654879e-06
1.01168076e-05
1.38812053e-05
3.957936203e-05
4.272561828e-05
3.140535133e-05
1.580514051e-05
6.54119851e-06
5.428565477e-06
6.22881846e-06
6.250820244e-06
3.380920587e-06
3.112660168e-06
5.517225593e-06
6.148772092e-06
6.72549264e-06
6.645049286e-06
4.188083605e-06
3.90303552e-07
3.084948814e-06
6.200536321e-06
1.193667244e-06
4.113005853e-07
2.334212285e-06
6.75938317e-06
6.725431776e-06
5.371478876e-06
4.719319883e-07
2.716290874e-06
5.443146857e-06
2.055162954e-05
1.540259328e-05
8.319838249e-06
5.659555315e-06
5.150131481e-06
6.325496861e-06
6.686766859e-06
6.830079994e-06
6.494162762e-06
4.807598789e-06
6.191123505e-06
7.055039122e-06
7.115610528e-06
6.927247937e-06
4.358634164e-06
3.880358016e-07
1.37030869e-06
6.454015715e-05
1.018326157e-05
1.312301312e-06
1.345841311e-06
5.131181174e-06
6.477024594e-06
1.398447359e-06
2.852221479e-06
5.285269282e-07
2.940882655e-06
6.658225509e-06
4.836051671e-06
4.49656789e-06
5.832206565e-06
6.271489651e-06
6.837206371e-06
7.056653707e-06
7.231688963e-06
7.327417582e-06
7.225348542e-06
7.242381095e-06
7.447078788e-06
7.445265479e-06
7.259022398e-06
4.494699239e-06
3.864709368e-07
1.234649111e-05
0.0001281348903
3.413000898e-05
4.149749425e-06
4.12171192e-07
1.08468306e-06
1.072541595e-06
6.869928891e-07
3.316506746e-05
4.708920949e-06
9.049077062e-07
2.623672524e-06
5.623713234e-06
6.102741515e-06
6.685779865e-06
6.846256955e-06
7.210318708e-06
7.407118511e-06
7.562656215e-06
7.663365107e-06
7.688554989e-06
7.686979417e-06
7.765994177e-06
7.785026649e-06
7.542338298e-06
4.597575818e-06
3.85426116e-07
1.079464466e-05
0.0001112992958
3.555181457e-05
1.40377106e-06
2.967140465e-06
1.112502043e-05
9.348031572e-07
1.17124744e-05
0.0002723666067
0.0001399073379
7.52687158e-06
1.512524363e-06
2.305001747e-06
6.452117239e-06
7.116592395e-06
7.180522752e-06
7.492868254e-06
7.676438997e-06
7.817815752e-06
7.906837562e-06
7.949679188e-06
7.973323029e-06
8.020463255e-06
8.033493767e-06
7.755527299e-06
4.671632819e-06
3.84736916e-07
2.716467679e-06
5.497907867e-05
1.283824615e-05
1.072886756e-06
1.567479478e-05
6.842311468e-07
8.569289385e-06
5.81385671e-05
0.0003566075679
0.0002909305512
7.065449242e-05
1.038149404e-05
1.185436104e-06
5.395333463e-07
3.667541763e-06
7.372851973e-06
7.760055327e-06
7.883508209e-06
7.999319558e-06
8.080934056e-06
8.131996366e-06
8.167631838e-06
8.200885143e-06
8.207375516e-06
7.90983901e-06
4.724742469e-06
3.842912576e-07
5.074146257e-06
1.600273155e-05
1.897905425e-06
6.266689195e-06
2.096542235e-05
3.598060479e-06
2.66348019e-06
1.662522835e-05
0.0002608140433
0.0001868474261
4.654094898e-05
2.153904811e-06
7.141803834e-06
6.212634952e-06
7.690645825e-06
7.445293131e-06
7.76652428e-06
7.960233542e-06
8.10223886e-06
8.189889039e-06
8.24575509e-06
8.284429054e-06
8.313391438e-06
8.316782394e-06
8.01253391e-06
4.761608262e-06
3.840100723e-07
1.792563206e-06
3.504769747e-06
1.243986604e-06
8.284487732e-06
9.15770675e-06
6.912129439e-06
1.382068182e-06
3.735740797e-06
7.120928213e-05
5.130905628e-05
5.958773275e-06
4.231262736e-06
7.45414761e-06
7.747470663e-06
7.826993792e-06
7.59075735e-06
7.742345281e-06
7.880495968e-06
7.988554616e-06
8.064371055e-06
8.117182404e-06
8.154847073e-06
8.18190977e-06
8.187674879e-06
7.916714954e-06
4.745420391e-06
3.838181058e-07
3.13462667e-06
8.345780622e-07
1.792697689e-06
4.987583112e-06
4.774988078e-06
4.40410996e-06
4.401873207e-06
1.084808046e-06
6.887526705e-06
2.203710662e-06
4.337328826e-06
4.589085914e-06
5.72632594e-06
4.916672389e-06
5.033183792e-06
5.097458811e-06
5.216001306e-06
5.295375395e-06
5.349451776e-06
5.386075165e-06
5.411287952e-06
5.42888124e-06
5.441048345e-06
5.446186198e-06
5.356407984e-06
3.764483437e-06
3.830518659e-07
5.02262648e-07
6.804174462e-07
5.019345608e-07
5.037290023e-07
4.962426586e-07
4.943556653e-07
5.065648694e-07
5.108465097e-07
2.368039361e-06
4.802000233e-06
9.7506222e-07
5.333503988e-07
4.981632747e-07
4.926755942e-07
4.920859661e-07
4.914504887e-07
4.912211312e-07
4.911025806e-07
4.910314972e-07
4.909762085e-07
4.909166865e-07
4.908459038e-07
4.907659511e-07
4.906833338e-07
4.90532999e-07
4.883277451e-07
3.76031464e-07
6.206888471e-05
6.30149398e-05
6.451736318e-05
6.712351537e-05
6.642878307e-05
6.765698515e-05
6.3212007e-05
6.623820266e-05
6.445065674e-05
6.471079134e-05
6.39612666e-05
6.34908348e-05
6.324079001e-05
6.325116041e-05
6.383439278e-05
6.110063107e-05
6.181964416e-05
6.18003007e-05
6.423817065e-05
6.662032143e-05
7.123134036e-05
7.689457748e-05
7.026335499e-05
4.383208457e-05
5.735677349e-05
7.569189478e-05
7.191683391e-05
7.377487995e-05
7.043961099e-05
6.943000421e-05
6.797088667e-05
6.748501649e-05
6.733572167e-05
6.821958499e-05
6.922095958e-05
7.090734166e-05
7.242445307e-05
7.05288861e-05
4.787068082e-05
8.005609034e-06
3.828618787e-07
6.455981118e-05
6.394442185e-05
6.159744758e-05
6.145285934e-05
6.092005634e-05
6.365961317e-05
6.707481333e-05
7.167535179e-05
6.581618574e-05
2.137982528e-05
3.259014251e-06
1.271308815e-05
3.985325362e-05
5.745053629e-05
7.25537686e-05
7.404892186e-05
7.403081163e-05
7.300873872e-05
7.122187104e-05
6.986091832e-05
6.978235165e-05
6.966367315e-05
6.996131538e-05
6.998081793e-05
6.68207603e-05
4.558626717e-05
8.258285211e-06
3.830183294e-07
6.368923279e-05
6.632244164e-05
6.434167039e-05
6.450864157e-05
6.469742651e-05
7.149048437e-05
7.750893805e-05
7.375199636e-05
2.912140274e-05
3.9695206e-06
7.840092975e-07
8.295047686e-06
1.94684202e-05
2.88964919e-05
6.402099779e-05
7.756237594e-05
8.347779405e-05
8.252204695e-05
7.979217251e-05
7.61438601e-05
7.628602341e-05
7.6558181e-05
7.549863331e-05
7.295734829e-05
6.749403674e-05
4.598161879e-05
8.622010845e-06
3.835355438e-07
5.765240808e-05
6.512181268e-05
6.343055485e-05
6.312965914e-05
7.047350477e-05
6.674507308e-05
2.877107322e-05
3.830932056e-06
9.33411841e-07
1.224261508e-06
2.933970253e-06
8.044590461e-06
1.224731438e-05
2.266202017e-05
4.823996308e-05
7.482334427e-05
8.886900579e-05
8.386440317e-05
6.324761948e-05
5.77517913e-05
7.679322218e-05
7.995182725e-05
7.732669622e-05
6.938429576e-05
4.676439089e-05
8.948254438e-06
3.844692221e-07
2.757559873e-05
6.231303284e-05
6.985662304e-05
7.021727071e-05
7.497099722e-05
3.239120106e-05
4.749904945e-06
8.058666268e-07
1.655488145e-06
7.124542193e-06
1.858754873e-06
3.411292139e-06
9.94919274e-06
1.978429555e-05
2.102817055e-05
4.152602086e-05
7.182858947e-05
7.121433651e-05
1.815326281e-05
1.23637395e-05
4.30763353e-05
7.487485895e-05
8.54201718e-05
7.822020296e-05
5.08490657e-05
9.450577382e-06
3.869419395e-07
5.063850139e-06
2.961248331e-05
5.971543959e-05
6.193483658e-05
3.830634066e-05
8.983072102e-06
1.64626856e-06
1.67061991e-06
9.705346973e-06
3.989447114e-05
1.383680293e-05
3.178710114e-06
3.416762042e-06
9.198667587e-06
1.220901955e-05
1.608673469e-05
2.264479826e-05
2.446179814e-05
2.053522419e-06
1.427489791e-06
7.997509345e-06
2.814557011e-05
6.806959254e-05
8.208188392e-05
5.496054783e-05
9.939237667e-06
3.900224846e-07
3.149576082e-06
8.385676068e-06
4.568648078e-05
5.726251144e-05
1.420801278e-05
3.415545685e-06
1.952868186e-06
1.843068237e-05
0.0001424059836
0.0001743108313
0.0001629977193
8.651362371e-05
1.391982361e-05
4.736481148e-06
9.288279499e-06
2.126149024e-05
9.509104962e-06
6.464659475e-06
1.041666061e-06
1.633795773e-06
4.290787481e-06
8.209662818e-06
1.729254868e-05
4.904511996e-05