/*--------------------------------*- C++ -*----------------------------------*\
  =========                 |
  \\      /  F ield         | OpenFOAM: The Open Source CFD Toolbox
   \\    /   O peration     | Website:  https://openfoam.org
    \\  /    A nd           | Version:  8
     \\/     M anipulation  |
\*---------------------------------------------------------------------------*/
FoamFile
{
    version     2.0;
    format      ascii;
    class       volScalarField;
    location    "0.3";
    object      p_rgh;
}
// * * * * * * * * * * * * * * * * * * * * * * * * * * * * * * * * * * * * * //

dimensions      [1 -1 -2 0 0 0 0];

internalField   nonuniform List<scalar> 
67451
(
100003.7819
100003.7829
100003.7839
100003.7853
100003.7863
100003.7884
100003.7881
100003.7879
100003.7872
100003.7869
100003.7868
100003.7781
100003.7786
100003.7794
100003.7804
100003.7816
100003.7832
100003.7847
100003.787
100003.7891
100003.7926
100003.7928
100003.7923
100003.7914
100003.791
100003.7909
100003.7914
100003.7922
100003.7935
100003.7955
100003.7979
100003.801
100003.805
100003.8108
100003.8212
100003.8301
100003.8539
100003.7767
100003.7769
100003.7767
100003.7773
100003.7782
100003.7795
100003.7809
100003.7828
100003.7847
100003.7875
100003.7898
100003.7918
100003.7961
100003.7962
100003.7951
100003.7946
100003.7949
100003.7958
100003.7973
100003.7991
100003.8017
100003.8045
100003.8077
100003.811
100003.8151
100003.8207
100003.8257
100003.8357
100003.7771
100003.7763
100003.7763
100003.7767
100003.7779
100003.7794
100003.781
100003.7832
100003.785
100003.7873
100003.787
100003.7865
100003.7957
100003.7988
100003.7994
100003.7988
100003.7992
100003.8002
100003.8019
100003.8038
100003.8068
100003.81
100003.813
100003.8157
100003.8184
100003.8214
100003.8242
100003.8283
100003.7761
100003.7765
100003.7761
100003.7776
100003.779
100003.7803
100003.7825
100003.7838
100003.7845
100003.7817
100003.7792
100003.7907
100003.7953
100003.7986
100003.8
100003.8015
100003.8038
100003.8061
100003.8079
100003.8117
100003.8157
100003.8188
100003.8207
100003.8224
100003.8239
100003.8252
100003.8269
100003.7753
100003.7774
100003.7762
100003.7785
100003.7798
100003.7809
100003.7824
100003.7824
100003.7836
100003.7808
100003.7858
100003.7922
100003.7939
100003.7962
100003.7995
100003.8032
100003.8076
100003.8102
100003.8111
100003.8153
100003.8199
100003.8237
100003.8247
100003.825
100003.8251
100003.8254
100003.8259
100003.7715
100003.7778
100003.7766
100003.7801
100003.7804
100003.7794
100003.7788
100003.7772
100003.7748
100003.7977
100003.7979
100003.7872
100003.7863
100003.7861
100003.7905
100003.7979
100003.8075
100003.8126
100003.8113
100003.813
100003.8172
100003.825
100003.8272
100003.8269
100003.8258
100003.8253
100003.8253
100003.7671
100003.7753
100003.7781
100003.7827
100003.7823
100003.7791
100003.7758
100003.7664
100003.8237
100003.9426
100003.9632
100003.8693
100003.8024
100003.7796
100003.7855
100003.7958
100003.8071
100003.8126
100003.8081
100003.8041
100003.8077
100003.8174
100003.8245
100003.8269
100003.8258
100003.8247
100003.8246
100003.7635
100003.7735
100003.7822
100003.7913
100003.7873
100003.7802
100003.7714
100003.7652
100003.8397
100003.9658
100003.9925
100003.9221
100003.8291
100003.7829
100003.7922
100003.8179
100003.8183
100003.8107
100003.8033
100003.7931
100003.7947
100003.8033
100003.8125
100003.8192
100003.8224
100003.8222
100003.8232
100003.7585
100003.7689
100003.7752
100003.7877
100003.7962
100003.7973
100003.7937
100003.7845
100003.7915
100003.8966
100003.9177
100003.8694
100003.8069
100003.8079
100003.83
100003.836
100003.8211
100003.8042
100003.7882
100003.7812
100003.7811
100003.7869
100003.7982
100003.808
100003.8154
100003.8193
100003.8235
100003.754
100003.7611
100003.7667
100003.7802
100003.796
100003.8048
100003.8003
100003.7945
100003.7837
100003.8012
100003.8214
100003.8137
100003.8185
100003.8343
100003.8388
100003.8353
100003.8318
100003.8175
100003.8175
100003.8242
100003.8078
100003.7753
100003.7772
100003.7903
100003.8025
100003.8115
100003.825
100003.7748
100003.7628
100003.761
100003.7718
100003.7893
100003.8088
100003.8121
100003.8021
100003.7947
100003.7833
100003.7983
100003.8418
100003.8525
100003.8561
100003.8985
100003.8984
100003.8759
100003.8838
100003.9316
100003.9807
100003.9774
100003.8931
100003.8045
100003.7649
100003.7767
100003.7962
100003.8296
100003.7666
100003.768
100003.7718
100003.7849
100003.7973
100003.8064
100003.8069
100003.8052
100003.8052
100003.8157
100003.8462
100003.8792
100003.8748
100003.8658
100003.9148
100003.9658
100003.9348
100003.9133
100003.9269
100003.9562
100003.9603
100003.8946
100003.8124
100003.7677
100003.7735
100003.802
100003.8694
100003.7613
100003.7679
100003.7769
100003.7891
100003.7983
100003.8041
100003.8045
100003.8071
100003.8087
100003.8214
100003.8394
100003.8675
100003.8665
100003.8611
100003.8821
100003.9237
100003.8925
100003.8785
100003.8578
100003.8859
100003.9011
100003.8412
100003.7869
100003.7711
100003.7862
100003.8106
100003.8541
100003.7607
100003.7723
100003.7824
100003.7925
100003.7962
100003.7977
100003.7955
100003.7983
100003.7998
100003.8098
100003.822
100003.8166
100003.8529
100003.8535
100003.8374
100003.8297
100003.8094
100003.8391
100003.8272
100003.8349
100003.8648
100003.859
100003.8121
100003.788
100003.7979
100003.8222
100003.8583
100003.7638
100003.7741
100003.7825
100003.7884
100003.7901
100003.7918
100003.7835
100003.785
100003.776
100003.8164
100003.8904
100003.8952
100003.8241
100003.8344
100003.8133
100003.8168
100003.7982
100003.8292
100003.8088
100003.9209
100003.9079
100003.8436
100003.7775
100003.7643
100003.7879
100003.815
100003.8355
100003.7731
100003.7802
100003.7838
100003.788
100003.7907
100003.7875
100003.7778
100003.7705
100003.7571
100003.8435
100003.9667
100003.967
100003.8754
100003.8127
100003.8049
100003.8306
100003.8121
100003.8252
100003.7915
100003.9067
100004.0608
100003.9999
100003.7605
100003.7305
100003.7902
100003.8372
100003.8661
100003.7755
100003.7719
100003.775
100003.7786
100003.7853
100003.7861
100003.7811
100003.7759
100003.7607
100003.8037
100003.9353
100003.9393
100003.8593
100003.7908
100003.772
100003.7961
100003.8017
100003.8161
100003.7837
100003.7891
100003.9915
100003.9626
100003.7411
100003.7476
100003.7993
100003.833
100003.8515
100003.7597
100003.7697
100003.7757
100003.78
100003.7847
100003.7882
100003.7839
100003.7772
100003.7654
100003.7551
100003.8338
100003.8372
100003.7848
100003.7568
100003.7585
100003.7744
100003.7835
100003.794
100003.7779
100003.7057
100003.7044
100003.7212
100003.7301
100003.7798
100003.8157
100003.8304
100003.8334
100003.7761
100003.7823
100003.7966
100003.785
100003.7832
100003.7834
100003.7824
100003.7772
100003.7683
100003.7531
100003.7533
100003.7594
100003.7526
100003.7508
100003.7563
100003.7689
100003.7784
100003.7835
100003.7726
100003.7368
100003.7165
100003.7341
100003.7757
100003.8013
100003.8124
100003.8114
100003.8093
100003.8376
100003.6999
100003.764
100003.7765
100003.7793
100003.7786
100003.7795
100003.7772
100003.7702
100003.7593
100003.7425
100003.7393
100003.7467
100003.7499
100003.7578
100003.769
100003.7748
100003.7754
100003.7701
100003.7604
100003.7541
100003.7603
100003.7905
100003.799
100003.7976
100003.7928
100003.7904
100004.0166
100003.8831
100003.9034
100003.8486
100003.8128
100003.7908
100003.7811
100003.7742
100003.7708
100003.7627
100003.7526
100003.7381
100003.7517
100003.7557
100003.7634
100003.769
100003.7695
100003.7683
100003.7665
100003.7672
100003.771
100003.7772
100003.786
100003.7849
100003.7811
100003.7773
100003.7757
100004.194
100004.1024
100003.8809
100003.8299
100003.7983
100003.7782
100003.7701
100003.7657
100003.7653
100003.7664
100003.7599
100003.7521
100003.7601
100003.7621
100003.765
100003.7649
100003.7631
100003.7617
100003.7608
100003.7621
100003.7656
100003.7721
100003.7721
100003.7703
100003.7677
100003.7655
100003.7645
100004.0867
100004.0895
100003.825
100003.8146
100003.799
100003.7829
100003.7773
100003.7719
100003.7679
100003.778
100003.7661
100003.7655
100003.765
100003.763
100003.7613
100003.7592
100003.7574
100003.7561
100003.7555
100003.756
100003.7577
100003.761
100003.7601
100003.7591
100003.7578
100003.7566
100003.7561
100003.9505
100004.2519
100003.8712
100003.7298
100003.7576
100003.7502
100003.7572
100003.7486
100003.7322
100003.748
100003.753
100003.763
100003.7585
100003.7575
100003.7563
100003.7548
100003.7533
100003.7519
100003.7511
100003.7509
100003.7513
100003.7525
100003.752
100003.7514
100003.7507
100003.75
100003.7498
100003.8225
100004.5
100003.9704
100003.6708
100003.7238
100003.7735
100003.7971
100003.7515
100003.7657
100003.7451
100003.7183
100003.752
100003.7631
100003.7606
100003.7581
100003.7534
100003.7508
100003.7489
100003.7477
100003.747
100003.7467
100003.7468
100003.7464
100003.746
100003.7455
100003.7452
100003.745
100003.7585
100004.1351
100003.8368
100003.814
100003.8545
100003.8491
100003.8235
100003.7501
100003.9054
100003.9384
100003.7609
100003.7176
100003.7423
100003.7541
100003.7534
100003.7508
100003.7487
100003.7468
100003.7453
100003.7442
100003.7435
100003.7431
100003.7426
100003.7422
100003.7418
100003.7416
100003.7415
100003.7913
100003.7919
100003.7683
100003.8413
100003.8577
100003.8512
100003.8294
100003.7566
100003.9016
100004.004
100003.8049
100003.7066
100003.7582
100003.7711
100003.7663
100003.7567
100003.7505
100003.7464
100003.744
100003.7424
100003.7413
100003.7406
100003.74
100003.7396
100003.7392
100003.739
100003.7389
100003.8487
100003.8109
100003.8191
100003.8606
100003.8457
100003.829
100003.8117
100003.7842
100003.7593
100003.7596
100003.7881
100003.7849
100003.7862
100003.7741
100003.7626
100003.754
100003.7488
100003.7453
100003.7428
100003.7411
100003.7399
100003.739
100003.7383
100003.7378
100003.7374
100003.7372
100003.7371
100003.8623
100003.8874
100003.8477
100003.8564
100003.8269
100003.8171
100003.8001
100003.7982
100003.7646
100003.7404
100003.8158
100003.7984
100003.787
100003.7727
100003.7622
100003.7538
100003.7483
100003.7446
100003.7421
100003.7403
100003.7389
100003.738
100003.7372
100003.7367
100003.7363
100003.736
100003.7359
100003.8548
100003.914
100003.8494
100003.8515
100003.8196
100003.8143
100003.7977
100003.8075
100003.7897
100003.8688
100003.8417
100003.8114
100003.7878
100003.7712
100003.7608
100003.7531
100003.748
100003.7443
100003.7418
100003.7399
100003.7385
100003.7375
100003.7367
100003.7362
100003.7358
100003.7355
100003.7354
100003.7805
100003.7813
100003.7822
100003.7831
100003.7837
100003.7844
100003.7848
100003.7852
100003.7852
100003.7853
100003.7855
100003.7761
100003.7768
100003.7778
100003.7789
100003.7802
100003.7815
100003.7827
100003.7839
100003.7848
100003.786
100003.7871
100003.7882
100003.7884
100003.7888
100003.7892
100003.7899
100003.7909
100003.7922
100003.7938
100003.7953
100003.7968
100003.7979
100003.7985
100003.7995
100003.7974
100003.8001
100003.7731
100003.7737
100003.7743
100003.7751
100003.7763
100003.7775
100003.7788
100003.7803
100003.7813
100003.7822
100003.7819
100003.7786
100003.784
100003.7872
100003.7891
100003.7906
100003.7921
100003.7938
100003.7957
100003.7979
100003.8005
100003.8032
100003.8059
100003.8083
100003.8101
100003.8117
100003.812
100003.8139
100003.771
100003.7716
100003.7728
100003.7739
100003.7755
100003.777
100003.7785
100003.7797
100003.7802
100003.7789
100003.775
100003.7667
100003.7748
100003.785
100003.7907
100003.7938
100003.7957
100003.7977
100003.7998
100003.802
100003.8049
100003.808
100003.811
100003.8134
100003.8153
100003.8168
100003.8179
100003.8191
100003.7688
100003.7718
100003.7722
100003.7742
100003.7753
100003.7759
100003.7767
100003.7747
100003.7691
100003.7597
100003.7566
100003.751
100003.7625
100003.7795
100003.7891
100003.7951
100003.7995
100003.8027
100003.8052
100003.8083
100003.8119
100003.8157
100003.8184
100003.8206
100003.822
100003.823
100003.8239
100003.7641
100003.7704
100003.7706
100003.7736
100003.7744
100003.7744
100003.7731
100003.7655
100003.7601
100003.7582
100003.778
100003.7597
100003.7537
100003.7627
100003.783
100003.7944
100003.8019
100003.8056
100003.8069
100003.809
100003.8123
100003.8165
100003.8193
100003.8214
100003.8226
100003.8233
100003.8238
100003.7529
100003.7681
100003.7682
100003.7721
100003.7715
100003.7667
100003.7614
100003.7504
100003.7564
100003.7684
100003.7692
100003.7635
100003.7553
100003.7434
100003.7536
100003.7774
100003.7967
100003.8046
100003.804
100003.8006
100003.8015
100003.8086
100003.8148
100003.8187
100003.8207
100003.8218
100003.8224
100003.7363
100003.7592
100003.7651
100003.7702
100003.7679
100003.7572
100003.7478
100003.7446
100003.7676
100003.7895
100003.8143
100003.7994
100003.7817
100003.7623
100003.7514
100003.759
100003.7839
100003.8007
100003.7942
100003.7798
100003.7764
100003.7871
100003.8031
100003.8133
100003.8173
100003.819
100003.82
100003.7159
100003.7446
100003.7573
100003.7664
100003.756
100003.7381
100003.7448
100003.7494
100003.7658
100003.7962
100003.8119
100003.7835
100003.7621
100003.759
100003.7424
100003.7431
100003.7651
100003.7842
100003.7705
100003.7581
100003.7511
100003.7448
100003.7629
100003.7883
100003.804
100003.8098
100003.8132
100003.7256
100003.7288
100003.743
100003.7618
100003.7656
100003.7584
100003.7367
100003.7349
100003.7507
100003.7537
100003.7743
100003.7517
100003.7587
100003.7409
100003.7442
100003.7697
100003.7524
100003.7668
100003.7464
100003.7535
100003.7523
100003.7424
100003.7344
100003.7554
100003.7841
100003.8001
100003.8077
100003.7372
100003.7391
100003.73
100003.7514
100003.7665
100003.7712
100003.7593
100003.7356
100003.7452
100003.7589
100003.7572
100003.7452
100003.7344
100003.734
100003.7614
100003.7599
100003.748
100003.758
100003.7607
100003.7614
100003.7562
100003.7488
100003.7386
100003.725
100003.7459
100003.7717
100003.7935
100003.7498
100003.7547
100003.7409
100003.7359
100003.7491
100003.7767
100003.7775
100003.7632
100003.7423
100003.7411
100003.7511
100003.7452
100003.761
100003.8051
100003.8135
100003.8169
100003.7864
100003.8017
100003.7921
100003.7994
100003.7938
100003.7732
100003.7609
100003.7479
100003.7296
100003.7391
100003.7747
100003.7424
100003.7457
100003.7234
100003.7416
100003.7693
100003.7852
100003.7888
100003.7865
100003.7722
100003.7613
100003.7616
100003.7775
100003.7711
100003.7721
100003.781
100003.8135
100003.7952
100003.7946
100003.8075
100003.8005
100003.7943
100003.7695
100003.7512
100003.7444
100003.7372
100003.7055
100003.7494
100003.7392
100003.7242
100003.7282
100003.7615
100003.7805
100003.7901
100003.7921
100003.7963
100003.7909
100003.7835
100003.7771
100003.7749
100003.7922
100003.7724
100003.7704
100003.7879
100003.7725
100003.7573
100003.7522
100003.7617
100003.7548
100003.7374
100003.7278
100003.7213
100003.6929
100003.7117
100003.7643
100003.7179
100003.7266
100003.7549
100003.7772
100003.7828
100003.7864
100003.7838
100003.7855
100003.7748
100003.7687
100003.7648
100003.7491
100003.7508
100003.7636
100003.7535
100003.7522
100003.7396
100003.7313
100003.7211
100003.7042
100003.6982
100003.6942
100003.6992
100003.675
100003.6868
100003.7418
100003.7846
100003.7159
100003.7458
100003.7682
100003.7777
100003.7795
100003.781
100003.7711
100003.7676
100003.7495
100003.7796
100003.7831
100003.7895
100003.7527
100003.748
100003.7434
100003.7294
100003.7193
100003.7196
100003.7473
100003.743
100003.8102
100003.7446
100003.7148
100003.6938
100003.7261
100003.7697
100003.7876
100003.7339
100003.7535
100003.7676
100003.7723
100003.773
100003.7682
100003.742
100003.7415
100003.7394
100003.7723
100003.7924
100003.8008
100003.7572
100003.7389
100003.7129
100003.7119
100003.7085
100003.7345
100003.7062
100003.7256
100003.7276
100003.6734
100003.6417
100003.5736
100003.6315
100003.7465
100003.7793
100003.7218
100003.7258
100003.7528
100003.758
100003.7645
100003.7621
100003.7378
100003.7253
100003.7288
100003.7526
100003.7641
100003.7903
100003.7508
100003.7449
100003.7175
100003.705
100003.719
100003.7579
100003.6831
100003.7089
100003.7132
100003.7776
100003.7129
100003.6295
100003.6361
100003.7416
100003.7701
100003.6785
100003.6958
100003.7378
100003.7503
100003.7613
100003.763
100003.7489
100003.722
100003.711
100003.7388
100003.7436
100003.7617
100003.7344
100003.7372
100003.6965
100003.697
100003.7235
100003.758
100003.709
100003.6741
100003.6528
100003.6929
100003.6018
100003.5727
100003.6824
100003.7532
100003.7706
100003.5722
100003.5875
100003.7185
100003.7263
100003.7503
100003.7558
100003.7543
100003.7397
100003.7107
100003.7133
100003.7303
100003.7426
100003.7256
100003.7206
100003.6872
100003.7101
100003.7439
100003.7595
100003.7348
100003.6917
100003.6221
100003.6512
100003.5916
100003.6735
100003.7339
100003.7602
100003.7681
100003.4827
100003.4771
100003.6806
100003.7146
100003.7444
100003.7534
100003.7563
100003.7521
100003.7346
100003.7136
100003.711
100003.7326
100003.7096
100003.6924
100003.6965
100003.7334
100003.7533
100003.758
100003.7444
100003.7243
100003.6727
100003.6504
100003.6862
100003.7276
100003.7512
100003.7612
100003.7648
100003.237
100003.3199
100003.6513
100003.6993
100003.7368
100003.7477
100003.7519
100003.7509
100003.7439
100003.7305
100003.7113
100003.7091
100003.6987
100003.7045
100003.7309
100003.7501
100003.7567
100003.7562
100003.7512
100003.7426
100003.7317
100003.7257
100003.7376
100003.7462
100003.7551
100003.7574
100003.7598
100003.4293
100003.5352
100003.6788
100003.7178
100003.7415
100003.7468
100003.7488
100003.7475
100003.7381
100003.7365
100003.7276
100003.7117
100003.7196
100003.7342
100003.7472
100003.7531
100003.7543
100003.7531
100003.7502
100003.7465
100003.7421
100003.742
100003.7457
100003.7499
100003.7529
100003.7537
100003.7549
100003.598
100003.6825
100003.6885
100003.6758
100003.7212
100003.73
100003.7375
100003.7438
100003.7319
100003.7457
100003.7306
100003.7297
100003.7371
100003.743
100003.7489
100003.7505
100003.7509
100003.7501
100003.7486
100003.7468
100003.7458
100003.7453
100003.747
100003.7478
100003.7495
100003.7498
100003.7503
100003.6418
100003.6776
100003.6533
100003.6115
100003.6798
100003.7034
100003.7211
100003.7217
100003.6761
100003.6827
100003.6997
100003.7192
100003.7313
100003.7407
100003.746
100003.7475
100003.748
100003.7475
100003.7465
100003.7455
100003.7448
100003.7447
100003.7451
100003.7454
100003.746
100003.7461
100003.7463
100003.6345
100003.7046
100003.8095
100003.6312
100003.5812
100003.6085
100003.6949
100003.7127
100003.6637
100003.7293
100003.6718
100003.7071
100003.7218
100003.7346
100003.7433
100003.7439
100003.7453
100003.745
100003.7444
100003.7437
100003.7431
100003.7428
100003.7428
100003.7427
100003.7429
100003.7429
100003.7429
100003.574
100003.5649
100003.6366
100003.4709
100003.5732
100003.6733
100003.6786
100003.6796
100003.624
100003.6578
100003.5869
100003.6241
100003.6892
100003.7223
100003.7374
100003.7415
100003.7435
100003.7433
100003.7427
100003.742
100003.7413
100003.7409
100003.7406
100003.7403
100003.7402
100003.7401
100003.74
100003.5979
100003.5137
100003.5968
100003.5104
100003.6787
100003.7119
100003.7148
100003.6726
100003.6819
100003.725
100003.6538
100003.6413
100003.6548
100003.715
100003.7382
100003.7401
100003.7427
100003.7421
100003.7415
100003.7406
100003.7398
100003.7391
100003.7387
100003.7383
100003.738
100003.7379
100003.7378
100003.712
100003.5963
100003.6402
100003.6938
100003.7378
100003.7452
100003.7376
100003.6835
100003.6659
100003.6535
100003.6131
100003.6188
100003.7078
100003.7266
100003.7414
100003.7421
100003.7426
100003.7418
100003.7407
100003.7396
100003.7386
100003.7378
100003.7373
100003.7368
100003.7365
100003.7363
100003.7362
100003.7673
100003.7334
100003.7391
100003.7545
100003.7592
100003.7591
100003.7492
100003.7193
100003.6958
100003.6217
100003.6455
100003.6867
100003.7297
100003.7361
100003.7439
100003.7428
100003.7425
100003.7414
100003.7401
100003.7389
100003.7378
100003.737
100003.7363
100003.7358
100003.7355
100003.7353
100003.7352
100003.7859
100003.7887
100003.7683
100003.7799
100003.7693
100003.7681
100003.7572
100003.7376
100003.726
100003.6631
100003.7122
100003.7222
100003.743
100003.7423
100003.7453
100003.7442
100003.743
100003.7415
100003.7399
100003.7386
100003.7375
100003.7366
100003.7359
100003.7354
100003.735
100003.7348
100003.7347
100003.7788
100003.7803
100003.7815
100003.7829
100003.7842
100003.7851
100003.7859
100003.7859
100003.7859
100003.7855
100003.7853
100003.7853
100003.7856
100003.7862
100003.7873
100003.7743
100003.7754
100003.7767
100003.7783
100003.7801
100003.7819
100003.7837
100003.7856
100003.7868
100003.7882
100003.7886
100003.7889
100003.7887
100003.7887
100003.7888
100003.7893
100003.7903
100003.7916
100003.7935
100003.7955
100003.7973
100003.7992
100003.8007
100003.804
100003.8054
100003.8114
100003.7707
100003.7717
100003.7727
100003.7741
100003.7758
100003.7778
100003.78
100003.7825
100003.7848
100003.7875
100003.789
100003.7906
100003.7912
100003.7918
100003.7918
100003.7921
100003.7928
100003.7941
100003.7961
100003.7988
100003.8022
100003.806
100003.8097
100003.8126
100003.8156
100003.8182
100003.8192
100003.8214
100003.7688
100003.7701
100003.7714
100003.7731
100003.7752
100003.7774
100003.7799
100003.7824
100003.7848
100003.7872
100003.7888
100003.7913
100003.7932
100003.7942
100003.7947
100003.7951
100003.796
100003.7975
100003.7997
100003.8023
100003.8058
100003.8095
100003.8132
100003.8157
100003.8177
100003.8188
100003.8196
100003.8209
100003.7684
100003.7703
100003.7722
100003.7747
100003.7773
100003.7803
100003.7837
100003.7866
100003.7905
100003.7921
100003.7952
100003.796
100003.7966
100003.7973
100003.7977
100003.7988
100003.8007
100003.8036
100003.8072
100003.8119
100003.8168
100003.8222
100003.8251
100003.8272
100003.8281
100003.8285
100003.8289
100003.7672
100003.7695
100003.7716
100003.7745
100003.7769
100003.7798
100003.782
100003.7852
100003.7853
100003.7884
100003.7938
100003.7984
100003.7992
100003.7998
100003.7999
100003.8008
100003.8025
100003.805
100003.8074
100003.8112
100003.8155
100003.8202
100003.823
100003.8251
100003.8259
100003.8264
100003.8266
100003.7654
100003.7692
100003.7714
100003.775
100003.7779
100003.7811
100003.7847
100003.7875
100003.7911
100003.7945
100003.7988
100003.8039
100003.7963
100003.8028
100003.8019
100003.8026
100003.8041
100003.8068
100003.8087
100003.8118
100003.8154
100003.8199
100003.8227
100003.8248
100003.8258
100003.8264
100003.8267
100003.7659
100003.7696
100003.772
100003.7758
100003.7775
100003.7818
100003.78
100003.7916
100003.7763
100003.792
100003.8041
100003.8099
100003.8086
100003.8051
100003.8045
100003.8034
100003.8026
100003.8032
100003.8028
100003.8031
100003.8075
100003.812
100003.8159
100003.8189
100003.8205
100003.8216
100003.8223
100003.7644
100003.7704
100003.774
100003.7786
100003.7809
100003.7847
100003.7888
100003.7917
100003.7914
100003.8049
100003.8148
100003.8258
100003.8054
100003.8054
100003.808
100003.8074
100003.8048
100003.8068
100003.8062
100003.8047
100003.8051
100003.8056
100003.8087
100003.8123
100003.8143
100003.8158
100003.8171
100003.7664
100003.7725
100003.7776
100003.7809
100003.7841
100003.7875
100003.7891
100003.7928
100003.7883
100003.7889
100003.7989
100003.7956
100003.8072
100003.8115
100003.8099
100003.8096
100003.7978
100003.7893
100003.7902
100003.7809
100003.7903
100003.7957
100003.7978
100003.8023
100003.8059
100003.8084
100003.8108
100003.7661
100003.7729
100003.7797
100003.7833
100003.7879
100003.7922
100003.7972
100003.8004
100003.8077
100003.8052
100003.8071
100003.8163
100003.8193
100003.8214
100003.8312
100003.8219
100003.8164
100003.8171
100003.8079
100003.7932
100003.786
100003.7816
100003.7871
100003.7958
100003.8005
100003.8025
100003.8055
100003.7674
100003.7778
100003.7844
100003.7879
100003.7902
100003.7955
100003.8006
100003.8048
100003.8129
100003.8161
100003.8268
100003.8323
100003.8223
100003.8495
100003.8079
100003.8234
100003.8111
100003.8115
100003.8026
100003.79
100003.78
100003.7698
100003.7695
100003.7823
100003.7917
100003.7943
100003.8003
100003.785
100003.7853
100003.7916
100003.7913
100003.7945
100003.7982
100003.8042
100003.8118
100003.8256
100003.8374
100003.8611
100003.8558
100003.8326
100003.8484
100003.8157
100003.8361
100003.8233
100003.8318
100003.82
100003.8155
100003.805
100003.7921
100003.7729
100003.781
100003.7895
100003.7939
100003.7981
100003.7951
100003.7959
100003.7962
100003.7949
100003.7956
100003.7977
100003.8015
100003.8065
100003.8141
100003.8153
100003.8272
100003.8355
100003.8299
100003.8374
100003.7946
100003.8125
100003.8047
100003.7917
100003.8084
100003.7928
100003.7894
100003.7626
100003.7712
100003.776
100003.7861
100003.7864
100003.7944
100003.8124
100003.798
100003.7993
100003.7953
100003.7946
100003.7959
100003.7987
100003.806
100003.8127
100003.8348
100003.8481
100003.849
100003.8334
100003.8295
100003.805
100003.7987
100003.7977
100003.7997
100003.8063
100003.7961
100003.7879
100003.7606
100003.7751
100003.7736
100003.7797
100003.7848
100003.7925
100003.7916
100003.7829
100003.7902
100003.7867
100003.7878
100003.7879
100003.7891
100003.7919
100003.7981
100003.7906
100003.806
100003.8132
100003.8269
100003.8181
100003.7958
100003.7923
100003.7951
100003.7572
100003.814
100003.7028
100003.7964
100003.7742
100003.7762
100003.771
100003.7777
100003.7818
100003.7874
100003.7712
100003.7651
100003.7797
100003.7769
100003.7813
100003.7822
100003.7834
100003.7881
100003.79
100003.7973
100003.81
100003.8182
100003.8145
100003.8006
100003.7931
100003.7854
100003.7958
100003.7638
100003.8336
100003.7338
100003.8063
100003.744
100003.7333
100003.7544
100003.7662
100003.7783
100003.7857
100003.7428
100003.7305
100003.7626
100003.7574
100003.7706
100003.7708
100003.7728
100003.7761
100003.7719
100003.7732
100003.7785
100003.795
100003.7918
100003.7781
100003.7817
100003.7787
100003.7735
100003.7621
100003.7641
100003.6983
100003.7546
100003.7384
100003.7618
100003.7762
100003.7752
100003.7798
100003.7835
100003.6686
100003.6788
100003.7435
100003.7419
100003.7642
100003.7648
100003.7689
100003.7708
100003.7712
100003.771
100003.7632
100003.7765
100003.7708
100003.7729
100003.7742
100003.7718
100003.771
100003.7644
100003.7702
100003.7299
100003.7455
100003.7473
100003.7661
100003.7632
100003.7685
100003.7748
100003.7781
100003.6545
100003.6676
100003.747
100003.7268
100003.7585
100003.7551
100003.7618
100003.7628
100003.7604
100003.7638
100003.7524
100003.7576
100003.7617
100003.7674
100003.766
100003.7651
100003.7646
100003.7622
100003.7589
100003.7409
100003.7507
100003.758
100003.7599
100003.7643
100003.7674
100003.7701
100003.7719
100003.4568
100003.5068
100003.6967
100003.6998
100003.7493
100003.7493
100003.7588
100003.7608
100003.7607
100003.7626
100003.7603
100003.7622
100003.7593
100003.7619
100003.7593
100003.7602
100003.7595
100003.7592
100003.7568
100003.7504
100003.7509
100003.7551
100003.7565
100003.7607
100003.7624
100003.7645
100003.7653
100003.6813
100003.6502
100003.7725
100003.7307
100003.7641
100003.7549
100003.759
100003.7586
100003.7558
100003.7586
100003.7543
100003.7573
100003.755
100003.7562
100003.7552
100003.7564
100003.756
100003.7556
100003.7544
100003.7524
100003.7521
100003.7543
100003.7553
100003.757
100003.7579
100003.7586
100003.759
100003.6976
100003.6909
100003.7356
100003.7362
100003.7562
100003.7513
100003.7557
100003.7568
100003.7552
100003.7576
100003.7517
100003.7547
100003.7515
100003.753
100003.7522
100003.7528
100003.7521
100003.7519
100003.7506
100003.7506
100003.7495
100003.7516
100003.7514
100003.7526
100003.7529
100003.753
100003.7531
100003.7734
100003.7755
100003.7872
100003.7706
100003.7733
100003.7647
100003.7603
100003.7628
100003.7426
100003.7614
100003.7495
100003.7559
100003.7513
100003.7507
100003.75
100003.7496
100003.7489
100003.7486
100003.7477
100003.7476
100003.7472
100003.748
100003.7478
100003.7481
100003.7481
100003.748
100003.748
100003.7761
100003.8124
100003.7744
100003.7601
100003.7643
100003.7553
100003.7548
100003.7646
100003.771
100003.771
100003.7447
100003.7518
100003.7442
100003.7474
100003.7468
100003.7468
100003.7462
100003.7456
100003.7449
100003.7446
100003.7442
100003.7444
100003.7442
100003.7441
100003.744
100003.7438
100003.7438
100003.7854
100003.8691
100003.8088
100003.803
100003.7811
100003.7776
100003.7557
100003.7748
100003.6981
100003.7708
100003.7491
100003.7638
100003.7483
100003.7496
100003.7479
100003.7454
100003.7443
100003.7433
100003.7425
100003.742
100003.7415
100003.7413
100003.741
100003.7408
100003.7406
100003.7405
100003.7405
100003.7837
100003.784
100003.7535
100003.7732
100003.7707
100003.7715
100003.7407
100003.7758
100003.7013
100003.7843
100003.7279
100003.7465
100003.7363
100003.7444
100003.7432
100003.7429
100003.7424
100003.7415
100003.7407
100003.7399
100003.7394
100003.7389
100003.7386
100003.7383
100003.7381
100003.738
100003.7379
100003.7932
100003.7445
100003.7898
100003.7683
100003.7803
100003.7817
100003.7489
100003.793
100003.6784
100003.8122
100003.6978
100003.7672
100003.7394
100003.7495
100003.7475
100003.7439
100003.7424
100003.7406
100003.7394
100003.7385
100003.7378
100003.7372
100003.7368
100003.7364
100003.7362
100003.736
100003.736
100003.7923
100003.7613
100003.7852
100003.7743
100003.7773
100003.7741
100003.7557
100003.7642
100003.7137
100003.7413
100003.7329
100003.7504
100003.7456
100003.7463
100003.7455
100003.7431
100003.7415
100003.7398
100003.7385
100003.7375
100003.7367
100003.736
100003.7355
100003.7351
100003.7348
100003.7346
100003.7345
100003.7957
100003.7891
100003.7892
100003.7835
100003.7786
100003.7781
100003.761
100003.7737
100003.7349
100003.7777
100003.7473
100003.7592
100003.7532
100003.7495
100003.7476
100003.7434
100003.7412
100003.7394
100003.738
100003.7369
100003.736
100003.7353
100003.7347
100003.7342
100003.7339
100003.7337
100003.7336
100003.7971
100003.7956
100003.7906
100003.7868
100003.7787
100003.7777
100003.7637
100003.7709
100003.7503
100003.7687
100003.7564
100003.7586
100003.7545
100003.7495
100003.747
100003.7435
100003.7411
100003.7392