/*--------------------------------*- C++ -*----------------------------------*\
  =========                 |
  \\      /  F ield         | OpenFOAM: The Open Source CFD Toolbox
   \\    /   O peration     | Website:  https://openfoam.org
    \\  /    A nd           | Version:  8
     \\/     M anipulation  |
\*---------------------------------------------------------------------------*/
FoamFile
{
    version     2.0;
    format      ascii;
    class       surfaceScalarField;
    location    "0.3";
    object      phi;
}
// * * * * * * * * * * * * * * * * * * * * * * * * * * * * * * * * * * * * * //

dimensions      [1 0 -1 0 0 0 0];

internalField   nonuniform List<scalar> 
197859
(
-1.129941296e-07
-1.227222263e-07
1.193842406e-06
-4.793490647e-07
-3.781354737e-07
1.300151029e-06
-8.097184156e-07
-9.426144823e-07
1.365475793e-06
-1.21024855e-06
-1.624006343e-06
1.621716888e-06
-1.317949716e-06
-2.56019708e-06
1.718449076e-06
-5.970354121e-07
-5.05117746e-06
2.2868752e-06
-3.14538946e-07
-3.912340822e-06
1.929918615e-06
-4.068656827e-07
-3.394415897e-06
1.858158453e-06
-6.214581046e-07
-2.722947516e-06
1.600038768e-06
-9.39928515e-07
-2.273147673e-06
1.472752585e-06
-1.931523017e-06
1.357083327e-06
6.913105183e-07
-6.953195868e-07
1.212768102e-06
3.805522259e-07
-8.334450785e-07
1.266618629e-06
9.214371619e-08
-6.431727727e-07
1.184620247e-06
-2.88450187e-07
-7.795808639e-07
1.26153576e-06
-6.595203916e-07
-1.034634623e-06
1.282693269e-06
-1.186211789e-06
-1.310068787e-06
1.458313714e-06
-1.694370499e-06
-2.046424176e-06
1.611636927e-06
-2.391110463e-06
-3.019125343e-06
2.091508577e-06
-2.434236014e-06
-4.899939578e-06
2.382500207e-06
-5.273721035e-07
-1.069350505e-05
3.735080502e-06
4.787261713e-07
-7.835822781e-06
2.916985902e-06
3.172380692e-07
-5.879052394e-06
2.64571382e-06
2.57440763e-08
-4.524519585e-06
2.092642852e-06
-4.22242227e-07
-3.664658197e-06
1.839061037e-06
-8.02387869e-07
-3.17861665e-06
1.626789948e-06
-1.174841444e-06
-2.709819978e-06
1.520232507e-06
-1.515616077e-06
-2.36260694e-06
1.470407899e-06
-1.87725805e-06
-1.93507058e-06
1.477384098e-06
-2.18996191e-06
-1.597616673e-06
1.544234435e-06
-2.511257752e-06
-1.076058349e-06
1.664217504e-06
-2.862331486e-06
-3.719659916e-07
1.844317625e-06
-3.249972376e-06
5.577391144e-07
2.12504988e-06
-3.629006938e-06
1.716598132e-06
2.545743629e-06
-3.682801228e-06
3.188097062e-06
3.15154653e-06
-3.325291423e-06
4.701019659e-06
3.843369907e-06
7.217287105e-06
4.937227835e-06
1.563702884e-06
-2.763271123e-06
1.659291267e-06
1.254547193e-06
-2.964271262e-06
1.792217819e-06
9.710836391e-07
-1.832198286e-06
1.420179536e-06
5.533235311e-07
-1.889857948e-06
1.47398642e-06
1.891015016e-07
-1.636202908e-06
1.357041356e-06
-3.252989881e-07
-1.764841468e-06
1.499426009e-06
-8.722634909e-07
-2.074480573e-06
1.586551472e-06
-1.779365027e-06
-2.363050416e-06
1.959801053e-06
-2.8334647e-06
-3.335016582e-06
2.342387937e-06
-4.338233521e-06
-4.882853474e-06
3.368172171e-06
-4.065091642e-06
-9.231468015e-06
4.058043955e-06
-2.65298458e-07
-2.013128272e-05
5.637630662e-06
2.036560404e-06
-1.548899781e-05
5.350940422e-06
1.589380534e-06
-1.018744333e-05
4.755177345e-06
8.625884803e-07
-7.249051782e-06
3.450915552e-06
1.153811466e-07
-5.653915237e-06
2.736040113e-06
-3.633816007e-07
-4.926485679e-06
2.226190605e-06
-7.613564451e-07
-4.229393939e-06
1.917088915e-06
-1.105772959e-06
-3.746152084e-06
1.727481431e-06
-1.443226576e-06
-3.218974848e-06
1.620856073e-06
-1.61135525e-06
-3.028988627e-06
1.598976743e-06
-1.698255404e-06
-2.594531319e-06
1.6048279e-06
-1.772964455e-06
-1.917270386e-06
1.619449302e-06
-1.88129976e-06
-1.023123937e-06
1.688619508e-06
-1.947669586e-06
-6.006564716e-08
1.842444977e-06
-1.823185009e-06
9.724827992e-07
2.090534943e-06
-1.438490748e-06
1.926652704e-06
2.389074946e-06
3.030072313e-06
2.74812168e-06
2.47192565e-06
2.466439523e-06
1.73509905e-06
-4.712787971e-06
2.48524102e-06
1.220165222e-06
-3.132561017e-06
1.815170228e-06
4.541396997e-07
-2.929186211e-06
1.8052029e-06
-1.563641254e-07
-2.636497408e-06
1.610622404e-06
-9.451680414e-07
-2.764058606e-06
1.787820091e-06
-1.786800821e-06
-3.179198584e-06
1.946124987e-06
-3.085983961e-06
-3.583245311e-06
2.519127987e-06
-4.685846228e-06
-4.992492023e-06
3.257064242e-06
-6.294428392e-06
-8.153037534e-06
4.878472069e-06
-3.995593297e-06
-1.620128883e-05
4.670678355e-06
2.030803232e-06
-2.899682224e-05
2.838828511e-06
5.397457988e-06
-2.503348157e-05
6.177489142e-06
4.750383089e-06
-1.674929652e-05
7.208560294e-06
2.944879271e-06
-1.090469189e-05
5.46075316e-06
1.379263216e-06
-8.082609493e-06
3.993900327e-06
4.984022157e-07
-7.136160907e-06
3.090105662e-06
-8.852051697e-08
-6.198209477e-06
2.555284833e-06
-5.785851853e-07
-5.508740463e-06
2.252174774e-06
-1.012961656e-06
-4.878421715e-06
2.093318783e-06
-1.066838818e-06
-5.072407531e-06
2.096764542e-06
-9.01880163e-07
-4.861741706e-06
2.101694108e-06
-7.898327957e-07
-4.045605265e-06
2.015706692e-06
-7.947001647e-07
-2.97071461e-06
1.951858866e-06
-8.252415566e-07
-1.954542297e-06
1.924406222e-06
-7.815286353e-07
-1.024133027e-06
1.952283141e-06
-5.885541736e-07
-2.763632685e-07
2.009417811e-06
3.487699017e-07
2.092121886e-06
2.880968577e-06
-6.985811391e-06
3.708844329e-06
2.013143349e-06
-4.769611281e-06
2.50478577e-06
8.648137698e-07
-4.189193426e-06
2.40822237e-06
8.440224851e-08
-3.99534842e-06
2.13912253e-06
-8.873564183e-07
-4.295757835e-06
2.503292233e-06
-2.000964574e-06
-4.964033564e-06
2.898251862e-06
-3.968301518e-06
-5.635695851e-06
4.019570805e-06
-6.50562846e-06
-7.807502529e-06
5.352097647e-06
-7.598978492e-06
-1.339948525e-05
6.33954275e-06
-1.484134289e-06
-2.427595404e-05
1.959555802e-06
6.929030122e-06
-3.387902215e-05
-3.531246753e-06
1.110321815e-05
-3.174317029e-05
2.535201538e-06
1.031149473e-05
-2.381918643e-05
7.861285245e-06
6.498908681e-06
-1.585553119e-05
8.763061991e-06
3.166981702e-06
-1.164074182e-05
6.889667019e-06
1.529191495e-06
-1.065301637e-05
5.154228139e-06
7.158775501e-07
-9.344977123e-06
3.959637169e-06
-5.454211849e-08
-8.034446291e-06
3.295651993e-06
-8.007572552e-07
-7.104676429e-06
2.971965889e-06
-7.005849562e-07
-8.243655461e-06
3.070540175e-06
-6.549161244e-08
-8.618671167e-06
3.121270289e-06
3.000306027e-07
-7.211218196e-06
2.799498058e-06
3.06870515e-07
-5.441709323e-06
2.463540857e-06
1.580071007e-07
-3.968913951e-06
2.162606111e-06
-8.794162663e-09
-2.835837061e-06
1.977867005e-06
-8.47327721e-08
-2.067549339e-06
1.866481303e-06
-1.55362448e-06
1.817015616e-06
4.678544859e-06
-1.060121847e-05
5.840543195e-06
2.863504253e-06
-6.745670398e-06
3.791045869e-06
8.641294613e-07
-5.491204834e-06
3.301307853e-06
-5.38193463e-07
-5.435155968e-06
2.842026703e-06
-2.126214843e-06
-6.022625588e-06
3.314759803e-06
-4.074483814e-06
-7.039225457e-06
4.02330579e-06
-7.089316974e-06
-8.09463264e-06
5.473591096e-06
-1.024476682e-05
-1.074919053e-05
6.096941658e-06
-8.636559464e-06
-1.818131435e-05
3.173414847e-06
2.004706521e-06
-3.009838103e-05
-4.81906425e-06
1.322831449e-05
-3.522636848e-05
-9.876517436e-06
1.829932152e-05
-3.241857445e-05
-4.395871156e-06
1.873421425e-05
-2.554386354e-05
1.289495293e-06
1.39162061e-05
-1.822222212e-05
7.184377132e-06
7.999772578e-06
-1.446901656e-05
8.744346055e-06
4.222575717e-06
-1.47219708e-05
7.845752831e-06
2.371694215e-06
-1.365797912e-05
6.163451875e-06
6.670602452e-07
-1.127071829e-05
4.940441339e-06
-9.32532018e-07
-9.963719636e-06
4.458136846e-06
-3.86536572e-07
-1.36751783e-05
4.884994181e-06
1.284913187e-06
-1.549099879e-05
5.200311647e-06
2.080215581e-06
-1.259174574e-05
4.584629009e-06
1.947484198e-06
-9.061755512e-06
3.75215828e-06
1.46068608e-06
-6.488412978e-06
3.00566163e-06
8.923583529e-07
-4.790465041e-06
2.522310074e-06
3.921169406e-07
-3.784324865e-06
2.216365859e-06
-3.220455019e-06
2.058293986e-06
7.516300999e-06
-1.615770658e-05
8.369043474e-06
4.343342166e-06
-9.384071772e-06
5.811341436e-06
1.235823657e-06
-7.230270696e-06
4.846540416e-06
-1.013126759e-06
-7.452220906e-06
4.265946768e-06
-3.757073107e-06
-8.573024268e-06
5.294251771e-06
-7.572769133e-06
-9.659326554e-06
6.435681184e-06
-1.218243126e-05
-1.012227683e-05
6.637173008e-06
-1.531730578e-05
-1.102233581e-05
3.407872193e-06
-1.110039808e-05
-1.788535304e-05
-4.51303571e-06
5.48797456e-06
-2.607206863e-05
-2.061488789e-05
1.972090336e-05
-3.094057655e-05
-1.851894868e-05
2.502851222e-05
-2.867665813e-05
-9.049768309e-06
2.658419407e-05
-2.205669815e-05
-5.043108751e-06
2.335500957e-05
-1.599026346e-05
9.969396772e-07
1.698413978e-05
-1.535624197e-05
7.257774317e-06
1.045274507e-05
-1.875749285e-05
1.0566551e-05
6.107062329e-06
-1.947021454e-05
1.015750639e-05
2.330479898e-06
-1.582542894e-05
8.330841147e-06
-4.762831381e-07
-1.432102717e-05
7.163582497e-06
1.130684351e-06
-2.261739147e-05
7.334725683e-06
4.152059112e-06
-2.632994571e-05
7.817018851e-06
5.270508219e-06
-2.157708541e-05
7.866302325e-06
4.634440513e-06
-1.497154549e-05
6.545242365e-06
3.322418612e-06
-1.004008924e-05
4.863065811e-06
2.005302062e-06
-7.172875277e-06
3.698884171e-06
9.037792498e-07
-5.678558112e-06
2.995107876e-06
-4.97128178e-06
2.653955402e-06
1.140569239e-05
-2.138134606e-05
8.409527791e-06
6.356971107e-06
-1.287686306e-05
8.541532112e-06
8.398862681e-07
-8.895865811e-06
7.182667893e-06
-4.528031733e-06
-8.177318052e-06
6.092979395e-06
-1.15520999e-05
-8.450402896e-06
6.901392592e-06
-1.921746138e-05
-7.711039045e-06
5.717005748e-06
-2.541524252e-05
-4.908619046e-06
9.840396602e-07
-2.9021127e-05
-1.667576324e-06
-5.748981116e-06
-1.973412874e-05
7.217233485e-07
-2.789421123e-05
5.281498702e-06
-3.41964981e-07
-5.074587965e-05
2.829080676e-05
-1.672604649e-06
-5.22774475e-05
3.576692386e-05
-3.725122838e-06
-3.242786556e-05
3.489297798e-05
-4.525389783e-06
-1.665760059e-05
3.253566418e-05
-5.361370332e-06
-8.271837519e-06
2.84355179e-05
-1.021959957e-05
-1.036779308e-06
2.094417352e-05
-1.923557003e-05
7.969097085e-06
1.33982644e-05
-2.488323195e-05
1.295854878e-05
6.184372353e-06
-2.120398263e-05
1.259201491e-05
2.795632931e-06
-2.1111793e-05
1.017903677e-05
6.033380232e-06
-3.25431445e-05
6.687512835e-06
1.017887977e-05
-3.712145666e-05
6.645487504e-06
1.139200759e-05
-3.195986846e-05
9.169096064e-06
9.701180689e-06
-2.302362903e-05
9.742315805e-06
6.737225421e-06
-1.480874288e-05
7.731990507e-06
3.935468041e-06
-9.895087806e-06
5.523340015e-06
1.720974121e-06
-7.623965441e-06
4.159265945e-06
-6.807204058e-06
3.556258583e-06
1.693518953e-05
-2.254347336e-05
3.917077105e-06
9.953056759e-06
-1.462335527e-05
8.728685918e-06
-2.514936717e-07
-9.15336419e-06
1.046206947e-05
-1.195166875e-05
-6.404674632e-06
9.927525875e-06
-2.507183545e-05
-4.446527876e-06
9.116284526e-06
-3.457303039e-05
-1.057357668e-06
2.847494779e-06
-3.809786074e-05
3.882915953e-06
-5.266750157e-06
-3.810098139e-05
1.031287417e-05
-1.19774116e-05
-2.448802095e-05
1.955671443e-05
-3.244805453e-05
3.507231643e-06
2.217402389e-05
-5.051134556e-05
2.850262361e-05
2.569557347e-05
-5.23636847e-05
4.215222092e-05
2.336775706e-05
-4.074263366e-05
4.681100194e-05
1.692540146e-05
-2.610976876e-05
4.504763446e-05
8.278535832e-06
-1.187676621e-05
3.710649248e-05
4.885366415e-07
-2.767241742e-06
2.798502071e-05
-1.886157847e-05
8.747191191e-06
1.945705145e-05
-3.115049969e-05
1.479489414e-05
1.065575771e-05
-2.914790391e-05
1.674481647e-05
8.657267199e-06
-2.918094139e-05
1.006720168e-05
1.340802692e-05
-3.879695935e-05
1.502588306e-06
1.861550304e-05
-4.277672467e-05
4.472958826e-07
2.061120285e-05
-3.915533826e-05
5.199247704e-06
1.800435769e-05
-3.048509012e-05
1.006775088e-05
1.234486162e-05
-2.049859333e-05
1.13487576e-05
6.763022561e-06
-1.338816065e-05
9.074302218e-06
2.71406688e-06
-1.017920697e-05
6.603580857e-06
-9.493533239e-06
5.3997773e-06
2.521813639e-05
-1.740428619e-05
-3.555008355e-06
1.946919476e-05
-1.269118278e-05
3.81686355e-06
1.000041721e-05
-9.287532388e-06
9.603003175e-06
-1.236319809e-08
-7.140825171e-06
1.074893999e-05
-1.097802684e-05
-4.317848723e-06
1.083700932e-05
-2.269924693e-05
6.064770627e-07
1.00573873e-05
-3.133266835e-05
8.072567329e-06
4.443762494e-06
-3.411641233e-05
1.628905594e-05
-3.192464529e-06
-2.560065616e-05
2.488378238e-05
-1.384288387e-05
1.694864133e-06
3.335299494e-05
-3.847455291e-05
2.675963363e-05
3.813840002e-05
-3.750767464e-05
4.037331721e-05
3.449098887e-05
-2.473703e-05
4.232483021e-05
2.543117739e-05
-1.045743592e-05
3.535618699e-05
1.624697337e-05
-9.999627873e-07
2.245357228e-05
2.682968142e-06
1.070796672e-05
1.742966647e-05
-2.461899863e-05
1.078105101e-05
1.394529536e-05
-3.831757866e-05
1.065113358e-05
8.589394463e-06
-3.813173201e-05
1.433936022e-05
1.116598237e-05
-3.50292384e-05
3.271298656e-06
1.942552803e-05
-4.042854921e-05
-6.628402979e-06
2.674966941e-05
-4.343508182e-05
-6.666259973e-06
3.021324627e-05
-3.990029395e-05
-2.71911738e-06
2.851852716e-05
-3.201747073e-05
3.226580748e-06
2.143745727e-05
-2.283184081e-05
9.413770708e-06
1.219428611e-05
-1.544212136e-05
1.129655534e-05
4.681892882e-06
-1.205822504e-05
9.390818634e-06
-1.256951132e-05
7.757273826e-06
3.340873837e-05
-2.34608777e-06
-1.235120612e-05
2.84778607e-05
-1.84678453e-06
-5.913408241e-06
2.049398447e-05
-2.90482679e-06
1.60126225e-06
1.011613707e-05
-4.451235431e-06
7.688321304e-06
-5.553609721e-07
-4.924437621e-06
1.127812486e-05
-1.058284676e-05
-1.929189757e-06
1.256316593e-05
-1.95667708e-05
5.384876915e-06
1.167162144e-05
-2.312690115e-05
1.479851472e-05
5.050672865e-06
-1.821034607e-05
2.443978039e-05
-4.472569368e-06
1.446012932e-06
3.441178894e-05
-2.071519496e-05
2.17980254e-05
3.979248881e-05
-2.200616514e-05
3.103817208e-05
3.302235411e-05
-7.771590288e-06
3.280276224e-05
2.296677071e-05
6.997194616e-07
2.387790745e-05
1.178118586e-05
1.339050724e-05
1.483939081e-05
-8.599225644e-06
2.032051116e-05
1.557221787e-05
-2.726376199e-05
1.911670146e-06
1.143830807e-05
-3.529040283e-05
1.106437897e-06
5.119732126e-06
-3.67832683e-05
4.969763331e-06
1.18286034e-05
-2.737325734e-05
-1.436525618e-05
2.478024512e-05
-2.822187451e-05
-2.515875616e-05
3.535853834e-05
-3.227034968e-05
-2.174349733e-05
3.9239233e-05
-3.182165066e-05
-1.195982934e-05
3.83031133e-05
-2.649425054e-05
-4.587600053e-06
3.161296219e-05
-1.884409048e-05
2.701885699e-06
2.038799557e-05
-1.43088701e-05
1.0091179e-05
8.61882349e-06
-1.315202038e-05
1.286240717e-05
-1.64447575e-05
1.249349442e-05
3.936637051e-05
1.421882467e-05
-1.784333811e-05
3.876859991e-05
1.034032081e-05
-1.158921812e-05
3.690189996e-05
6.357774906e-06
-7.395793462e-06
3.026458907e-05
2.483549255e-06
-2.973749481e-07
1.662356329e-05
1.429637221e-07
8.573698544e-06
1.835780171e-06
6.239061263e-07
1.223472493e-05
-9.297794342e-06
3.512827521e-06
1.300564077e-05
-1.506109663e-05
9.510760678e-06
1.105107175e-05
-1.381044234e-05
1.852070481e-05
4.668432919e-06
-3.300286845e-06
2.752777522e-05
-3.626143207e-06
9.831254491e-06
3.162517175e-05
-4.964246677e-06
1.929423735e-05
1.804498813e-05
5.514352916e-06
1.773224953e-05
1.040898301e-05
1.411970731e-05
6.859966716e-06
6.583631517e-06
1.606971364e-05
1.029203696e-05
1.281567793e-07
-1.215963435e-05
1.829113924e-05
-5.954440752e-06
-2.930866604e-05
9.918191182e-06
-1.139706816e-05
-1.552067401e-05
1.933562325e-06
-1.368646576e-05
-1.511250239e-05
1.107007399e-05
1.169992309e-06
-3.76801445e-05
2.855152068e-05
2.27601547e-06
-4.797973632e-05
4.490569629e-05
-8.836723152e-08
-4.853658427e-05
5.292959187e-05
-8.260713336e-07
-3.901994612e-05
5.066246558e-05
-1.122459678e-06
-2.310516656e-05
4.227216955e-05
-1.186158841e-06
-9.268140682e-06
3.162278777e-05
-3.210143762e-06
-4.498519529e-07
1.763672793e-05
-7.313885476e-06
8.147403124e-06
-1.397108819e-05
1.516251043e-05
3.971157028e-05
2.126268342e-05
-9.492661511e-06
4.013206157e-05
1.70617547e-05
-7.141784001e-06
3.552462929e-05
1.22522146e-05
-1.286872083e-06
2.434316716e-05
7.218316141e-06
6.446809897e-06
1.071792584e-05
3.396441421e-06
1.037184371e-05
1.518277534e-07
1.939808733e-06
9.250245049e-06
-7.89085618e-06
1.803056225e-06
9.752487456e-06
-1.446910327e-05
4.34622089e-06
1.174280922e-05
-1.809584741e-05
1.030634408e-05
1.184112598e-05
-1.505857195e-05
1.618621572e-05
8.304298387e-06
-9.476377819e-06
1.498090794e-05
1.10620667e-05
-1.168318594e-05
-5.657207629e-06
2.590898126e-05
-2.078712037e-05
1.335247666e-06
1.817760944e-05
-1.996822687e-05
1.026009257e-05
-4.495467917e-06
1.654736889e-07
1.834115601e-05
-3.834685368e-05
1.831076187e-05
2.104488707e-05
-4.514482185e-05
2.318259555e-05
1.913582933e-05
-3.540499297e-05
8.182465239e-06
1.69167299e-05
-1.560337261e-05
4.060149957e-06
2.894600778e-05
-2.36540519e-05
2.293466014e-05
2.540862116e-05
-4.200750968e-05
4.110007434e-05
2.241484714e-05
-4.066903136e-05
5.349207213e-05
2.159208166e-05
-3.481060051e-05
5.652269701e-05
1.935153724e-05
-2.350511123e-05
5.351542726e-05
1.449081665e-05
-1.267020541e-05
4.782588175e-05
8.648479175e-06
-6.169569614e-06
3.396123764e-05
3.418103767e-06
3.13216717e-06
3.156632787e-07
1.967397561e-05
3.291082985e-05
2.426145298e-05
-7.143843686e-06
3.256851466e-05
1.920792176e-05
-1.803698145e-06
2.541188535e-05
1.272032613e-05
6.688654765e-06
1.486162432e-05
6.493478946e-06
1.127520473e-05
5.594852667e-06
2.414283284e-06
1.024900546e-05
-7.728363207e-07
6.142736281e-07
7.693282122e-06
-7.164869767e-06
3.603881467e-07
7.83474577e-06
-1.419339141e-05
1.711407531e-06
9.663366538e-06
-2.048765571e-05
3.025584713e-06
1.357504748e-05
-1.889214062e-05
-8.286580367e-07
1.5419381e-05
-8.359846503e-06
-1.104160904e-05
1.549023465e-05
-2.528815368e-06
-2.444163557e-05
1.295338428e-05
-1.351551701e-05
-1.001054414e-05
2.233244586e-05
-1.885302484e-05
6.97587669e-06
8.621633949e-06
-1.166136461e-06
2.524072297e-05
-2.458659548e-05
1.945064115e-05
3.487747918e-05
-3.444956575e-05
2.783425787e-05
3.5729676e-05
-2.497771512e-05
1.220497583e-05
3.625750319e-05
-3.711782012e-06
1.702202205e-07
4.130091649e-05
-3.205006917e-07
1.732398364e-05
3.288253986e-05
-2.462807351e-05
3.746441072e-05
2.543624078e-05
-2.316222676e-05
5.03110845e-05
2.490754057e-05
-1.616259099e-05
5.3445719e-05
2.425317882e-05
-8.0367499e-06
5.20378254e-05
2.010278404e-05
-4.204541443e-06
4.478312132e-05
1.464459199e-05
1.2581241e-06
2.729099886e-05
9.31696629e-06
1.159277546e-05
7.811677557e-06
1.979446688e-05
2.412821069e-05
2.156906286e-05
-1.093247941e-06
2.208640973e-05
1.478618373e-05
6.46367834e-06
1.536247421e-05
7.951195511e-06
1.149317946e-05
8.593821938e-06
3.022127182e-06
1.024009006e-05
3.286591087e-06
-7.157462126e-08
7.793157102e-06
-7.643153556e-07
-2.009728128e-06
6.674965376e-06
-5.417202806e-06
-2.849489587e-06
7.862809275e-06
-1.070910751e-05
-2.536614566e-06
9.539960963e-06
-1.600519653e-05
-3.049476695e-06
1.137118028e-05
-1.190576767e-05
-9.876983721e-06
4.948921833e-06
2.516665102e-06
-2.00116321e-05
-5.452404543e-06
1.075920895e-05
-2.74799613e-05
-5.204236943e-06
8.59692959e-06
-1.899112743e-05
1.1142816e-05
-3.48452652e-06
-6.10812313e-06
2.516536036e-05
9.177234449e-07
1.806989248e-05
2.768430812e-06
1.633375295e-05
3.621944924e-05
-1.675820786e-05
1.98765828e-05
3.899462841e-05
-6.808039927e-06
8.872176737e-06
4.106387881e-05
6.197739262e-06
-4.952516626e-06
4.282899155e-05
1.229627647e-05
6.498695285e-06
2.672632315e-05
-5.295391153e-06
3.173949061e-05
-6.362802865e-06
6.557854756e-06
5.316290794e-05
-5.24160989e-06
8.725305711e-06
5.811152305e-05
1.333393493e-05
5.970170084e-06
5.308143975e-05
1.887791887e-05
6.254494119e-06
3.97624944e-05
1.488291409e-05
1.308016185e-05
2.027426344e-05
9.368250657e-06
1.943646099e-05
7.224141557e-06
2.086128475e-05
1.67603314e-05
1.294444962e-05
7.702805695e-06
1.384929852e-05
6.18978659e-06
1.150753653e-05
9.004199951e-06
2.003667226e-06
1.079270852e-05
4.77455099e-06
-4.207199183e-07
7.672563949e-06
8.332941685e-07
-2.652518865e-06
6.522259336e-06
-3.167554247e-06
-4.546519544e-06
6.537687845e-06
-8.575999056e-06
-4.597353406e-06
7.156349833e-06
-1.487320514e-05
-1.276523772e-06
5.037151568e-06
-2.09853098e-05
2.073476099e-06
9.891858425e-07
-1.221502836e-05
2.361146568e-06
-2.10083936e-05
9.397600324e-06
-3.261469312e-07
-4.129811191e-05
2.582862225e-05
-6.091942121e-06
-3.781906359e-05
2.544994206e-05
-6.683869205e-06
-1.192864628e-05
1.233812171e-05
-8.541405205e-07
7.857737777e-06
3.708460396e-06
9.426097951e-06
1.727329301e-05
1.075651344e-05
2.73585847e-05
1.8126088e-06
1.501599341e-05
3.316851672e-05
1.566377318e-06
5.006686882e-06
3.78887491e-05
1.318413268e-05
-6.179497704e-06
3.744450534e-05
1.657031032e-05
1.482078542e-05
3.110275139e-05
-2.537708728e-05
3.795407409e-05
-4.632323221e-07
-2.903323911e-05
4.799840013e-05
-7.218390287e-06
-8.067973014e-06
4.666534123e-05
8.512613494e-06
6.153904267e-06
3.883843979e-05
1.190478905e-05
1.479956179e-05
2.669962636e-05
7.390125778e-06
1.96311241e-05
1.277590248e-05
4.435524411e-06
1.885595269e-05
4.475486158e-06
1.55240514e-05
1.309348298e-05
1.322288278e-06
1.268061002e-05
1.032933585e-05
-2.173767852e-06
1.112777357e-05
6.037860949e-06
-2.060629184e-06
8.355827467e-06
8.395407064e-07
-2.103753632e-06
6.881399797e-06
-7.572311608e-06
-1.996996587e-06
7.756365405e-06
-1.893632482e-05
-1.800161821e-06
8.617690077e-06
-3.028287323e-05
1.080536696e-06
5.668701075e-06
-3.54764922e-05
7.113363701e-06
-3.196228543e-06
-3.625831944e-05
1.330287671e-05
-1.044755808e-05
-1.994078503e-05
2.022981308e-05
-3.418620973e-05
9.612535692e-06
2.109094626e-05
-5.097042429e-05
3.266095883e-05
1.915369909e-05
-4.829409455e-05
4.158118991e-05
1.655210602e-05
-3.215629147e-05
4.033770419e-05
1.712376983e-05
-1.67345559e-05
2.98027211e-05
1.735529378e-05
2.605617605e-06
1.92201983e-05
2.38504142e-05
1.409048919e-05
7.185577736e-06
2.817483019e-05
1.702804189e-05
-1.492000963e-05
3.454931596e-05
2.544470564e-05
-2.78886421e-05
3.62205568e-05
1.4192233e-05
8.564277623e-06
4.364786258e-05
-4.899838899e-05
5.197198389e-05
4.546547638e-05
-8.933663949e-05
7.637154878e-05
4.043633949e-05
-7.205446472e-05
8.338809841e-05
3.346918373e-05
-3.197344344e-05
7.281684796e-05
2.385717233e-05
-1.381520799e-06
4.716190806e-05
1.542415452e-05
1.762044194e-05
2.087367911e-05
1.009434791e-05
2.06289078e-05
8.414970954e-06
1.69336912e-05
1.315022607e-05
-9.206276452e-06
1.263144065e-05
9.909592238e-06
-8.921478279e-06
9.988382672e-06
5.954998791e-06
-5.353259787e-06
7.247248661e-06
1.201440181e-06
-3.736203747e-06
6.386023075e-06
-6.707107814e-06
-1.227757488e-06
7.139313997e-06
-1.886014658e-05
1.477732875e-06
8.875149761e-06
-3.194548269e-05
6.448088008e-06
7.717800052e-06
-3.828991645e-05
1.328850731e-05
1.693059752e-07
-3.908287942e-05
2.014967609e-05
-6.053830388e-06
-2.521151906e-05
2.915229692e-05
-2.279386875e-05
6.934736157e-06
3.503996086e-05
-4.609529432e-05
3.279589548e-05
3.580346261e-05
-4.251097244e-05
4.489988963e-05
3.264166885e-05
-2.819365912e-05
4.726506805e-05
2.890327928e-05
-1.414483706e-05
4.102667287e-05
2.635901093e-05
-2.765506299e-06
2.938754277e-05
2.723037849e-05
8.258937367e-06
1.131923508e-05
2.71930923e-05
1.904975849e-05
-1.108263627e-05
3.118084045e-05
2.576999992e-05
-2.931034842e-05
3.584362571e-05
1.860427225e-05
-5.243414389e-06
4.815644765e-05
-2.857591718e-05
4.303164549e-05
6.590438774e-05
-6.871423512e-05
7.052436435e-05
6.395388486e-05
-5.101050591e-05
7.532150914e-05
5.135559447e-05
-2.268391383e-05
6.622706159e-05
3.923842876e-05
-6.287201243e-06
4.298281147e-05
2.608621912e-05
1.258170856e-05
1.86049545e-05
1.653575016e-05
1.793595845e-05
1.25047978e-05
1.451462655e-05
1.81996207e-05
-2.205435537e-05
1.384200309e-05
1.426480657e-05
-1.694868078e-05
1.196208527e-05
9.696006582e-06
-8.847569135e-06
8.063130657e-06
4.721499227e-06
-5.643346589e-06
6.881647858e-06
-1.444560977e-06
-1.863873711e-06
6.802157932e-06
-1.003619904e-05
1.255672492e-06
8.813673528e-06
-2.120502893e-05
6.495097321e-06
1.112179784e-05
-2.942878317e-05
1.413820191e-05
7.374048151e-06
-3.128661889e-05
2.259694992e-05
-5.894529128e-07
-2.257316115e-05
3.059355676e-05
-1.015476187e-05
5.745257461e-06
4.047861563e-05
-3.375713943e-05
3.06636214e-05
4.224466984e-05
-3.13596696e-05
4.005983139e-05
3.891700407e-05
-1.567168133e-05
4.251808385e-05
3.456347604e-05
-8.118616746e-06
3.944205219e-05
3.138754573e-05
-1.952701892e-06
2.995559327e-05
2.851631861e-05
8.200272565e-06
1.398342948e-05
2.479496176e-05
1.83699859e-05
-1.337359585e-06
2.474089004e-05
2.176036717e-05
-1.459011027e-05
2.786106193e-05
2.123489654e-05
-4.389592683e-06
3.782391454e-05
1.315321157e-07
2.67948259e-05
6.502266449e-05
-3.0303097e-05
4.790109098e-05
6.608539982e-05
-2.323813942e-05
5.399106777e-05
5.483637786e-05
-9.571161242e-06
4.523257327e-05
4.004575483e-05
7.950705194e-06
2.751017837e-05
2.568701794e-05
1.81211047e-05
1.200381996e-05
1.703448139e-05
1.500713061e-05
1.335165793e-05
1.115646047e-05
2.587333835e-05
-3.327020302e-05
1.337359127e-05
1.832936412e-05
-2.619007543e-05
1.678545715e-05
1.293969971e-05
-1.321060778e-05
9.75269942e-06
7.623772989e-06
-8.31417911e-06
7.98671901e-06
2.533525712e-06
-3.260572459e-06
6.486887081e-06
-3.264694233e-06
-1.93871412e-07
7.247701634e-06
-1.052921871e-05
3.999594681e-06
9.759962988e-06
-1.773734052e-05
1.014360157e-05
1.120266402e-05
-2.03827764e-05
1.827733957e-05
6.96499428e-06
-1.473013009e-05
2.702140312e-05
-2.080557505e-06
5.138925554e-06
3.628824632e-05
-1.567878552e-05
2.429342049e-05
3.968257415e-05
-1.659253551e-05
3.175181437e-05
3.945211437e-05
-7.993659446e-06
3.485215929e-05
3.669659498e-05
-5.233646691e-06
3.224705251e-05
3.188795263e-05
2.104481256e-06
2.320694082e-05
2.624235726e-05
1.13138033e-05
1.072636929e-05
2.099416912e-05
1.628103242e-05
6.985179164e-07
1.931412492e-05
1.545423705e-05
-7.892406142e-06
2.049336891e-05
1.595819713e-05
-7.906712177e-06
2.620544592e-05
1.163234508e-05
1.094448268e-05
4.972166618e-05
-3.55061363e-06
2.924054299e-05
5.687180705e-05
-9.082894197e-06
3.250062531e-05
4.538482794e-05
6.190998233e-06
2.48939629e-05
3.089704797e-05
1.675487784e-05
1.50772871e-05
2.055676492e-05
1.49464333e-05
6.835728731e-06
1.476816899e-05
1.05073718e-05
1.221926809e-05
7.967617232e-06
5.534165152e-05
-1.880438487e-06
-3.228029826e-05
3.659424097e-05
-2.125550881e-05
1.38128809e-05
2.387417654e-05
-1.305472392e-05
1.256413569e-05
1.451204544e-05
-8.839391453e-06
9.887292386e-06
7.883566716e-06
-3.590379914e-06
6.958214337e-06
2.487756253e-06
-1.323325067e-06
6.525182699e-06
-2.455058221e-06
1.481196044e-06
7.461121093e-06
-7.708818967e-06
5.45702378e-06
9.940239397e-06
-1.086779874e-05
1.039509993e-05
1.104111888e-05
-8.544546853e-06
1.834253329e-05
6.355515343e-06
4.038737886e-06
2.689265492e-05
-3.18781526e-06
1.707909053e-05
3.640157964e-05
-9.759518346e-06
2.363507676e-05
3.749881347e-05
-4.60286023e-06
2.60031989e-05
3.364886244e-05
6.794048676e-07
2.216065513e-05
2.671298652e-05
9.01726062e-06
1.456159308e-05
2.042320061e-05
1.341791236e-05
6.804893751e-06
1.609987269e-05
1.265064029e-05
1.103807705e-06
1.476051586e-05
1.025430894e-05
-4.361243055e-06
1.520637175e-05
1.07516318e-05
-7.660759219e-06
1.818025075e-05
1.132427455e-05
1.630902613e-06
3.00526658e-05
1.037688974e-05
1.348177999e-05
3.778575763e-05
7.234701628e-06
1.553193416e-05
2.938424749e-05
1.394993485e-05
1.224041066e-05
2.090416106e-05
1.328391272e-05
7.990918509e-06
1.534212321e-05
9.463633373e-06
3.828080066e-06
1.208480255e-05
6.845700547e-06
1.048554905e-05
5.561292557e-06
9.905979176e-05
4.242635444e-05
-5.002917268e-05
6.30856417e-05
-7.799172136e-06
2.251819625e-05
3.652724076e-05
-6.823728896e-06
2.032757184e-05
2.061842691e-05
-6.945337034e-06
1.401474634e-05
1.194164722e-05
-3.647333338e-06
8.733644605e-06
6.049385789e-06
-2.259756292e-06
6.828583452e-06
1.996406522e-06
-8.337426308e-07
6.367795932e-06
-2.124362688e-06
2.172363234e-06
7.405297701e-06
-4.328855427e-06
3.066719153e-06
9.532729729e-06
-5.34436723e-06
8.575957888e-06
1.07819343e-05
1.657418299e-06
1.476461301e-05
5.126093421e-06
1.072281556e-05
3.11663733e-05
-3.830371105e-06
1.5915892e-05
3.048793872e-05
1.81759587e-06
1.651836129e-05
2.468784743e-05
8.358303024e-06
1.297670185e-05
1.847642076e-05
1.177793295e-05
8.478265932e-06
1.41985002e-05
1.072279902e-05
4.583564558e-06
1.17694506e-05
8.224753167e-06
1.572445972e-06
1.111681481e-05
6.654422484e-06
-1.392771534e-06
1.147239422e-05
6.698771799e-06
-3.756719103e-06
1.30639325e-05
7.479819536e-06
-6.217490886e-07
1.766320867e-05
9.25402051e-06
5.273169527e-06
2.157045008e-05
1.031990987e-05
7.12830744e-06
1.777654045e-05
9.752073991e-06
6.072116157e-06
1.404510488e-05
7.914745047e-06
4.264230568e-06
1.137806807e-05
5.771432958e-06
2.119873782e-06
9.637997124e-06
4.590650507e-06
8.684000983e-06
3.920908175e-06
6.105656592e-05
3.730009545e-05
1.466104549e-05
4.251768972e-05
-1.963342964e-05
3.03734853e-05
3.129705958e-05
-1.292465139e-05
1.732143213e-05
1.949416002e-05
-9.397893861e-06
1.425535228e-05
1.224136109e-05
-4.840534975e-06
8.445865707e-06
6.807180128e-06
-3.665245849e-06
6.839529353e-06
3.498537426e-06
-3.606505078e-06
6.081254635e-06
1.331179244e-08
-6.023486135e-07
6.25977871e-06
-9.79836059e-07
-3.933313713e-06
7.993008661e-06
-1.928603026e-06
-6.004424704e-07
1.012497746e-05
-8.385680007e-08
3.581111672e-06
9.338548273e-06
5.825505798e-06
2.061859855e-05
4.638201358e-06
9.829725755e-06
1.809930849e-05
8.384163742e-06
9.674002922e-06
1.431576327e-05
1.052751995e-05
7.788508835e-06
1.119631948e-05
9.165269874e-06
5.606613145e-06
9.407516274e-06
6.972522875e-06
3.632789718e-06
8.409307923e-06
5.333581571e-06
1.996913651e-06
8.231310133e-06
4.520970272e-06
4.822632031e-07
8.516303719e-06
4.470306645e-06
-5.913624738e-07
9.403488623e-06
4.733614258e-06
2.522747671e-07
1.111878482e-05
5.700311805e-06
2.649803067e-06
1.270487729e-05
6.467555621e-06
3.591828808e-06
1.128510427e-05
5.548909017e-06
3.227749654e-06
9.785203305e-06
4.623470897e-06
2.366835941e-06
8.527097675e-06
3.711368578e-06
1.208281043e-06
7.633457468e-06
3.162575073e-06
7.066679778e-06
2.825080832e-06
2.831157637e-05
1.629884258e-05
2.747374885e-05
3.28594694e-05
-1.062897172e-05
-1.355225467e-05
3.244344795e-05
-2.011859775e-05