/*--------------------------------*- C++ -*----------------------------------*\
  =========                 |
  \\      /  F ield         | OpenFOAM: The Open Source CFD Toolbox
   \\    /   O peration     | Website:  https://openfoam.org
    \\  /    A nd           | Version:  8
     \\/     M anipulation  |
\*---------------------------------------------------------------------------*/
FoamFile
{
    version     2.0;
    format      ascii;
    class       volVectorField;
    location    "0.3";
    object      U;
}
// * * * * * * * * * * * * * * * * * * * * * * * * * * * * * * * * * * * * * //

dimensions      [0 1 -1 0 0 0 0];

internalField   nonuniform List<vector> 
67451
(
(0.0007178071746 0.002362873101 0.006935560386)
(-0.002526775302 -0.0003469894087 0.008417760813)
(-0.005397716863 -0.004668609503 0.009070114099)
(-0.007530064661 -0.009912660233 0.01238545831)
(-0.01253534736 -0.01548065764 0.0130324688)
(-0.008280186538 -0.02844419912 0.01970019914)
(-0.001786780273 -0.02313138037 0.0149441413)
(-0.003180250312 -0.02145905568 0.01438420807)
(-0.003611392691 -0.01747616486 0.01095554852)
(-0.006371019587 -0.01473835397 0.00963323345)
(-0.008996204488 -0.012309176 0.008018584173)
(0.008603106877 -0.001681492109 0.006987479315)
(0.002818592587 -0.003040770353 0.007238304108)
(0.003283358728 -0.001539076797 0.00671945746)
(-0.001737256601 -0.002484512323 0.007508384473)
(-0.003033841769 -0.004420876501 0.007823584633)
(-0.00753011971 -0.006134004643 0.01004564685)
(-0.01206269659 -0.01167841896 0.011513257)
(-0.01509214982 -0.01834426246 0.0175188648)
(-0.02439583302 -0.02912604567 0.02054857576)
(-0.01419037278 -0.05956642392 0.03683702962)
(0.00526794768 -0.0453095109 0.02616513872)
(0.002602527993 -0.03803920568 0.02324326281)
(0.002391700112 -0.03025991741 0.01610226144)
(-0.001950656363 -0.02515312553 0.01348592921)
(-0.004980550451 -0.02174865039 0.01059832026)
(-0.008015049172 -0.01821581739 0.009353658995)
(-0.01099618486 -0.01513701885 0.008386309211)
(-0.01380748889 -0.01141709149 0.008130272193)
(-0.01663205364 -0.00787752156 0.008292555134)
(-0.01913047726 -0.00296755837 0.008862061831)
(-0.02190730901 0.003429578751 0.009845872744)
(-0.02496379579 0.01183123398 0.01160165825)
(-0.02829893417 0.02273817982 0.0145027799)
(-0.02964906022 0.03823594475 0.01906717773)
(-0.03236919853 0.05445578992 0.02448809208)
(-0.01855572383 0.0880947749 0.0339951596)
(0.01809585245 -0.01532272075 0.01166636387)
(0.007935493054 -0.01907193856 0.01226482333)
(0.01212246102 -0.01080169101 0.009227881273)
(0.003837855668 -0.01196487514 0.009535645633)
(0.00509501654 -0.01009564306 0.008781245071)
(-0.001952410806 -0.01164086368 0.01076136167)
(-0.003444351038 -0.01429654809 0.01185621169)
(-0.01052838969 -0.01752810449 0.01754402)
(-0.01879895533 -0.02511060704 0.02168517473)
(-0.02673883841 -0.03572129985 0.03581912776)
(-0.04419411314 -0.05747227788 0.04296350169)
(-0.02195729752 -0.1297288868 0.05457263787)
(0.01801626247 -0.09330420315 0.05585678928)
(0.01443819464 -0.06669654758 0.05052287502)
(0.01093830989 -0.05071854619 0.03283874025)
(0.003185939174 -0.04046307795 0.02453223472)
(-0.001262828681 -0.03501430861 0.01730438109)
(-0.004603559971 -0.02994833411 0.01380519422)
(-0.007670641147 -0.02646703504 0.01125441928)
(-0.01048009567 -0.02247205215 0.01013504466)
(-0.01276981125 -0.02003750174 0.009695271388)
(-0.01349088187 -0.01579044956 0.009616364076)
(-0.01411823987 -0.009891438157 0.009477063479)
(-0.01488424628 -0.001956119835 0.009763113014)
(-0.01575263508 0.007309299433 0.01060595855)
(-0.01559970124 0.01787595166 0.01221819928)
(-0.01482046981 0.0281580788 0.01426975004)
(-0.007293947276 0.04191155979 0.01701407021)
(0.02891636847 -0.03393800694 0.02111380404)
(0.01185200046 -0.03338748561 0.02006719843)
(0.01617603116 -0.02155487762 0.01377574013)
(0.003727742252 -0.02119364714 0.01328006591)
(0.003699502422 -0.01856017084 0.01157113541)
(-0.006181005701 -0.01917741429 0.01387538281)
(-0.009415841683 -0.02191938903 0.01565161159)
(-0.01926508489 -0.02374144141 0.02400038836)
(-0.03143433314 -0.0332645141 0.03288795569)
(-0.04369947497 -0.04985301911 0.05479068615)
(-0.05962618438 -0.105618179 0.04485760888)
(-0.007064023309 -0.2267979792 -0.005312900618)
(0.04164956679 -0.1797645332 0.05329073954)
(0.04490264704 -0.1119315206 0.07879825819)
(0.03157247706 -0.07607518073 0.0583145456)
(0.01586081653 -0.05853731454 0.03999519108)
(0.006736366052 -0.05146194855 0.02697201165)
(0.001384297009 -0.04459043487 0.020493031)
(-0.002785107806 -0.03986476518 0.01633350981)
(-0.006818604176 -0.03476665953 0.01457090053)
(-0.009370691097 -0.03407428759 0.01425711767)
(-0.007912218561 -0.03072159234 0.01405927164)
(-0.006707025249 -0.02460346082 0.01284070424)
(-0.006289784958 -0.01655318701 0.0118685877)
(-0.006623267803 -0.008451421656 0.01116209987)
(-0.006704255381 -0.0004427785032 0.011015076)
(-0.006219574694 0.006423831167 0.01121295406)
(-0.002856858229 0.01299028526 0.01177130602)
(0.02289095509 -0.04965783198 0.03408300053)
(0.02482839613 -0.03415498852 0.02157664476)
(0.007307288449 -0.03115235845 0.02010424373)
(0.007122830027 -0.02870548534 0.0176173374)
(-0.00575227243 -0.03051557866 0.0230748998)
(-0.00891187622 -0.03524261062 0.02820506827)
(-0.02314859119 -0.04063092909 0.04639964228)
(-0.04171094206 -0.05613847139 0.06276491491)
(-0.06303096953 -0.0965578599 0.07024528276)
(-0.06141942541 -0.1844550396 -0.003264485394)
(0.03596675217 -0.2930568279 -0.1282028211)
(0.07997640563 -0.2682246109 -0.02820602401)
(0.09838701449 -0.1881181467 0.06727076377)
(0.06956497895 -0.1188894824 0.09663352751)
(0.03518683685 -0.0859134354 0.07805887944)
(0.01644257023 -0.07605210085 0.05270117288)
(0.008622167445 -0.0661085999 0.03678359432)
(0.003201906736 -0.05828763122 0.0275662549)
(-0.004181498478 -0.05202928477 0.02410863042)
(-0.008495662486 -0.05596826079 0.02500998694)
(-0.002717191763 -0.05555592447 0.02558397184)
(0.00168750355 -0.04714141702 0.0217061472)
(0.003022401496 -0.03598255915 0.01805468139)
(0.001971403756 -0.02580431414 0.01468656247)
(0.0005650448774 -0.01728662345 0.01265750347)
(-0.0007187669019 -0.01105489139 0.01136119679)
(-0.0005460945086 -0.006428045985 0.01084253897)
(0.04280136389 -0.07317783219 0.06216586899)
(0.03505254453 -0.05007071445 0.03828028522)
(0.01030897071 -0.04276374439 0.03160104426)
(0.004291850416 -0.04174868201 0.0259805681)
(-0.0131161894 -0.0449062996 0.03281972035)
(-0.02185055385 -0.05166456934 0.04197609942)
(-0.0435553163 -0.05787507085 0.06406484401)
(-0.07305625787 -0.08083411476 0.06390101774)
(-0.09142225682 -0.1378505478 0.008532233049)
(-0.05171653973 -0.2479987841 -0.1313910094)
(0.08517668499 -0.3030847404 -0.2490955521)
(0.1323358297 -0.2899909952 -0.1690093834)
(0.1628801787 -0.2307745847 -0.04713346495)
(0.141005543 -0.159654938 0.05785349323)
(0.08602628882 -0.1180375028 0.09588056233)
(0.04428558038 -0.1106330697 0.0857325544)
(0.02504186236 -0.09804048704 0.06275486254)
(0.01346360007 -0.08334752794 0.04583071574)
(-0.003141658964 -0.07294447176 0.0400879581)
(-0.01156062283 -0.08867093303 0.04485606031)
(0.005454742293 -0.0954833988 0.04816411208)
(0.01577452361 -0.07970254362 0.04082535594)
(0.01748751504 -0.06001944621 0.03112635776)
(0.01400423933 -0.04432849686 0.02274221889)
(0.009558954072 -0.03286005371 0.01768204002)
(0.005012730045 -0.0255359306 0.01458969817)
(0.001512578117 -0.02096845861 0.01312285738)
(0.07401991681 -0.1153431847 0.08960803841)
(0.05120327998 -0.06846554244 0.0637219164)
(0.01738242971 -0.05486800721 0.05023255806)
(0.003591233396 -0.0546688774 0.04204658564)
(-0.02039423815 -0.06282856542 0.05644292274)
(-0.04125739795 -0.07449604465 0.07029786516)
(-0.08124488225 -0.08743762302 0.06855997931)
(-0.1173006156 -0.1101022628 0.008829285607)
(-0.1368188336 -0.1939705455 -0.1253246222)
(-0.03760085259 -0.3017011818 -0.280480937)
(0.1248073162 -0.3412029171 -0.3273628718)
(0.1916600872 -0.2993209041 -0.2749209663)
(0.2176422343 -0.2291541764 -0.1811041432)
(0.2123355978 -0.1671993782 -0.05464066385)
(0.1690666001 -0.142088622 0.04959392782)
(0.1079601678 -0.1535961654 0.1061249959)
(0.06398745682 -0.1458000936 0.1079688322)
(0.03523413784 -0.1169925286 0.08618601869)
(0.001370914189 -0.1031633914 0.07256996136)
(-0.008903299916 -0.1524453339 0.06962727803)
(0.02701529091 -0.1780551675 0.07329417504)
(0.04212077034 -0.1417172831 0.07781959423)
(0.04244985699 -0.100081497 0.06450478319)
(0.03224124638 -0.07111148787 0.04437790653)
(0.02132899421 -0.05250821498 0.03095133131)
(0.01136457179 -0.0418282445 0.02304524413)
(0.003538030177 -0.03621224026 0.01949210348)
(0.1125318292 -0.1722118325 0.07771659909)
(0.07610889997 -0.09920269076 0.09858794066)
(0.02526906929 -0.07440871623 0.08268191504)
(-0.01091714598 -0.07921458017 0.06498566807)
(-0.0627208178 -0.08990733295 0.07277620239)
(-0.1265055847 -0.09588759805 0.04649478951)
(-0.1831201677 -0.09032537915 -0.03006658247)
(-0.2416506479 -0.08852138383 -0.1486227704)
(-0.2330230097 -0.112447167 -0.2850147569)
(-0.07226873758 -0.1384560746 -0.4553969277)
(0.1603563421 -0.181792761 -0.4702694804)
(0.282613042 -0.1945081567 -0.3508514637)
(0.2970974518 -0.1605551774 -0.274910915)
(0.275553547 -0.1185285518 -0.1940487507)
(0.2603846074 -0.1327661154 -0.08769922937)
(0.2026093282 -0.1840712405 0.04271982903)
(0.1404327576 -0.2029557303 0.1227316599)
(0.07883551006 -0.1625099131 0.1321048335)
(0.0195354806 -0.1515668291 0.1002555693)
(0.02488299978 -0.250087501 0.03842399513)
(0.07337346553 -0.2896350212 0.0304054275)
(0.0945397795 -0.2398255057 0.07304705755)
(0.09038794949 -0.1631508467 0.0958897944)
(0.06632352033 -0.104935707 0.07734582647)
(0.04201654309 -0.07351844906 0.05115997857)
(0.0217220555 -0.05810734975 0.03500394562)
(0.006630729583 -0.05146666183 0.02829459824)
(0.1591029642 -0.2060486981 -0.009634966991)
(0.1184215127 -0.1275421149 0.08614739852)
(0.04189602586 -0.08033267568 0.1149663503)
(-0.04546143217 -0.06239371958 0.1021125107)
(-0.1514386384 -0.05932243028 0.07658250324)
(-0.2577045996 -0.04377514706 -0.0349225383)
(-0.3051849184 -5.509225951e-05 -0.1831649975)
(-0.3286422142 0.05767546492 -0.282504259)
(-0.2845349211 0.1265896779 -0.3587057171)
(-0.09689433045 0.1314934363 -0.4710181266)
(0.1531343374 0.1502131283 -0.4863821428)
(0.2980393028 0.1332460466 -0.4052943666)
(0.3738060858 0.0848828521 -0.3303698142)
(0.3844703667 0.02127258202 -0.2852438274)
(0.35868921 -0.05206764048 -0.2050784105)
(0.254301526 -0.1513147866 -0.01361376928)
(0.1952592761 -0.2333111896 0.1060939765)
(0.1188358175 -0.2122941675 0.1624332326)
(0.05497324334 -0.2194668042 0.08015990182)
(0.08298332842 -0.3286640828 -0.05518558347)
(0.1366355739 -0.3709266865 -0.08642937986)
(0.1686356848 -0.3296863872 -0.0160324376)
(0.1670897352 -0.2478647617 0.07293599147)
(0.1256182888 -0.1589329541 0.1147547961)
(0.07390714363 -0.1025221383 0.09546193199)
(0.03481407062 -0.07800395951 0.06440121307)
(0.00997142835 -0.07032886637 0.04881684097)
(0.2207578102 -0.1928140633 -0.1440751812)
(0.1898914837 -0.1321396608 -0.003900769405)
(0.1230612764 -0.08443605586 0.0950559967)
(0.04219233572 -0.0532861377 0.1172001032)
(-0.04235856518 -0.01755600527 0.1146217203)
(-0.1363839 0.0265034971 0.09038468359)
(-0.2317691216 0.07251070481 -0.01308772405)
(-0.2833601317 0.1300764858 -0.1752662063)
(-0.2855827427 0.2081403359 -0.2827134781)
(-0.111983871 0.2515802513 -0.3743560148)
(0.1381873104 0.2933070138 -0.3799735682)
(0.2867894823 0.2682941648 -0.3041437479)
(0.3556438578 0.2054546366 -0.2670060541)
(0.3432925848 0.1290678147 -0.1726174642)
(0.2401916258 0.06228243491 0.0293278034)
(0.1281924204 -0.1787079586 0.02809542147)
(0.1503365162 -0.3240611654 0.04062670095)
(0.07722418911 -0.310434336 0.1161266239)
(0.06025686693 -0.3082281724 -0.04524939335)
(0.1222491935 -0.3707937368 -0.1899643003)
(0.1935432706 -0.3967759661 -0.2265919289)
(0.2430117853 -0.3639817265 -0.1764805528)
(0.2505647454 -0.2902015617 -0.05515288196)
(0.2126162589 -0.2027734454 0.06170150802)
(0.1356444557 -0.1331268596 0.1132806482)
(0.06094122662 -0.1007594683 0.09680918693)
(0.01636023747 -0.09804276887 0.07496673326)
(0.3036497733 -0.1213567183 -0.2543795273)
(0.2521862026 -0.09618904809 -0.1512167973)
(0.2065230371 -0.08155529772 -0.02523996251)
(0.1296862596 -0.07326557825 0.06581998582)
(0.03718179793 -0.05958100651 0.1150192119)
(-0.04569220586 -0.01630812658 0.1297980142)
(-0.1292819246 0.06706137728 0.1084421932)
(-0.1869553432 0.1555384209 -0.01028061887)
(-0.196115688 0.239162142 -0.1681027064)
(-0.09505578901 0.3243129268 -0.2714755313)
(0.1204315096 0.3673496303 -0.300559201)
(0.2265724674 0.3295429798 -0.2476836948)
(0.2796635146 0.2497352169 -0.1596654558)
(0.2596156664 0.1578684164 0.0362498278)
(0.127008432 -0.01887893886 0.172027767)
(0.1121317246 -0.2702097703 -0.1053546724)
(0.1443851679 -0.3627642772 -0.09489616471)
(0.03708119125 -0.3752633451 0.02579564971)
(0.04770991497 -0.3235729106 -0.1857045529)
(0.1496029407 -0.3593967092 -0.2988876533)
(0.2495683637 -0.3910983347 -0.3162898684)
(0.3153941274 -0.3618160391 -0.2923494847)
(0.3298850896 -0.2876055838 -0.2056396237)
(0.2954717286 -0.2013043116 -0.06022428465)
(0.2184043488 -0.139073734 0.0687889842)
(0.1104606755 -0.1120497666 0.1266050541)
(0.03286164822 -0.1258477247 0.1254262442)
(0.3355542141 0.08288287054 -0.3310431097)
(0.3167799064 0.06426343849 -0.2883915384)
(0.3102932649 0.02823266174 -0.2154160754)
(0.2939980685 -0.008469207902 -0.08684344702)
(0.2006191447 -0.03054333225 0.05776298739)
(0.07403784586 -0.01717777241 0.1198107019)
(-0.04481825732 0.03147471295 0.1352781217)
(-0.1095217665 0.1087973392 0.09930097236)
(-0.1331794314 0.1995268349 -0.007619687404)
(-0.09686911557 0.2945879761 -0.1508968737)
(0.04220485309 0.3435049731 -0.2386714719)
(0.1244942434 0.2693154582 -0.09839330409)
(0.1829837198 0.1643545007 0.05354759197)
(0.09770236685 0.05361154201 0.1628720765)
(0.02047873858 -0.1256396489 0.01022451723)
(0.1428464345 -0.2035441446 -0.2543819404)
(0.1463417317 -0.2634186805 -0.1955085311)
(0.0122469813 -0.2619643839 -0.08219740492)
(0.0215279743 -0.1412012943 -0.3266092068)
(0.1651942977 -0.1160056266 -0.4335305545)
(0.3053534313 -0.1533255973 -0.4397369171)
(0.4098081239 -0.1792584541 -0.3819254535)
(0.4386720184 -0.1727554524 -0.3024227127)
(0.3885533957 -0.1396152765 -0.2109442941)
(0.3093733571 -0.1204072652 -0.08010159956)
(0.2016597862 -0.126275511 0.04737479294)
(0.09257668298 -0.1720807649 0.1419481785)
(0.3311765551 0.1640122419 -0.2977456141)
(0.3245334109 0.1215232162 -0.2403566984)
(0.3248398351 0.08775170923 -0.1166048205)
(0.2572311089 0.05491655088 0.02753189439)
(0.1390649932 0.03357166303 0.1016068068)
(0.03653727293 0.02765027887 0.09425414695)
(-0.03434125579 0.02846513324 0.1033441103)
(-0.094023439 0.05817705717 0.1267839687)
(-0.1441660586 0.129731661 0.1080577899)
(-0.1535509337 0.2054955148 0.03423804715)
(-0.08740404813 0.2341756775 0.00382806546)
(-0.06121129397 0.05918642421 0.1791220391)
(-0.1340915354 0.02399245857 0.09239603867)
(-0.2140445393 0.06265086931 -0.1386534691)
(-0.1014487303 0.128105687 -0.345494986)
(0.105193907 0.1053875347 -0.4272793816)
(0.1812357985 0.07148940104 -0.342382849)
(0.1893499392 0.02471094366 -0.1654930735)
(-0.05298898377 0.1596859372 -0.1610159297)
(0.1224811671 0.1513655334 -0.3908958124)
(0.2593215181 0.1506851555 -0.3768755155)
(0.3964527287 0.1625803443 -0.3502104457)
(0.4604741393 0.1540735184 -0.3156581502)
(0.457250213 0.1202271504 -0.2999318139)
(0.4218913837 0.0641041375 -0.2505677114)
(0.350099079 -0.0004163497036 -0.1003697098)
(0.2180944626 -0.06583297711 0.1265664305)
(0.2579223073 0.2110468279 -0.2400273949)
(0.2790537095 0.1778773238 -0.1280646374)
(0.2491220899 0.1271302616 0.02228579165)
(0.167188506 0.07107197355 0.1101447112)
(0.07380555564 0.02576024126 0.1082437681)
(0.01736081377 0.007552031553 0.07563380441)
(-0.03060969475 0.00469751673 0.0766079897)
(-0.08449265339 0.020710441 0.1023119235)
(-0.1497653735 0.05522962484 0.1403907249)
(-0.1814643835 0.08113782626 0.1381221428)
(-0.1275667234 0.02500829727 0.09837273349)
(-0.003430057901 -0.1614739737 0.03687140096)
(-0.03985407609 -0.001887280435 0.1736257231)
(-0.1855155196 0.1180093836 -0.004150374793)
(-0.1210903755 0.1904947786 -0.2230473013)
(0.1051537834 0.258381809 -0.3411070275)
(0.1998108953 0.2588950681 -0.2704943193)
(0.2595812708 0.266763527 -0.1472667087)
(-0.06854115051 0.3386018862 -0.08241603444)
(0.07212359573 0.2893178724 -0.2874469253)
(0.2184046868 0.2368404137 -0.2559402057)
(0.3756039312 0.2061656943 -0.2510784142)
(0.4369174593 0.178510286 -0.2611009549)
(0.4379033604 0.1336119116 -0.2397294585)
(0.4145294363 0.09207480601 -0.1241004986)
(0.3106250408 0.06039502606 0.050438988)
(0.1438174652 0.07006260494 0.1752821902)
(0.1920706163 0.2194022965 -0.1126469535)
(0.1998381813 0.1648078875 0.02349222264)
(0.1580509613 0.1003588383 0.111355777)
(0.09441503641 0.04578295674 0.1104506472)
(0.04335295186 0.0166345212 0.07719210779)
(0.01091558639 0.002872480078 0.06526415313)
(-0.02408745634 0.001388031737 0.08071564279)
(-0.06230406085 0.008724268656 0.1095184822)
(-0.1146353902 -0.00170579457 0.113976753)
(-0.1429106593 -0.09740153582 0.03050003463)
(-0.0468261972 -0.230068808 -0.1245607675)
(0.08431272199 -0.2899660709 -0.2141160371)
(0.09865337034 -0.1729443213 0.003595147571)
(0.03774515831 0.006784008308 0.2033332718)
(-0.09711350723 0.249407908 -0.0116371204)
(0.1132390091 0.3420840277 -0.2467825106)
(0.1436949355 0.3583027264 -0.2273969664)
(0.1910493853 0.3680621181 -0.09676374356)
(-0.0531504444 0.4033024982 0.02161689303)
(-0.02921584332 0.2764839251 -0.1744930992)
(0.1404156959 0.2062085409 -0.1012461865)
(0.3732362753 0.2498549432 -0.1140404486)
(0.4755935574 0.2652536896 -0.1297880695)
(0.4720927634 0.2311618156 -0.07367292155)
(0.3973848972 0.1721972188 0.0520577746)
(0.2511748169 0.1088007343 0.1630811923)
(0.08629609563 0.07380906997 0.1930873303)
(0.1407002996 0.162478653 0.03750173381)
(0.1332411014 0.09567525924 0.1125853478)
(0.09115659702 0.03899758378 0.1152806348)
(0.05609477718 0.006204922852 0.07754440786)
(0.02028412496 -0.01817678573 0.0594211339)
(-0.005901469899 -0.03825202177 0.06402457187)
(-0.04781327381 -0.05328458321 0.06857382104)
(-0.08800546907 -0.05440557095 0.04483414923)
(-0.162049998 -0.05454498349 -0.03905118339)
(-0.1761848226 -0.07862660303 -0.1869969404)
(-0.01254205721 -0.113899085 -0.3627904478)
(0.1675575674 -0.1806669783 -0.3582185425)
(0.2347922595 -0.1757349732 -0.2292331688)
(0.1939543024 -0.1160070546 -0.009006528257)
(-0.0008436891836 0.07381852212 0.1418786046)
(0.06480250967 0.3122234411 -0.1147333742)
(0.1024174482 0.344414356 -0.138107783)
(0.1524395208 0.3650354534 0.01958891547)
(-0.07968562285 0.3543825323 0.1274411722)
(-0.009547803199 0.2199073686 -0.133219589)
(0.2414549731 -0.3237283122 -0.2810992411)
(0.3643716477 -0.3520992362 -0.1863257449)
(0.4032988083 -0.03745356779 -0.03439856627)
(0.3632767366 0.09709438308 0.09426598841)
(0.2764800014 0.0856860048 0.1779810316)
(0.1584329862 0.05139172258 0.186697704)
(0.05171537486 0.04749593027 0.1462688298)
(0.1165360369 0.07127365202 0.1163634047)
(0.1003875968 0.01729808498 0.1101945898)
(0.06537706232 -0.002078759436 0.07774493792)
(0.03400449188 -0.01296955333 0.05987446902)
(-0.01982552185 -0.0272098821 0.06994210254)
(-0.1020244075 -0.04298846142 0.07880224604)
(-0.2091666745 -0.02931369498 0.01379636684)
(-0.2789128094 0.03021785598 -0.1353455294)
(-0.3143616053 0.08968013461 -0.2612065995)
(-0.2636591676 0.1245060753 -0.3569740279)
(-0.04488775675 0.109950935 -0.4726054663)
(0.1966280026 0.07932255343 -0.4546912811)
(0.3175678827 0.06608326026 -0.3547648744)
(0.3509011957 0.1003255518 -0.2677410918)
(0.3118483799 0.09863156344 -0.1297518583)
(0.1856776056 0.1849880991 0.01636751691)
(0.1164104338 0.2540487757 0.08206250311)
(0.006946002288 0.3129894784 0.1793398725)
(-0.2646478144 0.3068461026 0.03629882266)
(-0.1759568304 0.3280290182 -0.381168438)
(0.3280932276 0.3193243661 -0.9781472376)
(0.5093285429 0.2385346194 -0.8253091083)
(0.6873443956 0.1910883157 -0.5664229405)
(0.6960146068 0.1083207629 -0.2376133569)
(0.5056048071 0.04793971201 0.08594555084)
(0.259472615 0.03178659584 0.1873217178)
(0.07845517093 0.03793144342 0.150451208)
(0.1196678136 -0.04798011318 0.1138495888)
(0.09792339707 -0.05806565749 0.08261841136)
(0.06343211101 -0.03645291776 0.05854486165)
(0.03406669751 -0.02630478393 0.05068912868)
(-0.0136295348 -0.00963240031 0.06068665977)
(-0.09431031717 0.01094853534 0.08350698792)
(-0.2147063553 0.04929034827 0.04195113)
(-0.3008630773 0.09929374358 -0.09209685857)
(-0.3345732716 0.1507083859 -0.235350358)
(-0.3104947441 0.2255984938 -0.3185103171)
(-0.07915575074 0.2573038892 -0.4299616957)
(0.1872166788 0.2551099482 -0.411390549)
(0.3313761007 0.2245275937 -0.3254185613)
(0.3891270652 0.2065833276 -0.2784512419)
(0.3838711199 0.2020086005 -0.2122928089)
(0.2956542947 0.2280276556 -0.02870466808)
(0.1752487449 0.2404346387 0.1391229446)
(0.01556623437 0.2977098748 0.2326853206)
(-0.2038514931 0.3410980817 0.103694908)
(-0.2915720296 0.4263092624 -0.2842405898)
(0.2198860945 0.4784134089 -0.8099994107)
(0.4738772824 0.4727790596 -0.7483578318)
(0.6285552679 0.3973273848 -0.6541023769)
(0.6263121928 0.3189626433 -0.3440936984)
(0.4617691421 0.2232517878 0.03358055976)
(0.2330931386 0.1425442342 0.165553411)
(0.06712703624 0.1059913413 0.1318257078)
(0.1771687914 -0.1209280162 0.1032678986)
(0.1273184141 -0.09710651485 0.08356207344)
(0.09971426526 -0.05696449877 0.0567372931)
(0.06014587347 -0.03782361025 0.04862154064)
(0.01641084514 -0.01117155246 0.05220010862)
(-0.03896373813 0.0164152201 0.0829952004)
(-0.1257201474 0.06631938297 0.1005626974)
(-0.2169032316 0.1361646489 0.0268150152)
(-0.262120668 0.2067717081 -0.1287467936)
(-0.2605057161 0.2813512299 -0.2638156813)
(-0.08998218036 0.3493713598 -0.3522137552)
(0.1806659141 0.3644803473 -0.3529787197)
(0.305146899 0.3397441603 -0.2988577928)
(0.3459673345 0.2980471806 -0.2766899541)
(0.3509092234 0.2687653554 -0.1812981046)
(0.2965474839 0.2558893861 -0.003920432374)
(0.1876697038 0.2363903115 0.1512369602)
(0.04494300746 0.2496420628 0.2142970671)
(-0.06493471211 0.2900368769 0.1894457601)
(-0.1840697595 0.4139678576 -0.0585120283)
(0.1165788073 0.6419344781 -0.5608231422)
(0.3249321115 0.6176836268 -0.6500140442)
(0.4517745633 0.5134394311 -0.4426369699)
(0.4367391273 0.3851002948 -0.06240202483)
(0.2955926122 0.24547176 0.1498016034)
(0.1472370611 0.1542970214 0.141511076)
(0.04567215268 0.1176067611 0.09542854772)
(0.2511781829 -0.258864567 0.09243114034)
(0.1737139948 -0.1938117364 0.1210063174)
(0.1261039808 -0.09457109422 0.07172427088)
(0.08193222638 -0.06346168226 0.05532003034)
(0.04351745709 -0.02284266106 0.04646325594)
(-0.001412386368 0.00485261199 0.06193117487)
(-0.05069704773 0.04721074716 0.09287633206)
(-0.1198217263 0.1129859969 0.1047054994)
(-0.166902225 0.193657166 0.01563135814)
(-0.1695693935 0.2700625036 -0.1339716123)
(-0.0696677322 0.3581252162 -0.2520281149)
(0.1557986258 0.3768737916 -0.3061408955)
(0.2355629986 0.3567348022 -0.2780365243)
(0.2785743556 0.3214138183 -0.2194615028)
(0.2890814268 0.2909889563 -0.08437040533)
(0.2390703291 0.2539132409 0.06562689906)
(0.1389689983 0.2076741263 0.1545564396)
(0.03799325229 0.1929078604 0.1558044423)
(-0.02609897509 0.207696725 0.1569888521)
(-0.1063972916 0.2756034946 0.09919139421)
(-0.02613154818 0.5472627923 -0.1990665179)
(0.2050491049 0.5871719473 -0.3421676147)
(0.2794630064 0.4740933616 -0.06775124219)
(0.2452597259 0.3235241827 0.1399336989)
(0.1571065961 0.2060609136 0.1452883071)
(0.08449482427 0.1434704912 0.09584915486)
(0.02683363121 0.1160204258 0.06457581858)
(0.5601926486 -0.3541712105 -0.2018605276)
(0.3582717382 -0.2994908976 0.09576302053)
(0.248938508 -0.155473228 0.08744722207)
(0.1411435619 -0.09128346704 0.06474425767)
(0.09063514586 -0.03762100717 0.04673621789)
(0.03877175087 -0.008804743676 0.04933816545)
(0.002316864815 0.02412763545 0.06322464997)
(-0.04144969873 0.06892919419 0.10243027)
(-0.08335146186 0.1317497074 0.10249354)
(-0.09194671784 0.2128515911 0.02241503386)
(-0.05042973902 0.2965153229 -0.126026449)
(0.1157713181 0.3365504979 -0.2494262067)
(0.166099619 0.3478384498 -0.1998915267)
(0.2147231609 0.3283282722 -0.0967415126)
(0.2096585449 0.2746030904 0.03948704401)
(0.1535633881 0.2131090375 0.1247708158)
(0.08225434371 0.1640760954 0.1258176973)
(0.02814688749 0.1491602304 0.09802405341)
(-0.01070903363 0.1544608441 0.09986101963)
(-0.06007904856 0.1862901341 0.113356118)
(-0.06668184242 0.338644957 0.06235588772)
(0.09215162009 0.4273967562 -0.0005216398106)
(0.13337403 0.3243541089 0.1156208673)
(0.1157022549 0.220127512 0.1310088098)
(0.08107373784 0.155681008 0.0855016554)
(0.04723505721 0.118641681 0.05584568903)
(0.01538502795 0.1011213726 0.04133457822)
(1.049648348 0.326091931 -0.8921955128)
(0.6266425042 -0.05393571422 0.04638866686)
(0.3917724992 -0.05670670869 0.167433726)
(0.2049855142 -0.05427529893 0.11136175)
(0.1324030919 -0.02110031456 0.0680082848)
(0.06503375402 -0.01255198813 0.05232383619)
(0.03528387108 0.00352338538 0.04877173606)
(-0.00255519205 0.02703049223 0.06968852329)
(-0.03076906177 0.05187826327 0.09310916283)
(-0.04057823875 0.1096732989 0.1077089855)
(-0.045200294 0.1860307095 0.01655551565)
(0.07014142216 0.310997437 -0.1538105085)
(0.1095979489 0.3207597867 -0.06656222926)
(0.1454156797 0.2712633974 0.04373248789)
(0.125501175 0.2019541362 0.1101799565)
(0.08601617372 0.149797965 0.1090969917)
(0.05047790417 0.1208037922 0.07693101864)
(0.02343731163 0.1129942657 0.05747496026)
(0.001494445031 0.1157943761 0.05635225316)
(-0.02397755847 0.1326931136 0.0697766503)
(-0.03748057799 0.1904095811 0.08480330115)
(0.02765723334 0.2406532933 0.09684580282)
(0.05888747245 0.1928140167 0.09165295144)
(0.05533971757 0.1476496561 0.07253952012)
(0.04249632393 0.1159831578 0.04598660636)
(0.02609334099 0.09566863827 0.03362542283)
(0.008644667674 0.0849476862 0.02653218401)
(0.7555073329 0.4134068818 -0.002334008072)
(0.3036338958 -0.07928705338 0.1842811694)
(0.3520009027 -0.07387412783 0.1360756016)
(0.177854146 -0.07665182979 0.110349358)
(0.1368977415 -0.04802204907 0.06600771582)
(0.06467578721 -0.03036938584 0.05016614004)
(0.0466243806 -0.01979323082 0.04358910876)
(0.01078261811 0.009617289129 0.05202849761)
(-0.01052079927 0.0008165267002 0.06567450524)
(-0.00458628552 0.04100824313 0.0992608366)
(-0.02780134356 0.07664306151 0.084317707)
(0.02605082788 0.2478273141 -0.006595232325)
(0.07166122317 0.2230294093 0.05663121655)
(0.08600637147 0.1691774493 0.101423378)
(0.07240092356 0.1251796126 0.09119529845)
(0.05372318371 0.1006040925 0.06536193381)
(0.03663084621 0.08738065326 0.04383589218)
(0.0221962976 0.08429718801 0.03457902552)
(0.009913647996 0.08685580937 0.03330004451)
(-0.001947826597 0.09666599638 0.03803976345)
(-0.007863835766 0.1182775672 0.04767425151)
(0.01244013289 0.1372290048 0.05854650746)
(0.02953871085 0.1205303594 0.04592503309)
(0.0287233631 0.101802392 0.036205318)
(0.02331147416 0.08659065519 0.02581075036)
(0.01478149296 0.07596459499 0.02052620125)
(0.004981439848 0.06961625781 0.01728281198)
(0.3443390584 0.2499738671 0.2255437596)
(0.1567192953 -0.2947256236 -0.1545797365)
(0.3404413903 -0.1649388123 0.02668435202)
(0.212023665 -0.08231953787 0.1543202729)
(0.1780787144 -0.03294892816 0.1433463204)
(0.09709831823 -0.03050508863 0.09465370486)
(0.0763945246 -0.0404248037 0.06723076511)
(0.02570449777 -0.01877552557 0.06111428139)
(-0.005683455163 -0.06673026348 0.05953913268)
(0.02761458439 -0.05008576758 0.08908060808)
(-0.001334874065 -0.01088929335 0.08059451523)
(0.01546992366 0.1202702432 0.08770973295)
(0.0524859587 0.09928256186 0.08149422401)
(0.05590440342 0.08321830304 0.07626807956)
(0.05011356634 0.07141632517 0.05213558195)
(0.04058371336 0.0648976378 0.03719289887)
(0.03131635789 0.06135750093 0.02668676396)
(0.02275483407 0.06168575657 0.02204403162)
(0.01514034624 0.06420127988 0.02064708823)
(0.008697846815 0.06999901596 0.02183059406)
(0.005856894464 0.07886003033 0.02466187143)
(0.01160936765 0.08689026469 0.02840796086)
(0.01768745477 0.08040979625 0.02333247868)
(0.01703785826 0.0726035814 0.01979142236)
(0.01391161702 0.06542478629 0.01564244999)
(0.008917395705 0.06005167836 0.01327206084)
(0.003045081573 0.05626120656 0.01178966545)
(-0.219065878 0.03260690558 -0.1498530963)
(0.1317260354 0.1159707504 -0.9483595379)
(0.4834410945 -0.1890384421 -0.4773383925)
(0.3080577969 -0.2814283005 -0.1168775113)
(0.1750701486 -0.1771548677 0.03909366057)
(0.06751389413 -0.1145625162 0.08300838471)
(0.06617929784 -0.09371507295 0.07564709366)
(-0.00239518671 -0.03124172664 0.07650471098)
(-0.01982965348 -0.1544461742 0.05052382267)
(0.07361291358 -0.1418248018 0.05425581925)
(0.0677463294 -0.06569323144 0.08890373572)
(0.05780579613 0.01200095975 0.09224726425)
(0.06919665457 0.01789426976 0.06398397371)
(0.059550201 0.03351255706 0.04881442624)
(0.05115431535 0.03706032339 0.03322618799)
(0.04150230234 0.04056308466 0.02463133529)
(0.03276527862 0.04229391149 0.01848242033)
(0.02524095957 0.04449088551 0.01537598462)
(0.01903481918 0.04711415927 0.01396421194)
(0.01422686582 0.05084378088 0.01382934384)
(0.0116133753 0.05513267946 0.01444305317)
(0.01217503021 0.05853784769 0.01515625967)
(0.01319912414 0.05641954608 0.01349997122)
(0.01197311523 0.05320022095 0.01201979559)
(0.009465849755 0.04992406982 0.0103909424)
(0.005992249742 0.04731084807 0.009311194763)
(0.00205557888 0.04500159716 0.008609221901)
(-0.5562736017 0.3621589715 -0.6798630582)
(0.0001889806226 0.5404667111 -1.230300876)
(0.5416563432 0.4834796739 -1.11510473)
(0.565533127 0.3197428471 -0.9472814605)
(0.559671921 0.09051531803 -0.4303263858)
(0.3683037039 -0.06415133426 0.05258668465)
(0.1938103755 -0.1193585725 0.1523858436)
(0.03112585558 -0.07510525989 0.1013315225)
(0.03540348619 -0.2706990007 -0.1421714395)