/*--------------------------------*- C++ -*----------------------------------*\
  =========                 |
  \\      /  F ield         | OpenFOAM: The Open Source CFD Toolbox
   \\    /   O peration     | Website:  https://openfoam.org
    \\  /    A nd           | Version:  8
     \\/     M anipulation  |
\*---------------------------------------------------------------------------*/
FoamFile
{
    version     2.0;
    format      ascii;
    class       volScalarField;
    location    "1.9";
    object      alphat;
}
// * * * * * * * * * * * * * * * * * * * * * * * * * * * * * * * * * * * * * //

dimensions      [1 -1 -1 0 0 0 0];

internalField   nonuniform List<scalar> 
67410
(
9.886750725e-05
0.0001214106143
0.000135841544
0.0001488497028
0.0001597228401
0.0001680631316
0.0001741271166
0.0001784455559
0.0001817317814
0.0001848627399
0.0001886632687
0.0001934509068
0.0001987491456
0.0002035572585
0.0002069257821
0.0002083415631
0.0002077695151
0.0002054721413
0.0002019209734
0.0001983197137
0.000196923144
0.0001979125793
0.0001988138413
0.0001987324871
0.0001957566925
0.000192564659
9.61081423e-05
0.0001207343985
0.0001376791411
0.0001527794477
0.0001654238865
0.0001754714269
0.0001834971247
0.0001905014346
0.0001977986638
0.0002064862141
0.0002166382075
0.0002271937355
0.000236736643
0.0002442216819
0.0002491111337
0.0002511717388
0.0002502317879
0.0002460273977
0.0002384024856
0.0002286393073
0.0002217340891
0.0002210744609
0.0002223621148
0.0002228563528
0.000220368116
0.0002163654689
9.867261846e-05
0.0001168316077
0.0001343260276
0.0001506234125
0.0001641896369
0.0001754324307
0.0001857011945
0.000196698078
0.0002095742636
0.0002239647752
0.0002383240536
0.0002511931863
0.0002618484732
0.0002700722633
0.0002757549647
0.000278676614
0.0002783837679
0.0002741100046
0.0002648250644
0.0002502087349
0.0002355175909
0.0002296763611
0.0002290978396
0.0002287183597
0.0002264694445
0.0002229190031
0.0001133667331
0.0001198274643
0.0001321313024
0.0001473623879
0.0001613423696
0.0001745281965
0.0001886048165
0.000204836879
0.0002226470808
0.0002401011975
0.0002556567072
0.0002688621189
0.0002798771998
0.0002887936082
0.0002954374759
0.0002994127962
0.0003000960834
0.0002966141149
0.0002876376184
0.0002711125819
0.0002499031429
0.0002365651517
0.0002319133762
0.0002289526591
0.0002263430767
0.0002239826317
0.0001234054119
0.0001295847368
0.0001354303922
0.0001471936775
0.0001611332406
0.0001767694175
0.00019463085
0.0002144693479
0.0002343878191
0.0002524639035
0.0002680595208
0.0002815169522
0.000293367518
0.0003034916886
0.0003114123935
0.0003165289868
0.0003181348492
0.0003154781314
0.0003073837413
0.0002906330891
0.00026561138
0.0002446642072
0.0002347074245
0.0002275496204
0.0002242302334
0.0002249335197
0.0001305616501
0.0001408691201
0.000144390772
0.0001527120808
0.0001660023097
0.0001827174865
0.0002017747748
0.0002222808744
0.0002423289766
0.0002603814266
0.0002761962544
0.0002903751739
0.0003032216222
0.0003144000393
0.0003234660181
0.0003297122652
0.0003323914638
0.0003308692245
0.0003241088871
0.0003077691587
0.0002804087769
0.0002532497598
0.0002384078209
0.0002261931499
0.0002238051967
0.0002324627788
0.0001363625219
0.0001510357944
0.0001553280129
0.0001621711894
0.0001742813224
0.0001897753491
0.000207240031
0.0002265256668
0.0002461536005
0.0002644045132
0.0002807576439
0.0002956724486
0.0003094027951
0.0003216404359
0.0003318890552
0.0003393953313
0.0003434280114
0.0003434229758
0.0003381606917
0.0003209664248
0.0002929245275
0.0002606377909
0.0002433800536
0.0002257778602
0.000231428479
0.0002553489828
0.0001407991113
0.0001587360697
0.0001646873125
0.0001714295186
0.0001823211943
0.0001954670068
0.0002100299362
0.0002273606203
0.0002465426285
0.0002652630056
0.0002823470908
0.0002979145656
0.0003125391091
0.0003259419146
0.0003375758653
0.0003466631713
0.000352489582
0.0003544083455
0.0003506918939
0.00033150155
0.0003027810367
0.0002662372326
0.0002491167186
0.0002279238488
0.0002504759834
0.0002982895913
0.0001445092642
0.0001642656953
0.0001714770173
0.0001780916068
0.0001878995606
0.0001989501967
0.0002105714594
0.0002257818152
0.0002445400591
0.0002639835244
0.0002822111204
0.0002989750958
0.000314666769
0.0003296102299
0.0003429618811
0.0003538282179
0.0003614253287
0.0003648201022
0.0003618569439
0.0003410698093
0.0003102837666
0.0002712800841
0.0002457382672
0.0002375577147
0.0002900803279
0.000358353167
0.0001498011306
0.0001704401425
0.000177856164
0.0001823643954
0.000190158923
0.0001999987321
0.000209565011
0.000223165478
0.0002419194304
0.0002627644836
0.0002831267463
0.0003022080499
0.0003199913527
0.000336672947
0.0003515805001
0.0003635778134
0.0003717952988
0.0003751058677
0.000371535573
0.0003506288509
0.0003127239825
0.0002769559246
0.0002453588498
0.0002575567303
0.000337639578
0.0004159479834
0.0001604536631
0.0001826629812
0.0001894807334
0.0001874981665
0.0001890069516
0.0001983182526
0.0002076166923
0.0002213518816
0.0002415143709
0.0002650098152
0.0002886188646
0.000310817222
0.0003310756825
0.000349352778
0.0003648847227
0.0003768624027
0.0003844825966
0.0003866911251
0.0003820564307
0.0003601982184
0.0003199232483
0.0002862900479
0.0002528476444
0.0002777128308
0.00037432709
0.0004594879562
0.0001790726056
0.0002051956145
0.000211626657
0.0001993158547
0.0001857717884
0.000193894837
0.0002052974589
0.0002219481225
0.0002454178724
0.0002723775525
0.0002992083371
0.0003239578953
0.0003459616615
0.0003649057825
0.0003804209655
0.000392011265
0.0003988364621
0.0003998843708
0.0003940671276
0.0003744142105
0.0003358628045
0.0003021266746
0.0002655347106
0.0002768331085
0.0003763101894
0.0004679303
0.000204325738
0.0002361290663
0.0002423626083
0.0002209264701
0.0001845642077
0.0001878099231
0.0002029036405
0.0002246118135
0.0002522064966
0.0002821944065
0.0003111586176
0.0003372985587
0.0003600511467
0.0003794128106
0.0003953480395
0.0004072861166
0.0004141958724
0.0004150479906
0.0004090102533
0.0003909428232
0.000355756416
0.0003196179556
0.0002791304736
0.0002460474676
0.0003115566339
0.0004051221468
0.0002317418896
0.000269193791
0.0002751901456
0.0002496499256
0.0001923260556
0.0001828588651
0.0001999657804
0.0002265752068
0.0002576739668
0.0002898611619
0.0003201993638
0.0003472362829
0.0003707594613
0.0003910587241
0.0004080131254
0.000420817068
0.0004282440946
0.0004292792471
0.0004234449561
0.0004067554496
0.0003754259998
0.0003375434388
0.0002949470259
0.0002495270188
0.0002490689107
0.0002936186704
0.0002567353309
0.0002993703086
0.0003066059744
0.0002822341246
0.0002145043614
0.000183137057
0.0001957566247
0.0002245871595
0.0002579186678
0.000291957957
0.0003238350134
0.0003522158372
0.0003770660076
0.0003986368431
0.0004166576413
0.0004301918698
0.0004379806822
0.0004391171838
0.0004334469537
0.0004187313426
0.0003896633407
0.0003537994756
0.0003116565694
0.0002627636409
0.0002320703812
0.0002563977213
0.0002766250908
0.0003251303859
0.0003369086554
0.000316698609
0.0002478276551
0.0001920180988
0.000191958784
0.0002173879239
0.000250245813
0.0002856394542
0.0003197407126
0.0003504846453
0.0003773404901
0.000400301361
0.0004191090591
0.0004330048981
0.0004409474108
0.0004422345522
0.0004370232698
0.0004251467026
0.000398421915
0.000367055475
0.0003252905973
0.000274252179
0.0002282850228
0.00023321306
0.0002901400793
0.0003458808578
0.0003627765501
0.0003465467871
0.0002782970735
0.0002085310837
0.000194709812
0.000208426704
0.0002341125436
0.0002680100391
0.0003041893207
0.0003385438977
0.0003686276486
0.0003935347572
0.0004132838136
0.0004277431596
0.0004363053419
0.0004386121111
0.0004350226112
0.0004266785284
0.0004054447367
0.0003837985791
0.0003433809964
0.0002911498342
0.0002394752551
0.0002134165987
0.0002946761555
0.0003557776236
0.0003761666866
0.0003593209026
0.0002895620051
0.0002270668752
0.000211623711
0.0002105171411
0.0002209588086
0.0002473478037
0.0002814307608
0.000316372219
0.0003477817351
0.0003740714389
0.0003954927906
0.0004120606763
0.0004236869652
0.0004297113173
0.0004296020048
0.0004252457979
0.0004177964034
0.0004103592393
0.0003743523162
0.000321011773
0.0002668038602
0.000229404518
0.0002824931969
0.0003451640238
0.000367877266
0.000346163673
0.0002795793605
0.0002448395889
0.0002392990853
0.0002273724961
0.0002165435563
0.0002253015104
0.0002488290271
0.0002782854793
0.000310196089
0.0003395653722
0.0003645829018
0.0003846448239
0.0003999457199
0.0004110881569
0.000419479115
0.0004264321075
0.0004343620218
0.0004392673495
0.0004096707798
0.0003544084783
0.0002952728805
0.0002557912841
0.0002141160194
0.0002907119318
0.0003255419115
0.0003061877593
0.0002659478427
0.0002664563784
0.0002697509885
0.0002548043162
0.0002285767432
0.0002183015878
0.0002288845509
0.00024592425
0.0002671865605
0.000292961265
0.0003179504078
0.0003402282794
0.0003608284278
0.0003818490836
0.0004051488083
0.0004298843841
0.0004482085116
0.0004548505625
0.0004319233016
0.0003761453144
0.0003114341277
0.0002789132416
0.0001716619562
0.000214417188
0.0002475822026
0.0002566792343
0.0002671799055
0.0002877260838
0.0002965251162
0.0002834253176
0.0002489568292
0.0002235902807
0.0002260098058
0.0002361154075
0.0002456930104
0.0002557240327
0.0002687258384
0.0002842564212
0.0003008936876
0.0003197050598
0.0003464850602
0.0003824576815
0.0004187630425
0.0004398456685
0.0004215513878
0.0003631967778
0.0003019373446
0.0002970065994
0.0001691293271
0.0001959283598
0.0002106658243
0.0002418652542
0.0002738059071
0.0002972683054
0.0003102694517
0.0003014234615
0.0002651107889
0.000230779108
0.0002284815272
0.0002380307498
0.0002462431578
0.0002522146676
0.0002566968532
0.0002605516378
0.0002650386053
0.0002717684676
0.0002832212042
0.0003054594522
0.0003391834571
0.000371288613
0.0003648956398
0.0003194481031
0.0002873695956
0.0003074257104
0.0001716496875
0.0001945781579
0.0002009534595
0.0002283499931
0.0002562347824
0.0002797330385
0.0002955902683
0.0002879136128
0.0002569803026
0.0002315672652
0.000231922167
0.0002422653993
0.0002512082151
0.0002579458969
0.0002632484726
0.0002679298003
0.0002728542119
0.00027824776
0.0002840656816
0.0002900234727
0.0002968883557
0.0003016475258
0.0003054976442
0.0002953178181
0.0002794614157
0.0002780274941
0.0001738426701
0.0001940428537
0.0001972107211
0.0001987530171
0.0001977431168
0.0002078566019
0.0002279664617
0.000226155051
0.0002175241938
0.0002224064405
0.0002352478132
0.0002473250292
0.0002570091617
0.0002648944644
0.0002719314228
0.0002790145459
0.0002855295957
0.0002908178591
0.0002933540081
0.0002913122733
0.0002838419128
0.0002769666498
0.0002801042017
0.0002750255373
0.0002648546891
0.0002687932889
0.0001877439389
0.000200490683
0.0002059620383
0.0002130935816
0.0002106487142
0.0001909334228
0.0001846786013
0.0001956004341
0.0002058104886
0.000222817896
0.0002394785378
0.0002530682882
0.0002641874442
0.0002740068578
0.0002837867701
0.0002935492832
0.0003025891142
0.0003096386327
0.0003127378849
0.0003103992246
0.0003017082718
0.0002832349795
0.0002743610101
0.0002744765488
0.0002671105388
0.0002173818256
0.0002246437558
0.0002254793217
0.0002328866698
0.0002292109817
0.0002035369888
0.0001730634466
0.0001816557091
0.0002059068676
0.0002277725591
0.0002454186784
0.0002598521845
0.0002723501769
0.0002842857866
0.000295786532
0.0003064749165
0.0003159227364
0.0003229383634
0.0003257620856
0.0003228147509
0.0003084162103
0.0002928108146
0.0002871565265
0.0002849987119
0.0002750836213
0.0002455418211
0.0002578996849
0.0002499960629
0.0002506782926
0.0002434738205
0.0002153905098
0.0001811023737
0.0001857087635
0.0002104487413
0.0002328769691
0.0002510196327
0.0002662708117
0.000280129816
0.0002936591173
0.0003059263696
0.00031676094
0.0003256617794
0.0003318602192
0.0003345197386
0.000333968238
0.0003175768225
0.0003020580648
0.0003087354573
0.0003119675198
0.0003006468592
0.0002734025723
0.0002922855964
0.0002771012239
0.0002669212058
0.0002557298564
0.000225645395
0.0001887207044
0.0001912750211
0.0002149217231
0.000236737333
0.0002547490443
0.0002703788383
0.0002850529078
0.0002988570898
0.0003109382722
0.0003210835472
0.0003292671759
0.000335891701
0.0003395376121
0.0003393031898
0.0003274169759
0.0003128651014
0.0003083590312
0.0003060457432
0.0002963865574
0.00031101132
0.0003347317096
0.000311295065
0.0002876295186
0.0002668467504
0.000231527424
0.0001910191129
0.0001947593494
0.0002180687568
0.0002393659514
0.0002570710629
0.0002725017398
0.0002867350169
0.000300629345
0.0003129130312
0.0003234412702
0.000333011864
0.0003437084031
0.0003541068715
0.0003572854676
0.000339756782
0.0003204840665
0.0003086817294
0.0003057815195
0.0003151046709
0.0002884597749
0.000350089168
0.0003740131329
0.0003468429954
0.0003155751087
0.0002812864735
0.0002389756693
0.0001854210878
0.0001915865066
0.0002158727094
0.000238014752
0.0002566351774
0.000273006845
0.0002879588184
0.0003020620611
0.0003152560608
0.0003259830325
0.0003345354354
0.0003419805804
0.0003507662121
0.0003639092611
0.0003512767869
0.0003256717771
0.000310391866
0.0003108163132
0.0002984651511
0.0002791742143
9.757698173e-05
0.0001224630721
0.0001362142861
0.0001489621478
0.0001610590942
0.0001717504676
0.0001803561401
0.0001863670028
0.000189729315
0.0001909731458
0.0001911349106
0.0001913946893
0.0001926201309
0.000195022475
0.0001981989365
0.0002015107112
0.0002044798386
0.0002069761037
0.0002092227627
0.0002118113757
0.0002154411735
0.0002194465373
0.0002221472701
0.0002229863407
0.000219638276
0.000214065002
9.640187426e-05
0.0001874357734
0.0002241712927
0.000255725854
0.0002928045807
0.0003324769905
0.000366077426
0.0003853998553
0.0003888409427
0.0003815157775
0.0003715883214
0.0003662777818
0.0003696975027
0.0003821393873
0.0004007942463
0.0004216340144
0.0004419577373
0.0004623996715
0.0004872914121
0.0005228381218
0.000571613566
0.0006242932291
0.0006650798393
0.000685745812
0.0006783720759
0.000643330892
9.311280192e-05
0.0001781607882
0.0002271389706
0.0002661155595
0.0003080144322
0.0003488726775
0.0003803233485
0.0003974082881
0.0004036700171
0.000408249531
0.0004197455466
0.0004426377302
0.0004757677212
0.0005136516929
0.0005492711349
0.0005764606029
0.0005929878647
0.0006024258357
0.0006139956353
0.0006405229718
0.0006913495556
0.0007599342437
0.0008136742602
0.0008358728555
0.0008231797664
0.00078176428
0.0001055660058
0.0001696996198
0.0002168980553
0.0002547955684
0.0002904944765
0.0003216795081
0.0003455400408
0.0003640587415
0.0003853293475
0.0004183232735
0.0004673778394
0.0005290870261
0.0005936074442
0.0006526220872
0.0007005498367
0.0007319548712
0.0007446366119
0.0007424044883
0.000735534543
0.0007389117505
0.0007644549915
0.000823058064
0.0008705222061
0.000880728262
0.0008518877222
0.0008061061915
0.0001159250635
0.0001829299865
0.0002139922875
0.0002437345452
0.0002702482842
0.0002937394116
0.0003159639761
0.000343052775
0.000384518169
0.0004469613821
0.0005280874023
0.0006137963983
0.0006876635536
0.0007502297811
0.000802315435
0.0008390991592
0.0008557533144
0.0008539338714
0.0008434644235
0.0008371752302
0.0008312071724
0.0008603238057
0.0008871090356
0.0008742353136
0.0008159499024
0.0007678142758
0.0001230604147
0.0002024368495
0.0002256863152
0.0002439169111
0.0002637226767
0.0002869998792
0.0003139905245
0.0003503009414
0.0004054742279
0.0004841419582
0.0005781166587
0.000666028741
0.0007428049063
0.0008165548569
0.0008798383989
0.0009248634288
0.0009460288042
0.0009427036702
0.0009228961899
0.000901029635
0.0008888753312
0.000883573223
0.0008878942436
0.00083978677
0.0007539705493
0.0007244805253
0.0001285346917
0.0002257040315
0.0002512423981
0.0002610721985
0.0002785440651
0.0003071549127
0.0003394957127
0.0003778970341
0.0004332801509
0.0005117980391
0.0006060530312
0.0006968195692
0.0007817563127
0.0008648517146
0.0009375720121
0.0009915507911
0.001019182345
0.001017330752
0.0009927695466
0.0009571819421
0.0009263890259
0.0009024276503
0.0008957316333
0.0007959633432
0.0006973559717
0.0007326640717
0.0001323593033
0.0002456129452
0.0002812025882
0.0002899704432
0.0003103320507
0.0003465292773
0.0003801805756
0.0004105537469
0.0004537972699
0.000521461558
0.0006111558013
0.0007096927144
0.0008029753077
0.0008939302449
0.0009750121205
0.001037690569
0.001072964842
0.001075649624
0.001051973308
0.001009661001
0.0009578458824
0.0009213081796
0.0008848336687
0.0007568692605
0.0006030824163
0.0007150887667
0.0001346796483
0.0002535247762
0.0003015240184
0.0003163070993
0.000344572219
0.0003890829182
0.0004202627185
0.0004368197871
0.0004629329478
0.0005160068013
0.0005977807104
0.0006993530785
0.0008073080363
0.0009064617553
0.0009938851431
0.001063595027
0.00110649267
0.00111578367
0.001096182535
0.001055522265
0.0009881747899
0.0009245278453
0.0008551024018
0.0007340168791
0.0005592512427
0.0006565977007
0.0001369921581
0.0002480169291
0.0003049329831
0.0003265348045
0.0003632033027
0.0004156538872
0.0004454662833
0.0004514928391
0.000464343098
0.0005055159839
0.0005794187825
0.0006805953329
0.0007974212305
0.0009074338571
0.0009982702521
0.001072288744
0.001120970212
0.001135640698
0.001118957997
0.001084335051
0.001015926018
0.0009013523776
0.0007769655222
0.0007333328256
0.0005570106151
0.0007777333812
0.0001420509845
0.0002384797501
0.0003000320111
0.0003205108346
0.0003561505726
0.0004123890311
0.0004465304726
0.0004533363983
0.0004642001853
0.0005023917547
0.00057445388
0.0006766667263
0.0007961948651
0.0009044243053
0.0009951028294
0.001070608182
0.001121287701
0.001135929712
0.001118154782
0.00108757314
0.001021475037
0.0009148805312
0.0007993502671
0.0006669724201
0.000587743259
0.0009485408026
0.0001521228205
0.0002385950481
0.0003057454097
0.0003126609417
0.0003290605825
0.0003789238264
0.000421882977
0.0004427554964
0.0004664686022
0.0005147910582
0.0005952546231
0.0007017982788
0.0008106922733
0.0009066181428
0.000994394917
0.001069975329
0.001121233326
0.001136345772
0.00111735928
0.001083428127
0.001022612613
0.0009325263545
0.0008434892084
0.0005453032385
0.0005925604285
0.0009825675273
0.0001673312665
0.0002602980448
0.0003380219783
0.0003193395437
0.0002984276011
0.0003294574696
0.0003797019833
0.0004224279892
0.0004707719167
0.0005412536582
0.0006379547988
0.0007412306452
0.0008311096743
0.0009190835834
0.00100597759
0.001081679931
0.001130888278
0.001143037257
0.001120757805
0.001078885566
0.001018681315
0.0009366580795
0.0008396425686
0.0005823720857
0.0005287519479
0.0008503087297
0.0001860047167
0.0003150618691
0.0004006042872
0.0003487719965
0.0002802138902
0.0002843813191
0.0003350359253
0.0003974227914
0.0004718360448
0.0005671462826
0.0006771731789
0.0007670502616
0.0008503561156
0.0009389985575
0.001029534892
0.00110716598
0.001154306252
0.001161277481
0.001132531265
0.001083538415
0.001020470661
0.0009414329042
0.0008014945836
0.0005896263242
0.0004857869761
0.0006904610812
0.0002062695263
0.0004079747443
0.0004830666668
0.0004027125446
0.0002868337407
0.0002577332595
0.0002997005953
0.0003705426708
0.0004602172377
0.0005709014428
0.0006867980508
0.0007758886239
0.000862381718
0.000955845957
0.001050377392
0.001129790779
0.001176514894
0.001181924076
0.001151502587
0.00110028194
0.001033283648
0.0009322223593
0.0006947555863
0.0005058465443
0.0004744462739
0.0006131725882
0.0002262977681
0.0005215769774
0.000596545216
0.0004937136085
0.0003301085906
0.0002532381163
0.0002770992611
0.00034324856
0.0004326465474
0.0005451176997
0.0006694035732
0.000769167573
0.0008628316348
0.0009591915375
0.001053545342
0.001132295215
0.001179764141
0.001188001802
0.001162730425
0.001119131684
0.00106292845
0.0009595611446
0.0007177364293
0.000554145718
0.0004670013864
0.0005566910678
0.0002414392241
0.0006271621106
0.0007142609638
0.0006115358665
0.0004079033247
0.0002706941335
0.0002695908045
0.000322126334
0.0003987328995
0.0004982471842
0.0006199832114
0.0007429851172
0.0008471314633
0.0009444753373
0.001034536386
0.001110158526
0.001159676166
0.001175854802
0.00116382824
0.001137878961
0.001101891426
0.001015385752
0.0008483712574
0.0005760935756
0.000472141368
0.0005060839355
0.0002429683644
0.0006750025846
0.0007790872587
0.0006903511051
0.00047992408
0.0003079973345
0.0002872168507
0.0003212677663
0.0003760076116
0.0004528378669
0.0005530469338
0.0006741241142
0.0008015510946
0.0009036869754
0.0009910141632
0.001064235821
0.001119828547
0.001152526157
0.001164712555
0.001163788814
0.00114456592
0.001082075576
0.0009749344451
0.000726003367
0.000539156729
0.0005119512803
0.0002231249229
0.0006341141425
0.0007535741586
0.0006869487421
0.000504473281
0.000359157864
0.0003434557957
0.0003586807128
0.0003822725345
0.0004324837355
0.0005068882201
0.0005949102256
0.0006972283768
0.0008141984546
0.000918745772
0.001001776102
0.001074822035
0.00113325651
0.001173685834
0.001191656818
0.001180384391
0.001145416781
0.001094451258
0.0009610841244
0.0007163761589
0.0006529014803
0.0001861095538
0.0005231352852
0.0006409310321
0.0006047920283
0.0004834468632
0.0004238064865
0.0004452843099
0.000448248535
0.0004314010546
0.0004485554437
0.0005066331987
0.0005740449562
0.0006395894643
0.0007098740247
0.0007961636765
0.0009060852261
0.001015980962
0.00109747201
0.001160189457
0.001194849772
0.001194370205
0.001176961557
0.001173531198
0.001127077209
0.0009688850605
0.000939471202
0.000166362215
0.0004200506425
0.0004790522237
0.0004716416213
0.0004480544953
0.0004803324804
0.0005455737952
0.0005602188927
0.0005165630777
0.0004966684719
0.0005515457781
0.0006288765451
0.0006956402226
0.0007482681971
0.0007937765179
0.0008462355201
0.0009227656317
0.001029066482
0.001124839217
0.001191514259
0.001217677642
0.001199114503
0.001185579793
0.001195566559
0.001176237389
0.00116894424
0.0001675114919
0.0004311384449
0.0004305292786
0.0003961766216
0.0004140546186
0.0004807738639
0.0005757143591
0.0006138869574
0.0005783026694
0.0005435064374
0.0005997040446
0.0006960419642
0.0007818613992
0.0008478920789
0.0008960121342
0.000934914929
0.0009781326665
0.001035512125
0.001110599581
0.001174208507
0.001213986032
0.001212862176
0.001191399458
0.001252158559
0.001289497998
0.001288980972
0.0001672511993
0.0004293366681
0.0004255407838
0.0003701197457
0.000360610507
0.0004033178196
0.0004970680602
0.0005592198859
0.0005653175207
0.0005707860662
0.0006480369214
0.0007583179831
0.0008550517112
0.0009303794035
0.0009870820339
0.00103218073
0.001062279666
0.001086157124
0.001103261713
0.001109659161
0.001122617932
0.001170503704
0.001210754932
0.001289074401
0.001335688679
0.001408037687
0.0001621687098
0.0003967481242
0.0004134203534
0.0003642300523
0.0003185652449
0.0003010169981
0.0003680480516
0.0004538153431
0.0005154221159
0.0005954008654
0.0007058776045
0.0008211059558
0.00092002472
0.0009981470935
0.00105694056
0.001088534729
0.001111278337
0.001124414127
0.00112356688
0.001115452247
0.001125729456
0.0011584705
0.001207679692
0.001286435167
0.001346187063
0.001444762551
0.0001540111389
0.0003388866508
0.0003691108808
0.0003676300286
0.0003337950311
0.0002732264363
0.0002782719731
0.0003585782526
0.0004688958722
0.0005941515234
0.000729537233
0.000858889139
0.0009675626615
0.001052452099
0.00111147249
0.001148662381
0.001176620949
0.001189491434
0.001179579337
0.001158803222
0.001160999458
0.001188213642
0.001258943598
0.001412316594
0.00135250006
0.0001525648751
0.0003093266425
0.0003773379054
0.0004339426453
0.0004085342126
0.0003146593444
0.0002764595131
0.0003406875253
0.0004658782689
0.0006114649285
0.0007607859797
0.0009021540044
0.001021148387
0.001103924122
0.001159145946
0.001203226938
0.001237040248
0.001252836049
0.001244424396
0.001229596566
0.001237416697
0.001235544204
0.001263252419
0.001346751681
0.001442287189
0.0001740502272
0.0003566186327
0.0004710061445
0.0005495570264
0.0005061888696
0.0003771627749
0.0003004555829
0.0003425706609
0.0004616547709
0.0006123812575
0.0007743325253
0.0009304195944
0.001058204485
0.001138096505
0.001198532655
0.001245961233
0.001280535689
0.001299213599
0.001293543544
0.00128425667
0.001299516317
0.001280744724
0.001279329495
0.001367606579
0.001496641562
0.0002288735037
0.0005069725666
0.0006351870932
0.0006710289079
0.0005878132019
0.0004349419629
0.0003269749308
0.0003478590793
0.0004597663834
0.0006154269088
0.0007894559616
0.0009561505914
0.001083874007
0.001170738165
0.001236993899
0.001288067596
0.001332274312
0.001384483785
0.001383683617
0.001377039745
0.001376239102
0.001325545723
0.001302102772
0.001355055491
0.001434527049
0.0002953279592
0.0006905970699
0.0007620305062
0.0007374526519
0.0006244363136
0.0004510651663
0.0003360914798
0.0003469684346
0.0004507173544
0.0006050950418
0.000781969417
0.0009552422049
0.001104363888
0.001207843271
0.001284632661
0.001344009072
0.001404085318
0.001488405116
0.001480001148
0.001500410715
0.001512847613
0.001404126186
0.001334348581
0.001369335211
0.001447491104
0.001338535923
0.000329975102
0.0007049537274
0.0007476008866
0.0007039083704
0.0005819101815
0.0004113912261
0.0003272172997
0.0003430825341
0.0004332496494
0.0005698125765
0.0007356140934
0.0009141357893
0.001088261895
0.001235359284
0.001324655147
0.00138623834
0.001436525755
0.001496037918
0.00159475293
0.001717424886
0.001690600102
0.001495882827
0.001362626713
0.001325242298
0.001282149711
0.001083043313
0.0001014984672
0.000127010418
0.0001402632562
0.0001523430924
0.0001644876505
0.0001761323649
0.0001863092919
0.0001940553725
0.0001988321142
0.0002006829486
0.0002002284718
0.000198545158
0.0001969451499
0.0001966111025
0.0001982004563
0.0002016585608
0.0002063901418
0.0002116766501
0.0002170463307
0.0002223775363
0.0002276500208
0.0002322396664
0.0002350730078
0.0002356122695
0.0002322854716
0.0002261325066
0.000102898811
0.000233226309
0.0002874342852
0.0003301390902
0.0003783867335
0.000432601163
0.0004839357743
0.0005210989355
0.000538163516
0.0005362248451
0.0005214577414
0.0005025713681
0.0004886896496
0.0004872881276
0.000501644062
0.0005300442405
0.0005681216779
0.0006129799953
0.0006652084135
0.0007262415468
0.0007922027907
0.0008517644414
0.0008935363679
0.0009123784224
0.0009035083666
0.0008631145373
9.609929671e-05
0.0002184356895
0.000297535351
0.0003555672842
0.0004155598818
0.0004773532282
0.0005319749083
0.0005696213243
0.0005877546905
0.0005913657892
0.0005892736605
0.0005910283753
0.0006040993487
0.0006316662702
0.0006711853298
0.0007159443395
0.0007603608908
0.0008048902169
0.0008563112657
0.0009220787555
0.001000585157
0.001077033326
0.00112882079
0.001148429615
0.001134284524
0.001084483773
0.0001059111476
0.0001968987216
0.0002812649275
0.0003429952213
0.0003999322357
0.0004520479126
0.0004949814924
0.0005259177202
0.0005489453275
0.000572052884
0.0006026569869
0.0006445277158
0.0006976088911
0.0007584708867
0.0008202712404
0.000874810473
0.0009178481352
0.0009520271923
0.0009867938342
0.001034051398
0.001097306455
0.001166899807
0.001212391064
0.001224050882
0.001202014798
0.001145487877
0.000116401776
0.0002146352161
0.0002741123741
0.0003280205994
0.0003747423492
0.0004144389825
0.0004475818818
0.000477491631
0.0005124567224
0.0005602898932
0.0006233646456
0.0006982338361
0.0007796020771
0.0008616786384
0.0009372482589
0.0009975558438
0.001039702809
0.001065332319
0.001082727117
0.001105502793
0.001142645515
0.001193381934
0.00122660403
0.001228342997
0.001193801828
0.001129366831
0.0001238608191
0.0002396943541
0.0002859074667
0.0003252962519
0.0003616212055
0.0003966958328
0.0004305966785
0.0004664514952
0.0005127467802
0.0005760959853
0.0006556668217
0.0007456528355
0.0008406719445
0.000932381472
0.00101662154
0.001084803522
0.001128738546
0.001146963203
0.001147904557
0.001146346253
0.001157385554
0.001184921749
0.001207781003
0.001202953023
0.001156164295
0.001092106828
0.0001295056641
0.0002701011458
0.0003168426113
0.0003438388066
0.0003739507604
0.0004141601444
0.0004567084372
0.0004977600503
0.0005452014546
0.0006078804777
0.0006874600182
0.0007801485733
0.0008800929457
0.0009803480691
0.001075525988
0.001153201483
0.001201861411
0.001217255304
0.00120643451
0.001181620261
0.001161916611
0.00116463151
0.001182156305
0.001180462231
0.001128428969
0.001049308388
0.0001335192926
0.0002992051283
0.0003565735909
0.0003794157878
0.0004097678947
0.0004609403345
0.0005127062884
0.0005518956987
0.0005884592013
0.0006379699796
0.0007083334542
0.0007984328763
0.0009010749705
0.001007768461
0.001111759735
0.001198374278
0.001253217918
0.001269967196
0.001254363102
0.001215934716
0.001172618234
0.001149964973
0.001158701601
0.001171087248
0.001122865596
0.0009820560372
0.0001357367946
0.000316416645
0.000387685522
0.0004139859245
0.0004505358631
0.0005145378989
0.000572775866
0.0006048624505
0.0006252229548
0.0006573648
0.0007156367353
0.0008012583578
0.00090586331
0.001016285438
0.001126014172
0.001219563177
0.001280347929
0.001299746503
0.001282435009
0.001239637382
0.001183287239
0.001143749085
0.001145126229
0.00116265961
0.001090338993
0.0009343722307
0.0001369322053
0.0003169962934
0.0003993033609
0.0004296722978
0.0004729098643
0.0005482968511
0.0006123030815
0.0006395108855
0.0006480728726
0.0006667170214
0.0007144247604
0.0007948578874
0.0008993815354
0.001011616441
0.001123751639
0.0012213009
0.001285515907
0.00130542168
0.001286833853
0.001245262545
0.001184453985
0.001138204936
0.00113758549
0.001127040181
0.00103758244
0.000979710186
0.0001391693201
0.0003077034954
0.0003975777406
0.0004246990633
0.0004652526587
0.0005449864281
0.0006158948146
0.0006470748477
0.0006561769163
0.0006721924753
0.0007155615541
0.0007918726308
0.0008930694015
0.001002593028
0.001113649939
0.001211528402
0.001275165821
0.001292352785
0.001272152454
0.001234147126
0.001173638525
0.001117578919
0.001100133563
0.001085091832
0.0009926144007
0.00107498823
0.0001446400361
0.0003026030795
0.0004010786621
0.0004147758519
0.000434812838
0.0005043940065
0.0005809866636
0.0006262074437
0.000651294889
0.0006796605625
0.0007287428615
0.0008032691379
0.0008957092763
0.0009972983865
0.00110423051
0.001198947927
0.001258400654
0.001270753315
0.001246119629
0.001204713832
0.001146237226
0.00108930902
0.00106186731
0.001026249627
0.0009696963606
0.001100771223