/*--------------------------------*- C++ -*----------------------------------*\
  =========                 |
  \\      /  F ield         | OpenFOAM: The Open Source CFD Toolbox
   \\    /   O peration     | Website:  https://openfoam.org
    \\  /    A nd           | Version:  8
     \\/     M anipulation  |
\*---------------------------------------------------------------------------*/
FoamFile
{
    version     2.0;
    format      ascii;
    class       volScalarField;
    location    "1.9";
    object      nut;
}
// * * * * * * * * * * * * * * * * * * * * * * * * * * * * * * * * * * * * * //

dimensions      [0 2 -1 0 0 0 0];

internalField   nonuniform List<scalar> 
67410
(
8.572734368e-05
0.0001052743752
0.0001177873727
0.0001290666989
0.0001384947621
0.0001457266089
0.0001509846773
0.000154729182
0.000157578647
0.0001602934686
0.0001635888608
0.0001677401639
0.0001723342035
0.0001765032577
0.0001794240545
0.0001806516449
0.0001801556103
0.00017816357
0.0001750843873
0.0001719617807
0.0001707508461
0.0001716087986
0.0001723902925
0.0001723197624
0.0001697394576
0.0001669716617
8.333471671e-05
0.0001046880403
0.0001193807646
0.0001324741942
0.0001434381553
0.0001521503583
0.0001591094239
0.0001651828383
0.0001715102328
0.0001790431654
0.0001878459125
0.0001969985665
0.0002052731818
0.0002117634226
0.0002160030331
0.0002177897565
0.0002169747096
0.000213329086
0.0002067175501
0.0001982519418
0.0001922644654
0.000191692519
0.0001928090455
0.0001932376043
0.0001910800546
0.0001876093792
8.555835248e-05
0.0001013039372
0.0001164732919
0.0001306047063
0.0001423679447
0.0001521165456
0.0001610205635
0.0001705559265
0.0001817208271
0.0001941988028
0.0002066497051
0.0002178085089
0.0002270476869
0.0002341785097
0.0002391059511
0.0002416392853
0.0002413853381
0.0002376795506
0.0002296285874
0.0002169547987
0.0002042161474
0.0001991512489
0.0001986496167
0.0001983205747
0.0001963705281
0.000193291965
9.829956362e-05
0.0001039016284
0.0001145702519
0.0001277770826
0.0001398990862
0.0001513324822
0.0001635382826
0.0001776130663
0.000193056263
0.000208190713
0.0002216788902
0.0002331292963
0.0002426804581
0.0002504118518
0.0002561727211
0.000259619695
0.0002602121546
0.0002571929309
0.0002494094076
0.0002350805604
0.0002166898721
0.0002051245441
0.0002010909998
0.0001985237752
0.0001962609664
0.0001942142654
0.0001070040741
0.0001123621166
0.0001174308715
0.0001276307859
0.0001397177417
0.0001532758298
0.0001687634396
0.0001859653734
0.0002032366693
0.0002189104447
0.0002324334076
0.0002441023392
0.000254377943
0.0002631565788
0.0002700245867
0.0002744611546
0.0002758535792
0.0002735499348
0.0002665312884
0.0002520068128
0.0002303104735
0.0002121472258
0.0002035137155
0.0001973072172
0.0001944288921
0.000195038793
0.0001132092246
0.0001221467608
0.0001252003739
0.0001324157639
0.0001439396886
0.0001584333838
0.0001749579323
0.0001927387586
0.0002101224696
0.0002257757568
0.0002394887954
0.0002517833217
0.0002629224436
0.0002726152031
0.000280476263
0.0002858923384
0.0002882154419
0.0002868955007
0.0002810336158
0.000266865482
0.0002431412671
0.0002195917149
0.0002067222754
0.0001961309842
0.0001940602138
0.0002015673685
0.0001182391422
0.0001309622501
0.0001346840122
0.0001406177173
0.0001511183923
0.0001645532457
0.0001796968621
0.0001964194341
0.00021343882
0.000229264193
0.0002434439904
0.000256376597
0.0002682821383
0.0002788933356
0.0002877798408
0.0002942884602
0.0002977851391
0.0002977807378
0.0002932178045
0.0002783087507
0.0002539936047
0.0002259977998
0.0002110335843
0.0001957707813
0.0002006699597
0.0002214117665
0.000122086099
0.0001376391403
0.0001427994318
0.0001486455832
0.0001580897439
0.0001694884783
0.0001821159989
0.0001971434367
0.0002137761586
0.0002300086011
0.0002448222069
0.0002583207415
0.0002710016334
0.0002826231287
0.0002927108266
0.000300590318
0.0003056422899
0.0003073059536
0.0003040833877
0.0002874436114
0.0002625400572
0.0002308529921
0.0002160077322
0.0001976314284
0.0002171861911
0.0002586451891
0.000125303166
0.0001424338707
0.0001486867698
0.0001544222623
0.0001629267339
0.0001725087525
0.0001825855637
0.0001957744668
0.0002120397389
0.0002288991667
0.0002447043071
0.0002592403222
0.0002728465133
0.0002858038941
0.0002973809776
0.0003068030177
0.000313390297
0.0003163337395
0.0003137643494
0.0002957400758
0.0002690455519
0.0002352255437
0.0002130782383
0.0002059843884
0.0002515267695
0.0003107259195
0.0001298917249
0.0001477877203
0.0001542181133
0.0001581271884
0.0001648858247
0.0001734179411
0.0001817128827
0.0001935058525
0.0002097673985
0.0002278421358
0.000245498238
0.0002620435995
0.0002774634306
0.0002919279248
0.0003048540911
0.0003152567448
0.0003223818884
0.0003252522782
0.0003221564812
0.0003040285741
0.0002711614184
0.0002401469341
0.0002127492286
0.000223325053
0.0002927651875
0.000360665809
0.0001391284834
0.0001583860989
0.0001642977377
0.0001625786662
0.0001638869565
0.000171960805
0.0001800235065
0.0001919332932
0.0002094161752
0.0002297890569
0.0002502604373
0.0002695085851
0.0002870746115
0.0003029225285
0.0003163900496
0.0003267756152
0.0003333827943
0.0003352975936
0.0003312789093
0.000312326004
0.0002774037657
0.0002482404533
0.0002192427418
0.0002408026281
0.0003245767079
0.000398418784
0.0001552728671
0.0001779240507
0.0001835003817
0.0001728257396
0.0001610817567
0.0001681252721
0.0001780125074
0.0001924502961
0.0002128008967
0.0002361776096
0.0002594425488
0.0002809028314
0.0002999821838
0.0003164084232
0.0003298613456
0.0003399109573
0.0003458287735
0.000346737232
0.0003416931858
0.0003246524508
0.0002912247382
0.0002619722384
0.0002302435881
0.0002400400603
0.0003262962985
0.0004057392981
0.0001771697104
0.0002047463129
0.0002101514024
0.0001915642207
0.0001600346601
0.0001628490504
0.0001759368277
0.0001947599738
0.0002186872993
0.0002446897875
0.0002698046167
0.0002924704818
0.000312199083
0.0003289873041
0.0003428043755
0.0003531554843
0.0003591465958
0.0003598853079
0.0003546501006
0.0003389841298
0.0003084742572
0.0002771387337
0.000242032432
0.0002133457183
0.0002701488629
0.0003512789249
0.0002009420754
0.000233416591
0.0002386160249
0.0002164702211
0.0001667649104
0.0001585559786
0.000173389399
0.0001964624145
0.0002234281235
0.0002513376119
0.000277643823
0.0003010874262
0.0003214841501
0.0003390852972
0.0003537860183
0.0003648878469
0.0003713274337
0.0003722248446
0.0003671660739
0.0003526949593
0.0003255295548
0.0002926817815
0.0002557467295
0.0002163625344
0.0002159661231
0.0002545949736
0.0002226136944
0.0002595825056
0.0002658565295
0.0002447238606
0.0001859956051
0.0001587971552
0.0001697396193
0.0001947385554
0.0002236402798
0.0002531557185
0.0002807962658
0.0003054051517
0.0003269524836
0.0003456561715
0.0003612815099
0.0003730165025
0.0003797697302
0.0003807549785
0.0003758384564
0.0003630789732
0.0003378745818
0.0003067773271
0.0002702354976
0.0002278405977
0.0002012267381
0.0002223208763
0.0002398599194
0.0002819189126
0.0002921317767
0.0002746078792
0.0002148900738
0.0001664978174
0.0001664464781
0.0001884960763
0.0002169871269
0.000247676923
0.000277246082
0.0003039040401
0.0003271905124
0.0003470995069
0.0003634071507
0.0003754556542
0.0003823420901
0.0003834578776
0.0003789392377
0.0003686414907
0.0003454689407
0.0003182714278
0.0002820572705
0.0002378019523
0.0001979444173
0.0002022174968
0.0002515786237
0.0002999114912
0.0003145616283
0.0003004890853
0.0002413099585
0.0001808161083
0.0001688318315
0.0001807257814
0.0002029979621
0.0002323904414
0.0002637614452
0.0002935502162
0.0003196356615
0.0003412322946
0.0003583562378
0.0003708933764
0.0003783170971
0.0003803169183
0.0003772043977
0.0003699695489
0.0003515581872
0.000332789227
0.0002977435992
0.0002524542526
0.0002076474926
0.0001850521292
0.0002555118227
0.0003084929092
0.0003261721332
0.0003115654058
0.0002510776959
0.0001968883858
0.0001834977569
0.0001825383356
0.0001915923344
0.0002144741906
0.0002440274512
0.0002743251083
0.0003015601964
0.0003243558082
0.0003429299272
0.0003572954828
0.0003673761309
0.0003725993948
0.0003725043556
0.0003687270867
0.0003622679408
0.0003558196046
0.0003245986536
0.0002783474711
0.0002313440297
0.0001989151928
0.0002449481684
0.0002992900143
0.0003189845051
0.0003001567708
0.0002424217409
0.0002122990262
0.0002074949409
0.0001971535168
0.0001877638503
0.0001953578872
0.0002157585469
0.0002413001495
0.0002689697292
0.0002944357089
0.0003161282209
0.000333523612
0.0003467906085
0.000356451744
0.0003637270519
0.0003697556265
0.0003766315424
0.0003808852845
0.0003552228693
0.0003073055459
0.0002560293864
0.0002217950162
0.0001856587877
0.000252074719
0.0002822756468
0.0002654937364
0.0002306018821
0.0002310428566
0.0002338996609
0.0002209395257
0.0001981977597
0.0001892882635
0.0001984647527
0.0002132398321
0.0002316762889
0.0002540253966
0.0002756933237
0.0002950102624
0.0003128723696
0.0003310989928
0.0003513016959
0.0003727493713
0.0003886378358
0.0003943973214
0.0003745176857
0.0003261533267
0.0002700427085
0.0002418440228
0.0001488471796
0.0001859199599
0.0002146770944
0.0002225650727
0.0002316701913
0.000249485731
0.0002571153981
0.0002457566772
0.0002158692401
0.0001938740601
0.0001959720782
0.0002047346447
0.0002130393508
0.0002217371772
0.0002330109206
0.0002464773209
0.000260903292
0.0002772143811
0.0003004349761
0.0003316263657
0.0003631062484
0.0003813868593
0.000365524241
0.0003149256385
0.0002618080377
0.0002575326395
0.0001466512187
0.0001698884601
0.000182667149
0.0002097199783
0.0002374155747
0.000257759751
0.0002690330495
0.0002613627971
0.0002298762703
0.0002001074548
0.0001981152986
0.0002063954424
0.0002135164076
0.000218694267
0.000222580704
0.0002259230903
0.0002298136117
0.0002356489149
0.0002455793838
0.0002648619009
0.0002941036325
0.0003219417733
0.0003163985583
0.0002769914393
0.0002491763934
0.000266566963
0.0001488366325
0.0001687177541
0.0001742456433
0.0001980009678
0.0002221797482
0.0002425550213
0.0002563048503
0.0002496485096
0.0002228263803
0.0002007908715
0.0002010986662
0.0002100672894
0.0002178215876
0.0002236637938
0.0002282615934
0.0002323206788
0.0002365905083
0.0002412670934
0.00024631163
0.0002514774456
0.0002574298484
0.0002615565003
0.0002648947062
0.0002560681382
0.0002423192218
0.0002410758459
0.0001507381521
0.0001682536126
0.0001710004111
0.0001723376795
0.0001714619266
0.0001802312018
0.0001976684292
0.0001960978754
0.000188614164
0.0001928475921
0.0002039823408
0.0002144544799
0.0002228515649
0.0002296888655
0.0002357905391
0.0002419322069
0.000247581264
0.0002521665541
0.0002543655036
0.0002525950421
0.0002461175267
0.0002401560235
0.0002428765747
0.0002384728997
0.000229653812
0.0002330688758
0.0001627918279
0.0001738444496
0.0001785886279
0.0001847723426
0.0001826523701
0.0001655572303
0.0001601336828
0.0001696040486
0.0001784572379
0.0001932043585
0.0002076507859
0.0002194344397
0.0002290758286
0.0002375901877
0.0002460702591
0.0002545351956
0.0002623734469
0.0002684858718
0.0002711730531
0.0002691451315
0.0002616092804
0.0002455911775
0.0002378964846
0.0002379963545
0.0002316096647
0.0001884906739
0.0001947874134
0.0001955119622
0.0002019348825
0.0001987476985
0.0001764857915
0.0001500622797
0.0001575126625
0.0001785408222
0.0001975005423
0.0002128014768
0.0002253167506
0.0002361537247
0.0002465030261
0.00025647521
0.0002657429398
0.0002739349223
0.0002800179306
0.0002824662099
0.0002799105613
0.0002674257468
0.0002538944474
0.0002489916558
0.0002471205984
0.0002385232577
0.0002129081008
0.0002236234775
0.0002167703071
0.0002173619434
0.0002111149778
0.0001867639652
0.0001570328132
0.000161027054
0.0001824790653
0.0002019265639
0.0002176580563
0.0002308823345
0.0002428994356
0.0002546306105
0.0002652674081
0.0002746618634
0.0002823795222
0.0002877539086
0.0002900598
0.0002895816396
0.0002753688191
0.0002619126212
0.0002677025257
0.0002705050397
0.0002606887727
0.0002370659635
0.0002534393891
0.0002402730682
0.000231446096
0.0002217421482
0.0001956559625
0.0001636386466
0.0001658535332
0.0001863575742
0.0002052738808
0.0002208918276
0.0002344443999
0.0002471682349
0.0002591377466
0.0002696131893
0.0002784099426
0.0002855056843
0.0002912494596
0.0002944106874
0.0002942074404
0.000283901171
0.0002712834285
0.0002673762869
0.0002653704954
0.0002569951074
0.0002696761713
0.0002902442033
0.0002699224117
0.0002494021791
0.0002313815674
0.000200756264
0.0001656315956
0.0001688747802
0.0001890863574
0.0002075531481
0.0002229052344
0.0002362851376
0.0002486267457
0.0002606744062
0.0002713254218
0.0002804542224
0.0002887525502
0.0002980269902
0.000307042894
0.0003097993959
0.0002946008608
0.0002778897527
0.0002676561217
0.0002651414178
0.0002732254484
0.0002501219035
0.0003035604539
0.0003243050541
0.00030074595
0.0002736336816
0.0002439021009
0.0002072145478
0.0001607775367
0.0001661235833
0.0001871821216
0.0002063814709
0.0002225272236
0.0002367230581
0.0002496878435
0.0002619166518
0.0002733570033
0.000282658142
0.0002900736616
0.0002965290335
0.0003041467148
0.0003155424961
0.0003045897581
0.0002823879842
0.0002691390143
0.0002695070022
0.000258797565
0.0002420705123
8.460843382e-05
0.0001061870737
0.0001181107076
0.0001291643441
0.0001396535774
0.0001489240478
0.000156386014
0.0001615980247
0.0001645134778
0.0001655919928
0.0001657322431
0.0001659574745
0.0001670200256
0.0001691030636
0.0001718573371
0.0001747289429
0.0001773034449
0.0001794679365
0.0001814160033
0.0001836605838
0.0001868079758
0.0001902810222
0.0001926228276
0.000193350391
0.0001904472905
0.0001856147281
8.358950363e-05
0.0001625245614
0.0001943778061
0.0002217386828
0.0002538895448
0.0002882893889
0.0003174242493
0.0003341786964
0.0003371624772
0.0003308108696
0.0003222028221
0.0003175980866
0.0003205633278
0.0003313516504
0.0003475272122
0.0003655972884
0.0003832198907
0.0004009449835
0.0004225284819
0.0004533508651
0.000495643853
0.0005413222042
0.0005766881356
0.0005946075306
0.0005882137759
0.0005578296901
8.073756014e-05
0.0001544822395
0.0001969510496
0.0002307475458
0.0002670779471
0.0003025060342
0.0003297768535
0.0003445912002
0.000350020781
0.0003539917243
0.0003639599477
0.0003838097505
0.0004125367192
0.0004453858409
0.0004762713798
0.0004998472898
0.0005141780054
0.0005223615924
0.0005323936557
0.0005553953303
0.0005994668109
0.0006589363422
0.0007055341245
0.0007247824372
0.0007137762752
0.000677865042
9.15357035e-05
0.0001471456129
0.0001880711945
0.0002209320261
0.0002518864643
0.0002789269486
0.0002996163978
0.0003156739775
0.0003341177429
0.0003627267779
0.0004052619542
0.0004587699195
0.0005147154943
0.0005658870163
0.0006074450986
0.0006346763442
0.0006456726325
0.0006437371121
0.0006377801107
0.0006407083407
0.0006628566387
0.0007136710893
0.0007548270574
0.0007636766329
0.0007386690396
0.0006989720197
0.0001005180287
0.0001586176256
0.0001855516213
0.0002113410563
0.0002343310693
0.0002547002028
0.0002739711237
0.0002974598298
0.0003334144638
0.0003875589261
0.0004579032153
0.0005322213996
0.0005962715513
0.0006505226789
0.0006956860922
0.0007275811955
0.0007420219606
0.0007404442781
0.000731366158
0.0007259126502
0.000720737527
0.0007459842776
0.0007692096051
0.0007580466763
0.0007075075173
0.0006657692792
0.0001067050833
0.0001755319689
0.0001956914759
0.0002114991912
0.0002286727494
0.0002488563996
0.0002722599899
0.0003037447547
0.0003515854902
0.0004197982216
0.0005012836067
0.0005775121176
0.0006440846923
0.0007080332045
0.0007629062735
0.0008019473874
0.0008202998158
0.0008174165485
0.0008002414483
0.0007812808144
0.0007707416106
0.0007661438222
0.000769890595
0.0007281763331
0.0006537653888
0.0006281946827
0.0001114518266
0.0001957068769
0.0002178510695
0.0002263744845
0.0002415243338
0.0002663327829
0.0002943754939
0.0003276732984
0.0003756960032
0.0004437788363
0.0005255072913
0.0006042109159
0.0006778595122
0.0007499114339
0.0008129670693
0.0008597719306
0.000883731142
0.0008821255685
0.0008608285567
0.0008299703548
0.0008032697067
0.0007824923161
0.0007766864843
0.00069017697
0.0006046753709
0.0006352904399
0.0001147681528
0.0002129698547
0.0002438294591
0.0002514320563
0.0002690875928
0.0003004741799
0.0003296532395
0.0003559898772
0.0003934863907
0.0004521581133
0.0005299319734
0.0006153732862
0.0006962585535
0.0007751254461
0.0008454313515
0.0008997796264
0.0009303657697
0.0009326936497
0.0009121639778
0.0008754746712
0.0008305458398
0.0007988633708
0.0007672366251
0.0006562784089
0.0005229297738
0.0006200509221
0.0001167801331
0.0002198302164
0.00026145013
0.0002742684908
0.0002987771292
0.000337372311
0.0003644083579
0.0003787651036
0.0004014079325
0.0004474283332
0.0005183345012
0.0006064078663
0.0007000155242
0.0007859915436
0.0008617961124
0.0009222412573
0.0009594375222
0.0009674935842
0.0009504975113
0.0009152406361
0.0008568437653
0.0008016550262
0.0007414562691
0.0006364634092
0.000484925006
0.0005693340296
0.0001187853134
0.0002150544263
0.0002644060744
0.0002831369205
0.0003149320827
0.0003604119144
0.0003862622984
0.0003914880719
0.0004026306759
0.0004383317813
0.000502412938
0.0005901431071
0.0006914427521
0.0007868344865
0.000865598406
0.0009297794413
0.0009719907386
0.0009847112611
0.0009702457341
0.0009402238993
0.0008809063449
0.0007815596576
0.0006737040033
0.0006358704195
0.0004829826132
0.0006743705
0.0001231718076
0.0002067848161
0.0002601565101
0.0002779135906
0.0003088166932
0.0003575809692
0.000387185058
0.0003930866267
0.0004025067743
0.0004356228001
0.0004981079317
0.000586736687
0.0006903794214
0.0007842249278
0.0008628518923
0.0009283220838
0.000972265789
0.0009849615837
0.0009695490129
0.0009430314289
0.0008857176512
0.0007932898825
0.0006931139395
0.0005783293008
0.0005096308798
0.0008224771124
0.0001319050616
0.0002068848433
0.0002651106383
0.0002711070212
0.0002853270696
0.0003285633996
0.000365813294
0.0003839119755
0.0004044737527
0.0004463742718
0.0005161442976
0.0006085282904
0.0007029501391
0.000786127189
0.0008622379723
0.00092777314
0.0009722183337
0.0009853219598
0.000968858779
0.000939437029
0.0008867038301
0.0008085904749
0.0007313869888
0.0004728304731
0.0005138077258
0.0008519816769
0.0001450922628
0.0002257035006
0.0002930976008
0.0002768980659
0.0002587653327
0.0002856712803
0.0003292382808
0.0003662860669
0.0004082051898
0.0004693200019
0.0005531696041
0.0006427200537
0.0007206540364
0.0007969359031
0.000872281162
0.0009379219566
0.000980589821
0.0009911237741
0.0009718052289
0.0009354979271
0.000883294845
0.0008121728911
0.0007280510973
0.0005049723611
0.0004584791508
0.0007373000517
0.0001612839669
0.0002731890991
0.000347362543
0.0003024188904
0.0002429723014
0.0002465858879
0.000290508461
0.0003446041219
0.0004091279044
0.0004917714631
0.0005871757965
0.0006651081914
0.0007373425661
0.0008142040707
0.0008927075069
0.0009600206164
0.001000895178
0.001006939492
0.000982013652
0.0009395322025
0.0008848463322
0.0008163129665
0.0006949728971
0.0005112626698
0.0004212240786
0.0005986961428
0.0001788555262
0.0003537535921
0.0004188654057
0.0003491905915
0.0002487123645
0.0002234794259
0.0002598692684
0.0003212963998
0.0003990532222
0.0004950275128
0.0005955214658
0.0006727718913
0.0007477699185
0.0008288123749
0.0009107798996
0.0009796383476
0.001020151965
0.001024841772
0.0009984633228
0.0009540502838
0.0008959564131
0.0008083266565
0.0006024200748
0.0004386174655
0.0004113903045
0.0005316793698
0.0001962219389
0.0004522577324
0.0005172622887
0.0004280973421
0.0002862358512
0.000219581679
0.0002402716718
0.0002976296781
0.0003751466503
0.0004726703876
0.0005804386694
0.000666944032
0.0007481600242
0.0008317133307
0.0009135268344
0.000981809914
0.001022969274
0.001030111543
0.001008198678
0.0009703945967
0.0009216610937
0.0008320317199
0.0006223464358
0.0004804971682
0.0004049348598
0.0004827042124
0.0002093510305
0.0005438102454
0.0006193332525
0.0005302606606
0.0003536913978
0.0002347177043
0.0002337610618
0.0002793145673
0.0003457400768
0.0004320289013
0.0005375862108
0.0006442411493
0.0007345463403
0.0008189529079
0.0008970442495
0.0009626153449
0.001005551143
0.001019578919
0.001009150445
0.0009866500286
0.0009554455385
0.0008804371888
0.0007356197799
0.0004995286194
0.0004093916729
0.0004388229278
0.0002106769495
0.0005852925367
0.0006755439541
0.0005986010973
0.0004161403103
0.0002670631505
0.0002490445113
0.0002785700289
0.000326034899
0.0003926543794
0.0004795456543
0.0005845316626
0.0006950235117
0.0007835853276
0.0008593063077
0.0009227961365
0.0009709997387
0.0009993509951
0.001009917224
0.001009116041
0.0009924481095
0.0009382636422
0.000845362231
0.0006295148437
0.0004675005051
0.000443910511
0.0001934708151
0.0005498382673
0.0006534216223
0.0005956508438
0.0004374267661
0.00031142425
0.0002978091009
0.0003110106383
0.0003314670986
0.0003750051896
0.0004395212796
0.0005158451422
0.0006045651826
0.0007059898186
0.0007966424729
0.000868637534
0.0009319748742
0.0009826424645
0.001017697853
0.001033280022
0.001023505923
0.0009931864496
0.0009489947403
0.0008333525307
0.0006211668768
0.0005661280077
0.0001613748755
0.0004536086944
0.0005557489747
0.0005244128711
0.0004191947747
0.0003674808359
0.0003861042589
0.0003886745953
0.0003740662362
0.0003889408177
0.0004392999844
0.0004977526608
0.0005545862443
0.0006155298959
0.0006903514575
0.0007856640183
0.00088095394
0.0009516140368
0.001005995572
0.001036049037
0.001035633228
0.001020538793
0.001017564556
0.0009772843408
0.000840116321
0.0008146115428
0.0001442520491
0.0003642242256
0.000415384179
0.0004089584403
0.0003885061439
0.0004164942956
0.0004730649182
0.0004857637265
0.0004479099396
0.0004306594366
0.0004782434987
0.0005452969142
0.0006031875953
0.0006488211805
0.0006882812528
0.0007337681652
0.0008001269541
0.0008922997114
0.0009753434215
0.001033156685
0.00105584277
0.001039747145
0.001028011599
0.001036670764
0.001019910325
0.001013586571
0.0001452486359
0.0003738385036
0.0003733101221
0.00034352305
0.0003590249766
0.000416876946
0.000499199646
0.0005322991061
0.0005014441337
0.0004712724729
0.0005200013694
0.0006035358535
0.0006779497512
0.0007352047981
0.0007769294872
0.000810661801
0.0008481354778
0.0008978886348
0.0009629962314
0.001018150797
0.001052641457
0.001051667069
0.001033057441
0.001085741144
0.001118117903
0.001117669808
0.0001450229562
0.000372276269
0.0003689846586
0.0003209292208
0.0003126837729
0.0003497150159
0.0004310056503
0.000484897424
0.0004901847371
0.0004949265559
0.0005619106657
0.0006575352149
0.0007414128746
0.0008067293475
0.000855895982
0.0008950007577
0.0009210991762
0.0009418029004
0.0009566338798
0.0009621808039
0.0009734171049
0.001014938105
0.00104983985
0.00111775023
0.001158169442
0.001220902634
0.00014061596
0.0003440188957
0.0003584751647
0.0003158223307
0.0002762264534
0.0002610103381
0.000319132746
0.0003935013774
0.0004469205253
0.0005162699761
0.0006120641794
0.0007119785066
0.0007977508047
0.0008654905389
0.0009164701193
0.0009438651368
0.0009635857537
0.0009749753982
0.0009742404055
0.0009672039504
0.0009761150514
0.001004504478
0.00104717368
0.001115462011
0.001167272492
0.001252746438
0.0001335425593
0.0002938474053
0.0003200546049
0.000318770491
0.0002894322054
0.0002369132815
0.0002412882237
0.0003109215906
0.0004065777427
0.0005151866713
0.0006325793862
0.0007447402195
0.0008389708523
0.0009125782958
0.0009637546302
0.000996001676
0.001020244164
0.00103140377
0.001022808745
0.001004793649
0.001006697705
0.001030294373
0.001091623934
0.001224611126
0.001172746226
0.0001322884979
0.0002682160409
0.0003271882641
0.000376269983
0.0003542383194
0.0002728396608
0.0002397166826
0.0002954086142
0.0004039612007
0.0005301990935
0.0006596751217
0.0007822551187
0.0008854349568
0.0009572096084
0.001005092205
0.001043314468
0.001072633502
0.00108632951
0.001079035471
0.001066178042
0.001072958594
0.001071334869
0.001095360552
0.001167762362
0.001250600657
0.0001509183444
0.0003092228055
0.0004084077335
0.0004765188727
0.0004389143748
0.0003270361994
0.0002605236176
0.0002970414986
0.0004002990401
0.0005309936649
0.0006714213291
0.0008067641824
0.0009175662555
0.0009868404416
0.001039244358
0.001080369286
0.001110348284
0.001126543316
0.001121626705
0.001113573976
0.00112680501
0.001110528039
0.001109301253
0.001185845685
0.001297731748
0.0001984554134
0.0004395942586
0.0005507685876
0.0005818468435
0.0005096906508
0.0003771363855
0.0002835184757
0.0003016270831
0.0003986616402
0.0005336345564
0.0006845348362
0.0008290754786
0.0009398242432
0.001015143934
0.001072593958
0.001116879493
0.001155210351
0.001200479263
0.001199785955
0.001194025073
0.001193330874
0.001149375031
0.001129047737
0.001174963004
0.001243872446
0.0002560778762
0.0005988145212
0.0006607541432
0.0006394427277
0.0005414464893
0.000391116804
0.000291423422
0.0003008548218
0.0003908152715
0.0005246758399
0.0006780432768
0.000828287795
0.0009575908978
0.001047317543
0.0011139012
0.00116538593
0.001217477141
0.00129058841
0.001283304333
0.001301000169
0.001311783722
0.001217511982
0.00115700808
0.00118734489
0.001255113828
0.001160639247
0.0002861205093
0.0006112633608
0.0006482423624
0.0006103567007
0.0005045722955
0.0003567156918
0.0002837286416
0.0002974853438
0.0003756690303
0.0004940824481
0.0006378486141
0.00079264442
0.0009436287605
0.001071176422
0.001148604367
0.001202002578
0.001245606083
0.001297208158
0.00138280327
0.001489171556
0.001465911873
0.001297073835
0.00118152801
0.00114911306
0.001111747225
0.0009391027609
8.800884279e-05
0.0001101301921
0.0001216217022
0.0001320961099
0.0001426266392
0.0001527237604
0.0001615481693
0.000168264796
0.000172406711
0.0001740115706
0.000173617491
0.0001721578816
0.0001707705013
0.0001704808311
0.0001718589388
0.0001748574384
0.0001789601691
0.0001835440785
0.0001882001085
0.0001928227784
0.0001973945327
0.0002013742008
0.0002038309833
0.000204298576
0.0002014139122
0.0001960786983
8.922307225e-05
0.0002022295402
0.0002492331324
0.000286262391
0.0003280978338
0.0003751070765
0.0004196192503
0.0004518434008
0.0004666401123
0.0004649591317
0.0004521546293
0.0004357783057
0.000423741501
0.0004225262451
0.0004349742434
0.0004595999714
0.0004926168227
0.0005315133507
0.0005768004661
0.000629722124
0.0006869169376
0.0007385626869
0.0007747830073
0.0007911208903
0.000783429657
0.000748404283
8.332723328e-05
0.0001894046144
0.0002579917045
0.0003083110837
0.0003603305605
0.0004139114826
0.0004612738894
0.0004939170954
0.0005096405784
0.000512771825
0.0005109578015
0.0005124793581
0.0005238132158
0.0005477164813
0.000581983421
0.0006207939016
0.0006593074184
0.0006979186985
0.0007425057555
0.0007995325652
0.0008676052506
0.0009338932571
0.0009787980138
0.0009958007422
0.0009835354783
0.0009403534282
9.183508294e-05
0.0001707300097
0.0002438836748
0.0002974098894
0.0003467798866
0.0003919693384
0.0004291970351
0.0004560218692
0.0004759891617
0.0004960257765
0.0005225626307
0.0005588687588
0.000604895452
0.0006576688843
0.000711255956
0.0007585468945
0.0007958648024
0.0008255013876
0.0008556474305
0.000896624301
0.0009514725433
0.001011816712
0.001051261985
0.001061372112
0.001042264405
0.0009932503049
0.0001009315098
0.0001861092899
0.0002376817339
0.000284425447
0.0003249378181
0.000359358754
0.0003880969832
0.0004140317728
0.0004443500508
0.000485826227
0.0005405183671
0.0006054374646
0.0006759918913
0.0007471604964
0.0008126869163
0.0008649796062
0.000901525195
0.0009237484658
0.0009388313821
0.0009585800106
0.000990786234
0.001034779512
0.001063586107
0.001065093884
0.00103514262
0.0009792719172
0.0001073992497
0.0002078380187
0.0002479092407
0.0002820631858
0.0003135605259
0.0003439737392
0.0003733691943
0.0004044589566
0.0004446016471
0.0004995317834
0.0005685276976
0.0006465546209
0.0007289457386
0.0008084671121
0.0008815116797
0.0009406322397
0.0009787282326
0.0009945307409
0.0009953468659
0.000993995478
0.001003567383
0.001027443678
0.001047264483
0.001043078163
0.001002506217
0.0009469638515
0.0001122939028
0.0002342036894
0.0002747330324
0.0002981413939
0.0003242514631
0.0003591170239
0.0003960106827
0.0004316066043
0.000472743126
0.0005270921863
0.0005960956871
0.0006764660137
0.0007631278477
0.0008500591013
0.0009325878479
0.0009999401927
0.001042133108
0.001055481024
0.001046098172
0.001024581529
0.001007496204
0.001009849867
0.001025044956
0.001023576128
0.000978455238
0.0009098532931
0.0001157741348
0.0002594397126
0.00030918368
0.000328990108
0.0003553084145
0.0003996800318
0.0004445663352
0.0004785475803
0.0005102519276
0.0005531828557
0.0006141951458
0.0006923204577
0.0007813214906
0.000873835432
0.0009640061974
0.00103910953
0.001086664274
0.001101187386
0.001087656911
0.001054335426
0.001016775439
0.0009971323467
0.001004707061
0.001015446806
0.0009736281688
0.0008515382504
0.0001176969503
0.0002743638268
0.0003361607939
0.0003589657994
0.0003906582202
0.0004461543642
0.0004966525684
0.0005244750003
0.0005421297839
0.0005700001589
0.0006205279094
0.0006947705388
0.0007854735588
0.0008812205796
0.0009763662475
0.001057482375
0.001110188566
0.001127008811
0.001111997833
0.001074887797
0.001026026425
0.0009917426257
0.0009929362147
0.001008141269
0.000945427934
0.0008101919081
0.0001187335088
0.0002748664983
0.000346234647
0.0003725674414
0.0004100586662
0.0004754266776
0.000530926553
0.0005545186277
0.0005619429569
0.0005781095149
0.0006194770762
0.0006892207734
0.0007798532834
0.0008771721397
0.0009744043934
0.001058989049
0.001114669507
0.001131929474
0.001115811778
0.001079765117
0.001027037912
0.0009869352481
0.0009863974675
0.0009772560219
0.0008996840114
0.0008495045377
0.0001206733181
0.0002668087914
0.0003447384226
0.0003682551968
0.0004034191315
0.0004725562174
0.000534040945
0.0005610773463
0.0005689699942
0.0005828573184
0.0006204628417
0.0006866323145
0.0007743800814
0.0008693479534
0.0009656451532
0.00105051516
0.001105694688
0.001120597115
0.001103081204
0.001070126607
0.001017659516
0.0009690502659
0.0009539230591
0.0009408814878
0.0008606926755
0.0009321197745
0.0001254169662
0.0002623862749
0.0003477741072
0.0003596508347
0.0003770248494
0.0004373586197
0.0005037721564
0.0005429832668
0.0005647368192
0.0005893329227
0.0006318923814
0.0006965142521
0.0007766691414
0.0008647569469
0.0009574774697