/*--------------------------------*- C++ -*----------------------------------*\
  =========                 |
  \\      /  F ield         | OpenFOAM: The Open Source CFD Toolbox
   \\    /   O peration     | Website:  https://openfoam.org
    \\  /    A nd           | Version:  8
     \\/     M anipulation  |
\*---------------------------------------------------------------------------*/
FoamFile
{
    version     2.0;
    format      ascii;
    class       volScalarField;
    location    "1.9";
    object      O2;
}
// * * * * * * * * * * * * * * * * * * * * * * * * * * * * * * * * * * * * * //

dimensions      [0 0 0 0 0 0 0];

internalField   nonuniform List<scalar> 
67410
(
0.2099994397
0.2099997123
0.2099998519
0.2099999159
0.2099999443
0.2099999721
0.2100000169
0.2100000821
0.2100001624
0.2100002451
0.210000313
0.2100003544
0.2100003726
0.2100003853
0.2100004124
0.2100004644
0.2100005349
0.2100006013
0.210000638
0.210000642
0.2100006519
0.2100006734
0.2100006965
0.210000724
0.2100007275
0.2100007196
0.2099997355
0.209999994
0.2100000259
0.2100000512
0.2100000829
0.210000144
0.2100002365
0.2100003457
0.2100004476
0.2100005194
0.2100005554
0.2100005716
0.2100005927
0.2100006367
0.2100007091
0.2100008039
0.2100009059
0.2100009935
0.2100010474
0.210001068
0.2100010968
0.2100011144
0.2100011308
0.210001145
0.2100011411
0.2100011079
0.2100008992
0.2100004499
0.210000213
0.2100001778
0.210000211
0.2100002938
0.2100004059
0.210000517
0.210000599
0.2100006449
0.2100006721
0.2100007047
0.2100007573
0.2100008318
0.2100009226
0.21000102
0.2100011109
0.2100011816
0.2100012226
0.2100012394
0.2100012916
0.2100013228
0.2100013521
0.2100013532
0.2100013703
0.2100013289
0.2100019487
0.2100010028
0.2100004482
0.2100003205
0.2100003372
0.2100004167
0.2100005182
0.210000611
0.2100006796
0.2100007296
0.2100007788
0.2100008399
0.2100009159
0.2100010026
0.2100010935
0.2100011807
0.2100012548
0.2100013073
0.2100013302
0.2100013163
0.2100013631
0.210001411
0.2100014821
0.2100014591
0.2100015243
0.2100014541
0.210002342
0.2100014287
0.2100007444
0.2100004983
0.2100004566
0.2100004997
0.2100005806
0.2100006723
0.2100007566
0.2100008311
0.2100009042
0.2100009825
0.2100010663
0.2100011531
0.2100012387
0.2100013173
0.2100013836
0.2100014324
0.2100014484
0.2100013938
0.2100013959
0.2100014354
0.2100015812
0.210001527
0.2100016863
0.2100015222
0.2100025019
0.210001716
0.2100010424
0.210000688
0.2100005532
0.2100005479
0.2100006255
0.2100007407
0.2100008537
0.2100009503
0.2100010357
0.2100011169
0.2100011979
0.2100012785
0.2100013568
0.2100014303
0.2100014978
0.2100015574
0.2100015756
0.2100015001
0.2100014438
0.2100014378
0.2100016605
0.2100016123
0.2100018627
0.2100015655
0.210002595
0.2100019149
0.2100012844
0.2100008491
0.2100006167
0.2100005731
0.2100006675
0.2100008185
0.2100009615
0.2100010747
0.2100011643
0.2100012415
0.2100013152
0.2100013879
0.2100014593
0.210001529
0.2100016001
0.2100016653
0.2100016614
0.2100015945
0.2100014939
0.2100014251
0.2100016259
0.2100016705
0.2100018205
0.2100015817
0.21000267
0.2100020798
0.2100014881
0.2100009849
0.2100006593
0.2100005863
0.2100007054
0.2100008956
0.2100010696
0.2100011992
0.2100012932
0.2100013672
0.2100014362
0.2100015006
0.2100015624
0.2100016223
0.210001681
0.2100017096
0.2100016316
0.2100016279
0.2100014503
0.2100013979
0.2100014517
0.2100018564
0.2100017635
0.2100016527
0.2100027606
0.2100022598
0.2100017099
0.2100011404
0.2100007117
0.2100006019
0.2100007387
0.2100009628
0.2100011666
0.2100013166
0.2100014235
0.2100015049
0.2100015699
0.2100016214
0.2100016625
0.2100016929
0.210001704
0.210001651
0.2100014903
0.210001574
0.2100013081
0.2100014274
0.2100013951
0.2100022742
0.210001739
0.2100016115
0.21000287
0.2100024638
0.2100019825
0.2100013603
0.2100008047
0.2100006341
0.2100007679
0.2100010104
0.2100012385
0.2100014139
0.2100015426
0.2100016353
0.2100016944
0.2100017226
0.210001726
0.2100017041
0.2100016502
0.2100015372
0.2100013735
0.2100015047
0.2100012845
0.2100014103
0.2100014286
0.2100020959
0.2100013617
0.2100009739
0.2100029637
0.2100026481
0.2100022718
0.2100016476
0.2100009572
0.2100006938
0.2100007958
0.2100010361
0.2100012782
0.2100014765
0.210001624
0.2100017193
0.2100017584
0.210001754
0.2100017049
0.2100016157
0.2100014863
0.2100013135
0.2100011689
0.2100014104
0.2100012197
0.2100012761
0.2100011703
0.2100013613
0.210000733
0.2100000979
0.2100030035
0.2100027497
0.2100024784
0.2100019336
0.2100011702
0.2100007895
0.21000083
0.2100010477
0.2100012877
0.2100014931
0.210001642
0.2100017243
0.2100017369
0.21000169
0.210001589
0.2100014499
0.2100012889
0.2100011291
0.210001045
0.2100012193
0.2100010768
0.2100010481
0.2100008331
0.2100010226
0.2100002285
0.2099996639
0.2100029617
0.2100027167
0.210002507
0.2100021058
0.2100014178
0.2100009184
0.2100008673
0.2100010429
0.2100012641
0.2100014575
0.210001589
0.2100016438
0.2100016237
0.2100015377
0.2100014012
0.2100012344
0.2100010605
0.2100009148
0.2100008647
0.2100009633
0.210000893
0.2100008249
0.2100007926
0.2100013063
0.2100004859
0.2100002921
0.2100027949
0.2100025219
0.210002348
0.2100021112
0.2100016536
0.2100010616
0.2100008893
0.2100010061
0.2100011989
0.210001368
0.2100014696
0.2100014894
0.2100014387
0.2100013284
0.2100011757
0.210000998
0.2100008163
0.2100006649
0.2100005991
0.2100006387
0.210000687
0.2100007413
0.2100007376
0.2100013445
0.2100003878
0.2100004258
0.2100024722
0.210002201
0.2100020751
0.2100019872
0.2100018424
0.210001211
0.2100008959
0.2100009308
0.2100010871
0.2100012284
0.2100013021
0.2100012981
0.2100012323
0.2100011167
0.2100009626
0.2100007808
0.2100005879
0.2100004136
0.2100003019
0.2100002644
0.2100004207
0.2100004838
0.2100005886
0.2100006886
0.2100004224
0.2100003502
0.2100020355
0.2100018489
0.2100017574
0.2100017941
0.2100019341
0.2100013545
0.2100009057
0.210000826
0.2100009336
0.2100010575
0.2100011334
0.2100011396
0.2100010884
0.2100009844
0.2100008302
0.2100006317
0.2100004046
0.2100001801
0.2100000046
0.2099999219
0.2100001859
0.2100002547
0.2100005204
0.2100007486
0.2100004682
0.2100003937
0.210001578
0.2100015287
0.210001464
0.2100015895
0.2100018667
0.2100014208
0.2100009006
0.2100007164
0.2100007764
0.2100009055
0.2100010264
0.2100010861
0.2100010627
0.2100009536
0.2100007635
0.2100005107
0.2100002216
0.2099999424
0.2099997363
0.2099996831
0.2099999447
0.2099998277
0.210000041
0.2100001885
0.210000225
0.2100002745
0.2100012163
0.2100013119
0.2100012809
0.2100014563
0.2100016895
0.2100013289
0.210000816
0.2100005979
0.2100006206
0.2100007319
0.2100008558
0.2100009145
0.2100008552
0.210000692
0.2100004669
0.2100002085
0.2099999559
0.2099997525
0.20999964
0.2099996369
0.2099996419
0.2099993276
0.209999635
0.2099998541
0.2099999485
0.210000009
0.2100011485
0.2100013469
0.2100013181
0.2100014509
0.2100015017
0.2100010889
0.2100006427
0.2100004435
0.210000418
0.2100004513
0.210000531
0.2100006284
0.210000672
0.2100006176
0.2100004839
0.2100003161
0.2100001493
0.2099999926
0.2099998209
0.2099995603
0.2099992018
0.2099988404
0.209999221
0.209999529
0.2099996974
0.2099997841
0.2100018728
0.2100016471
0.2100014783
0.210001459
0.2100012878
0.2100008153
0.2100004707
0.210000319
0.2100002766
0.2100002376
0.210000222
0.2100002658
0.2100003359
0.2100003923
0.2100003691
0.2100002756
0.2100001173
0.2099998973
0.2099996022
0.2099992401
0.209998855
0.2099986253
0.2099988965
0.2099992532
0.2099994562
0.2099995015
0.2100018994
0.2100019184
0.2100017796
0.2100014918
0.2100010767
0.2100006335
0.2100004147
0.2100002757
0.2100001995
0.2100001123
0.2100000211
0.2099999646
0.2099999276
0.209999919
0.2099999361
0.2099999414
0.2099999022
0.2099998142
0.2099996693
0.2099994549
0.2099991621
0.2099988711
0.2099987452
0.2099991165
0.2099992894
0.209999259
0.2100019961
0.2100020023
0.2100018786
0.2100014408
0.2100008996
0.2100006
0.2100004386
0.210000312
0.2100001868
0.2100000488
0.2099999411
0.2099998471
0.2099997471
0.2099996587
0.2099995818
0.2099995156
0.2099994645
0.209999429
0.2099993968
0.2099993531
0.2099992628
0.2099990943
0.2099988713
0.2099991002
0.2099991574
0.2099990751
0.210002069
0.2100020428
0.2100019138
0.2100014886
0.210001057
0.2100007836
0.2100005907
0.2100004458
0.2100002573
0.2100000478
0.2099999185
0.2099998027
0.2099996748
0.2099995563
0.2099994487
0.2099993507
0.2099992604
0.2099991699
0.209999066
0.2099989373
0.2099988104
0.2099989666
0.2099989584
0.2099990064
0.2099991147
0.2099992251
0.2100021005
0.2100020903
0.2100019955
0.210001856
0.2100017513
0.2100013617
0.2100007447
0.2100004913
0.2100003585
0.2100001597
0.2099999595
0.2099997839
0.2099996287
0.2099994964
0.2099993834
0.209999285
0.2099991891
0.2099990836
0.2099989617
0.2099988473
0.2099988298
0.2099988403
0.2099988282
0.2099989737
0.2099990875
0.2099992051
0.2100019911
0.2100020237
0.2100018478
0.2100016257
0.2100015252
0.2100014921
0.210001095
0.2100006675
0.2100003971
0.2100001471
0.2099999227
0.2099997333
0.2099995725
0.2099994413
0.2099993338
0.2099992347
0.209999121
0.2099989709
0.2099987759
0.2099985766
0.209998523
0.2099986847
0.2099988295
0.2099992688
0.2099991198
0.2100016683
0.2100017653
0.2100016443
0.2100014375
0.2100013643
0.2100013567
0.2100011649
0.2100007734
0.2100004102
0.2100001153
0.2099998751
0.2099996827
0.2099995316
0.2099994172
0.2099993236
0.2099992287
0.2099991148
0.2099989705
0.2099987975
0.2099986541
0.2099986752
0.2099986485
0.2099986973
0.2099988218
0.2099989173
0.2100013995
0.2100014067
0.2100014633
0.2100013658
0.2100012911
0.2100012165
0.2100009997
0.2100006899
0.2100003368
0.2100000449
0.2099998204
0.2099996489
0.2099995187
0.2099994184
0.2099993223
0.20999921
0.2099990691
0.2099988968
0.2099986777
0.2099984872
0.2099985681
0.2099985599
0.2099985837
0.2099987198
0.2099989855
0.2100013171
0.2100012013
0.2100012906
0.2100013383
0.2100012701
0.2100011662
0.2100008871
0.2100005849
0.2100002643
0.2100000061
0.2099998125
0.2099996627
0.2099995435
0.2099994422
0.2099993407
0.2099992303
0.2099991224
0.2099990407
0.2099988833
0.2099987783
0.2099986864
0.2099986576
0.2099986899
0.2099987581
0.2099988691
0.210001117
0.2100010965
0.2100010958
0.2100012346
0.2100012692
0.2100011556
0.2100008034
0.2100004838
0.2100002113
0.2100000086
0.2099998466
0.2099997017
0.2099995714
0.2099994581
0.2099993523
0.2099992567
0.2099992032
0.2099992292
0.209999142
0.2099987316
0.2099986976
0.2099986541
0.209998652
0.2099987196
0.2099986836
0.2099989485
0.2100007329
0.2100007721
0.2100006345
0.2100007172
0.2100010331
0.210001152
0.2100007792
0.2100004711
0.2100002129
0.2100000217
0.2099998753
0.2099997481
0.209999628
0.2099995126
0.2099993992
0.2099992873
0.2099991933
0.2099991489
0.2099991696
0.2099992784
0.2099988127
0.2099987792
0.2099987479
0.2099987278
0.2099989476
0.209999023
0.2099994056
0.2099996692
0.2099998176
0.2099998942
0.2099999351
0.2099999713
0.2100000178
0.210000075
0.2100001363
0.2100001927
0.2100002349
0.2100002557
0.2100002551
0.2100002454
0.2100002471
0.2100002774
0.2100003363
0.2100004057
0.2100004626
0.2100004998
0.2100005355
0.2100005744
0.2100006125
0.2100006497
0.2100006663
0.2100006677
0.2099996275
0.2099999551
0.2100000071
0.2100000459
0.2100000869
0.2100001478
0.2100002293
0.2100003173
0.2100003938
0.2100004444
0.2100004641
0.2100004619
0.2100004577
0.2100004746
0.2100005279
0.2100006174
0.2100007261
0.2100008298
0.2100009104
0.2100009678
0.2100010203
0.2100010636
0.2100010983
0.2100011229
0.2100011218
0.2100010882
0.2100006983
0.2100004402
0.2100002196
0.2100001871
0.2100002178
0.2100002862
0.2100003727
0.2100004546
0.210000514
0.210000547
0.2100005656
0.2100005899
0.210000637
0.2100007155
0.2100008227
0.2100009439
0.2100010586
0.2100011504
0.2100012149
0.2100012637
0.2100013196
0.2100013707
0.2100014074
0.2100014275
0.2100014215
0.2100013745
0.2100018512
0.2100010336
0.210000468
0.210000332
0.2100003367
0.2100003928
0.2100004607
0.2100005192
0.2100005633
0.2100006056
0.2100006643
0.2100007491
0.2100008597
0.2100009895
0.2100011266
0.2100012542
0.2100013571
0.210001427
0.2100014653
0.2100014882
0.2100015208
0.2100015723
0.2100016066
0.2100016245
0.2100016092
0.2100015585
0.2100023417
0.2100014476
0.2100007533
0.2100005024
0.2100004502
0.2100004665
0.2100005034
0.2100005478
0.2100006043
0.2100006864
0.2100008003
0.2100009395
0.2100010914
0.2100012438
0.2100013865
0.2100015064
0.2100015971
0.2100016534
0.2100016755
0.2100016781
0.2100016676
0.2100017037
0.2100017153
0.2100017431
0.2100016869
0.2100016425
0.210002554
0.2100017572
0.2100010552
0.210000699
0.2100005594
0.2100005202
0.2100005356
0.2100005886
0.2100006761
0.2100007992
0.2100009518
0.2100011201
0.2100012871
0.2100014394
0.2100015759
0.2100016884
0.2100017707
0.2100018188
0.2100018333
0.2100018237
0.2100017755
0.2100017934
0.2100017537
0.2100018177
0.2100016735
0.2100016414
0.2100027082
0.2100020197
0.2100013501
0.2100009077
0.2100006679
0.2100005746
0.2100005836
0.2100006557
0.2100007704
0.2100009183
0.2100010889
0.2100012673
0.2100014343
0.2100015832
0.2100017137
0.2100018182
0.2100018927
0.2100019329
0.210001948
0.2100019247
0.2100018466
0.2100018439
0.2100018057
0.2100018442
0.2100018246
0.2100015494
0.2100028405
0.210002262
0.2100016395
0.2100011287
0.2100007885
0.2100006428
0.210000647
0.2100007323
0.2100008622
0.2100010207
0.2100011956
0.2100013739
0.210001536
0.2100016796
0.2100018033
0.2100019012
0.2100019684
0.2100020028
0.2100020339
0.2100019654
0.210001903
0.2100018382
0.2100019343
0.2100018401
0.2100018983
0.2100013971
0.2100029604
0.210002488
0.2100019283
0.2100013692
0.2100009303
0.2100007244
0.2100007118
0.2100007965
0.2100009296
0.2100010889
0.2100012605
0.210001432
0.2100015926
0.2100017342
0.2100018549
0.2100019484
0.2100020071
0.2100020329
0.2100020684
0.2100019364
0.2100019098
0.2100017549
0.2100018187
0.2100016438
0.2100014015
0.2100013306
0.2100030608
0.2100026775
0.2100021981
0.2100016193
0.2100010874
0.2100008085
0.2100007624
0.2100008317
0.2100009563
0.2100011089
0.2100012747
0.2100014434
0.2100016078
0.2100017573
0.2100018813
0.2100019713
0.2100020137
0.2100020081
0.2100019911
0.2100018485
0.2100017411
0.2100016228
0.2100015564
0.2100012389
0.2100012195
0.2100013283
0.2100031143
0.2100027984
0.2100024124
0.2100018495
0.2100012429
0.2100008816
0.2100007881
0.2100008304
0.2100009365
0.210001077
0.2100012391
0.2100014161
0.2100016021
0.2100017639
0.2100018973
0.2100019865
0.2100020184
0.2100020047
0.2100019827
0.2100017844
0.2100016234
0.2100014754
0.2100013459
0.2100011358
0.2100011581
0.2100013119
0.2100030988
0.2100028356
0.2100025445
0.2100020272
0.2100013851
0.2100009429
0.2100007915
0.2100007991
0.2100008796
0.210001005
0.2100011682
0.2100013633
0.2100015707
0.2100017545
0.210001898
0.210001978
0.2100019821
0.2100019248
0.2100018405
0.2100016584
0.2100014786
0.2100013677
0.2100012496
0.2100011371
0.2100010323
0.210001141
0.2100030275
0.2100028203
0.2100026001
0.210002133
0.210001511
0.2100010061
0.2100007854
0.2100007522
0.2100008033
0.2100009117
0.2100010765
0.2100012909
0.2100015086
0.2100017085
0.2100018548
0.210001921
0.2100018992
0.2100018064
0.2100016727
0.2100014938
0.2100013067
0.2100012313
0.2100010935
0.2100009276
0.210000674
0.2100008075
0.2100029454
0.2100028016
0.2100026031
0.2100021754
0.2100016192
0.2100010879
0.2100007871
0.2100007052
0.2100007249
0.2100008107
0.2100009633
0.2100011741
0.2100013956
0.2100015962
0.2100017334
0.2100017802
0.2100017336
0.210001616
0.210001457
0.2100012684
0.2100010845
0.2100009541
0.2100008696
0.2100006141
0.2100005727
0.2100006966
0.210002862
0.2100027972
0.2100025486
0.210002181
0.2100017121
0.2100011998
0.2100008151
0.2100006726
0.2100006552
0.2100007081
0.2100008321
0.21000102
0.2100012255
0.2100014106
0.2100015308
0.2100015586
0.2100014918
0.2100013548
0.2100011831
0.2100010026
0.2100008472
0.2100007527
0.2100006376
0.2100006058
0.2100005202
0.2100005823
0.2100027528
0.2100027342
0.2100024456
0.2100021604
0.2100017933
0.2100013307
0.2100008728
0.2100006578
0.2100005968
0.210000611
0.2100006937
0.2100008432
0.2100010156
0.2100011725
0.2100012704
0.2100012816
0.2100012028
0.2100010582
0.2100008871
0.2100007234
0.2100005862
0.2100005328
0.2100004495
0.210000416
0.2100003805
0.2100005048
0.2100026057
0.2100025938
0.2100023184
0.2100021237
0.2100018537
0.2100014262
0.2100009247
0.2100006493
0.2100005479
0.2100005267
0.2100005635
0.2100006529
0.2100007741
0.2100008856
0.2100009534
0.210000954
0.2100008824
0.210000757
0.2100006108
0.2100004662
0.2100003116
0.2100002193
0.2100001065
0.2100001196
0.2100002101
0.2100003128
0.2100024516
0.2100024436
0.2100022212
0.2100021031
0.2100018831
0.2100014406
0.2100009382
0.2100006363
0.2100004992
0.210000444
0.2100004385
0.2100004644
0.2100005139
0.2100005695
0.2100006115
0.21000062
0.2100005832
0.2100005027
0.2100003874
0.2100002363
0.210000048
0.2099999433
0.2099998515
0.2099999299
0.2099999551
0.2100000601
0.2100023525
0.2100023548
0.2100021998
0.2100021129
0.2100018726
0.2100014143
0.2100009527
0.2100006402
0.2100004512
0.2100003441
0.2100002982
0.2100002859
0.2100002849
0.2100002905
0.2100003114
0.2100003229
0.2100003059
0.2100002454
0.2100001305
0.2099999563
0.2099997445
0.2099996214
0.2099995325
0.2099996663
0.2099997155
0.209999799
0.2100023163
0.2100023017
0.2100022059
0.2100021115
0.2100018476
0.2100014424
0.210001039
0.2100007138
0.2100004588
0.2100002768
0.2100001791
0.2100001346
0.2100001074
0.2100000827
0.2100000545
0.2100000254
0.2099999914
0.2099999328
0.2099998337
0.2099996801
0.2099994703
0.2099993074
0.2099992214
0.2099993917
0.2099995003
0.2099995972
0.2100023554
0.2100022872
0.2100022003
0.2100020549
0.2100018565
0.2100015442
0.2100011629
0.2100008452
0.2100005362
0.2100002645
0.2100001077
0.2100000207
0.2099999541
0.209999896
0.20999984
0.2099997815
0.2099997203
0.2099996442
0.209999544
0.2099993883
0.2099991806
0.2099990092
0.2099989793
0.2099991098
0.2099992457
0.209999334
0.2100024533
0.210002341
0.2100022246
0.2100020592
0.2100019207
0.2100016672
0.2100012955
0.2100009802
0.2100006387
0.2100002959
0.2100000943
0.2099999803
0.209999882
0.2099997922
0.2099997077
0.2099996261
0.2099995471
0.2099994713
0.2099993899
0.209999277
0.2099991111
0.2099989369
0.2099989243
0.2099989951
0.2099990734
0.2099991356
0.2100024358
0.2100023787
0.2100022519
0.2100020904
0.2100020129
0.2100018371
0.2100014117
0.2100010652
0.2100007022
0.2100003422
0.2100001175
0.2099999817
0.2099998568
0.2099997378
0.2099996229
0.2099995107
0.2099993976
0.2099992839
0.20999917
0.2099990624
0.2099989799
0.2099988707
0.2099988674
0.2099988612
0.2099989691
0.2099990299
0.2100024256
0.2100023806
0.2100022552
0.2100021037
0.2100019808
0.2100017365
0.2100013155
0.2100009737
0.2100006521
0.2100003792
0.2100001723
0.2100000036
0.2099998517
0.2099997123
0.209999583
0.2099994568
0.2099993308
0.2099992019
0.2099990689
0.20999894
0.2099988329
0.2099987729
0.2099987608
0.2099988345
0.2099989135
0.2099989806
0.2100024172
0.2100023066
0.2100021228
0.2100019472
0.2100018067
0.210001649
0.2100013096
0.2100009568
0.2100006551
0.2100003961
0.2100001833
0.2100000002
0.2099998345
0.2099996834
0.2099995457
0.2099994132
0.2099992834
0.2099991513
0.209999016
0.209998897
0.2099987929
0.2099987677
0.209998796
0.2099989145
0.2099989097
0.2100023974
0.210002151
0.2100019274
0.2100017862
0.210001659
0.2100015078
0.2100012797
0.2100009634
0.2100006584
0.2100003959
0.2100001758
0.2099999879
0.2099998214
0.2099996709
0.2099995327
0.2099994002
0.2099992666
0.2099991246
0.2099989667
0.2099988436
0.2099987301
0.209998696
0.2099987052
0.2099987559
0.2099988207
0.2100023697
0.210001991
0.2100017682
0.210001656
0.2100015264
0.2100013691
0.2100011487
0.2100008833
0.2100005949
0.2100003431
0.2100001374
0.2099999637
0.2099998075
0.2099996636
0.2099995301
0.2099994017
0.2099992762
0.2099991502
0.2099989738
0.2099988491
0.2099987175
0.209998686
0.2099987199
0.2099987377
0.2099986751
0.2100022465
0.2100019565
0.2100017119
0.2100015781
0.2100014489
0.2100012945
0.2100010507
0.2100007767
0.2100005072
0.2100002823
0.2100001023
0.2099999473
0.2099998018
0.2099996665
0.2099995397
0.2099994245
0.2099993452
0.2099993224
0.2099990352
0.2099988421
0.2099987501
0.2099987297
0.2099987756
0.2099988102
0.2099988648
0.210001881
0.2100018099
0.2100016328
0.2100015076
0.2100013816
0.2100012168
0.2100009509
0.2100006612
0.2100004131
0.2100002234
0.2100000716
0.2099999334
0.2099997981
0.2099996658
0.2099995372
0.209999418
0.2099993332
0.2099992858
0.2099987353
0.2099988509
0.2099987637
0.2099987559
0.2099987896
0.2099988358
0.2099987947
0.2099990337
0.2100016425
0.2100016471
0.2100014805
0.2100013716
0.2100012495
0.2100011085
0.2100008599
0.2100005831
0.2100003392
0.2100001536
0.2100000117
0.2099998877
0.2099997665
0.2099996441
0.2099995159
0.2099993883
0.2099992715
0.2099991642
0.2099989714
0.2099986978
0.2099987568
0.2099988112
0.2099988429
0.2099990448
0.209998971
0.2099991325
0.2099993707
0.2099996242
0.209999781
0.2099998683
0.2099999179
0.2099999572
0.210000002
0.210000054
0.2100001072
0.2100001532
0.2100001842
0.2100001942
0.2100001819
0.2100001555
0.2100001339
0.2100001386
0.210000178
0.21000024
0.2100003023
0.210000353
0.2100003986
0.2100004444
0.2100004908
0.2100005365
0.21000057
0.2100005883
0.2099995517
0.209999909
0.2099999823
0.2100000304
0.2100000747
0.2100001305
0.2100002026
0.2100002822
0.2100003547
0.2100004061
0.210000428
0.2100004209
0.2100003969
0.210000379
0.2100003929
0.2100004522
0.2100005481
0.2100006561
0.2100007528
0.2100008301
0.2100008952
0.2100009495
0.2100009944
0.2100010265
0.2100010375
0.2100010064
0.2100004709
0.2100004031
0.2100002144
0.2100001833
0.2100002094
0.2100002672
0.2100003428
0.2100004196
0.2100004818
0.21000052
0.2100005338
0.2100005334
0.2100005379
0.2100005698
0.210000644
0.2100007565
0.2100008857
0.2100010079
0.21000111
0.2100011928
0.2100012647
0.2100013242
0.2100013691
0.2100013943
0.2100014014
0.2100013308
0.2100017162
0.2100010389
0.2100004803
0.210000336
0.2100003308
0.2100003769
0.2100004378
0.2100004943
0.2100005373
0.2100005676
0.2100005936
0.2100006286
0.2100006885
0.2100007855
0.2100009175
0.2100010661
0.2100012073
0.2100013261
0.2100014198
0.2100014945
0.2100015593
0.210001617
0.2100016604
0.2100016775
0.2100017072
0.2100015711
0.2100022971
0.2100014565
0.2100007666
0.2100005088
0.2100004508
0.2100004621
0.2100004919
0.2100005239
0.2100005575
0.2100005997
0.2100006599
0.2100007472
0.2100008698
0.2100010274
0.210001201
0.2100013657
0.2100015022
0.2100016072
0.210001686
0.2100017449
0.2100017911
0.2100018385
0.2100018791
0.2100018802
0.2100019806
0.2100017213
0.210002536
0.210001765
0.2100010669
0.2100007122
0.2100005761
0.2100005323
0.2100005284
0.2100005476
0.2100005884
0.2100006555
0.2100007548
0.2100008917
0.2100010675
0.2100012708
0.2100014643
0.2100016248
0.210001747
0.2100018348
0.2100018956
0.2100019363
0.210001962
0.2100019971
0.2100020428
0.2100020182
0.2100022608
0.210001806
0.2100027096
0.2100020381
0.2100013754
0.2100009442
0.2100007137
0.2100006062
0.2100005762
0.2100005937
0.210000647
0.2100007363
0.2100008653
0.2100010367
0.2100012454
0.2100014643
0.2100016574
0.2100018108
0.210001922
0.2100019958
0.2100020406
0.2100020594
0.2100020644
0.210002085
0.2100021535
0.2100020964
0.2100026016
0.2100019308
0.2100028621
0.2100022955
0.2100016879
0.2100012019
0.210000874
0.2100006988
0.2100006439
0.2100006576
0.2100007163
0.2100008168
0.2100009614
0.2100011489
0.2100013674
0.2100015874
0.2100017793
0.2100019299
0.2100020347
0.2100020962
0.2100021252
0.2100021116
0.2100020984
0.2100020897
0.2100022095
0.2100020546
0.2100031153
0.2100019543
0.2100029982
0.2100025342
0.2100019964
0.210001479
0.2100010584
0.2100008088
0.2100007193
0.2100007179
0.2100007705
0.2100008714
0.2100010203
0.2100012114
0.2100014302
0.2100016515
0.2100018477
0.2100020012
0.2100021017
0.2100021494
0.2100021574
0.2100021041
0.2100020709
0.210001985
0.210002048
0.2100014615
0.2100021761
0.2100016884
0.2100031144
0.2100027374
0.2100022776
0.2100017529
0.2100012512
0.2100009205
0.2100007839
0.2100007557
0.2100007924
0.2100008859
0.2100010335
0.2100012267
0.2100014498
0.2100016775
0.2100018842
0.2100020433
0.2100021369
0.2100021638
0.2100021415
0.2100020561
0.2100019829
0.2100018197
0.2100017625
0.2100012507
0.2100017477
0.2100015012
0.2100031913
0.2100028796
0.2100024986
0.2100019901
0.2100014271
0.210001015
0.2100008235
0.2100007617
0.2100007767
0.210000858
0.2100010022
0.2100012009
0.2100014353
0.2100016806
0.2100019029
0.2100020663
0.2100021473
0.2100021484
0.2100020907
0.2100019582
0.2100018252
0.2100016689
0.2100015751
0.210001265
0.2100015017
0.21000138
0.2100032015
0.2100029454
0.2100026344
0.2100021603
0.2100015674
0.2100010841
0.2100008354
0.2100007389
0.2100007305
0.2100007964
0.2100009354
0.2100011409
0.2100013941
0.2100016645
0.2100019031
0.210002065
0.2100021245
0.2100020898
0.21000199
0.2100018331
0.2100016712
0.2100015112
0.2100014214
0.2100011117
0.2100012475
0.2100012144
0.2100031442
0.2100029383
0.2100026823
0.2100022489
0.2100016653
0.2100011361
0.2100008304
0.2100006999
0.2100006685
0.2100007165
0.2100008457
0.210001051
0.210001326
0.210001616
0.210001864
0.2100020168
0.210002049
0.2100019749
0.2100018327
0.2100016535
0.2100014652
0.2100012888
0.2100011385
0.2100006705
0.2100009886
0.2100009718
0.2100030491
0.210002881
0.2100026563
0.2100022634
0.2100017257
0.2100011901
0.2100008303
0.2100006635
0.210000608
0.2100006346
0.2100007461
0.2100009458
0.2100012178
0.2100015097
0.2100017547
0.2100018946
0.2100019046
0.2100018026
0.2100016297
0.2100014246
0.2100012178
0.2100010278
0.2100008773
0.2100004415
0.2100007738
0.2100007333
0.2100029434
0.2100027949
0.210002574
0.2100022258
0.2100017626
0.2100012634
0.2100008586
0.2100006477
0.210000562
0.2100005598
0.2100006413
0.2100008124
0.2100010604
0.2100013312
0.2100015589
0.2100016836
0.2100016785
0.2100015593
0.2100013684
0.2100011518
0.2100009449
0.2100007644
0.2100006109
0.2100004824
0.2100005267
0.2100005436
0.2100028347
0.2100026827
0.2100024546
0.2100021605
0.2100017891
0.2100013522
0.2100009186
0.2100006565
0.210000533
0.2100004954
0.2100005377
0.2100006636
0.2100008624
0.2100010906
0.2100012884
0.2100013985
0.21000139
0.2100012706
0.2100010775
0.2100008577
0.2100006455
0.2100004542
0.210000222
0.2100000759
0.2100002714
0.210000338
0.2100027179
0.2100025597
0.2100023359
0.2100021031
0.2100018112
0.2100014254
0.2100009823
0.2100006771
0.2100005152
0.2100004398
0.2100004378
0.2100005064
0.2100006376
0.2100008038
0.2100009591
0.2100010547
0.2100010572
0.2100009621
0.2100007921
0.2100005832
0.2100003692
0.2100001917
0.2100000728
0.2100000388
0.2100001272
0.21000016
0.2100026016
0.2100024567
0.210002264
0.2100020953
0.2100018455
0.2100014676
0.210001031
0.210000704
0.2100005066
0.2100003911
0.2100003433
0.2100003532
0.2100004087
0.2100005045
0.2100006098
0.2100006901
0.2100007119
0.2100006564
0.2100005235
0.2100003276
0.2100001023
0.2099999211
0.2099998284
0.209999847
0.2099999169
0.2099999761
0.2100025239
0.2100024045
0.2100022656
0.2100021427
0.2100019043
0.2100015085
0.2100010909
0.2100007608
0.2100005234
0.210000357
0.2100002629
0.2100002254
0.210000225
0.2100002533
0.2100003014
0.2100003496
0.2100003696
0.2100003358
0.2100002304
0.2100000458
0.2099998077
0.209999612
0.2099995221
0.2099995654
0.2099996593
0.2099997116
0.2100024987
0.2100023924
0.210002291
0.2100021836
0.2100019608
0.210001586
0.2100011986
0.2100008785
0.2100005982
0.2100003641
0.2100002153
0.2100001367
0.2100000915
0.2100000639
0.210000047
0.2100000356
0.2100000161
0.2099999729
0.2099998846
0.2099997249
0.2099994973
0.2099992956
0.2099992074
0.2099992505
0.2099993667
0.2099994362
0.2100024914
0.2100024013
0.2100023045
0.2100021852
0.2100019993
0.2100017075
0.2100013494
0.2100010457
0.2100007301
0.2100004218
0.2100002109
0.2100000937
0.2100000112
0.2099999428
0.2099998804
0.2099998213
0.2099997585
0.2099996849
0.2099995877
0.209999438
0.2099992285
0.2099990362
0.209998963
0.2099989573
0.2099990543
0.2099991181
0.210002462
0.210002414
0.2100023404
0.2100022335
0.210002077
0.2100018616
0.2100014862
0.2100011969
0.2100008608
0.210000504
0.2100002448
0.210000099
0.2099999873
0.2099998866
0.2099997902
0.209999696
0.2099995971
0.2099994896
0.209999365
0.2099992052
0.2099989999
0.2099988022
0.2099987249
0.209998742
0.2099988155
0.209998872
0.210002436
0.2100024127
0.2100023508
0.2100022677
0.2100021595
0.210002098
0.2100015653
0.2100012544
0.2100009084
0.2100005611
0.2100002967
0.2100001334
0.2099999975
0.209999869
0.209999743
0.2099996165
0.2099994824
0.2099993379
0.2099991798
0.2099990079
0.2099988293
0.2099986503
0.2099984853
0.2099985058
0.2099986599
0.209998738
0.2100024423
0.2100023927
0.2100022983
0.2100021807
0.2100020471
0.2100018583
0.2100014871
0.210001161
0.2100008538
0.2100005755
0.2100003553
0.2100001804
0.2100000233
0.2099998741
0.209999729
0.2099995834
0.2099994302
0.2099992645
0.2099990838
0.2099988948
0.2099987145
0.2099985824
0.209998515
0.2099985096
0.2099985928
0.2099986744
0.2100024773
0.210002352
0.210002192
0.2100020333
0.2100018868
0.2100017379
0.2100014522
0.2100011481
0.2100008654
0.2100006106
0.2100003962
0.2100002098
0.2100000383
0.2099998754
0.2099997171
0.2099995586
0.2099993944
0.209999221
0.2099990407
0.2099988614
0.2099986814
0.2099985532
0.2099984864
0.2099981584
0.2099985742
0.2100024836
0.2100022646
0.2100020415
0.2100018637
0.2100017201
0.2100015828
0.2100013868
0.2100011292
0.2100008632
0.2100006168
0.2100004021
0.2100002124
0.2100000372
0.2099998693
0.2099997064
0.2099995405
0.2099993683
0.2099991916
0.2099990324
0.2099989152
0.209998682
0.2099985748
0.2099985289
0.2099985137
0.2099985924
0.210002375
0.2100021147
0.2100018761
0.2100017134
0.2100015849
0.2100014576
0.210001279
0.2100010527
0.2100008015
0.2100005666
0.2100003633
0.2100001843
0.2100000172
0.2099998533
0.2099996901
0.2099995201
0.2099993448
0.2099991693
0.2099990049
0.2099988279
0.2099986709
0.2099985867
0.2099985488
0.2099985587
0.2099985792
0.2100021199
0.210001915
0.2100017245
0.2100016071
0.2100015055
0.2100013847
0.2100011921
0.2100009525
0.2100007061
0.2100004859
0.2100003006
0.2100001384
0.209999984
0.209999829
0.2099996691
0.2099995009
0.209999336
0.2099991661
0.2099990401
0.2099988224
0.2099987072
0.209998668
0.2099987791