/*--------------------------------*- C++ -*----------------------------------*\
  =========                 |
  \\      /  F ield         | OpenFOAM: The Open Source CFD Toolbox
   \\    /   O peration     | Website:  https://openfoam.org
    \\  /    A nd           | Version:  8
     \\/     M anipulation  |
\*---------------------------------------------------------------------------*/
FoamFile
{
    version     2.0;
    format      ascii;
    class       surfaceScalarField;
    location    "1.9";
    object      phi;
}
// * * * * * * * * * * * * * * * * * * * * * * * * * * * * * * * * * * * * * //

dimensions      [1 0 -1 0 0 0 0];

internalField   nonuniform List<scalar> 
197783
(
-1.552214546e-05
1.416777883e-06
1.410598373e-05
-2.470491451e-05
-4.982185448e-06
1.416557028e-05
-3.208304284e-05
-6.826954065e-06
1.420569939e-05
-3.807435912e-05
-8.1790608e-06
1.417099618e-05
-4.251316362e-05
-9.557270781e-06
1.39966959e-05
-4.560009094e-05
-1.076639313e-05
1.385394123e-05
-4.775428811e-05
-1.188746163e-05
1.404227878e-05
-4.940810746e-05
-1.321157828e-05
1.486601671e-05
-5.083591734e-05
-1.506581032e-05
1.649423966e-05
-5.211730007e-05
-1.763619827e-05
1.891820411e-05
-5.301543586e-05
-2.083851835e-05
2.173728568e-05
-5.317419156e-05
-2.435513629e-05
2.451453693e-05
-5.225512706e-05
-2.777842531e-05
2.686002258e-05
-5.004861493e-05
-3.078381001e-05
2.857797816e-05
-4.65077162e-05
-3.319456146e-05
2.965436222e-05
-4.172143209e-05
-3.492310204e-05
3.013753728e-05
-3.591313632e-05
-3.584072723e-05
3.003317165e-05
-2.957844465e-05
-3.560923816e-05
2.927530873e-05
-2.367024141e-05
-3.370797649e-05
2.780055834e-05
-1.908327352e-05
-3.0239111e-05
2.565295248e-05
-1.484104226e-05
-2.754608949e-05
2.330469412e-05
-9.67217263e-06
-2.637222658e-05
2.120422416e-05
-4.048525797e-06
-2.507186143e-05
1.944911576e-05
1.898602077e-06
-2.405983913e-05
1.811365185e-05
7.80708132e-06
-2.392704065e-05
1.801954079e-05
-2.399919178e-05
1.845455641e-05
-7.37204045e-06
-5.483601314e-06
1.427303015e-05
-1.633910959e-05
-1.024111466e-05
1.42266081e-05
-2.513602034e-05
-1.155605684e-05
1.352662532e-05
-3.257481547e-05
-1.339878733e-05
1.265913557e-05
-3.852027549e-05
-1.542326549e-05
1.181206947e-05
-4.321185751e-05
-1.744568211e-05
1.137148492e-05
-4.706189986e-05
-1.967487754e-05
1.163807109e-05
-5.039233221e-05
-2.258047318e-05
1.269994112e-05
-5.328380338e-05
-2.650861895e-05
1.433489961e-05
-5.558554174e-05
-3.140139121e-05
1.606756301e-05
-5.693769606e-05
-3.679035083e-05
1.730463423e-05
-5.702975166e-05
-4.213660766e-05
1.787419065e-05
-5.56976073e-05
-4.707582161e-05
1.796593086e-05
-5.29286269e-05
-5.146880914e-05
1.791671278e-05
-4.883370929e-05
-5.527007763e-05
1.798130915e-05
-4.364971337e-05
-5.835031475e-05
1.82439461e-05
-3.775089416e-05
-6.036846407e-05
1.862966734e-05
-3.166557527e-05
-6.065466597e-05
1.896087927e-05
-2.603976783e-05
-5.834104433e-05
1.900805015e-05
-2.150095286e-05
-5.317314185e-05
1.839602427e-05
-1.708566762e-05
-4.877984968e-05
1.681930404e-05
-1.182795281e-05
-4.615973688e-05
1.453065311e-05
-5.745460149e-06
-4.374517665e-05
1.259171265e-05
5.81407638e-07
-4.162220579e-05
1.123642999e-05
6.979760398e-06
-4.147551037e-05
1.115108585e-05
-4.120610519e-05
1.1656752e-05
-5.030880393e-07
-1.916604299e-05
1.418613667e-05
-9.763921979e-06
-1.536904938e-05
1.438937067e-05
-2.009690584e-05
-1.485956127e-05
1.363709086e-05
-2.905659844e-05
-1.71095756e-05
1.267108489e-05
-3.652848847e-05
-1.979730335e-05
1.184653232e-05
-4.288221236e-05
-2.271190905e-05
1.162055514e-05
-4.850437638e-05
-2.617267732e-05
1.212057011e-05
-5.349707633e-05
-3.063718268e-05
1.305002293e-05
-5.767168025e-05
-3.614757707e-05
1.381418825e-05
-6.059815178e-05
-4.220944383e-05
1.373516494e-05
-6.192580283e-05
-4.823669286e-05
1.277464628e-05
-6.151149747e-05
-5.391059691e-05
1.136034686e-05
-5.939995608e-05
-5.919030238e-05
1.000361197e-05
-5.573013001e-05
-6.417260163e-05
9.034651088e-06
-5.072532299e-05
-6.88570081e-05
8.582823852e-06
-4.473721158e-05
-7.299527188e-05
8.657565123e-06
-3.822506619e-05
-7.608124242e-05
9.201373473e-06
-3.169841568e-05
-7.731937222e-05
1.013881784e-05
-2.570311892e-05
-7.572208939e-05
1.138653096e-05
-2.109548699e-05
-7.029475374e-05
1.251478147e-05
-1.683750558e-05
-6.569375748e-05
1.265674476e-05
-1.190083511e-05
-6.17982547e-05
1.070269e-05
-5.43388899e-06
-5.906604976e-05
8.854799248e-06
7.578299001e-07
-5.545335595e-05
7.640347749e-06
7.262123806e-06
-5.584750704e-05
7.868656752e-06
-5.52867564e-05
8.39747438e-06
-1.421662521e-06
-3.132288727e-05
1.357910251e-05
-8.55230357e-06
-2.251465742e-05
1.427684277e-05
-1.803464977e-05
-1.931059325e-05
1.393397002e-05
-2.745458816e-05
-2.106730159e-05
1.337825644e-05
-3.622710919e-05
-2.405917232e-05
1.303498321e-05
-4.43201446e-05
-2.776114385e-05
1.314286666e-05
-5.174002178e-05
-3.224940553e-05
1.349720962e-05
-5.821911323e-05
-3.765257938e-05
1.349510485e-05
-6.325667103e-05
-4.36004657e-05
1.249107592e-05
-6.637546477e-05
-4.948121986e-05
1.039120849e-05
-6.739531018e-05
-5.500208842e-05
7.785885388e-06
-6.637700926e-05
-6.021456674e-05
5.286318686e-06
-6.352725349e-05
-6.527719166e-05
3.237791475e-06
-5.904744719e-05
-7.042029657e-05
1.768558998e-06
-5.318760673e-05
-7.561429077e-05
8.981286598e-07
-4.631161648e-05
-8.050413028e-05
6.335731254e-07
-3.885673625e-05
-8.452105469e-05
9.85656838e-07
-3.126365113e-05
-8.688943896e-05
1.977726816e-06
-2.409228359e-05
-8.661723869e-05
3.724548049e-06
-1.880281271e-05
-8.169396784e-05
6.11053062e-06
-1.453935285e-05
-7.861592271e-05
8.659511634e-06
-1.043571005e-05
-7.378067849e-05
7.879607089e-06
-3.998136875e-06
-7.22395815e-05
6.736812005e-06
1.463747499e-06
-6.688700356e-05
5.972662313e-06
7.814061341e-06
-6.938708978e-05
7.190228951e-06
-6.83416893e-05
7.65536008e-06
-5.910064822e-06
-3.893339592e-05
1.352114901e-05
-1.165488493e-05
-3.075506452e-05
1.398580696e-05
-1.899482188e-05
-2.608256455e-05
1.411248737e-05
-2.798647015e-05
-2.63317643e-05
1.425669053e-05
-3.755731108e-05
-2.897257257e-05
1.448482446e-05
-4.698955949e-05
-3.295146586e-05
1.462316145e-05
-5.57931056e-05
-3.774786446e-05
1.430260732e-05
-6.338213391e-05
-4.307214366e-05
1.300920622e-05
-6.903767413e-05
-4.837199843e-05
1.042769417e-05
-7.234808817e-05
-5.328798164e-05
7.117800616e-06
-7.324496931e-05
-5.788630641e-05
3.781726492e-06
-7.186584374e-05
-6.242459808e-05
8.315382315e-07
-6.851029685e-05
-6.718940406e-05
-1.442692105e-06
-6.345258152e-05
-7.238045632e-05
-3.096898983e-06
-5.6942313e-05
-7.789206509e-05
-4.231820856e-06
-4.92501963e-05
-8.334658013e-05
-4.848975763e-06
-4.066915494e-05
-8.817520521e-05
-4.926181753e-06
-3.149296329e-05
-9.166106444e-05
-4.403839446e-06
-2.242983376e-05
-9.265229495e-05
-3.027326398e-06
-1.577777045e-05
-8.800063406e-05
-3.446298973e-07
-1.119145838e-05
-8.782614663e-05
4.624706955e-06
-8.226594098e-06
-8.244088477e-05
5.696153523e-06
-2.410873081e-06
-8.375649111e-05
5.702034041e-06
1.62845005e-06
-7.688478946e-05
5.959329779e-06
7.594972974e-06
-8.398436812e-05
8.631799906e-06
-8.140820215e-05
8.242024848e-06
-9.046174811e-06
-4.345512686e-05
1.356846192e-05
-1.499058808e-05
-3.792917683e-05
1.311908776e-05
-2.126541575e-05
-3.336251361e-05
1.35553407e-05
-2.976027797e-05
-3.228654523e-05
1.445020952e-05
-3.967367195e-05
-3.408599019e-05
1.50273845e-05
-4.987004089e-05
-3.762927165e-05
1.487475722e-05
-5.963247252e-05
-4.190244951e-05
1.391760929e-05
-6.817932534e-05
-4.637652119e-05
1.185183046e-05
-7.464704624e-05
-5.058576988e-05
8.682096388e-06
-7.853342878e-05
-5.446475492e-05
5.06376164e-06
-7.970585262e-05
-5.828709563e-05
1.573821349e-06
-7.841489433e-05
-6.232609439e-05
-1.388847532e-06
-7.500871945e-05
-6.688503089e-05
-3.709920097e-06
-6.970989388e-05
-7.213287563e-05
-5.545761281e-06
-6.268605847e-05
-7.789255139e-05
-7.022685957e-06
-5.413398833e-05
-8.378532975e-05
-8.112639246e-06
-4.422713799e-05
-8.928082862e-05
-8.800528763e-06
-3.309672094e-05
-9.363355986e-05
-9.157209721e-06
-2.167589244e-05
-9.527843284e-05
-8.793959051e-06
-1.331680138e-05
-9.074685066e-05
-5.612127891e-06
-8.356238225e-06
-9.331784199e-05
5.319155603e-07
-6.883105383e-06
-8.784175427e-05
3.928538337e-06
-2.638200813e-06
-9.19650668e-05
3.964527221e-06
-1.725215189e-06
-8.506588323e-05
7.268949783e-06
4.174549909e-06
-9.678831557e-05
6.905439784e-06
-9.310508114e-05
5.549835264e-06
-1.058263105e-05
-4.639610774e-05
1.35241486e-05
-1.709597268e-05
-4.341911057e-05
1.200381774e-05
-2.329154091e-05
-3.953762791e-05
1.2371228e-05
-3.161185261e-05
-3.764635814e-05
1.368067505e-05
-4.164250014e-05
-3.838639224e-05
1.43316081e-05
-5.224831629e-05
-4.098756708e-05
1.396467861e-05
-6.284089287e-05
-4.428630913e-05
1.297701082e-05
-7.254845289e-05
-4.771994048e-05
1.105155989e-05
-8.030077633e-05
-5.098540917e-05
8.15254707e-06
-8.535001718e-05
-5.418664751e-05
4.771719844e-06
-8.741497568e-05
-5.764583734e-05
1.424288034e-06
-8.665738606e-05
-6.158586259e-05
-1.497230333e-06
-8.34686839e-05
-6.613263088e-05
-3.940491313e-06
-7.80803527e-05
-7.142686804e-05
-6.093706384e-06
-7.06394088e-05
-7.730044358e-05
-8.032398012e-06
-6.129926455e-05
-8.338134559e-05
-9.743454126e-06
-5.004491471e-05
-8.913782032e-05
-1.139666673e-05
-3.662536678e-05
-9.365898702e-05
-1.3393417e-05
-2.192527401e-05
-9.496946001e-05
-1.500833461e-05
-1.200278845e-05
-9.058615003e-05
-1.008244749e-05
-6.938983708e-06
-9.455845466e-05
-3.822412567e-06
-7.304319117e-06
-8.967816766e-05
2.202558407e-06
-4.99263916e-06
-9.22829053e-05
-1.992964406e-06
-1.180802544e-05
-8.71873492e-05
8.937718772e-06
-6.56731667e-06
-8.975301532e-05
-1.227409793e-05
-0.000100701025
-4.202171811e-06
-1.089127735e-05
-4.917180651e-05
1.366749144e-05
-1.770874798e-05
-4.789682528e-05
1.129570574e-05
-2.40624996e-05
-4.447874598e-05
1.129539358e-05
-3.252527128e-05
-4.170722701e-05
1.252417116e-05
-4.283910477e-05
-4.110317621e-05
1.303115655e-05
-5.394734813e-05
-4.259467493e-05
1.271589739e-05
-6.553385797e-05
-4.493583872e-05
1.223659231e-05
-7.675147653e-05
-4.763412039e-05
1.113235838e-05
-8.624344989e-05
-5.048226373e-05
8.989393439e-06
-9.294079119e-05
-5.361282493e-05
6.124086651e-06
-9.640098663e-05
-5.725572087e-05
3.070643419e-06
-9.651935886e-05
-6.15204532e-05
5.351047133e-08
-9.370459743e-05
-6.638613891e-05
-2.560665453e-06
-8.82758e-05
-7.16925365e-05
-5.162511418e-06
-8.044810859e-05
-7.738455029e-05
-7.742940641e-06
-7.035914805e-05
-8.307080095e-05
-1.039883617e-05
-5.773018844e-05
-8.812306993e-05
-1.364301986e-05
-4.172174825e-05
-9.143362105e-05
-1.823308999e-05
-2.28193644e-05
-9.124200038e-05
-2.262907371e-05
-1.13941128e-05
-8.752006587e-05
-1.449057324e-05
-5.452585244e-06
-9.077978962e-05
-9.71937346e-06
-6.299800432e-06
-8.894777654e-05
1.176458176e-07
-3.146570376e-06
-8.586531088e-05
-9.569935556e-06
-6.096466059e-06
-9.488212894e-05
1.064537407e-05
-1.686540057e-05
-9.492145266e-05
1.593805173e-05
-0.0001056700272
-2.609539693e-06
-1.02307243e-05
-5.330030595e-05
1.435971525e-05
-1.699256452e-05
-5.262851252e-05
1.149402436e-05
-2.331901014e-05
-4.916069318e-05
1.10088934e-05
-3.213565324e-05
-4.474399881e-05
1.185392279e-05
-4.319332061e-05
-4.21123795e-05
1.206738703e-05
-5.516308382e-05
-4.250299803e-05
1.187860943e-05
-6.797672578e-05
-4.418359941e-05
1.206193322e-05
-8.086695094e-05
-4.671762678e-05
1.197427175e-05
-9.223833424e-05
-4.986251216e-05
1.07521809e-05
-0.0001007366226
-5.362546106e-05
8.511479299e-06
-0.000105740235
-5.802886938e-05
5.777317711e-06
-0.0001070917133
-6.299997952e-05
2.831562744e-06
-0.0001047950508
-6.832011643e-05
-3.621072635e-07
-9.927052173e-05
-7.362055709e-05
-3.595903058e-06
-9.082673078e-05
-7.872386225e-05
-7.103843138e-06
-7.954557856e-05
-8.328195413e-05
-1.10693326e-05
-6.497019095e-05
-8.647963302e-05
-1.621812473e-05
-4.58999977e-05
-8.728767337e-05
-2.321538711e-05
-2.266703315e-05
-8.506444609e-05
-2.940967858e-05
-9.115005637e-06
-8.261284186e-05
-1.845842613e-05
-2.294971376e-06
-8.401626556e-05
-1.358264558e-05
-2.24163958e-06
-8.925243537e-05
2.521803591e-07
-7.963883247e-06
-8.161377004e-05
1.471771959e-06
-1.472519443e-05
-9.535430699e-05
7.23383886e-06
-3.046325013e-05
-9.529999438e-05
1.611774234e-05
-0.0001072813857
-5.123770354e-06
-9.208422695e-06
-5.993723453e-05
1.584581686e-05
-1.561443648e-05
-5.876586083e-05
1.254383559e-05
-2.141284972e-05
-5.491227474e-05
1.155047238e-05
-3.053398549e-05
-4.775688415e-05
1.213450547e-05
-4.287312818e-05
-4.186000073e-05
1.208725641e-05
-5.610324944e-05
-4.11408934e-05
1.18685166e-05
-7.023146254e-05
-4.252039152e-05
1.246551423e-05
-8.461457668e-05
-4.54637539e-05
1.312976314e-05
-9.76309605e-05
-4.949579184e-05
1.265019833e-05
-0.0001077832719
-5.436430901e-05
1.089170339e-05
-0.0001142695375
-5.981275359e-05
8.270698033e-06
-0.0001167447128
-6.556861017e-05
5.044354359e-06
-0.0001149875491
-7.126673356e-05
1.190006916e-06
-0.0001092327543
-7.632679684e-05
-3.047964684e-06
-9.977711889e-05
-8.058069734e-05
-7.598172667e-06
-8.669601535e-05
-8.366713633e-05
-1.269525459e-05
-6.936486847e-05
-8.495805812e-05
-1.885200569e-05
-4.671654277e-05
-8.391050006e-05
-2.602470546e-05
-1.972226237e-05
-8.10211542e-05
-3.103668531e-05
-2.381635711e-06
-8.058619608e-05
-1.936638845e-05
1.674139509e-06
-8.250839844e-05
-5.562637585e-06
-3.615707577e-06
-8.644500192e-05
2.483464477e-06
-1.786936415e-05
-7.860519117e-05
1.124625798e-05
-2.72583715e-05
-7.684331834e-05
-9.120425402e-06
-4.546692271e-05
-8.598393607e-05
8.893917713e-06
-9.489667362e-05
-2.124230049e-05
-9.085233215e-06
-6.8927088e-05
1.807552466e-05
-1.493945411e-05
-6.652516252e-05
1.36139745e-05
-1.938997838e-05
-6.227745991e-05
1.181616604e-05
-2.823042148e-05
-5.173631442e-05
1.282033515e-05
-4.211181366e-05
-4.12226749e-05
1.324453512e-05
-5.690328498e-05
-3.928269311e-05
1.293374883e-05
-7.230196853e-05
-4.051156009e-05
1.339034103e-05
-8.78301705e-05
-4.407906104e-05
1.414401436e-05
-0.0001020803627
-4.904358759e-05
1.37985108e-05
-0.0001135373246
-5.487459923e-05
1.196778937e-05
-0.0001211707692
-6.106880343e-05
8.890038788e-06
-0.0001243728428
-6.719704941e-05
4.831049901e-06
-0.0001227392049
-7.277182575e-05
-1.280451089e-07
-0.000116558715
-7.74187477e-05
-5.087970108e-06
-0.0001059773194
-8.085337161e-05
-1.030810039e-05
-9.108304892e-05
-8.274662895e-05
-1.581410268e-05
-7.153876618e-05
-8.256922108e-05
-2.193237187e-05
-4.67739327e-05
-8.026667121e-05
-2.840780887e-05
-1.768371282e-05
-7.78362394e-05
-3.227419446e-05
5.845612227e-07
-8.07984903e-05
-1.805506548e-05
8.658596682e-07
-8.02326295e-05
-2.555926815e-06
-4.099836546e-06
-7.928744253e-05
-2.190610615e-06
-1.841782825e-05
-6.897426142e-05
4.688634129e-06
-3.726909253e-05
-5.830816734e-05
3.193900222e-07
-5.697499473e-05
-6.696084215e-05
6.845855344e-07
-7.079475927e-05
-3.585319625e-05
-1.110348532e-05
-7.840349908e-05
2.058030531e-05
-1.632348397e-05
-7.453891387e-05
1.323418232e-05
-1.870768334e-05
-6.989734516e-05
1.000452068e-05
-2.62828714e-05
-5.657494319e-05
1.241425588e-05
-4.13259513e-05
-4.138451447e-05
1.520536422e-05
-5.777256507e-05
-3.794403695e-05
1.51084144e-05
-7.44070824e-05
-3.866440059e-05
1.478782842e-05
-9.080950091e-05
-4.243012765e-05
1.47539754e-05
-0.0001058622171
-4.762008322e-05
1.362972468e-05
-0.000118081018
-5.356210295e-05
1.090683999e-05
-0.0001262109875
-5.963799412e-05
6.699716196e-06
-0.0001293852627
-6.538029355e-05
1.358088026e-06
-0.0001274737365
-7.046259224e-05
-4.220201418e-06
-0.0001205649419
-7.459372e-05
-9.73323982e-06
-0.000108781034
-7.762735603e-05
-1.500929533e-05
-9.217401989e-05
-7.935627668e-05
-1.999667622e-05
-7.073588882e-05
-7.941424039e-05
-2.459234061e-05
-4.481381724e-05
-7.782217945e-05
-2.836569216e-05
-1.680626885e-05
-7.6141256e-05
-2.970158073e-05
1.074902566e-06
-7.859787435e-05
-2.008080283e-05
1.253560303e-06
-7.385598361e-05
-6.554156378e-06
1.401538344e-06
-6.849161697e-05
-1.094258169e-05
-6.280915191e-06
-5.479157775e-05
-6.498772567e-06
-3.339100112e-05
-5.307665948e-05
2.188026458e-05
-5.56384042e-05
-4.603645112e-05
1.324593236e-06
-4.10496507e-05
-3.842595022e-05
-1.518923583e-05
-8.53614038e-05
2.214752806e-05
-1.972147046e-05
-8.018612869e-05
1.017985909e-05
-1.993449391e-05
-7.478851787e-05
5.104609019e-06
-2.539718319e-05
-6.050718907e-05
9.395348675e-06
-4.059376675e-05
-4.325847855e-05
1.707096681e-05
-5.855727432e-05
-3.809026725e-05
1.811017458e-05
-7.638636748e-05
-3.736115538e-05
1.652630154e-05
-9.3497732e-05
-4.028903345e-05
1.49707457e-05
-0.0001089738272
-4.449647273e-05
1.235298538e-05
-0.0001213892229
-4.933371379e-05
8.187536109e-06
-0.0001293438316
-5.42443672e-05
2.561545063e-06
-0.0001322261648
-5.88602483e-05
-3.63711655e-06
-0.0001300205138
-6.298484055e-05
-9.682823879e-06
-0.000122728738
-6.648436487e-05
-1.540053409e-05
-0.0001102474635
-6.941160997e-05
-2.06963755e-05
-9.254795322e-05
-7.168670747e-05
-2.536836448e-05
-6.98871464e-05
-7.309081446e-05
-2.898343302e-05
-4.326132198e-05
-7.350060999e-05
-3.094650495e-05
-1.566412835e-05
-7.327915627e-05
-3.045833483e-05
3.78654424e-06
-7.35156574e-05
-2.453186895e-05
8.803950468e-06
-6.616626124e-05
-1.270598244e-05
1.201676407e-05
-5.769676829e-05
-1.400651817e-05
9.869323322e-06
-4.921292877e-05
-3.429949815e-06
-8.241427703e-06
-4.498693222e-05
1.002222688e-05
-3.897840932e-05
-3.390373167e-05
1.860569143e-05
-2.394446322e-05
-1.444691422e-05
-1.996549341e-05
-8.705959896e-05
2.166405767e-05
-2.368705219e-05
-8.104771473e-05
4.583532669e-06
-2.184184002e-05
-7.47853485e-05
-1.847993848e-06
-2.44371316e-05
-6.159754144e-05
3.686030249e-06
-3.849449655e-05
-4.670569106e-05
1.750496984e-05
-5.778577973e-05
-4.004857165e-05
2.125000397e-05
-7.671556455e-05
-3.681978568e-05
1.838885115e-05
-9.453543264e-05
-3.761498093e-05
1.51462734e-05
-0.0001103445827
-3.964051269e-05
1.095367244e-05
-0.0001227676979
-4.230348955e-05
5.393401465e-06
-0.0001305123672
-4.516129229e-05
-1.337868731e-06
-0.0001334137771
-4.794619153e-05
-8.012091138e-06
-0.0001314521124
-5.056827374e-05
-1.437766134e-05
-0.0001243836786
-5.315483599e-05
-2.0397357e-05
-0.0001118942445
-5.583941037e-05
-2.606096782e-05
-9.386422511e-05
-5.861894667e-05
-3.109703379e-05
-7.066284021e-05
-6.133876429e-05
-3.495259695e-05
-4.3441681e-05
-6.379436162e-05
-3.692648063e-05
-1.463898517e-05
-6.585430078e-05
-3.622656118e-05
9.12434424e-06
-6.700047946e-05
-3.027746383e-05
2.16223976e-05
-6.111272919e-05
-1.755046457e-05
2.521792429e-05
-5.442374927e-05
-6.867477859e-06
1.864551701e-05
-4.603675616e-05
3.397313352e-06
6.755188947e-06
-3.169722353e-05
-1.398256275e-06
-2.413987897e-05
-2.957299113e-05
2.656573406e-05
-2.457026194e-05
1.015191941e-05
-2.417535357e-05
-8.195548863e-05
1.907160018e-05
-2.699850027e-05
-7.625987647e-05
-1.964326868e-06
-2.272460241e-05
-7.014419467e-05
-8.914687225e-06
-2.103657682e-05
-5.962957842e-05
-3.655628034e-06
-3.27114955e-05
-5.028786963e-05
1.525746297e-05
-5.358840995e-05
-4.291789722e-05
2.37466346e-05
-7.365102186e-05
-3.709010132e-05
2.033334466e-05
-9.235382225e-05
-3.485120871e-05
1.593946687e-05
-0.0001087388254
-3.394663352e-05
1.069158602e-05
-0.0001215162226
-3.375279822e-05
4.227194183e-06
-0.0001297444824
-3.385137502e-05
-3.081145801e-06
-0.0001333360596
-3.411381354e-05
-1.024026839e-05
-0.0001322158734
-3.471054677e-05
-1.69773508e-05
-0.0001259859818
-3.597025143e-05
-2.341386562e-05
-0.0001141639261
-3.811861216e-05
-2.954217339e-05
-9.649231035e-05
-4.123657075e-05
-3.505322169e-05
-7.329097445e-05
-4.520009368e-05
-3.933913745e-05
-4.566324286e-05
-4.983312035e-05
-4.158801132e-05
-1.587175063e-05
-5.478199452e-05
-4.086277403e-05
1.120692991e-05
-5.902687633e-05
-3.505121833e-05
2.952862475e-05
-5.858825944e-05
-2.084507839e-05
3.825556961e-05
-5.795230194e-05
-5.197334313e-06
3.287410601e-05
-5.003590681e-05
9.381677127e-06
1.555206799e-05
-3.51575417e-05
2.078370419e-05
-1.252436705e-05
-2.518316968e-05
2.368785946e-05
-2.324010286e-05
1.190281018e-05
-2.738716604e-05
-6.990446866e-05
1.533649623e-05
-2.933459372e-05
-6.637018942e-05
-7.941915831e-06
-2.261443484e-05
-6.138330187e-05
-1.548069801e-05
-1.524177848e-05
-5.555901394e-05
-1.144288287e-05
-2.36919086e-05
-5.204802913e-05
1.021063044e-05
-4.638084935e-05
-4.503197373e-05
2.480339028e-05
-6.732244098e-05
-3.829262113e-05
2.21445094e-05
-8.658498521e-05
-3.324970498e-05
1.766146052e-05
-0.0001035884082
-2.926359613e-05
1.23208284e-05
-0.000117296527
-2.580412551e-05
5.759915707e-06
-0.0001267489549
-2.253292147e-05
-1.865530604e-06
-0.000131864225
-1.960311512e-05
-9.394910608e-06
-0.0001324015063
-1.756968373e-05
-1.660303182e-05
-0.0001278268309
-1.705845504e-05
-2.348587211e-05
-0.0001174647303
-1.842950766e-05
-3.005053227e-05
-0.0001009568722
-2.170613684e-05
-3.603752383e-05
-7.856883202e-05
-2.673485381e-05
-4.085240488e-05
-5.136748e-05
-3.343579885e-05
-4.359769766e-05
-2.149069043e-05
-4.143904087e-05
-4.321869602e-05
7.505070784e-06
-4.983306342e-05
-3.81885021e-05
2.945799836e-05
-5.698383841e-05
-2.355628703e-05
4.011632436e-05
-6.114632253e-05
-7.463315776e-06
3.764218296e-05
-5.268431407e-05
5.123412223e-06
2.953907712e-05
-3.538323632e-05
8.33079894e-06
4.361165989e-06
-2.38467178e-05
2.38426834e-05
-1.954555097e-05
1.535417165e-05
-2.954091639e-05
-5.187008745e-05
1.150688204e-05
-3.08041559e-05
-5.220704765e-05
-1.289957164e-05
-2.248905812e-05
-4.910419725e-05
-2.059385279e-05
-1.131446292e-05
-4.932975754e-05
-1.740353457e-05
-1.68841463e-05
-5.095292262e-05
4.474893757e-06
-3.963179517e-05
-4.557750598e-05
2.329353512e-05
-6.012835346e-05
-4.032081697e-05
2.252513535e-05
-7.884521948e-05
-3.398714686e-05
1.945471002e-05
-9.612491166e-05
-2.765979185e-05
1.567631135e-05
-0.000111079381
-2.13002632e-05
1.045105735e-05
-0.0001226604759
-1.464659085e-05
3.695245037e-06
-0.0001301407076
-8.296921927e-06
-3.825449058e-06
-0.0001330634252
-3.303150468e-06
-1.134327136e-05
-0.0001305196576
-8.641271111e-07
-1.873750335e-05
-0.000121976701
-9.334378742e-07
-2.60383639e-05
-0.0001071752926
-3.523381134e-06
-3.298340848e-05
-8.635704369e-05
-8.674370243e-06
-3.887787001e-05
-6.06152313e-05
-1.647520688e-05
-4.270144183e-05
-3.210938326e-05
-2.672584706e-05
-4.321798721e-05
-3.034201811e-06
-3.954990583e-05
-3.935725298e-05
2.097276309e-05
-5.395784794e-05
-2.703185863e-05
3.719199722e-05
-6.161875476e-05
-1.574570881e-05
4.197170683e-05
-5.584388983e-05
-1.619082286e-06
3.580257283e-05
-4.28004226e-05
1.358756195e-05
2.139245931e-05
-3.073772524e-05
2.130232268e-05
-2.450719498e-05
2.087456165e-05
-2.987179838e-05
-3.034841969e-05
8.350467369e-06
-3.136395171e-05
-3.551426365e-05
-1.520031266e-05
-2.331238974e-05
-3.450924514e-05
-2.264617879e-05
-1.375506411e-05
-4.020234377e-05
-1.868444336e-05
-1.918981334e-05
-4.724122276e-05
1.723342662e-06
-3.850055451e-05
-4.487967692e-05
1.861325046e-05
-5.62555571e-05
-4.178453705e-05
1.92190903e-05
-7.353244257e-05
-3.570186195e-05
1.899198719e-05
-9.140622411e-05
-2.838673675e-05
1.860113407e-05
-0.0001080828248
-2.074137965e-05
1.611815265e-05
-0.0001218837664
-1.238582929e-05
1.154065174e-05
-0.0001314237066
-3.839047377e-06
5.082582866e-06
-0.0001354661518
3.501223385e-06
-2.761364723e-06
-0.0001338453687
8.522251689e-06
-1.100655989e-05
-0.0001265191709
1.116778028e-05
-1.942675673e-05
-0.0001134515943
1.08942572e-05
-2.74844759e-05
-9.507726242e-05
7.437003641e-06
-3.448487939e-05
-7.234078153e-05
8.243955364e-08
-3.929325697e-05
-4.702813358e-05
-1.139119273e-05
-4.064629241e-05
-2.067258169e-05
-2.75133509e-05
-3.839102386e-05
4.063769056e-06
-4.49296956e-05
-3.376335665e-05
2.784263878e-05
-5.452243522e-05
-3.087400762e-05
4.146070523e-05
-5.320914366e-05
-1.625164706e-05
4.155994667e-05
-4.600408412e-05
3.105629356e-06
3.329619196e-05
-3.765297212e-05
1.518025727e-05
-3.298778469e-05
1.925555856e-05
-2.647793538e-05
-1.088990967e-05
7.019722774e-06
-3.069393729e-05
-1.835650828e-05
-1.294148497e-05
-2.5859979e-05
-1.972689603e-05
-1.961602371e-05
-2.167778526e-05
-3.058745727e-05
-1.379681681e-05
-2.934255562e-05
-4.236607836e-05
2.789906182e-06
-4.249451635e-05
-4.327842343e-05
1.15510348e-05
-5.352873247e-05
-4.200381548e-05
1.125384851e-05
-6.591788603e-05
-3.723495257e-05
1.392261715e-05
-8.126985537e-05
-3.072390384e-05
1.768953243e-05
-9.666292851e-05
-2.389152275e-05
1.854364077e-05
-0.0001096292256
-1.614630397e-05
1.672722844e-05
-0.00011942434
-7.463325102e-06
1.341989099e-05
-0.000125314086
1.188979355e-06
8.202543504e-06
-0.0001266157027
8.844426856e-06
9.800461392e-07
-0.0001230423475
1.44507878e-05
-6.855703131e-06
-0.0001148529887
1.748620283e-05
-1.478058375e-05
-0.0001025847496
1.709035416e-05
-2.192078419e-05
-8.644454433e-05
1.169030882e-05
-2.774712407e-05
-6.603669003e-05
7.419537063e-07
-3.254001141e-05
-4.21213739e-05
-1.377143193e-05
-3.765614035e-05
-1.428372509e-05
-2.868734804e-05
-4.407879521e-05
1.697875784e-05
-3.790686878e-05
-4.78767935e-05
3.906189007e-05
-4.329546683e-05
-3.199557465e-05
4.367300151e-05
-4.21033027e-05
-8.510638471e-06
3.651657762e-05
-3.827002752e-05
7.774768794e-06
-3.495538669e-05
1.271581853e-05
-1.489896307e-05
-1.117615894e-05
1.51854524e-05
-2.278107718e-05
-1.244923111e-05
1.975086004e-06
-2.498183873e-05
-1.091907493e-05
-6.606812881e-06
-2.99783165e-05
-2.286370351e-05
-2.727030165e-06
-3.980721302e-05
-3.685040697e-05
4.313504414e-06
-4.683273577e-05
-3.925916413e-05
3.006578995e-06
-5.122311158e-05
-3.873229411e-05
1.119194936e-06
-5.848594692e-05
-3.54998748e-05
5.528118907e-06
-7.134487808e-05
-3.088488731e-05
1.302030237e-05
-8.632397302e-05
-2.612913966e-05
1.721713145e-05
-9.887299025e-05
-2.082548672e-05
1.722864956e-05
-0.0001081880569
-1.45112787e-05
1.636350243e-05
-0.0001145098005
-7.618652995e-06
1.512990223e-05
-0.0001177237819
-4.063895721e-07
1.24653841e-05
-0.0001177721414
6.466717308e-06
8.033082378e-06
-0.0001144066669
1.221037286e-05
1.911074586e-06
-0.0001071447697
1.533069374e-05
-5.501439174e-06
-9.560934172e-05
1.478768823e-05
-1.463192254e-05
-7.919806359e-05
1.07454114e-05
-2.641376058e-05
-5.661622581e-05
4.203077033e-06
-4.055527427e-05
-2.836068338e-05
-3.423357702e-06
-5.351834018e-05
4.966757865e-06
-1.174505105e-05
-5.948800088e-05
3.275253778e-05
-2.78511762e-05
-4.322880978e-05
4.031362953e-05
-3.215614403e-05
-1.750698602e-05
3.474480887e-05
-3.355909435e-05
8.59178325e-07
-3.283247584e-05
2.402339853e-06
-1.994682193e-06
-2.064516884e-05
1.146391291e-05
-1.046994028e-05
-1.863814783e-05
1.466439371e-05
-2.037684492e-05
-1.34626799e-05
1.245073437e-05
-3.329634977e-05
-1.975854778e-05
9.814597061e-06
-4.447759759e-05
-2.920707439e-05
3.538188529e-06
-4.779523421e-05
-3.184676536e-05
-4.094461768e-06
-4.781772059e-05
-3.141872519e-05
-7.29075332e-06
-5.099675974e-05
-2.926690558e-05
-3.053577054e-06
-6.181831579e-05
-2.659216153e-05
6.529211903e-06
-7.740475148e-05
-2.412734098e-05
1.358505598e-05
-9.065304241e-05
-2.159235876e-05
1.401561209e-05
-9.954331566e-05
-1.830729784e-05
1.268677077e-05
-0.0001046998597
-1.450350544e-05
1.204191217e-05
-0.0001066521458
-1.035363709e-05
1.190009483e-05
-0.0001058604033
-5.935127352e-06
1.16107245e-05
-0.0001022976461
-1.663116557e-06
1.031142676e-05
-9.590642852e-05
1.938598228e-06
7.001650715e-06
-8.624978452e-05
4.563918587e-06
5.679689437e-07
-7.282480533e-05
6.249752641e-06
-8.928392582e-06
-5.467060263e-05
8.130590778e-06
-2.208070059e-05
-3.178057157e-05
1.065524571e-05
-3.696751847e-05
-3.738559154e-06
9.064781596e-06
-4.885064412e-05
2.255777921e-05
-1.120365682e-05
-4.294263239e-05
2.9147414e-05
-1.982608819e-05
-1.891843969e-05
2.243110607e-05
-2.363984395e-05
-3.201659473e-06
-2.405315676e-05
-7.945281284e-06
9.044346449e-07
-2.21001679e-05
5.507636542e-07
-6.640075723e-06
-2.012874648e-05
9.035308534e-06
-2.034034896e-05
-1.519450958e-05
1.543230879e-05
-3.567102189e-05
-1.646473645e-05
1.203709072e-05
-4.444102657e-05
-2.19318692e-05
1.495057018e-06
-4.582822517e-05
-2.365876792e-05
-6.800519087e-06
-4.425196132e-05
-2.236650935e-05
-1.062815758e-05
-4.553722836e-05
-2.042387627e-05
-7.557415551e-06
-5.478720889e-05
-1.918958955e-05
1.847783194e-06
-7.048895364e-05
-1.898153229e-05
1.055635367e-05
-8.438986017e-05
-1.917104122e-05
1.148003631e-05
-9.338860734e-05
-1.859489708e-05
9.286821657e-06
-9.839307019e-05
-1.709340023e-05
7.594870765e-06
-0.0001000495562
-1.528099886e-05
6.584407252e-06
-9.863204933e-05
-1.351089094e-05
6.158871574e-06
-9.427200795e-05
-1.204571973e-05
6.023240778e-06
-8.710739337e-05
-1.081663116e-05
5.591364049e-06
-7.719457484e-05
-9.375707096e-06
4.027628295e-06
-6.406349046e-05
-7.075448697e-06
1.950079026e-07
-4.758623384e-05
-2.328745064e-06
-6.016941162e-06
-2.728326182e-05
5.192848297e-06
-1.483950317e-05
-5.717397478e-06
1.249976216e-05
-2.499968112e-05
1.48315676e-05
9.883770978e-07
-3.273976226e-05
1.994334711e-05
-8.990150868e-06
-1.594645365e-05
1.453084454e-05
-1.2735134e-05
-5.490919062e-06
-1.383786854e-05
-1.268649256e-05
5.580524169e-06
-2.485122369e-05
-2.829283154e-06
3.168785362e-06
-2.225453795e-05
4.537718714e-06
-8.316173697e-06
-1.684004388e-05
1.313069159e-05
-2.281262944e-05
-1.480082092e-05
1.283275397e-05
-3.284066701e-05
-1.671945672e-05
4.815855726e-06
-3.965701993e-05
-1.419677578e-05
-2.645404486e-06
-4.440885225e-05
-1.079346566e-05
-6.820924738e-06
-4.882677758e-05
-1.129646218e-05
-4.709170208e-06
-5.726508601e-05
-1.35646314e-05
2.813711493e-06
-7.036932365e-05
-1.515541686e-05
9.278531681e-06
-8.267297619e-05
-1.654768899e-05
9.680739153e-06
-9.115788138e-05
-1.745694456e-05
7.347418667e-06
-9.601748343e-05
-1.747952913e-05
5.246234573e-06
-9.765752282e-05
-1.719108648e-05
3.550677373e-06
-9.629823809e-05
-1.697402981e-05
2.104459971e-06
-9.193795496e-05
-1.693757645e-05
5.322417137e-07
-8.439288764e-05
-1.688395968e-05
-1.477004361e-06
-7.324216696e-05
-1.603420149e-05
-4.491422743e-06
-5.803517994e-05
-1.33404397e-05
-8.941120164e-06
-3.856592689e-05
-7.434648112e-06
-1.436239691e-05
-1.766732898e-05
2.471732755e-06
-1.817645695e-05
-2.669177652e-06
9.4507612e-06
-1.194804214e-05
1.247084167e-05
8.161334574e-06