/*--------------------------------*- C++ -*----------------------------------*\
  =========                 |
  \\      /  F ield         | OpenFOAM: The Open Source CFD Toolbox
   \\    /   O peration     | Website:  https://openfoam.org
    \\  /    A nd           | Version:  8
     \\/     M anipulation  |
\*---------------------------------------------------------------------------*/
FoamFile
{
    version     2.0;
    format      ascii;
    class       scalarField;
    location    "1/lagrangian/reactingCloud1";
    object      d;
}
// * * * * * * * * * * * * * * * * * * * * * * * * * * * * * * * * * * * * * //


177
(
0.00072809097
0.0005258571132
0.0005840297256
0.0007001249046
0.0007014659743
0.0007198317345
0.0005542147371
0.0006557633465
0.000695264881
0.0009730315248
0.0006006217517
0.0007065396652
0.0006197598923
0.0007677139732
0.0008369074052
0.0008248851971
0.0006318813039
0.0006008790845
0.0007260140523
0.0005251251211
0.0006246258127
0.0007531481036
0.0007313749466
0.0005227627559
0.0005659072505
0.001169019674
0.0005250752483
0.0006842959714
0.0005378930204
0.0006821170552
0.000708214
0.0009452905494
0.0005540952161
0.001158209207
0.0008758253129
0.0005266957624
0.0006960900498
0.0006183914934
0.0008742928644
0.0008133518931
0.0005268657335
0.001147821696
0.0004193170202
9.815018386e-05
0.000798412272
0.0006623203703
0.0007301990769
0.0007422786067
0.0008094891584
0.000538144517
0.000843937207
0.0009762013359
0.0006862994587
0.0005779920539
0.0008206739365
0.0005725601378
0.0005542147371
0.0005982876307
0.000636827603
0.001122399794
0.0009745250784
0.0006246258127
0.0007438125387
0.000610056469
0.0006008790845
0.0007955793046
0.0005523243623
0.0009510957071
0.0007722289343
0.0006505520864
0.0005494220659
0.001011916923
0.001177540182
0.00111843449
0.0007798457812
0.0008883715962
0.0005893332998
0.0006095619536
0.0006728561104
0.0005059930105
0.0006252399996
0.0005385184109
0.000770611832
0.0006715598573
0.0007387436286
0.001186696599
0.0006123730234
0.0009636824838
0.0005003174016
0.0005738276944
0.0008533749189
0.0006671953909
0.0009342442324
0.0006825346606
0.0005422732665
0.0009780334435
0.0006952983264
0.0006257763822
0.0007785663525
0.0006622572468
0.000572069389
0.0009325386564
0.0005610031878
0.0009150468088
0.0009145630392
0.0006261249831
0.0005380261727
0.0006875125255
0.0006301695101
0.0005314067669
0.0008976240187
0.0005442844539
0.0009083983413
0.001176431018
0.0007876391418
0.0007775732143
0.0006464194476
0.0006526722666
0.0006859152697
0.0006029782903
0.0005815243739
0.0007541588107
0.0006442509228
0.001062193656
0.0007119578863
0.0006326076717
0.0006532976282
0.0007212526426
0.0008351908468
0.0007012799603
0.0006858418814
0.0005421347428
0.0005412879508
0.0005306917632
0.0005555705374
0.001059932607
0.0007845131375
0.0005378679027
0.000680425131
0.0006552777017
0.0007275898802
0.0007955793046
0.0005505025934
0.0005013681573
0.0008261004369
0.0005057282068
0.0007423078135
0.0006711915277
0.000746372763
0.0005096979194
0.0006521091663
0.0007429171272
0.0006649688652
0.0006140542893
0.001049940853
0.0007036170427
0.0005637724558
0.0006994370744
0.0005965729593
0.0005707524092
0.001039585879
0.0009752225296
0.000544113611
0.0006897391158
0.0008576336533
0.0005359989418
0.0005016996882
0.0006457469075
0.0007187408384
0.0006401220959
0.0006767958989
0.0008648964426
0.0005834250313
0.0005333595811
0.001140543855
0.0007752865043
0.0005080285274
)


// ************************************************************************* //
