/*--------------------------------*- C++ -*----------------------------------*\
  =========                 |
  \\      /  F ield         | OpenFOAM: The Open Source CFD Toolbox
   \\    /   O peration     | Website:  https://openfoam.org
    \\  /    A nd           | Version:  8
     \\/     M anipulation  |
\*---------------------------------------------------------------------------*/
FoamFile
{
    version     2.0;
    format      ascii;
    class       scalarField;
    location    "1/lagrangian/reactingCloud1";
    object      nParticle;
}
// * * * * * * * * * * * * * * * * * * * * * * * * * * * * * * * * * * * * * //


177
(
115.8364797
102.753355
100.0055175
100.0736749
100.021273
100.0694608
100.0911398
100.345218
103.059362
100.0582083
100.0735752
131.1021637
232.120211
102.0511334
100.403835
100.2162015
259.7767689
103.4810606
100.4223941
100.4273127
100.0297558
154.7167962
119.5996165
157.702909
100.1983987
743.9765496
123.668079
100.0027489
101.267146
169.5722441
100.6126286
100.0801962
100.5616558
100.191777
122.8671915
114.4053345
104.9348723
100.0551142
101.1298641
1851.204643
100.2495883
614.9890996
2381.372201
185686.9574
1833.401164
100.1391497
2396.708825
100.4550616
100.4027445
100.3103029
100.6425091
1020.366467
100.3937033
102.1837197
100.1968763
102.122665
5831.236801
100.2867782
101.6787144
110.7595895
367.4914415
3999.353739
100.1623068
4262.969919
4592.391766
100.1488313
100.4262484
100.2846479
2133.836715
216.875387
545.3661535
100.0521319
585.9270881
100.0707027
195.4593138
1360.464279
100.8522693
4219.956643
100.6913643
106.8329889
100.845831
101.9157103
100.775366
3160.241807
102.0493484
572.7372169
102.7889815
100.1897714
101.0138341
4906.915171
100.8186278
100.846761
100.4812431
100.8543438
104.3072861
1036.796167
100.1132602
3999.116216
100.7488405
102.0441648
100.0704586
103.598248
101.0839993
507.2160193
164.5246344
100.4724626
107.4405612
100.7887947
100.0205355
317.7690754
100.1438779
1914.881005
100.4357211
100.7225976
100.1982205
100.0081073
3457.966983
101.2961168
2894.360817
101.4643524
100.1710452
169.1071617
3579.392721
188.0088599
101.1311863
100.102644
100.0355013
260.319064
100.2194167
100.1582742
3006.647356
101.8263392
105.2207651
101.0479346
100.0332706
223.2977315
100.1798023
104.3655791
100.6953986
3319.6165
100.2685024
100.3366571
329.4704198
1194.708787
100.6925192
104.6242148
100.0848713
102.9323339
100.0164306
100.7481974
103.3568133
100.3945221
100.4766179
100.3808581
100.2641174
100.1088233
178.62443
100.0743233
104.023262
101.0918034
129.5887399
101.4435356
5798.228333
2949.754883
141.3307581
106.1985778
7396.607787
100.5917323
2612.387122
105.3526953
841.8619072
128.4488726
100.2431801
101.4593147
100.0078247
102.1203542
7077.184056
)


// ************************************************************************* //
