/*--------------------------------*- C++ -*----------------------------------*\
  =========                 |
  \\      /  F ield         | OpenFOAM: The Open Source CFD Toolbox
   \\    /   O peration     | Website:  https://openfoam.org
    \\  /    A nd           | Version:  8
     \\/     M anipulation  |
\*---------------------------------------------------------------------------*/
FoamFile
{
    version     2.0;
    format      ascii;
    class       labelField;
    location    "1/lagrangian/reactingCloud1";
    object      origId;
}
// * * * * * * * * * * * * * * * * * * * * * * * * * * * * * * * * * * * * * //


177
(
254
255
256
257
258
259
260
261
262
174
263
264
265
266
267
268
269
270
271
272
273
582
579
274
275
276
277
278
563
567
279
175
565
283
284
285
286
287
288
418
591
419
289
290
422
292
424
294
587
164
177
430
295
180
179
181
434
296
182
197
196
438
232
441
443
584
184
183
298
623
209
562
447
212
586
453
221
454
219
483
225
186
185
460
301
461
302
303
188
439
304
187
305
306
307
469
308
467
309
310
172
311
173
213
312
313
314
315
244
241
566
316
317
222
318
250
472
266
482
319
320
581
455
321
189
583
243
590
272
281
498
285
287
270
732
322
269
283
190
502
288
280
599
564
191
284
292
289
621
192
193
290
291
252
585
194
592
277
195
286
568
293
505
511
605
294
507
295
506
297
589
606
339
307
280
298
518
)


// ************************************************************************* //
