/*--------------------------------*- C++ -*----------------------------------*\
  =========                 |
  \\      /  F ield         | OpenFOAM: The Open Source CFD Toolbox
   \\    /   O peration     | Website:  https://openfoam.org
    \\  /    A nd           | Version:  8
     \\/     M anipulation  |
\*---------------------------------------------------------------------------*/
FoamFile
{
    version     2.0;
    format      ascii;
    class       Cloud<basicReactingMultiphaseParcel>;
    location    "1/lagrangian/reactingCloud1";
    object      positions;
}
// * * * * * * * * * * * * * * * * * * * * * * * * * * * * * * * * * * * * * //

177
(
(0.1642310444 0.6525296385 0.1396989764 0.04354034073) 167 493 2
(0.1506423533 0.4929407628 0.2048214007 0.1515954831) 2131 3375 1
(0.3457273764 0.3047990548 0.218532937 0.1309406319) 248 734 1
(0.197914979 0.2112789427 0.07427114277 0.5165349355) 1134 3335 2
(0.2510719115 0.2751029436 0.3921488358 0.08167630913) 316 202595 1
(0.04297286303 0.464854661 0.2407557719 0.2514167041) 2134 6171 1
(0.3051850393 0.01097231796 0.4059328612 0.2779097815) 3037 8824 1
(0.01631998979 0.03301170878 0.1330776117 0.8175906897) 2099 6165 1
(0.184596669 0.6225911607 0.06225267247 0.1305594979) 1261 3713 2
(0.6949039265 0.03712100516 0.1077586329 0.1602164354) 184 548 2
(0.3171733296 0.06062624707 0.3495604746 0.2726399487) 3262 6711 2
(0.1043818757 0.09432006701 0.6198050614 0.1814929959) 4062 11915 1
(0.1926443377 0.05646176857 0.435279355 0.3156145387) 5081 14902 1
(0.312497842 0.154453782 0.4570800766 0.07596829937) 4140 12150 2
(0.2140827504 0.4155558132 0.2740926926 0.09626874384) 6007 17618 1
(0.2814484673 0.2507517395 0.3075463766 0.1602534166) 4961 11698 1
(0.09505935861 0.6131768478 0.04391115942 0.2478526342) 5080 14904 2
(0.04111451615 0.147370113 0.5049193455 0.3065960253) 6000 17597 1
(0.02759912867 0.4695083096 0.2593014423 0.2435911194) 5997 17588 1
(0.225306576 0.2141059537 0.3450250768 0.2155623935) 5932 17399 2
(0.3713191329 0.3397793933 0.01683844919 0.2720630246) 6178 15292 2
(0.3373150617 0.1056409571 0.1615107888 0.3955331925) 4269 12531 2
(0.315609574 0.1503264442 0.06432461876 0.469739363) 4240 12442 2
(0.01927217059 0.3869885164 0.5178116003 0.07592771269) 8906 26123 1
(0.1649668963 0.3489495329 0.03234238897 0.4537411818) 8099 23667 2
(0.2391992058 0.5399419373 0.1459281663 0.07493069056) 9017 26359 1
(0.317384756 0.1133826443 0.3702291595 0.1990034401) 9088 23846 2
(0.1975408478 0.150735782 0.4518393121 0.1998840581) 9952 29184 1
(0.2306975291 0.3485403052 0.3478849048 0.07287726091) 3129 9184 1
(0.7050163066 0.03932500587 0.2304343147 0.02522437287) 3128 9181 2
(0.08036450783 0.6058883784 0.03634791753 0.2773991962) 12628 36991 1
(0.2300538007 0.07371557718 0.6744575097 0.02177311236) 2022 3052 1
(0.1131712307 0.2594915103 0.5055249114 0.1218123476) 4111 9195 2
(0.1927588824 0.6360404644 0.1618236165 0.009377036683) 13588 39799 2
(0.5187849568 0.06175107502 0.1139110268 0.3055529414) 13605 39767 1
(0.5910125759 0.01242569505 0.3955829752 0.0009787538438) 14515 42437 2
(0.4313879082 0.147140906 0.322392636 0.09907854982) 13583 39789 2
(0.00248459216 0.09172796116 0.3958180869 0.5099693598) 14421 42238 2
(0.1009028419 0.3343204603 0.06340323137 0.5013734664) 14511 42425 2
(0.005069544929 0.2214362997 0.4913234825 0.2821706729) 2278 6691 1
(0.3155539104 0.1572556122 0.4574901478 0.06970032963) 7107 20847 1
(0.4014614235 0.06831797048 0.4947411048 0.03547950124) 6066 17792 1
(0.4098485052 0.5334152219 0.008244404782 0.04849186814) 2471 7268 1
(0.03205123978 0.2147870161 0.4030959105 0.3500658337) 6101 17896 2
(0.1240737776 0.5499906817 0.3011150245 0.02482051612) 6341 18607 1
(0.03840969158 0.01822213603 0.3811177687 0.5622504037) 16235 47557 2
(0.06991709231 0.173905638 0.4968986032 0.2592786665) 7231 18397 1
(0.1606579541 0.4964064955 0.2470968955 0.09583865493) 17170 50212 1
(0.1113587697 0.1759741521 0.5788177067 0.1338493716) 6143 15188 2
(0.2731436913 0.184431959 0.5333790062 0.009045343496) 1162 3418 1
(0.1274543102 0.4976236217 0.09733990973 0.2775821584) 2023 5944 2
(0.5168141375 0.2121449322 0.2107738458 0.06026708447) 13895 40709 2
(0.2483680954 0.2530001986 0.09854933153 0.4000823745) 18056 52896 1
(0.4396011918 0.293820877 0.03460265092 0.2319752803) 3988 11696 2
(0.5639045303 0.2081670724 0.119064188 0.1088642093) 3007 8823 2
(0.4593946443 0.1028567093 0.2230584696 0.2146901768) 3988 11696 2
(0.09021490069 0.1722627391 0.486809065 0.2507132952) 12959 37978 1
(0.6485904517 0.1364880759 0.1705799415 0.04434153089) 18971 55579 1
(0.5502031507 0.07901488591 0.2416773107 0.1291046527) 3988 11696 2
(0.4849498036 0.1605267168 0.2044081571 0.1501153225) 8846 25945 1
(0.5022569625 0.3142797821 0.1618384612 0.0216247942) 8843 25931 2
(0.0333295846 0.008944451673 0.05674753227 0.9009784315) 19253 56415 1
(0.384234121 0.08757539598 0.009489072644 0.5187014104) 18084 52979 1
(0.1068453262 0.280676557 0.5842837139 0.02819440284) 16530 203840 2
(0.2572546836 0.2423832382 0.02449560023 0.475866478) 17340 50801 2
(0.02050042923 0.1263630755 0.2240536271 0.6290828682) 7046 20662 1
(0.08003486592 0.5668247887 0.1100576548 0.2430826906) 4962 14557 2
(0.3207725545 0.5381455975 0.09164898419 0.04943286381) 3988 11701 2
(0.4230038191 0.01687620597 0.3201189918 0.2400009831) 21894 64704 2
(0.1708328338 0.1046708214 0.04483171995 0.6796646249) 11857 31989 1
(0.2605616075 0.5901298454 0.1335972987 0.01571124849) 14452 42330 2
(0.1404841501 0.04745107193 0.5129616335 0.2991031444) 217 642 1
(0.3026170739 0.2918132003 0.01531559317 0.3902541326) 18260 53411 2
(0.1320964441 0.4486489563 0.3697850355 0.04946956416) 14453 42337 1
(0.3879536251 0.02693870357 0.4466185801 0.1384890912) 5213 15298 2
(0.01463984179 0.4573150276 0.4217570434 0.1062880872) 24787 74697 1
(0.5603021533 0.01313099626 0.3692883587 0.05727849171) 16290 47719 1
(0.1259950693 0.00566103604 0.6114377099 0.2569061848) 23838 71432 1
(0.4429459667 0.01352832386 0.335426678 0.2080990314) 15387 45068 2
(0.1821191499 0.2019608642 0.4388384856 0.1770815003) 186 554 2
(0.527704473 0.1956265046 0.08805606366 0.1886129587) 17197 50378 1
(0.1536148951 0.2195845457 0.3760748864 0.2507256727) 5933 17397 2
(0.274631781 0.6039868968 0.04445636792 0.07692495429) 4962 14557 2
(0.05834263978 0.1441967215 0.0202120945 0.7772485442) 60800 181728 1
(0.6731868511 0.2438848858 0.01961992264 0.0633083405) 57180 172856 2
(0.01691414606 0.054502237 0.6998004807 0.2287831362) 29128 89131 1
(0.1340449778 0.6058917033 0.07911370272 0.1809496162) 57968 174802 1
(0.5216289318 0.2717576646 0.1072917643 0.09932163931) 57087 172620 2
(0.002091822724 0.622738907 0.2910197748 0.08414949544) 6898 20227 2
(0.1113811796 0.2247530526 0.1916821449 0.4721836229) 18100 50343 2
(0.1544270141 0.3986107891 0.2976980041 0.1492641927) 57968 207767 2
(0.1954741345 0.2542537608 0.4299333719 0.1203387328) 5933 17397 2
(0.02871769396 0.3765422794 0.4027943444 0.1919456822) 57970 174810 1
(0.3319811199 0.5214526007 0.06209290957 0.08447336979) 57968 174812 2
(0.0294614344 0.4101763712 0.3106772645 0.2496849299) 58847 174818 2
(0.5149980635 0.2941314561 0.1550963053 0.03577417512) 63367 186207 2
(0.228631305 0.5877927115 0.09517379371 0.0884021898) 58847 176999 1
(0.07539512694 0.4837467412 0.4120414705 0.02881666131) 61879 182843 1
(0.2060384606 0.2881981536 0.2992500282 0.2065133576) 58845 176993 1
(0.4511002557 0.3304575366 0.1682628968 0.05017931099) 58936 176999 2
(0.0804829838 0.05056211755 0.8562676155 0.0126872831) 2048 5922 2
(0.1972841669 0.2278776865 0.1272893635 0.4475487831) 58235 175488 2
(0.1917570951 0.2991006162 0.2992562282 0.2098860605) 2016 5921 1
(0.3334885302 0.03963897999 0.4604986998 0.16637379) 14421 42238 1
(0.09238124765 0.3955185664 0.4544686677 0.05763151826) 58243 175506 2
(0.2219226345 0.314126313 0.3050149867 0.1589360658) 59120 175511 2
(0.06846178404 0.3719953143 0.1989407571 0.3606021445) 59120 177628 2
(0.426915428 0.1527671515 0.2342153728 0.1861020477) 59126 177628 2
(0.5096334578 0.01481970654 0.1101977154 0.3653491203) 20830 61089 1
(0.3496227037 0.4729505383 0.0170363255 0.1603904326) 20830 58342 1
(0.2353167524 0.3911959159 0.2076156032 0.1658717285) 3006 8820 1
(0.2581954959 0.03758970712 0.6238829026 0.08033189439) 25525 77027 2
(0.02026046816 0.6800995555 0.2265463891 0.07309358724) 58936 177204 1
(0.4001249119 0.08682240008 0.4281139145 0.08493877357) 16231 47540 1
(0.2328765145 0.1790841031 0.1412334201 0.4468059623) 25470 76789 2
(0.5126937409 0.2040520373 0.1933856689 0.08986855291) 20830 61099 1
(0.7110685014 0.09357453978 0.05481233635 0.1405446224) 63207 187626 1
(0.1391783864 0.08907128905 0.4831833531 0.2885669714) 22671 67176 2
(0.1548626935 0.1369013174 0.4673342858 0.2409017033) 66113 194617 1
(0.2202179542 0.0992344706 0.5805921986 0.09995537652) 58942 177212 1
(0.1244000349 0.2119533705 0.03423176397 0.6294148307) 59045 177455 2
(0.07561403494 0.06263161964 0.5381588487 0.3235954967) 6085 15014 1
(0.5025493244 0.03451269749 0.01785511067 0.4450828674) 27292 82970 2
(0.01374568906 0.1962064307 0.1929773405 0.5970705398) 26450 80193 2
(0.07447535856 0.8424414104 0.002401379761 0.0806818513) 6899 20227 2
(0.142183671 0.4077698821 0.2348316841 0.2152147628) 7830 22961 2
(0.3520175271 0.3961999089 0.09866999132 0.1531125727) 20801 60964 1
(0.1794365998 0.06309436636 0.4459562122 0.3115128216) 6148 18036 1
(0.3471842708 0.1326264036 0.02003607125 0.5001532543) 56324 67199 1
(0.6698023355 0.1255809506 0.1236302318 0.0809864821) 57195 70354 2
(0.2276490767 0.275560652 0.1702356436 0.3265546277) 37428 114227 2
(0.3095901805 0.4081086731 0.1581500531 0.1241510934) 57106 172667 2
(0.03540293769 0.4931455382 0.3643454947 0.1071060295) 57106 172667 2
(0.2389938127 0.01044819465 0.5827665638 0.1677914288) 56318 170703 1
(0.4764048885 0.1129933909 0.2594526563 0.1511490643) 58487 176130 1
(0.08004684078 0.07736571249 0.1377071453 0.7048803014) 26449 80187 2
(0.2991736664 0.4412410465 0.2457990842 0.01378620296) 22673 67191 1
(0.6477927867 0.09052572962 0.2100242437 0.05165724) 57106 172667 1
(0.0260847068 0.4217974386 0.04207559704 0.5100422576) 6898 20227 2
(0.1699882399 0.02537886966 0.5838508762 0.2207820142) 38344 119626 2
(0.4518549932 0.2060882662 0.250016571 0.09204016953) 57110 172667 1
(0.2750176074 0.234070711 0.3914319618 0.09947971976) 23596 70349 1
(0.5403897875 0.1057861769 0.3342437409 0.01958029465) 9838 28850 1
(0.0007432550403 0.3218172214 0.03351058637 0.6439289372) 1237 3642 1
(0.1270730554 0.01804254097 0.03884935192 0.8160350517) 6869 20143 1
(0.09410370649 0.0178520035 0.1884377647 0.6996065254) 23596 70347 1
(0.1371638121 0.5932758973 0.2214398592 0.04812043145) 57987 174861 1
(0.4364409775 0.2329008366 0.2917540427 0.03890414318) 57110 172672 1
(0.1550215533 0.5751053412 0.2667653168 0.003107788802) 11860 31997 2
(0.136323055 0.03048437406 0.06663675963 0.7665558113) 7830 22961 1
(0.2789478514 0.0914944041 0.6092000197 0.02035772486) 7830 22960 2
(0.2519404658 0.2563626019 0.1785252751 0.3131716573) 57109 172676 1
(0.09451455152 0.3693366369 0.2411980597 0.2949507519) 57110 172672 1
(0.2346855715 0.353167634 0.1167299743 0.2954168201) 20801 60973 1
(0.05455284801 0.3237578284 0.04057492224 0.5811144014) 5216 203399 1
(0.1961632411 0.07103023977 0.5121562659 0.2206502533) 8790 22962 1
(0.3971303653 0.08237165122 0.4432191329 0.07727885063) 8790 25774 1
(0.06356804348 0.3381274146 0.375183751 0.223120791) 57106 170488 1
(0.4486685552 0.08257641941 0.3554787836 0.1132762418) 8790 25777 2
(0.2537908599 0.2389994668 0.09189915481 0.4153105185) 57106 172667 1
(0.1587630081 0.3793916532 0.1141853908 0.3476599479) 3989 8831 2
(0.6034445333 0.07717110753 0.3186279587 0.0007564003914) 57985 172674 1
(0.4397292592 0.2632787626 0.2292906977 0.06770128048) 39233 122177 2
(0.3211249818 0.07282631997 0.3057398655 0.3003088327) 41979 130264 1
(0.3909144447 0.2898934032 0.2196362448 0.09955590726) 9809 203571 1
(0.7641064148 0.0999362538 0.01920330202 0.1167540294) 57985 73387 1
(0.3900792108 0.4054072785 0.09018420919 0.1143293015) 40149 124914 1
(0.5866465417 0.06190610456 0.2012517404 0.1501956134) 57985 207774 1
(0.1258244665 0.2847440021 0.13988375 0.4495477814) 41044 124851 1
(0.3599308212 0.01402900693 0.3357209744 0.2903191974) 57985 207774 1
(0.04748680509 0.01547968916 0.1287873808 0.808246125) 7050 17855 1
(0.1552316991 0.2844004623 0.1088352719 0.4515325667) 9780 203570 1
(0.2215806926 0.0153786364 0.2262053617 0.5368353094) 58870 177048 1
(0.1208269197 0.4414129533 0.1515336787 0.2862264482) 57988 207775 2
(0.1122143603 0.09650259049 0.02876013661 0.7625229126) 11651 34132 1
(0.05317935329 0.009158665164 0.5532114256 0.384450556) 57989 207776 2
(0.08766836027 0.1738470349 0.5448465639 0.1936380409) 43767 207126 1
)


// ************************************************************************* //
