/*--------------------------------*- C++ -*----------------------------------*\
  =========                 |
  \\      /  F ield         | OpenFOAM: The Open Source CFD Toolbox
   \\    /   O peration     | Website:  https://openfoam.org
    \\  /    A nd           | Version:  8
     \\/     M anipulation  |
\*---------------------------------------------------------------------------*/
FoamFile
{
    version     2.0;
    format      ascii;
    class       volScalarField;
    location    "0.8/wallFilmRegion";
    object      alpha;
}
// * * * * * * * * * * * * * * * * * * * * * * * * * * * * * * * * * * * * * //

dimensions      [0 0 0 0 0 0 0];

internalField   nonuniform List<scalar> 
1369
(
2.758761811
0.02337069785
0.0226277362
0.0165333689
0.03259661128
0.09006781215
0.2618453249
3.109829655
0.02732112471
0.0303826864
0.01997486665
0.03999176898
0.1021846132
0.2762241936
0.520247205
0.4801477221
0.2150043706
0.1357290338
3.41249268
0.04093558139
0.04585785179
0.03129743566
0.05992523513
0.1265913348
0.2731388607
0.4379525618
0.3885699914
0.1923838919
0.1145583656
0.07896090778
0.05484013167
3.615380627
0.05532932298
0.07052169461
0.05304777057
0.08788240319
0.1478172884
0.238997165
0.2968996014
0.2417714681
0.1425282132
0.08788016474
0.05859887099
0.03829633433
0.02098223668
0.03662362847
0.1038625666
0.2005453235
3.67435867
0.06101788987
0.1080444065
0.07952148987
0.1042103164
0.1352655112
0.1667563076
0.1683067918
0.1341536912
0.09162418944
0.06086346805
0.04095782845
0.02721233153
0.01685302218
0.0546073401
0.1667506749
0.2509651041
0.1577998711
0.1001497724
3.596212286
0.06177937835
0.161747854
0.0981807014
0.09117982281
0.0849936927
0.08468300803
0.07944322711
0.0676453007
0.05130639829
0.03487039373
0.0228597831
0.01853135576
0.02569260989
0.1118923222
0.2672825003
0.2520758594
0.07946874605
0.04851857166
0.0309288756
0.01670368959
0.008594577643
0.0388069304
3.582449817
0.1570065852
0.1712810274
0.1086000978
0.06289603212
0.03242500346
0.01847063539
0.01585431757
0.02244790277
0.03036165317
0.0371741409
0.04060461859
0.04812572566
0.08722229844
0.2036756888
0.2495197296
0.1573506029
0.0007219906446
0.004423490676
0.0008809215993
0.0004206741661
0.001025527895
0.03199425136
0.3505724673
0.49739877
3.830795449
0.3775623734
0.2108162065
0.1027239464
0.05000843373
0.02535885807
0.01551023869
0.01456190346
0.02107230292
0.03392112462
0.05441091949
0.07132332346
0.08820594109
0.1309079429
0.1985116731
0.1958937359
0.1300975712
0.0008074240531
0.009137597521
0.001878954538
0.0007708897824
0.0009622987163
0.4155592139
0.7365237693
0.4222996261
0.1809285275
2.980963781
0.2187530865
0.1175597473
0.062090053
0.03562526784
0.02169373614
0.01523843792
0.0163644152
0.02328445585
0.03428707901
0.06589922839
0.1144034169
0.1662515547
0.216975256
0.2314390025
0.1517065047
0.1156702479
0.0009935656285
0.02334441951
0.08645595428
0.003262760186
0.001763922526
0.7678705201
0.2096461886
0.06706856295
0.07206157266
2.165652365
0.07940180452
0.05228288301
0.03901169869
0.02843915414
0.01915205834
0.01373749439
0.01890986487
0.04924863953
0.08304435475
0.1448824115
0.2714758599
0.4305069502
0.5029903643
0.3393506601
0.1493453732
0.1139303175
0.02630790124
0.09211478525
0.2134126669
0.002779365795
0.001365925389
0.9748540839
0.733652491
0.0423892025
0.03630377213
0.1019802004
2.014324335
0.05613194189
0.04008122487
0.03279099978
0.02546136833
0.01763785759
0.01124968801
0.01044528053
0.04417108142
0.1388434086
0.2645814167
0.3934890215
0.470477388
0.4074142412
0.3195499838
0.1234102515
0.09121001263
0.00858851712
0.007849894995
0.0008764191069
2.663822131e-06
1.088769448e-06
5.183354638e-05
0.1821711581
0.01110607443
0.03940967288
0.1078569217
1.927203876
0.03741714506
0.0267276906
0.0233848771
0.02159381311
0.02219219638
0.02653981882
0.03493313629
0.04302047899
0.2323493358
0.1756681444
0.1701427129
0.1980540499
0.2187856087
0.2539808523
0.2320248323
0.0854848364
0.005397933929
0.009386358111
0.002546708575
2.775538238e-05
4.432147066e-06
1.07678334e-05
0.1774259597
0.01250147808
0.03820053223
0.6779337583
1.905716518
0.06376628822
0.05576339251
0.0586886199
0.07500084796
0.09923059496
0.1183646144
0.1099698553
0.1027250203
0.1089904209
0.1028621357
0.1116144189
0.1255171469
0.1402183986
0.1472199988
1.290331594
0.3469165297
0.006967437241
0.04118975668
0.01916587491
0.0006900208012
4.128772471e-05
1.838003321e-05
0.415730126
0.03608725819
0.03903760112
0.1116331539
0.9746469902
2.3916076
0.1623928188
0.1489422146
0.1425549694
0.1516487646
0.1616909
0.1540094565
0.1369224797
0.1317908519
0.1246188727
0.1180155602
0.1139590277
0.1121495137
0.1057928803
0.08139779792
0.2106695375
0.4547732107
0.4431029462
0.294172974
0.1445180158
0.0254963603
0.001126943359
6.043085645e-05
0.7717411873
0.05020511706
0.03639909263
0.007569676882
0.001358918303
0.0002224854009
2.795307533
0.2380812393
0.2397788593
0.2081522246
0.1621393041
0.09481572225
0.03701843807
0.02470252333
0.03153724894
0.04575449835
0.07490840136
0.1175574599
0.155766988
0.177014499
0.1764466198
0.135409302
0.1405138013
0.05865020534
0.1254661869
0.07390836214
0.001604310439
7.470187905e-05
0.0001369797102
0.1685211983
0.01956961132
0.05075526952
0.002353581526
0.0002397405269
1.01619879e-05
3.123220207
0.2101939104
0.2500238575
0.2221617168
0.16550941
0.09149335233
0.05045546847
0.05225540597
0.06762908065
0.09067116555
0.1274130358
0.1851745844
0.2504728658
0.2896357522
0.2562171557
0.1532551489
0.3597572197
0.1385067933
0.4593120217
0.2594251025
0.001557108223
0.0008985941731
0.001619596798
0.09267239579
0.02492256443
0.177861798
0.01149641133
0.01186242046
0.01417528169
3.303748412
0.1090110503
0.1427620765
0.1273958099
0.1115834329
0.09722298951
0.09852642343
0.1043011681
0.1116835944
0.1171422066
0.1277431663
0.158919907
0.2153925182
0.2614527234
0.2129993291
0.03025651049
0.1755889451
0.3231073777
0.4945037556
0.5308777293
0.3319448302
0.1362337911
0.09696436456
0.09089387336
0.03099629217
0.367634209
0.008028911034
0.007274442344
0.004103816397
0.004874745292
0.02985644162
0.0001093463827
0.0009624723701
0.02283352133
3.667930517
0.0734092112
0.1319089486
0.03790273096
0.0320373099
0.02300501222
0.01768452311
0.01766972949
0.02504346277
0.0458235283
0.0753606731
0.100293186
0.1288207204
0.1536049174
0.1283408304
0.0414214099
0.05184587452
0.06628608244
0.05737547285
0.03383885936
0.009188934733
0.001637809183
0.001509376561
0.00561563572
0.006911261667
0.2625488137
0.0395917086
0.05058850521
0.04043050251
0.05207704613
0.01368123159
0.02359369628
0.04958459203
0.008330013512
4.105905364
0.08315277008
0.1079227805
0.0234425463
0.0218418358
0.01836455793
0.01483981101
0.01215867189
0.01233754296
0.02117575941
0.04486688032
0.07231601252
0.09009091998
0.09753752066
0.08036435267
0.03730064716
0.02434169561
0.04321527174
0.05539324846
0.03874355406
0.001348327352
0.0003866621166
0.0002031486361
0.0001521020102
0.001255518053
0.0783447944
0.08553246513
0.3433560649
0.09459926324
0.2098740041
0.005425010244
0.02857530775
0.118898693
0.01239000274
4.036366567
0.06406053505
0.08043658427
0.02045729971
0.01927192671
0.01657664422
0.01335499927
0.01046299338
0.00942051513
0.01388644531
0.0323889006
0.06821675465
0.09816042594
0.1004960242
0.07504136378
0.0402019177
0.02343517668
0.03752627787
0.04544456009
0.03595661386
0.009021720317
0.007709896055
0.005618556525
0.004215448882
0.001299699727
0.02023728937
0.2283746156
0.2156128946
0.03567439966
0.04242301587
0.01014360054
0.0233905161
0.1320284747
2.836042929
0.04367518484
0.0429693194
0.01944060164
0.01826556
0.01616496007
0.01387758998
0.01232421189
0.01300365087
0.01952969456
0.0440223479
0.1153441993
0.2195676091
0.2151490606
0.1204238199
0.04979100095
0.02102714299
0.02926455307
0.03232361115
0.03155944733
0.05647543981
0.1784816774
0.1228371539
0.02889811473
0.0009800154379
0.008911315268
0.4151840646
0.07910196535
0.03631436644
0.03388279912
0.04957233006
0.02937884992
1.719513877
0.03264067327
0.02730730273
0.01857774432
0.01796729098
0.01738227904
0.01772343257
0.02112306831
0.0334709422
0.07471308391
0.2140756593
0.494743527
0.6523916811
0.5656275035
0.2609899795
0.07261391662
0.01551841464
0.02364643721
0.01956629159
0.01166688584
0.05692408903
0.5065361232
0.5466759885
0.04300029191
0.002069689694
0.01349133783
0.6130809996
0.1635768826
0.02430342208
0.04564138506
0.07563116272
0.01399939875
1.55091849
0.07680681118
0.06355569033
0.05118041448
0.04525256837
0.04070479552
0.04077778275
0.0534080087
0.1015384401
0.2354279234
0.4090612577
0.3974587579
0.3063683372
0.2321769422
0.2281232454
0.09748139793
0.01467629679
0.02097755021
0.0127553292
0.00429893815
0.008251542767
0.2617012132
0.5267201559
0.05233656027
0.002721521183
0.0542333392
1.003378674
0.1257445306
0.05590798106
0.02890651822
0.01907002937
0.0047472271
2.077936751
0.4706639305
0.5098402284
0.459796708
0.384709251
0.2902094715
0.1958900891
0.140687833
0.1445604217
0.1843779548
0.1624413902
0.1191622247
0.09012156395
0.04208217255
0.04467314562
0.06916263819
0.01968076369
0.01765498882
0.008204365546
0.001952417833
0.0007993001206
0.1610754724
0.7344556167
0.03830879749
0.006174643012
0.1091288513
0.5212555658
0.2302256601
0.4995908352
0.1512999479
0.05416579622
0.9764007185
0.03912230394
0.0477855686
0.05066200029
0.06433939746
0.09548359995
0.1516326877
0.1989169197
0.1879454824
0.1063872892
0.05004359723
0.05246505011
0.07380090883
0.02732149694
0.01527309836
0.03368854276
0.02363152269
0.01178167654
0.0046410687
0.001182139983
0.0003811339871
0.08880503278
1.079577085
0.1875563212
0.02590791048
0.1268166275
0.3629879316
0.5303853005
0.7588089204
0.5053860861
0.3010477986
0.7894066843
0.007090903688
0.01069108635
0.01502309526
0.02529511074
0.04369103469
0.06766302213
0.08440404392
0.07543894874
0.04286575367
0.0129462697
0.005190249584
0.09688746355
0.04197458651
0.01654192382
0.02512691138
0.01320224354
0.005265148387
0.002130263682
0.000710311554
0.001658393298
0.07592117182
0.9011137189
1.164170317
0.588667904
0.2137642413
0.2289847441
0.4586977081
0.6285881619
0.7964502261
0.2345420567
0.9873950254
0.01202927157
0.01805010147
0.02548357439
0.03851343296
0.05225576538
0.05360530476
0.03664432289
0.01651016775
0.006318112744
0.006962825449
0.009907407767
0.09292989974
0.07062730505
0.008250543524
0.005841073558
0.002885993008
0.001341918134
0.0006878123923
0.0003761265041
0.003006995051
0.1744388488
0.5059543017
0.3922151632
0.3618985407
0.1309774939
0.09995359746
0.3704793999
0.453758699
0.1933135352
0.009185150206
1.452419687
0.03458766908
0.05102063292
0.06142725865
0.06967476549
0.06289106051
0.04012622014
0.01820236805
0.007140834127
0.003347629585
0.009222076716
0.1433458253
0.04795221397
0.01150943662
0.004565033581
0.002739399266
0.001151807865
0.0005180146035
0.000245797165
7.993519589e-05
0.0006548392072
0.001403164322
0.2807870848
0.1106210294
0.1238232203
0.2050688693
0.2623749791
0.2660546918
0.4967731493
0.3070316226
0.0249458988
2.305562687
0.06507713562
0.09012152666
0.09951116616
0.1003285704
0.0738220838
0.04035739214
0.02250768097
0.02395779543
0.04574048399
0.08200851968
0.1127054713
0.03181742347
0.01090082172
0.006644283141
0.004562846101
0.002740058021
0.001589539458
0.0009696272217
0.0009237429731
0.003266632283
0.07855939704
0.1257060813
0.1754224165
0.3582326235
0.3617737229
0.2339798052
0.1835325162
0.6353403568
0.3930771788
0.1177782587
3.05009671
0.1312831875
0.1688665991
0.1688669078
0.1403824377
0.08028156978
0.0415898729
0.03215229872
0.04206949474
0.06171993858
0.0730676565
0.06129218156
0.02954798611
0.01645905467
0.01174964459
0.008233929746
0.005156748691
0.002936639021
0.001503028058
0.0007365541178
0.003363820062
0.127915107
0.07625179896
0.3091174067
0.542211866
0.2272162877
0.2903378229
0.5061713586
0.7931277669
0.8454664498
0.8683375524
3.377700344
0.1478901065
0.1334944008
0.08161147653
0.04276242902
0.02398719129
0.0217627694
0.03171403383
0.04751692769
0.06164038535
0.06386642135
0.05165249889
0.03526700472
0.026006619
0.02018774618
0.01429971735
0.008872749191
0.004815093683
0.002263873089
0.0009843552993
0.003144127966
0.1313940969
0.09264273801
0.5060539763
1.10184454
0.7457091237
0.9166415579
0.8229887269
1.118316237
1.325512278
1.084493927
3.39325417
0.1120062475
0.07098026427
0.03101580387
0.01340999727
0.008286760161
0.01100080144
0.0203074871
0.03647891076
0.05163011093
0.05707301761
0.05339748408
0.04763003216
0.04276414712
0.03445022627
0.02440658376
0.01475004177
0.007703224717
0.003352531701
0.00116178225
0.004165691358
0.1069817222
0.1049858289
0.1324738764
0.03478582352
0.5301603078
2.302518766
1.126949525
0.7860791077
0.757284942
0.6690130603
3.350110966
0.08423215646
0.046098643
0.01984479727
0.00951133012
0.00605023185
0.006651715904
0.01012007661
0.01746838057
0.02867806598
0.04010016906
0.04648780477
0.05333634789
0.06697167471
0.07540349989
0.0489041169
0.02421438027
0.01250101546
0.005054369827
0.001435094267
0.007550134228
0.06792599026
0.07384072411
0.03479871949
0.004208943118
0.01021937624
0.08750890357
1.13733508
0.9364789336
0.4254378903
0.3324887831
3.363683461
0.07136042914
0.03641918413
0.01599059777
0.008292325358
0.005180741091
0.004713239054
0.005660170369
0.007676636668
0.01080399138
0.01776001364
0.03126929695
0.04313945775
0.06603236946
0.1491926476
0.1447653841
0.04573340178
0.02008573024
0.007763293726
0.001957568895
0.01347135943
0.040999317
0.04421792972
0.0212654812
0.003227428437
0.004049792158
0.003698985484
0.02839755086
0.2482360005
0.4080661623
0.1245313463
3.432010147
0.07172696639
0.03613294021
0.01667210318
0.009129498211
0.005473912401
0.004108286972
0.003893410266
0.004183457428
0.004510778538
0.007148940293
0.01839103237
0.03185455021
0.058271118
0.2217757406
0.2968797992
0.07234458323
0.02967740131
0.01248271852
0.003755312996
0.02074926982
0.04066060638
0.07694049885
0.116203372
0.1326500014
0.1338510488
0.1232746101
0.1115256457
0.1220267154
0.1329087857
0.01078275669
3.506079822
0.08587934691
0.04544926109
0.02256791654
0.01291336857
0.007473393149
0.004776772408
0.003598991763
0.003135649067
0.002917098079
0.00448886593
0.01373098246
0.02681223342
0.06929045884
0.289681441
0.2321349076
0.08189632983
0.04249658753
0.02357951542
0.01528143656
0.02900856409
0.03763562108
0.06300093545
0.1110211605
0.1729497243
0.249480751
0.3258618912
0.3970490581
0.3368323037
0.1137770502
0.005702558095
3.5334213
0.1150148859
0.06865934249
0.0371249674
0.02230078093
0.01276667124
0.007421824183
0.004827638437
0.00375863658
0.003538908941
0.005185048549
0.01523418818
0.03001376688
0.09494087113
0.1954946313
0.1149819419
0.07751382138
0.05975571916
0.04472531293
0.03676945229
0.04234744887
0.04809354085
0.06257556254
0.07718110032
0.0975118481
0.1722068975
0.2447263239
0.3167691788
0.465977017
0.2252084845
0.008104859517
3.479999963
0.1549253316
0.1109502248
0.06679457904
0.0424724928
0.02461322634
0.01369071801
0.008334040492
0.0064008696
0.006486611832
0.00874550211
0.02017413499
0.0399254161
0.09580159254
0.06849268061
0.05607460995
0.07066670319
0.08004766082
0.07229183544
0.06040572441
0.0598878847
0.06847864094
0.07919864375
0.06845864765
0.05004534059
0.09758345114
0.1375400756
0.1445620487
0.2147022438
0.229574451
0.01506644507
3.341085604
0.1950214807
0.1692948748
0.1158896139
0.08045585511
0.04807350129
0.02625153856
0.015386399
0.01173790043
0.01214108789
0.01567823934
0.02629503653
0.04630447311
0.06181257574
0.0253361391
0.0334646968
0.06463062833
0.09651794649
0.09822092836
0.07704734624
0.07295003332
0.08831020048
0.09810875897
0.06975776465
0.03203541348
0.06387888436
0.08988951764
0.1036390141
0.09239137985
0.1410506357
0.02829962872
3.143171331
0.2226366342
0.23196238
0.1757243371
0.1370912294
0.08793731365
0.0482403393
0.02743964877
0.02023003277
0.02000118382
0.02346042386
0.03112530346
0.03971323143
0.03065756835
0.01465430129
0.02526760659
0.05926845951
0.1086646995
0.1324273127
0.1231183125
0.1216012466
0.09989466018
0.1065786239
0.0701278693
0.02396678285
0.04668616254
0.07166622681
0.103960281
0.06106460897
0.08126967028
0.04948591414
2.936951326
0.2257858487
0.2830934918
0.2297508249
0.1988879044
0.1409915919
0.08159245077
0.045619043
0.03178483928
0.02866144134
0.02919975061
0.03059728867
0.02778933207
0.01598913015
0.0112168273
0.02149508402
0.05328071536
0.1098380208
0.1583052845
0.1857638433
0.1917607638
0.1074687618
0.1058067391
0.0668956477
0.01866409176
0.03576410759
0.05734572377
0.1051788009
0.0536086731
0.05968677271
0.08131977328
2.825744451
0.2065940154
0.3150680712
0.2734494211
0.2482668438
0.1928559036
0.1222222117
0.06986682221
0.04562507616
0.0366548096
0.03194679871
0.02696509961
0.0190121146
0.01061909408
0.00974551258
0.01851928034
0.04444661786
0.09276584989
0.1323258547
0.1252443119
0.09487057305
0.1101882472
0.1031215992
0.06167451701
0.01458874749
0.02745623619
0.04251146413
0.1015722088
0.0572955506
0.05698562375
0.120987245
3.225125853
0.1933069082
0.4051684821
0.4118183328
0.2886271965
0.2291023412
0.1594451117
0.09703728348
0.06031306075
0.04313986154
0.03263903866
0.02346328882
0.01468470308
0.009081922084
0.009216454844
0.01596478057
0.03520680601
0.07169434375
0.09885472189
0.0849922414
0.06185750543
0.106379397
0.1013241865
0.05643551183
0.01174570861
0.02144593085
0.03187192699
0.09180003332
0.06786145433
0.06181807806
0.1634355244
5.714285742
0.1430459753
0.7339597658
3.900646521
0.6558785174
0.2653093259
0.1944120147
0.1200270647
0.07357607828
0.04779532839
0.03254547303
0.02145496922
0.01340574735
0.009331048604
0.009443255379
0.01413080855
0.02727230581
0.05264187538
0.0716143399
0.0556686664
0.02175478869
0.09351599201
0.1022076293
0.05304009989
0.01018156612
0.01789877371
0.02657355277
0.0715051395
0.08264282423
0.07370767469
0.203661809
10.93386095
0.4709668289
1.890622249
1.717947223
5.144898425
0.7451593768
0.345909336
0.1331255951
0.08216688774
0.05045052672
0.03240871746
0.0210588034
0.01418106349
0.01105739628
0.01090130571
0.01365510549
0.02127430581
0.03586018982
0.04556628645
0.02627072627
0.009719298831
0.06778799601
0.1069810133
0.05387290947
0.00985368302
0.01642968617
0.05395941059
0.04675415922
0.09415293946
0.09640969117
0.2395008438
11.04397534
1.565675612
2.112229481
1.091500317
0.6989899338
1.237683113
4.235954797
0.2337170064
0.1033874471
0.06464179151
0.04725700976
0.03715177027
0.03070711167
0.02652432917
0.02381765344
0.02271071031
0.02437777754
0.02938434445
0.03077581932
0.01550501073
0.005649609903
0.03569869081
0.1137372163
0.06196533623
0.01250360069
0.01902334502
0.2816759251
0.04414401552
0.1422971458
0.1605329572
0.2807986203
10.3282457
1.317301544
1.416231958
0.1758357288
0.003206848855
0.03163322172
0.2971763295
0.25634753
0.1153049348
0.07517524312
0.05718090012
0.04856603918
0.04346597235
0.03844544931
0.03268511503
0.02739389333
0.0239406279
0.02240770079
0.0196900607
0.01118572111
0.004048294106
0.01295590011
0.09798165616
0.08980768659
0.0224666629
0.02672315413
1.159844096
0.05316080756
0.06999804698
0.1640135885
0.3806976735
13.1189481
7.302509821
13.15973986
6.875615617
2.802985511
2.034700515
2.576229328
2.869384734
2.904592929
3.133145633
3.33918075
3.483032656
3.515926913
3.393074927
3.103087508
2.692730968
2.25441393
1.869880897
1.553473023
1.252806989
0.9381984504
0.8612955911
1.843535219
2.476338402
1.750319223
1.905681669
4.936294893
2.285464336
2.380047746
2.408394704
2.800587782
)
;

boundaryField
{
    walls
    {
        type            zeroGradient;
    }
    wallFilmFace_top
    {
        type            zeroGradient;
    }
    region0_to_wallFilmRegion_wallFilmFace
    {
        type            zeroGradient;
    }
    mirrorFace_top
    {
        type            zeroGradient;
    }
    region0_to_wallFilmRegion_mirrorFace
    {
        type            zeroGradient;
    }
    procBoundary1to0
    {
        type            processor;
        value           nonuniform List<scalar> 
52
(
2.425581214
0.02228954594
0.02074987182
0.0177753973
0.03292046044
0.08217765856
0.2148242931
0.4943826412
0.4943826412
0.4392702903
0.1991621184
0.1461648195
0.1020480203
0.1020480203
0.07554542212
0.03986746046
0.03986746046
0.06492229702
0.2195281808
0.4175917357
0.1758872809
0.1758872809
0.122194827
0.05983762059
0.05983762059
0.02455883896
0.00872460356
0.04530408402
0.181753078
0.181753078
0.3465837213
0.2755733898
0.2755733898
0.05739032404
0.05503641916
0.05503641916
0.375041412
1.030442132
1.944457179
1.944457179
1.084052795
1.084052795
0.001050414613
5.473044987e-05
0.03382026875
0.03382026875
0.04268348316
0.0007003651594
0.0007046491662
0.06182538984
0.01852717302
0.04735528596
)
;
    }
    procBoundary1to2
    {
        type            processor;
        value           nonuniform List<scalar> 
33
(
0.05076874225
0.005626446502
0.005626446502
0.03938939217
0.03938939217
0.01203021558
0.02757963265
0.04842390096
0.04842390096
0.1674761002
0.04519942967
0.0003713745945
0.004940589728
0.01305756958
0.02448586352
0.08005739033
0.3896135893
0.7055391122
0.5298725138
0.2075729361
0.06968653813
0.0388638656
0.03404877906
0.03968923838
0.05319345468
0.07243483126
0.08762277795
0.09578288086
0.0904776157
0.07924767501
0.09431292443
0.1941010771
4.633796169
)
;
    }
}


// ************************************************************************* //
