/*--------------------------------*- C++ -*----------------------------------*\
  =========                 |
  \\      /  F ield         | OpenFOAM: The Open Source CFD Toolbox
   \\    /   O peration     | Website:  https://openfoam.org
    \\  /    A nd           | Version:  8
     \\/     M anipulation  |
\*---------------------------------------------------------------------------*/
FoamFile
{
    version     2.0;
    format      ascii;
    class       volVectorField;
    location    "0.8/wallFilmRegion";
    object      contactForce:contactAngle;
}
// * * * * * * * * * * * * * * * * * * * * * * * * * * * * * * * * * * * * * //

dimensions      [1 -2 -2 0 0 0 0];

internalField   nonuniform List<vector> 
1369
(
(0 -310.7260319 0)
(0 0 0)
(0 0 0)
(0 0 0)
(0 0 0)
(0 0 0)
(0 621.8994367 0)
(0 -473.4042881 -1.399816258e-12)
(0 0 0)
(0 0 0)
(0 0 0)
(0 0 0)
(1109.274154 1016.834639 0)
(0 0 0)
(0 0 0)
(0 0 0)
(0 0 0)
(0 0 0)
(0 -440.1338051 0)
(0 0 0)
(0 0 0)
(0 0 0)
(0 0 0)
(0 275.7845188 -8.154713818e-13)
(0 0 0)
(0 0 0)
(0 0 0)
(0 0 0)
(-404.4392297 -370.7359619 -1.096234729e-12)
(0 0 0)
(0 0 0)
(0 -368.0692259 1.088349417e-12)
(0 0 0)
(0 0 0)
(0 0 0)
(0 0 0)
(0 558.7200113 0)
(0 0 0)
(0 0 0)
(0 0 0)
(-1048.549217 -961.1701142 0)
(0 0 0)
(0 0 0)
(0 0 0)
(0 0 0)
(0 0 0)
(0 657.1494832 0)
(0 0 0)
(0 -691.6710719 2.045212593e-12)
(0 0 0)
(1131.621585 5.751124628e-12 0)
(0 0 0)
(0 888.4064116 0)
(-439.0807361 0 0)
(-482.7273081 0 0)
(-547.4509694 0 0)
(-826.0881612 -757.2474797 0)
(0 0 0)
(0 0 0)
(0 0 0)
(0 0 0)
(0 0 0)
(0 0 0)
(0 483.9711831 0)
(0 0 0)
(-555.768448 0 0)
(-588.666177 -539.6106613 0)
(0 -772.830588 0)
(0 0 0)
(0 583.1506406 0)
(0 0 0)
(0 0 0)
(0 0 0)
(0 0 0)
(0 0 0)
(0 0 0)
(0 0 0)
(0 0 0)
(0 0 0)
(0 0 0)
(0 0 0)
(473.839167 434.352569 -1.284343629e-12)
(0 0 0)
(0 -701.2387375 0)
(0 0 0)
(0 0 0)
(0 0 0)
(0 0 0)
(0 0 0)
(0 0 0)
(0 0 0)
(448.1140226 0 0)
(0 0 0)
(974.9013433 -893.6595679 -2.642475386e-12)
(0 0 0)
(0 0 0)
(0 0 0)
(0 0 0)
(0 0 0)
(0 0 0)
(0 0 0)
(0 0 0)
(0 0 0)
(0 0 0)
(0 286.671741 0)
(0 0 0)
(0 -585.0788777 0)
(0 0 0)
(0 0 0)
(0 0 0)
(0 0 0)
(0 0 0)
(0 0 0)
(0 370.5693104 -1.095741955e-12)
(0 0 0)
(0 0 0)
(0 0 0)
(0 0 0)
(-1012.892396 -928.4846944 0)
(0 0 0)
(0 0 0)
(0 0 0)
(0 0 0)
(0 0 0)
(0 0 0)
(0 0 0)
(0 0 0)
(0 0 0)
(979.7997024 898.1497256 0)
(0 0 0)
(0 0 0)
(0 -242.9271986 0)
(0 0 0)
(0 0 0)
(0 0 0)
(0 0 0)
(0 0 0)
(566.4374663 519.2343431 0)
(0 0 0)
(-297.148928 0 0)
(-566.6920909 -519.467749 0)
(0 0 0)
(-236.8669988 0 0)
(-1113.244756 -1020.474363 0)
(0 0 0)
(0 0 0)
(0 0 0)
(0 0 0)
(0 0 0)
(0 0 0)
(0 0 0)
(0 0 0)
(705.76404 646.9503688 0)
(368.0588421 0 0)
(0 0 0)
(0 0 0)
(0 0 0)
(0 -266.4325668 0)
(0 0 0)
(0 0 0)
(0 0 0)
(0 0 0)
(0 0 0)
(0 731.9810115 0)
(0 -409.0492257 0)
(0 0 0)
(0 0 0)
(0 -463.7931894 0)
(0 0 0)
(0 0 0)
(0 0 0)
(0 0 0)
(0 0 0)
(0 0 0)
(0 0 0)
(0 0 0)
(0 0 0)
(641.9937912 588.4943107 0)
(0 0 0)
(0 0 0)
(0 0 0)
(0 0 0)
(0 0 0)
(-549.6595909 -503.8546241 0)
(0 0 0)
(0 0 0)
(-2675.31606 0.005068472578 0)
(0 0 0)
(0 0 0)
(-460.1382454 421.7933908 0)
(0 -319.246047 0)
(0 0 0)
(0 0 0)
(545.6047298 500.1376708 0)
(0 -505.7703394 -1.495519922e-12)
(0 0 0)
(0 0 0)
(0 0 0)
(0 0 0)
(0 0 0)
(0 0 0)
(0 0 0)
(0 0 0)
(364.0825774 333.742362 0)
(0 0 0)
(0 0 0)
(0 0 0)
(0 0 0)
(0 0 0)
(0 -366.7195012 0)
(0 0 0)
(0 0 0)
(0 0 0)
(0 0 0)
(0 0 0)
(0 0 0)
(0 0 0)
(0 -1257.479903 0)
(0 0 0)
(0 0 0)
(0 264.5857525 -7.823575903e-13)
(0 -319.3250592 0)
(0 0 0)
(0 0 0)
(0 0 0)
(0 0 0)
(0 0 0)
(0 0 0)
(0 0 0)
(0 0 0)
(0 750.8662605 0)
(0 0 0)
(0 0 0)
(0 0 0)
(0 0 0)
(0 0 0)
(0 -440.587727 0)
(0 0 0)
(0 0 0)
(0 0 0)
(0 0 0)
(0 0 0)
(0 0 0)
(0 0 0)
(0 -1253.618061 0)
(0 0 0)
(0 0 0)
(0 323.8726829 0)
(0 -756.8921777 0)
(0 0 0)
(0 0 0)
(0 0 0)
(0 0 0)
(0 0 0)
(735.5428604 674.2476245 0)
(607.6877554 0 0)
(498.9057903 0 0)
(0 0 0)
(0 0 0)
(0 0 0)
(0 0 0)
(0 0 0)
(-690.2001188 0 0)
(0 0 0)
(404.5279305 -370.817271 0)
(0 0 0)
(0 0 0)
(0 0 0)
(0 0 0)
(0 0 0)
(0 0 0)
(0 -1016.134957 0.0003004620675)
(0 0 0)
(0 0 0)
(-362.8144141 332.579879 0)
(-420.8345897 0 0)
(0 0 0)
(487.2382043 0 1.320661806e-12)
(443.2760473 0 1.20150214e-12)
(257.1134161 0 0)
(700.7951118 0 1.899508967e-12)
(1359.726926 0 153.2086677)
(-692.7949784 0 1.877824562e-12)
(-433.6413024 0 1.175387112e-12)
(-541.370926 0 -1.467388843e-12)
(-454.6031849 0 1.232204408e-12)
(-606.6026637 0 1.644199824e-12)
(0 0 0)
(0 0 0)
(0 -295.6945361 8.743436203e-13)
(0 0 0)
(0 296.8671481 8.778109342e-13)
(0 0 0)
(527.4084603 0 78.86481649)
(596.7159591 0 1.617401857e-12)
(2.885042453e-11 -1458.980768 4.314082173e-12)
(0 0 0)
(0 0 0)
(0 0 0)
(0 1569.895572 0.005106291759)
(0 0 0)
(0 0 0)
(0 0 0)
(0 0 0)
(0 0 0)
(0 0 0)
(0 0 0)
(0 0 0)
(0 0 0)
(0 -378.2959845 0)
(0 0 0)
(0 0 0)
(0 0 0)
(0 0 0)
(0 0 0)
(0 0 0)
(0 605.129542 0)
(0 0 0)
(0 0 0)
(274.9567706 0 -7.45271816e-13)
(0 0 0)
(0 -632.1813512 0)
(0 0 0)
(0 549.9739808 0)
(0 0 0)
(0 0 0)
(0 0 0)
(0 0 0)
(-1739.856213 -8.842293216e-12 0)
(0 0 0)
(0 0 0)
(0 0 0)
(0 0 0)
(0 0 0)
(0 0 0)
(0 0 0)
(0 0 0)
(0 0 0)
(0 -515.5662916 0)
(0 0 0)
(0 0 0)
(0 0 0)
(0 0 0)
(0 0 0)
(670.9313787 615.0204327 0)
(0 0 0)
(0 0 0)
(0 0 0)
(0 0 0)
(-471.9606131 0 0)
(0 0 0)
(269.5630634 0 0)
(0 0 0)
(801.7651839 -734.9514212 0)
(0 0 0)
(0 0 0)
(0 0 0)
(0 0 0)
(0 0 0)
(1856.224025 -2.83010924e-11 0)
(0 0 0)
(0 0 0)
(0 0 0)
(0 0 0)
(-266.3134743 0 0)
(0 0 0)
(-717.2778835 0 -1.94418561e-12)
(-388.5126035 -356.1365525 0)
(0 0 0)
(0 0 0)
(2.517382436e-11 1945.952767 0)
(-683.2579162 0 0)
(-1019.653247 0 0)
(-579.8010843 0 0)
(-233.6058769 0 0)
(0 0 0)
(0 0 0)
(0 -242.3128892 0)
(0 0 0)
(-670.827939 614.9256097 0)
(-288.4610692 0 0)
(-269.1658754 0 0)
(-514.8930896 0 0)
(0 0 0)
(-1.040929752e-11 -1609.290747 0)
(0 0 0)
(0 0 0)
(0 0 0)
(0 705.5909468 0)
(0 0 0)
(0 0 0)
(0 0 0)
(0 0 0)
(0 0 0)
(0 0 0)
(0 0 0)
(0 0 0)
(0 -439.1333838 0)
(0 0 0)
(0 -712.6011688 0)
(0 0 0)
(0 0 0)
(0 0 0)
(0 0 0)
(0 0 0)
(0 0 0)
(0 0 0)
(0 0 0)
(0 0 0)
(-552.3240794 506.2970746 0)
(-471.6127522 0 0)
(-995.2486648 -912.3112794 2.697626911e-12)
(0 0 0)
(0 0 0)
(0 0 0)
(0 0 0)
(0 0 0)
(0 0 0)
(0 0 0)
(0 0 0)
(0 0 0)
(0 0 0)
(-1779.38253 -1.808634754e-11 0)
(0 0 0)
(0 0 0)
(0 0 0)
(0 0 0)
(0 0 0)
(0 0 0)
(0 0 0)
(0 0 0)
(0 -577.7935686 0)
(0 0 0)
(-1370.324707 -1.71785105e-11 -3.71427254e-12)
(0 0 0)
(0 0 0)
(0 0 0)
(0 0 0)
(0 0 0)
(0 0 0)
(0 0 0)
(0 0 0)
(0 0 0)
(0 0 0)
(0 0 0)
(0 0 0)
(0 0 0)
(0 0 0)
(0 0 0)
(0 0 0)
(0 0 0)
(0 0 0)
(0 0 0)
(0 0 0)
(0 0 0)
(0 0 0)
(0 0 0)
(0 0 0)
(1384.568369 3.518325078e-11 -3.752880083e-12)
(0 0 0)
(-1352.882164 0.005042122586 -0.0006722830114)
(0 0 0)
(0 0 0)
(1806.7305 1.836432313e-11 -4.897152834e-12)
(0 0 0)
(0 -560.9710812 -1.658743826e-12)
(0 0 0)
(0 0 0)
(0 0 0)
(0 0 0)
(0 0 0)
(0 0 0)
(0 0 0)
(0 0 0)
(0 0 0)
(0 0 0)
(0 0 0)
(0 0 0)
(1473.447204 2.246505002e-11 0)
(0 0 0)
(0 0 0)
(0 0 0)
(0 0 0)
(0 0 0)
(0 0 0)
(0 0 0)
(0 0 0)
(0 0 0)
(0 0 0)
(0 0 0)
(0 0 0)
(701.8214006 643.3362827 -1.902290728e-12)
(-1021.317597 -936.2077951 0)
(0 0 0)
(0 0 0)
(0 0 0)
(0 0 0)
(-1476.653357 3.001857725e-11 0)
(0 -696.9240872 -2.060745291e-12)
(0 0 0)
(0 0 0)
(0 0 0)
(0 0 0)
(0 0 0)
(0 0 0)
(0 0 0)
(0 0 0)
(0 0 0)
(0 0 0)
(486.3474195 445.8184671 0)
(325.6103468 0 0)
(0 0 0)
(619.6002746 -567.9669173 0)
(0 0 0)
(0 0 0)
(0 0 0)
(0 0 0)
(0 0 0)
(0 0 0)
(665.7175969 610.2411294 0)
(907.8216484 -832.1698428 0)
(0 0 0)
(0 0 0)
(0 0 0)
(0 -1502.355721 0)
(0 0 0)
(0 0 0)
(0 0 0)
(0 0 0)
(0 0 0)
(0 -704.328674 -2.082640025e-12)
(0 0 0)
(0 0 0)
(0 0 0)
(0 0 0)
(0 0 0)
(0 0 0)
(0 0 0)
(0 0 0)
(0 0 0)
(520.9205053 477.5104649 0)
(0 0 0)
(0 0 0)
(0 0 0)
(0 -655.0602539 0)
(0 0 0)
(0 0 0)
(0 0 0)
(0 0 0)
(0 0 0)
(0 0 0)
(0 542.3882839 0)
(0 -699.073769 0)
(0 0 0)
(0 0 0)
(0 0 0)
(0 362.8585022 -1.07294175e-12)
(739.7653711 -678.1182593 0)
(0 0 0)
(0 0 0)
(0 0 0)
(0 0 0)
(0 -593.7014926 1.755524871e-12)
(0 0 0)
(0 0 0)
(0 0 0)
(0 0 0)
(0 0 0)
(0 0 0)
(0 0 0)
(783.0517559 717.7974416 0)
(393.4313982 0 0)
(0 0 0)
(0 0 0)
(-502.7654066 0 0)
(-570.6693299 0 0)
(-540.9497385 -495.8705928 0)
(0 0 0)
(0 0 0)
(0 0 0)
(0 0 0)
(0 0 0)
(0 0 0)
(0 626.9129006 0)
(0 -248.1182153 0)
(0 0 0)
(0 0 0)
(0 0 0)
(0 643.6695064 -1.903276042e-12)
(0 -542.3569419 0)
(0 0 0)
(0 0 0)
(0 0 0)
(0 0 0)
(0 0 0)
(972.4827567 0 0)
(946.6006785 0 0)
(739.9248057 0 0)
(695.6769013 0 0)
(1354.858804 0 0)
(454.3404027 0 0)
(433.4540176 0 0)
(0 0 0)
(0 0 0)
(-538.7485753 0 0)
(-905.5060719 -830.0472356 0)
(0 0 0)
(0 0 0)
(0 0 0)
(0 0 0)
(0 0 0)
(0 0 0)
(0 0 0)
(0 0 0)
(0 0 0)
(-466.7490773 427.8533224 0)
(0 -260.8547732 0)
(0 0 0)
(0 0 0)
(1036.250255 949.8960649 0)
(0 0 0)
(0 0 0)
(463.01708 0 0)
(859.2798068 -787.6731548 0)
(0 0 0)
(0 -517.0599319 0)
(0 0 0)
(0 0 0)
(0 0 0)
(0 0 0)
(0 0 0)
(-895.6813392 821.0412261 0)
(-626.061555 0 0)
(-583.7733998 0 -1.582320962e-12)
(-1099.09008 -1007.499238 0)
(0 0 0)
(0 0 0)
(0 0 0)
(0 0 0)
(0 0 0)
(0 0 0)
(0 0 0)
(0 0 0)
(0 0 0)
(0 0 0)
(0 0 0)
(0 0 0)
(0 626.690818 0)
(868.8623686 -796.4571741 0)
(0 0 0)
(0 613.6325836 0)
(0 0 0)
(0 0 0)
(0 0 0)
(0 0 0)
(363.3440364 0 0)
(0 -603.1355538 0)
(0 0 0)
(0 0 0)
(0 0 0)
(0 0 0)
(0 0 0)
(0 0 0)
(0 0 0)
(0 0 0)
(0 0 0)
(0 0 0)
(0 0 0)
(0 0 0)
(0 0 0)
(0 0 0)
(0 0 0)
(0 0 0)
(0 0 0)
(0 0 0)
(0 0 0)
(0 0 0)
(0 0 0)
(0 302.6299651 0)
(0 0 0)
(424.443784 0 0)
(0 0 0)
(-715.2923319 0 -1.938803761e-12)
(0 0 0)
(0 0 0)
(0 0 0)
(-610.5165147 -559.6401374 0)
(0 -449.3347612 0)
(0 0 0)
(0 0 0)
(0 0 0)
(0 0 0)
(0 0 0)
(0 0 0)
(0 0 0)
(0 0 0)
(0 0 0)
(0 0 0)
(0 0 0)
(0 0 0)
(0 0 0)
(0 0 0)
(0 0 0)
(0 0 0)
(0 0 0)
(0 0 0)
(0 0 0)
(0 0 0)
(9.162157202e-06 1539.747852 0)
(0 0 0)
(0 0 0)
(0 0 0)
(0 -777.1391197 0)
(0 0 0)
(0 367.6575498 0)
(0 0 0)
(0 -443.7982751 0)
(0 0 0)
(0 -297.3698238 8.79297294e-13)
(0 0 0)
(0 0 0)
(0 0 0)
(0 0 0)
(0 0 0)
(0 0 0)
(0 0 0)
(0 0 0)
(0 0 0)
(0 0 0)
(943.7611327 9.43288193e-12 0)
(0 0 0)
(0 0 0)
(0 0 0)
(0 0 0)
(0 0 0)
(0 0 0)
(0 0 0)
(0 0 0)
(0 0 0)
(0 0 0)
(0 254.8366174 0)
(0 0 0)
(0 0 0)
(0 0 0)
(480.5389579 0 0)
(0 0 0)
(0 0 0)
(0 -513.3713266 0)
(0 0 0)
(0 -403.3240097 1.192594829e-12)
(0 0 0)
(0 0 0)
(0 0 0)
(1770.195575 -4.49824195e-12 0)
(0 0 0)
(0 0 0)
(0 0 0)
(0 0 0)
(0 0 0)
(0 0 0)
(-1533.888805 2.338657852e-11 0)
(0 0 0)
(0 0 0)
(0 0 0)
(0 0 0)
(0 0 0)
(0 0 0)
(0 0 0)
(0 0 0)
(0 0 0)
(0 0 0)
(-457.236747 419.133684 0)
(0 0 0)
(0 0 0)
(0 0 0)
(0 0 0)
(0 0 0)
(0 0 0)
(0 0 0)
(819.5431359 -751.2478732 0)
(0 0 0)
(536.6140646 0 0)
(261.1108218 0 0)
(740.5043219 0 0)
(-521.7863299 -478.3041375 0)
(0 0 0)
(0 0 0)
(0 0 0)
(0 0 0)
(0 0 0)
(0 0 0)
(0 0 0)
(0 0 0)
(0 0 0)
(0 0 0)
(0 0 0)
(0 0 0)
(0 0 0)
(0 0 0)
(0 0 0)
(0 0 0)
(1401.132368 -2.112513385e-11 0)
(0 0 0)
(0 424.616334 0)
(0 0 0)
(0 0 0)
(0 0 0)
(0 0 0)
(0 0 0)
(0 0 0)
(0 -472.8396241 0)
(0 0 0)
(0 0 0)
(-789.0279849 -723.2756515 0)
(0 0 0)
(0 0 0)
(0 0 0)
(0 0 0)
(0 0 0)
(0 0 0)
(0 0 0)
(0 0 0)
(0 0 0)
(0 0 0)
(0 0 0)
(0 0 0)
(0 0 0)
(0 0 0)
(0 0 0)
(0 0 0)
(0 0 0)
(0 0 0)
(0 1377.416833 0)
(0 0 0)
(0 525.7624038 0)
(-270.8618028 0 0)
(0 0 0)
(0 0 0)
(0 0 0)
(0 0 0)
(0 0 0)
(0 -492.9028992 0)
(0 0 0)
(-976.9898659 -895.5740421 0)
(0 0 0)
(0 0 0)
(0 0 0)
(0 0 0)
(0 0 0)
(0 0 0)
(0 0 0)
(0 0 0)
(0 0 0)
(0 0 0)
(0 0 0)
(0 0 0)
(0 0 0)
(0 0 0)
(0 0 0)
(0 0 0)
(0 0 0)
(0 0 0)
(0 0 0)
(-465.9010047 427.0759202 0)
(660.1211387 0 0)
(-593.2730541 -543.8336319 0)
(0 0 0)
(-915.1413822 838.8795989 0)
(-631.1280497 0 0)
(0 0 0)
(0 0 0)
(0 0 0)
(0 0 0)
(0 -466.2364333 1.378621506e-12)
(0 0 0)
(0 0 0)
(0 0 0)
(0 0 0)
(0 0 0)
(0 0 0)
(0 0 0)
(0 0 0)
(0 0 0)
(0 0 0)
(0 0 0)
(0 0 0)
(0 0 0)
(0 0 0)
(0 0 0)
(0 0 0)
(0 0 0)
(0 0 0)
(0 0 0)
(0 0 0)
(0 0 0)
(0 0 0)
(0 0 0)
(0 0 0)
(0 0 0)
(0 0 0)
(-737.3668732 675.9196362 0)
(0 0 0)
(0 0 0)
(0 0 0)
(0 -303.16286 0)
(0 0 0)
(0 0 0)
(0 0 0)
(0 0 0)
(0 0 0)
(0 0 0)
(0 0 0)
(0 0 0)
(0 0 0)
(0 0 0)
(0 0 0)
(0 0 0)
(0 0 0)
(1092.651371 1001.597093 -2.961637474e-12)
(877.4629286 -804.3410208 0)
(0 0 0)
(0 0 0)
(0 0 0)
(0 0 0)
(0 0 0)
(0 0 0)
(0 0 0)
(0 0 0)
(0 0 0)
(0 0 0)
(0 0 0)
(0 0 0)
(0 335.3029975 0)
(0 0 0)
(-293.2057108 0 0)
(0 -429.7932546 0)
(0 0 0)
(0 0 0)
(0 0 0)
(0 0 0)
(0 0 0)
(0 0 0)
(0 0 0)
(0 0 0)
(0 0 0)
(0 0 0)
(0 0 0)
(0 0 0)
(0 0 0)
(0 376.1704432 0)
(0 -736.6112835 0)
(0 0 0)
(0 0 0)
(0 0 0)
(0 0 0)
(0 0 0)
(0 0 0)
(0 0 0)
(922.8031388 845.9028757 0)
(658.4732145 0 0)
(432.9496579 0 0)
(293.4731674 0 -7.954606185e-13)
(651.0122006 0 0)
(0 0 0)
(0 -419.7126854 0)
(0 0 0)
(0 -497.194074 0)
(0 0 0)
(0 0 0)
(0 0 0)
(0 0 0)
(0 0 0)
(0 0 0)
(0 0 0)
(0 0 0)
(0 0 0)
(0 0 0)
(0 0 0)
(0 0 0)
(0 0 0)
(0 284.846113 0)
(0 -558.3620843 0)
(0 0 0)
(0 0 0)
(0 0 0)
(0 0 0)
(0 0 0)
(0 0 0)
(0 0 0)
(-1001.310906 917.8683341 0)
(-492.9936189 0 0)
(0 0 0)
(0 0 0)
(0 0 0)
(0 0 0)
(0 -561.1175925 0)
(0 0 0)
(0 0 0)
(777.0260128 -712.2738476 0)
(0 0 0)
(0 0 0)
(0 0 0)
(0 0 0)
(0 0 0)
(0 0 0)
(0 0 0)
(0 0 0)
(0 0 0)
(0 0 0)
(0 0 0)
(0 0 0)
(-696.3094969 638.2837043 -1.887350663e-12)
(-738.1573255 -676.6442138 0)
(0 0 0)
(0 0 0)
(0 0 0)
(0 0 0)
(0 0 0)
(0 0 0)
(0 0 0)
(0 0 0)
(0 0 0)
(-786.9430194 721.3644332 0)
(0 0 0)
(0 0 0)
(0 0 0)
(0 -264.9010054 0)
(0 0 0)
(0 0 0)
(0 0 0)
(1098.313768 -1006.787619 0)
(0 0 0)
(0 0 0)
(0 0 0)
(0 0 0)
(0 0 0)
(0 0 0)
(0 0 0)
(0 0 0)
(0 0 0)
(0 0 0)
(0 0 0)
(0 0 0)
(0 0 0)
(0 0 0)
(0 0 0)
(0 0 0)
(0 0 0)
(0 0 0)
(0 0 0)
(0 0 0)
(0 0 0)
(0 0 0)
(0 0 0)
(-962.2968188 882.1054156 -2.608310768e-12)
(0 0 0)
(-595.1257005 0 0)
(0 -718.4661864 0)
(0 0 0)
(0 0 0)
(0 0 0)
(0 0 0)
(548.499569 -502.7912707 0)
(0 0 0)
(0 0 0)
(0 0 0)
(0 0 0)
(0 0 0)
(0 0 0)
(0 0 0)
(0 0 0)
(0 0 0)
(0 0 0)
(0 0 0)
(0 0 0)
(0 0 0)
(0 0 0)
(0 0 0)
(0 0 0)
(0 0 0)
(0 0 0)
(0 0 0)
(0 0 0)
(0 0 0)
(0 0 0)
(0 0 0)
(0 -927.5039756 0)
(0 0 0)
(-1775.357944 -4.541435749e-11 0)
(0 0 0)
(0 0 0)
(0 0 0)
(0 0 0)
(0 0 0)
(972.1251283 -891.1147042 0)
(0 0 0)
(0 0 0)
(0 0 0)
(0 0 0)
(0 0 0)
(0 0 0)
(0 0 0)
(0 0 0)
(0 0 0)
(0 0 0)
(0 0 0)
(0 0 0)
(773.9706731 709.4731196 0)
(616.3598984 0 0)
(507.5150138 0 0)
(321.663001 0 0)
(436.6768027 0 0)
(826.6172548 -757.7324863 0)
(0 0 0)
(0 0 0)
(0 0 0)
(0 0 0)
(0 -742.0914583 0)
(0 0 0)
(0 0 0)
(0 0 0)
(0 0 0)
(0 0 0)
(0 0 0)
(0 0 0)
(0 0 0)
(376.2182943 -344.8667692 0)
(0 0 0)
(0 0 0)
(0 0 0)
(0 0 0)
(0 0 0)
(0 0 0)
(0 0 0)
(0 0 0)
(0 0 0)
(0 0 0)
(0 0 0)
(-497.2336029 455.7974685 0)
(0 0 0)
(0 0 0)
(-595.3629672 0 0)
(0 0 0)
(0 -315.0408043 0)
(0 0 0)
(0 0 0)
(0 0 0)
(0 0 0)
(0 -779.9715458 0)
(0 0 0)
(0 0 0)
(0 0 0)
(0 0 0)
(0 0 0)
(0 0 0)
(0 0 0)
(0 0 0)
(0 0 0)
(777.674017 -712.8678477 0)
(0 0 0)
(0 0 0)
(0 0 0)
(0 0 0)
(0 0 0)
(0 0 0)
(0 0 0)
(0 0 0)
(0 0 0)
(0 0 0)
(0 0 0)
(-819.8522868 751.5312656 0)
(-339.6531392 -311.348712 0)
(0 0 0)
(0 693.733757 0)
(0 -696.5347018 0)
(0 0 0)
(0 0 0)
(0 0 0)
(0 0 0)
(-1679.232559 -8.818664884e-12 0)
(0 0 0)
(0 0 0)
(1148.916086 -2.335607455e-11 0)
(0 0 0)
(0 0 0)
(0 0 0)
(0 0 0)
(0 0 0)
(0 0 0)
(0 -516.891069 0)
(0 0 0)
(0 0 0)
(0 0 0)
(0 0 0)
(0 0 0)
(0 0 0)
(0 0 0)
(0 0 0)
(0 0 0)
(0 0 0)
(0 0 0)
(0 0 0)
(0 0 0)
(0 0 0)
(-953.4902353 874.0327141 0)
(0 -351.3356756 0)
(0 0 0)
(0 0 0)
(0 0 0)
(0 0 0)
(0 0 0)
(0 0 0)
(0 0 0)
(0 1234.109569 0)
(0 0 0)
(0 0 0)
(0 0 0)
(0 0 0)
(0 0 0)
(0 0 0)
(0 0 0)
(919.4866987 -842.8628056 0)
(0 0 0)
(0 0 0)
(0 0 0)
(0 0 0)
(0 0 0)
(0 0 0)
(0 0 0)
(0 0 0)
(0 0 0)
(0 0 0)
(0 0 0)
(0 0 0)
(0 0 0)
(0 0 0)
(0 -1110.31543 0)
(0 0 0)
(0 0 0)
(0 0 0)
(0 0 0)
(0 0 0)
(0 0 0)
(0 0 0)
(0 0 0)
(0 0 0)
(0 0 0)
(0 0 0)
(0 0 0)
(0 0 0)
(0 0 0)
(0 0 0)
(0 -593.5112346 0)
(0 0 0)
(0 0 0)
(0 0 0)
(0 0 0)
(0 0 0)
(0 0 0)
(0 0 0)
(0 0 0)
(0 0 0)
(0 0 0)
(0 0 0)
(0 0 0)
(0 0 0)
(0 0 0)
(0 0 0)
(0 0 0)
(0 0 0)
(0 0 0)
(0 0 0)
(0 0 0)
(0 0 0)
(0 0 0)
(0 0 0)
(0 0 0)
(0 0 0)
(0 0 0)
(0 0 0)
(-293.6310812 0 0)
(-361.1626465 0 0)
(0 0 0)
(0 0 0)
(624.6271593 -572.5748981 -1.693055308e-12)
(0 0 0)
(0 0 0)
(0 0 0)
(0 0 0)
(0 0 0)
(0 0 0)
(0 0 0)
(0 0 0)
(0 0 0)
(0 0 0)
(0 0 0)
(0 0 0)
(0 0 0)
(-1146.116369 -5.630630259e-12 0)
(0 0 0)
(0 0 0)
(0 0 0)
(1881.344965 3.824546809e-11 0)
(0 0 0)
(-8.403751764e-06 1412.306488 0)
(651.6245645 0 0)
(0 -250.1579259 0)
(0 0 0)
(0 0 0)
(0 0 0)
(0 -532.0711801 0)
(0 0 0)
(0 0 0)
(0 650.1096334 0)
(0 0 0)
(0 -416.0739759 0)
(0 0 0)
(0 0 0)
(0 0 0)
(0 0 0)
(0 0 0)
(0 0 0)
(0 0 0)
(0 0 0)
(0 0 0)
(0 0 0)
(0 0 0)
(0 0 0)
(0 0 0)
(0 0 0)
(0 0 0)
(0 0 0)
(0 0 0)
(0 1182.813011 -630.8336059)
(0 0 0)
(0 0 0)
(0 342.694021 0)
(0 0 0)
(0 0 0)
(0 0 0)
(0 0 0)
(0 0 0)
(605.1054474 0 0)
(714.2019909 0 0)
(0 0 0)
(0 0 0)
(0 0 0)
(313.8550422 0 0)
(470.6877623 0 0)
(563.8772705 0 0)
(718.6759888 0 0)
(288.1830495 0 0)
(434.8935632 0 -1.178781358e-12)
(677.0915591 0 0)
(426.8122423 0 0)
(686.9002254 0 0)
(326.1678207 0 0)
(497.1303204 0 0)
(279.6735351 0 -7.580566318e-13)
(343.0798353 0 0)
(537.7301739 0 0)
(599.1320453 0 0)
(280.0451295 0 0)
(267.4218488 0 0)
(0 0 0)
(689.3773004 0 0)
(689.8943231 0 0)
(0 0 0)
(0 0 0)
)
;

boundaryField
{
    walls
    {
        type            calculated;
        value           uniform (0 0 0);
    }
    wallFilmFace_top
    {
        type            calculated;
        value           uniform (0 0 0);
    }
    region0_to_wallFilmRegion_wallFilmFace
    {
        type            calculated;
        value           uniform (0 0 0);
    }
    mirrorFace_top
    {
        type            calculated;
        value           nonuniform List<vector> 0();
    }
    region0_to_wallFilmRegion_mirrorFace
    {
        type            calculated;
        value           nonuniform List<vector> 0();
    }
    procBoundary1to0
    {
        type            processor;
        value           uniform (0 0 0);
    }
    procBoundary1to2
    {
        type            processor;
        value           uniform (0 0 0);
    }
}


// ************************************************************************* //
