/*--------------------------------*- C++ -*----------------------------------*\
  =========                 |
  \\      /  F ield         | OpenFOAM: The Open Source CFD Toolbox
   \\    /   O peration     | Website:  https://openfoam.org
    \\  /    A nd           | Version:  8
     \\/     M anipulation  |
\*---------------------------------------------------------------------------*/
FoamFile
{
    version     2.0;
    format      ascii;
    class       volScalarField;
    location    "0.8/wallFilmRegion";
    object      delta;
}
// * * * * * * * * * * * * * * * * * * * * * * * * * * * * * * * * * * * * * //

dimensions      [0 1 0 0 0 0 0];

internalField   nonuniform List<scalar> 
1369
(
0.002758761811
2.337069785e-05
2.26277362e-05
1.65333689e-05
3.259661128e-05
9.006781215e-05
0.0002618453249
0.003109829655
2.732112471e-05
3.03826864e-05
1.997486665e-05
3.999176898e-05
0.0001021846132
0.0002762241936
0.000520247205
0.0004801477221
0.0002150043706
0.0001357290338
0.00341249268
4.093558139e-05
4.585785179e-05
3.129743566e-05
5.992523513e-05
0.0001265913348
0.0002731388607
0.0004379525618
0.0003885699914
0.0001923838919
0.0001145583656
7.896090778e-05
5.484013167e-05
0.003615380627
5.532932298e-05
7.052169461e-05
5.304777057e-05
8.788240319e-05
0.0001478172884
0.000238997165
0.0002968996014
0.0002417714681
0.0001425282132
8.788016474e-05
5.859887099e-05
3.829633433e-05
2.098223668e-05
3.662362847e-05
0.0001038625666
0.0002005453235
0.00367435867
6.101788987e-05
0.0001080444065
7.952148987e-05
0.0001042103164
0.0001352655112
0.0001667563076
0.0001683067918
0.0001341536912
9.162418944e-05
6.086346805e-05
4.095782845e-05
2.721233153e-05
1.685302218e-05
5.46073401e-05
0.0001667506749
0.0002509651041
0.0001577998711
0.0001001497724
0.003596212286
6.177937835e-05
0.000161747854
9.81807014e-05
9.117982281e-05
8.49936927e-05
8.468300803e-05
7.944322711e-05
6.76453007e-05
5.130639829e-05
3.487039373e-05
2.28597831e-05
1.853135576e-05
2.569260989e-05
0.0001118923222
0.0002672825003
0.0002520758594
7.946874605e-05
4.851857166e-05
3.09288756e-05
1.670368959e-05
8.594577643e-06
3.88069304e-05
0.003582449817
0.0001570065852
0.0001712810274
0.0001086000978
6.289603212e-05
3.242500346e-05
1.847063539e-05
1.585431757e-05
2.244790277e-05
3.036165317e-05
3.71741409e-05
4.060461859e-05
4.812572566e-05
8.722229844e-05
0.0002036756888
0.0002495197296
0.0001573506029
7.219906446e-07
4.423490676e-06
8.809215993e-07
4.206741661e-07
1.025527895e-06
3.199425136e-05
0.0003505724673
0.00049739877
0.003830795449
0.0003775623734
0.0002108162065
0.0001027239464
5.000843373e-05
2.535885807e-05
1.551023869e-05
1.456190346e-05
2.107230292e-05
3.392112462e-05
5.441091949e-05
7.132332346e-05
8.820594109e-05
0.0001309079429
0.0001985116731
0.0001958937359
0.0001300975712
8.074240531e-07
9.137597521e-06
1.878954538e-06
7.708897824e-07
9.622987163e-07
0.0004155592139
0.0007365237693
0.0004222996261
0.0001809285275
0.002980963781
0.0002187530865
0.0001175597473
6.2090053e-05
3.562526784e-05
2.169373614e-05
1.523843792e-05
1.63644152e-05
2.328445585e-05
3.428707901e-05
6.589922839e-05
0.0001144034169
0.0001662515547
0.000216975256
0.0002314390025
0.0001517065047
0.0001156702479
9.935656285e-07
2.334441951e-05
8.645595428e-05
3.262760186e-06
1.763922526e-06
0.0007678705201
0.0002096461886
6.706856295e-05
7.206157266e-05
0.002165652365
7.940180452e-05
5.228288301e-05
3.901169869e-05
2.843915414e-05
1.915205834e-05
1.373749439e-05
1.890986487e-05
4.924863953e-05
8.304435475e-05
0.0001448824115
0.0002714758599
0.0004305069502
0.0005029903643
0.0003393506601
0.0001493453732
0.0001139303175
2.630790124e-05
9.211478525e-05
0.0002134126669
2.779365795e-06
1.365925389e-06
0.0009748540839
0.000733652491
4.23892025e-05
3.630377213e-05
0.0001019802004
0.002014324335
5.613194189e-05
4.008122487e-05
3.279099978e-05
2.546136833e-05
1.763785759e-05
1.124968801e-05
1.044528053e-05
4.417108142e-05
0.0001388434086
0.0002645814167
0.0003934890215
0.000470477388
0.0004074142412
0.0003195499838
0.0001234102515
9.121001263e-05
8.58851712e-06
7.849894995e-06
8.764191069e-07
2.663822131e-09
1.088769448e-09
5.183354638e-08
0.0001821711581
1.110607443e-05
3.940967288e-05
0.0001078569217
0.001927203876
3.741714506e-05
2.67276906e-05
2.33848771e-05
2.159381311e-05
2.219219638e-05
2.653981882e-05
3.493313629e-05
4.302047899e-05
0.0002323493358
0.0001756681444
0.0001701427129
0.0001980540499
0.0002187856087
0.0002539808523
0.0002320248323
8.54848364e-05
5.397933929e-06
9.386358111e-06
2.546708575e-06
2.775538238e-08
4.432147066e-09
1.07678334e-08
0.0001774259597
1.250147808e-05
3.820053223e-05
0.0006779337583
0.001905716518
6.376628822e-05
5.576339251e-05
5.86886199e-05
7.500084796e-05
9.923059496e-05
0.0001183646144
0.0001099698553
0.0001027250203
0.0001089904209
0.0001028621357
0.0001116144189
0.0001255171469
0.0001402183986
0.0001472199988
0.001290331594
0.0003469165297
6.967437241e-06
4.118975668e-05
1.916587491e-05
6.900208012e-07
4.128772471e-08
1.838003321e-08
0.000415730126
3.608725819e-05
3.903760112e-05
0.0001116331539
0.0009746469902
0.0023916076
0.0001623928188
0.0001489422146
0.0001425549694
0.0001516487646
0.0001616909
0.0001540094565
0.0001369224797
0.0001317908519
0.0001246188727
0.0001180155602
0.0001139590277
0.0001121495137
0.0001057928803
8.139779792e-05
0.0002106695375
0.0004547732107
0.0004431029462
0.000294172974
0.0001445180158
2.54963603e-05
1.126943359e-06
6.043085645e-08
0.0007717411873
5.020511706e-05
3.639909263e-05
7.569676882e-06
1.358918303e-06
2.224854009e-07
0.002795307533
0.0002380812393
0.0002397788593
0.0002081522246
0.0001621393041
9.481572225e-05
3.701843807e-05
2.470252333e-05
3.153724894e-05
4.575449835e-05
7.490840136e-05
0.0001175574599
0.000155766988
0.000177014499
0.0001764466198
0.000135409302
0.0001405138013
5.865020534e-05
0.0001254661869
7.390836214e-05
1.604310439e-06
7.470187905e-08
1.369797102e-07
0.0001685211983
1.956961132e-05
5.075526952e-05
2.353581526e-06
2.397405269e-07
1.01619879e-08
0.003123220207
0.0002101939104
0.0002500238575
0.0002221617168
0.00016550941
9.149335233e-05
5.045546847e-05
5.225540597e-05
6.762908065e-05
9.067116555e-05
0.0001274130358
0.0001851745844
0.0002504728658
0.0002896357522
0.0002562171557
0.0001532551489
0.0003597572197
0.0001385067933
0.0004593120217
0.0002594251025
1.557108223e-06
8.985941731e-07
1.619596798e-06
9.267239579e-05
2.492256443e-05
0.000177861798
1.149641133e-05
1.186242046e-05
1.417528169e-05
0.003303748412
0.0001090110503
0.0001427620765
0.0001273958099
0.0001115834329
9.722298951e-05
9.852642343e-05
0.0001043011681
0.0001116835944
0.0001171422066
0.0001277431663
0.000158919907
0.0002153925182
0.0002614527234
0.0002129993291
3.025651049e-05
0.0001755889451
0.0003231073777
0.0004945037556
0.0005308777293
0.0003319448302
0.0001362337911
9.696436456e-05
9.089387336e-05
3.099629217e-05
0.000367634209
8.028911034e-06
7.274442344e-06
4.103816397e-06
4.874745292e-06
2.985644162e-05
1.093463827e-07
9.624723701e-07
2.283352133e-05
0.003667930517
7.34092112e-05
0.0001319089486
3.790273096e-05
3.20373099e-05
2.300501222e-05
1.768452311e-05
1.766972949e-05
2.504346277e-05
4.58235283e-05
7.53606731e-05
0.000100293186
0.0001288207204
0.0001536049174
0.0001283408304
4.14214099e-05
5.184587452e-05
6.628608244e-05
5.737547285e-05
3.383885936e-05
9.188934733e-06
1.637809183e-06
1.509376561e-06
5.61563572e-06
6.911261667e-06
0.0002625488137
3.95917086e-05
5.058850521e-05
4.043050251e-05
5.207704613e-05
1.368123159e-05
2.359369628e-05
4.958459203e-05
8.330013512e-06
0.004105905364
8.315277008e-05
0.0001079227805
2.34425463e-05
2.18418358e-05
1.836455793e-05
1.483981101e-05
1.215867189e-05
1.233754296e-05
2.117575941e-05
4.486688032e-05
7.231601252e-05
9.009091998e-05
9.753752066e-05
8.036435267e-05
3.730064716e-05
2.434169561e-05
4.321527174e-05
5.539324846e-05
3.874355406e-05
1.348327352e-06
3.866621166e-07
2.031486361e-07
1.521020102e-07
1.255518053e-06
7.83447944e-05
8.553246513e-05
0.0003433560649
9.459926324e-05
0.0002098740041
5.425010244e-06
2.857530775e-05
0.000118898693
1.239000274e-05
0.004036366567
6.406053505e-05
8.043658427e-05
2.045729971e-05
1.927192671e-05
1.657664422e-05
1.335499927e-05
1.046299338e-05
9.42051513e-06
1.388644531e-05
3.23889006e-05
6.821675465e-05
9.816042594e-05
0.0001004960242
7.504136378e-05
4.02019177e-05
2.343517668e-05
3.752627787e-05
4.544456009e-05
3.595661386e-05
9.021720317e-06
7.709896055e-06
5.618556525e-06
4.215448882e-06
1.299699727e-06
2.023728937e-05
0.0002283746156
0.0002156128946
3.567439966e-05
4.242301587e-05
1.014360054e-05
2.33905161e-05
0.0001320284747
0.002836042929
4.367518484e-05
4.29693194e-05
1.944060164e-05
1.826556e-05
1.616496007e-05
1.387758998e-05
1.232421189e-05
1.300365087e-05
1.952969456e-05
4.40223479e-05
0.0001153441993
0.0002195676091
0.0002151490606
0.0001204238199
4.979100095e-05
2.102714299e-05
2.926455307e-05
3.232361115e-05
3.155944733e-05
5.647543981e-05
0.0001784816774
0.0001228371539
2.889811473e-05
9.800154379e-07
8.911315268e-06
0.0004151840646
7.910196535e-05
3.631436644e-05
3.388279912e-05
4.957233006e-05
2.937884992e-05
0.001719513877
3.264067327e-05
2.730730273e-05
1.857774432e-05
1.796729098e-05
1.738227904e-05
1.772343257e-05
2.112306831e-05
3.34709422e-05
7.471308391e-05
0.0002140756593
0.000494743527
0.0006523916811
0.0005656275035
0.0002609899795
7.261391662e-05
1.551841464e-05
2.364643721e-05
1.956629159e-05
1.166688584e-05
5.692408903e-05
0.0005065361232
0.0005466759885
4.300029191e-05
2.069689694e-06
1.349133783e-05
0.0006130809996
0.0001635768826
2.430342208e-05
4.564138506e-05
7.563116272e-05
1.399939875e-05
0.00155091849
7.680681118e-05
6.355569033e-05
5.118041448e-05
4.525256837e-05
4.070479552e-05
4.077778275e-05
5.34080087e-05
0.0001015384401
0.0002354279234
0.0004090612577
0.0003974587579
0.0003063683372
0.0002321769422
0.0002281232454
9.748139793e-05
1.467629679e-05
2.097755021e-05
1.27553292e-05
4.29893815e-06
8.251542767e-06
0.0002617012132
0.0005267201559
5.233656027e-05
2.721521183e-06
5.42333392e-05
0.001003378674
0.0001257445306
5.590798106e-05
2.890651822e-05
1.907002937e-05
4.7472271e-06
0.002077936751
0.0004706639305
0.0005098402284
0.000459796708
0.000384709251
0.0002902094715
0.0001958900891
0.000140687833
0.0001445604217
0.0001843779548
0.0001624413902
0.0001191622247
9.012156395e-05
4.208217255e-05
4.467314562e-05
6.916263819e-05
1.968076369e-05
1.765498882e-05
8.204365546e-06
1.952417833e-06
7.993001206e-07
0.0001610754724
0.0007344556167
3.830879749e-05
6.174643012e-06
0.0001091288513
0.0005212555658
0.0002302256601
0.0004995908352
0.0001512999479
5.416579622e-05
0.0009764007185
3.912230394e-05
4.77855686e-05
5.066200029e-05
6.433939746e-05
9.548359995e-05
0.0001516326877
0.0001989169197
0.0001879454824
0.0001063872892
5.004359723e-05
5.246505011e-05
7.380090883e-05
2.732149694e-05
1.527309836e-05
3.368854276e-05
2.363152269e-05
1.178167654e-05
4.6410687e-06
1.182139983e-06
3.811339871e-07
8.880503278e-05
0.001079577085
0.0001875563212
2.590791048e-05
0.0001268166275
0.0003629879316
0.0005303853005
0.0007588089204
0.0005053860861
0.0003010477986
0.0007894066843
7.090903688e-06
1.069108635e-05
1.502309526e-05
2.529511074e-05
4.369103469e-05
6.766302213e-05
8.440404392e-05
7.543894874e-05
4.286575367e-05
1.29462697e-05
5.190249584e-06
9.688746355e-05
4.197458651e-05
1.654192382e-05
2.512691138e-05
1.320224354e-05
5.265148387e-06
2.130263682e-06
7.10311554e-07
1.658393298e-06
7.592117182e-05
0.0009011137189
0.001164170317
0.000588667904
0.0002137642413
0.0002289847441
0.0004586977081
0.0006285881619
0.0007964502261
0.0002345420567
0.0009873950254
1.202927157e-05
1.805010147e-05
2.548357439e-05
3.851343296e-05
5.225576538e-05
5.360530476e-05
3.664432289e-05
1.651016775e-05
6.318112744e-06
6.962825449e-06
9.907407767e-06
9.292989974e-05
7.062730505e-05
8.250543524e-06
5.841073558e-06
2.885993008e-06
1.341918134e-06
6.878123923e-07
3.761265041e-07
3.006995051e-06
0.0001744388488
0.0005059543017
0.0003922151632
0.0003618985407
0.0001309774939
9.995359746e-05
0.0003704793999
0.000453758699
0.0001933135352
9.185150206e-06
0.001452419687
3.458766908e-05
5.102063292e-05
6.142725865e-05
6.967476549e-05
6.289106051e-05
4.012622014e-05
1.820236805e-05
7.140834127e-06
3.347629585e-06
9.222076716e-06
0.0001433458253
4.795221397e-05
1.150943662e-05
4.565033581e-06
2.739399266e-06
1.151807865e-06
5.180146035e-07
2.45797165e-07
7.993519589e-08
6.548392072e-07
1.403164322e-06
0.0002807870848
0.0001106210294
0.0001238232203
0.0002050688693
0.0002623749791
0.0002660546918
0.0004967731493
0.0003070316226
2.49458988e-05
0.002305562687
6.507713562e-05
9.012152666e-05
9.951116616e-05
0.0001003285704
7.38220838e-05
4.035739214e-05
2.250768097e-05
2.395779543e-05
4.574048399e-05
8.200851968e-05
0.0001127054713
3.181742347e-05
1.090082172e-05
6.644283141e-06
4.562846101e-06
2.740058021e-06
1.589539458e-06
9.696272217e-07
9.237429731e-07
3.266632283e-06
7.855939704e-05
0.0001257060813
0.0001754224165
0.0003582326235
0.0003617737229
0.0002339798052
0.0001835325162
0.0006353403568
0.0003930771788
0.0001177782587
0.00305009671
0.0001312831875
0.0001688665991
0.0001688669078
0.0001403824377
8.028156978e-05
4.15898729e-05
3.215229872e-05
4.206949474e-05
6.171993858e-05
7.30676565e-05
6.129218156e-05
2.954798611e-05
1.645905467e-05
1.174964459e-05
8.233929746e-06
5.156748691e-06
2.936639021e-06
1.503028058e-06
7.365541178e-07
3.363820062e-06
0.000127915107
7.625179896e-05
0.0003091174067
0.000542211866
0.0002272162877
0.0002903378229
0.0005061713586
0.0007931277669
0.0008454664498
0.0008683375524
0.003377700344
0.0001478901065
0.0001334944008
8.161147653e-05
4.276242902e-05
2.398719129e-05
2.17627694e-05
3.171403383e-05
4.751692769e-05
6.164038535e-05
6.386642135e-05
5.165249889e-05
3.526700472e-05
2.6006619e-05
2.018774618e-05
1.429971735e-05
8.872749191e-06
4.815093683e-06
2.263873089e-06
9.843552993e-07
3.144127966e-06
0.0001313940969
9.264273801e-05
0.0005060539763
0.00110184454
0.0007457091237
0.0009166415579
0.0008229887269
0.001118316237
0.001325512278
0.001084493927
0.00339325417
0.0001120062475
7.098026427e-05
3.101580387e-05
1.340999727e-05
8.286760161e-06
1.100080144e-05
2.03074871e-05
3.647891076e-05
5.163011093e-05
5.707301761e-05
5.339748408e-05
4.763003216e-05
4.276414712e-05
3.445022627e-05
2.440658376e-05
1.475004177e-05
7.703224717e-06
3.352531701e-06
1.16178225e-06
4.165691358e-06
0.0001069817222
0.0001049858289
0.0001324738764
3.478582352e-05
0.0005301603078
0.002302518766
0.001126949525
0.0007860791077
0.000757284942
0.0006690130603
0.003350110966
8.423215646e-05
4.6098643e-05
1.984479727e-05
9.51133012e-06
6.05023185e-06
6.651715904e-06
1.012007661e-05
1.746838057e-05
2.867806598e-05
4.010016906e-05
4.648780477e-05
5.333634789e-05
6.697167471e-05
7.540349989e-05
4.89041169e-05
2.421438027e-05
1.250101546e-05
5.054369827e-06
1.435094267e-06
7.550134228e-06
6.792599026e-05
7.384072411e-05
3.479871949e-05
4.208943118e-06
1.021937624e-05
8.750890357e-05
0.00113733508
0.0009364789336
0.0004254378903
0.0003324887831
0.003363683461
7.136042914e-05
3.641918413e-05
1.599059777e-05
8.292325358e-06
5.180741091e-06
4.713239054e-06
5.660170369e-06
7.676636668e-06
1.080399138e-05
1.776001364e-05
3.126929695e-05
4.313945775e-05
6.603236946e-05
0.0001491926476
0.0001447653841
4.573340178e-05
2.008573024e-05
7.763293726e-06
1.957568895e-06
1.347135943e-05
4.0999317e-05
4.421792972e-05
2.12654812e-05
3.227428437e-06
4.049792158e-06
3.698985484e-06
2.839755086e-05
0.0002482360005
0.0004080661623
0.0001245313463
0.003432010147
7.172696639e-05
3.613294021e-05
1.667210318e-05
9.129498211e-06
5.473912401e-06
4.108286972e-06
3.893410266e-06
4.183457428e-06
4.510778538e-06
7.148940293e-06
1.839103237e-05
3.185455021e-05
5.8271118e-05
0.0002217757406
0.0002968797992
7.234458323e-05
2.967740131e-05
1.248271852e-05
3.755312996e-06
2.074926982e-05
4.066060638e-05
7.694049885e-05
0.000116203372
0.0001326500014
0.0001338510488
0.0001232746101
0.0001115256457
0.0001220267154
0.0001329087857
1.078275669e-05
0.003506079822
8.587934691e-05
4.544926109e-05
2.256791654e-05
1.291336857e-05
7.473393149e-06
4.776772408e-06
3.598991763e-06
3.135649067e-06
2.917098079e-06
4.48886593e-06
1.373098246e-05
2.681223342e-05
6.929045884e-05
0.000289681441
0.0002321349076
8.189632983e-05
4.249658753e-05
2.357951542e-05
1.528143656e-05
2.900856409e-05
3.763562108e-05
6.300093545e-05
0.0001110211605
0.0001729497243
0.000249480751
0.0003258618912
0.0003970490581
0.0003368323037
0.0001137770502
5.702558095e-06
0.0035334213
0.0001150148859
6.865934249e-05
3.71249674e-05
2.230078093e-05
1.276667124e-05
7.421824183e-06
4.827638437e-06
3.75863658e-06
3.538908941e-06
5.185048549e-06
1.523418818e-05
3.001376688e-05
9.494087113e-05
0.0001954946313
0.0001149819419
7.751382138e-05
5.975571916e-05
4.472531293e-05
3.676945229e-05
4.234744887e-05
4.809354085e-05
6.257556254e-05
7.718110032e-05
9.75118481e-05
0.0001722068975
0.0002447263239
0.0003167691788
0.000465977017
0.0002252084845
8.104859517e-06
0.003479999963
0.0001549253316
0.0001109502248
6.679457904e-05
4.24724928e-05
2.461322634e-05
1.369071801e-05
8.334040492e-06
6.4008696e-06
6.486611832e-06
8.74550211e-06
2.017413499e-05
3.99254161e-05
9.580159254e-05
6.849268061e-05
5.607460995e-05
7.066670319e-05
8.004766082e-05
7.229183544e-05
6.040572441e-05
5.98878847e-05
6.847864094e-05
7.919864375e-05
6.845864765e-05
5.004534059e-05
9.758345114e-05
0.0001375400756
0.0001445620487
0.0002147022438
0.000229574451
1.506644507e-05
0.003341085604
0.0001950214807
0.0001692948748
0.0001158896139
8.045585511e-05
4.807350129e-05
2.625153856e-05
1.5386399e-05
1.173790043e-05
1.214108789e-05
1.567823934e-05
2.629503653e-05
4.630447311e-05
6.181257574e-05
2.53361391e-05
3.34646968e-05
6.463062833e-05
9.651794649e-05
9.822092836e-05
7.704734624e-05
7.295003332e-05
8.831020048e-05
9.810875897e-05
6.975776465e-05
3.203541348e-05
6.387888436e-05
8.988951764e-05
0.0001036390141
9.239137985e-05
0.0001410506357
2.829962872e-05
0.003143171331
0.0002226366342
0.00023196238
0.0001757243371
0.0001370912294
8.793731365e-05
4.82403393e-05
2.743964877e-05
2.023003277e-05
2.000118382e-05
2.346042386e-05
3.112530346e-05
3.971323143e-05
3.065756835e-05
1.465430129e-05
2.526760659e-05
5.926845951e-05
0.0001086646995
0.0001324273127
0.0001231183125
0.0001216012466
9.989466018e-05
0.0001065786239
7.01278693e-05
2.396678285e-05
4.668616254e-05
7.166622681e-05
0.000103960281
6.106460897e-05
8.126967028e-05
4.948591414e-05
0.002936951326
0.0002257858487
0.0002830934918
0.0002297508249
0.0001988879044
0.0001409915919
8.159245077e-05
4.5619043e-05
3.178483928e-05
2.866144134e-05
2.919975061e-05
3.059728867e-05
2.778933207e-05
1.598913015e-05
1.12168273e-05
2.149508402e-05
5.328071536e-05
0.0001098380208
0.0001583052845
0.0001857638433
0.0001917607638
0.0001074687618
0.0001058067391
6.68956477e-05
1.866409176e-05
3.576410759e-05
5.734572377e-05
0.0001051788009
5.36086731e-05
5.968677271e-05
8.131977328e-05
0.002825744451
0.0002065940154
0.0003150680712
0.0002734494211
0.0002482668438
0.0001928559036
0.0001222222117
6.986682221e-05
4.562507616e-05
3.66548096e-05
3.194679871e-05
2.696509961e-05
1.90121146e-05
1.061909408e-05
9.74551258e-06
1.851928034e-05
4.444661786e-05
9.276584989e-05
0.0001323258547
0.0001252443119
9.487057305e-05
0.0001101882472
0.0001031215992
6.167451701e-05
1.458874749e-05
2.745623619e-05
4.251146413e-05
0.0001015722088
5.72955506e-05
5.698562375e-05
0.000120987245
0.003225125853
0.0001933069082
0.0004051684821
0.0004118183328
0.0002886271965
0.0002291023412
0.0001594451117
9.703728348e-05
6.031306075e-05
4.313986154e-05
3.263903866e-05
2.346328882e-05
1.468470308e-05
9.081922084e-06
9.216454844e-06
1.596478057e-05
3.520680601e-05
7.169434375e-05
9.885472189e-05
8.49922414e-05
6.185750543e-05
0.000106379397
0.0001013241865
5.643551183e-05
1.174570861e-05
2.144593085e-05
3.187192699e-05
9.180003332e-05
6.786145433e-05
6.181807806e-05
0.0001634355244
0.005714285742
0.0001430459753
0.0007339597658
0.003900646521
0.0006558785174
0.0002653093259
0.0001944120147
0.0001200270647
7.357607828e-05
4.779532839e-05
3.254547303e-05
2.145496922e-05
1.340574735e-05
9.331048604e-06
9.443255379e-06
1.413080855e-05
2.727230581e-05
5.264187538e-05
7.16143399e-05
5.56686664e-05
2.175478869e-05
9.351599201e-05
0.0001022076293
5.304009989e-05
1.018156612e-05
1.789877371e-05
2.657355277e-05
7.15051395e-05
8.264282423e-05
7.370767469e-05
0.000203661809
0.01093386095
0.0004709668289
0.001890622249
0.001717947223
0.005144898425
0.0007451593768
0.000345909336
0.0001331255951
8.216688774e-05
5.045052672e-05
3.240871746e-05
2.10588034e-05
1.418106349e-05
1.105739628e-05
1.090130571e-05
1.365510549e-05
2.127430581e-05
3.586018982e-05
4.556628645e-05
2.627072627e-05
9.719298831e-06
6.778799601e-05
0.0001069810133
5.387290947e-05
9.85368302e-06
1.642968617e-05
5.395941059e-05
4.675415922e-05
9.415293946e-05
9.640969117e-05
0.0002395008438
0.01104397534
0.001565675612
0.002112229481
0.001091500317
0.0006989899338
0.001237683113
0.004235954797
0.0002337170064
0.0001033874471
6.464179151e-05
4.725700976e-05
3.715177027e-05
3.070711167e-05
2.652432917e-05
2.381765344e-05
2.271071031e-05
2.437777754e-05
2.938434445e-05
3.077581932e-05
1.550501073e-05
5.649609903e-06
3.569869081e-05
0.0001137372163
6.196533623e-05
1.250360069e-05
1.902334502e-05
0.0002816759251
4.414401552e-05
0.0001422971458
0.0001605329572
0.0002807986203
0.0103282457
0.001317301544
0.001416231958
0.0001758357288
3.206848855e-06
3.163322172e-05
0.0002971763295
0.00025634753
0.0001153049348
7.517524312e-05
5.718090012e-05
4.856603918e-05
4.346597235e-05
3.844544931e-05
3.268511503e-05
2.739389333e-05
2.39406279e-05
2.240770079e-05
1.96900607e-05
1.118572111e-05
4.048294106e-06
1.295590011e-05
9.798165616e-05
8.980768659e-05
2.24666629e-05
2.672315413e-05
0.001159844096
5.316080756e-05
6.999804698e-05
0.0001640135885
0.0003806976735
0.0131189481
0.007302509821
0.01315973986
0.006875615617
0.002802985511
0.002034700515
0.002576229328
0.002869384734
0.002904592929
0.003133145633
0.00333918075
0.003483032656
0.003515926913
0.003393074927
0.003103087508
0.002692730968
0.00225441393
0.001869880897
0.001553473023
0.001252806989
0.0009381984504
0.0008612955911
0.001843535219
0.002476338402
0.001750319223
0.001905681669
0.004936294893
0.002285464336
0.002380047746
0.002408394704
0.002800587782
)
;

boundaryField
{
    walls
    {
        type            zeroGradient;
    }
    wallFilmFace_top
    {
        type            zeroGradient;
    }
    region0_to_wallFilmRegion_wallFilmFace
    {
        type            zeroGradient;
    }
    mirrorFace_top
    {
        type            zeroGradient;
    }
    region0_to_wallFilmRegion_mirrorFace
    {
        type            zeroGradient;
    }
    procBoundary1to0
    {
        type            processor;
        value           nonuniform List<scalar> 
52
(
0.002425581214
2.228954594e-05
2.074987182e-05
1.77753973e-05
3.292046044e-05
8.217765856e-05
0.0002148242931
0.0004943826412
0.0004943826412
0.0004392702903
0.0001991621184
0.0001461648195
0.0001020480203
0.0001020480203
7.554542212e-05
3.986746046e-05
3.986746046e-05
6.492229702e-05
0.0002195281808
0.0004175917357
0.0001758872809
0.0001758872809
0.000122194827
5.983762059e-05
5.983762059e-05
2.455883896e-05
8.72460356e-06
4.530408402e-05
0.000181753078
0.000181753078
0.0003465837213
0.0002755733898
0.0002755733898
5.739032404e-05
5.503641916e-05
5.503641916e-05
0.000375041412
0.001030442132
0.001944457179
0.001944457179
0.001084052795
0.001084052795
1.050414613e-06
5.473044987e-08
3.382026875e-05
3.382026875e-05
4.268348316e-05
7.003651594e-07
7.046491662e-07
6.182538984e-05
1.852717302e-05
4.735528596e-05
)
;
    }
    procBoundary1to2
    {
        type            processor;
        value           nonuniform List<scalar> 
33
(
5.076874225e-05
5.626446502e-06
5.626446502e-06
3.938939217e-05
3.938939217e-05
1.203021558e-05
2.757963265e-05
4.842390096e-05
4.842390096e-05
0.0001674761002
4.519942967e-05
3.713745945e-07
4.940589728e-06
1.305756958e-05
2.448586352e-05
8.005739033e-05
0.0003896135893
0.0007055391122
0.0005298725138
0.0002075729361
6.968653813e-05
3.88638656e-05
3.404877906e-05
3.968923838e-05
5.319345468e-05
7.243483126e-05
8.762277795e-05
9.578288086e-05
9.04776157e-05
7.924767501e-05
9.431292443e-05
0.0001941010771
0.004633796169
)
;
    }
}


// ************************************************************************* //
