/*--------------------------------*- C++ -*----------------------------------*\
  =========                 |
  \\      /  F ield         | OpenFOAM: The Open Source CFD Toolbox
   \\    /   O peration     | Website:  https://openfoam.org
    \\  /    A nd           | Version:  8
     \\/     M anipulation  |
\*---------------------------------------------------------------------------*/
FoamFile
{
    version     2.0;
    format      ascii;
    class       volScalarField;
    location    "0.8/wallFilmRegion";
    object      kappa;
}
// * * * * * * * * * * * * * * * * * * * * * * * * * * * * * * * * * * * * * //

dimensions      [1 1 -3 -1 0 0 0];

internalField   nonuniform List<scalar> 
1369
(
0.6088100033
0.6088100059
0.6088100064
0.6088100049
0.6088100025
0.6088100007
0.6088099998
0.6088100033
0.6088100054
0.6088100057
0.6088100039
0.6088100018
0.6088100002
0.6088099994
0.608809999
0.6088099987
0.6088099988
0.6088099993
0.6088100033
0.6088100045
0.6088100046
0.6088100027
0.608810001
0.6088099997
0.608809999
0.6088099987
0.6088099986
0.6088099989
0.6088099994
0.6088099999
0.6088100002
0.6088100034
0.6088100041
0.6088100035
0.6088100019
0.6088100007
0.6088099996
0.6088099989
0.6088099986
0.6088099987
0.6088099992
0.6088099997
0.6088100001
0.6088100005
0.6088100008
0.6088099987
0.6088099982
0.6088099982
0.6088100034
0.608810004
0.6088100028
0.6088100018
0.6088100009
0.6088099999
0.6088099992
0.6088099991
0.6088099993
0.6088099996
0.60881
0.6088100004
0.6088100007
0.6088100006
0.6088099977
0.6088099974
0.6088099975
0.6088099979
0.6088099988
0.6088100034
0.6088100035
0.6088100024
0.6088100021
0.6088100017
0.608810001
0.6088100003
0.60881
0.6088099999
0.60881
0.6088100003
0.6088100008
0.6088100006
0.6088099986
0.6088099964
0.6088099967
0.6088099972
0.6088099979
0.6088099998
0.6088100014
0.6088100055
0.6088100197
0.6088100179
0.6088100033
0.6088100022
0.6088100021
0.6088100022
0.6088100028
0.6088100041
0.608810006
0.6088100055
0.6088100028
0.6088100002
0.608809999
0.6088099987
0.6088099979
0.6088099965
0.6088099959
0.6088099964
0.6088099972
0.6088100667
0.608810025
0.608810069
0.608810133
0.6088101312
0.6088100207
0.6088099987
0.608809995
0.608810003
0.6088100018
0.6088100018
0.6088100021
0.6088100029
0.6088100047
0.6088100077
0.6088100086
0.6088100055
0.6088100018
0.6088099994
0.6088099986
0.608809998
0.608809997
0.6088099967
0.6088099968
0.6088099973
0.6088100537
0.608810012
0.6088100994
0.6088100751
0.6088103192
0.6088100039
0.6088099972
0.6088099954
0.6088099951
0.608810003
0.6088100019
0.6088100019
0.6088100022
0.6088100031
0.6088100049
0.6088100077
0.608810009
0.6088100065
0.6088100027
0.6088099998
0.6088099987
0.6088099982
0.6088099977
0.6088099977
0.6088099972
0.6088099974
0.6088100682
0.608809998
0.6088099901
0.608810005
0.6088100628
0.6088100036
0.6088099949
0.6088099983
0.608809997
0.6088100029
0.6088100017
0.6088100019
0.6088100023
0.6088100031
0.6088100045
0.6088100069
0.6088100079
0.6088100049
0.6088100017
0.6088099994
0.6088099985
0.6088099982
0.6088099984
0.6088099985
0.6088099973
0.6088099973
0.6088100003
0.6088099936
0.6088099878
0.6088099951
0.6088100171
0.608809997
0.6088099884
0.6088099921
0.608810002
0.6088099966
0.6088100027
0.6088100017
0.608810002
0.6088100023
0.6088100029
0.6088100038
0.6088100053
0.6088100071
0.6088100048
0.6088100035
0.6088100006
0.6088099996
0.6088099996
0.6088099998
0.6088099994
0.6088099973
0.6088099974
0.6088100033
0.6088100238
0.6088101072
0.6088122105
0.6088136305
0.6088127111
0.608809994
0.6088100089
0.6088100041
0.6088099986
0.6088100027
0.6088100018
0.6088100023
0.6088100027
0.6088100031
0.6088100035
0.6088100037
0.6088100037
0.6088100031
0.6088100027
0.6088100019
0.6088100007
0.6088100004
0.6088100001
0.6088099996
0.6088099976
0.6088099976
0.6088100083
0.6088100094
0.6088100371
0.6088105041
0.6088120823
0.6088135975
0.608810001
0.6088100147
0.6088100056
0.6088100012
0.6088100029
0.608810002
0.608810002
0.6088100022
0.6088100024
0.6088100027
0.6088100029
0.6088100029
0.6088100023
0.6088100014
0.6088100007
0.6088100005
0.6088100004
0.6088100003
0.6088100003
0.6088100004
0.6088099982
0.6088100121
0.6088100019
0.6088100095
0.6088100477
0.6088104848
0.6088125344
0.608809999
0.6088100073
0.6088100069
0.6088100053
0.6088099969
0.6088100028
0.6088100018
0.6088100016
0.6088100016
0.6088100018
0.608810002
0.6088100023
0.608810002
0.6088100013
0.6088100008
0.6088100005
0.6088100003
0.6088100003
0.6088100003
0.6088100003
0.6088100004
0.6088099999
0.60881
0.6088100002
0.6088100017
0.608810005
0.6088100389
0.6088108067
0.6088100003
0.6088100062
0.6088100086
0.6088100189
0.6088100734
0.6088102253
0.6088100027
0.6088100018
0.6088100016
0.6088100016
0.6088100018
0.6088100024
0.6088100044
0.6088100057
0.608810004
0.6088100023
0.6088100012
0.6088100006
0.6088100004
0.6088100003
0.6088100002
0.6088100003
0.6088100001
0.6088100011
0.6088100004
0.6088100044
0.6088100548
0.6088106984
0.608810775
0.6088100046
0.6088100172
0.608810008
0.6088100679
0.6088102478
0.6088120356
0.6088100027
0.6088100021
0.6088100019
0.6088100019
0.6088100021
0.6088100028
0.6088100036
0.6088100026
0.6088100016
0.608810001
0.6088100007
0.6088100005
0.6088100003
0.6088100002
0.6088100002
0.6088100002
0.6088100001
0.6088100005
0.6088099998
0.6088100006
0.6088100801
0.6088101385
0.6088101507
0.6088100099
0.6088100288
0.6088100062
0.6088100315
0.608810026
0.6088100201
0.6088100025
0.6088100026
0.6088100024
0.6088100025
0.6088100026
0.6088100025
0.6088100017
0.6088100011
0.6088100008
0.6088100006
0.6088100005
0.6088100004
0.6088100003
0.6088100003
0.6088100003
0.608810001
0.6088100003
0.6088100003
0.6088100002
0.6088100004
0.6088100007
0.6088100028
0.6088100088
0.6088100106
0.6088100286
0.6088100057
0.6088100282
0.608810024
0.6088100282
0.6088100154
0.608809995
0.6088109988
0.6088100925
0.6088100128
0.6088100023
0.6088100036
0.6088100037
0.6088100041
0.6088100045
0.6088100053
0.6088100061
0.6088100057
0.6088100039
0.608810002
0.608810001
0.6088100006
0.6088100004
0.6088100004
0.6088100005
0.6088100017
0.6088100038
0.6088100059
0.608810008
0.6088100102
0.608810015
0.6088100518
0.6088100612
0.6088100273
0.6088100402
0.6088100064
0.6088100083
0.6088099994
0.6088099963
0.608809994
0.6088100005
0.6088100001
0.6088099938
0.6088100149
0.6088100021
0.6088100035
0.6088100043
0.6088100053
0.6088100057
0.6088100063
0.6088100072
0.6088100079
0.608810007
0.6088100039
0.6088100017
0.6088100008
0.6088100006
0.6088100005
0.6088100007
0.6088100021
0.6088100068
0.6088100073
0.6088100067
0.6088100088
0.6088100774
0.6088101145
0.6088101687
0.6088101982
0.6088100714
0.6088100074
0.6088100055
0.6088099994
0.6088099946
0.6088099927
0.6088100193
0.6088100042
0.6088099945
0.6088100116
0.6088100019
0.608810004
0.6088100048
0.6088100059
0.6088100062
0.6088100068
0.6088100078
0.608810009
0.608810009
0.6088100057
0.6088100024
0.608810001
0.6088100006
0.6088100005
0.6088100008
0.6088100019
0.6088100061
0.6088100065
0.6088100056
0.608810006
0.6088100106
0.6088100111
0.6088100146
0.6088100185
0.6088100501
0.6088100098
0.608810003
0.6088100016
0.6088099982
0.6088099997
0.6088100207
0.6088100035
0.6088099966
0.608810002
0.608810005
0.6088100054
0.6088100062
0.6088100064
0.6088100069
0.6088100074
0.6088100074
0.608810006
0.6088100029
0.6088100003
0.6088099993
0.6088099992
0.6088099997
0.6088100004
0.6088100015
0.6088100062
0.6088100063
0.6088100056
0.6088100061
0.6088100049
0.608810003
0.6088100031
0.6088100062
0.608810065
0.6088100126
0.6088100024
0.6088100094
0.6088100083
0.6088100068
0.6088100031
0.6088100085
0.6088100022
0.6088100053
0.6088100058
0.6088100063
0.6088100063
0.6088100061
0.6088100054
0.6088100039
0.6088100016
0.6088099997
0.6088099988
0.6088099985
0.6088099983
0.6088099987
0.6088099994
0.6088100011
0.6088100077
0.6088100063
0.6088100065
0.6088100101
0.6088100098
0.6088100014
0.6088099993
0.6088100045
0.6088100515
0.6088100084
0.6088100031
0.6088100041
0.6088100074
0.6088099978
0.6088099942
0.6088100171
0.6088100025
0.6088100041
0.6088100043
0.6088100043
0.6088100041
0.6088100037
0.6088100028
0.6088100014
0.6088100002
0.6088099994
0.6088099989
0.6088099978
0.6088099971
0.6088099994
0.6088099992
0.6088100006
0.6088100079
0.6088100064
0.6088100078
0.6088100165
0.6088100165
0.6088099992
0.6088099971
0.608810001
0.608810066
0.6088100043
0.6088100024
0.6088100025
0.6088100041
0.6088100047
0.6088100005
0.6088100175
0.6088100022
0.608810002
0.6088100018
0.6088100017
0.6088100015
0.6088100014
0.6088100012
0.6088100008
0.6088100001
0.608809999
0.6088099958
0.6088099876
0.6088099842
0.6088100025
0.6088100016
0.6088100015
0.6088100074
0.6088100069
0.6088100103
0.6088100277
0.608810108
0.6088099993
0.6088099962
0.6088099984
0.6088100128
0.6088100034
0.6088100024
0.6088100016
0.6088100013
0.6088100033
0.6088100025
0.6088099918
0.6088100035
0.6088100033
0.6088100029
0.6088100024
0.6088100018
0.6088100013
0.6088100007
0.6088099996
0.6088099956
0.6088099792
0.6088099655
0.6088099702
0.6088100045
0.6088100069
0.6088100058
0.608810007
0.6088100083
0.6088100154
0.6088100406
0.6088101621
0.60881
0.6088099956
0.6088099974
0.6088100018
0.6088100028
0.6088100024
0.608810001
0.6088100008
0.6088099996
0.6088099934
0.6088099981
0.608810008
0.6088100068
0.6088100054
0.6088100042
0.6088100033
0.6088100028
0.6088100026
0.6088100027
0.6088100033
0.6088100051
0.6088100081
0.6088100024
0.6088100042
0.6088100071
0.6088100064
0.6088100078
0.6088100122
0.6088100275
0.6088100618
0.6088100586
0.6088099987
0.608809995
0.6088099952
0.6088099948
0.6088099973
0.6088099752
0.6088099757
0.6088099856
0.6088099924
0.6088099694
0.608810001
0.6088100054
0.6088100047
0.6088100039
0.6088100033
0.608810003
0.608810003
0.6088100036
0.6088100052
0.6088100086
0.6088100071
0.6088100054
0.6088100022
0.6088100029
0.6088100118
0.6088100111
0.608810014
0.6088100223
0.6088100566
0.6088100898
0.6088100366
0.6088099966
0.6088099953
0.6088099948
0.6088099948
0.608809996
0.6088099667
0.6088099557
0.6088099488
0.6088099391
0.6088098928
0.6088100019
0.6088100033
0.6088100029
0.6088100026
0.6088100025
0.6088100027
0.6088100034
0.6088100051
0.6088100082
0.6088100107
0.6088100079
0.6088100026
0.6088100034
0.608810007
0.6088100128
0.6088100158
0.6088100301
0.6088100662
0.608810134
0.6088103021
0.6088100643
0.6088100501
0.6088099958
0.6088099966
0.6088099978
0.608809998
0.6088099974
0.6088099948
0.608809965
0.6088099517
0.6088099289
0.6088100021
0.6088100024
0.6088100023
0.6088100022
0.6088100023
0.6088100026
0.6088100035
0.6088100047
0.6088100045
0.6088100035
0.608810003
0.6088100027
0.6088100041
0.6088100073
0.6088100098
0.6088100128
0.6088100205
0.6088100354
0.6088100536
0.6088100441
0.6088100142
0.608809996
0.6088099964
0.6088099978
0.6088099977
0.6088099974
0.6088099971
0.6088099924
0.6088099791
0.6088099671
0.6088099702
0.6088100021
0.6088100019
0.6088100018
0.6088100018
0.608810002
0.6088100027
0.6088100039
0.6088100047
0.6088100042
0.6088100035
0.6088100031
0.6088100031
0.6088100041
0.6088100055
0.6088100068
0.608810009
0.608810014
0.6088100237
0.6088100407
0.6088100579
0.6088100183
0.6088099961
0.6088099976
0.608809998
0.6088099969
0.6088099965
0.6088099941
0.6088099908
0.6088099882
0.6088099886
0.6088099936
0.6088100021
0.6088100019
0.608810002
0.6088100024
0.6088100034
0.6088100052
0.6088100061
0.6088100053
0.6088100044
0.6088100037
0.6088100033
0.6088100033
0.6088100037
0.6088100042
0.6088100048
0.6088100063
0.6088100095
0.6088100163
0.60881003
0.6088100506
0.6088100237
0.6088099964
0.6088099987
0.6088099994
0.6088099987
0.6088099968
0.6088099936
0.6088099931
0.6088099939
0.6088099956
0.6088099962
0.6088100021
0.6088100022
0.6088100026
0.6088100039
0.6088100071
0.6088100104
0.6088100088
0.6088100066
0.6088100052
0.6088100043
0.6088100037
0.6088100035
0.6088100034
0.6088100034
0.6088100036
0.6088100044
0.6088100065
0.6088100111
0.6088100217
0.6088100443
0.6088100204
0.6088099972
0.6088099994
0.6088100019
0.6088100046
0.6088099992
0.6088099961
0.6088099944
0.6088099954
0.6088099964
0.6088099966
0.6088100022
0.6088100026
0.6088100034
0.6088100055
0.6088100097
0.6088100138
0.6088100124
0.6088100092
0.6088100069
0.6088100055
0.6088100046
0.608810004
0.6088100035
0.608810003
0.6088100029
0.6088100033
0.6088100046
0.6088100076
0.6088100152
0.6088100364
0.608810013
0.6088099984
0.6088100002
0.6088100027
0.6088100139
0.6088100089
0.6088100019
0.6088099974
0.6088099968
0.6088099968
0.6088099971
0.6088100023
0.6088100028
0.608810004
0.6088100065
0.608810011
0.6088100161
0.6088100167
0.6088100137
0.6088100104
0.6088100081
0.6088100067
0.6088100051
0.608810004
0.6088100032
0.6088100027
0.6088100031
0.6088100036
0.6088100053
0.6088100104
0.6088100274
0.6088100088
0.6088100002
0.6088100016
0.6088100031
0.6088100131
0.6088100125
0.6088100135
0.6088100029
0.6088099992
0.6088099983
0.6088099978
0.6088100024
0.6088100029
0.6088100041
0.6088100065
0.6088100104
0.6088100159
0.6088100197
0.6088100193
0.6088100165
0.6088100135
0.6088100108
0.6088100068
0.6088100047
0.6088100034
0.6088100029
0.6088100037
0.6088100034
0.6088100042
0.6088100072
0.6088100167
0.6088100073
0.6088100018
0.6088100009
0.6088100001
0.6088099998
0.6088099997
0.6088099997
0.6088099996
0.6088099993
0.6088099987
0.6088100023
0.6088100026
0.6088100028
0.6088100037
0.6088100054
0.6088100082
0.6088100128
0.6088100183
0.608810022
0.6088100225
0.6088100209
0.6088100152
0.6088100077
0.608810005
0.6088100035
0.6088100038
0.6088100043
0.6088100036
0.6088100036
0.6088100048
0.6088100065
0.6088100049
0.6088100023
0.6088100012
0.6088100005
0.6088100002
0.6088100001
0.6088100001
0.6088100001
0.6088099999
0.6088099996
0.608810008
0.6088100027
0.6088100027
0.6088100031
0.6088100041
0.6088100057
0.6088100086
0.6088100132
0.6088100182
0.608810021
0.6088100202
0.6088100144
0.608810007
0.6088100049
0.608810004
0.6088100049
0.6088100049
0.6088100037
0.6088100031
0.6088100032
0.6088100033
0.6088100028
0.6088100018
0.6088100012
0.6088100008
0.6088100006
0.6088100004
0.6088100005
0.6088100007
0.6088100007
0.6088100002
0.6088100066
0.6088100029
0.6088100026
0.6088100028
0.6088100032
0.608810004
0.6088100056
0.6088100084
0.6088100121
0.6088100144
0.6088100136
0.6088100105
0.6088100061
0.6088100049
0.6088100049
0.6088100065
0.6088100053
0.6088100037
0.6088100028
0.6088100023
0.6088100021
0.6088100017
0.6088100012
0.608810001
0.608810001
0.6088100012
0.6088100008
0.608810001
0.6088100019
0.6088100016
0.6088100005
0.6088100037
0.6088100031
0.6088100027
0.6088100027
0.6088100028
0.6088100031
0.6088100039
0.6088100055
0.6088100078
0.6088100095
0.6088100092
0.6088100077
0.6088100059
0.6088100055
0.6088100065
0.6088100083
0.6088100055
0.6088100036
0.6088100025
0.6088100019
0.6088100016
0.6088100013
0.608810001
0.6088100008
0.6088100009
0.6088100017
0.6088100013
0.6088100019
0.6088100037
0.6088100024
0.6088100009
0.6088100018
0.6088100033
0.6088100029
0.6088100027
0.6088100026
0.6088100028
0.6088100031
0.608810004
0.6088100055
0.6088100069
0.6088100071
0.6088100068
0.6088100063
0.6088100068
0.6088100087
0.6088100098
0.6088100057
0.6088100036
0.6088100024
0.6088100018
0.6088100014
0.6088100011
0.6088100009
0.6088100008
0.6088100008
0.6088100023
0.608810002
0.6088100033
0.6088100049
0.6088100027
0.6088100012
0.6088100008
0.6088100035
0.6088100031
0.6088100029
0.6088100027
0.6088100027
0.6088100028
0.6088100034
0.6088100044
0.6088100055
0.6088100062
0.6088100066
0.6088100071
0.6088100085
0.6088100116
0.6088100111
0.6088100062
0.6088100038
0.6088100026
0.6088100019
0.6088100017
0.6088100015
0.6088100009
0.6088100008
0.6088100008
0.6088100029
0.608810003
0.6088100055
0.6088100055
0.6088100028
0.6088100013
0.6088100002
0.6088100037
0.6088100035
0.6088100031
0.6088100028
0.6088100027
0.6088100028
0.6088100031
0.6088100038
0.6088100048
0.6088100057
0.6088100066
0.6088100079
0.6088100104
0.6088100142
0.6088100125
0.6088100073
0.6088100043
0.6088100029
0.6088100023
0.6088100021
0.6088100018
0.6088100011
0.6088100008
0.6088100009
0.6088100038
0.6088100045
0.6088100082
0.6088100061
0.6088100029
0.6088100013
0.60881
0.6088100039
0.6088100039
0.6088100035
0.6088100031
0.6088100028
0.6088100028
0.608810003
0.6088100035
0.6088100043
0.6088100053
0.6088100065
0.6088100083
0.6088100115
0.6088100152
0.6088100137
0.6088100088
0.6088100053
0.6088100036
0.6088100029
0.6088100029
0.6088100025
0.6088100014
0.608810001
0.6088100009
0.6088100051
0.6088100067
0.6088100109
0.608810007
0.6088100032
0.6088100013
0.6088099999
0.6088100042
0.6088100049
0.6088100045
0.6088100037
0.6088100033
0.6088100028
0.6088100029
0.6088100032
0.6088100039
0.6088100048
0.6088100062
0.6088100082
0.6088100113
0.6088100144
0.608810014
0.6088100104
0.6088100068
0.6088100046
0.6088100038
0.6088100042
0.6088100036
0.6088100018
0.6088100012
0.608810001
0.6088100066
0.608810009
0.6088100129
0.6088100083
0.6088100039
0.6088100014
0.60881
0.6088100043
0.6088100046
0.6088100038
0.6088100036
0.6088100039
0.6088100031
0.6088100028
0.608810003
0.6088100035
0.6088100044
0.6088100057
0.6088100075
0.60881001
0.6088100122
0.6088100128
0.6088100111
0.6088100083
0.608810006
0.6088100049
0.6088100057
0.6088100053
0.6088100025
0.6088100016
0.6088100011
0.6088100079
0.6088100107
0.6088100075
0.6088100104
0.6088100048
0.6088100019
0.6088100004
0.6088100035
0.6088100032
0.6088100031
0.6088100032
0.6088100033
0.6088100034
0.6088100036
0.6088100027
0.6088100031
0.6088100038
0.6088100048
0.6088100059
0.608810007
0.608810008
0.6088100087
0.6088100088
0.6088100081
0.6088100068
0.6088100059
0.6088100069
0.6088100096
0.6088100039
0.6088100023
0.6088100014
0.6088100083
0.6088100107
0.608810002
0.6088100117
0.6088100075
0.6088100032
0.608810001
0.608810003
0.6088100028
0.6088100031
0.6088100036
0.6088100152
0.6088100044
0.6088100032
0.6088100025
0.6088100028
0.6088100032
0.6088100037
0.6088100042
0.6088100046
0.608810005
0.6088100055
0.6088100059
0.6088100061
0.6088100059
0.6088100057
0.6088100066
0.6088100111
0.6088100065
0.608810003
0.6088100018
0.6088100067
0.608810009
0.608810001
0.6088100083
0.6088100097
0.608810005
0.6088100019
0.6088100027
0.6088100026
0.6088100031
0.6088100042
0.6088100046
0.6088100044
0.608810004
0.6088100037
0.6088100036
0.6088100035
0.6088100034
0.6088100032
0.608810003
0.6088100028
0.6088100025
0.6088100023
0.608810002
0.6088100017
0.6088100014
0.6088100014
0.6088100015
0.6088100023
0.6088100026
0.6088100028
0.6088100037
0.608810003
0.6088100008
0.6088100027
0.608810003
0.6088100031
0.6088100031
)
;

boundaryField
{
    walls
    {
        type            zeroGradient;
    }
    wallFilmFace_top
    {
        type            zeroGradient;
    }
    region0_to_wallFilmRegion_wallFilmFace
    {
        type            zeroGradient;
    }
    mirrorFace_top
    {
        type            zeroGradient;
    }
    region0_to_wallFilmRegion_mirrorFace
    {
        type            zeroGradient;
    }
    procBoundary1to0
    {
        type            processor;
        value           nonuniform List<scalar> 
52
(
0.6088100033
0.6088100059
0.6088100064
0.6088100052
0.6088100031
0.6088100013
0.6088100003
0.6088099994
0.6088099994
0.6088099991
0.6088099989
0.6088099993
0.6088099997
0.6088099997
0.6088100001
0.6088100006
0.6088100006
0.6088100008
0.6088100021
0.6088100024
0.6088099986
0.6088099986
0.60881
0.6088100005
0.6088100005
0.6088100043
0.6088100163
0.6088100102
0.6088099975
0.6088099975
0.6088099947
0.6088099945
0.6088099945
0.6088099949
0.6088099962
0.6088099962
0.6088099957
0.608809996
0.6088099963
0.6088099963
0.6088099941
0.6088099941
0.6088100594
0.6088107472
0.6088100112
0.6088100112
0.6088099992
0.6088102515
0.6088101479
0.6088100075
0.6088100035
0.6088100002
)
;
    }
    procBoundary1to2
    {
        type            processor;
        value           nonuniform List<scalar> 
33
(
0.6088100021
0.6088100142
0.6088100142
0.6088099998
0.6088099998
0.6088100081
0.6088100024
0.6088100017
0.6088100017
0.6088099886
0.6088099567
0.6088099579
0.6088099656
0.6088099732
0.6088099795
0.6088099909
0.6088099949
0.6088099963
0.6088099968
0.6088099974
0.6088099983
0.6088099995
0.6088100002
0.6088100004
0.6088100004
0.6088100007
0.6088100014
0.6088100028
0.6088100046
0.6088100062
0.6088100068
0.6088100059
0.6088100034
)
;
    }
}


// ************************************************************************* //
