/*--------------------------------*- C++ -*----------------------------------*\
  =========                 |
  \\      /  F ield         | OpenFOAM: The Open Source CFD Toolbox
   \\    /   O peration     | Website:  https://openfoam.org
    \\  /    A nd           | Version:  8
     \\/     M anipulation  |
\*---------------------------------------------------------------------------*/
FoamFile
{
    version     2.0;
    format      ascii;
    class       volScalarField;
    location    "0.8/wallFilmRegion";
    object      mu;
}
// * * * * * * * * * * * * * * * * * * * * * * * * * * * * * * * * * * * * * //

dimensions      [1 -1 -1 0 0 0 0];

internalField   nonuniform List<scalar> 
1369
(
0.0008861473649
0.0008861473285
0.0008861473206
0.0008861473414
0.0008861473748
0.0008861474
0.0008861474128
0.0008861473647
0.0008861473352
0.0008861473311
0.0008861473559
0.0008861473859
0.0008861474079
0.0008861474192
0.0008861474245
0.0008861474281
0.0008861474278
0.0008861474203
0.000886147364
0.0008861473471
0.0008861473467
0.0008861473729
0.0008861473958
0.0008861474139
0.0008861474243
0.0008861474288
0.0008861474304
0.0008861474264
0.0008861474183
0.0008861474123
0.0008861474071
0.0008861473631
0.0008861473525
0.0008861473615
0.0008861473833
0.0008861474003
0.0008861474162
0.000886147426
0.0008861474294
0.000886147428
0.0008861474218
0.0008861474146
0.0008861474087
0.0008861474036
0.0008861473993
0.0008861474289
0.0008861474349
0.0008861474357
0.0008861473623
0.0008861473552
0.0008861473718
0.0008861473852
0.0008861473976
0.0008861474121
0.0008861474213
0.0008861474232
0.0008861474205
0.0008861474157
0.00088614741
0.0008861474042
0.0008861473999
0.0008861474023
0.000886147443
0.0008861474464
0.000886147445
0.0008861474397
0.0008861474274
0.0008861473624
0.0008861473613
0.000886147377
0.0008861473815
0.0008861473861
0.000886147396
0.0008861474064
0.000886147411
0.0008861474111
0.00088614741
0.0008861474056
0.0008861473992
0.0008861474024
0.0008861474297
0.0008861474612
0.0008861474566
0.0008861474494
0.0008861474394
0.0008861474137
0.0008861473905
0.0008861473335
0.0008861471347
0.0008861471608
0.0008861473644
0.0008861473796
0.0008861473815
0.0008861473796
0.0008861473719
0.0008861473529
0.0008861473266
0.0008861473332
0.0008861473719
0.000886147408
0.0008861474239
0.000886147429
0.0008861474399
0.0008861474597
0.0008861474681
0.0008861474605
0.0008861474496
0.0008861464786
0.0008861470613
0.0008861464475
0.0008861455529
0.0008861455782
0.0008861471212
0.000886147428
0.0008861474807
0.0008861473679
0.0008861473848
0.0008861473848
0.0008861473815
0.0008861473704
0.0008861473444
0.0008861473034
0.0008861472906
0.0008861473337
0.0008861473855
0.0008861474183
0.0008861474297
0.0008861474387
0.0008861474517
0.0008861474562
0.000886147455
0.0008861474484
0.0008861466609
0.0008861472422
0.0008861460227
0.0008861463617
0.0008861429539
0.0008861473557
0.000886147449
0.0008861474747
0.0008861474781
0.0008861473681
0.0008861473843
0.0008861473845
0.00088614738
0.0008861473676
0.0008861473423
0.0008861473022
0.0008861472844
0.0008861473194
0.0008861473726
0.0008861474133
0.0008861474287
0.000886147436
0.000886147442
0.000886147442
0.0008861474493
0.0008861474468
0.0008861464579
0.0008861474384
0.000886147548
0.0008861473408
0.0008861465342
0.0008861473595
0.0008861474812
0.0008861474339
0.0008861474528
0.0008861473698
0.0008861473863
0.0008861473832
0.0008861473778
0.0008861473676
0.0008861473474
0.0008861473135
0.0008861473
0.0008861473418
0.0008861473866
0.0008861474186
0.0008861474311
0.0008861474352
0.0008861474326
0.0008861474306
0.0008861474483
0.0008861474477
0.0008861474058
0.0008861474994
0.0008861475804
0.0008861474784
0.0008861471713
0.0008861474519
0.0008861475729
0.0008861475211
0.0008861473825
0.0008861474574
0.0008861473723
0.0008861473864
0.0008861473821
0.0008861473776
0.00088614737
0.0008861473567
0.0008861473359
0.0008861473111
0.0008861473436
0.0008861473617
0.0008861474016
0.0008861474155
0.0008861474154
0.0008861474132
0.0008861474181
0.0008861474474
0.0008861474462
0.0008861473639
0.0008861470775
0.0008861459133
0.0008861165517
0.0008860967287
0.0008861095638
0.0008861474944
0.0008861472857
0.0008861473529
0.0008861474302
0.0008861473731
0.0008861473845
0.0008861473779
0.0008861473728
0.0008861473669
0.0008861473611
0.000886147358
0.0008861473592
0.0008861473664
0.0008861473725
0.0008861473834
0.0008861474002
0.0008861474046
0.0008861474084
0.0008861474163
0.0008861474436
0.0008861474436
0.0008861472947
0.0008861472798
0.0008861468917
0.0008861403732
0.0008861183408
0.0008860971894
0.0008861473957
0.0008861472051
0.000886147332
0.0008861473935
0.0008861473703
0.0008861473827
0.0008861473825
0.0008861473797
0.0008861473764
0.0008861473731
0.0008861473705
0.0008861473703
0.0008861473788
0.000886147391
0.0008861474
0.0008861474038
0.0008861474054
0.000886147406
0.0008861474057
0.0008861474045
0.0008861474354
0.0008861472413
0.0008861473833
0.0008861472777
0.0008861467443
0.0008861406429
0.0008861120294
0.0008861474243
0.0008861473085
0.0008861473145
0.0008861473357
0.0008861474543
0.0008861473716
0.000886147385
0.0008861473876
0.0008861473874
0.0008861473853
0.0008861473821
0.0008861473788
0.0008861473819
0.0008861473919
0.0008861473997
0.0008861474039
0.0008861474058
0.0008861474066
0.0008861474067
0.0008861474057
0.0008861474051
0.0008861474118
0.0008861474098
0.0008861474071
0.0008861473861
0.0008861473411
0.000886146867
0.0008861361491
0.0008861474064
0.0008861473232
0.0008861472906
0.000886147147
0.0008861463851
0.0008861442655
0.0008861473723
0.0008861473849
0.0008861473877
0.000886147388
0.0008861473855
0.0008861473771
0.0008861473494
0.0008861473313
0.0008861473547
0.0008861473777
0.0008861473937
0.0008861474016
0.0008861474051
0.0008861474068
0.0008861474072
0.0008861474065
0.0008861474096
0.0008861473955
0.000886147405
0.0008861473491
0.0008861466453
0.0008861376604
0.0008861365907
0.0008861473465
0.0008861471708
0.0008861472981
0.0008861464631
0.0008861439507
0.0008861189929
0.000886147373
0.0008861473811
0.0008861473841
0.0008861473845
0.0008861473812
0.0008861473711
0.0008861473597
0.0008861473747
0.0008861473883
0.0008861473961
0.0008861474005
0.0008861474035
0.0008861474057
0.000886147407
0.0008861474076
0.0008861474069
0.0008861474087
0.000886147403
0.0008861474128
0.0008861474025
0.0008861462918
0.0008861454763
0.0008861453062
0.0008861472721
0.0008861470084
0.000886147324
0.0008861469704
0.0008861470479
0.00088614713
0.0008861473749
0.0008861473737
0.0008861473762
0.0008861473758
0.0008861473736
0.0008861473759
0.0008861473859
0.0008861473944
0.0008861473995
0.0008861474025
0.000886147404
0.000886147405
0.0008861474059
0.0008861474067
0.0008861474068
0.0008861473964
0.0008861474059
0.0008861474061
0.0008861474071
0.0008861474053
0.0008861474009
0.0008861473709
0.0008861472873
0.0008861472628
0.0008861470113
0.0008861473302
0.0008861470169
0.0008861470748
0.0008861470172
0.0008861471955
0.0008861474808
0.0008861334661
0.0008861461184
0.000886147231
0.0008861473777
0.0008861473597
0.0008861473593
0.0008861473536
0.0008861473472
0.0008861473357
0.0008861473258
0.0008861473311
0.0008861473553
0.0008861473817
0.0008861473966
0.0008861474025
0.0008861474046
0.0008861474052
0.000886147404
0.000886147386
0.0008861473572
0.0008861473279
0.0008861472989
0.0008861472684
0.0008861472013
0.0008861466879
0.000886146556
0.0008861470296
0.0008861468488
0.0008861473212
0.0008861472945
0.0008861474187
0.000886147462
0.0008861474943
0.0008861474031
0.0008861474089
0.0008861474974
0.0008861472024
0.0008861473811
0.0008861473609
0.0008861473503
0.0008861473358
0.0008861473311
0.0008861473221
0.00088614731
0.0008861472998
0.000886147312
0.0008861473556
0.0008861473863
0.0008861473985
0.0008861474025
0.000886147403
0.0008861474002
0.0008861473814
0.0008861473158
0.000886147309
0.0008861473164
0.0008861472869
0.00088614633
0.0008861458119
0.0008861450558
0.0008861446432
0.0008861464134
0.0008861473065
0.0008861473331
0.0008861474189
0.000886147486
0.0008861475123
0.0008861471415
0.000886147351
0.0008861474869
0.0008861472486
0.0008861473838
0.0008861473543
0.000886147343
0.0008861473279
0.0008861473239
0.0008861473154
0.0008861473017
0.0008861472852
0.0008861472853
0.0008861473307
0.0008861473764
0.0008861473957
0.0008861474021
0.0008861474029
0.0008861473994
0.0008861473839
0.0008861473258
0.0008861473195
0.0008861473325
0.0008861473272
0.0008861472619
0.0008861472552
0.000886147207
0.000886147152
0.0008861467108
0.0008861472739
0.0008861473679
0.0008861473884
0.000886147435
0.0008861474139
0.0008861471214
0.0008861473615
0.0008861474572
0.0008861473826
0.0008861473411
0.000886147335
0.0008861473236
0.0008861473204
0.0008861473145
0.0008861473074
0.0008861473065
0.0008861473268
0.0008861473697
0.0008861474057
0.00088614742
0.0008861474212
0.0008861474146
0.000886147405
0.0008861473887
0.0008861473234
0.0008861473227
0.0008861473318
0.0008861473245
0.0008861473424
0.0008861473681
0.0008861473671
0.0008861473239
0.0008861465024
0.0008861472338
0.000886147377
0.000886147279
0.0008861472947
0.0008861473156
0.0008861473674
0.000886147292
0.000886147379
0.0008861473367
0.0008861473289
0.0008861473226
0.000886147323
0.0008861473255
0.0008861473347
0.0008861473565
0.0008861473881
0.0008861474146
0.0008861474272
0.0008861474317
0.0008861474335
0.000886147429
0.0008861474188
0.0008861473949
0.0008861473028
0.000886147323
0.0008861473197
0.0008861472692
0.0008861472728
0.0008861473906
0.0008861474206
0.0008861473475
0.0008861466907
0.0008861472928
0.0008861473668
0.0008861473526
0.0008861473068
0.0008861474407
0.0008861474912
0.0008861471722
0.0008861473761
0.0008861473536
0.000886147351
0.0008861473509
0.0008861473532
0.000886147359
0.0008861473714
0.0008861473905
0.0008861474082
0.0008861474183
0.0008861474259
0.0008861474408
0.0008861474511
0.0008861474187
0.000886147422
0.0008861474017
0.0008861473003
0.0008861473207
0.000886147301
0.0008861471804
0.0008861471805
0.0008861474217
0.0008861474504
0.0008861473969
0.0008861464889
0.0008861473499
0.0008861473763
0.0008861473757
0.0008861473526
0.0008861473451
0.0008861474034
0.0008861471655
0.0008861473797
0.0008861473822
0.0008861473847
0.0008861473871
0.000886147389
0.0008861473909
0.0008861473935
0.0008861473992
0.0008861474092
0.0008861474241
0.0008861474693
0.0008861475828
0.0008861476314
0.0008861473761
0.0008861473883
0.000886147389
0.0008861473065
0.0008861473134
0.0008861472664
0.0008861470231
0.0008861459024
0.0008861474197
0.000886147464
0.0008861474321
0.0008861472318
0.0008861473623
0.0008861473767
0.0008861473884
0.0008861473924
0.0008861473649
0.0008861473753
0.0008861475253
0.0008861473608
0.0008861473644
0.0008861473696
0.0008861473769
0.0008861473851
0.0008861473926
0.0008861474005
0.0008861474153
0.0008861474712
0.0008861477002
0.0008861478918
0.000886147827
0.000886147347
0.0008861473139
0.0008861473291
0.0008861473121
0.0008861472939
0.0008861471955
0.0008861468435
0.0008861451479
0.000886147411
0.0008861474723
0.0008861474471
0.0008861473848
0.0008861473712
0.0008861473772
0.0008861473965
0.0008861473998
0.0008861474157
0.0008861475026
0.0008861474373
0.0008861472988
0.0008861473155
0.0008861473343
0.0008861473518
0.0008861473641
0.000886147371
0.0008861473735
0.0008861473721
0.0008861473648
0.0008861473393
0.0008861472972
0.0008861473771
0.000886147352
0.0008861473113
0.0008861473211
0.0008861473019
0.0008861472396
0.0008861470267
0.000886146547
0.000886146592
0.0008861474283
0.0008861474802
0.0008861474775
0.0008861474833
0.0008861474483
0.0008861477572
0.0008861477493
0.0008861476112
0.0008861475169
0.0008861478374
0.0008861473958
0.0008861473346
0.0008861473448
0.0008861473553
0.0008861473638
0.0008861473686
0.0008861473684
0.0008861473607
0.0008861473379
0.0008861472907
0.0008861473112
0.0008861473345
0.0008861473798
0.0008861473704
0.0008861472454
0.0008861472556
0.0008861472151
0.0008861470994
0.0008861466206
0.0008861461563
0.0008861468999
0.0008861474584
0.0008861474763
0.0008861474824
0.0008861474826
0.0008861474665
0.0008861478747
0.0008861480284
0.0008861481257
0.0008861482607
0.0008861489064
0.0008861473836
0.0008861473648
0.00088614737
0.0008861473735
0.0008861473748
0.0008861473722
0.0008861473628
0.0008861473394
0.0008861472961
0.0008861472605
0.0008861473007
0.0008861473745
0.0008861473631
0.0008861473123
0.0008861472318
0.0008861471896
0.0008861469906
0.000886146486
0.0008861455403
0.0008861431931
0.0008861465129
0.0008861467103
0.0008861474692
0.0008861474572
0.0008861474404
0.0008861474383
0.0008861474463
0.0008861474834
0.000886147899
0.0008861480849
0.0008861484031
0.0008861473815
0.0008861473763
0.0008861473787
0.0008861473795
0.0008861473784
0.0008861473735
0.0008861473613
0.0008861473444
0.0008861473473
0.000886147362
0.0008861473691
0.0008861473722
0.0008861473525
0.0008861473081
0.0008861472738
0.0008861472316
0.0008861471241
0.0008861469155
0.0008861466626
0.0008861467941
0.0008861472119
0.0008861474666
0.0008861474608
0.000886147441
0.0008861474422
0.0008861474461
0.0008861474502
0.0008861475169
0.0008861477014
0.0008861478702
0.0008861478257
0.0008861473814
0.0008861473844
0.0008861473857
0.0008861473852
0.0008861473822
0.0008861473733
0.0008861473564
0.0008861473448
0.0008861473517
0.0008861473618
0.0008861473672
0.0008861473669
0.0008861473529
0.0008861473334
0.0008861473157
0.0008861472843
0.0008861472151
0.0008861470789
0.0008861468416
0.000886146602
0.0008861471545
0.0008861474647
0.0008861474436
0.000886147439
0.0008861474536
0.0008861474588
0.0008861474923
0.0008861475391
0.0008861475756
0.0008861475693
0.0008861475004
0.0008861473811
0.000886147384
0.0008861473829
0.0008861473773
0.000886147363
0.0008861473382
0.0008861473253
0.0008861473361
0.0008861473487
0.0008861473584
0.0008861473638
0.0008861473641
0.0008861473589
0.0008861473523
0.0008861473431
0.000886147323
0.0008861472778
0.0008861471826
0.0008861469919
0.0008861467034
0.0008861470799
0.0008861474603
0.0008861474281
0.0008861474187
0.0008861474291
0.0008861474553
0.0008861474994
0.000886147507
0.0008861474961
0.0008861474713
0.0008861474634
0.0008861473804
0.0008861473799
0.0008861473743
0.0008861473558
0.0008861473114
0.0008861472657
0.0008861472876
0.0008861473183
0.0008861473383
0.0008861473507
0.0008861473581
0.0008861473618
0.0008861473633
0.0008861473635
0.00088614736
0.0008861473484
0.0008861473196
0.0008861472549
0.0008861471081
0.0008861467923
0.0008861471252
0.0008861474498
0.0008861474185
0.0008861473838
0.0008861473465
0.0008861474211
0.0008861474654
0.0008861474891
0.0008861474744
0.0008861474602
0.0008861474571
0.0008861473793
0.0008861473746
0.0008861473634
0.0008861473336
0.0008861472755
0.0008861472184
0.0008861472369
0.0008861472814
0.000886147314
0.0008861473341
0.0008861473462
0.0008861473549
0.0008861473621
0.0008861473679
0.0008861473699
0.0008861473641
0.0008861473457
0.0008861473049
0.0008861471986
0.0008861469021
0.0008861472294
0.0008861474323
0.0008861474077
0.0008861473722
0.0008861472166
0.0008861472865
0.0008861473837
0.0008861474472
0.000886147455
0.000886147455
0.0008861474504
0.000886147378
0.0008861473706
0.000886147355
0.000886147319
0.0008861472565
0.0008861471857
0.0008861471766
0.0008861472192
0.0008861472648
0.0008861472978
0.0008861473173
0.0008861473386
0.0008861473546
0.0008861473663
0.000886147373
0.0008861473675
0.0008861473603
0.0008861473357
0.0008861472647
0.000886147028
0.0008861472876
0.0008861474072
0.0008861473876
0.0008861473671
0.0008861472274
0.0008861472351
0.0008861472214
0.0008861473704
0.0008861474218
0.0008861474337
0.000886147441
0.0008861473764
0.0008861473694
0.0008861473537
0.0008861473202
0.0008861472646
0.0008861471879
0.0008861471352
0.0008861471411
0.0008861471804
0.0008861472223
0.0008861472593
0.0008861473149
0.0008861473448
0.0008861473633
0.0008861473696
0.000886147358
0.0008861473627
0.0008861473519
0.0008861473102
0.0008861471777
0.0008861473079
0.0008861473853
0.0008861473972
0.0008861474088
0.0008861474128
0.000886147415
0.0008861474152
0.0008861474155
0.0008861474203
0.0008861474287
0.0008861473782
0.0008861473744
0.0008861473708
0.0008861473593
0.0008861473356
0.0008861472961
0.0008861472319
0.0008861471553
0.0008861471034
0.0008861470964
0.0008861471192
0.0008861471976
0.0008861473022
0.0008861473401
0.0008861473615
0.0008861473578
0.0008861473499
0.0008861473605
0.0008861473603
0.0008861473434
0.00088614732
0.0008861473413
0.0008861473783
0.0008861473938
0.0008861474035
0.0008861474075
0.000886147409
0.0008861474088
0.0008861474092
0.0008861474114
0.0008861474159
0.0008861472986
0.000886147372
0.0008861473728
0.0008861473667
0.0008861473535
0.0008861473308
0.0008861472898
0.0008861472262
0.0008861471568
0.0008861471174
0.0008861471282
0.000886147209
0.0008861473122
0.0008861473425
0.0008861473552
0.0008861473425
0.0008861473421
0.0008861473583
0.0008861473665
0.0008861473654
0.0008861473641
0.0008861473708
0.0008861473857
0.0008861473934
0.0008861473985
0.0008861474015
0.0008861474041
0.0008861474028
0.0008861474003
0.0008861474011
0.0008861474079
0.0008861473185
0.0008861473695
0.0008861473735
0.0008861473716
0.0008861473657
0.0008861473546
0.0008861473325
0.000886147293
0.0008861472416
0.0008861472092
0.0008861472202
0.0008861472638
0.0008861473247
0.0008861473423
0.0008861473413
0.0008861473203
0.0008861473361
0.0008861473583
0.0008861473717
0.0008861473777
0.0008861473814
0.0008861473863
0.0008861473931
0.0008861473964
0.000886147397
0.0008861473936
0.0008861473989
0.0008861473961
0.0008861473835
0.0008861473887
0.000886147403
0.0008861473593
0.0008861473668
0.0008861473727
0.0008861473733
0.0008861473716
0.0008861473668
0.0008861473558
0.0008861473336
0.0008861473009
0.0008861472779
0.0008861472817
0.0008861473022
0.0008861473276
0.0008861473335
0.0008861473196
0.0008861472945
0.0008861473335
0.0008861473597
0.0008861473751
0.0008861473835
0.0008861473886
0.0008861473927
0.0008861473968
0.0008861473986
0.0008861473978
0.000886147386
0.0008861473919
0.0008861473841
0.0008861473587
0.000886147377
0.0008861473981
0.0008861473852
0.000886147364
0.0008861473704
0.0008861473727
0.0008861473735
0.0008861473717
0.0008861473664
0.000886147354
0.000886147333
0.0008861473146
0.0008861473106
0.0008861473158
0.000886147322
0.0008861473156
0.0008861472887
0.0008861472735
0.0008861473307
0.0008861473601
0.0008861473764
0.0008861473856
0.0008861473909
0.0008861473944
0.0008861473983
0.0008861473997
0.0008861473986
0.0008861473789
0.0008861473823
0.0008861473639
0.0008861473426
0.0008861473729
0.0008861473939
0.0008861473993
0.0008861473611
0.0008861473668
0.0008861473704
0.0008861473731
0.000886147373
0.0008861473706
0.0008861473634
0.0008861473493
0.0008861473333
0.0008861473238
0.0008861473185
0.0008861473113
0.0008861472912
0.0008861472484
0.0008861472552
0.0008861473231
0.0008861473574
0.0008861473747
0.0008861473836
0.0008861473871
0.0008861473897
0.0008861473979
0.0008861473998
0.0008861473988
0.0008861473699
0.0008861473682
0.0008861473342
0.0008861473339
0.0008861473717
0.0008861473918
0.000886147407
0.0008861473583
0.0008861473621
0.0008861473671
0.0008861473712
0.0008861473725
0.0008861473717
0.0008861473673
0.0008861473575
0.0008861473438
0.0008861473311
0.0008861473185
0.0008861473003
0.0008861472655
0.0008861472123
0.0008861472357
0.0008861473085
0.0008861473496
0.0008861473695
0.0008861473787
0.0008861473812
0.0008861473855
0.0008861473957
0.000886147399
0.0008861473984
0.000886147357
0.000886147347
0.0008861472964
0.0008861473252
0.0008861473698
0.0008861473927
0.0008861474109
0.0008861473552
0.0008861473555
0.0008861473612
0.0008861473668
0.0008861473709
0.0008861473714
0.0008861473689
0.0008861473621
0.0008861473508
0.000886147337
0.00088614732
0.0008861472942
0.00088614725
0.0008861471979
0.0008861472192
0.0008861472878
0.0008861473359
0.0008861473603
0.0008861473701
0.0008861473696
0.0008861473759
0.0008861473913
0.000886147397
0.0008861473974
0.000886147339
0.0008861473175
0.0008861472578
0.000886147313
0.000886147365
0.0008861473928
0.000886147412
0.0008861473515
0.0008861473419
0.0008861473473
0.000886147358
0.0008861473644
0.0008861473707
0.0008861473699
0.0008861473652
0.0008861473563
0.000886147343
0.0008861473244
0.0008861472962
0.0008861472528
0.0008861472089
0.0008861472142
0.0008861472654
0.0008861473158
0.0008861473458
0.0008861473574
0.0008861473523
0.0008861473606
0.0008861473851
0.0008861473935
0.0008861473961
0.0008861473178
0.0008861472846
0.0008861472298
0.0008861472942
0.0008861473564
0.0008861473907
0.0008861474097
0.0008861473509
0.0008861473457
0.0008861473579
0.0008861473602
0.0008861473558
0.0008861473671
0.0008861473713
0.0008861473679
0.0008861473611
0.0008861473492
0.0008861473313
0.0008861473054
0.0008861472712
0.0008861472396
0.0008861472317
0.0008861472555
0.0008861472948
0.0008861473268
0.0008861473412
0.0008861473313
0.0008861473364
0.0008861473758
0.0008861473878
0.0008861473946
0.0008861472996
0.000886147261
0.000886147305
0.0008861472646
0.0008861473428
0.0008861473841
0.0008861474049
0.0008861473612
0.0008861473653
0.0008861473669
0.000886147366
0.000886147365
0.0008861473625
0.0008861473598
0.0008861473729
0.0008861473665
0.0008861473569
0.0008861473439
0.0008861473286
0.000886147313
0.0008861472989
0.0008861472886
0.0008861472869
0.0008861472978
0.0008861473159
0.0008861473276
0.0008861473134
0.0008861472769
0.0008861473563
0.0008861473787
0.0008861473913
0.0008861472945
0.0008861472608
0.0008861473823
0.0008861472466
0.0008861473056
0.0008861473658
0.0008861473967
0.0008861473681
0.0008861473709
0.0008861473676
0.0008861473598
0.0008861471983
0.0008861473493
0.0008861473658
0.0008861473757
0.0008861473718
0.0008861473657
0.0008861473584
0.0008861473519
0.0008861473464
0.0008861473404
0.0008861473335
0.0008861473273
0.0008861473249
0.0008861473274
0.0008861473303
0.0008861473178
0.0008861472551
0.000886147319
0.0008861473678
0.0008861473855
0.0008861473165
0.0008861472846
0.000886147396
0.0008861472938
0.0008861472745
0.0008861473405
0.0008861473838
0.0008861473732
0.0008861473745
0.0008861473667
0.0008861473523
0.0008861473456
0.0008861473494
0.0008861473551
0.0008861473593
0.0008861473604
0.0008861473619
0.0008861473636
0.0008861473657
0.0008861473683
0.0008861473713
0.0008861473749
0.0008861473789
0.000886147383
0.000886147387
0.0008861473901
0.0008861473914
0.000886147389
0.0008861473782
0.0008861473741
0.0008861473715
0.0008861473593
0.0008861473678
0.0008861473991
0.000886147372
0.0008861473689
0.0008861473673
0.0008861473675
)
;

boundaryField
{
    walls
    {
        type            zeroGradient;
    }
    wallFilmFace_top
    {
        type            zeroGradient;
    }
    region0_to_wallFilmRegion_wallFilmFace
    {
        type            zeroGradient;
    }
    mirrorFace_top
    {
        type            zeroGradient;
    }
    region0_to_wallFilmRegion_mirrorFace
    {
        type            zeroGradient;
    }
    procBoundary1to0
    {
        type            processor;
        value           nonuniform List<scalar> 
52
(
0.0008861473647
0.0008861473279
0.0008861473204
0.0008861473377
0.0008861473675
0.0008861473918
0.0008861474057
0.000886147419
0.000886147419
0.0008861474236
0.0008861474254
0.0008861474201
0.0008861474145
0.0008861474145
0.0008861474084
0.0008861474021
0.0008861474021
0.0008861473987
0.0008861473812
0.000886147377
0.0008861474295
0.0008861474295
0.0008861474108
0.0008861474038
0.0008861474038
0.0008861473506
0.0008861471825
0.000886147268
0.0008861474455
0.0008861474455
0.0008861474837
0.0008861474877
0.0008861474877
0.0008861474809
0.0008861474631
0.0008861474631
0.0008861474706
0.000886147466
0.0008861474624
0.0008861474624
0.0008861474931
0.0008861474931
0.0008861465813
0.000886136979
0.0008861472534
0.0008861472534
0.0008861474213
0.0008861438998
0.0008861453462
0.000886147306
0.000886147361
0.0008861474072
)
;
    }
    procBoundary1to2
    {
        type            processor;
        value           nonuniform List<scalar> 
33
(
0.0008861473808
0.0008861472116
0.0008861472116
0.0008861474126
0.0008861474126
0.0008861472976
0.0008861473763
0.0008861473864
0.0008861473864
0.0008861475699
0.0008861480147
0.0008861479979
0.0008861478907
0.0008861477843
0.0008861476964
0.0008861475374
0.0008861474821
0.0008861474624
0.0008861474546
0.0008861474473
0.0008861474334
0.0008861474173
0.0008861474075
0.000886147405
0.0008861474042
0.0008861474008
0.0008861473915
0.0008861473718
0.0008861473455
0.0008861473234
0.0008861473157
0.000886147328
0.0008861473632
)
;
    }
}


// ************************************************************************* //
