/*--------------------------------*- C++ -*----------------------------------*\
  =========                 |
  \\      /  F ield         | OpenFOAM: The Open Source CFD Toolbox
   \\    /   O peration     | Website:  https://openfoam.org
    \\  /    A nd           | Version:  8
     \\/     M anipulation  |
\*---------------------------------------------------------------------------*/
FoamFile
{
    version     2.0;
    format      ascii;
    class       scalarField;
    location    "0.5/lagrangian/reactingCloud1";
    object      age;
}
// * * * * * * * * * * * * * * * * * * * * * * * * * * * * * * * * * * * * * //


179
(
0.2844110763
0.2598193578
0.1982290437
0.2101160655
0.2061309488
0.2041894817
0.1881084961
0.1740689915
0.139925768
0.1580910179
0.1347201943
0.1229742059
0.1180763391
0.1400730955
0.1171945665
0.1162025723
0.1152656888
0.1380596189
0.1139608786
0.1982290437
0.1112199368
0.1110121602
0.1093499474
0.1083110643
0.1075838462
0.1067527398
0.1048827503
0.1046749737
0.1033490229
0.1004153607
0.1633502871
0.1627526428
0.1623342919
0.1640053614
0.1591667775
0.09309082932
0.1061294099
0.09021850579
0.08633747403
0.08445307277
0.1650013399
0.08331737502
0.08315485738
0.08158172167
0.08076699076
0.07995171158
0.1041581141
0.1559992632
0.07881032073
0.1311352237
0.1540868017
0.07565573232
0.07489427995
0.07375194236
0.07169722159
0.07092120224
0.1542063305
0.06566779455
0.1398766588
0.1329031544
0.1308405686
0.06298020691
0.06240912574
0.1236706275
0.1241126102
0.1245054837
0.1337380106
0.08364219909
0.1524731623
0.1388944751
0.09621735024
0.08902660474
0.1014537625
0.0903272683
0.1402693522
0.09349180424
0.08585384046
0.0511479847
0.05094441084
0.09443793066
0.09005549305
0.05013618252
0.1377158546
0.1006922679
0.09468267035
0.09326191745
0.08628374816
0.09912445964
0.04829542422
0.09258312709
0.04783033211
0.1507399941
0.09966354575
0.1006922679
0.1431892457
0.1103888304
0.08022347131
0.1117393784
0.1096616123
0.1014537625
0.1125704848
0.1085188409
0.1114277135
0.1040636115
0.1121549316
0.1077916228
0.1137852282
0.08337151237
0.1263716327
0.09543839015
0.1142864866
0.1056099684
0.1149327315
0.06804012273
0.08288388857
0.08617629642
0.04370521193
0.04370521193
0.1155412428
0.08217882986
0.1160372399
0.1060255216
0.0817988749
0.04189013555
0.04189013555
0.1166434586
0.0813644601
0.04727398721
0.08092993694
0.03977631976
0.08217882986
0.1490469067
0.1176354528
0.03832999048
0.03769825918
0.03735414834
0.08147309088
0.07826642618
0.0797343038
0.1182416715
0.05612855905
0.05013638549
0.03286328876
0.03261473597
0.06605578332
0.07777692108
0.05217751099
0.07739619489
0.04615797074
0.07690668979
0.1091421708
0.0764171847
0.0268224292
0.04217771085
0.07462233267
0.02336101164
0.07407835831
0.1177456744
0.03813713797
0.1481719669
0.07169722159
0.01824904866
0.03604099918
0.07160119772
0.03205491315
0.1195092197
0.08848711603
0.02803738244
0.07141213385
0.008387445723
0.007247404557
0.006758815485
0.005130185248
0.004560164665
0.07636279524
0.00390871257
0.003664418034
0.003257260475
0.06761724525
)


// ************************************************************************* //
