/*--------------------------------*- C++ -*----------------------------------*\
  =========                 |
  \\      /  F ield         | OpenFOAM: The Open Source CFD Toolbox
   \\    /   O peration     | Website:  https://openfoam.org
    \\  /    A nd           | Version:  8
     \\/     M anipulation  |
\*---------------------------------------------------------------------------*/
FoamFile
{
    version     2.0;
    format      ascii;
    class       scalarField;
    location    "0.5/lagrangian/reactingCloud1";
    object      nParticle;
}
// * * * * * * * * * * * * * * * * * * * * * * * * * * * * * * * * * * * * * //


179
(
100.3508213
100.0395713
134.0765698
3007.988991
1817.155796
1355.686546
2209.85271
3770.346577
100.274808
578.3605318
100.4157005
116.5823474
100.4178439
1180.174044
100.2821199
732.767722
302.4628186
2939.643518
202.2871309
6915.015559
432.5139559
102.4289215
181.5770279
103.2978083
100.0637155
100.8045445
100.0940536
171.1351471
102.2508359
100.6578728
104.2499916
102.8463475
113.1186599
105.0152677
100.1673205
100.2084344
1596.31434
100.4084918
100.4489952
100.1629497
108.8746101
104.9248123
100.2000994
101.5827645
196.1346813
103.2743901
6054.050793
101.3829988
296.5451504
100.0911817
4740.018988
100.3115178
100.1126782
104.4366457
100.8875641
103.4807432
100.8270761
100.1821082
126.3493187
106.2232917
102.4122398
113.395774
100.6359296
108.5133802
111.1881228
101.4626759
101.1792206
101.0340445
100.1726985
100.0279457
101.6847895
102.9247123
161.3897461
100.5456711
100.2991841
103.536629
100.5371682
100.6097166
162.1342681
101.7025557
100.4060062
229.484024
102.5545337
100.3056911
100.2664068
100.8167278
100.6275358
290.717397
100.7702962
108.5747676
109.6536589
102.6419864
105.0432112
100.6676103
100.034089
108.7228016
100.6153346
103.2691113
108.7880464
115.347451
103.1632453
102.1501312
100.3337861
101.8633957
116.7414877
110.1953198
101.7366874
101.511552
315.6420458
100.2345844
106.6868274
105.6231823
100.8166404
2973.22376
111.23953
101.4654447
100.5806783
528.2033992
107.0626711
107.3405169
107.5501336
100.975747
105.8437664
105.5069254
601.2111025
102.8311446
109.0327844
100.0530113
102.7065454
104.5624792
100.1351338
100.086152
107.2550672
106.0349847
100.0893552
323.8680938
104.9244022
100.6083153
104.7186156
104.1918568
1384.421838
5786.908679
832.6872244
262.0060544
5608.079446
103.60244
986.7539203
113.7784612
2210.536981
109.678228
104.6644536
101.7326483
100.0306919
7572.523193
102.1473193
100.0264713
102.3170961
101.4673815
3367.024723
108.4171981
101.0016692
100.1520496
557.0146456
595.3794942
3572.334611
101.2784097
100.5156654
2197.026037
100.2069305
381.3521216
235.3929292
113.4027275
103.18725
105.8006589
101.3527452
105.3154342
401.4932169
100.2035204
100.1343668
)


// ************************************************************************* //
