/*--------------------------------*- C++ -*----------------------------------*\
  =========                 |
  \\      /  F ield         | OpenFOAM: The Open Source CFD Toolbox
   \\    /   O peration     | Website:  https://openfoam.org
    \\  /    A nd           | Version:  8
     \\/     M anipulation  |
\*---------------------------------------------------------------------------*/
FoamFile
{
    version     2.0;
    format      ascii;
    class       labelField;
    location    "0.5/lagrangian/reactingCloud1";
    object      origId;
}
// * * * * * * * * * * * * * * * * * * * * * * * * * * * * * * * * * * * * * //


179
(
19
75
29
150
152
153
162
169
35
177
39
41
42
186
43
44
45
187
46
156
47
48
49
50
51
52
53
54
55
56
170
172
173
168
179
57
203
58
59
60
166
61
62
63
64
65
204
181
66
237
179
69
70
71
74
75
185
76
210
235
239
77
78
249
248
246
231
316
186
214
296
308
290
305
208
301
315
80
81
300
306
82
222
292
298
302
313
294
83
303
84
189
293
291
200
276
326
272
278
289
269
281
273
286
271
282
268
317
243
297
267
284
265
222
318
314
85
86
263
320
262
283
321
87
88
261
323
80
324
89
319
191
260
90
91
92
322
328
327
257
228
231
93
94
223
329
230
330
233
331
280
332
95
235
335
96
336
259
237
193
339
97
238
340
240
255
309
242
341
98
99
100
101
102
333
103
104
105
344
)


// ************************************************************************* //
