/*--------------------------------*- C++ -*----------------------------------*\
  =========                 |
  \\      /  F ield         | OpenFOAM: The Open Source CFD Toolbox
   \\    /   O peration     | Website:  https://openfoam.org
    \\  /    A nd           | Version:  8
     \\/     M anipulation  |
\*---------------------------------------------------------------------------*/
FoamFile
{
    version     2.0;
    format      ascii;
    class       Cloud<basicReactingMultiphaseParcel>;
    location    "0.5/lagrangian/reactingCloud1";
    object      positions;
}
// * * * * * * * * * * * * * * * * * * * * * * * * * * * * * * * * * * * * * //

179
(
(0.5756284036 0.1637202239 0.1799672699 0.08068410262) 144 202380 2
(0.3411605159 0.2361493141 0.1193352162 0.3033549537) 4111 12063 2
(0.08087853085 0.005736408751 0.3489733201 0.5644117403) 10721 31432 2
(0.03074479507 0.7238643289 0.01068856463 0.2347023114) 2574 4691 1
(0.0626919789 0.07060310295 0.08144312289 0.7852617953) 1597 4711 1
(0.1707357272 0.1515174298 0.5078069414 0.1699399016) 6459 18957 1
(0.05411459037 0.2816204324 0.2613753983 0.4028895788) 9971 26434 2
(0.008625198167 0.04487249461 0.8431570379 0.1033452694) 11130 32549 2
(0.3283784746 0.1975505766 0.01191278289 0.4621581659) 18166 53221 1
(0.4241591272 0.2969710989 0.1270641466 0.1518056273) 18470 54119 2
(0.1437198516 0.006298010783 0.5306164392 0.3193656985) 19910 58332 2
(0.2548252582 0.272023279 0.44682191 0.02632955274) 21004 61845 1
(0.2966797004 0.1778313344 0.001625731831 0.5238632333) 19938 55733 2
(0.1222552653 0.4632490953 0.01553902973 0.3989566097) 21061 62089 2
(0.1144511208 0.3907750278 0.4484976003 0.04627625113) 20831 61104 2
(0.8209618257 0.01053245853 0.05790161266 0.1106041031) 55321 168225 1
(0.1123978557 0.5518481094 0.2357996764 0.09995435858) 20973 61711 2
(0.5188530519 0.08782363424 0.1315366015 0.2617867123) 19204 56269 1
(0.2043640693 0.560177886 0.1701400963 0.06531794832) 21897 64718 1
(0.2356232025 0.3911691807 0.2903346765 0.08287294027) 5974 17516 2
(0.8006072425 0.07322666412 0.03487892492 0.0912871685) 55327 168234 2
(0.07602920784 0.08515025683 0.4186470262 0.4201735091) 55697 169170 1
(0.1656780843 0.2779915919 0.2380578903 0.3182724335) 55798 169420 2
(0.4979645628 0.01854341677 0.2402219276 0.2432700928) 55796 169431 2
(0.3202995551 0.275541195 0.1608076253 0.2433516246) 21794 64308 2
(0.0764243331 0.5115564203 0.04220980778 0.3698094388) 55634 169022 1
(0.1343777734 0.4071989878 0.3999664063 0.05845683259) 22718 67379 1
(0.2509016122 0.7176543871 0.02735661287 0.004087387784) 22789 67699 1
(0.5237491365 0.2445521308 0.1547876951 0.0769110376) 22719 67382 1
(0.2869632614 0.01343968592 0.3364255615 0.3631714912) 22789 67701 2
(0.6718942044 0.07057639452 0.09838635165 0.1591430494) 16880 46818 2
(0.09716603164 0.3603982457 0.4417525986 0.1006831241) 16880 49470 2
(0.2132791126 0.2116835472 0.4687604106 0.1062769295) 16880 49469 2
(0.06755273397 0.4773445692 0.06475788979 0.390344807) 16847 49372 2
(0.6877379326 0.05798303369 0.1037745185 0.1505045152) 16948 49673 1
(0.4516791792 0.1019534984 0.4426282877 0.003739034658) 23681 70719 1
(0.2272906795 0.306805285 0.04487955803 0.4210244774) 29384 90216 2
(0.4935228503 0.1444189645 0.109827166 0.2522310192) 57071 172575 1
(0.3213307771 0.0293596384 0.4160947302 0.2332148542) 57075 172577 1
(0.1714155191 0.1131537735 0.4311330665 0.2842976409) 57079 172599 2
(0.09765050632 0.04633120099 0.5477278193 0.3082904734) 16748 46426 1
(0.4109107799 0.3501369027 0.1061776095 0.1327747079) 57079 172599 2
(0.4814745715 0.1889743098 0.02254159502 0.3070095238) 57459 173548 1
(0.1828794687 0.06082500592 0.1809996532 0.5752958722) 57079 73361 2
(0.231316687 0.3206533241 0.2279217267 0.2201082621) 58063 172872 1
(0.2686960291 0.02281722527 0.338691346 0.3697953996) 57957 73363 1
(0.1689216803 0.1585343305 0.4467826494 0.2257613398) 31033 95617 2
(0.001486867796 0.6084785942 0.3388394987 0.05119503929) 17766 51969 2
(0.2055891102 0.1559424885 0.3729973831 0.2654710181) 58063 175037 2
(0.1532160703 0.1361781308 0.4680225026 0.2425832964) 20090 56184 2
(0.2113659998 0.01399382611 0.2998407988 0.4747993753) 19927 55700 2
(0.4443322083 0.5101501899 0.03320839367 0.01230920818) 58343 175764 2
(0.4834576234 0.0631684695 0.1899905725 0.2633833346) 57957 174784 2
(0.02266029138 0.01627006201 0.7398053417 0.2212643049) 57961 174793 1
(0.3509034194 0.06930435978 0.1222982923 0.4574939285) 57967 174793 1
(0.6612857992 0.08763464267 0.08837188372 0.1627076744) 57967 174793 1
(0.3635328509 0.2548972019 0.2192538363 0.1623161109) 17667 51772 1
(0.0470962452 0.4967523479 0.01092346165 0.4452279452) 59224 77044 1
(0.08541307615 0.05709646957 0.1313969062 0.726093548) 19117 53329 2
(0.1266832206 0.4703147326 0.2926118471 0.1103901996) 19265 56451 2
(0.1088277206 0.3256569229 0.2420252066 0.3234901499) 19361 56736 2
(0.6144263325 0.006693749173 0.3764928565 0.002387061811) 59035 175295 2
(0.4724245602 0.03638109448 0.2686302352 0.2225641101) 25528 77043 2
(0.1788338541 0.2659761368 0.2546276882 0.3005623208) 20412 59823 2
(0.2477741059 0.06545432191 0.08893910753 0.5978324647) 20412 59823 1
(0.3392198937 0.01255525328 0.2813529345 0.3668719185) 20445 59920 1
(0.1191878904 0.07966054622 0.01120547647 0.7899460869) 19205 56272 1
(0.7017847522 0.1144257296 0.08304113866 0.1007483795) 57480 173617 1
(0.6145887877 0.1123942697 0.2430753831 0.0299415594) 17601 51577 2
(0.1382962714 0.4708543879 0.2775394385 0.1133099022) 19207 56278 2
(0.3139251281 0.1936470677 0.09574332877 0.3966844754) 22947 68282 1
(0.0610488305 0.3539174996 0.07430302756 0.5107306424) 57576 70881 1
(0.3721828668 0.1520159566 0.06945518289 0.4063459937) 22916 65125 2
(0.07962638499 0.5625253458 0.1070433218 0.2508049474) 57483 70880 2
(0.1342180819 0.2759947329 0.548456921 0.04133026424) 18352 53774 2
(0.02770749945 0.07160780415 0.1925369125 0.7081477839) 56801 171937 2
(0.2541750532 0.02034508558 0.02790537357 0.6975744876) 57487 173631 2
(0.01091672283 0.2925344219 0.2248768384 0.4716720169) 58946 177213 2
(0.2223891508 0.4107899882 0.1290075723 0.2378132888) 58851 177002 2
(0.6819231753 0.1370553734 0.01851956301 0.1625018883) 56802 171942 1
(0.7586440139 0.09344145553 0.1418682533 0.00604627726) 23777 71156 1
(0.2166708586 0.4629064833 0.242928417 0.07749424114) 59047 177459 2
(0.2134054897 0.2719999203 0.07888748701 0.4357071029) 19207 56189 1
(0.1012419458 0.3821206595 0.4077957629 0.1088416318) 22886 68142 2
(0.4550182525 0.04724677311 0.4537550796 0.0439798948) 23012 68493 1
(0.1469106887 0.3167033345 0.1884208971 0.3479650797) 22917 68290 2
(0.03500120453 0.1426893691 0.5695821496 0.2527272767) 57788 174388 1
(0.1210413713 0.1287510329 0.5427238263 0.2074837695) 57008 68285 1
(0.04841183517 0.2326356048 0.2486499653 0.4703025947) 58960 177259 2
(0.0895840645 0.2853195307 0.5272070697 0.09788933511) 22948 68402 1
(0.05788550565 0.04949134747 0.6823278593 0.2102952876) 25682 77727 1
(0.5026977516 0.06172548335 0.09419836707 0.341378398) 17535 51377 2
(0.4313255474 0.3152538714 0.1252325008 0.1281880804) 23013 68496 2
(0.4047841661 0.2277073912 0.06002937066 0.3074790721) 22980 68496 2
(0.06122472486 0.4923461741 0.4297087354 0.01672036564) 18449 54061 1
(0.184190468 0.5737597063 0.1425308702 0.09951895551) 22090 65435 2
(0.08744316416 0.2222330417 0.1994204981 0.490903296) 57488 173640 1
(0.1874206001 0.08007627533 0.1072767786 0.625226346) 22058 65337 1
(0.08485727793 0.5505374996 0.360854012 0.003751210436) 22090 65435 2
(0.394386611 0.1886747586 0.1381346418 0.2788039885) 22980 65339 1
(0.1136680001 0.139315313 0.05179746641 0.6952192205) 22058 65337 1
(0.256670048 0.1119154646 0.243189475 0.3882250124) 22090 65435 1
(0.286560693 0.0207565923 0.09171457651 0.6009681382) 22058 65337 1
(0.05133318183 0.1135162741 0.6766091717 0.1585413724) 22025 65244 1
(0.3256256867 0.1338067679 0.5284890046 0.01207854079) 22058 62311 2
(0.02529091643 0.1584766468 0.243845805 0.5723866318) 22090 65435 1
(0.02510768095 0.4683337206 0.2788068287 0.2277517697) 21135 62311 2
(0.3188479267 0.2926926428 0.3641647708 0.0242946596) 57891 174633 1
(0.1491479975 0.2281318875 0.09181056854 0.5309095464) 20314 59530 1
(0.4620769429 0.2880179728 0.03466993153 0.2152351528) 56807 171950 2
(0.1342184869 0.4155775063 0.2982551656 0.1519488413) 21135 62311 2
(0.2371969082 0.2453739488 0.1860858965 0.3313432465) 21995 65139 3
(0.2772383919 0.342005535 0.3706095715 0.01014650165) 21135 62311 2
(0.129982914 0.2190802888 0.1250659472 0.5258708499) 37485 114396 1
(0.2997430218 0.1566582742 0.3172725957 0.2263261083) 57897 174415 1
(0.2064756583 0.4032613804 0.2907998456 0.09946311573) 23841 71454 1
(0.029101458 0.1700429406 0.03490935714 0.7659462443) 54686 166587 2
(0.2896202188 0.4386362354 0.254865206 0.01687833977) 54776 80077 2
(0.4132682472 0.08611564584 0.2001817968 0.3004343101) 21135 62311 1
(0.2510757771 0.2494724319 0.2675354623 0.2319163287) 57897 174645 1
(0.3688915353 0.08496513477 0.4270466484 0.1190966815) 21135 62309 2
(0.01749004202 0.4067652145 0.1781464385 0.397598305) 56145 170281 2
(0.5746924678 0.01013779021 0.0289844777 0.3861852643) 57898 174645 1
(0.06902604373 0.3087730235 0.4530025202 0.1691984125) 54686 166571 2
(0.07491713936 0.3084981098 0.3779905173 0.2385942335) 59770 179203 1
(0.09219427631 0.09167836155 0.2099204976 0.6062068646) 21135 62309 1
(0.4985302429 0.1926318199 0.04488553408 0.2639524031) 57898 174649 2
(0.3452073359 0.05601402513 0.2585957643 0.3401828747) 58956 166573 1
(0.3679248333 0.4544030786 0.06634170236 0.1113303857) 57898 174649 2
(0.1163892721 0.2865674283 0.3869474951 0.2100958046) 26362 79805 2
(0.3846849955 0.2472692218 0.2822214289 0.08582435386) 23841 71455 2
(0.03885759898 0.279440956 0.6027628143 0.07893863074) 17469 51185 1
(0.1473379707 0.4148717655 0.1045720476 0.3332182163) 21136 62313 1
(0.2159074817 0.2176909046 0.5492286235 0.0171729902) 59769 79806 2
(0.1228004223 0.7019539663 0.1209486212 0.05429699016) 59769 179205 2
(0.5246179961 0.09111966822 0.06517626077 0.3190860749) 59769 79806 2
(0.1302637805 0.04169997473 0.08756925687 0.7404669879) 23842 71453 2
(0.02701641895 0.4200099923 0.3562383253 0.1967352634) 24733 74463 1
(0.3447329719 0.03332854743 0.4888902724 0.1330482083) 58378 173673 1
(0.5387201254 0.04290561744 0.2478775593 0.1704966978) 21169 62313 2
(0.1492319177 0.01064646292 0.3977233585 0.4423982609) 37426 116935 1
(0.04879815233 0.1514647194 0.2098128952 0.5899242331) 40242 125191 2
(0.3489761672 0.08067953654 0.1131730702 0.457171226) 54557 166211 2
(0.1212724465 0.4769515058 0.1187550924 0.2830209553) 59774 166150 1
(0.5698117766 0.2890440312 0.02865053271 0.1124936594) 66508 195780 2
(0.4866556905 0.1758350566 0.04723776001 0.290271493) 58679 176617 2
(0.6558467529 0.2285292442 0.1017478489 0.01387615401) 38313 119529 1
(0.4534143093 0.02720920921 0.4131341486 0.106242333) 58685 176617 2
(0.3678416675 0.2509896256 0.1864055951 0.1947631118) 40243 125195 2
(0.4025795601 0.276861386 0.2121478862 0.1084111678) 58685 74332 1
(0.03036276816 0.1593182351 0.4271643275 0.3831546693) 56044 170061 2
(0.1901926887 0.4213755963 0.3006350709 0.08779664409) 58685 74332 2
(0.05819705365 0.05936956866 0.7452194985 0.1372138792) 54733 166706 2
(0.1221666164 0.5848115378 0.05940624307 0.2336156027) 41159 127878 1
(0.3251693202 0.3739051401 0.09909565795 0.2018298817) 58684 176630 2
(0.4458781751 0.1791347997 0.1917270547 0.1832599705) 54781 166827 1
(0.3981423532 0.1763068563 0.236177078 0.1893737125) 24704 74339 1
(0.1503667497 0.2701827913 0.4861045697 0.09334588927) 21138 62319 1
(0.2765786818 0.485685178 0.1113240531 0.1264120871) 42044 127789 2
(0.2371384176 0.2358019337 0.1859016273 0.3411580214) 17439 51092 2
(0.09392072539 0.08211667529 0.107246784 0.7167158153) 58592 176397 1
(0.08681238682 0.05227659033 0.4039895585 0.4569214644) 54739 166719 2
(0.1767542585 0.03504958274 0.4943371218 0.293859037) 41065 127547 1
(0.08110461663 0.1623832524 0.05921305594 0.697299075) 58489 175885 2
(0.1665346727 0.0267260375 0.4318429327 0.3748963571) 42915 204800 1
(0.4071452993 0.2137323434 0.3420200035 0.03710235393) 21013 61899 1
(0.3665105549 0.05872275869 0.2013582626 0.3734084238) 57713 71183 2
(0.245669389 0.4423528262 0.3110442006 0.0009335841851) 43815 133006 1
(0.03913257788 0.2728172317 0.2206353153 0.4674148752) 58596 176406 1
(0.03766664311 0.4766441221 0.2476660592 0.2380231755) 54725 166687 2
(0.2881899235 0.1867698584 0.3339082786 0.1911319396) 54772 202963 2
(0.273682667 0.2085678583 0.3575507534 0.1601987213) 54772 202963 2
(0.3389649179 0.3185772105 0.1257294546 0.2167284171) 54772 202963 1
(0.2389927087 0.3639154554 0.2221746517 0.1749171841) 54772 202963 1
(0.1299219215 0.3932293585 0.2294042362 0.2474444837) 24612 73925 2
(0.2366762112 0.3585132444 0.3413497012 0.06346084325) 54772 202963 1
(0.443301601 0.1865764133 0.003373912844 0.3667480729) 54543 202831 1
(0.3620657566 0.3093423316 0.09361605033 0.2349758615) 54733 202896 2
(0.1214898248 0.1603847955 0.2598227181 0.4583026616) 58597 176405 1
)


// ************************************************************************* //
