/*--------------------------------*- C++ -*----------------------------------*\
  =========                 |
  \\      /  F ield         | OpenFOAM: The Open Source CFD Toolbox
   \\    /   O peration     | Website:  https://openfoam.org
    \\  /    A nd           | Version:  8
     \\/     M anipulation  |
\*---------------------------------------------------------------------------*/
FoamFile
{
    version     2.0;
    format      ascii;
    class       scalarField;
    location    "0.5/lagrangian/reactingCloud1";
    object      T;
}
// * * * * * * * * * * * * * * * * * * * * * * * * * * * * * * * * * * * * * //


179
(
299.9999938
299.9999742
299.9999845
300
300
300
300
300
299.9999887
300
299.9999904
299.9999844
299.9999934
300
299.9999888
299.9999905
299.9999845
300
299.9999843
300
299.9999916
299.9999845
299.9999844
299.9999845
299.999999
299.9999872
299.999999
299.9999846
299.9999989
299.9999845
299.9999949
299.9999948
299.9999948
299.999995
299.9999947
299.999986
300
299.9999912
299.9999916
299.9999919
299.9999951
299.999992
299.9999893
299.9999922
299.9999968
299.9999925
300
299.9999952
299.9999964
299.9999993
300
299.9999892
299.9999931
299.9999933
299.9999935
299.9999935
299.9999955
299.9999893
299.9999996
299.9999971
299.9999973
299.9999956
299.9999894
299.9999976
299.9999976
299.9999976
299.999997
299.9999979
299.9999958
299.9999964
299.9999979
299.9999982
299.9999979
299.9999982
299.9999963
299.9999981
299.9999981
299.9999965
299.9999951
299.9999982
299.9999981
299.9999932
299.9999965
299.9999981
299.9999977
299.9999979
299.9999981
299.999998
299.9999938
299.9999979
299.9999971
299.9999961
299.9999978
299.9999979
299.9999961
299.999998
299.9999977
299.999998
299.9999979
299.9999979
299.999998
299.9999979
299.999998
299.9999981
299.999998
299.9999979
299.999998
299.999998
299.9999975
299.9999982
299.999998
299.9999981
299.999998
300
299.999998
299.999998
299.9999941
299.9999916
299.999998
299.999998
299.999998
299.9999982
299.999998
299.9999947
299.9999954
299.999998
299.999998
299.9999896
299.999998
299.9999957
299.999998
299.9999963
299.999998
299.9999957
299.9999956
299.999997
299.999998
299.9999979
299.9999976
299.999998
300
300
299.9999959
299.9999964
300
299.9999979
300
299.9999979
300
299.9999979
299.9999983
299.9999979
299.9999926
300
299.9999978
299.999994
299.9999978
299.9999978
300
299.9999964
299.9999978
299.9999937
300
299.9999977
300
299.999998
299.999998
300
299.9999982
299.9999932
299.9999944
299.9999944
299.9999946
299.9999946
299.9999976
299.9999947
299.9999943
299.999993
299.9999978
)


// ************************************************************************* //
