/*--------------------------------*- C++ -*----------------------------------*\
  =========                 |
  \\      /  F ield         | OpenFOAM: The Open Source CFD Toolbox
   \\    /   O peration     | Website:  https://openfoam.org
    \\  /    A nd           | Version:  8
     \\/     M anipulation  |
\*---------------------------------------------------------------------------*/
FoamFile
{
    version     2.0;
    format      ascii;
    class       vectorField;
    location    "0.5/lagrangian/reactingCloud1";
    object      U;
}
// * * * * * * * * * * * * * * * * * * * * * * * * * * * * * * * * * * * * * //


179
(
(-0.1518826942 -0.008651174922 -1.78286017)
(-0.07175173691 0.02307246802 -1.646299613)
(-0.2622566547 -0.1325139989 -1.733568698)
(-0.3836930594 0.77163564 -3.241414475)
(-0.0891660755 0.8433299679 -3.317853726)
(-0.6882803832 0.845595348 -3.115259135)
(-0.9110753841 0.4202099123 -3.035153083)
(0.007512000379 0.7323829277 -3.079346657)
(-0.01397584604 0.1305047521 -1.306704823)
(-0.7513137967 0.9157565802 -2.807147847)
(-0.023695002 -0.0609096563 -1.078559195)
(-0.02473574363 0.4583693785 -1.158386831)
(-0.01109577971 -0.0458664588 -1.21834493)
(-0.8154434711 0.6878064573 -2.806387653)
(0.2562912701 -0.1212471963 -1.061453537)
(-0.002390793295 -0.2096353103 -1.110492261)
(-0.031306306 0.3338076949 -1.102921913)
(-0.345703507 0.6712053623 -2.950600304)
(-0.01049338668 0.4500790309 -1.075005694)
(-0.8652519157 0.1420999669 -3.119171714)
(-0.00382094283 -0.1814540771 -1.055402435)
(-0.01259447717 0.2185032872 -1.022103811)
(-0.01395710049 0.4400320183 -1.023877855)
(-0.006277224074 0.2846138298 -1.017899794)
(-1.056617865 -0.009877371978 -0.9984353236)
(0.2396376525 0.08263908805 -0.9695480947)
(-0.9493795016 -0.01662551633 -0.9787864951)
(-0.008770980803 0.4433045735 -0.98967343)
(-0.8829351178 -0.02003254576 -0.945128125)
(0.007072158168 0.310028789 -0.9609742559)
(-0.5394475471 1.039998652 -1.406868842)
(-0.529129092 1.049608542 -1.38125621)
(-0.4977707388 1.00159202 -1.345827054)
(-0.5546981038 1.033710648 -1.454191071)
(-0.4790280491 1.250576934 -1.440772235)
(0.01404857173 0.196778385 -0.8738493806)
(-0.2275086877 1.108793789 -2.399550584)
(-0.2464468542 -0.1685586271 -0.8501037206)
(-0.2452831124 -0.1892912163 -0.8296466533)
(-0.2181842123 -0.2088230822 -0.8098025314)
(-0.5126351084 0.8379773873 -1.465216654)
(-0.2023196927 -0.217618505 -0.7955475581)
(-0.1239043031 0.1712051806 -0.7948927658)
(-0.1922389751 -0.2307742411 -0.7845065065)
(-0.003015857067 0.1173220427 -0.7618746574)
(-0.180398144 -0.2466719713 -0.7676952308)
(-0.9391820122 0.6572874691 -2.283457832)
(-0.3946318143 1.078229523 -1.426899787)
(-0.01651668352 0.1693747877 -0.7503378287)
(-0.5685038685 0.3123840882 -1.230040773)
(-1.046987695 0.2296043632 -2.672196513)
(0.01139802767 0.2078801271 -0.7279567833)
(-0.1698390148 -0.277694732 -0.7283015984)
(-0.1465979738 -0.2826576981 -0.7086596572)
(-0.1405619145 -0.2887724877 -0.6944234422)
(-0.1327050319 -0.280472421 -0.6816010003)
(-0.3710501211 0.9428013611 -1.409261463)
(-0.0006348141973 0.1917376953 -0.6363486581)
(-0.3453799715 0.1243627778 -1.253740346)
(-0.7182469492 0.6612715416 -1.234902986)
(-0.7829917607 0.9333178554 -1.278318416)
(0.01858924427 0.1741661959 -0.6022186963)
(0.01446732799 0.1772135843 -0.5981514933)
(-0.6060894659 1.144573478 -1.135104462)
(-0.5767665048 1.149320824 -1.136165097)
(-0.6556509029 1.313322729 -1.176810633)
(-0.7277114849 0.5723000629 -1.256873395)
(-0.8381586823 0.1147269933 -0.8156240115)
(-0.3916759218 0.8526046936 -1.407593814)
(-0.5427181382 0.5128380069 -1.249012391)
(-0.9566422222 0.7430891883 -0.9462275633)
(-0.7552442481 0.1451943784 -0.8703336565)
(-0.8942090025 0.6662246712 -0.9959471779)
(-0.7341975503 0.1356937793 -0.8826055429)
(-0.5682483162 0.6580481797 -1.33352945)
(-0.8644573046 0.3752677366 -0.9250713137)
(-0.7322813318 0.09108448854 -0.8330727802)
(-0.04740765568 0.01893515239 -0.4982262208)
(-0.1057858293 -0.2323890611 -0.4963016412)
(-0.8354580976 0.3506370373 -0.9297657099)
(-0.9456500123 0.4345498731 -0.8890263667)
(0.2235731415 0.1170942938 -0.4780988927)
(-0.5602269687 0.4536415828 -1.215668481)
(-0.8012897136 0.5207498036 -0.994911127)
(-0.9375621395 0.9610309527 -0.9351439715)
(-0.8485919623 0.7117841197 -0.9186195358)
(-0.867820371 0.479858623 -0.8566327677)
(-0.8826206741 0.6022594786 -0.9766781104)
(0.2606604787 -0.1491202599 -0.4530672583)
(-0.7933060449 0.7558133789 -0.918925085)
(-0.02418430783 1.473055616 -0.4845876552)
(-0.4196532696 0.7407822338 -1.419094723)
(-0.8390791032 0.95541073 -0.9759456125)
(-0.822787368 0.9081027352 -0.9855748315)
(-0.5600470199 0.8830822178 -1.386437662)
(-0.7702897927 0.915377531 -1.076289049)
(-0.7448085886 0.1246423406 -0.7864007587)
(-0.7325377378 0.8616942986 -1.08764303)
(-0.7594737975 0.9278116234 -1.067284959)
(-0.8369204411 0.8718109932 -0.9936278819)
(-0.7545729344 0.8684839546 -1.099775518)
(-0.7798872848 0.9717539086 -1.057015441)
(-0.7233892247 0.8603158499 -1.083234498)
(-0.7947878273 0.7427844181 -1.015294821)
(-0.7233691121 0.8484238141 -1.091203448)
(-0.756263687 0.9698411579 -1.047801982)
(-0.7113925134 0.8254303994 -1.107483431)
(-0.8978669393 0.5620729324 -0.8258486884)
(-0.5450508986 0.9944409986 -1.205632168)
(-0.7627842656 0.3040600087 -0.9327940494)
(-0.7068716025 0.824217123 -1.113014242)
(-0.7312185173 0.6432096176 -1.017805789)
(-0.6915855349 0.8195931802 -1.119230141)
(-0.9328553349 0.7232227889 -2.078041641)
(-0.8373407471 0.5565124072 -0.8285782742)
(-0.7708376142 0.80091457 -0.8586266643)
(0.2749321865 -0.1471183326 -0.4215103402)
(0.143628244 0.1089710909 -0.4179990331)
(-0.6654049836 0.8096051192 -1.122673626)
(-0.8421329828 0.5774813659 -0.8197573245)
(-0.6561919676 0.8153758808 -1.128870623)
(-0.7425555641 0.6078368597 -1.031075133)
(-0.8153090733 0.5725817281 -0.8204299796)
(0.2825401937 -0.1329321679 -0.4003491521)
(-0.1119182697 -0.1736041196 -0.40841832)
(-0.6477871269 0.8345678497 -1.138245987)
(-0.8138017836 0.5764094096 -0.8158942222)
(0.09999576689 0.3798349339 -0.4422853315)
(-0.8090634072 0.5775510014 -0.8116908423)
(-0.1906263695 -0.2307477333 -0.3876125934)
(-0.7757468991 0.8049001601 -0.8181261227)
(-0.4366068707 0.6526550055 -1.436158602)
(-0.5884051264 0.8178462946 -1.145873583)
(-0.2064898938 -0.1817089221 -0.3741357252)
(-0.2014797376 -0.09161929843 -0.3629446273)
(-0.2654523529 -0.2980108058 -0.3639406217)
(-0.7094724652 0.7435109669 -0.8222966628)
(-0.8056613514 0.590792424 -0.7770787559)
(-0.5419860686 0.1108280988 -0.775623661)
(-0.5745015925 0.846794777 -1.154947227)
(-0.652626559 0.6063614954 -2.267018184)
(-0.2079731415 1.141546526 -1.980450297)
(-3.938866848e-05 0.3611148389 -0.1324092338)
(0.0002596498585 -0.4467518807 -0.2529809973)
(-0.2161590633 0.3282054273 -2.485639152)
(-0.7272841545 0.5528804069 -0.7814364965)
(-0.6343925383 0.4583137706 -2.308149845)
(-0.6998525822 0.5441147676 -0.7811381185)
(-0.1241851734 1.185810996 -2.001845319)
(-0.6943158859 0.5455354545 -0.7740573107)
(-0.6330631811 0.4519826399 -1.043239434)
(-0.6799647516 0.5424597118 -0.7690760887)
(0.2607596029 -0.04893043131 -0.2616795293)
(-0.3465562225 1.218934207 -1.85894368)
(-0.6648846554 0.5421102994 -0.7442736836)
(-0.1818633395 0.1614682167 -0.227420991)
(-0.6067650699 0.5117632655 -0.7485462162)
(-0.4374056639 0.8481595823 -1.120117911)
(-0.1774990769 1.133482677 -1.973927645)
(-0.4124302293 0.5393505815 -1.413118801)
(-0.5855541682 0.5034461166 -0.7161649901)
(0.4141436779 -0.1235160734 -0.1774132651)
(-0.6046847546 0.575060622 -2.144187127)
(-0.515374715 0.1870276136 -0.7054031017)
(0.2543337145 1.189099314 -1.841845653)
(-0.4870997353 0.4922058097 -1.127088222)
(-0.4622985172 0.4609921098 -0.8641399257)
(-0.1804347932 1.210608796 -1.820498469)
(-0.4327419882 0.5056186126 -0.7119556923)
(-0.3254673272 -0.007510959735 -0.08194267771)
(-0.008391513918 0.7853061112 -0.07166095515)
(0.005622999875 0.8325525343 -0.06701811081)
(0.01539262412 0.8586518875 -0.05148138613)
(0.02458157067 0.8635821318 -0.04582985525)
(-0.344425971 0.1006407943 -0.7432522524)
(0.0294525101 0.8702697723 -0.03950625083)
(6.351166419e-05 -0.11203352 0.05153647513)
(0.3260534546 -0.009769009629 -0.03201585923)
(-0.5003409075 0.4085841668 -0.6722576461)
)


// ************************************************************************* //
