/*--------------------------------*- C++ -*----------------------------------*\
  =========                 |
  \\      /  F ield         | OpenFOAM: The Open Source CFD Toolbox
   \\    /   O peration     | Website:  https://openfoam.org
    \\  /    A nd           | Version:  8
     \\/     M anipulation  |
\*---------------------------------------------------------------------------*/
FoamFile
{
    version     2.0;
    format      ascii;
    class       volScalarField;
    location    "0.7";
    object      nut;
}
// * * * * * * * * * * * * * * * * * * * * * * * * * * * * * * * * * * * * * //

dimensions      [0 2 -1 0 0 0 0];

internalField   nonuniform List<scalar> 
67451
(
0.0001940291099
0.0001599943536
0.0001736764853
0.0001937308462
0.0001891297446
0.0001891607419
0.0001725010012
0.0001506902795
0.0001373963113
0.0001256388912
0.0001140562441
0.0001138296197
0.0001209086415
0.0001272531899
0.0001337421698
0.000143190559
0.0001395109637
0.0001499968185
0.0001664787339
0.0001705830328
0.0001689131926
0.0001514375351
0.0001254737647
0.0001090237881
0.0001081218074
0.0001153397131
0.0001147419796
0.0001108183522
0.000107923958
0.0001078282391
0.0001093565433
0.0001108662657
0.0001120463464
0.0001127693573
0.0001122215629
0.0001094871255
9.682925982e-05
9.945441607e-05
0.0001039811515
0.000109066582
0.0001141912636
0.0001195357689
0.0001245366676
0.0001285917926
0.0001303492377
0.0001519745887
0.0001741532142
0.0001687346691
0.0001499933278
0.0001297275657
0.0001104335727
0.0001101677373
0.0001375188233
0.0001468025764
0.0001431768163
0.0001347741423
0.0001253191961
0.0001190710081
0.0001170230456
0.0001177830091
0.000120497643
0.0001234337053
0.0001230228754
0.00011797507
0.0001012543202
0.0001029982827
0.0001061488144
0.0001090604089
0.0001131115517
0.0001180936123
0.0001217804202
0.0001246658236
0.000126525318
0.0001280038896
0.0001279307394
0.0001201219589
0.0001104663384
0.0001025835637
0.0001093989029
0.0001448946204
0.00017779564
0.0001779876894
0.0001728830508
0.0001652933669
0.0001544415047
0.0001431137071
0.0001348857816
0.0001325623348
0.0001363439706
0.0001419785968
0.0001426145436
0.0001360655531
0.0001141558875
0.0001107497681
0.0001104114865
0.0001130374076
0.0001206598569
0.000127015682
0.0001319990497
0.0001328925618
0.0001357802863
0.0001324208559
0.0001266029972
0.000116920794
0.0001142514922
0.0001441527417
0.000187065425
0.0002120172177
0.0002083189103
0.0002005535444
0.0001929859648
0.0001848251178
0.0001736639205
0.000161583793
0.000153808842
0.0001546606146
0.0001593000643
0.0001612500851
0.000155746873
0.0001312805973
0.000117574094
0.0001135442211
0.0001118365749
0.0001218511106
0.0001317592526
0.0001413261806
0.0001400556307
0.0001393509987
0.0001364574495
0.0001296307952
0.0001209118441
0.0001316446634
0.0001833161661
0.0002265406953
0.0002453032631
0.0002394799329
0.0002281694339
0.000218103033
0.000210509895
0.0002008325038
0.00018633488
0.0001724882029
0.0001682533325
0.0001697019356
0.000172769314
0.0001699988404
0.0001458618012
0.0001206748698
0.000116778188
0.000111220925
0.0001214508984
0.0001367321544
0.0001520052467
0.0001502787108
0.0001392793011
0.0001371236287
0.0001314874236
0.0001236290763
0.000142055638
0.0001813887766
0.0002104367365
0.0002386582748
0.0002286223914
0.0002321975486
0.0002349127223
0.0002350551448
0.0002270750313
0.0002095436481
0.0001889218178
0.0001783437073
0.0001796264634
0.0001822012389
0.0001793948216
0.0001551578066
0.0001053972051
0.0001214006308
0.0001126481612
0.0001225434339
0.0001408112073
0.0001598494939
0.0001601630487
0.0001517176275
0.0001396693785
0.0001298930868
0.0001206860669
0.0001207955493
0.0001627904825
0.0002199817726
0.0003274157634
0.0002833462498
0.0002754486741
0.0002748161169
0.0002704995871
0.0002582339069
0.0002357802901
0.0002068373576
0.0001867290886
0.0001837718029
0.0001856515709
0.0001833790618
0.0001590167049
0.0001232762637
0.0001620624332
0.0001202324065
0.0001256388738
0.0001488400096
0.0001671177713
0.0001675696404
0.0001612985752
0.0001499182722
0.0001349488319
0.0001197073678
0.0001416271958
0.0002273724051
0.0003632369811
0.0005303439915
0.0004288326966
0.0003598396245
0.0003281108547
0.0003096169173
0.0002895725016
0.0002645094401
0.0002329263229
0.0002000921432
0.0001806163287
0.000174116119
0.0001676484432
0.0001412724225
0.0001342812947
0.0001387939147
0.00012326389
0.0001363946538
0.0001616455492
0.0001791924242
0.0001765903528
0.000168348562
0.0001592660544
0.0001463884033
0.0001289394749
0.000149924378
0.0002303813313
0.0003414782117
0.0005049073061
0.000491346995
0.0003745140763
0.0003328412691
0.000315461681
0.0002960935338
0.000271619005
0.0002428195732
0.0002091041576
0.0001794980056
0.0001620808885
0.0001516938
0.0001296336932
0.0001856125015
0.0001270710446
0.0001410858388
0.0001553498774
0.0001807216562
0.0001859234017
0.000184785997
0.0001770211855
0.000168018955
0.000158578616
0.0001445841204
0.0001432061829
0.0001803612449
0.0002341946216
0.0003439431206
0.0003307591482
0.0003082421718
0.0003005058091
0.0002868484966
0.0002648514136
0.0002353540918
0.0002021695421
0.000174861973
0.0001577744121
0.0001488325789
0.0001427033612
0.0001253614615
0.0002560415139
0.0001576431943
0.0001686833896
0.0001859267398
0.0002174246425
0.0001939284227
0.0001911217334
0.0001842925238
0.0001758049425
0.0001677664486
0.0001589730894
0.0001578567464
0.0001771324506
0.0001887419036
0.0002316221541
0.0002416376847
0.0002697780305
0.0002656874696
0.000249534965
0.0002247615722
0.0001962263257
0.0001726242663
0.0001588092538
0.0001515016176
0.000146825222
0.0001421451421
0.0001254124181
0.0003162822333
0.0002846562036
0.0002311302903
0.0002097426338
0.0002697723666
0.0002367883213
0.0002107495179
0.0001946973483
0.000183759774
0.0001751948667
0.0001680603181
0.0001721256916
0.0001884460395
0.0001902263281
0.0001882106441
0.0001927036059
0.0002321848521
0.0002256510186
0.0002083511193
0.0001882527444
0.0001715691288
0.000161045032
0.0001549677255
0.0001509005073
0.0001474586016
0.0001432090388
0.0001261952329
0.0003169715012
0.0002439950695
0.0002259622343
0.0002796006922
0.0003251581165
0.0003022532918
0.0002662287705
0.0002354148227
0.00020885747
0.0001878708854
0.0001761208553
0.0001874934506
0.0002009468088
0.0002004082335
0.0001933574681
0.0001867371039
0.0001985195143
0.0001934919391
0.0001831821283
0.000173460905
0.0001662022404
0.0001609704163
0.0001568241077
0.0001530654195
0.0001492491635
0.0001445625879
0.0001270534568
0.000263071325
0.0002211891345
0.0002499057961
0.000293528735
0.0003298529049
0.000316487676
0.0002904328915
0.0002652014978
0.0002388594278
0.0002109253992
0.0001938140238
0.0002017613302
0.000210682778
0.0002082506578
0.0002019700325
0.0001951144037
0.0001890841829
0.0001838931141
0.000177953068
0.0001723911056
0.0001675155326
0.0001631672292
0.0001590967717
0.0001550351581
0.0001509307469
0.0001457820859
0.0001276657306
0.0002288936789
0.0002674300741
0.0002501115224
0.0002794364482
0.0003117573006
0.0002986916556
0.0002801937889
0.0002611188991
0.0002359185988
0.000206914455
0.0001992242404
0.000211338496
0.0002142740534
0.0002107991069
0.0002054256788
0.0001996033499
0.0001932221948
0.0001875616334
0.0001818134568
0.0001760969885
0.0001707903977
0.0001662982613
0.0001622502766
0.0001581952387
0.0001538352972
0.0001481880779
0.0001292683663
0.0001986166721
0.0002176532615
0.0002410895037
0.000259626709
0.0002830665962
0.000268846892
0.0002559019989
0.0002407101476
0.0002162873463
0.0001969422329
0.0002038166789
0.0002146706568
0.0002160141388
0.0002122072929
0.0002071524916
0.0002020360682
0.0001972688033
0.0001931645325
0.000189047838
0.0001846134571
0.0001799711919
0.0001756395793
0.0001717506212
0.0001674796491
0.0001622551253
0.0001550407251
0.0001336959564
0.0001758842946
0.0001949564031
0.00022268992
0.0002401814201
0.0002564583767
0.0002410208287
0.0002301728915
0.0002148860343
0.0001966489859
0.0001978040699
0.0002101495059
0.0002174776358
0.0002176834189
0.0002135823769
0.000208524934
0.0002037930064
0.0002004261408
0.0001985997181
0.000197471011
0.000196138861
0.0001940791103
0.0001911558715
0.0001873578361
0.0001825044355
0.0001759833742
0.0001664946443
0.0001412629448
0.0001672003466
0.000177094227
0.0001978847859
0.000219572727
0.0002336213238
0.0002173138167
0.0002046243235
0.0001923851204
0.0001905264796
0.000201337064
0.0002131893336
0.0002178936942
0.0002175712207
0.0002138012044
0.0002089058036
0.0002044282801
0.000202061441
0.0002022161364
0.0002031333081
0.0002030121097
0.000201338104
0.0001983953182
0.0001946423125
0.0001902622098
0.0001845452077
0.0001755174876
0.0001485110396
0.0001670191551
0.0001695300622
0.0001735787923
0.0001930575163
0.0002081221708
0.0001940654043
0.000182827389
0.0001820969763
0.0001911405131
0.0002023503943
0.000210853963
0.0002147516188
0.0002149192431
0.0002121084759
0.0002078377171
0.0002037081154
0.0002018931448
0.0002033770399
0.0002053081047
0.0002053044469
0.0002033103266
0.0002000833627
0.0001963649525
0.0001925736478
0.000188301005
0.0001807126611
0.0001546724271
0.0001650645658
0.0001673801548
0.0001603437479
0.0001683551716
0.0001797203288
0.0001728409494
0.0001707631691
0.0001792300176
0.000190235607
0.0001985216616
0.0002043845589
0.0002085284898
0.0002099860442
0.0002084899145
0.0002052673281
0.0002017550708
0.0002002179851
0.0002024098194
0.0002048213929
0.0002047432425
0.0002025627807
0.0001993379484
0.0001959089084
0.0001927641656
0.0001896921578
0.0001837794152
0.0001595996261
0.000160212954
0.0001638080574
0.0001569615791
0.0001548885356
0.0001567519982
0.0001583214257
0.0001650105647
0.000177011602
0.0001866109363
0.0001915612211
0.0001956917626
0.0002003544724
0.0002034327105
0.0002034388996
0.0002015189003
0.0001989034938
0.0001976044089
0.0002000115699
0.0002026183484
0.0002025418911
0.000200439045
0.0001975406996
0.0001946843666
0.0001923219924
0.0001901512283
0.0001853040881
0.0001626111702
0.000157123418
0.0001593158198
0.0001730434895
0.000152516796
0.0001440547646
0.000148278274
0.0001604401343
0.0001733787716
0.0001811738423
0.0001836493358
0.0001864246138
0.0001914760545
0.000196058016
0.0001976473131
0.0001971053596
0.0001955449312
0.0001945823275
0.000196898657
0.0001995477128
0.0001996184961
0.0001978206656
0.0001954765113
0.0001934161559
0.0001919136254
0.0001902690912
0.0001859199478
0.0001640482851
0.0001572214932
0.0001571055886
0.0002410693668
0.0001634900914
0.0001388131017
0.0001389952676
0.000154181638
0.0001681678853
0.0001751248293
0.0001759991672
0.0001775490306
0.0001828144642
0.0001885815701
0.0001917201846
0.0001925107642
0.0001920171948
0.0001914888303
0.0001935805027
0.0001961887083
0.0001965352227
0.0001952138271
0.0001935944696
0.0001924514094
0.0001916206479
0.0001900766098
0.0001856545966
0.0001638498259
0.0001716360397
0.0002290788135
0.0003365454049
0.0002560108261
0.000183555323
0.0001408655925
0.0001439660459
0.0001603116409
0.0001684336265
0.000169151907
0.0001695154718
0.0001748947712
0.0001815404411
0.0001861144825
0.0001881368296
0.0001886340081
0.0001885216019
0.0001903089694
0.0001928079933
0.0001935190061
0.0001928226104
0.0001920044439
0.0001915527414
0.0001909535544
0.0001890894048
0.0001840022563
0.0001614915333
0.0001650740878
0.0002020893437
0.0003246831342
0.0002318191529
0.0001680818793
0.000131810928
0.000134079026
0.0001500608576
0.0001598664144
0.0001628984131
0.0001627050669
0.0001679665329
0.0001753553438
0.0001811404962
0.0001842183148
0.0001855335218
0.0001856362497
0.0001869487121
0.0001891840357
0.0001902617504
0.0001902324597
0.0001900419417
0.0001898681646
0.0001890146781
0.0001864078317
0.0001799767291
0.0001560255432
0.0001569317232
0.0001553972168
0.0002500960715
0.0001817207733
0.0001392819126
0.0001204653485
0.0001242482043
0.0001378584364
0.000148128393
0.0001542059678
0.0001565526664
0.0001620743925
0.0001699522614
0.0001765378295
0.0001803068459
0.0001819907684
0.0001821224949
0.0001829744005
0.0001846750249
0.0001858867603
0.0001863987721
0.0001865692778
0.0001862617589
0.0001847127462
0.0001807433952
0.000172089927
0.0001462428455
0.000148142
0.000136797668
0.0001845432412
0.0001410381786
0.0001203481392
0.0001127024282
0.0001154627455
0.0001250389662
0.0001338989873
0.0001419824168
0.0001475987913
0.0001557055274
0.0001645106648
0.0001715389612
0.0001756263178
0.0001772339907
0.0001771087637
0.0001772974038
0.0001783401164
0.0001794244378
0.000180130674
0.0001802869016
0.0001793757934
0.0001764255838
0.0001701852312
0.0001583960829
0.0001310281113
0.0001388492188
0.0001278419325
0.0001375218922
0.0001180899881
0.000109776472
0.0001070582676
0.0001083527848
0.0001135732745
0.0001194333048
0.0001272426973
0.0001350096744
0.0001460252559
0.0001566070465
0.000164518513
0.0001690209547
0.000170378111
0.0001695192686
0.0001686263848
0.0001687047749
0.000169292914
0.0001697086009
0.0001692299042
0.0001669368421
0.0001616327347
0.0001522008067
0.0001367695361
0.0001090933399
0.0001295197188
0.0001191016922
0.0001142486967
0.000105854308
0.0001023486886
0.0001017141825
0.0001022473795
0.0001042949773
0.0001069897746
0.0001123797658
0.0001198440434
0.0001321604884
0.0001443022161
0.0001531617507
0.0001580694186
0.0001590519857
0.0001569730591
0.0001542538249
0.0001526535273
0.0001520691343
0.0001513879642
0.0001491870224
0.0001444760988
0.0001361690175
0.0001238243917
0.000103292672
0.0001205353607
0.0001168131591
0.0001067679016
9.904609045e-05
9.418460897e-05
9.245795519e-05
9.253501296e-05
9.293253839e-05
9.356277056e-05
9.438431911e-05
9.696035039e-05
0.0001018570849
0.0001118110352
0.0001226348193
0.0001306746319
0.0001349851995
0.0001351427109
0.0001313978339
0.000125897557
0.000121262575
0.0001181241542
0.0001147386047
0.000108881839
0.0001013377912
9.007399793e-05
7.921219611e-05
0.0001597757319
4.70177411e-05
0.000864674921
0.0007413940461
0.0007674376765
0.0008300833312
0.0007884271143
0.0007109751541
0.0005977290935
0.0004033096332
0.0002784915755
0.0001974989967
0.0001549211358
0.0002154131432
0.0002914669789
0.0003942452214
0.0005413526016
0.0007118003282
0.0005927518236
0.0007160419562
0.0007809656035
0.0007575662246
0.0006803155655
0.0005534398385
0.0003286792051
0.000180752641
0.0001293880983
0.0001221106561
0.000128201027
0.0001347847875
0.0001428279809
0.0001552609849
0.0001661272748
0.0001671804998
0.0001589673419
0.0001475225607
0.0001388827732
0.0001277333946
8.82707448e-05
0.0001177093641
0.0001361882408
0.0001672365411
0.0002281473055
0.0003167519859
0.0004067767313
0.0004867697447
0.0005329349849
0.0007821063352
0.0007236068305
0.0006301173793
0.0005487212131
0.000361390564
0.0002056264325
0.0001202345725
9.547569013e-05
9.687394673e-05
0.0001155915098
0.0001340547574
0.0001532980988
0.0001710054872
0.0001765054935
0.0001699573212
0.0001569443686
0.0001435833655
0.0001336573636
0.0001223797834
8.88616747e-05
0.0001166623844
0.000128701125
0.0001483012282
0.0001867267524
0.0002379166453
0.0002793399264
0.0003391050169
0.0004018414338
0.0005019435387
0.0004861573328
0.0004239126545
0.0002816339428
0.0001668431896
0.0001114524744
9.494277435e-05
9.286332616e-05
8.656179891e-05
9.22112504e-05
0.0001211856491
0.0001480043686
0.0001628328362
0.0001670128321
0.0001649102335
0.000159354857
0.0001516992498
0.0001438608032
0.0001310988914
9.57358346e-05
0.0001364686191
0.0001424978294
0.0001593124653
0.000191889537
0.0002300596547
0.0002691066797
0.0003315287559
0.000365059743
0.0003485265264
0.000304930281
0.0002164645054
0.0001383589331
0.0001207027244
0.000156674372
0.0001831773761
0.0001670553042
0.000136500415
0.0001270144905
0.0001448077361
0.0001659663525
0.0001764232076
0.000181327039
0.0001822816936
0.0001789777387
0.0001719183552
0.000152612829
0.0001079319169
0.0001598489491
0.000154980482
0.0001585991473
0.0001858880709
0.0002107809452
0.0002488772704
0.0002992592657
0.0003089155661
0.0002949453786
0.0002629350334
0.0002017385711
0.0001388192797
0.0001476293672
0.0002620757447
0.0003062527889
0.0002940857266
0.0002511537956
0.0002029905078
0.0001795302095
0.0001820735189
0.0001938363429
0.0002070166104
0.0002218957122
0.0002143095888
0.0002134553409
0.0001872733896
0.0001219353526
0.0001810118849
0.0001618193382
0.0001575766708
0.0001772524836
0.0002200226802
0.0002529481735
0.000286799784
0.0003159032528
0.0003087321313
0.0002801343582
0.0002142400849
0.0001589496009
0.0001558668314
0.0002107520336
0.0002844656203
0.0002703950409
0.0002463000383
0.0002270681034
0.0002190293896
0.0002152101696
0.0002198161594
0.000235019963
0.0002489866342
0.000252489426
0.0002466271144
0.0002222547645
0.0001339459237
0.0001495206931
0.0001651527656
0.0001345730339
0.0001574369955
0.0001990427896
0.0002424967311
0.0002714959767
0.0002904218779
0.0003094856949
0.0002799207269
0.0002236906907
0.0001669045876
0.0001546911369
0.0002533556579
0.0004912020592
0.0004240529229
0.0003536451802
0.00031891414
0.0002899814251
0.0002618700287
0.0002498855107
0.0002652190801
0.0002735623767
0.0002646196513
0.0002564742933
0.0002413134292
0.0001386797276
0.000167215354
0.0002329107678
0.000167657894
0.0001318125561
0.0001889317173
0.0002347502374
0.0002567906286
0.0002748687298
0.0002754269351
0.0002584671332
0.0002260260054
0.0001689512892
0.0002072768119
0.0007410504753
0.001074152299
0.0009014323642
0.0006479306193
0.0004944020653
0.000409400879
0.0003381407262
0.0002865333842
0.0002781587302
0.0002889403013
0.0002851758115
0.0002678861948
0.0002322277846
0.0001277692307
0.0001612764183
0.0002562914181
0.0001542360501
0.0001321659971
0.0002120275401
0.0002706478179
0.0002691806414
0.0002666382749
0.0002707516447
0.0002532599179
0.000228465981
0.0002167254454
0.0002159496168
0.0004714154205
0.0009221809859
0.000944902846
0.0005470655901
0.0004773734943
0.0004166945687
0.0003648972553
0.0003296655603
0.0003059423423
0.0002720184152
0.0002413305252
0.0002183173969
0.0001951986442
0.000119841684
0.000139899393
0.0001793416031
0.0001275216674
0.0001574694737
0.0002602594766
0.0002994027907
0.0002956415057
0.0002738591907
0.0002730260462
0.0002544720337
0.0002191141133
0.0002060331996
0.0002341651046
0.0002717013823
0.0005267755836
0.0004365580602
0.0004428773595
0.0004265943412
0.0004014853254
0.0003821045597
0.0003598443927
0.0003232628134
0.0002877595096
0.0002569671435
0.0002306354162
0.0002036290797
0.0001176508442
0.0002770665643
0.0001824293595
0.0001401129392
0.0001632864329
0.0002661038046
0.000302203013
0.0003011367575
0.0002861866094
0.0002786078513
0.0002636978454
0.0002409881424
0.0002496784725
0.0002822901248
0.0003107743663
0.0003247680695
0.0004130828443
0.0004377629564
0.0004308827357
0.0004209198659
0.0004011221613
0.000371720898
0.0003357805825
0.0003047283029
0.0002828431535
0.0002601592257
0.0002259385267
0.0001185512031
0.0003107637943
0.0002715861995
0.0001770913273
0.0002202020636
0.0003731916272
0.0003317513239
0.000309117758
0.0002944671176
0.0002837423306
0.0002680583526
0.0002703658893
0.0003125140265
0.0003790033528
0.0004180725326
0.0004363250099
0.0004753396204
0.0004650733714
0.0004466373919
0.0004233030357
0.0003839148326
0.0003473406803
0.0003187492735
0.0002994184129
0.0002875918043
0.0002825933315
0.0002512113921
0.0001204965016
0.0002947931225
0.0002202577882
0.0002135747593
0.0003748693758
0.0004922382651
0.0004048000867
0.000314952976
0.0002944737862
0.0002864865027
0.0002811811348
0.0003126767784
0.0004103529219
0.0005219863107
0.0005387269587
0.0005223417157
0.0004985759602
0.0004764193071
0.0004439853617
0.0004095586375
0.0003753495796
0.000347522509
0.0003268728836
0.0003121423486
0.0003016691142
0.0002926697848
0.0002562562143
0.0001216177862
0.0002068753267
0.0002231929682
0.000229474862
0.0003873033986
0.0004894564703
0.0004293166621
0.0003620000268
0.000339598394
0.0003239767567
0.0003251196317
0.000403517651
0.0005469680584
0.000584134434
0.0005684920137
0.000540266516
0.0005081503171
0.0004809614836
0.0004477921743
0.0004151930423
0.0003857277928
0.0003613835395
0.0003422039205
0.0003271565107
0.0003136328752
0.0002924230731
0.000253962381
0.0001224812405
0.0002049518837
0.0004842367194
0.0002043662728
0.0002973542084
0.0003991508771
0.000368720604
0.0003607130247
0.0003636043473
0.0003296812903
0.0003622784538
0.0004858300613
0.0005953359803
0.0006017816784
0.0005868278409
0.0005580227022
0.0005231771644
0.0004896155958
0.0004569181219
0.0004265101985
0.000398407839
0.0003715269789
0.0003435024296
0.0003179429864
0.000295779849
0.0002747085199
0.0002439788649
0.0001242062396
0.0002906841175
0.000280805853
0.0002237944874
0.0002342876979
0.0002918221888
0.0002843236725
0.0003245283149
0.0003413138584
0.0003269223025
0.0003965059084
0.0005526737838
0.0006028456443
0.0006094895339
0.0005970880861
0.0005692449435
0.0005334312703
0.0004976686362
0.0004646855554
0.0004345089193
0.0004064653853
0.0003797194301
0.000351178672
0.000319870228
0.0002910324187
0.0002664189526
0.0002377805413
0.0001276506631
0.0003044448064
0.0003090109187
0.0002448568697
0.0002045508899
0.0002228617776
0.0002510239653
0.0002935449305
0.0003158872784
0.0003320834739
0.0004291601259
0.0005573963057
0.0005896772737
0.0005995178601
0.0005904246082
0.000565332984
0.0005320539816
0.0004981912212
0.0004666283205
0.0004363114348
0.0004065561907
0.0003779693432
0.0003508824718
0.0003260844504
0.0003017855686
0.0002739404093
0.0002404284869
0.0001319929308
0.000279628733
0.0003064312638
0.0002348371409
0.0001971187751
0.0002085219681
0.0002377134364
0.0002708029102
0.0003005787122
0.0003393626058
0.00045021599
0.0005220185567
0.0005543011169
0.0005679144494
0.0005640645524
0.0005444040551
0.0005168537183
0.0004876240763
0.0004588535111
0.0004289519928
0.0003981100226
0.0003681432709
0.0003408483066
0.0003181518743
0.0003007273374
0.0002795569913
0.0002438970407
0.0001360876269
0.0002685808924
0.0002746512881
0.0002176311707
0.0001866311116
0.0001926177402
0.0002133071635
0.0002445278064
0.0002850884506
0.0003329055105
0.0004190837288
0.0004650526613
0.0004991820146
0.0005185007845
0.0005221884363
0.0005106214635
0.0004909373827
0.0004678041503
0.0004423001347
0.0004135130982
0.0003830353397
0.0003532521593
0.0003263118565
0.0003047689981
0.0002906577645
0.0002780302479
0.0002441534313
0.0001400217137
0.0002677684652
0.0002513537475
0.0002076518614
0.0001778471665
0.0001739024917
0.0001859386564
0.0002137232965
0.0002593461437
0.0003081379856
0.0003592908063
0.0003957455618
0.0004321634304
0.0004587994824
0.0004715652422
0.0004696635472
0.0004589385733
0.0004421829049
0.000419793123
0.0003922787144
0.0003628229336
0.0003343418402
0.0003091382119
0.0002897948187
0.0002785050499
0.0002720894157
0.0002405030036
0.0001433877465
0.0002626924054
0.0002453111599
0.0002108260675
0.0001757841
0.0001603261448
0.0001642653706
0.0001820594847
0.0002243516456
0.0002682572535
0.0002945262178
0.0003242917498
0.0003618925521
0.0003959265569
0.0004182730672
0.0004264483172
0.0004248103207
0.0004141990446
0.0003947353829
0.0003685359248
0.0003403051305
0.0003138110033
0.0002917628848
0.0002760907481
0.00026881941
0.0002658832395
0.0002356473713
0.000145738363
0.0002514584239
0.0002403985006
0.0002060792811
0.0001849254161
0.0001545563999
0.0001503274948
0.0001591317949
0.0001894141205
0.0002215765899
0.0002380889871
0.0002608090387
0.0002965005196
0.0003362420865
0.0003676846636
0.0003853263629
0.0003922324562
0.0003874408512
0.0003710604917
0.000346640072
0.0003198929406
0.0002956622337
0.0002773216365
0.0002664551374
0.0002647756121
0.0002615023939
0.00023075545
0.0001468473608
0.0002542533779
0.0002534822987
0.0002770525312
0.0001703251706
0.0001397744437
0.0001400982701
0.000144042043
0.0001632097877
0.0001832183875
0.0001941661405
0.0002104292456
0.0002418370009
0.0002846816728
0.0003238791151
0.0003497604293
0.0003644695962
0.0003652860863
0.0003523451248
0.0003302682688
0.0003052049792
0.0002831562714
0.0002687472995
0.0002640794011
0.0002656573177
0.0002581092113
0.0002248954193
0.0001462366007
0.0002358959314
0.0003433958344
0.0003316220422
0.0002434661586
0.000135829768
0.0001331405653
0.0001346587805
0.0001452844092
0.0001560755556
0.0001626017891
0.000173672398
0.0002004253615
0.0002442248204
0.0002893938578
0.0003223504338
0.0003448147886
0.0003515547839
0.0003421951199
0.0003223904416
0.0002988444761
0.0002790043817
0.0002689326235
0.0002677833282
0.0002671548875
0.0002510539812
0.0002154363922
0.0001431510929
0.0002334432967
0.0002270722026
0.0003062316163
0.0001726816515
0.0001379410422
0.0001382637576
0.0001321897191
0.0001342998277
0.0001376159787
0.0001407080014
0.0001493542429
0.0001735330457
0.0002178274791
0.0002670880391
0.000305850101
0.0003351558457
0.0003467178617
0.0003390640216
0.0003208833165
0.0002991187404
0.0002809126116
0.0002711815589
0.0002670547121
0.0002568482057
0.0002345656074
0.0002006307319
0.0001368228059
0.0002147907593
0.0001863793509
0.0001601232919
0.0001369800731
0.0001419549519
0.0001438872617
0.0001334589207
0.0001275267549
0.0001252401277
0.0001253915733
0.0001325906201
0.0001561197203
0.0002003008879
0.0002508524129
0.0002919733699
0.0003226847381
0.0003340557992
0.0003241789453
0.0003069117473
0.0002878870167
0.000270981058
0.0002586750949
0.0002476925531
0.0002317951043
0.0002095453143
0.0001814729629
0.0001267715197
0.0001921798086
0.0001632161116
0.0001418526737
0.0001420240522
0.0001443550114
0.0001448682484
0.0001345922393
0.0001237640465
0.0001178537118
0.0001170551271
0.0001233599803
0.0001450105892
0.0001847779349
0.0002293604701
0.000264022983
0.0002841832465
0.0002882972193
0.0002791715421
0.0002656579645
0.0002511758666
0.0002378377251
0.0002266051432
0.0002145878131
0.000198299986
0.0001803768156
0.0001587926798
0.0001128496393
0.0001716945111
0.0001483014103
0.0001416566279
0.0001422184573
0.0001422744903
0.0001405444107
0.0001316932537
0.0001212434086
0.0001152118839
0.000115075966
0.0001215527689
0.0001387560454
0.0001675191919
0.0001991850242
0.0002230260919
0.0002308824013
0.0002257152657
0.0002174640985
0.0002105076107
0.0002036869362
0.0001966246225
0.0001890923853
0.0001791390965
0.0001646927289
0.0001510949337
0.0001344740529
9.469628108e-05
0.0001532727461
0.000137056024
0.0001334907761
0.0001357107977
0.0001352448656
0.0001307523753
0.0001236352082
0.0001171513891
0.0001140148673
0.0001152234031
0.0001209590951
0.0001326701268
0.0001492342219
0.0001666330031
0.0001790342171
0.0001786435761
0.0001692203901
0.0001613736821
0.0001585681881
0.0001573419947
0.0001545871984
0.0001491517265
0.0001405864415
0.0001293061923
0.0001184147165
0.0001052282268
0.0002580788041
0.0001095208326
0.0001005282328
9.506416292e-05
9.251007347e-05
9.09244648e-05
8.97416662e-05
8.903892124e-05
8.895498138e-05
8.942349688e-05
9.121596731e-05
9.477786545e-05
0.0001016295741
0.0001098129179
0.0001168633298
0.0001209616531
0.0001202082721
0.000114999528
0.0001083310271
0.0001033416486
0.0001002192613
9.638472575e-05
9.009226097e-05
8.339739255e-05
0.000305500667
0.00025812317
0.0001856091504
8.709450799e-05
0.0009737971556
0.001071528124
0.001068577581
0.001060489205
0.0009998998257
0.000912577917
0.0008251409633
0.0007233563405
0.0005590036188
0.0004101844367
0.0002935295222
0.0002202100258
0.0001923515321
0.0001829824483
0.0001786219509
0.0003236293025
0.0004753307058
0.0006700278184
0.0008989274805
0.001021091829
0.0009995376354
0.001017205139
0.000953633383
0.0008802810948
0.000794281438
0.0006844445707
0.0004648913946
0.0002588934452
0.0001643896243
0.0001411487176
0.0001415030391
0.0001479464995
0.0001599391071
0.0001757264376
0.0001860511205
0.0001837519982
0.000169486421
0.0001501545745
0.000136550237
0.0001257217207
8.62618427e-05
0.0001261779604
0.0001613560125
0.0002223221888
0.00033592335
0.0004920710676
0.0006601376113
0.0008167004721
0.0008908822785
0.0009074153793
0.0008436585612
0.0007607932908
0.0007009963415
0.0005150364934
0.0002910380191
0.0001387694991
9.86525201e-05
9.77567572e-05
0.0001154959069
0.0001395484203
0.0001660547959
0.0001885323761
0.00019750415
0.0001898728217
0.0001697277219
0.0001466041295
0.0001295366128
0.0001181391906
8.467426076e-05
0.0001151288839
0.0001352856385
0.0001706090012
0.0002391654748
0.0003342274535
0.000427375547
0.0005397154129
0.0006169497215
0.0006799801961
0.000621961578
0.0005509720599
0.0004201189745
0.0002222210866
0.0001033225166
9.218955291e-05
9.650682558e-05
8.964164102e-05
8.951052848e-05
0.000109412892
0.0001425982116
0.0001700720797
0.0001823034604
0.0001797962033
0.0001671129594
0.0001495479969
0.0001337259601
0.0001213465382
8.77819126e-05
0.000135987048
0.0001451657962
0.0001695823953
0.0002195235644
0.0002871832382
0.0003545168869
0.0004223318674
0.0004574693886
0.0004150976809
0.0003567245006
0.0002544880438
0.0001226121499
0.0001135444921
0.0001869245658
0.0001960709463
0.0001694941321
0.0001335319566
0.0001178899946
0.0001298384496
0.0001561984384
0.0001776475032
0.0001871182626
0.0001858019259
0.0001728447546
0.0001526647235
0.0001344473728
9.579212686e-05
0.0001668159124
0.0001560214837
0.00015181785
0.0001678641889
0.0001909611776
0.0002464666395
0.000294431551
0.0003137983908
0.0003056144868
0.0002759950678
0.0001944718451
0.0001225579843
0.0001688823977
0.0003009684881
0.0003312174447
0.000302639085
0.000246703679
0.0001927295228
0.0001589530417
0.0001630436672
0.0001883210392
0.0002150037761
0.0002220065299
0.000200589172
0.0001841154225
0.0001571858294
0.0001073425709
0.0001890476877
0.0001750692821
0.0001665881848
0.0001705622198
0.0002038530839
0.0002372181877
0.0002777675674
0.0003022862951
0.0002953164378
0.0002889714143
0.0002411227104
0.0001740830339
0.0001828321581
0.0002777055671
0.0003174312297
0.0002917798869
0.000241092758
0.000206015369
0.0001902703212
0.000194843425
0.0002196402918
0.0002426391336
0.0002496620388
0.0002407425553
0.0002108716468
0.0001833170225
0.0001196094849
0.0001519289265
0.0001809318131
0.0001241598647
0.0001744880622
0.0002020962217
0.000241135459
0.000274408643
0.0002957012006
0.0002919657981
0.0002813407618
0.0002433870477
0.0001865854642
0.0002259097584
0.0005022230963
0.0006468046077
0.0005292312219
0.0003894960563
0.0003143992886
0.0002656020015
0.0002376631924
0.0002470933835
0.0002572357744
0.0002471468197