/*--------------------------------*- C++ -*----------------------------------*\
  =========                 |
  \\      /  F ield         | OpenFOAM: The Open Source CFD Toolbox
   \\    /   O peration     | Website:  https://openfoam.org
    \\  /    A nd           | Version:  8
     \\/     M anipulation  |
\*---------------------------------------------------------------------------*/
FoamFile
{
    version     2.0;
    format      ascii;
    class       volScalarField;
    location    "0.7";
    object      p_rgh;
}
// * * * * * * * * * * * * * * * * * * * * * * * * * * * * * * * * * * * * * //

dimensions      [1 -1 -2 0 0 0 0];

internalField   nonuniform List<scalar> 
67451
(
100003.9034
100003.8712
100003.9149
100003.8938
100003.8942
100003.8973
100003.8753
100003.8751
100003.8635
100003.8626
100003.858
100003.8337
100003.8281
100003.834
100003.8289
100003.8503
100003.8487
100003.8518
100003.8621
100003.8512
100003.848
100003.833
100003.8373
100003.8393
100003.8502
100003.8441
100003.8415
100003.8446
100003.8478
100003.85
100003.8537
100003.86
100003.8697
100003.8829
100003.9057
100003.9181
100003.957
100003.8244
100003.8165
100003.8323
100003.8356
100003.8593
100003.8517
100003.9092
100003.8953
100003.8991
100003.9422
100003.8885
100003.9788
100003.8842
100003.9677
100003.8679
100003.849
100003.8159
100003.8131
100003.8196
100003.8329
100003.8448
100003.8532
100003.8619
100003.8711
100003.8841
100003.9077
100003.9216
100003.9684
100003.8137
100003.7902
100003.826
100003.8215
100003.8395
100003.8308
100003.8503
100003.8479
100003.8563
100003.853
100003.8387
100003.8366
100003.8359
100003.8466
100003.8111
100003.8032
100003.8016
100003.7998
100003.803
100003.8181
100003.8337
100003.8477
100003.8636
100003.8771
100003.8942
100003.92
100003.9345
100003.9975
100003.7653
100003.8352
100003.8098
100003.8483
100003.8294
100003.8683
100003.8756
100003.8719
100003.9034
100003.8703
100003.8948
100003.8854
100003.8743
100003.8333
100003.867
100003.8853
100003.8354
100003.7923
100003.7889
100003.8129
100003.8357
100003.8596
100003.8692
100003.864
100003.894
100003.9254
100004.0152
100003.7555
100003.8679
100003.8046
100003.8742
100003.8513
100003.8695
100003.8842
100003.8879
100003.8697
100003.8537
100003.862
100003.8694
100003.8361
100003.8772
100004.0334
100004.113
100004.0642
100003.9187
100003.8374
100003.827
100003.8463
100003.8882
100003.8957
100003.966
100003.9482
100003.9611
100004.0855
100003.8195
100003.9546
100003.7398
100003.8586
100003.8245
100003.8679
100003.8783
100003.8875
100003.897
100003.8707
100003.8942
100003.8931
100003.8562
100003.9031
100004.0123
100004.1294
100004.1028
100004.0631
100004.0184
100003.9039
100003.8821
100003.9005
100003.9146
100003.9311
100003.9483
100003.9585
100004.0814
100003.8319
100004.1837
100003.9065
100003.9601
100003.8427
100003.8795
100003.8807
100003.884
100003.8863
100003.8668
100003.896
100003.9104
100003.8699
100003.8488
100003.874
100004.2801
100004.2318
100004.1554
100004.0435
100003.9249
100003.8968
100003.9298
100003.9587
100003.9732
100003.9777
100003.9774
100004.1106
100003.7983
100004.3083
100003.8047
100003.982
100003.8757
100003.9071
100003.8606
100003.8609
100003.874
100003.8717
100003.8963
100003.9073
100003.7531
100003.9041
100004.6641
100004.7907
100004.4358
100004.2481
100004.1077
100003.965
100003.8881
100003.9034
100003.9405
100003.9607
100003.9813
100003.9975
100004.1139
100003.8762
100005.1312
100003.9871
100004.1586
100003.9303
100003.9903
100003.9322
100003.8891
100003.8729
100003.8858
100003.9452
100003.9897
100003.8607
100003.7557
100004.6478
100005.4928
100004.4493
100004.3339
100004.2231
100004.0695
100003.9703
100003.9413
100003.9523
100003.9698
100003.9978
100004.0196
100004.1215
100003.7823
100004.0904
100003.8719
100004.022
100003.9774
100004.0244
100003.985
100003.9145
100003.8616
100003.8496
100003.9085
100003.9232
100003.9475
100003.8935
100003.778
100004.1576
100004.2548
100004.2651
100004.2104
100004.1167
100004.0498
100004.0127
100003.9915
100003.9835
100003.9998
100004.0178
100004.1094
100004.2263
100004.2645
100003.9747
100004.088
100004.0094
100004.0694
100003.9992
100003.9144
100003.8576
100003.8442
100003.8949
100003.9321
100003.9753
100004.0461
100003.878
100004.1741
100004.2245
100004.2706
100004.243
100004.1514
100004.074
100004.0178
100003.9848
100003.9784
100003.9974
100004.0172
100004.1067
100004.6831
100003.9929
100003.9567
100004.0788
100004.0879
100004.0388
100003.9602
100003.8917
100003.8547
100003.8574
100003.904
100003.9445
100003.9779
100004.0353
100004.1017
100004.2443
100004.2557
100004.3178
100004.5124
100004.3256
100004.2092
100004.1113
100004.0433
100004.0079
100004.0111
100004.0235
100004.1116
100004.435
100004.6816
100004.2034
100004.4641
100004.2614
100004.1417
100003.9526
100003.8685
100003.8499
100003.8754
100003.9251
100003.9462
100003.9623
100003.9882
100004.0347
100004.1322
100004.1703
100004.1751
100004.2022
100004.1418
100004.0868
100004.0395
100004.0075
100003.9945
100004.0086
100004.0263
100004.1148
100003.8955
100004.2935
100004.0781
100004.2248
100004.3189
100004.1778
100003.9571
100003.8492
100003.846
100003.9032
100003.9523
100003.9616
100003.9692
100004.003
100004.0525
100004.1074
100004.1578
100004.1594
100004.1751
100004.1233
100004.0667
100004.0195
100003.9905
100003.9827
100004.0024
100004.0245
100004.1139
100003.9404
100007.2881
100004.2901
100004.8929
100004.3489
100004.2216
100003.9697
100003.8712
100003.8912
100003.9633
100003.9815
100003.9643
100003.9816
100004.0119
100004.0536
100004.0841
100004.1106
100004.1109
100004.1031
100004.0669
100004.0248
100003.9891
100003.9684
100003.9676
100003.9931
100004.0206
100004.1145
100003.8947
100006.4374
100004.2018
100004.5556
100004.1946
100004.0866
100003.9247
100003.8726
100003.9271
100003.9751
100003.9657
100003.9637
100003.9963
100004.0276
100004.0586
100004.0761
100004.0852
100004.0798
100004.0629
100004.03
100003.9914
100003.9597
100003.9437
100003.9484
100003.9804
100004.0142
100004.1183
100004.0365
100005.1272
100004.1007
100004.2919
100004.042
100003.9769
100003.8939
100003.8872
100003.9426
100003.9517
100003.9356
100003.9631
100003.9992
100004.0297
100004.0522
100004.0628
100004.0658
100004.0588
100004.0405
100004.0094
100003.9712
100003.9364
100003.9179
100003.9232
100003.9612
100003.9992
100004.112
100004.0428
100004.5265
100004.0546
100004.0911
100003.9301
100003.8991
100003.8761
100003.8965
100003.9205
100003.905
100003.9179
100003.9593
100003.9937
100004.0202
100004.0343
100004.0401
100004.0409
100004.0365
100004.0238
100003.9996
100003.9655
100003.9292
100003.9043
100003.9028
100003.9394
100003.9832
100004.0981
100004.0205
100004.2163
100004.0278
100004.0044
100003.9109
100003.8838
100003.8806
100003.8862
100003.8811
100003.8736
100003.9029
100003.945
100003.9747
100003.9951
100004.0004
100004.0009
100004.0004
100003.9996
100003.995
100003.9811
100003.9558
100003.9235
100003.8987
100003.8912
100003.945
100003.9601
100004.0565
100004.0106
100004.0474
100004.0132
100003.9787
100003.9209
100003.8925
100003.879
100003.8679
100003.852
100003.849
100003.883
100003.9181
100003.9414
100003.9556
100003.9537
100003.95
100003.9482
100003.9492
100003.9503
100003.9448
100003.9281
100003.9023
100003.8803
100003.8709
100003.9043
100003.9311
100004.0715
100003.9729
100003.961
100004.0485
100003.962
100003.9112
100003.8919
100003.8697
100003.8529
100003.8332
100003.8271
100003.8555
100003.8813
100003.8988
100003.9072
100003.9015
100003.8952
100003.8918
100003.8925
100003.8954
100003.8954
100003.8865
100003.8694
100003.855
100003.8508
100003.8835
100003.9174
100004.0648
100003.9675
100003.9289
100003.9785
100003.9722
100003.9046
100003.9149
100003.8672
100003.8448
100003.8222
100003.8092
100003.8262
100003.8432
100003.8558
100003.8593
100003.8522
100003.845
100003.8405
100003.84
100003.8425
100003.8454
100003.8431
100003.8353
100003.8302
100003.8338
100003.8713
100003.9075
100004.053
100003.9146
100003.8543
100003.8345
100003.8516
100003.8329
100003.9021
100003.8518
100003.8404
100003.8151
100003.7969
100003.8026
100003.8116
100003.8202
100003.8199
100003.8128
100003.806
100003.8013
100003.8
100003.8017
100003.8058
100003.8085
100003.8086
100003.812
100003.8238
100003.8679
100003.9052
100004.0443
100003.9671
100003.7533
100004.4578
100003.9917
100003.7773
100003.9665
100003.891
100003.8651
100003.8203
100003.7939
100003.789
100003.7914
100003.7961
100003.7931
100003.7867
100003.7814
100003.7777
100003.7767
100003.7783
100003.7828
100003.7887
100003.7949
100003.8057
100003.8268
100003.8766
100003.9145
100004.0423
100004.1178
100003.9086
100004.6022
100003.9828
100003.8284
100003.9702
100003.9015
100003.8692
100003.8286
100003.7991
100003.7863
100003.7838
100003.7842
100003.78
100003.7748
100003.7718
100003.7705
100003.7717
100003.7743
100003.7793
100003.7873
100003.7986
100003.8174
100003.8467
100003.8988
100003.9368
100004.0492
100004.03
100003.8983
100003.6415
100003.8587
100003.9107
100003.9481
100003.901
100003.8685
100003.8379
100003.8124
100003.7969
100003.7891
100003.786
100003.7815
100003.7779
100003.7774
100003.7795
100003.7841
100003.7898
100003.7973
100003.8085
100003.8249
100003.85
100003.8837
100003.935
100003.9726
100004.0661
100003.9945
100003.9011
100003.9876
100003.9538
100003.9761
100003.9399
100003.9078
100003.8765
100003.8541
100003.8339
100003.8201
100003.8107
100003.8054
100003.8016
100003.8
100003.8008
100003.8056
100003.8144
100003.8247
100003.8365
100003.8516
100003.8721
100003.9004
100003.935
100003.983
100004.0175
100004.0865
100004.0297
100003.9267
100004.1511
100003.9835
100004.0114
100003.9443
100003.9279
100003.901
100003.8838
100003.8692
100003.8592
100003.8537
100003.8512
100003.8509
100003.8524
100003.8547
100003.8608
100003.8715
100003.8844
100003.899
100003.9165
100003.9387
100003.9671
100003.9997
100004.044
100004.0774
100004.1564
100004.0384
100003.9488
100004.159
100003.9769
100004.0151
100003.9494
100003.9404
100003.9217
100003.9086
100003.8986
100003.8917
100003.8893
100003.891
100003.8963
100003.9035
100003.91
100003.9191
100003.9323
100003.9476
100003.964
100003.9831
100004.0056
100004.0315
100004.0573
100004.0864
100004.1128
100004.105
100004.0876
100004.0054
100004.1719
100004.0109
100004.049
100003.9936
100003.9883
100003.9782
100003.9716
100003.97
100003.9729
100003.9878
100004.0118
100004.0382
100004.0586
100004.0653
100004.0624
100004.0614
100004.0661
100004.0762
100004.09
100004.1032
100004.1184
100004.1229
100004.1338
100004.1183
100004.1007
100003.6461
100003.8431
100003.7959
100003.8207
100003.8276
100003.8441
100003.8244
100003.8353
100003.8147
100003.8065
100003.8046
100003.816
100003.8099
100003.8125
100003.8179
100003.8219
100003.8429
100003.8393
100003.8316
100003.8222
100003.8229
100003.7956
100003.8123
100003.8039
100003.7867
100003.7609
100003.7607
100003.7719
100003.7891
100003.8078
100003.8249
100003.8385
100003.8517
100003.8613
100003.8842
100003.8947
100003.9334
100003.7862
100003.7906
100003.7948
100003.7893
100003.7893
100003.7944
100003.7998
100003.814
100003.8051
100003.8112
100003.7993
100004.1435
100003.8373
100004.065
100003.8251
100003.7552
100003.7257
100003.718
100003.7196
100003.7434
100003.777
100003.809
100003.8333
100003.8505
100003.8546
100003.8786
100003.8907
100003.9384
100003.7476
100003.7556
100003.7733
100003.7846
100003.7959
100003.7982
100003.8204
100003.8232
100003.8309
100003.8353
100003.8146
100003.8055
100003.8006
100003.7982
100003.737
100003.7043
100003.7122
100003.7105
100003.7001
100003.7005
100003.7314
100003.7793
100003.8215
100003.8484
100003.8404
100003.8684
100003.8825
100003.9459
100003.7225
100003.7439
100003.7584
100003.7811
100003.7751
100003.8033
100003.8094
100003.8181
100003.8187
100003.8181
100003.8405
100003.8166
100003.7865
100003.7332
100003.7227
100003.7234
100003.7098
100003.6942
100003.6767
100003.6869
100003.7344
100003.791
100003.8315
100003.8108
100003.8434
100003.8457
100003.9278
100003.71
100003.7292
100003.745
100003.7849
100003.7998
100003.8072
100003.8385
100003.8346
100003.8289
100003.8057
100003.7996
100003.7826
100003.7155
100003.6981
100003.7277
100003.7525
100003.7424
100003.6964
100003.6658
100003.6725
100003.712
100003.7755
100003.8405
100003.8273
100003.8578
100003.8389
100003.9312
100003.7079
100003.7051
100003.689
100003.7521
100003.7772
100003.7868
100003.8008
100003.828
100003.8261
100003.81
100003.8136
100003.785
100003.6873
100003.7257
100003.7382
100003.8297
100003.8061
100003.7384
100003.6081
100003.6601
100003.7164
100003.7827
100003.8289
100003.847
100003.8741
100003.8645
100003.9443
100003.7134
100003.6361
100003.776
100003.7133
100003.7989
100003.7893
100003.8371
100003.8101
100003.8394
100003.8115
100003.8092
100003.7908
100003.6491
100003.5812
100003.573
100003.6657
100003.609
100003.6244
100003.648
100003.6693
100003.7071
100003.7826
100003.8405
100003.8547
100003.8839
100003.8731
100003.9648
100003.6218
100003.5749
100003.6573
100003.7642
100003.7959
100003.8007
100003.801
100003.794
100003.7903
100003.7884
100003.7808
100003.7808
100003.5125
100003.5591
100003.5314
100003.8301
100003.7804
100003.7802
100003.7603
100003.7376
100003.7445
100003.7798
100003.8347
100003.8778
100003.9069
100003.9129
100004.0147
100003.6514
100003.5479
100003.7692
100003.8396
100003.8483
100003.8433
100003.8377
100003.8085
100003.8029
100003.7617
100003.7782
100003.7478
100003.3809
100003.3065
100003.2044
100003.7039
100003.0588
100003.3609
100003.6704
100003.7198
100003.7718
100003.779
100003.8083
100003.8627
100003.924
100003.9582
100004.059
100003.5689
100003.6632
100003.6798
100003.7812
100003.816
100003.8436
100003.8283
100003.806
100003.7879
100003.7515
100003.7613
100003.7619
100003.6803
100003.3759
100003.0948
100003.0017
100003.4947
100003.6785
100003.9285
100003.8947
100003.8704
100003.8739
100003.8978
100003.918
100003.9481
100003.9707
100004.0551
100003.915
100004.0445
100003.8669
100003.9237
100003.8502
100003.8658
100003.8292
100003.7925
100003.7709
100003.7459
100003.757
100003.7524
100003.7569
100003.608
100003.4263
100003.1949
100003.5782
100003.609
100003.7984
100003.8391
100003.8809
100003.9011
100003.9087
100003.9163
100003.9454
100003.9668
100004.0463
100003.6661
100003.6072
100003.5739
100003.7986
100003.7852
100003.859
100003.8002
100003.7797
100003.7556
100003.7569
100003.7883
100003.8284
100003.8319
100003.8082
100003.8539
100003.811
100004.0316
100004.0061
100004.6947
100004.2894
100004.1789
100004.0709
100004.0019
100003.9673
100003.9668
100003.9737
100004.0485
100003.7655
100004.1454
100003.8657
100004.0465
100003.8679
100003.8385
100003.7487
100003.7297
100003.7289
100003.7628
100003.8131
100003.8435
100003.8262
100003.807
100003.8422
100003.8132
100003.9191
100003.9586
100004.0868
100004.0364
100004.0082
100003.9802
100003.9605
100003.9528
100003.9663
100003.9797
100004.0563
100003.6265
100003.755
100003.7883
100003.8424
100003.8297
100003.8091
100003.7378
100003.7288
100003.7075
100003.739
100003.8338
100003.8527
100003.8571
100003.8838
100003.9283
100003.9695
100004.0408
100004.0867
100004.1788
100004.112
100004.0494
100003.9949
100003.9614
100003.9505
100003.9669
100003.9853
100004.064
100003.0359
100004.8748
100004.3057
100004.3836
100003.985
100003.931
100003.7809
100003.7647
100003.7017
100003.7781
100003.856
100003.8398
100003.876
100003.9001
100003.9402
100003.9701
100004.0104
100004.0341
100004.053
100004.0275
100003.9927
100003.9598
100003.9407
100003.9396
100003.9628
100003.9878
100004.0715
100003.5661
100011.4574
100004.3213
100004.7273
100003.914
100003.9554
100003.7744
100003.7245
100003.7158
100003.8286
100003.8412
100003.8583
100003.8913
100003.9242
100003.9575
100003.9847
100004.0071
100004.018
100004.0169
100003.9924
100003.9597
100003.9299
100003.915
100003.9198
100003.9501
100003.9819
100004.0746
100003.7589
100005.1922
100003.9426
100004.2952
100003.8673
100003.8862
100003.7572
100003.728
100003.7855
100003.8375
100003.83
100003.8646
100003.8964
100003.9312
100003.9596
100003.9823
100003.996
100003.998
100003.9865
100003.9596
100003.9255
100003.8946
100003.878
100003.8827
100003.9167
100003.9534
100004.0555
100003.8651
100004.7883
100003.8606
100004.0325
100003.8026
100003.8128
100003.747
100003.7729
100003.8131
100003.8178
100003.8252
100003.8606
100003.8918
100003.9242
100003.9479
100003.9687
100003.9779
100003.9747
100003.9585
100003.9306
100003.897
100003.8664
100003.8492
100003.852
100003.882
100003.9167
100004.0225
100003.8752
100004.221
100003.8644
100003.8943
100003.7604
100003.7795
100003.7781
100003.8105
100003.8104
100003.8002
100003.8178
100003.8472
100003.875
100003.9008
100003.9182
100003.9326
100003.9393
100003.936
100003.9217
100003.898
100003.8693
100003.842
100003.8258
100003.8276
100003.8553
100003.8763
100003.9858
100003.8654
100004.0003
100003.8613
100003.876
100003.7676
100003.7998
100003.8077
100003.8217
100003.8019
100003.7883
100003.8057
100003.8267
100003.8484
100003.8665
100003.8776
100003.8866
100003.8911
100003.8884
100003.8771
100003.8591
100003.8369
100003.815
100003.8023
100003.8044
100003.8294
100003.8454
100003.9601
100003.8386
100003.8834
100003.8606
100003.8583
100003.7823
100003.8133
100003.805
100003.8141
100003.7914
100003.78
100003.7899
100003.8029
100003.8175
100003.8282
100003.834
100003.8385
100003.8409
100003.8384
100003.8299
100003.8172
100003.8021
100003.7873
100003.7804
100003.7837
100003.8102
100003.823
100003.9389
100003.7916
100003.7993
100003.7184
100003.7862
100003.7384
100003.8104
100003.7782
100003.7974
100003.778
100003.7703
100003.7743
100003.7811
100003.7893
100003.7939
100003.7953
100003.7964
100003.7968
100003.7945
100003.7882
100003.7804
100003.7719
100003.7647
100003.7635
100003.7694
100003.8002
100003.8114
100003.9261
100003.7476
100003.7809
100003.741
100003.8177
100003.7031
100003.7974
100003.7457
100003.7791
100003.7614
100003.7592
100003.7618
100003.7651
100003.7688
100003.7688
100003.7668
100003.766
100003.765
100003.7629
100003.7589
100003.7551
100003.7522
100003.7506
100003.7542
100003.766
100003.7995
100003.8126
100003.9243
100003.534
100003.4225
100003.4949
100003.4647
100003.3962
100003.7321
100003.7019
100003.7724
100003.7499
100003.7511
100003.7545
100003.7565
100003.7571
100003.7537
100003.7495
100003.7487
100003.7476
100003.7467
100003.7449
100003.7438
100003.7444
100003.7473
100003.7581
100003.7736
100003.8096
100003.8279
100003.9353
100003.5495
100003.349
100004.009
100003.4074
100003.3678
100003.726
100003.7024
100003.7775
100003.7536
100003.7502
100003.7532
100003.7538
100003.7519
100003.7467
100003.7418
100003.7423
100003.7428
100003.7438
100003.7443
100003.7461
100003.7506
100003.7591
100003.7746
100003.7914
100003.8327
100003.8589
100003.9602
100003.6156
100003.5448
100003.3349
100003.3775
100003.4246
100003.7758
100003.7476
100003.7921
100003.7767
100003.7627
100003.758
100003.7582
100003.7562
100003.7511
100003.7463
100003.7468
100003.7495
100003.7534
100003.7576
100003.7625
100003.77
100003.7816
100003.8003
100003.8237
100003.8711
100003.9076
100003.9993
100003.6752
100003.6982
100003.1511
100003.5887
100003.6307
100003.8127
100003.8031
100003.8176
100003.8071
100003.7888
100003.774
100003.7666
100003.764
100003.7602
100003.7564
100003.7551
100003.7607
100003.7714
100003.7809
100003.7896
100003.8006
100003.817
100003.8421
100003.8732
100003.9247
100003.9649
100004.0394
100003.8289
100003.8084
100003.6021
100003.7844
100003.8081
100003.852
100003.8584
100003.8593
100003.8494
100003.8336
100003.8165
100003.8021
100003.7949
100003.7921
100003.7922
100003.7937
100003.8017
100003.8158
100003.829
100003.8414
100003.857
100003.8791
100003.9096
100003.9452
100003.9945
100004.0333
100004.0925
100003.8969
100003.8723
100003.8441
100003.8624
100003.8785
100003.8843
100003.8875
100003.8841
100003.8761
100003.8647
100003.8509
100003.8348
100003.8246
100003.8225
100003.8267
100003.8326
100003.844
100003.8615
100003.8801
100003.8992
100003.9215
100003.9485
100003.9796
100004.0084
100004.0439
100004.0635
100004.0774
100003.9848
100003.9515
100003.9603
100003.9357
100003.9487
100003.9369
100003.9367
100003.9355
100003.9321
100003.9282
100003.9239
100003.9209
100003.9239
100003.9344
100003.9472
100003.953
100003.9568
100003.9658
100003.9793
100003.9954
100004.0147
100004.0345
100004.0573
100004.0733
100004.0919
100004.0826
100004.0755
100003.8207
100003.848
100003.8519
100003.8513
100003.8557
100003.8303
100003.8546
100003.8261
100003.8495
100003.8239
100003.8201
100003.8156
100003.8128
100003.8134
100003.8169
100003.796
100003.7988
100003.8075
100003.8181
100003.8431
100003.8465
100003.8384
100003.8395
100003.8141
100003.8262
100003.7992
100003.7991
100003.7964
100003.8003
100003.8009
100003.8041
100003.8076
100003.8121
100003.8174
100003.8239
100003.831
100003.8415
100003.8501
100003.8676
100003.8726
100003.8904
100003.7807
100003.7813
100003.7857
100003.7922
100003.8055
100003.8211
100003.8447
100003.8592
100003.8149
100003.8982
100003.7781
100003.8905
100003.8218
100003.9055
100003.8244
100003.8265
100003.8044
100003.8008
100003.7998
100003.8034
100003.8097
100003.8191
100003.8283
100003.8402
100003.8492
100003.8654
100003.8693
100003.889
100003.7635
100003.7677
100003.7793
100003.7929
100003.8069
100003.8151
100003.8274
100003.8342
100003.8316
100003.8334
100003.8108
100003.8072
100003.8016
100003.802
100003.7875
100003.7862
100003.7811
100003.7867
100003.7945
100003.8
100003.8055
100003.8164
100003.8289
100003.845
100003.8539
100003.8705
100003.8727
100003.8943
100003.7548
100003.7651
100003.78
100003.7956
100003.8044
100003.8223
100003.8311
100003.8315
100003.8532
100003.8223
100003.8544
100003.8206
100003.8481
100003.7973
100003.7936
100003.7803
100003.7628
100003.7528
100003.7706
100003.7887
100003.8087
100003.8276
100003.8405
100003.8507
100003.8676
100003.8737
100003.8959
100003.7357
100003.7451
100003.782
100003.8072
100003.8318
100003.8365
100003.8642
100003.8445
100003.8505
100003.8263
100003.829
100003.8205
100003.8584
100003.8155
100003.8479
100003.8519
100003.8312
100003.7948
100003.7842
100003.7919
100003.8117
100003.8336
100003.8811
100003.8899
100003.8818
100003.8846
100003.9135
100003.8029
100003.7733
100003.7778
100003.8031
100003.8218
100003.8307
100003.8476
100003.8448
100003.8426
100003.8358
100003.8411
100003.8387
100003.8442
100003.8258
100003.8228
100003.8568
100003.8605
100003.8119
100003.8012
100003.8064
100003.824
100003.8401
100003.8552
100003.8674
100003.8798
100003.8825
100003.9184
100003.7949
100003.5938
100003.8183
100003.7937
100003.8626
100003.8541
100004.1192
100003.8816
100003.8805
100003.8492
100003.8486
100003.866
100003.883
100003.9269
100004.0043
100004.02
100003.9672
100003.9073
100003.8531
100003.8311
100003.8581
100003.873
100003.8804
100003.8807
100003.893
100003.8947
100003.9385
100003.8102
100003.7057
100003.8488
100003.8197
100003.8716
100003.837
100003.8508
100003.8467
100003.8483
100003.8511
100003.8486
100003.8291
100003.8624
100003.665
100003.7417
100003.821
100003.8324
100003.85
100003.8598
100003.8476
100003.859
100003.8898
100003.9014
100003.9041
100003.9118
100003.9174
100003.9605
100003.7973
100003.3024
100003.8373
100003.7226
100003.8962
100003.8342
100003.8905
100003.8475
100003.8531
100003.857
100003.8645
100003.9384
100003.9793
100004.1452
100004.2432
100004.1877
100004.18
100004.0685
100003.9941
100003.9342
100003.9075
100003.899
100003.8938
100003.8931
100003.9078
100003.9185
100003.967
100003.8895
100003.7567
100003.8944
100003.8396
100003.8943
100003.8543
100003.8537
100003.8383
100003.8325
100003.8406
100003.8454
100003.8664
100003.8113
100003.9034
100003.6828
100003.9734
100003.9861
100004.0741
100004.2215
100004.1029
100004.0385
100003.983
100003.9422
100003.917
100003.9177
100003.9221
100003.9683
100003.7614
100003.8056
100003.8596
100003.8713
100003.8917
100003.8599
100003.8483
100003.8226
100003.8146
100003.8209
100003.8332
100003.8651
100003.842
100003.9476
100003.9726
100004.0338
100004.0389
100004.0279
100004.0174
100003.9483
100003.9241
100003.9067
100003.9006
100003.9008
100003.9137
100003.9229
100003.9704
100003.965
100003.7427
100003.9108
100003.8505
100003.8789
100003.8535
100003.8282
100003.8157
100003.8045
100003.8158
100003.839
100003.8563
100003.8575
100003.9232
100003.9522
100004.0497
100004.3535
100004.0757
100005.622
100004.5036
100004.3529
100004.1354
100004.0124
100003.9505
100003.9344
100003.9319
100003.978
100003.6211
100003.653
100003.8907
100003.9284
100003.9248
100003.8579
100003.8268
100003.8125
100003.8032
100003.8239
100003.8365
100003.8465
100003.8484
100003.8851
100003.9057
100003.9678
100004.0202
100004.021
100004.2271
100004.0448
100003.9958
100003.9558
100003.9327
100003.9222
100003.928
100003.9337
100003.9838
100003.8712
100002.9185
100003.8642
100003.6491
100003.888
100003.8177
100003.8239
100003.8195
100003.8333
100003.8434
100003.8502
100003.8528
100003.8656
100003.8944
100003.9325
100003.9877
100004.0493
100004.0761
100004.2782
100004.13
100004.0502
100003.9793
100003.9349
100003.9169
100003.9229
100003.9327
100003.9851
100002.9125
99999.77533
100003.6564
100003.5104
100003.9482
100003.8741
100003.8639
100003.859
100003.8585
100003.8597
100003.8579
100003.8584
100003.8706
100003.8952
100003.9249
100003.9608
100003.9902
100004.0059
100004.0397
100003.9995
100003.9637
100003.9301
100003.9071
100003.8985
100003.9117
100003.9267
100003.9822
100002.8503
100003.272
100004.2818
100003.8525
100003.9263
100003.89
100003.8638
100003.8742
100003.8667
100003.8704
100003.8575
100003.8627
100003.8769
100003.9014
100003.9272
100003.9553
100003.9738
100003.9823
100003.9859
100003.957
100003.9242
100003.8958
100003.8786
100003.8753
100003.894
100003.9129
100003.973
100003.5242
100004.0963
100003.9589
100003.9428
100003.9215
100003.891
100003.8704
100003.8807
100003.8709
100003.8655
100003.8547
100003.8616
100003.8779
100003.9021
100003.9241
100003.9477
100003.9597
100003.9598
100003.9489
100003.9227
100003.892
100003.865
100003.8495
100003.8487
100003.87
100003.8909
100003.9521
100003.7266
100004.0181
100003.8759
100003.9373
100003.8892
100003.8832
100003.8715
100003.878
100003.8678
100003.8513
100003.8469
100003.8549
100003.8718
100003.8954
100003.9149
100003.9448
100003.9535
100003.9428
100003.9226
100003.8948
100003.8646
100003.8381
100003.823
100003.8226
100003.8451
100003.8643
100003.9239
100003.8208
100003.9549
100003.8705
100003.913
100003.8732
100003.8837
100003.8733
100003.8743
100003.8608
100003.8404
100003.8354
100003.8421
100003.8553
100003.8719
100003.8846
100003.9009
100003.9054
100003.8988
100003.8832
100003.8609
100003.8354
100003.812
100003.7985
100003.7977
100003.822
100003.8357
100003.8927
100003.8688
100003.9384
100003.8933
100003.9077
100003.8708
100003.8846
100003.8772
100003.8714
100003.8554
100003.8302
100003.8225
100003.8249
100003.8319
100003.8407
100003.847
100003.8552
100003.8563
100003.8511
100003.8399
100003.8235
100003.8041
100003.7853
100003.7758
100003.7763
100003.7994
100003.8091
100003.8659
100003.8771
100003.9202
100003.8942
100003.9109
100003.8741
100003.8808
100003.8676
100003.8632
100003.8446
100003.8189
100003.8084
100003.8056
100003.8062
100003.8077
100003.8083
100003.8103
100003.809
100003.8047
100003.7972
100003.7865
100003.7732
100003.7604
100003.757
100003.7616
100003.7827
100003.7915
100003.8465
100003.897
100003.9733
100004.0471
100003.9289
100003.8897
100003.8804
100003.8569
100003.8513
100003.8313
100003.8079
100003.7945
100003.7874
100003.7828
100003.7789
100003.775
100003.7731
100003.7698
100003.766
100003.7613
100003.7556
100003.7483
100003.7421
100003.7483
100003.7542
100003.7751
100003.7858
100003.8376
100003.872
100003.9839
100003.8526
100003.9615
100003.8816
100003.8863
100003.8472
100003.842
100003.8192
100003.7983
100003.7835
100003.7737
100003.7654
100003.7577
100003.7511
100003.7481
100003.7441
100003.7406
100003.7381
100003.7366
100003.7348
100003.7368
100003.7488
100003.7525
100003.7803
100003.7925
100003.8405
100003.9083
100003.9805
100004.1033
100003.9429
100003.9068
100003.904
100003.8439
100003.8413
100003.8132
100003.7938
100003.7787
100003.7672
100003.7572
100003.7482
100003.7403
100003.7385
100003.7336
100003.7308
100003.7306
100003.7328
100003.7372
100003.7439
100003.754
100003.763
100003.7976
100003.81
100003.8549
100003.9266
100003.9642
100003.9134
100003.9187
100003.9043
100003.9006
100003.8525
100003.8403
100003.8142
100003.7951
100003.7806
100003.7695
100003.7592
100003.7499
100003.7414
100003.7426
100003.7372
100003.7353
100003.7369
100003.7413
100003.7474
100003.7545
100003.7698
100003.7867
100003.8234
100003.8365
100003.879
100003.9112
100003.9303
100003.9321
100003.9204
100003.907
100003.8963
100003.8555
100003.8383
100003.8164
100003.7992
100003.7861
100003.7751
100003.7637
100003.7531
100003.7447
100003.7425
100003.7405
100003.7424
100003.7476
100003.7552
100003.765
100003.778
100003.7994
100003.8203
100003.8553
100003.871
100003.9104
100003.9019
100003.9068
100003.9484
100003.9209
100003.9071
100003.8897
100003.8591
100003.8374
100003.8183
100003.8036
100003.7925
100003.7829
100003.7719
100003.7605
100003.7505
100003.7415
100003.7439
100003.7531
100003.7648
100003.7779
100003.7928
100003.8106
100003.8346
100003.8575
100003.8903
100003.9085
100003.9432
100003.902
100003.9011
100003.9438
100003.9162
100003.9041
100003.8853
100003.8633
100003.8444
100003.8296
100003.8184
100003.81
100003.8032
100003.7952
100003.7861
100003.7781
100003.7711
100003.7754
100003.7864
100003.8
100003.8148
100003.8322
100003.8525
100003.8776
100003.9009
100003.9343
100003.957
100003.9835
100003.8947
100003.8944
100003.9345
100003.9017
100003.8951
100003.8772
100003.8626
100003.8502
100003.8386
100003.8284
100003.8195
100003.812
100003.8045
100003.7973
100003.7922
100003.7896
100003.7966
100003.8115
100003.8283
100003.8467
100003.8667
100003.8883
100003.9132
100003.9333
100003.9629
100003.9803
100003.9974
100003.9171
100003.9133
100003.9406
100003.9132
100003.909
100003.8953
100003.8855
100003.8762
100003.8674
100003.8602
100003.8546
100003.8509
100003.8483
100003.8465
100003.8456
100003.844
100003.8487
100003.8606
100003.8753
100003.8904
100003.9087
100003.9294