/*--------------------------------*- C++ -*----------------------------------*\
  =========                 |
  \\      /  F ield         | OpenFOAM: The Open Source CFD Toolbox
   \\    /   O peration     | Website:  https://openfoam.org
    \\  /    A nd           | Version:  8
     \\/     M anipulation  |
\*---------------------------------------------------------------------------*/
FoamFile
{
    version     2.0;
    format      ascii;
    class       scalarField;
    location    "0.7/lagrangian/reactingCloud1";
    object      age;
}
// * * * * * * * * * * * * * * * * * * * * * * * * * * * * * * * * * * * * * //


94
(
0.2726869604
0.2343621788
0.2517640127
0.2246709749
0.1883701884
0.1821457821
0.2509444108
0.2061073634
0.1736017501
0.1730286552
0.1724555604
0.1714731121
0.1703273015
0.1688876985
0.1673313771
0.1659388791
0.164546381
0.1624985897
0.232614736
0.2581507377
0.1595497703
0.2581904581
0.1584030072
0.1575838907
0.1550446295
0.1550446295
0.1543893363
0.1528330149
0.1501304438
0.147533897
0.2373541483
0.1431858295
0.2397763198
0.1418515898
0.1365801265
0.1342310367
0.1312883816
0.1289717651
0.1276109287
0.1264284478
0.1793611794
0.1246547265
0.124004362
0.1222306407
0.1280839211
0.146120424
0.1781326781
0.2383299905
0.106061452
0.0961797444
0.1706544052
0.112064055
0.0795241567
0.1515224285
0.1300984073
0.1260737036
0.07395752508
0.2418901356
0.04785066653
0.04533221039
0.07259878735
0.04365323964
0.04161448943
0.04059511433
0.070902554
0.0380766582
0.03699731986
0.03585801827
0.04407298233
0.03448414703
0.06772554585
0.04635158549
0.04731099735
0.04341338667
0.0486901519
0.04425287205
0.04179437916
0.0494097108
0.06692704555
0.05126750984
0.09411431703
0.06601257945
0.05475298853
0.1287940242
0.06498172252
0.06211019731
0.05631906003
0.1331600936
0.02077956607
0.008472798008
0.03405411811
0.004580643086
0.002938554057
0.008046627665
)


// ************************************************************************* //
