/*--------------------------------*- C++ -*----------------------------------*\
  =========                 |
  \\      /  F ield         | OpenFOAM: The Open Source CFD Toolbox
   \\    /   O peration     | Website:  https://openfoam.org
    \\  /    A nd           | Version:  8
     \\/     M anipulation  |
\*---------------------------------------------------------------------------*/
FoamFile
{
    version     2.0;
    format      ascii;
    class       scalarField;
    location    "0.7/lagrangian/reactingCloud1";
    object      d;
}
// * * * * * * * * * * * * * * * * * * * * * * * * * * * * * * * * * * * * * //


94
(
0.0005716830791
0.001090825095
0.0008927133086
0.0005160939833
0.0009157261777
0.0007564780407
0.001040352269
0.0009189999812
0.000973579217
0.0005028992971
0.0005557103388
0.000792459277
0.0008930498353
0.000897231905
0.0007209330561
0.000883296941
0.0005723065124
0.001036836446
0.0008504412633
0.0008052245273
0.0007605674901
0.0006165239516
0.0007876002571
0.0005856343663
0.000580269909
0.0006006930972
0.0005726184425
0.0005129687218
0.000507869593
0.001053519035
0.001133454205
0.0005209213335
0.0007457144778
0.001039158074
0.0005411952594
0.000769436038
0.0009964362748
0.0005920047692
0.0005423801091
0.000524916601
0.0008606532524
0.0005705998516
0.0006488612148
0.0005642459765
0.0005145781398
0.0006514297036
0.0005108921807
0.0006821170552
0.0005873477744
0.0005227627559
0.001041139209
0.001128812676
0.0007302204781
0.0008170054087
0.001154621108
0.0006275667386
0.001096619262
0.0009124000547
0.0008397824999
0.0006597834878
0.0006225293688
0.0005256680563
0.0005268657335
0.0006332468146
0.0006685264708
0.00068904005
0.0005260068465
0.0005307042713
0.0009101089505
0.0005559685644
0.0008385229293
0.0005807104123
0.0006538555129
0.0005468310961
0.0005201648157
0.0007494376726
0.0006838802127
0.0007188020901
0.0005321232545
0.0008860537552
0.001148234876
0.0005587206089
0.0006874088745
0.0009101678995
0.0005808538406
0.0008231458325
0.001043415014
0.0005062456902
0.000576447648
0.001171960001
0.0005074025328
0.0008128028533
0.000746802102
0.0007223227446
)


// ************************************************************************* //
