/*--------------------------------*- C++ -*----------------------------------*\
  =========                 |
  \\      /  F ield         | OpenFOAM: The Open Source CFD Toolbox
   \\    /   O peration     | Website:  https://openfoam.org
    \\  /    A nd           | Version:  8
     \\/     M anipulation  |
\*---------------------------------------------------------------------------*/
FoamFile
{
    version     2.0;
    format      ascii;
    class       scalarField;
    location    "0.7/lagrangian/reactingCloud1";
    object      nParticle;
}
// * * * * * * * * * * * * * * * * * * * * * * * * * * * * * * * * * * * * * //


94
(
102.7027748
100.1540478
164.7702857
103.404501
100.64298
1966.864059
162.1342681
1252.354802
100.5665544
112.9191194
112.9827351
100.8646611
102.3751112
100.5057216
248.9888328
101.2407706
100.6351661
100.6153878
262.0060544
111.5083539
100.815556
100.2796486
100.9850339
102.3495452
101.4854628
100.0927919
100.3220961
100.3149675
100.3162929
181.6149489
323.8680938
104.034399
104.5624792
100.0883257
100.3645384
234.5706889
112.7782657
100.1670588
101.0525934
101.1979755
100.367957
100.4681807
100.1692076
100.9578985
7057.444544
3455.2903
7037.998935
106.0349847
4714.913929
153.942718
155.0284748
666.2010093
101.2389489
319.7900544
610.135698
3883.33346
100.6904453
601.2111025
100.2444215
101.1077947
102.9268618
194.9441744
100.8022398
100.0632022
105.0775662
100.3506682
100.6831624
101.6759056
1291.294339
101.7047024
101.6870597
101.4960193
102.0443937
105.6453618
105.769791
102.3673429
103.0879248
102.8178759
101.9606096
101.1854919
614.8687169
101.4271335
102.365159
100.3024397
102.4463857
100.8266318
100.1401699
100.2067034
228.1291373
218.6929392
7391.774366
100.0155722
321.6393513
2564.468186
)


// ************************************************************************* //
