/*--------------------------------*- C++ -*----------------------------------*\
  =========                 |
  \\      /  F ield         | OpenFOAM: The Open Source CFD Toolbox
   \\    /   O peration     | Website:  https://openfoam.org
    \\  /    A nd           | Version:  8
     \\/     M anipulation  |
\*---------------------------------------------------------------------------*/
FoamFile
{
    version     2.0;
    format      ascii;
    class       Cloud<basicReactingMultiphaseParcel>;
    location    "0.7/lagrangian/reactingCloud1";
    object      positions;
}
// * * * * * * * * * * * * * * * * * * * * * * * * * * * * * * * * * * * * * //

94
(
(0.1328176222 0.6892236127 0.09705727771 0.08090148738) 1239 3643 2
(0.2298184964 0.05028805927 0.2072154469 0.5126779975) 4481 10856 1
(0.3543683773 0.176713104 0.1254318285 0.3434866903) 2298 6678 2
(0.2445500368 0.1933428964 0.4066803298 0.155426737) 9237 27042 2
(0.2966541905 0.3755210711 0.2788428181 0.04898192027) 10887 31780 1
(0.647683544 0.07647267507 0.08695968536 0.1888840955) 10713 31352 1
(0.1230630471 0.4093135214 0.203805552 0.2638178796) 1494 4324 1
(0.0770588112 0.7891190883 0.02377297592 0.1100491246) 4891 14318 2
(0.3740864934 0.1448902291 0.1488545855 0.332168692) 12616 36837 1
(0.19882943 0.2383454331 0.3322600839 0.2305650529) 13485 39380 2
(0.2821781036 0.4036870025 0.187657859 0.1264770349) 13485 39380 2
(0.09044359998 0.08092073952 0.1828382471 0.6457974134) 13484 36936 1
(0.1513512686 0.558559274 0.1702718088 0.1198176487) 13485 36939 1
(0.4675937453 0.009601878707 0.4431274822 0.07967689373) 13486 39383 2
(0.02723543381 0.1512925852 0.2830367393 0.5384352416) 13472 39345 2
(0.3930177459 0.07125406758 0.4784573469 0.05727083965) 13490 39488 1
(0.3395970179 0.1177007804 0.4668673715 0.07583483023) 14363 42038 2
(0.05781487687 0.5186984893 0.2500264441 0.1734601897) 14361 42035 1
(0.6295649484 0.09711428663 0.196705102 0.07661566302) 6096 17854 2
(0.1784875045 0.08434452116 0.7337985702 0.003369404117) 2222 6527 1
(0.04134341116 0.1678922287 0.4684505664 0.3223137938) 14362 42038 2
(0.2496338021 0.05178131814 0.5911068433 0.1074780365) 3856 11237 1
(0.3731634339 0.243452363 0.2694966982 0.1138875048) 15235 42049 1
(0.649559644 0.08087753458 0.1641291907 0.1054336307) 15233 42043 1
(0.3431538711 0.1207080764 0.1810732 0.3550648525) 15234 44587 2
(0.4129894584 0.07344241373 0.245988061 0.2675800669) 15233 44587 2
(0.1579247885 0.00932882858 0.01445825792 0.818288125) 15399 45057 1
(0.2760461821 0.2745797535 0.3619449207 0.08742914367) 16105 44592 1
(0.415723216 0.1993216042 0.2292298948 0.155725285) 16106 47142 2
(0.01704114989 0.5729536383 0.2452826341 0.1647225778) 16111 47157 1
(0.1858855604 0.05678635108 0.4088950123 0.3484330762) 3799 8862 2
(0.03508125473 0.08637803201 0.2348411539 0.6436995594) 17152 50184 1
(0.3335270785 0.3223629129 0.04176166174 0.3023483468) 3827 11228 1
(0.01571589055 0.5198484268 0.06977904006 0.3946566426) 16269 47604 1
(0.2883436934 0.4856581663 0.04341989236 0.182578248) 17152 50187 2
(0.2513516608 0.132603383 0.1792724498 0.4367725064) 16927 49544 1
(0.106135743 0.04590871012 0.3035210352 0.5444345117) 17808 49542 1
(0.3018392463 0.005157503435 0.03296489264 0.6600383576) 17851 52248 2
(0.1908969407 0.6287599732 0.1257252357 0.05461785043) 18740 52247 1
(0.3482809798 0.5484648418 0.04568237292 0.05757180552) 18739 198484 1
(0.02438506458 0.2920505872 0.5091274882 0.1744368599) 12603 36802 2
(0.5622351189 0.257889584 0.06395957932 0.1159157178) 18740 54957 1
(0.3479407886 0.1935800477 0.3220762008 0.1364029629) 18892 55773 1
(0.5327702283 0.04271537132 0.3640419385 0.06047246191) 18740 55107 1
(0.154602251 0.3488571997 0.3087679685 0.1877725808) 23117 70615 1
(0.003446503945 0.0004086374061 0.5490991664 0.4470456923) 16772 46536 1
(0.2377328143 0.4878466417 0.05988888466 0.2145316593) 11389 33324 2
(0.07796881928 0.6069958382 0.04682193727 0.2682134053) 4659 13585 1
(0.4281276161 0.3845700007 0.1403841774 0.04691820578) 59686 179182 1
(0.003198138277 0.2625596079 0.6378102235 0.09643203036) 21568 65256 2
(0.5272261015 0.04642288529 0.07391559871 0.3524354145) 14430 39705 1
(0.3578499379 0.2346062824 0.106513985 0.3010297947) 26429 82198 2
(0.196262147 0.4858229624 0.1057935445 0.2121213461) 56337 167994 1
(0.2453951331 0.02047448695 0.1432667293 0.5908636507) 15301 42242 2
(0.3168365735 0.4889131735 0.03446849753 0.1597817555) 17721 51865 2
(0.3131537067 0.1783521385 0.2050468898 0.3034472649) 52147 57519 1
(0.2250966815 0.02271559048 0.1698118924 0.5823758356) 22489 68598 1
(0.269571763 0.5541344802 0.1359196662 0.04037409058) 3101 9027 1
(0.2263561173 0.4315164299 0.3350899834 0.007037469396) 57553 174123 2
(0.0848995904 0.2516059997 0.5345903891 0.1289040208) 24121 74375 2
(0.3438547997 0.04021800393 0.2833082164 0.33261898) 56978 172674 2
(0.1381454787 0.6849530932 0.1250059344 0.05189549366) 58791 176761 2
(0.06435773874 0.7232564213 0.05760064128 0.1547851987) 24108 74146 2
(0.6147514777 0.08811268205 0.1913901157 0.1057457245) 24246 74942 2
(0.7280608054 0.03205707572 0.2202041471 0.01967797174) 56978 172674 2
(0.380317777 0.1215480027 0.373753354 0.1243808663) 24107 74143 2
(0.4340350853 0.3619333178 0.05448285312 0.1495487438) 24108 74146 2
(0.1177973414 0.5327060658 0.1704567038 0.1790398891) 24108 74297 2
(0.05049314029 0.3100959992 0.1014536759 0.5379571846) 37811 119956 1
(0.478384536 0.2291845284 0.1530962323 0.1393347033) 24109 74149 2
(0.6027339211 0.04524545874 0.167029173 0.1849914472) 56978 172683 2
(0.004798407344 0.01460861728 0.1949058694 0.785687106) 51243 158263 2
(0.1877264635 0.1405684163 0.6636639172 0.008041203051) 58215 175628 2
(0.2876978229 0.02790086688 0.5679433963 0.1164579139) 24275 75056 1
(0.3843801068 0.09167901305 0.5218995804 0.002041299741) 58215 175628 2
(0.1302913521 0.1191875248 0.6728711571 0.07764996598) 24275 75056 1
(0.2912159988 0.07714745728 0.2166964197 0.4149401242) 24275 75059 2
(0.570749356 0.04503848981 0.3556199503 0.02859220385) 58215 175628 2
(0.2085179172 0.1690236845 0.2284081354 0.3940502628) 56978 172683 2
(0.8562533595 0.03090758863 0.1066219128 0.006217139009) 58215 175619 1
(0.09203745538 0.1189187092 0.08022666092 0.7088171745) 62137 183307 2
(0.01919036434 0.2439559494 0.2845059798 0.4523477065) 56978 172683 2
(0.334516824 0.3718400812 0.2403702626 0.05327283222) 58215 175624 1
(0.5083739954 0.02899600558 0.1742394512 0.2883905478) 18025 52749 1
(0.1993760006 0.1574281611 0.458635097 0.1845607413) 58211 172683 2
(0.5956090425 0.005926211241 0.05571526726 0.342749479) 58211 204316 2
(0.1501168857 0.540209149 0.1004194013 0.2092545641) 58211 175624 1
(0.4949742425 0.0566556685 0.1579387874 0.2904313016) 18024 52748 1
(0.732151264 0.04022508342 0.1913365264 0.03628712621) 58852 177150 1
(0.5660954024 0.1472102233 0.06975047091 0.2169439033) 51247 202964 2
(0.4140949555 0.2999948729 0.1708700299 0.1150401417) 39443 124651 2
(0.4135983769 0.1324060254 0.06644387395 0.3875517238) 51254 202967 2
(0.3350562719 0.4264325457 0.02942112886 0.2090900536) 51248 202965 1
(0.2172043521 0.07949366109 0.3758339873 0.3274679996) 42891 134737 2
)


// ************************************************************************* //
