/*--------------------------------*- C++ -*----------------------------------*\
  =========                 |
  \\      /  F ield         | OpenFOAM: The Open Source CFD Toolbox
   \\    /   O peration     | Website:  https://openfoam.org
    \\  /    A nd           | Version:  8
     \\/     M anipulation  |
\*---------------------------------------------------------------------------*/
FoamFile
{
    version     2.0;
    format      ascii;
    class       vectorField;
    location    "0.7/lagrangian/reactingCloud1";
    object      U;
}
// * * * * * * * * * * * * * * * * * * * * * * * * * * * * * * * * * * * * * //


94
(
(-0.02686104531 -0.3646495711 -1.89623397)
(-0.03599417996 -0.117102706 -2.029184896)
(0.01701852163 -0.1086726857 -2.083875557)
(-0.00529158244 -0.08686797165 -1.466159399)
(0.05006830656 -0.05540590851 -1.652785721)
(-0.00745453778 -0.359982065 -1.777661611)
(-0.09866160365 -0.2082652987 -2.201397981)
(-0.4801132101 -0.9516747332 -3.091576108)
(-0.9996350158 -0.007220130203 -1.555719299)
(-0.7668555107 -0.02104743429 -1.432045249)
(-0.8000481728 -0.0169510021 -1.459444984)
(-0.884457752 -0.007479987329 -1.529298305)
(-0.8905801019 -0.00531638171 -1.556948956)
(-0.8269260817 -0.006691113891 -1.541039711)
(0.07799776242 -0.07209050809 -1.506539679)
(-0.6424839556 -0.006916150257 -1.50871539)
(-0.3375539944 -0.005599492604 -1.356464167)
(-0.3908346631 0.00935537171 -1.494060373)
(-0.0007562947857 -0.364923303 -1.899814204)
(-0.4322382951 -0.183491217 -1.940462435)
(-0.3358922736 0.0117096996 -1.425883713)
(-0.371909782 -0.1067975036 -1.763835853)
(-0.2375137499 0.01114097577 -1.372460292)
(-0.2999488556 0.01119895705 -1.357384143)
(-0.2716525715 0.01426110097 -1.326232238)
(-0.3427708992 0.009693978751 -1.339161208)
(0.1784339134 0.2362252651 -1.295116671)
(-0.2488782956 0.01249009767 -1.275070588)
(-0.1816262377 0.008795644531 -1.225991965)
(0.07492273096 0.009727127335 -1.380089037)
(-0.2440958505 -0.2728511805 -2.138873721)
(0.1405212881 0.2629960367 -1.216395896)
(-0.1534392884 -0.2079247996 -2.001599917)
(0.1089022872 0.2811129841 -1.30948248)
(0.1563000103 0.2500832906 -1.210478636)
(0.08339768292 -0.09982554815 -1.284603828)
(0.07548083278 -0.1433285412 -1.27196639)
(-1.181506252 -0.00807487842 -1.074701034)
(-1.251276348 -0.005328130101 -1.034434853)
(-1.308082487 -0.004816369607 -1.014531225)
(-0.0006601192785 -0.5042051254 -1.56238447)
(1.440894291 -0.0008852513914 -1.014500474)
(0.08125854219 0.2187481529 -1.096152195)
(1.484815656 0.002608197361 -0.9912576066)
(-0.9332512809 -0.5606272237 -2.549056597)
(-0.5230952923 -0.7369889311 -2.888132432)
(-0.2212924979 -0.9189289456 -2.803527328)
(-0.1709837539 -0.1545230237 -1.895405673)
(-0.844341174 -0.2904779437 -2.623839233)
(0.1062609924 0.2001668381 -0.849292567)
(-6.766035907e-05 -0.3858220292 -1.52903897)
(-0.6497241782 -1.082770368 -2.376290386)
(0.5625305669 -0.1319851231 -0.78861044)
(-0.0003956149875 -0.400389117 -1.473008338)
(-0.05232652519 -0.7207020406 -3.019152195)
(-0.1830321869 -0.7526739715 -2.89131399)
(-0.01582469404 -0.1197368746 -0.7154201561)
(-0.09944305177 -0.1590405281 -2.155575251)
(0.05353092249 -0.1213447139 -0.4666580272)
(0.02014163657 -0.003352364013 -0.4406111361)
(0.007178013881 -0.08537210701 -0.6967808681)
(0.3396657201 -0.2821585938 -0.4504366223)
(-1.860040062 -0.05420099688 -0.421917661)
(0.01034252385 0.2415715504 -0.3868778059)
(0.01477346415 -0.07533080229 -0.6832554512)
(-2.203764969 -0.01749952802 -0.3818013605)
(-2.072824903 -0.01150945416 -0.3740526007)
(-2.025276728 -0.008232501721 -0.3623748366)
(-1.007088601 -0.5116530413 -1.98824722)
(-1.971503126 -0.005838570196 -0.347828748)
(0.01745347018 -0.0699761354 -0.6570233594)
(-0.03408185483 -0.1559840877 -0.4500807532)
(-0.02891207442 -0.1460329867 -0.4607301559)
(-0.04175655426 -0.1825775883 -0.4199064394)
(-0.0224495208 -0.1312309978 -0.4725040346)
(-0.03870173027 -0.1734645919 -0.4308308336)
(-0.04796020725 -0.200887637 -0.4060338856)
(-0.01673122247 -0.1214932483 -0.4820282455)
(0.02086975034 -0.05946400639 -0.6401613201)
(-0.005300930557 -0.1008605851 -0.501136479)
(0.1459377292 -0.9813277391 -2.509885186)
(0.02234539141 -0.057801402 -0.6329269214)
(0.005859687942 -0.08218251557 -0.5335758076)
(-0.291532402 -0.1157145535 -1.203283631)
(0.02227154596 -0.05840817903 -0.6250129107)
(0.0199212478 -0.06327505634 -0.6038513475)
(0.01330759193 -0.06909500889 -0.549750223)
(-0.6477644087 -0.2308729367 -1.105821979)
(-0.6122191527 -0.2519536678 -0.2058421188)
(0.02388917845 0.08716468655 -0.0832549659)
(-0.6565297685 -1.086977548 -1.788003739)
(0.1681402383 0.247684597 -0.04509911151)
(0.1367315198 0.2103401772 -0.02909543945)
(-1.342762331 0.133937458 -1.530891476)
)


// ************************************************************************* //
