/*--------------------------------*- C++ -*----------------------------------*\
  =========                 |
  \\      /  F ield         | OpenFOAM: The Open Source CFD Toolbox
   \\    /   O peration     | Website:  https://openfoam.org
    \\  /    A nd           | Version:  8
     \\/     M anipulation  |
\*---------------------------------------------------------------------------*/
FoamFile
{
    version     2.0;
    format      ascii;
    class       scalarField;
    location    "0.7/lagrangian/reactingCloud1";
    object      age;
}
// * * * * * * * * * * * * * * * * * * * * * * * * * * * * * * * * * * * * * //


217
(
0.2629802069
0.2624091257
0.2511479847
0.2501361825
0.2478303321
0.2437052119
0.2472739872
0.2376982592
0.2797343038
0.2328632888
0.2233610116
0.2714121339
0.2083874457
0.2072474046
0.2067588155
0.2051301852
0.2045601647
0.2039087126
0.203664418
0.1986895987
0.2222693756
0.2186336265
0.2184485579
0.218207193
0.2180314601
0.222082238
0.217429415
0.22192629
0.2165199968
0.2167514028
0.2170210138
0.2151313932
0.217125281
0.2215208251
0.2224253236
0.2167514028
0.2189004333
0.2227995988
0.1912366912
0.2163331718
0.2231114948
0.2234233908
0.2236105285
0.217525056
0.1867321867
0.2039901441
0.2006514521
0.1778869779
0.2051301852
0.2607874569
0.1900900901
0.1673313771
0.2022800823
0.2638451955
0.1620890315
0.1606965334
0.2014657672
0.1760851761
0.2251700085
0.200162863
0.1981981982
0.1961506962
0.1721280776
0.2180773417
0.1936936937
0.1493825446
0.1492151461
0.1488784806
0.2275077874
0.191973792
0.1601231518
0.1904995905
0.1427417593
0.1397452796
0.138555903
0.2144696207
0.1372820198
0.1365801265
0.1360791995
0.1359188427
0.1351040113
0.1332834799
0.1326708798
0.1323076489
0.1300390416
0.1273153085
0.1501305785
0.1237678658
0.1234131216
0.1615156499
0.1233539975
0.1205751675
0.1172050969
0.115963492
0.1156087477
0.1148401351
0.1163773603
0.1611060917
0.1201021751
0.1054729615
0.104825622
0.1431858295
0.1037074901
0.1029424524
0.10123583
0.1004119433
0.1221123926
0.09947083059
0.1222897647
0.09882415262
0.09811868573
0.09711980299
0.0961797444
0.09612099074
0.09506978469
0.09369663035
0.1561094809
0.09170488603
0.09094528179
0.09015101955
0.1661027024
0.2095839179
0.08720279353
0.08692798509
0.08433137236
0.08422674287
0.08370163357
0.08200754104
0.08179453444
0.1602050635
0.07996352504
0.07885315197
0.07839882972
0.07817125692
0.07760166047
0.07725946729
0.07691710628
0.07509340236
0.07395752508
0.07339088887
0.07282495179
0.09211392732
0.1511131315
0.06897686422
0.06772554585
0.06738349764
0.1421855121
0.06647020565
0.06268529173
0.06234023508
0.0622252162
0.0610726728
0.06003186492
0.05517414721
0.05464894402
0.0545977746
0.05439690443
0.08018170655
0.0531200546
0.07611843452
0.1370131507
0.05221707338
0.05162567778
0.06003186492
0.04928978432
0.04773074004
0.04755085032
0.2593376059
0.0459318428
0.0459318428
0.2235793389
0.06818103623
0.0446126515
0.04443276177
0.0435932764
0.04155452619
0.07373066151
0.04029529813
0.066126986
0.03951577599
0.03933588627
0.03885618034
0.03879621709
0.03627776096
0.03621779772
0.03567812855
0.03344824627
0.03279697946
0.0324514823
0.03215394173
0.06014775655
0.05209986484
0.06222542959
0.02817338246
0.0254142274
0.04809051949
0.02353956489
0.02295076573
0.02262070717
0.1160817401
0.01759179173
0.01636548893
0.2550833345
0.2283489089
0.01408943345
0.2241407517
0.009726717854
0.01730814721
0.02803379519
0.02203101199
0.2
0.1570924208
0.024033335
0.2418901356
0.08211404434
0.1590583004
0.1452632668
)


// ************************************************************************* //
