/*--------------------------------*- C++ -*----------------------------------*\
  =========                 |
  \\      /  F ield         | OpenFOAM: The Open Source CFD Toolbox
   \\    /   O peration     | Website:  https://openfoam.org
    \\  /    A nd           | Version:  8
     \\/     M anipulation  |
\*---------------------------------------------------------------------------*/
FoamFile
{
    version     2.0;
    format      ascii;
    class       scalarField;
    location    "0.7/lagrangian/reactingCloud1";
    object      mass0;
}
// * * * * * * * * * * * * * * * * * * * * * * * * * * * * * * * * * * * * * //


217
(
4.177086789e-07
7.650402429e-08
3.180242364e-07
1.551029974e-07
7.336991343e-08
7.490008264e-08
8.559219921e-08
8.103938667e-08
8.911100649e-08
5.403453791e-07
1.367993447e-07
7.570715299e-08
8.939610062e-07
9.613665514e-08
9.105309985e-08
2.931237812e-07
9.767056305e-08
1.071493405e-07
5.297958825e-07
1.160681743e-07
2.233001569e-07
1.269173075e-07
7.455212125e-08
1.010623314e-07
7.973309485e-08
8.590648193e-08
2.345312268e-07
7.114188818e-08
6.961306797e-08
7.904821611e-08
1.334579025e-07
3.705634376e-07
1.212834944e-07
6.708416351e-08
1.674432663e-07
1.328175823e-07
6.84816733e-07
4.677133607e-07
8.755652363e-08
1.409079579e-07
1.364694951e-07
6.949015799e-08
4.124426281e-07
3.305089735e-07
2.159081577e-07
8.03472773e-08
1.526429232e-07
4.94176697e-07
1.139673621e-07
1.380206804e-07
2.238062536e-07
1.374699366e-07
1.962466683e-07
1.174331783e-07
8.100017458e-08
6.65280812e-07
9.314037071e-08
1.626500254e-07
5.099208124e-07
1.244453232e-07
1.518038761e-07
1.34575814e-07
5.87171512e-07
4.463220184e-07
1.314877758e-07
1.078811977e-07
1.766132524e-07
1.01229905e-07
9.747085153e-08
8.599550119e-08
9.119295895e-08
6.794373998e-08
6.530263366e-08
7.416428215e-07
7.435161061e-08
8.60389057e-07
1.715289402e-07
2.785979059e-07
8.019854032e-08
2.423608363e-07
3.998575558e-07
1.169440117e-07
6.681279382e-08
7.719114437e-08
3.095033574e-07
8.209004051e-08
8.126457687e-08
3.882533194e-07
1.195342825e-07
1.641718327e-07
3.721614183e-07
2.348928022e-07
2.12273302e-07
8.172603103e-08
7.650402455e-08
7.405333616e-08
7.22834356e-08
9.327014562e-08
8.382449372e-08
8.801041277e-08
5.524751347e-07
2.225181807e-07
8.614689802e-08
2.67832597e-07
1.193039336e-07
8.63627998e-08
2.838783275e-07
1.239604869e-07
8.278061495e-08
2.113287486e-07
9.529504776e-08
6.98546939e-08
1.011340644e-07
7.018583084e-08
7.306536953e-08
2.839216684e-07
2.888081834e-07
6.848815732e-08
1.458285554e-07
3.108724525e-07
8.521037272e-08
3.03063372e-07
3.344900474e-07
9.327014615e-08
7.186746746e-08
6.73233868e-07
9.142228793e-08
6.543809268e-08
7.763612495e-07
8.373706784e-08
3.728813808e-07
1.341504535e-07
1.282535878e-07
1.590962388e-07
6.524781689e-08
5.629301448e-07
3.236145528e-07
1.304608006e-07
1.322292279e-07
6.820101608e-08
8.110185879e-08
4.433367204e-07
7.390603229e-08
5.527955662e-07
2.233702902e-07
1.034848193e-07
1.054991663e-07
7.515173578e-08
2.145334518e-07
2.934382275e-07
3.946229654e-07
1.04702892e-07
2.139334885e-07
2.582443004e-07
1.059154306e-07
1.857213449e-07
1.183851596e-07
1.669049484e-07
1.661875852e-07
6.885961034e-07
8.858529179e-08
1.451856958e-07
8.016252028e-08
1.790045735e-07
8.494402633e-08
1.062273177e-07
2.142885197e-07
1.640398845e-07
2.647930964e-07
1.283205352e-07
8.697480808e-08
3.275589356e-07
6.698374166e-08
8.542055927e-08
3.031218367e-07
8.457317038e-08
2.381629375e-07
8.742497145e-08
1.416457335e-07
1.071846558e-07
8.767688057e-08
2.188394886e-07
7.469111632e-08
2.56134499e-07
7.526369746e-08
2.073621474e-07
1.139673614e-07
1.23189371e-07
7.907269355e-08
9.470634034e-08
5.924590567e-07
4.136712125e-07
4.523636709e-07
1.241845942e-07
1.960311631e-07
3.625298191e-07
3.93093126e-07
1.678738896e-07
1.834127952e-07
7.001756551e-08
3.047215054e-07
1.012430662e-07
3.54345349e-07
1.717187992e-07
1.649711166e-07
7.97362282e-08
9.652129651e-08
2.069115172e-07
8.512078593e-07
8.638058288e-08
7.778057871e-08
1.311327221e-07
2.245325064e-07
1.008316545e-07
3.319798035e-07
3.767753117e-07
2.147106605e-07
)


// ************************************************************************* //
