/*--------------------------------*- C++ -*----------------------------------*\
  =========                 |
  \\      /  F ield         | OpenFOAM: The Open Source CFD Toolbox
   \\    /   O peration     | Website:  https://openfoam.org
    \\  /    A nd           | Version:  8
     \\/     M anipulation  |
\*---------------------------------------------------------------------------*/
FoamFile
{
    version     2.0;
    format      ascii;
    class       scalarField;
    location    "0.7/lagrangian/reactingCloud1";
    object      rho;
}
// * * * * * * * * * * * * * * * * * * * * * * * * * * * * * * * * * * * * * //


217
(
994.5114696
994.5114712
994.5114693
994.5114702
994.5114692
994.5114706
994.5114711
994.5114696
994.511469
994.5114695
994.51147
994.5114689
994.5114702
994.5114699
994.5114699
994.5114698
994.5114698
994.5114698
994.5114699
994.5114707
994.5114871
994.5114845
994.5114845
994.5114845
994.5114845
994.5114871
994.5114844
994.5114871
994.5114819
994.5114818
994.5114817
994.5114821
994.5114843
994.5114864
994.5114866
994.5114842
994.5114845
994.5114871
994.511471
994.511484
994.5114865
994.5114864
994.5114862
994.5114814
994.5114705
994.5114788
994.5114789
994.5114702
994.5114784
994.5114692
1000
994.5114705
994.5114773
994.5114691
994.5114705
994.5114701
994.5114771
1000
994.511485
994.5114769
994.5114767
994.5114765
1000
1000
994.5114763
994.5114708
994.5114716
994.5114691
994.5114802
994.5114762
1000
994.5114761
994.5114714
994.5114696
994.511469
994.5114778
994.5114696
994.5114705
994.5114697
994.5114689
994.5114698
994.5114699
994.511473
994.51147
994.5114695
994.511474
1000
994.5114698
994.5114722
994.5114757
994.5114745
994.5114699
994.51147
994.51147
994.5114745
994.5114701
994.5114742
994.5114689
1000
994.5114718
994.5114705
994.5114741
994.5114706
994.5114711
994.5114713
994.5114745
1000
994.5114714
994.511469
994.5114716
994.5114715
994.5114716
994.5114732
994.5114717
994.5114717
994.5114716
1000
994.511469
994.511472
994.5114722
1000
994.5114689
994.5114721
994.5114745
994.5114723
994.5114714
994.5114735
994.5114715
994.5114695
994.511469
994.5114732
994.5114728
994.5114718
994.5114729
994.5114718
994.5114721
994.5114723
994.5114721
994.5114739
994.5114723
994.5114698
1000
994.511469
994.5114728
994.5114724
994.5114738
1000
994.5114701
994.5114721
994.5114704
994.5114701
994.5114733
994.5114735
994.5114722
994.5114727
994.5114702
994.5114706
1000
994.5114735
1000
994.511469
994.5114722
994.5114703
994.5114713
994.5114734
994.5114703
994.511472
994.511469
994.511469
994.5114716
994.511469
1000
994.511472
994.5114733
994.5114721
994.5114721
994.5114705
994.5114691
1000
994.5114721
994.5114707
994.5114731
994.5114731
994.5114705
994.5114694
994.511472
994.5114723
994.5114705
994.5114697
994.5114707
1000
1000
1000
994.51147
994.5114705
1000
994.5114716
994.5114709
994.5114717
1000
994.5114711
994.5114698
994.5114687
994.511479
994.5114713
994.511469
994.5114699
994.5114691
1000
1000
994.5114703
994.5114688
1000
994.5114705
1000
994.5114688
994.5114688
)


// ************************************************************************* //
