/*--------------------------------*- C++ -*----------------------------------*\
  =========                 |
  \\      /  F ield         | OpenFOAM: The Open Source CFD Toolbox
   \\    /   O peration     | Website:  https://openfoam.org
    \\  /    A nd           | Version:  8
     \\/     M anipulation  |
\*---------------------------------------------------------------------------*/
FoamFile
{
    version     2.0;
    format      ascii;
    class       volScalarField;
    location    "1.7/wallFilmRegion";
    object      alpha;
}
// * * * * * * * * * * * * * * * * * * * * * * * * * * * * * * * * * * * * * //

dimensions      [0 0 0 0 0 0 0];

internalField   nonuniform List<scalar> 
1342
(
1.301786007
1.74759801
1.924410384
1.781304307
1.09329296
1.207794298
0.4653989175
0.03017711887
0.007414352263
0.02306555109
0.2489172176
0.1455651829
0.08588684966
0.2000918012
0.3774822278
0.5131801591
0.5494407295
0.5325790353
0.4396752429
0.2824939219
0.1529380909
0.08642266661
0.04446029173
0.04097330976
0.02601742563
3.499452539
0.7951406328
1.220561393
1.393460638
1.574703222
1.219523855
1.465349953
1.158295752
0.08654904624
0.00807572348
0.002616220184
0.01981431026
0.04631663994
0.05686107315
0.05632358657
0.1455931995
0.355645261
0.5680923233
0.4932406316
0.3839378096
0.2309950524
0.09622010892
0.1413132563
0.1233195968
0.009317760158
0.007036107215
0.01060568683
2.275387861
0.7704404389
1.010812711
0.6661648881
0.9939060447
1.973702229
1.505570676
0.4500536133
0.05280994863
0.01434905074
0.0009525636418
0.003289038567
0.01824544299
0.03614785258
0.04457504647
0.04671826402
0.0613238298
0.09998801405
0.1470488368
0.1507118314
0.1136416006
0.07280240403
0.04565937201
0.05448700262
0.06300745112
0.04844268035
0.04184183288
0.03293914382
2.145101429
0.9735460977
0.7444117646
0.4331116598
0.3627520998
0.6121155328
0.8212009265
0.7910838149
1.112078776
0.4969837782
0.08494172668
0.02406436237
0.01927164359
0.03800748988
0.04957467681
0.05671063179
0.06821233138
0.09151872295
0.1234255139
0.1432523163
0.1384904602
0.1121380118
0.08165339976
0.06574450588
0.0593943168
0.05273627117
0.05080086356
0.04612609913
2.183374479
1.843216468
1.29912115
1.152740757
0.6283128009
0.408602014
0.7670570238
1.117203543
0.6404018878
0.1623833816
0.06266694256
0.0165800326
0.02280284411
0.04511589483
0.05749663732
0.06330174439
0.07008520359
0.08302238381
0.1034449427
0.1235274013
0.1335442639
0.1243576857
0.1001717503
0.07871568214
0.06748316978
0.05544869291
0.0530124238
0.05229483215
2.229896304
1.728926126
0.6556822274
0.1757482033
0.1377260371
0.1484323498
0.3468801248
0.2256233743
0.2819421653
0.002260909708
0.02525102022
0.04600576754
0.01303961023
0.02577791082
0.04773799175
0.06355741684
0.08262844524
0.106895855
0.1322439376
0.1533819647
0.1644201857
0.1622166002
0.1458958862
0.1173563949
0.0898756896
0.121107282
0.06973891373
0.05743968251
0.05769316741
2.392226907
0.4849646606
0.4459975443
0.05398175598
0.04732021179
0.02386707763
0.001611469179
0.0003699791611
0.0004854939034
0.002877125544
0.003639115576
0.03077238631
0.01229566979
0.02925658044
0.05142117729
0.08354937007
0.1728796247
0.3524021839
0.5565772246
0.5756914629
0.4608386246
0.3306912848
0.2294911417
0.1572676049
0.1089474678
0.2927279048
0.1276626379
0.07268708155
0.06807565946
2.723051151
0.2768131633
0.3220285321
0.08155152595
0.03840285351
0.03281628776
0.001662092057
0.0004501456794
0.0009109765798
0.01132364589
0.002512882516
0.02054270623
0.0155985971
0.03484597472
0.05885407156
0.1028686247
0.1782989392
0.2236529414
0.1944706114
0.2353316697
0.2763757693
0.2554808282
0.2046597132
0.1556589587
0.1207438278
0.5108086995
0.2254854414
0.1048670512
0.08975557845
3.186422078
0.4939330869
0.1496760923
0.1236880572
0.3888004127
0.257066121
0.08529305243
0.001559674212
0.00112467034
0.02870573176
0.03810799242
0.0439581035
0.03322221518
0.04804799735
0.07421250842
0.1157274153
0.1334305688
0.09179428207
0.03780989849
0.02346347517
0.05331684257
0.09466215348
0.1430067491
0.2924139637
0.448484264
1.215137266
0.7588230082
0.4396449091
0.2396105533
3.708053114
0.05475795484
0.07021477949
0.1529696984
0.4218381235
0.3670360776
0.0252297744
0.01870460407
0.0005748240891
0.04614592673
0.02570245153
0.03403057371
0.04253857959
0.0698710411
0.09952498629
0.1217844887
0.100010003
0.05646877725
0.02857687897
0.02158045452
0.0321185962
0.05766750115
0.0924261289
0.1400060755
0.169774404
0.670853268
0.3706360016
0.2157349521
0.1616295798
4.12394969
0.03619804873
0.05691589248
0.1692076198
0.5375183563
0.2026690145
0.125609356
0.3074423155
0.0003167141603
0.0457466154
0.04966378574
0.03801954577
0.06453205064
0.1091178839
0.1224626444
0.1116695392
0.07477931892
0.04339568468
0.02917843741
0.02687875374
0.03415378005
0.05313228723
0.08464187945
0.1221022279
0.1488459332
0.4178322013
0.2338630195
0.1658001901
0.1487247572
4.692153187
0.09030245033
0.1827150026
0.2895503127
0.3266402332
0.2469239455
1.035937006
0.2700345015
0.002415116548
0.03889723549
0.06160957032
0.05590422458
0.115528352
0.149051796
0.1299787238
0.09433412646
0.057972834
0.03803141769
0.03086317641
0.03054908265
0.0365947283
0.05227993252
0.08083284298
0.1174444479
0.145854812
0.2471518619
0.1604657552
0.1534266373
0.1495216175
5.509953558
0.1966531393
0.2941869407
0.3018682749
0.1804543439
0.5938480117
0.1099860681
0.1063496202
0.00515809678
0.03237700112
0.05574391297
0.08123032137
0.1867358568
0.1422486753
0.1053471434
0.07566929368
0.05084637489
0.03857286019
0.03390039891
0.0338708718
0.03945709815
0.05412684652
0.08092820527
0.114013545
0.136265619
0.1530988792
0.1141518552
0.1500673927
0.2232772775
6.435582435
0.4911013971
0.4143921131
0.3892310996
0.3027392756
0.2060674886
0.06074475093
0.07171899929
0.03524795704
0.02883274767
0.04277063582
0.1252351285
0.2489326835
0.1044310386
0.03937703755
0.03542299191
0.03583662844
0.03567045274
0.03637641652
0.04170325772
0.05719844053
0.08728468564
0.1268431044
0.1579164281
0.162422362
0.1387407238
0.09835740954
0.1278998351
0.5472142147
7.088180735
1.280618945
0.6686833612
0.4568738464
0.03016016391
0.04611301092
0.04084612287
0.06062085105
0.02249391337
0.02198834244
0.03110658794
0.1713162147
0.2735146103
0.08059614811
0.01712519551
0.01837155644
0.02712353326
0.03405350183
0.04244318883
0.06262213074
0.105319542
0.165582152
0.2158534479
0.2267818858
0.1929807432
0.1367631217
0.08614414249
0.1086208076
1.206296605
8.230116485
0.3769628665
0.5077884004
0.2658502405
0.03116641914
0.02980662047
0.03173789458
0.05199037409
0.0115595989
0.01309615083
0.01866951748
0.04275017436
0.1927642583
0.06518419898
0.01662394752
0.01474873165
0.02433183782
0.03574155275
0.05379802471
0.09020493434
0.1394664024
0.1720359838
0.1733498297
0.1509481798
0.1167053597
0.08220946074
0.05519523065
0.09651068266
2.4941901
9.20795384
0.1930678287
0.3477170564
0.08411464367
0.02561133148
0.01953379237
0.0218724702
0.0411655718
0.004877546639
0.005347319307
0.007401857066
0.009133284012
0.04881419115
0.02565597421
0.01115065925
0.01546270707
0.02729591106
0.04211501271
0.06735856005
0.1047604663
0.1265246433
0.1144249104
0.08480503782
0.05858651554
0.0435133957
0.03510957853
0.02999162876
0.1209849625
3.79549184
8.361225602
0.1117140639
0.1075340695
0.02053963562
0.009349508029
0.008170679046
0.01087279174
0.02795145087
0.03088568196
0.00904798092
0.009650498383
0.0110694183
0.01955718519
0.01933542234
0.01929342209
0.02874884412
0.0453147276
0.06250157421
0.08466020265
0.1013968515
0.09139125793
0.06039659674
0.03706719916
0.023875275
0.0210356504
0.02290143276
0.02775220996
0.2359304921
3.335539537
7.961929266
0.06383753687
0.04606473197
0.01910901415
0.01298277587
0.01144597911
0.009305316232
0.02390199943
0.06685597362
0.05528400924
0.05223430916
0.04858747676
0.04620596259
0.04502356126
0.04692779597
0.0581149988
0.07955061121
0.1001476499
0.1080382069
0.0940474397
0.073437819
0.04295363808
0.9845122648
0.8905614281
0.8289109848
0.8613369986
0.8432551058
2.223031025
3.593307464
8.169306036
0.483725749
0.337878074
0.1100453456
0.04142158732
0.02939701547
0.02198145423
0.03834854938
0.08661390729
0.1013054259
0.1055790891
0.1002636302
0.09954125828
0.1244900356
0.1421593138
0.142103191
0.1385438053
0.1340430737
0.1158525615
0.09959827226
0.6764313431
0.6467953072
2.515088005
2.235385245
2.190068039
2.336932188
2.508609154
3.671787461
3.844829291
8.191683404
0.2679207536
0.1786939272
0.1617396355
0.1055442809
0.07881589378
0.05600160325
0.0653686573
0.1123184004
0.141939394
0.1529807054
0.1542364838
0.194519486
0.4087427533
0.3751618198
0.235379389
0.1490644322
0.1128915478
0.1109818691
0.08955255045
2.596040394
2.787609226
4.997332882
3.415856095
3.305244044
3.22084166
2.754206307
3.932879946
3.210320484
7.523990686
0.0844324541
0.06475515486
0.1812346006
0.5438641302
0.9058218493
0.7934118806
0.3092447634
0.2301451065
0.2191934862
0.2136535048
0.2193462996
0.3001946324
0.6052378367
0.3676422166
0.1559893679
0.08912663146
0.08290516277
0.3228702909
2.927538779
4.780488905
5.276618657
4.534406235
3.691816093
3.43078902
3.49301373
2.717148231
3.832556505
3.139069219
7.474937389
0.02930956478
0.179703585
1.026674448
1.604624893
1.17996318
0.7228720014
0.4735745511
0.3929643678
0.3255542817
0.2962911783
0.2972662535
0.3652498585
0.5709322958
0.2539798318
0.06865943447
0.1346948987
0.7631598086
3.047501463
5.492805525
5.164103185
4.572883078
4.460404432
4.147466141
4.222334376
4.270344095
3.373315255
4.689685164
4.02832033
7.407841359
0.05432066735
0.4531883621
0.8940491966
0.6781130686
0.09803664832
0.02991908157
0.3925971094
0.4058520016
0.3739929233
0.3626990707
0.3444767547
0.3372522529
0.3590218933
0.7250957247
0.8107861144
1.296685174
2.31321615
4.772483032
5.20923574
5.060071827
4.611332002
4.401249097
4.435081754
4.363264343
4.198185735
3.867997885
4.914177037
3.468786122
7.205229077
0.08218299122
0.280868625
0.6152215117
0.3598631238
0.3324351388
0.05977170437
0.2584621798
0.2538175875
0.3204566597
0.3478845651
0.2999873652
0.2393822701
0.3404798443
1.689690066
2.05273522
2.636076787
3.557909799
4.419442957
4.1964678
3.990522211
4.160419563
4.383509125
4.343627657
4.219647775
4.122125142
4.14142226
4.551488756
3.776643473
7.33245078
0.01941509809
0.02262633887
0.1172305562
0.1771363311
0.418367724
0.2219911398
0.1425847447
0.1059890855
0.2021962106
0.2388674725
0.1827390092
0.1245846852
0.6561055478
2.000870034
2.547724351
3.27066026
4.065587868
4.204293574
4.091899837
4.189571403
4.413930936
4.360366211
4.113538464
4.024088845
4.140058346
4.458435092
5.100368181
5.413487699
8.37461805
5.643075595e-05
0.000486748001
0.0113168417
0.06057828033
0.3288325911
0.403340106
0.1206813828
0.04225130875
0.09702332972
0.1173183266
0.08319482691
0.0563510691
0.6296584998
1.936731491
2.30736834
2.806558013
3.282514402
3.357833122
3.455039771
3.496109883
3.531803781
3.370348828
3.293924184
3.451010214
3.778661933
4.177859041
4.90350434
5.934877522
7.426902921
7.733783448e-05
0.001091126835
0.0116020797
0.04814879281
0.2458141559
0.4623725296
0.263560295
0.07919972656
0.07652701171
0.07329263449
0.0522828361
0.04651361532
1.196270136
3.04494616
4.55233128
6.129473986
6.301711375
6.181245209
5.702462622
5.154881686
4.873028189
4.487251902
4.030707549
4.006209039
4.182907219
4.259815585
4.626473226
5.120828734
6.634026185
3.489509689e-05
0.0003228172816
0.001798723585
0.006567212295
0.05567681649
0.1737592047
0.1564094919
0.04450233079
0.02821423905
0.03177187388
0.02949768954
0.0347290009
0.420155569
1.279866913
1.992674433
2.975338877
3.676477822
3.092057583
1.792865399
0.6309144479
0.3187096217
0.1239361793
0.0746068602
0.7517615355
1.306960202
1.547251412
2.689703273
4.095053713
6.703419126
0.4516726498
0.4718346862
0.5308512069
0.6402355644
0.9161466182
1.382343104
1.736925895
1.895952268
2.023230527
2.031244288
1.843718224
1.559207922
1.61798626
3.178008163
9.058350023
9.67679579
6.601326883
6.831002422
6.891158818
6.222894643
5.536423598
4.871671602
4.387787495
4.34755548
4.684316626
5.052098697
5.776915568
6.394346633
7.957028881
6.589627838
2.248768291e-09
0.4086167016
6.927510972e-11
0.04930338924
2.26368413e-11
9.376366708e-11
2.76027621e-10
9.304635198e-05
2.682613959e-05
3.098242804e-05
3.83863174e-05
3.969432681e-06
7.984044398e-07
7.725516136e-07
7.665996025e-07
1.334029227e-07
3.18604461e-13
2.247934995e-13
1.60442452e-13
7.702330943e-09
1.082912761e-12
6.159876815e-12
1.728018881e-11
0.05584306595
0.9888468386
0.06107099176
0.004545358463
0.006192311831
0.002646097078
0.001625893188
0.00153075108
0.0008685170649
0.0004104509088
0.0005021788282
0.000211596475
2.617468465e-06
5.03391341e-05
1.038098484e-06
9.520373858e-07
3.138385438e-07
3.522765286e-07
5.582503766e-06
4.123482585e-07
8.043653187e-07
4.093031745
6.895329206e-06
4.670996668e-05
3.870024006
0.0003012295961
0.001812059589
7.152157289
0.02705104732
0.279583681
0.1325830498
0.9039892535
0.2823770588
0.1699955915
0.06831919823
0.1422209153
0.5282577527
0.7017159955
0.0851841502
0.05787857055
0.9138082122
0.1619116159
0.6214275028
0.3311789463
0.002754703098
0.0004044973509
0.002215307663
0.5212175234
0.200853624
0.3489717099
0.2838846311
6.169639394e-05
2.36800112e-05
3.431450397e-05
0.04620770688
4.478584185e-05
6.510020196e-06
9.258052402e-06
0.02381486599
0.7870497422
0.01101985199
0.2430760435
0.02680536758
0.1329445797
0.2570348802
0.3904580732
0.6775621552
0.1034214992
0.5569969748
0.01408359421
0.1427798647
0.02997735909
0.1356982554
0.01432419364
1.19246856
0.04492033572
0.1165894699
0.0448080245
0.08446666586
0.1188832106
3.044931434
0.2554449862
0.06695727629
0.192331088
0.08995622473
0.3944355794
4.112911198
0.4867346135
0.1626511808
0.4216938209
0.2164694384
0.6000172117
3.364119068
0.88843962
0.1405927942
0.005731291847
0.0008320712918
0.6391987645
2.573496925
0.4764968547
0.05409095275
0.6713098595
2.338129088
0.06653786626
0.03607587634
0.001419654233
0.002456716628
0.0007476518108
0.001641200073
0.0008007151967
0.0008718675277
0.001833328143
0.0009393698041
0.001000380413
0.001054289436
0.004981555598
0.03207433783
0.01182607027
0.001248690465
0.004612967651
0.002150419196
0.0002801154836
0.001040212647
0.0003867795175
1.163801337e-06
8.151225177e-05
1.311571227e-06
3.828785844e-07
3.916895117e-07
4.26066428e-07
7.430020408e-07
4.630589336e-07
8.565781091e-07
3.37927123e-05
5.971321408e-06
6.499631922e-05
0.00164240899
0.0005545987475
0.003030948124
0.0003449431756
0.000419818029
0.0004958259801
0.0003030473361
0.0002449685862
0.0002648083253
0.02958491422
0.1518303036
0.07135893311
0.004913295259
0.03341868415
0.01445962363
0.0005784762437
0.005112564968
0.001039919445
1.501652665e-06
0.0001536777241
1.756017219e-06
4.810334575e-07
5.172469612e-07
5.550541811e-07
1.067853706e-06
6.11889241e-07
1.599684948e-06
0.0001070865627
1.727292488e-05
0.000129881875
0.003316559323
0.000671898011
0.00307182439
2.601159398e-05
5.74471907e-05
1.193668861e-05
2.851791837e-05
1.206017491e-05
1.246084067e-05
3.432003196e-05
0.0415870144
0.1826318037
0.1018918081
0.002651379987
0.04424072339
0.009103952162
2.116500991e-06
0.0005977462072
2.669101253e-06
6.680011271e-07
7.844117366e-07
8.940956665e-07
2.960246305e-06
1.378429098e-06
5.259527432e-06
0.0001222574698
2.416068664e-05
9.366400861e-05
3.218748929e-07
3.157117896e-13
7.827151449e-07
2.636745189e-13
2.209671145e-13
7.675315945e-07
1.862281379e-13
0.02393010562
0.1360320457
0.04464355966
3.830102949e-06
0.004837180724
8.54825341e-06
1.512160144e-06
2.917994387e-06
4.036857542e-06
8.273929712e-06
7.048769353e-06
1.120040921e-05
4.44408386e-13
2.36093965
25.31072381
9.125515949
1.046472962
0.0140706982
0.5554641648
0.01518191563
0.9054642854
0.01596776965
0.008525882488
0.9369599523
0.05855079358
0.6002813309
0.002825301268
3.572793975
0.07026875966
0.0009434441508
0.5679538981
0.02801205635
0.0001052652314
2.096897252
0.09034411514
7.96919075e-07
3.790863897
0.3463478952
1.240954005e-06
3.939421848
0.3336280889
4.7281771
2.655807685
0.01875535633
3.886322655
2.993010794
2.527014179
2.415112003
0.03022162052
0.8442887389
0.004576389883
0.001529099195
0.001743389772
0.01390627888
0.002237710745
0.0006869596168
6.336911714e-05
3.4908034e-07
4.197132699e-07
4.352465735e-06
0.0002509036027
0.03552336459
0.0006958407325
0.0003873553477
0.0003810438822
0.0001835621277
0.0004589066975
0.0002240598708
0.0005295010341
0.07030074764
0.01209362849
0.001955369695
0.0001087144
4.458131613e-07
5.209277453e-07
9.86822963e-06
0.0006808259655
0.09388360156
0.33340422
0.08366327365
0.01634642301
0.0002522296495
6.182860073e-07
8.042859046e-07
2.29347583e-05
0.0005581565223
0.01757268872
1.312973747e-05
8.813944597e-06
1.487682904e-11
1.109241632e-10
1.490360216e-10
4.780510798e-10
0.314249889
0.0965226173
0.00213624043
1.182281384e-06
2.914407366e-06
2.380568267e-05
0.0002297243034
1.064113666e-07
1.901324444e-11
8.428368375e-11
0.06025835302
5.013194008e-08
6.945838645e-09
6.44799237e-13
4.684103789e-13
1.895739747e-13
3.483140628e-13
0.006105894393
6.527106189e-10
1.898330077e-21
9.203314964e-22
4.987379996e-22
1.206301522e-06
5.28355153e-24
8.701295514e-40
9.363232314e-41
9.5858387e-43
1.202190801e-05
8.836424714e-22
6.164313582e-39
6.11310395e-40
5.806281001e-42
0.8916083451
0.02047843548
1.706226156
0.1226428082
0.0108943808
0.002301429988
0.5620488675
0.01463452095
0.4906890069
0.8239338183
0.002460008476
0.002601404119
0.6754826397
0.0156117058
1.246082613
0.8315464421
0.002727001789
0.002835025908
1.048521012
0.002926548407
0.02675048127
0.4149214508
0.2701680942
0.3575544095
0.9818958577
3.645495644e-08
0.03686997078
1.140094094e-10
2.288407542e-08
0.1855001821
9.157206406e-09
3.914214465e-11
6.92361013e-11
1.15345126e-10
1.89138482e-10
2.993607748e-10
0.0001649600618
0.0002031387535
3.553781849e-05
5.243132342e-12
1.158614472e-09
4.336323249e-11
4.889457396e-11
1.522910687e-11
8.706569443e-11
1.641892603e-10
1.653808647e-10
2.998360473e-10
1.307497522e-05
1.399485693e-05
1.533718994e-05
8.151978067e-07
5.976277854e-07
9.654899385e-14
6.715445823e-14
1.719270359e-11
5.842154996e-11
1.585603643e-10
3.312210382e-10
6.527749108e-10
6.235524332e-10
1.006625135e-13
4.55045813e-11
2.397509101e-10
3.276370614e-10
1.576750725e-13
1.337914364e-13
3.823112662e-13
2.670708173e-13
3.700145815e-13
3.115673562e-13
1.898132642e-13
2.633329512e-13
2.232660045e-13
4.452183708e-15
1.357055331e-08
8.955129745e-15
3.022451345e-12
1.148859784e-11
2.305344292e-12
3.674365117e-11
6.703559173e-12
1.40617283e-11
2.522023114e-11
2.897662352e-10
4.109564844e-11
3.488894257e-14
6.448460278e-11
1.643729738e-10
7.901849944e-13
3.731009426e-09
4.118345201e-17
5.471558609e-13
3.954340875e-17
2.930943564e-17
4.033079428e-13
2.194943726e-17
1.650771458e-17
1.239057297e-17
1.990349656e-21
9.817685583e-10
3.220294162e-21
1.297381266e-21
1.582946674e-21
6.964899659e-22
6.714339112e-22
2.868373335e-22
9.849311037e-23
1.620893613e-23
2.134884797e-39
8.394756514e-23
6.711181872e-39
2.998330612e-40
2.698483612e-39
8.993506887e-40
2.262744511e-41
2.715764441e-40
6.321221969e-41
2.551909651e-42
2.60199098e-38
2.21329528e-21
3.54249044e-29
2.038402377e-39
2.49003079e-30
8.080906343e-31
1.412401542e-40
2.460411749e-31
5.945606039e-32
1.080070367e-11
4.708882954e-33
)
;

boundaryField
{
    walls
    {
        type            zeroGradient;
    }
    wallFilmFace_top
    {
        type            zeroGradient;
    }
    region0_to_wallFilmRegion_wallFilmFace
    {
        type            zeroGradient;
    }
    mirrorFace_top
    {
        type            zeroGradient;
    }
    region0_to_wallFilmRegion_mirrorFace
    {
        type            zeroGradient;
    }
    procBoundary2to0
    {
        type            processor;
        value           nonuniform List<scalar> 
26
(
1.153320532
1.304503069
1.774817126
1.089045964
1.214129696
1.516713274
0.5448155476
0.0716644841
0.02633274963
0.03105643559
0.1162542207
0.1010684357
0.0729435124
0.07643550964
0.07575101548
0.08711283941
0.09766785185
0.1129815423
0.1328046045
0.1414424435
0.1239327515
0.09188807806
0.06053579483
0.08227500105
0.08241976396
6.440140062
)
;
    }
    procBoundary2to1
    {
        type            processor;
        value           nonuniform List<scalar> 
33
(
1.248569637
1.248569637
0.959256839
0.959256839
0.8669869219
1.054163768
1.961715559
1.961715559
1.696493716
1.474383081
0.8753329398
1.179105569
0.29738869
0.2293965543
0.1781831401
0.1112751958
0.659964608
1.611989602
0.4417998796
0.3261470785
1.020487792
0.3160784405
0.2664828221
0.1696166648
0.06782841526
0.003286732372
0.0004157137619
0.002882192437
0.2744915565
3.011544367e-06
2.744468185e-07
1.764451499e-06
0.5074944328
)
;
    }
    procBoundary2to3
    {
        type            processor;
        value           nonuniform List<scalar> 
64
(
1.896871662e-09
1.086395319e-10
1.653766209e-10
3.769045162e-10
5.237370002e-10
4.273301972e-05
7.681119699e-07
1.355882462e-13
2.596622315e-11
1.611048755
0.3445124706
1.353583822
0.5091679222
0.3445124706
0.2969634732
0.2064718262
0.0977375114
0.04283104539
0.03709225585
0.05073535511
0.06389977978
0.04107931812
0.0006269864251
0.001855223335
0.001855223335
0.002087563599
0.2456570597
0.2456570597
0.02895923666
0.2456570597
0.001911150098
0.001100202271
0.001911150098
0.0005587247227
0.000282561271
1.207037216
0.01625833834
1.611048755
0.02051290043
0.001911150098
9.119189556e-10
1.609498897e-13
3.011625995e-13
3.742073097e-22
9.58456272e-43
6.422563396e-42
0.4589141269
0.003001769496
0.0241345072
1.691008083e-10
1.086395319e-10
2.512320409e-10
6.368502406e-10
5.592766505e-10
1.708724036e-05
1.20970649e-09
1.089360358e-09
1.137007594e-13
4.758291004e-10
6.269990516e-11
9.227827332e-18
1.508119892e-23
2.707056452e-42
6.667089661e-33
)
;
    }
}


// ************************************************************************* //
