/*--------------------------------*- C++ -*----------------------------------*\
  =========                 |
  \\      /  F ield         | OpenFOAM: The Open Source CFD Toolbox
   \\    /   O peration     | Website:  https://openfoam.org
    \\  /    A nd           | Version:  8
     \\/     M anipulation  |
\*---------------------------------------------------------------------------*/
FoamFile
{
    version     2.0;
    format      ascii;
    class       volScalarField;
    location    "1.7/wallFilmRegion";
    object      rho;
}
// * * * * * * * * * * * * * * * * * * * * * * * * * * * * * * * * * * * * * //

dimensions      [1 -3 0 0 0 0 0];

internalField   nonuniform List<scalar> 
1342
(
994.5114696
994.5114698
994.5114697
994.5114694
994.5114692
994.5114691
994.5114688
994.5114682
994.5114677
994.5114682
994.5114705
994.5114699
994.5114691
994.5114695
994.5114693
994.511469
994.5114687
994.5114685
994.5114684
994.5114683
994.5114682
994.5114681
994.5114679
994.5114678
994.5114678
994.511468
994.5114694
994.5114696
994.5114697
994.5114697
994.5114696
994.5114692
994.5114688
994.5114684
994.5114676
994.5114665
994.5114681
994.5114682
994.5114683
994.5114682
994.5114683
994.5114685
994.5114691
994.511469
994.5114693
994.5114695
994.5114696
994.5114687
994.5114683
994.5114677
994.511467
994.5114674
994.5114681
994.5114695
994.5114691
994.511469
994.5114694
994.5114692
994.511469
994.5114688
994.5114685
994.5114682
994.5114605
994.5114657
994.511468
994.5114682
994.5114682
994.5114682
994.5114682
994.5114683
994.5114685
994.5114686
994.5114686
994.5114687
994.5114685
994.5114683
994.5114681
994.511468
994.5114679
994.5114679
994.511468
994.5114688
994.5114687
994.5114686
994.511469
994.5114693
994.5114692
994.5114691
994.511469
994.5114686
994.5114683
994.5114682
994.5114682
994.5114682
994.5114683
994.5114683
994.5114683
994.5114683
994.5114683
994.5114683
994.5114683
994.5114683
994.5114683
994.5114682
994.5114681
994.511468
994.5114679
994.5114679
994.511468
994.5114686
994.5114686
994.5114686
994.5114687
994.5114693
994.5114693
994.5114691
994.5114687
994.5114682
994.5114682
994.511468
994.5114682
994.5114682
994.5114683
994.5114683
994.5114683
994.5114683
994.5114683
994.5114683
994.5114683
994.5114683
994.5114682
994.5114682
994.5114681
994.511468
994.5114679
994.5114679
994.5114679
994.5114686
994.5114686
994.5114682
994.5114681
994.5114684
994.5114689
994.511468
994.5114684
994.5114516
994.511467
994.5114681
994.5114678
994.5114682
994.5114682
994.5114683
994.5114683
994.5114683
994.5114683
994.5114683
994.5114683
994.5114683
994.5114683
994.5114682
994.5114682
994.5114682
994.511468
994.5114679
994.5114679
994.5114679
994.5114686
994.5114694
994.5114691
994.5114679
994.5114653
994.5114256
994.51137
994.5114067
994.5114616
994.5114624
994.5114678
994.5114676
994.5114681
994.5114682
994.5114683
994.5114683
994.5114683
994.5114683
994.5114683
994.5114683
994.5114683
994.5114683
994.5114682
994.5114682
994.5114683
994.5114682
994.511468
994.5114679
994.5114679
994.511469
994.5114703
994.51147
994.5114686
994.5114674
994.5114453
994.5114175
994.5114485
994.5114663
994.5114631
994.5114674
994.5114675
994.5114681
994.5114682
994.5114683
994.5114683
994.5114683
994.5114682
994.5114682
994.5114683
994.5114683
994.5114683
994.5114682
994.5114682
994.5114684
994.5114683
994.5114681
994.511468
994.5114679
994.5114692
994.5114687
994.5114689
994.511469
994.5114688
994.5114682
994.5114531
994.5114543
994.5114675
994.5114694
994.5114692
994.5114686
994.5114683
994.5114682
994.5114683
994.5114683
994.5114682
994.511468
994.5114678
994.5114681
994.5114682
994.5114682
994.5114683
994.5114684
994.5114684
994.5114684
994.5114683
994.5114682
994.5114679
994.5114694
994.5114689
994.5114687
994.5114688
994.5114686
994.5114674
994.5114692
994.5114444
994.5114679
994.5114668
994.511469
994.5114687
994.5114683
994.5114683
994.5114683
994.5114682
994.5114681
994.511468
994.5114678
994.511468
994.5114681
994.5114682
994.5114682
994.5114683
994.5114684
994.5114684
994.5114682
994.511468
994.5114679
994.5114693
994.5114691
994.5114683
994.5114686
994.5114689
994.5114701
994.5114701
994.5114278
994.5114681
994.5114681
994.5114688
994.5114687
994.5114684
994.5114683
994.5114682
994.5114682
994.5114681
994.511468
994.5114679
994.511468
994.5114681
994.5114682
994.5114683
994.5114683
994.5114684
994.5114683
994.5114681
994.5114679
994.5114679
994.5114689
994.5114693
994.5114693
994.5114686
994.5114686
994.5114691
994.5114687
994.5114591
994.5114683
994.5114683
994.5114687
994.5114687
994.5114683
994.5114682
994.5114682
994.5114681
994.511468
994.511468
994.511468
994.511468
994.5114681
994.5114682
994.5114683
994.5114683
994.5114683
994.5114683
994.5114681
994.5114678
994.5114679
994.5114712
994.5114701
994.5114695
994.5114692
994.5114685
994.511468
994.5114683
994.5114622
994.5114683
994.5114685
994.5114687
994.5114686
994.5114682
994.5114679
994.5114679
994.5114679
994.5114679
994.5114679
994.511468
994.511468
994.5114681
994.5114682
994.5114683
994.5114683
994.5114683
994.5114683
994.511468
994.5114676
994.5114678
994.5114698
994.5114693
994.511469
994.5114688
994.5114685
994.5114683
994.5114684
994.511467
994.5114683
994.5114686
994.5114687
994.5114686
994.5114681
994.5114676
994.5114676
994.5114677
994.5114678
994.5114679
994.511468
994.5114681
994.5114682
994.5114682
994.5114683
994.5114683
994.5114683
994.5114682
994.5114678
994.5114676
994.5114678
994.5114695
994.5114691
994.5114688
994.5114676
994.5114682
994.5114683
994.5114684
994.5114685
994.5114684
994.5114686
994.5114687
994.5114685
994.511468
994.5114673
994.5114673
994.5114676
994.5114678
994.5114679
994.511468
994.511468
994.5114681
994.5114681
994.5114681
994.5114681
994.5114681
994.511468
994.5114675
994.5114676
994.5114678
994.5114695
994.5114689
994.5114687
994.5114681
994.5114683
994.5114683
994.5114684
994.5114684
994.5114683
994.5114684
994.5114688
994.5114685
994.5114681
994.5114674
994.5114672
994.5114676
994.5114678
994.5114679
994.511468
994.511468
994.511468
994.5114679
994.5114679
994.5114679
994.5114677
994.5114675
994.511467
994.5114677
994.5114678
994.5114695
994.5114688
994.5114684
994.5114682
994.5114683
994.5114683
994.5114684
994.5114682
994.511468
994.5114682
994.5114685
994.5114686
994.5114682
994.5114675
994.5114673
994.5114676
994.5114678
994.5114679
994.5114679
994.5114679
994.5114678
994.5114677
994.5114676
994.5114674
994.5114671
994.5114667
994.5114666
994.5114677
994.5114679
994.5114685
994.5114686
994.5114682
994.5114682
994.5114682
994.5114682
994.5114684
994.5114688
994.5114681
994.5114681
994.5114681
994.5114684
994.5114683
994.5114683
994.5114681
994.511468
994.511468
994.5114679
994.5114679
994.5114678
994.5114676
994.5114673
994.5114667
994.5114661
994.5114657
994.5114654
994.5114666
994.5114677
994.5114679
994.5114683
994.5114684
994.5114682
994.5114682
994.5114681
994.511468
994.5114682
994.5114686
994.5114685
994.5114684
994.5114684
994.5114685
994.5114685
994.5114686
994.5114686
994.5114685
994.5114683
994.5114681
994.5114679
994.5114677
994.5114673
994.511468
994.511468
994.5114679
994.5114679
994.5114678
994.5114678
994.5114679
994.5114679
994.5114687
994.5114687
994.5114686
994.5114683
994.5114683
994.5114682
994.5114683
994.5114685
994.5114685
994.5114685
994.5114685
994.5114686
994.5114688
994.5114689
994.511469
994.5114689
994.5114686
994.5114683
994.511468
994.511468
994.511468
994.511468
994.511468
994.511468
994.511468
994.511468
994.511468
994.511468
994.5114679
994.5114687
994.5114685
994.5114685
994.5114684
994.5114684
994.5114684
994.5114683
994.5114685
994.5114685
994.5114686
994.5114686
994.5114688
994.5114689
994.511469
994.511469
994.5114689
994.5114687
994.5114684
994.5114679
994.511468
994.511468
994.511468
994.511468
994.511468
994.511468
994.511468
994.511468
994.511468
994.5114679
994.5114685
994.5114684
994.5114684
994.5114685
994.5114687
994.5114688
994.5114687
994.5114686
994.5114686
994.5114687
994.5114688
994.5114689
994.5114689
994.5114689
994.5114689
994.5114688
994.5114686
994.511468
994.511468
994.511468
994.511468
994.511468
994.511468
994.511468
994.511468
994.511468
994.511468
994.511468
994.511468
994.5114681
994.5114684
994.5114686
994.5114686
994.5114687
994.5114688
994.5114688
994.5114688
994.5114688
994.5114688
994.5114689
994.511469
994.5114688
994.5114684
994.5114682
994.511468
994.511468
994.511468
994.511468
994.511468
994.511468
994.5114681
994.5114681
994.511468
994.511468
994.511468
994.511468
994.511468
994.511468
994.5114679
994.5114684
994.5114685
994.5114686
994.5114684
994.5114684
994.5114688
994.5114688
994.5114689
994.5114689
994.511469
994.5114691
994.5114686
994.5114679
994.5114679
994.511468
994.511468
994.511468
994.511468
994.511468
994.5114681
994.5114681
994.5114681
994.5114681
994.5114681
994.5114681
994.511468
994.511468
994.511468
994.5114679
994.5114681
994.5114684
994.5114685
994.5114686
994.5114684
994.5114688
994.5114689
994.5114689
994.511469
994.511469
994.511469
994.5114681
994.511468
994.511468
994.511468
994.511468
994.511468
994.511468
994.511468
994.5114681
994.5114681
994.5114681
994.5114681
994.5114681
994.5114681
994.5114681
994.511468
994.511468
994.5114677
994.5114677
994.5114682
994.5114683
994.5114685
994.5114685
994.5114687
994.5114687
994.5114689
994.511469
994.511469
994.5114689
994.511468
994.511468
994.511468
994.511468
994.511468
994.511468
994.511468
994.5114681
994.5114681
994.5114681
994.5114681
994.5114681
994.5114681
994.5114681
994.5114681
994.511468
994.511468
994.5113708
994.51145
994.5114671
994.5114681
994.5114684
994.5114685
994.5114684
994.5114684
994.5114688
994.5114689
994.5114688
994.5114685
994.511468
994.511468
994.511468
994.511468
994.511468
994.511468
994.511468
994.5114681
994.5114681
994.5114681
994.5114681
994.5114681
994.5114681
994.5114681
994.5114681
994.5114681
994.5114681
994.5113873
994.5114555
994.5114664
994.5114678
994.5114683
994.5114684
994.5114684
994.5114682
994.5114684
994.5114685
994.5114684
994.511468
994.511468
994.511468
994.5114681
994.5114681
994.511468
994.511468
994.511468
994.511468
994.511468
994.5114681
994.5114681
994.5114681
994.5114681
994.5114681
994.5114681
994.5114681
994.5114681
994.5113438
994.5114461
994.5114635
994.5114668
994.5114682
994.5114684
994.5114684
994.5114681
994.5114681
994.5114682
994.5114681
994.5114679
994.5114679
994.511468
994.5114681
994.5114681
994.5114681
994.511468
994.511468
994.5114681
994.5114681
994.511468
994.5114678
994.5114684
994.5114681
994.5114681
994.5114681
994.5114681
994.5114681
994.5114683
994.5114683
994.5114683
994.5114683
994.5114683
994.5114684
994.5114684
994.5114684
994.5114684
994.5114684
994.5114684
994.5114684
994.5114683
994.5114681
994.5114681
994.5114682
994.5114682
994.5114682
994.5114682
994.5114682
994.5114682
994.5114682
994.5114681
994.5114681
994.5114681
994.5114681
994.5114681
994.5114681
994.5114681
994.5114693
994.5115983
994.5114685
994.5116759
994.5114686
994.5117282
994.5117396
994.5117591
994.5114876
994.5114898
994.5114886
994.5114874
994.5116204
994.5116568
994.5116679
994.5116781
994.511708
994.511726
994.5117405
994.511758
994.511804
994.5117585
994.5117574
994.5117581
994.5114784
994.5114783
994.5114778
994.511478
994.5114777
994.5114774
994.5114779
994.5114772
994.5114773
994.5114802
994.5114779
994.5114796
994.5115315
994.5114824
994.5115392
994.5115256
994.5115363
994.5115369
994.5115259
994.5115397
994.5115435
994.5114698
994.5115017
994.511477
994.5114698
994.5114704
994.511469
994.5114696
994.5114685
994.5114685
994.5114775
994.5114774
994.5114771
994.5114685
994.5114686
994.5114685
994.5114767
994.5114762
994.5114686
994.5114688
994.5114755
994.5114747
994.5114746
994.5114742
994.5114705
994.511478
994.5114723
994.5114738
994.5114738
994.5114734
994.5114735
994.5115117
994.5115667
994.5115531
994.5114753
994.5115166
994.5116895
994.5116567
994.5114695
994.5114714
994.5114696
994.5114691
994.5114694
994.5114691
994.5114691
994.5114691
994.5114691
994.51147
994.5114711
994.5114695
994.5114692
994.5114693
994.5114692
994.5114697
994.5114698
994.5114697
994.5114693
994.5114696
994.5114694
994.5114697
994.5114698
994.5114697
994.5114695
994.5114697
994.5114696
994.5114697
994.5114698
994.5114697
994.5114697
994.5114697
994.5114697
994.5114697
994.5114698
994.5114697
994.5114697
994.5114691
994.5114687
994.5114696
994.5114697
994.5114695
994.5114694
994.5114694
994.5114699
994.5114695
994.5114694
994.5114697
994.5114702
994.5114703
994.5114696
994.5114702
994.5114702
994.5114695
994.5114701
994.5114701
994.51147
994.5114771
994.5114767
994.5114766
994.511477
994.5114766
994.5114766
994.5114793
994.5114771
994.5114789
994.5115455
994.5114812
994.5115493
994.5115515
994.511566
994.5115667
994.511554
994.5115689
994.5115624
994.511476
994.5115
994.5114746
994.511469
994.51147
994.511469
994.5114715
994.5114713
994.5114711
994.5114744
994.5114729
994.5114728
994.511476
994.5114755
994.5114754
994.5114762
994.5114755
994.5114757
994.5114786
994.5114762
994.5114782
994.5115499
994.5114801
994.511547
994.5115805
994.5115882
994.5115907
994.5115669
994.511592
994.5115659
994.5114744
994.5114943
994.5114758
994.5114692
994.5114712
994.5114696
994.5114902
994.5114968
994.5115033
994.5114893
994.511503
994.5115024
994.511488
994.5114751
994.5114741
994.5114744
994.5114779
994.511475
994.5114774
994.5115414
994.511479
994.511534
994.5115956
994.5115857
994.5115942
994.5115612
994.5115934
994.5115619
994.5114799
994.5115128
994.5114896
994.5116953
994.5117014
994.5116625
994.5117081
994.5117156
994.5116733
994.511727
994.5114767
994.511474
994.5114759
994.5115297
994.5114779
994.5115236
994.5115877
994.5115636
994.5115917
994.5115748
994.5115952
994.511604
994.5117175
994.5114795
994.5114729
994.5114729
994.5114699
994.511469
994.5114697
994.511469
994.5114697
994.5114689
994.5114783
994.5114732
994.5114692
994.5114691
994.5114778
994.5114702
994.5114697
994.5114785
994.51147
994.5114694
994.5114831
994.5114698
994.5114697
994.511525
994.5114698
994.5114697
994.5115282
994.5114698
994.5114697
994.5114698
994.5114698
994.5114693
994.5114698
994.5114697
994.5114697
994.5114699
994.5114711
994.5114779
994.5114697
994.5114696
994.5114695
994.5114772
994.5114769
994.5114775
994.5114818
994.5115509
994.511554
994.5115033
994.5114701
994.5114685
994.5114728
994.5114718
994.5114714
994.5114733
994.5114712
994.511473
994.5114711
994.5114761
994.5114761
994.5114766
994.5114806
994.5115792
994.5115821
994.511496
994.5114703
994.5114686
994.511475
994.5114748
994.5114756
994.5114795
994.5115908
994.5115964
994.5114994
994.5114732
994.5114694
994.5115703
994.5115942
994.5117666
994.5117773
994.5117935
994.5118122
994.5114736
994.5114744
994.5114786
994.5115759
994.5115874
994.5115354
994.5114896
994.5117882
994.5117852
994.5117963
994.5114745
994.5117507
994.5117633
994.5117369
994.5117466
994.5117538
994.5117574
994.5114775
994.5117878
994.5117412
994.5117311
994.5117461
994.5117569
994.5117848
994.5117624
994.5117265
994.5116919
994.5116506
994.5118084
994.51181
994.511749
994.5117255
994.5114699
994.5114691
994.5114733
994.5114695
994.5114695
994.5114694
994.5114697
994.511469
994.5114692
994.5114693
994.5114693
994.5114693
994.5114697
994.5114689
994.5114693
994.5114695
994.5114692
994.5114692
994.5114699
994.5114692
994.5114707
994.5114694
994.5114722
994.5114694
994.5114685
994.5116381
994.5114746
994.5116344
994.5116705
994.5114685
994.5117017
994.5117096
994.5117141
994.5117186
994.511724
994.5117302
994.5114735
994.5114731
994.5115189
994.5117267
994.5117214
994.5117389
994.5117337
994.5117332
994.5117437
994.5117473
994.5117501
994.5117692
994.5115017
994.5115009
994.5115
994.5116513
994.511774
994.5117657
994.5117767
994.511775
994.5117847
994.5118053
994.5118146
994.5118201
994.5118197
994.5117584
994.511773
994.5117832
994.5118039
994.511736
994.5117462
994.5117217
994.5117319
994.5117211
994.5117273
994.5117507
994.5117369
994.5117462
994.5117611
994.5117978
994.5117793
994.511757
994.5117834
994.5117792
994.5117899
994.5117801
994.511782
994.5117837
994.5118035
994.5117845
994.5117707
994.5117952
994.5118011
994.5117377
994.5117778
994.5117492
994.5117403
994.5117403
994.5117341
994.5117529
994.5117434
994.5117505
994.5117552
994.511753
994.5117992
994.5117595
994.511735
994.5117396
994.5117318
994.5117428
994.511734
994.5117246
994.5117246
994.5117782
994.5117881
994.5118056
994.5117408
994.5117704
994.5117585
994.5117038
994.5117331
994.5117212
994.5117103
994.5119408
994.5118091
994.5117784
994.5117578
994.5117715
994.5117653
994.5117325
994.5117669
994.5117677
994.5117579
994.5117609
)
;

boundaryField
{
    walls
    {
        type            zeroGradient;
    }
    wallFilmFace_top
    {
        type            zeroGradient;
    }
    region0_to_wallFilmRegion_wallFilmFace
    {
        type            zeroGradient;
    }
    mirrorFace_top
    {
        type            zeroGradient;
    }
    region0_to_wallFilmRegion_mirrorFace
    {
        type            zeroGradient;
    }
    procBoundary2to0
    {
        type            processor;
        value           nonuniform List<scalar> 
26
(
994.51147
994.5114701
994.5114697
994.5114692
994.5114691
994.5114692
994.5114688
994.5114684
994.5114683
994.5114682
994.5114698
994.5114694
994.5114689
994.5114688
994.5114684
994.5114683
994.5114682
994.5114682
994.5114682
994.5114682
994.5114681
994.511468
994.5114679
994.5114678
994.5114679
994.511468
)
;
    }
    procBoundary2to1
    {
        type            processor;
        value           nonuniform List<scalar> 
33
(
994.5114699
994.5114699
994.5114695
994.5114695
994.5114694
994.511469
994.5114687
994.5114687
994.5114688
994.5114688
994.5114687
994.5114694
994.5114704
994.511471
994.5114712
994.5114728
994.5114707
994.5114697
994.5114696
994.511469
994.5114687
994.5114683
994.5114685
994.5114685
994.5114682
994.5114642
994.5114576
994.5114634
994.5114682
994.5107569
994.5106261
994.5106359
994.5114683
)
;
    }
    procBoundary2to3
    {
        type            processor;
        value           nonuniform List<scalar> 
64
(
994.5115966
994.5116782
994.5116805
994.5116829
994.5117671
994.511487
994.5116822
994.5117645
994.5117582
994.5114697
994.5114691
994.5114694
994.5114691
994.5114691
994.5114691
994.5114692
994.5114692
994.5114693
994.5114695
994.5114696
994.5114697
994.5114697
994.5114683
994.511469
994.511469
994.5114691
994.5114694
994.5114694
994.5114694
994.5114694
994.5114695
994.51147
994.5114695
994.5114711
994.5114728
994.5114697
994.5114689
994.5114697
994.511471
994.5114695
994.5118188
994.5117574
994.5117587
994.5117462
994.5116951
994.5117279
994.5114699
994.5114692
994.5114744
994.5116338
994.5116782
994.5116826
994.5117365
994.5117803
994.5114993
994.5118235
994.5118208
994.5117547
994.5118038
994.5117848
994.5117546
994.5117265
994.511712
994.5117591
)
;
    }
}


// ************************************************************************* //
