/*--------------------------------*- C++ -*----------------------------------*\
  =========                 |
  \\      /  F ield         | OpenFOAM: The Open Source CFD Toolbox
   \\    /   O peration     | Website:  https://openfoam.org
    \\  /    A nd           | Version:  8
     \\/     M anipulation  |
\*---------------------------------------------------------------------------*/
FoamFile
{
    version     2.0;
    format      ascii;
    class       volScalarField;
    location    "1.7/wallFilmRegion";
    object      T;
}
// * * * * * * * * * * * * * * * * * * * * * * * * * * * * * * * * * * * * * //

dimensions      [0 0 0 1 0 0 0];

internalField   nonuniform List<scalar> 
1342
(
299.9999957
299.9999946
299.9999953
299.9999962
299.9999969
299.9999973
299.9999985
300.0000009
300.0000028
300.0000009
299.999992
299.9999944
299.9999973
299.999996
299.9999966
299.999998
299.999999
299.9999997
300.0000001
300.0000004
300.0000008
300.0000014
300.000002
300.0000024
300.0000024
300.0000016
299.9999962
299.9999955
299.9999951
299.9999951
299.9999954
299.999997
299.9999986
300.0000002
300.000003
300.0000072
300.0000011
300.0000007
300.0000006
300.0000007
300.0000004
299.9999998
299.9999976
299.9999976
299.9999968
299.9999958
299.9999953
299.9999989
300.0000005
300.0000026
300.0000054
300.0000037
300.0000014
299.9999959
299.9999975
299.9999977
299.9999964
299.999997
299.9999979
299.9999985
299.9999998
300.0000009
300.0000301
300.0000104
300.0000014
300.0000008
300.0000007
300.0000007
300.0000008
300.0000006
299.9999997
299.9999995
299.9999991
299.9999991
299.9999995
300.0000005
300.0000012
300.0000016
300.0000019
300.000002
300.0000015
299.9999986
299.9999989
299.9999992
299.9999979
299.9999967
299.9999969
299.9999973
299.999998
299.9999993
300.0000004
300.000001
300.000001
300.0000007
300.0000006
300.0000005
300.0000005
300.0000005
300.0000004
300.0000003
300.0000003
300.0000003
300.0000006
300.000001
300.0000013
300.0000016
300.0000018
300.0000019
300.0000017
299.9999993
299.9999994
299.9999992
299.999999
299.9999965
299.9999968
299.9999973
299.9999991
300.0000007
300.0000007
300.0000015
300.000001
300.0000007
300.0000006
300.0000005
300.0000005
300.0000005
300.0000005
300.0000005
300.0000005
300.0000006
300.0000007
300.000001
300.0000013
300.0000016
300.0000019
300.0000019
300.0000018
299.9999992
299.9999994
300.0000007
300.0000013
300.0000002
299.999998
300.0000015
300.0000001
300.0000642
300.0000053
300.0000014
300.0000024
300.000001
300.0000007
300.0000006
300.0000005
300.0000005
300.0000005
300.0000005
300.0000005
300.0000005
300.0000006
300.0000007
300.000001
300.000001
300.0000015
300.0000018
300.0000019
300.0000019
299.9999993
299.9999961
299.9999975
300.000002
300.000012
300.0001638
300.0003759
300.0002358
300.0000262
300.000023
300.0000025
300.0000031
300.0000011
300.0000007
300.0000006
300.0000004
300.0000003
300.0000003
300.0000003
300.0000003
300.0000004
300.0000005
300.0000007
300.0000009
300.0000004
300.000001
300.0000017
300.0000019
300.0000019
299.9999979
299.9999929
299.999994
299.9999992
300.000004
300.0000884
300.0001945
300.0000762
300.0000082
300.0000202
300.0000039
300.0000034
300.0000012
300.0000008
300.0000006
300.0000005
300.0000005
300.0000007
300.0000007
300.0000006
300.0000006
300.0000006
300.0000008
300.0000009
300.0000001
300.0000004
300.0000012
300.0000017
300.0000019
299.9999969
299.9999991
299.9999982
299.999998
299.9999987
300.0000007
300.0000587
300.0000539
300.0000037
299.9999963
299.999997
299.9999993
300.0000006
300.0000007
300.0000006
300.0000006
300.0000008
300.0000015
300.0000023
300.0000014
300.000001
300.0000009
300.0000005
300.0000002
300
300.0000001
300.0000003
300.0000009
300.0000019
299.9999962
299.9999984
299.9999988
299.9999986
299.9999991
300.000004
299.999997
300.0000916
300.0000021
300.0000062
299.9999979
299.9999988
300.0000003
300.0000005
300.0000006
300.0000008
300.0000012
300.0000018
300.0000022
300.0000017
300.0000012
300.0000009
300.0000007
300.0000005
300.0000001
300.0000003
300.0000008
300.0000015
300.0000019
299.9999966
299.9999976
300.0000006
299.9999995
299.9999981
299.9999937
299.9999935
300.0001552
300.0000011
300.0000014
299.9999985
299.9999988
300.0000001
300.0000005
300.0000007
300.000001
300.0000014
300.0000018
300.0000019
300.0000016
300.0000012
300.0000008
300.0000006
300.0000005
300.0000002
300.0000005
300.0000011
300.0000019
300.000002
299.999998
299.9999967
299.9999968
299.9999992
299.9999995
299.9999975
299.9999988
300.0000355
300.0000006
300.0000004
299.9999989
299.999999
300.0000003
300.0000007
300.000001
300.0000013
300.0000016
300.0000018
300.0000017
300.0000015
300.0000011
300.0000007
300.0000005
300.0000004
300.0000003
300.0000006
300.0000013
300.0000025
300.000002
299.9999894
299.9999936
299.9999957
299.9999972
299.9999996
300.0000015
300.0000004
300.0000238
300.0000004
299.9999998
299.999999
299.9999992
300.0000007
300.0000019
300.0000022
300.0000022
300.000002
300.0000019
300.0000017
300.0000014
300.0000011
300.0000007
300.0000004
300.0000003
300.0000004
300.0000006
300.0000018
300.0000032
300.0000022
299.9999949
299.9999966
299.9999979
299.9999986
299.9999998
300.0000005
300.0000002
300.0000056
300.0000005
299.9999995
299.9999989
299.9999994
300.0000013
300.0000031
300.0000033
300.0000028
300.0000023
300.000002
300.0000016
300.0000013
300.000001
300.0000008
300.0000006
300.0000005
300.0000005
300.0000008
300.0000024
300.0000031
300.0000024
299.9999958
299.9999974
299.9999984
300.000003
300.0000009
300.0000004
300.0000001
299.9999998
300
299.9999995
299.9999989
299.9999996
300.0000015
300.0000045
300.0000043
300.0000031
300.0000024
300.0000019
300.0000016
300.0000015
300.0000014
300.0000013
300.0000013
300.0000012
300.0000013
300.0000018
300.0000036
300.000003
300.0000024
299.9999958
299.999998
299.9999988
300.0000013
300.0000006
300.0000004
300.0000001
300
300.0000005
299.9999999
299.9999985
299.9999997
300.0000012
300.0000041
300.0000047
300.0000033
300.0000024
300.0000019
300.0000017
300.0000017
300.0000018
300.0000019
300.000002
300.0000022
300.0000026
300.0000035
300.0000055
300.0000029
300.0000023
299.9999959
299.9999984
300.0000001
300.0000008
300.0000006
300.0000005
300.0000001
300.0000008
300.0000017
300.000001
299.9999998
299.9999995
300.0000009
300.0000035
300.0000045
300.0000032
300.0000024
300.000002
300.000002
300.0000021
300.0000023
300.0000026
300.0000032
300.000004
300.0000051
300.0000067
300.0000068
300.0000027
300.0000021
299.9999997
299.9999992
300.000001
300.0000009
300.000001
300.0000008
299.9999999
299.9999985
300.0000011
300.0000013
300.0000011
300.0000002
300.0000003
300.0000005
300.0000012
300.0000016
300.0000018
300.0000019
300.0000022
300.0000025
300.0000031
300.0000044
300.0000066
300.0000089
300.0000104
300.0000116
300.0000071
300.0000027
300.000002
300.0000005
300.0000001
300.0000007
300.0000008
300.0000011
300.0000014
300.0000007
299.9999993
299.9999998
300
300
299.9999999
299.9999996
299.9999993
299.9999993
299.9999997
300.0000005
300.0000013
300.0000019
300.0000027
300.0000044
300.0000018
300.0000018
300.0000019
300.0000021
300.0000024
300.0000024
300.000002
300.0000019
299.999999
299.999999
299.9999995
300.0000003
300.0000005
300.0000008
300.0000005
299.9999997
299.9999997
299.9999997
299.9999996
299.9999993
299.9999987
299.9999982
299.999998
299.9999983
299.9999993
300.0000004
300.0000015
300.0000017
300.0000017
300.0000016
300.0000016
300.0000016
300.0000017
300.0000017
300.0000017
300.0000018
300.0000018
299.999999
299.9999995
299.9999998
300.0000002
300.0000001
300.0000002
300.0000003
299.9999998
299.9999996
299.9999995
299.9999993
299.9999986
299.999998
299.9999979
299.9999978
299.9999981
299.9999989
300.0000002
300.0000018
300.0000016
300.0000015
300.0000015
300.0000015
300.0000016
300.0000016
300.0000016
300.0000017
300.0000017
300.0000018
299.9999996
300.0000002
300
299.9999995
299.999999
299.9999985
299.999999
299.9999993
299.9999992
299.9999991
299.9999987
299.999998
299.9999982
299.9999984
299.9999983
299.9999985
299.9999994
300.0000018
300.0000016
300.0000016
300.0000015
300.0000015
300.0000015
300.0000015
300.0000015
300.0000016
300.0000017
300.0000017
300.0000018
300.0000012
300.0000002
299.9999995
299.9999992
299.9999989
299.9999984
299.9999987
299.9999987
299.9999986
299.9999985
299.9999982
299.9999976
299.9999987
300.0000001
300.0000007
300.0000017
300.0000017
300.0000016
300.0000016
300.0000015
300.0000014
300.0000014
300.0000014
300.0000014
300.0000015
300.0000015
300.0000017
300.0000018
300.0000018
300.0000019
300.0000002
299.9999997
299.9999995
299.9999999
300.0000001
299.9999985
299.9999984
299.9999982
299.999998
299.9999977
299.9999975
299.9999993
300.000002
300.0000018
300.0000017
300.0000016
300.0000016
300.0000016
300.0000015
300.0000014
300.0000013
300.0000013
300.0000013
300.0000013
300.0000014
300.0000015
300.0000016
300.0000017
300.000002
300.0000011
299.9999999
299.9999998
299.9999995
300.0000001
299.9999985
299.9999983
299.999998
299.9999978
299.9999976
299.9999976
300.0000012
300.0000017
300.0000016
300.0000015
300.0000016
300.0000016
300.0000016
300.0000014
300.0000013
300.0000013
300.0000012
300.0000012
300.0000012
300.0000012
300.0000013
300.0000016
300.0000017
300.0000026
300.0000028
300.0000008
300.0000005
299.9999997
299.9999998
299.9999991
299.9999988
299.999998
299.9999978
299.9999978
299.9999983
300.0000017
300.0000016
300.0000015
300.0000015
300.0000015
300.0000016
300.0000015
300.0000014
300.0000013
300.0000012
300.0000012
300.0000012
300.0000012
300.0000012
300.0000013
300.0000015
300.0000017
300.000373
300.0000703
300.0000052
300.0000014
299.9999999
299.9999998
299.9999999
300
299.9999985
299.9999982
299.9999985
299.9999998
300.0000017
300.0000015
300.0000015
300.0000015
300.0000015
300.0000016
300.0000015
300.0000014
300.0000013
300.0000012
300.0000012
300.0000012
300.0000012
300.0000012
300.0000012
300.0000012
300.0000012
300.00031
300.0000494
300.0000077
300.0000025
300.0000003
299.9999999
300
300.0000008
299.9999999
299.9999996
300
300.0000015
300.0000017
300.0000015
300.0000014
300.0000014
300.0000015
300.0000016
300.0000016
300.0000015
300.0000014
300.0000013
300.0000012
300.0000011
300.0000011
300.0000011
300.0000011
300.0000011
300.0000011
300.0004762
300.0000851
300.0000189
300.0000062
300.0000008
300.0000001
300.0000002
300.0000011
300.0000014
300.0000009
300.0000012
300.0000022
300.0000018
300.0000015
300.0000013
300.0000012
300.0000011
300.0000015
300.0000015
300.0000013
300.0000013
300.0000016
300.0000022
300.0000002
300.0000012
300.0000012
300.0000012
300.0000012
300.0000011
300.0000006
300.0000006
300.0000006
300.0000006
300.0000005
300.0000003
300.0000002
300.0000001
300
300
300
300.0000002
300.0000006
300.000001
300.000001
300.0000009
300.0000008
300.0000008
300.0000009
300.0000009
300.000001
300.000001
300.000001
300.0000011
300.0000011
300.0000011
300.0000012
300.0000012
300.0000012
299.9999968
299.9995038
299.9999997
299.9992074
299.9999994
299.9990074
299.9989638
299.9988893
299.9999267
299.9999182
299.9999228
299.9999275
299.9994192
299.9992803
299.9992377
299.9991989
299.9990844
299.9990157
299.9989604
299.9988934
299.9987177
299.9988917
299.9988958
299.998893
299.9999618
299.9999623
299.999964
299.9999636
299.9999647
299.9999658
299.9999637
299.9999663
299.999966
299.999955
299.9999638
299.9999572
299.9997589
299.9999465
299.9997296
299.9997815
299.9997407
299.9997382
299.9997805
299.9997278
299.999713
299.9999946
299.9998727
299.9999674
299.9999949
299.9999924
299.9999979
299.9999954
299.9999995
299.9999997
299.9999655
299.9999657
299.999967
299.9999996
299.9999994
299.9999995
299.9999683
299.9999705
299.9999994
299.9999987
299.9999731
299.9999759
299.9999764
299.9999779
299.9999919
299.9999635
299.9999851
299.9999793
299.9999793
299.9999811
299.9999807
299.9998348
299.9996243
299.9996765
299.9999737
299.9998159
299.9991554
299.9992804
299.9999959
299.9999886
299.9999955
299.9999973
299.9999964
299.9999972
299.9999974
299.9999975
299.9999975
299.9999939
299.9999897
299.9999961
299.9999969
299.9999966
299.999997
299.9999953
299.9999946
299.999995
299.9999968
299.9999956
299.9999964
299.9999949
299.9999948
299.9999949
299.9999958
299.9999951
299.9999953
299.9999949
299.9999948
299.999995
299.9999951
299.999995
299.9999951
299.9999951
299.9999948
299.9999952
299.9999951
299.9999974
299.999999
299.9999954
299.9999949
299.9999959
299.9999963
299.9999961
299.9999944
299.9999961
299.9999962
299.9999952
299.9999933
299.9999929
299.9999956
299.9999931
299.9999934
299.9999959
299.9999936
299.9999937
299.9999938
299.999967
299.9999684
299.9999687
299.9999672
299.9999688
299.9999686
299.9999585
299.9999669
299.9999598
299.9997056
299.999951
299.9996908
299.9996824
299.999627
299.9996243
299.9996731
299.999616
299.9996408
299.9999711
299.9998793
299.9999763
299.999998
299.9999941
299.9999978
299.9999883
299.9999891
299.9999896
299.9999772
299.999983
299.9999832
299.9999709
299.999973
299.9999734
299.9999701
299.999973
299.9999721
299.9999612
299.9999705
299.9999625
299.9996888
299.9999556
299.9996998
299.9995718
299.9995421
299.9995328
299.9996238
299.9995279
299.9996276
299.9999773
299.9999013
299.9999717
299.999997
299.9999895
299.9999954
299.999917
299.9998915
299.9998669
299.9999203
299.9998678
299.99987
299.9999253
299.9999745
299.9999781
299.9999771
299.9999639
299.9999749
299.9999658
299.9997212
299.9999594
299.9997492
299.9995139
299.9995518
299.9995193
299.9996456
299.9995224
299.9996428
299.9999562
299.9998305
299.9999192
299.9991332
299.9991097
299.9992586
299.9990841
299.9990553
299.9992169
299.9990119
299.9999684
299.9999787
299.9999713
299.9997659
299.9999636
299.9997892
299.9995441
299.9996362
299.9995291
299.9995934
299.9995157
299.9994818
299.9990481
299.9999577
299.9999828
299.9999827
299.9999944
299.9999977
299.9999951
299.999998
299.9999951
299.9999982
299.9999624
299.9999819
299.9999969
299.9999973
299.999964
299.9999931
299.9999951
299.9999613
299.9999939
299.9999961
299.999944
299.9999948
299.9999952
299.9997838
299.9999948
299.999995
299.9997717
299.9999948
299.9999951
299.9999946
299.9999948
299.9999968
299.9999947
299.9999951
299.9999951
299.9999942
299.9999899
299.9999638
299.999995
299.9999955
299.9999958
299.9999663
299.9999675
299.9999653
299.9999487
299.9996848
299.9996728
299.9998668
299.9999934
299.9999995
299.9999832
299.999987
299.9999887
299.9999815
299.9999894
299.9999826
299.9999898
299.9999706
299.9999706
299.9999686
299.9999534
299.9995765
299.9995654
299.9998945
299.9999928
299.9999993
299.9999749
299.9999757
299.9999726
299.9999576
299.9995323
299.9995109
299.9998815
299.9999817
299.9999963
299.9996108
299.9995192
299.9988607
299.9988198
299.9987577
299.9986863
299.9999801
299.9999772
299.9999612
299.9995894
299.9995454
299.999744
299.9999191
299.9987779
299.9987897
299.9987472
299.9999768
299.9989215
299.9988733
299.998974
299.9989369
299.9989094
299.9988956
299.9999654
299.9987795
299.9989575
299.9989961
299.998939
299.9988976
299.9987909
299.9988766
299.9990137
299.999146
299.9993039
299.9987009
299.9986946
299.9989279
299.9990175
299.9999943
299.9999975
299.9999814
299.999996
299.9999959
299.9999964
299.999995
299.9999978
299.999997
299.9999968
299.9999966
299.9999967
299.9999951
299.9999981
299.9999967
299.9999957
299.9999969
299.999997
299.9999945
299.9999971
299.9999915
299.9999961
299.9999856
299.9999961
299.9999997
299.9993518
299.9999765
299.9993656
299.9992277
299.9999996
299.9991085
299.9990785
299.9990612
299.9990438
299.9990234
299.9989995
299.9999807
299.9999821
299.9998072
299.9990132
299.9990333
299.9989664
299.9989862
299.9989881
299.998948
299.9989342
299.9989235
299.9988505
299.9998727
299.9998759
299.9998792
299.9993013
299.9988321
299.9988639
299.9988219
299.9988284
299.9987913
299.9987128
299.9986771
299.9986561
299.9986575
299.998892
299.9988361
299.998797
299.9987181
299.9989774
299.9989384
299.999032
299.9989931
299.9990345
299.9990106
299.9989215
299.9989742
299.9989386
299.9988816
299.9987413
299.9988122
299.9988974
299.9987963
299.9988126
299.9987714
299.998809
299.9988016
299.9987954
299.9987196
299.9987921
299.9988449
299.9987512
299.9987287
299.9989711
299.9988178
299.9989269
299.9989611
299.9989612
299.9989847
299.998913
299.9989492
299.9989222
299.9989043
299.9989127
299.998736
299.9988879
299.9989815
299.9989638
299.9989936
299.9989515
299.9989853
299.999021
299.9990211
299.9988164
299.9987786
299.9987117
299.998959
299.9988462
299.9988916
299.9991004
299.9989885
299.9990343
299.9990759
299.9981948
299.9986982
299.9988155
299.9988942
299.9988419
299.9988656
299.9989908
299.9988595
299.9988564
299.9988937
299.9988825
)
;

boundaryField
{
    walls
    {
        type            zeroGradient;
    }
    wallFilmFace_top
    {
        type            zeroGradient;
    }
    region0_to_wallFilmRegion_wallFilmFace
    {
        type            zeroGradient;
    }
    mirrorFace_top
    {
        type            zeroGradient;
    }
    region0_to_wallFilmRegion_mirrorFace
    {
        type            zeroGradient;
    }
    procBoundary2to0
    {
        type            processor;
        value           nonuniform List<scalar> 
26
(
299.999994
299.9999934
299.999995
299.9999972
299.9999976
299.9999969
299.9999986
300
300.0000004
300.0000007
299.9999946
299.9999964
299.9999984
299.9999985
300.0000001
300.0000006
300.0000007
300.0000008
300.0000009
300.000001
300.0000012
300.0000015
300.0000019
300.0000023
300.0000019
300.0000017
)
;
    }
    procBoundary2to1
    {
        type            processor;
        value           nonuniform List<scalar> 
33
(
299.9999943
299.9999943
299.9999957
299.9999957
299.9999963
299.9999979
299.999999
299.999999
299.9999984
299.9999986
299.999999
299.9999963
299.9999926
299.9999903
299.9999895
299.9999831
299.9999913
299.9999949
299.9999955
299.9999979
299.999999
300.0000004
299.9999998
299.9999999
300.0000007
300.0000159
300.0000414
300.0000191
300.0000009
300.0027188
300.0032186
300.0031814
300.0000005
)
;
    }
    procBoundary2to3
    {
        type            processor;
        value           nonuniform List<scalar> 
64
(
299.9995102
299.9991985
299.9991896
299.9991804
299.9988586
299.9999292
299.9991831
299.9988687
299.9988929
299.999995
299.9999974
299.9999963
299.9999975
299.9999974
299.9999973
299.9999971
299.9999969
299.9999965
299.9999959
299.9999955
299.9999953
299.9999952
300.0000004
299.9999978
299.9999978
299.9999973
299.9999962
299.9999962
299.9999962
299.9999962
299.999996
299.9999939
299.999996
299.9999899
299.9999834
299.9999952
299.9999983
299.999995
299.9999903
299.999996
299.998661
299.9988957
299.9988908
299.9989384
299.999134
299.9990085
299.9999945
299.9999972
299.999977
299.9993679
299.9991985
299.9991817
299.9989758
299.9988084
299.9998821
299.998643
299.9986536
299.9989061
299.9987185
299.9987912
299.9989064
299.9990138
299.9990692
299.9988893
)
;
    }
}


// ************************************************************************* //
