/*--------------------------------*- C++ -*----------------------------------*\
  =========                 |
  \\      /  F ield         | OpenFOAM: The Open Source CFD Toolbox
   \\    /   O peration     | Website:  https://openfoam.org
    \\  /    A nd           | Version:  8
     \\/     M anipulation  |
\*---------------------------------------------------------------------------*/
FoamFile
{
    version     2.0;
    format      ascii;
    class       scalarField;
    location    "0.6/lagrangian/reactingCloud1";
    object      mass0;
}
// * * * * * * * * * * * * * * * * * * * * * * * * * * * * * * * * * * * * * //


119
(
6.530263371e-08
1.636590821e-07
9.127328595e-08
2.523880325e-07
2.883850373e-07
2.466967231e-07
3.576715086e-07
1.313756673e-07
2.009857897e-07
1.886108327e-07
2.335436935e-07
9.729139533e-08
3.924891178e-07
3.232383017e-07
6.178002401e-07
4.485440974e-07
1.538252409e-07
6.75886512e-07
3.704626651e-07
2.06814143e-07
1.185506669e-07
7.158051295e-08
7.97362282e-08
8.697480808e-08
1.171954611e-07
9.381530066e-08
9.598056925e-08
2.266416781e-07
1.405698708e-07
3.03063372e-07
6.060286067e-07
2.276892365e-07
2.158240603e-07
1.971352495e-07
9.863479792e-08
1.565110588e-07
6.947736054e-07
3.098907889e-07
6.346033124e-07
8.025460121e-08
1.167821333e-07
1.761289835e-07
3.998575556e-07
1.14480052e-07
2.643404447e-07
1.342466857e-07
1.78840224e-07
1.583978522e-07
3.525833404e-07
1.509503747e-07
4.449337687e-07
3.39286621e-07
3.634359437e-07
2.254225693e-07
1.066561168e-07
1.348470073e-07
7.095163635e-08
1.750085626e-07
7.771017786e-07
5.863402047e-07
4.063919811e-07
7.162746428e-08
4.805319861e-07
6.622950419e-08
8.936219922e-08
2.591428792e-07
3.708817829e-07
3.761166361e-07
3.302334246e-07
1.951161579e-07
3.588629289e-07
9.761003795e-08
5.804157407e-07
8.373706784e-08
3.202885329e-07
2.718688209e-07
2.290982077e-07
3.767753117e-07
1.220276586e-07
2.544051893e-07
4.51266926e-07
2.040815444e-07
1.045894984e-07
1.311327221e-07
1.017416012e-07
1.128668338e-07
9.776972919e-08
7.028798166e-08
7.390603229e-08
6.82126706e-08
6.088854246e-07
2.147106605e-07
7.58263851e-07
1.191004094e-07
7.360797143e-08
2.159365423e-07
5.843233842e-07
8.858529179e-08
8.254112226e-08
2.372061739e-07
8.880212487e-08
1.054991663e-07
5.151776415e-07
1.080398654e-07
8.308443687e-08
7.531462921e-08
3.319655845e-07
9.673939822e-08
1.422537959e-07
8.278061495e-08
9.354354646e-08
7.134320577e-08
1.447442414e-07
6.982105225e-08
1.652666196e-07
3.955162455e-07
1.643633677e-07
7.001756551e-08
8.428577032e-08
)


// ************************************************************************* //
