/*--------------------------------*- C++ -*----------------------------------*\
  =========                 |
  \\      /  F ield         | OpenFOAM: The Open Source CFD Toolbox
   \\    /   O peration     | Website:  https://openfoam.org
    \\  /    A nd           | Version:  8
     \\/     M anipulation  |
\*---------------------------------------------------------------------------*/
FoamFile
{
    version     2.0;
    format      ascii;
    class       labelField;
    location    "0.6/lagrangian/reactingCloud1";
    object      origId;
}
// * * * * * * * * * * * * * * * * * * * * * * * * * * * * * * * * * * * * * //


119
(
66
74
75
76
77
78
79
67
68
207
72
73
210
221
224
81
82
83
79
84
85
86
87
88
38
37
40
89
36
90
229
91
243
232
92
71
246
74
70
234
75
65
93
94
95
44
63
96
97
98
248
244
99
100
61
101
229
60
247
81
253
32
102
103
104
105
106
107
59
108
109
110
111
113
94
355
114
115
354
116
266
58
117
118
119
120
121
122
123
124
125
126
92
251
127
89
128
129
130
131
277
285
132
133
134
135
111
136
137
138
139
292
283
267
90
88
272
298
47
)


// ************************************************************************* //
