/*--------------------------------*- C++ -*----------------------------------*\
  =========                 |
  \\      /  F ield         | OpenFOAM: The Open Source CFD Toolbox
   \\    /   O peration     | Website:  https://openfoam.org
    \\  /    A nd           | Version:  8
     \\/     M anipulation  |
\*---------------------------------------------------------------------------*/
FoamFile
{
    version     2.0;
    format      ascii;
    class       Cloud<basicReactingMultiphaseParcel>;
    location    "0.6/lagrangian/reactingCloud1";
    object      positions;
}
// * * * * * * * * * * * * * * * * * * * * * * * * * * * * * * * * * * * * * //

119
(
(0.119932532 0.3496419433 0.3938111084 0.1366144163) 745 202668 1
(0.3078300591 0.3809021411 0.001110303009 0.3101574968) 6804 19920 2
(0.447293998 0.4149961343 0.05554098716 0.08216888061) 9283 24843 2
(0.07841773026 0.1857712196 0.4220551425 0.3137559076) 8485 24844 2
(0.3900924529 0.003628664299 0.6037302054 0.002548677464) 9288 27189 2
(0.3204154458 0.1434694416 0.4393324637 0.0967826489) 10098 29471 1
(0.0007850901068 0.04224722707 0.7970691434 0.1598985395) 9276 27158 2
(0.07265292522 0.3131901891 0.1390529278 0.4751039579) 12431 36380 2
(0.1709189857 0.3128416765 0.43847014 0.07776919773) 12432 36380 2
(0.4723895163 0.1599790459 0.1854183183 0.1822131196) 3540 10374 2
(0.0098542296 0.2319710568 0.6043262716 0.153848442) 13324 36465 2
(0.2278691266 0.02097916353 0.4056534035 0.3454983064) 13382 39163 2
(0.07107041262 0.03199447513 0.2996536667 0.5972814455) 7295 21349 2
(0.6258754479 0.08179050403 0.1663374604 0.1259965878) 10123 29636 2
(0.07208756891 0.1335484032 0.3647185592 0.4296454686) 13371 39130 2
(0.2546986219 0.0005375127071 0.1337650474 0.610998818) 16085 46988 2
(0.301906404 0.1807840892 0.1069702167 0.41033929) 18007 52706 1
(0.4281261789 0.02299155386 0.2176414851 0.3312407822) 16925 49534 2
(0.3423452719 0.3685235338 0.1306245587 0.1585066356) 15365 44979 1
(0.3703211317 0.1417502871 0.3903759798 0.09755260148) 18036 52771 1
(0.02124330876 0.5608839612 0.2032046715 0.2146680586) 18866 55668 3
(0.3784937451 0.3636949547 0.08717515755 0.1706361427) 52580 161675 2
(0.1008347831 0.2529216535 0.4481754441 0.1980681192) 54391 163134 1
(0.1795579862 0.3977026164 0.01563628871 0.4071031087) 54393 163140 2
(0.2118596848 0.2283872877 0.2424500554 0.3173029722) 6993 18188 1
(0.4581876969 0.1181827616 0.2149052451 0.2087242963) 6993 18188 1
(0.6521213018 0.291561652 0.02563099824 0.0306860479) 6993 20483 1
(0.1994537965 0.1230656663 0.266010272 0.4114702652) 18896 55798 2
(0.5796766899 0.07806374473 0.3131631555 0.0290964099) 6208 18187 2
(0.1328567915 0.403982591 0.2901239386 0.1730366789) 54491 166456 2
(0.02182387196 0.3066104052 0.6247859509 0.04677977186) 13272 36311 2
(0.1828779795 0.5303490633 0.2072142779 0.07955867933) 54428 166320 1
(0.534364793 0.01183455602 0.4238982961 0.02990235496) 54570 166638 1
(0.2378997415 0.2519158093 0.2787958319 0.2313886173) 6157 18035 1
(0.05450912118 0.4940616749 0.1743571412 0.2770720627) 54429 166064 1
(0.2767299675 0.4471304283 0.2622126906 0.01392691358) 12727 37259 2
(0.1256338416 0.1624968741 0.5203760169 0.1914932673) 55815 169754 1
(0.1438929267 0.3992247045 0.1756562522 0.2812261166) 12727 37259 1
(0.1971888621 0.4607848592 0.1663373163 0.1756889624) 12726 37254 1
(0.2108315312 0.2208111042 0.05393710267 0.514420262) 7763 20417 1
(0.5948441388 0.1638527035 0.2232290988 0.01807405896) 13593 39791 1
(0.1175129714 0.05294950975 0.5713924464 0.2581450724) 11866 34739 2
(0.3088062878 0.1651015587 0.3642056067 0.1618865468) 55072 167915 2
(0.09424104494 0.06264272587 0.7233560265 0.1197602027) 55112 167722 2
(0.009108430799 0.01719440429 0.4068243332 0.5668728317) 55122 64555 1
(0.07468882515 0.270836446 0.2297441634 0.4247305655) 7817 20546 1
(0.2668688187 0.2361317244 0.2264526075 0.2705468494) 11897 34738 1
(0.1424353185 0.3118564963 0.1725907031 0.3731174822) 55573 169180 2
(0.4286904241 0.04584406154 0.4353514302 0.0901140842) 55115 168026 2
(0.7035867136 0.1047540827 0.1340487667 0.05761043705) 55109 168010 2
(0.04514751183 0.7128929663 0.05108090731 0.1908786146) 56072 67586 2
(0.4406270532 0.170876915 0.1350649259 0.2534311059) 6997 18200 1
(0.0598850136 0.6905230752 0.1453930716 0.1041988396) 55109 168008 2
(0.4140198514 0.2649451781 0.2904229276 0.03061204299) 54822 167280 2
(0.2799902373 0.228755531 0.2751639337 0.2160902981) 11897 34825 2
(0.1024789869 0.1735546258 0.7126697627 0.01129662466) 55109 168012 1
(0.2245280639 0.3572863568 0.2104917506 0.2076938286) 7736 22653 1
(0.4505287877 0.298933848 0.215394906 0.03514245832) 11896 34825 1
(0.6283144766 0.01112529796 0.003229529668 0.3573306958) 6213 15901 2
(0.5284900178 0.05885095272 0.1070435745 0.305615455) 15363 44881 1
(0.02139414166 0.4733249367 0.1468871337 0.3583937879) 27289 82365 1
(0.007836010058 0.004904776862 0.485978791 0.5012804221) 1544 4469 2
(0.04081301654 0.4902619627 0.2356355676 0.2332894532) 22322 67839 2
(0.4151723278 0.3147549383 0.1393187135 0.1307540204) 56382 67852 1
(0.5234161852 0.273081819 0.1678946199 0.0356073759) 56382 67852 1
(0.63251251 0.1797734175 0.05838222311 0.1293318494) 56382 67852 2
(0.5057733974 0.1907035935 0.1085098257 0.1950131834) 56383 171197 2
(0.7288266498 0.01019281148 0.07973313381 0.1812474049) 56389 71082 2
(0.3214525453 0.06163607724 0.6145762503 0.002335127156) 11037 32308 1
(0.2068449184 0.4670750681 0.2492742515 0.076805762) 56315 171028 1
(0.03934724847 0.4044830021 0.2495023676 0.3066673819) 23220 71094 1
(0.4785249242 0.1002414012 0.04489292295 0.3763407516) 23222 71109 1
(0.09525127811 0.2281986355 0.5775406112 0.09900947512) 23221 71103 2
(0.4597799276 0.1532291207 0.1913344482 0.1956565035) 23385 71847 2
(0.3609853279 0.1134472109 0.2463002517 0.2792672095) 18858 52596 1
(0.1678444654 0.5805816552 0.00134023725 0.2502336422) 15306 44805 1
(0.1842303445 0.1329903812 0.6717995573 0.01097971711) 57645 71108 1
(0.3412630928 0.2399498847 0.3486032838 0.07018373868) 58023 174969 2
(0.2829626165 0.3920685022 0.1756021513 0.1493667299) 15368 44988 1
(0.06675656187 0.2150851137 0.635042764 0.08311556044) 57659 71115 2
(0.2524022159 0.3907263346 0.3277687701 0.02910267951) 30170 95556 1
(0.07727599008 0.3401962422 0.5056190954 0.07690867228) 11067 32380 2
(0.08720613029 0.4848868152 0.2566403836 0.1712666709) 57655 71111 2
(0.253541036 0.1075884663 0.5220639292 0.1168065685) 58023 175216 2
(0.09645577118 0.2629300249 0.5045690656 0.1360451383) 57656 174385 2
(0.1265968102 0.1691971996 0.6121347568 0.09207123335) 57656 174388 2
(0.2702682549 0.4510572452 0.2048424006 0.07383209927) 58027 175216 2
(0.3797055057 0.3602744709 6.348920003e-05 0.2599565342) 57656 174387 1
(0.1536736351 0.2190419519 0.4546662875 0.1726181255) 58234 175474 1
(0.4182083954 0.008840400087 0.1540745837 0.4188766208) 57662 74344 1
(0.455150009 0.06088245008 0.1197771723 0.3641903687) 57676 74357 1
(0.2314691168 0.06008228285 0.1261022793 0.5823463211) 58027 158005 1
(0.3392290057 0.1491273538 0.2128494204 0.2987942201) 17114 50092 1
(0.05919701442 0.2462106689 0.190023752 0.5045685647) 24818 73491 3
(0.2194327233 0.0004576196032 0.007034659731 0.7730749974) 24216 74808 2
(0.06979641757 0.7007196813 0.03508432081 0.1943995803) 17145 50099 2
(0.03808275866 0.5158317763 0.366599423 0.07948604204) 24184 74660 1
(0.05142952579 0.1045657869 0.334208479 0.5097962084) 24248 74952 1
(0.3356588378 0.3147016652 0.08539615678 0.2642433402) 51070 157829 1
(0.04921449431 0.03612018711 0.751245059 0.1634202596) 58786 157388 1
(0.1376716928 0.5457795446 0.2955456228 0.02100313974) 34476 110206 2
(0.01531513405 0.151263895 0.2982728384 0.5351481325) 37895 117765 2
(0.1580089043 0.04934282508 0.1470428996 0.645605371) 58789 177037 1
(0.4772574305 0.2985326213 0.1418805455 0.08232940261) 58865 177170 2
(0.02284021119 0.3022885804 0.2441323922 0.4307388162) 58865 177176 2
(0.6792927773 0.03468787641 0.09619391796 0.1898254283) 58864 177176 2
(0.1317328201 0.4909340787 0.3137558778 0.06357722337) 56868 172425 2
(0.7845800736 0.06094861058 0.03067089971 0.1238004161) 58864 177176 2
(0.1770269502 0.1674356111 0.09453656064 0.5610008781) 51066 157821 1
(0.07459322382 0.2220132931 0.6023631123 0.1010303708) 51262 205368 2
(0.6847662567 0.2213521905 0.02935414139 0.06452741141) 58865 177176 2
(0.3597227014 0.1885567189 0.3793161983 0.0724043814) 40327 127239 2
(0.05985210832 0.5880643786 0.144306256 0.2077772571) 36947 117437 2
(0.199299302 0.03689645056 0.116568409 0.6472358384) 67271 197582 1
(0.1087665437 0.2103682905 0.3889327459 0.2919324199) 17145 50170 1
(0.320989526 0.04169027862 0.2352957583 0.402024437) 16264 47594 2
(0.06633305768 0.3512227206 0.1837367932 0.3987074285) 66942 102026 1
(0.01296688135 0.7299412244 0.01477973383 0.2423121604) 41215 129923 2
(0.1498516174 0.2559679986 0.06981487267 0.5243655113) 8616 203778 2
)


// ************************************************************************* //
