/*--------------------------------*- C++ -*----------------------------------*\
  =========                 |
  \\      /  F ield         | OpenFOAM: The Open Source CFD Toolbox
   \\    /   O peration     | Website:  https://openfoam.org
    \\  /    A nd           | Version:  8
     \\/     M anipulation  |
\*---------------------------------------------------------------------------*/
FoamFile
{
    version     2.0;
    format      ascii;
    class       scalarField;
    location    "0.6/lagrangian/reactingCloud1";
    object      T;
}
// * * * * * * * * * * * * * * * * * * * * * * * * * * * * * * * * * * * * * //


119
(
299.9999858
299.9999991
299.9999996
299.9999998
299.9999997
299.9999997
299.9999996
299.9999991
299.999999
300
299.999999
299.999999
300
300
300
299.999998
299.9999981
299.9999994
299.9999926
299.9999982
299.999998
299.999998
299.999998
299.999998
299.9999892
299.9999892
299.9999892
299.9999981
299.9999891
299.999998
300
299.9999979
300
299.9999993
299.9999974
299.9999933
300
299.9999935
299.9999931
299.9999993
299.9999935
299.9999925
299.9999963
299.9999965
299.9999965
299.9999905
299.9999922
299.999997
299.9999965
299.9999965
300
299.9999996
299.9999968
299.9999978
299.999992
299.999997
299.9999992
299.9999919
299.9999992
299.9999951
300
299.9999852
299.9999994
299.9999995
299.9999996
299.9999998
299.9999998
299.9999997
299.9999916
299.9999998
299.9999994
299.9999993
299.9999994
299.9999979
299.9999964
299.9999971
299.9999993
299.9999986
299.9999972
299.9999989
300
299.9999912
299.9999993
299.9999986
299.9999992
299.9999987
299.9999981
299.9999992
299.9999979
299.9999991
299.9999991
299.9999984
299.999997
300
299.9999984
299.9999957
299.9999986
299.9999978
299.9999981
299.9999982
300
300
299.9999977
299.9999971
299.9999969
299.9999968
299.9999907
299.9999968
299.9999981
299.999998
299.9999969
300
300
300
299.9999957
299.9999954
300
300
299.9999916
)


// ************************************************************************* //
