/*--------------------------------*- C++ -*----------------------------------*\
  =========                 |
  \\      /  F ield         | OpenFOAM: The Open Source CFD Toolbox
   \\    /   O peration     | Website:  https://openfoam.org
    \\  /    A nd           | Version:  8
     \\/     M anipulation  |
\*---------------------------------------------------------------------------*/
FoamFile
{
    version     2.0;
    format      ascii;
    class       vectorField;
    location    "0.6/lagrangian/reactingCloud1";
    object      U;
}
// * * * * * * * * * * * * * * * * * * * * * * * * * * * * * * * * * * * * * //


119
(
(-0.01600105949 0.07736303673 -1.771526517)
(0.100044443 -0.1519093595 -1.790633625)
(0.9121761982 0.003229351685 -1.524373456)
(1.155581223 0.008389435492 -1.698205525)
(1.321071717 -0.00715544785 -1.670486331)
(1.477064294 -0.008055643964 -1.592324117)
(-0.8366525201 0.03063412059 -1.704906872)
(-0.02404769227 -0.6478101901 -1.536368023)
(-0.01402976506 -0.6762528333 -1.567181407)
(-0.5818162595 -0.6277371595 -3.255161867)
(-0.005421671298 -0.6028385969 -1.533724525)
(-0.006458379576 -0.4833283223 -1.3929678)
(-0.521313252 -0.9248618536 -2.999873536)
(-0.8742521925 -0.1966022589 -3.108647773)
(-0.993856743 -0.4888508954 -2.915263877)
(0.4895889051 -0.07928489488 -1.340463381)
(0.3946861112 0.252937584 -1.155952441)
(-0.03496067061 -0.1273214099 -1.279121903)
(0.01791482762 -0.1203646851 -1.374356165)
(0.3933821002 0.3222974571 -1.137744509)
(0.4448090726 0.1898989435 -1.089236159)
(-0.005143193981 -0.1116685723 -1.012249204)
(-0.001589118562 0.2193836656 -0.9919950621)
(-0.001200811026 0.2555729992 -1.006141158)
(-0.004629259006 -0.2052184063 -1.7968064)
(-0.00551944224 -0.1981110928 -1.765822971)
(-0.004249323087 -0.2058837199 -1.777014356)
(0.4380616246 0.2902045806 -1.086494099)
(-0.006947729481 -0.1826180856 -1.817014816)
(-0.0006938194982 0.3792082925 -0.9977824676)
(-0.3329010463 -0.7646301695 -3.09566618)
(0.3592017162 0.3318651721 -0.9502669819)
(-0.7020768639 -0.7278538522 -2.709840954)
(-0.3031168979 -0.2141342198 -1.76196556)
(0.3166493358 0.2642992079 -0.8625507479)
(-0.1275738246 -0.2538083389 -1.517821008)
(-0.7088188705 -0.7998928899 -2.733395068)
(-0.1266289303 -0.2672454422 -1.552703122)
(-0.1603095222 -0.2620150441 -1.610238169)
(-0.2791393581 -0.1798563119 -1.554483481)
(-0.1144270126 -0.2490220011 -1.485061376)
(-0.1610850999 -0.2191924802 -1.557608818)
(0.05780152469 -0.05851292925 -0.8507134952)
(0.6619033355 -0.1427432944 -0.8588544781)
(0.7091081436 -0.1451897079 -0.8511406063)
(-0.003341499669 -0.1955000407 -1.885749484)
(-0.1731846203 -0.2055015274 -1.578590886)
(0.5183126635 0.2558681406 -0.7938189203)
(0.646845592 -0.1282000431 -0.832989962)
(0.5788177612 -0.1125520909 -0.8195901135)
(-0.5304398043 -0.5893477133 -2.851846994)
(-0.3702188197 -0.1848629632 -1.809348642)
(0.5760274126 -0.1018444123 -0.8012136129)
(-0.001602297362 -0.3665282879 -0.8451064194)
(-0.177739201 -0.1870002705 -1.536099032)
(0.6228964083 -0.1090716015 -0.7887111081)
(-0.1805535971 -0.1799395024 -1.485542653)
(-0.1974832088 -0.1847833335 -1.586443109)
(-0.3677115985 -0.1635401324 -1.942172374)
(-0.1038542619 -0.2259415629 -1.426361331)
(-0.5303137951 -1.052771026 -2.402034678)
(-0.06942620528 -0.1061714224 -1.660394809)
(-1.125293027 -0.002610187099 -0.7159114888)
(-0.9683355558 -0.005249527848 -0.7016537912)
(-0.9795902534 -0.003011668052 -0.6985773602)
(-1.005868775 0.001154395928 -0.6943094596)
(-0.9800241199 0.001823258532 -0.6839637771)
(-0.9109854952 0.001072542095 -0.668485528)
(-0.2278992694 -0.1719889246 -1.643908376)
(0.08891606061 -0.07278101539 -0.6554367147)
(-0.7021929284 0.002399107 -0.6363410401)
(-0.407555465 0.001310825323 -0.6004130635)
(-0.4151515952 0.0136291789 -0.6061663024)
(0.2235836898 0.3358176011 -0.5521265759)
(-0.002108104243 -0.4199556574 -1.185426762)
(-0.5312135537 -0.2178593751 -1.346922641)
(-0.3663836222 0.01639036917 -0.5743793224)
(0.1761395245 0.309450899 -0.5690104129)
(-0.5067452578 -0.128819272 -1.238019451)
(-0.2793391317 0.0141417822 -0.5558480688)
(-0.769342464 -0.2108731908 -2.48622487)
(-0.2205739755 -0.1450243679 -1.59658456)
(-0.3367555738 0.01682942632 -0.5491236092)
(0.1486472226 0.322262919 -0.5425022867)
(-0.3080592597 0.01954098417 -0.5235326526)
(-0.3908764474 0.01453117466 -0.5179471565)
(0.1926348875 0.2781940671 -0.5183177816)
(-0.2884964878 0.01842643287 -0.4992969508)
(0.2779793425 0.3351771583 -0.47623423)
(-0.2201150883 0.01504295159 -0.4725611259)
(0.07837903721 0.01253692709 -0.4625690294)
(0.1710949593 0.3019120369 -0.4382700601)
(-0.2566334522 -0.2917314471 -1.31329096)
(-0.0569360404 -0.8794746115 -2.641649581)
(0.1487247518 0.2999302721 -0.4134537181)
(-0.1755934401 -0.2282167402 -1.303084953)
(0.1139492046 0.2987833639 -0.4057205817)
(0.3233745226 0.3274562868 -0.352716262)
(0.1690091441 0.2713075359 -0.3527832051)
(0.09405141411 -0.1022813882 -0.336083285)
(-0.6867968202 -0.3353019676 -2.284815466)
(-0.9399631175 0.198571042 -2.094102619)
(0.08425271712 -0.1442352297 -0.3067048724)
(-1.532317193 -0.000105953949 -0.2898171391)
(-1.702012501 0.003479951417 -0.279346524)
(-1.827925223 0.004665684745 -0.2694692331)
(-0.002151049328 -0.5813703176 -0.7725365337)
(-1.97685319 0.00839344477 -0.25047527)
(0.08036663717 0.2402929953 -0.2324004438)
(0.1540266186 0.3228081078 -0.2143560882)
(-2.052789006 0.01258407615 -0.2256345877)
(-1.068340898 -0.6325631167 -1.758492613)
(-0.5781477909 -0.7965247534 -2.084582515)
(-0.265758796 -1.063747242 -2.165500019)
(-0.1909895216 -0.1811770697 -1.272854429)
(-0.1067562186 -0.1709051642 -1.347634365)
(-0.2130978972 -0.2845925048 -2.546417663)
(-1.112719734 0.1623068036 -1.777281156)
(-0.006651820596 -0.1707013158 -1.791050645)
)


// ************************************************************************* //
