/*--------------------------------*- C++ -*----------------------------------*\
  =========                 |
  \\      /  F ield         | OpenFOAM: The Open Source CFD Toolbox
   \\    /   O peration     | Website:  https://openfoam.org
    \\  /    A nd           | Version:  8
     \\/     M anipulation  |
\*---------------------------------------------------------------------------*/
FoamFile
{
    version     2.0;
    format      ascii;
    class       volScalarField;
    location    "0.5/wallFilmRegion";
    object      alpha;
}
// * * * * * * * * * * * * * * * * * * * * * * * * * * * * * * * * * * * * * //

dimensions      [0 0 0 0 0 0 0];

internalField   nonuniform List<scalar> 
1369
(
20.15888435
1.795796218
2.636060079
1.354381931
1.555410853
1.763329822
1.939742392
2.015906142
1.948605133
1.748366687
1.476571714
1.20369401
0.9765929167
0.8197185392
0.7652884908
0.91955812
1.569495973
2.914154482
3.634839131
2.595854452
2.194469616
2.300330486
2.507462902
2.593123259
2.084755802
1.563744185
1.261401102
1.297166911
1.518458281
1.524888295
1.2219641
1.24864871
0.849984154
1.162452541
1.417292439
1.42452346
1.182157401
0.9433131773
0.8268447015
0.8652697962
1.046000912
1.214170497
1.334230009
1.420305182
1.48958255
1.521743687
1.510313279
1.467756621
1.410287947
1.35174176
1.303662213
1.273742936
1.263630949
1.269355257
1.284148964
1.302556263
1.309785366
1.78341987
1.835449983
18.02710435
2.490836328
0.05478201333
0.05279502964
0.0471539344
0.04551268841
0.04580648423
0.04749624875
0.0494027354
0.05012305523
0.0485825315
0.0445507256
0.03897019684
0.03423483556
0.03456165522
0.04621752196
0.07558615599
0.1261994422
0.249095167
0.4243124607
0.115489748
0.03714430757
0.05389883924
0.09576563295
0.1369976976
0.01025755416
0.02081673991
0.1415282748
0.09908226051
0.0643493358
0.05064256539
0.02363353207
0.0102127387
0.01288838585
0.01807459867
0.04207694364
0.08639545028
0.08303043555
0.03685881457
0.01321512548
0.009226075062
0.009713328298
0.007234367054
0.02222858553
0.02464670229
0.02053896087
0.01527560688
0.01281427372
0.01455748289
0.01891212758
0.02225725183
0.0220778047
0.01897123077
0.01566236802
0.01420526448
0.01519516141
0.01801420299
0.02131595465
0.02460122602
0.02346843514
1.249416058
2.336295583
0.05306163803
0.04960990497
0.04244517106
0.04023652317
0.04067596718
0.04364484093
0.04858699405
0.05451211476
0.05991784296
0.06305264042
0.06300334217
0.06147793447
0.06463353453
0.0809564043
0.1135506513
0.1636853232
0.2712152872
0.370894487
0.1331288947
0.05693755228
0.07136269177
0.1024965615
0.1355010727
0.219685943
0.1270500822
0.2971635899
0.1368002713
0.07370357159
0.05232444864
0.02740254406
0.01045074173
0.01155596254
0.01824498404
0.06076891211
0.1555466571
0.1635512093
0.06859079803
0.01834200868
0.00895604189
0.006831494874
0.008150807371
0.02580911693
0.02935955243
0.02484521373
0.01877589648
0.01462885608
0.01509261201
0.02054408803
0.02784949657
0.03292437711
0.03340334106
0.0321260551
0.03231153707
0.03522303507
0.03959483821
0.0431424094
0.04722768696
0.04008303548
1.662573188
1.20011689
0.0452217457
0.04028314784
0.03439266042
0.03198045771
0.03250740726
0.03630268933
0.04377369316
0.0551118134
0.069584066
0.08499357227
0.0978868884
0.1051827112
0.1098216148
0.1194667774
0.135254209
0.1632966281
0.226756316
0.2438466677
0.116263608
0.06913634067
0.08190947398
0.1085689612
0.1238264593
0.1367073344
0.1726633574
0.3099592499
0.1271416064
0.05802400964
0.04185929315
0.02664569394
0.009439710584
0.009782685929
0.01586421349
0.06014606226
0.1724910026
0.1954538646
0.07718025913
0.01260662987
0.003393306808
0.00400610768
0.005694663873
0.0240841986
0.03034145509
0.02664556404
0.02088300506
0.01615988836
0.01511873605
0.01963960347
0.02835033989
0.03874338357
0.04216510028
0.04253308467
0.04398855297
0.04779618029
0.05183883502
0.05388842528
0.05424055111
0.04390089536
0.8471597319
1.228747129
0.04181830725
0.03670669757
0.0310911018
0.02977797963
0.03224932225
0.03933689711
0.05223309574
0.07192549018
0.09826341097
0.1292406525
0.1572788408
0.1720041223
0.16850138
0.1505641118
0.1300046129
0.1342198782
0.1733718479
0.172072065
0.1125461288
0.08904756674
0.1011822996
0.1248479148
0.1297915813
0.06843421848
0.7775956728
0.386181309
0.1336310536
0.05442945143
0.04306394761
0.03578970969
0.01103155716
0.00929056671
0.01683742106
0.05026834934
0.1428004226
0.1676619129
0.05651265192
0.005494018127
0.002631693433
0.003963247355
0.005422147068
0.02487651304
0.03213527297
0.02945118305
0.02445937509
0.01966742268
0.01737287918
0.02060733835
0.03061553555
0.05440457558
0.06464387282
0.07030129263
0.07510232117
0.07773767633
0.07655743212
0.07266720027
0.06810691439
0.05223243238
0.8706608163
1.269789312
0.04091185646
0.03615891806
0.03149082172
0.03270234083
0.03926262536
0.0522186577
0.07266519121
0.100937372
0.1358868526
0.1713422396
0.1974574668
0.2056437497
0.1875572199
0.1440236422
0.1016482826
0.09758734829
0.1256405961
0.1323005932
0.1127604218
0.1061022747
0.1189946192
0.1403541266
0.1438347433
0.06740071831
0.1638729271
0.388867315
0.1529277456
0.06850282759
0.05223324283
0.06393090248
0.01988121465
0.01071380773
0.02350654855
0.03194491893
0.07605228067
0.0865166079
0.003896011396
0.002746094552
0.003529754424
0.004847371897
0.006198357871
0.02616551767
0.03305244316
0.03115308564
0.02714143518
0.02296042613
0.02002449905
0.02128731137
0.03036870356
0.07821473795
0.09455737879
0.1025449217
0.1106453525
0.1084090602
0.09692282835
0.08559919026
0.07639811705
0.05699610106
0.8755348508
1.337882247
0.04353362337
0.03984926241
0.03704783912
0.04248075108
0.05494725857
0.07459554213
0.1010271901
0.1320962395
0.1606090008
0.1785554155
0.1831125656
0.1724222013
0.1439392971
0.1024893538
0.07124575477
0.07008567837
0.09193991197
0.105957563
0.1073652517
0.1112821968
0.125734814
0.1471846656
0.1547293418
0.09443072263
0.1503343497
0.3523864771
0.1518750389
0.09354692185
0.06554467284
0.1314990974
0.05883926009
0.01814207856
0.03929810092
0.01896176487
0.03640288854
0.00561399591
0.004493578814
0.00543283451
0.006732331504
0.008281997619
0.01028835753
0.02688807503
0.03342519609
0.03212946591
0.02894281091
0.02563879729
0.02297289173
0.02247797986
0.02802162706
0.1064533073
0.1214501861
0.1197739364
0.1216039468
0.1137823279
0.09842423273
0.08577859845
0.07647797218
0.05754587115
0.8672434324
1.413695093
0.05012574388
0.0488344374
0.04888268072
0.05915657139
0.07662784207
0.0998223745
0.1264020181
0.1486013969
0.159197486
0.1577501987
0.1456309617
0.1241545237
0.09544337657
0.06990064524
0.05488266838
0.05113674983
0.06461009033
0.07646977109
0.0830754751
0.09248489631
0.1108906933
0.1387422692
0.162968385
0.1579073968
0.2254293966
0.3580329772
0.1538300438
0.1029033826
0.0743903971
0.119304149
0.1474100537
0.06019307297
0.0489318055
0.01065242255
0.005986423512
0.006116844586
0.007673524875
0.0102616673
0.01298147735
0.01480585961
0.01366184293
0.02592103113
0.03351882835
0.03278392819
0.03013985418
0.02756197387
0.02633607043
0.02591323212
0.02648505916
0.1384580207
0.14281329
0.1166534846
0.09698196856
0.08591850931
0.0792859153
0.07454780108
0.07056075577
0.05554519344
0.8498936872
1.470808319
0.05952819168
0.06256694051
0.06553340404
0.07840327402
0.09630712178
0.116895529
0.1336826255
0.1402881562
0.1378384129
0.1285856904
0.1147643753
0.09788320493
0.08082066727
0.06832922007
0.05511586697
0.03371346662
0.03382500529
0.03797873375
0.04058783134
0.04891389876
0.07558436228
0.1256293444
0.1822508217
0.222394859
0.2713868897
0.4002095865
0.1786842233
0.1193485469
0.08303660594
0.06378204524
0.07701031491
0.07723741385
0.03586814428
0.009658571177
0.009113565536
0.009096625807
0.01187498058
0.01569189003
0.01746019674
0.0165312917
0.01297494151
0.02535620778
0.03372444424
0.03342580935
0.03108625541
0.02892719497
0.03119147709
0.03559747567
0.02981804824
0.1865054409
0.1788775815
0.1303565059
0.09218727176
0.07133471017
0.06448185471
0.06435278745
0.06495336261
0.05376324468
0.8327348764
1.487568792
0.06893339099
0.07796351532
0.08244607437
0.09358341943
0.1061687254
0.1158279949
0.1174005257
0.1128543237
0.1050669717
0.09571059595
0.08666966437
0.08021013856
0.07937766378
0.08616764093
0.07799476737
0.02362468304
0.01081078542
0.006870107698
0.00345862646
0.006147405085
0.06021459689
0.1500359476
0.1921104748
0.2089192729
0.2576750942
0.3895885366
0.1801663071
0.1192495087
0.08085079839
0.05907752593
0.06794937616
0.0896381222
0.0538557197
0.01057352419
0.01611692124
0.01424307193
0.01755325743
0.02124905641
0.02021464475
0.01690210309
0.01275420515
0.02514316278
0.03410299083
0.03421736626
0.03207540102
0.03012915518
0.03958610454
0.0606535974
0.04171524254
0.2655910775
0.2501267667
0.1776016616
0.1222197675
0.08895510029
0.07219562031
0.06614123072
0.06470430858
0.05394535399
0.8220838648
1.469587999
0.07590353589
0.09155689186
0.0960436751
0.102217538
0.1043435887
0.09947228727
0.0907022485
0.08160844086
0.07312843814
0.06582121202
0.06068084929
0.0599951894
0.06960556972
0.1095257466
0.1394381574
0.02685821521
0.008960005772
0.004974414065
0.00177362729
0.00290759534
0.06334794156
0.1274679677
0.1908434634
0.0303073741
0.02898022087
0.1460650364
0.01446823703
0.006147064245
0.003454974479
0.003650086475
0.04340112435
0.1055320044
0.133007972
0.1793439886
0.04311238618
0.02701904448
0.02624227645
0.02688275963
0.02247643885
0.0176910663
0.01333357633
0.02497264996
0.03460939068
0.03521172816
0.03329071407
0.03153425657
0.05096324489
0.1071790554
0.06699625228
0.3698835915
0.3498312627
0.249094127
0.1725884647
0.1253420075
0.09594007253
0.07806386207
0.06898810484
0.05545719159
0.8196414204
1.450514964
0.08020702507
0.1027030236
0.1075427879
0.1063473133
0.09552072473
0.08097599077
0.06853241157
0.05876960806
0.0511372232
0.0451250137
0.04069122211
0.03898555544
0.04523180208
0.1048293206
0.2415604563
0.03221506997
0.008473731106
0.004691653365
0.00136886507
0.002252385891
0.1442686883
0.2899453948
0.5680278453
0.03822836289
0.03798948154
0.1503108634
0.01854536739
0.005665695828
0.002419769338
0.001906328737
0.04401715732
0.1246817163
0.185130056
0.3717789767
0.1733501975
0.06121067502
0.03940192886
0.03228436867
0.02464925241
0.01882884635
0.01420261854
0.02486390918
0.03512906761
0.03630509293
0.03473906497
0.03319675077
0.05368694629
0.1343444318
0.0875345028
0.4041623119
0.3764341402
0.2697864961
0.1909122471
0.1422327397
0.1091052153
0.08511845715
0.07098106706
0.05557739101
0.8247713432
0.05396539657
0.04446991657
0.03744904903
0.03187807574
0.02711085914
0.02296324222
0.0202641872
0.06398516351
0.3331172853
0.0361677698
0.007808995791
0.004528380986
0.001196672309
0.001572846521
0.2044443623
0.2121741541
0.2620140717
0.02937256137
0.04022817116
0.1378093569
0.0183754762
0.001992426636
0.0004590063415
0.0009482189475
0.04500220353
0.1400489062
0.2016540205
0.08738804851
0.3694483398
0.142071959
0.05817568066
0.03783035113
0.0270084666
0.02035667336
0.015312296
0.0246276536
0.03529236806
0.03712376133
0.03613931987
0.03473943619
0.03368595507
0.03461130149
0.04371569856
0.1189190768
0.1029630463
0.06572963643
0.04865242247
0.04914041501
0.05415058903
0.05772508642
0.05947996561
0.05138072673
0.8384976033
0.01855498166
0.01448770614
0.0101185906
0.03661768919
0.3200692093
0.03475344105
0.006683491317
0.004227916638
0.001026992876
0.0008276392836
0.1488822647
0.1139479035
0.07912307085
0.03515389862
0.04194006572
0.08956262762
0.04242422188
0.01587793793
0.001570610326
0.001544528513
0.05273513375
0.1358514268
0.09530108401
0.1034379805
0.5380817779
0.3255667538
0.08547008787
0.04419194266
0.02927586374
0.02204719628
0.01637318128
0.02361871964
0.03424373503
0.03680248793
0.03667410949
0.03607137691
0.03574002243
0.03574955832
0.04331395413
0.137268896
0.1323113212
0.09716830155
0.07644710302
0.066631008
0.06166217785
0.05822062342
0.05725969379
0.04966711723
0.8662296426
0.009791250386
0.0217275245
0.2029050819
0.02541031545
0.005039246067
0.003694024563
0.0007937695299
0.0002011971813
0.000686838137
0.004392424715
0.1444195312
0.1063043391
0.006854330194
0.02226750303
0.0168286908
0.003268399588
0.001206315545
0.0006266805582
0.05369026037
0.09059251498
0.06548665764
0.1190046088
0.5398850558
0.5870230685
0.127543638
0.05009317451
0.0298267803
0.02279019308
0.01631840586
0.02040937127
0.03009717747
0.03330310606
0.0341863229
0.0346890524
0.03550253816
0.03650048825
0.04097733576
0.1042902327
0.1173037547
0.09938056857
0.08520755637
0.07585928756
0.06610826263
0.05761295655
0.05558502636
0.04950530796
0.9088614165
0.003018819394
0.002863288363
0.0005742195206
9.625084439e-05
0.000212686613
0.001047024184
0.168730379
0.2031811799
0.06245154528
0.02641102206
0.01128716913
0.001672992664
0.001681042012
0.001452219538
0.03816299938
0.06657245949
0.06479260179
0.1100480241
0.2639214885
0.6244794779
0.09536377577
0.05242445397
0.02592534209
0.02022583374
0.01269591527
0.01225567063
0.01845393044
0.02148404274
0.02300729418
0.02439252851
0.02672408239
0.02929993877
0.03136257453
0.04245245393
0.05116000801
0.05715564224
0.0625702349
0.06308518528
0.05671696853
0.05096461971
0.05320382032
0.05061299035
0.9563683909
0.0003819136849
3.114681853e-05
5.899408434e-05
0.0002850419412
0.1101334856
0.2565484861
0.2272041973
0.1199667258
0.04479402982
0.009332595847
0.00268242682
0.0004479431159
0.01847094277
0.05764701257
0.04837921649
0.02543086646
0.009264758077
0.0003140349093
0.004329996171
0.1528253269
0.03662886335
0.0508578631
0.04492778363
0.08419880861
0.08980876353
0.06006267393
0.03983290169
0.02831628592
0.02272718246
0.01551293246
0.01076963041
0.01225497636
0.0206156271
0.02599199639
0.02856943549
0.03097590936
0.0345514513
0.04002480078
0.04976506678
0.05039470818
0.9798837653
0.04710486236
0.1976075426
0.2894959673
0.2112182485
0.08949076187
0.01761909525
0.004107119702
1.448074547e-05
0.006103428193
0.0487118185
0.05725258786
0.02619212698
0.006131855095
1.270447588e-05
1.072251946e-10
5.832075195e-06
0.002837919726
0.005028073827
0.01576479724
0.4002384149
0.3958284262
0.2211195699
0.1078019928
0.06270664446
0.08373250842
0.1465504958
0.244272066
0.1555607929
0.06096940407
0.03558180041
0.02891850344
0.02934253855
0.03265728033
0.03767518303
0.04611522735
0.04493525274
0.9429245025
0.1733754861
0.1706159019
0.08257893799
0.01417649309
0.007041252227
1.468177123e-07
0.0005871609788
0.02201555049
0.06183143935
0.03942211327
0.009019679945
9.268499128e-08
6.007485562e-10
2.927552942e-12
1.689736071e-06
0.002784612305
0.009542873734
0.1511166118
0.2103608761
0.209977737
0.1745089766
0.4510077404
0.4421577305
0.1824816511
0.05061447328
0.02205708548
0.02208886121
0.02399064579
0.02654331871
0.02872614391
0.0305311357
0.03262818047
0.03681776768
0.03267827002
0.8426932185
0.1486768141
0.05573825588
0.005477271205
0.01904969421
2.001608822e-05
0.0002117878264
0.003212974406
0.03681057554
0.0579500192
0.0201366052
0.0001110095031
0.0004177981959
0.0002221849467
2.152342197e-05
0.003590849528
0.008680629951
0.1002782043
0.129280676
0.1275279041
0.2232553786
0.04156252253
0.0009221035414
0.008680650274
0.01347260093
0.03151025134
0.03998420322
0.03436348807
0.03067512469
0.02791521146
0.02547529973
0.02402556388
0.02477650327
0.02005472404
0.728567383
0.1692097143
0.04422849141
0.01083335092
0.03206513657
0.02366082326
0.0210464728
0.01882381613
0.02213818553
0.2070180875
0.03559042511
0.01483079759
0.01532186779
0.01440565647
0.006491116028
0.008601799558
0.01294610095
0.08430458672
0.09936646002
0.0970060228
0.2032419318
0.01595514458
0.000652125297
0.01079003532
0.02340480237
0.08366624884
0.1123017652
0.07629214549
0.04211504708
0.02566274914
0.018284584
0.01504484537
0.01473344034
0.01155163724
0.6251445692
0.04598053696
0.01866656363
0.02643172426
0.02206219526
0.0199316581
0.0211976597
0.02447582458
0.02890579802
0.03797739559
0.04187040273
0.04724157883
0.05556417918
0.05889675206
0.04416000397
0.03945767938
0.09355847257
0.09075265207
0.08456616095
0.1807908194
0.05172890483
0.01393792532
0.03121466342
0.04993009206
0.1453561937
0.1933504405
0.1347715174
0.05610969294
0.0209212954
0.01116377977
0.008617012691
0.008661129418
0.007068832063
0.5184410338
0.08046155574
0.04436420915
0.03200392042
0.02328152101
0.01822387665
0.01585095334
0.01591868862
0.01781969596
0.02018328361
0.02314132776
0.02818823234
0.03727913947
0.04930173908
0.05972051251
0.0720264799
0.1222980721
0.1049594664
0.08358403622
0.1682075579
0.07381429372
0.02849230649
0.1355283434
0.1297303111
0.1629122497
0.1907943862
0.1506609928
0.07179300792
0.0215059737
0.007507583776
0.005548793979
0.00631694249
0.005708831885
0.4393747878
0.125401176
0.09983965458
0.07781461972
0.06307658576
0.05325997161
0.04613999305
0.04027687737
0.03578929864
0.03335995169
0.03265290354
0.03621973922
0.04563991694
0.04875655456
0.04535131098
0.04411955583
0.1347059651
0.116190756
0.08427248764
0.1275396611
0.06759832215
0.03967214707
0.2195516939
0.1428313961
0.1327214143
0.1587317041
0.1517022454
0.1000258302
0.04413399973
0.01762889662
0.0125212435
0.01293708259
0.01024266835
0.5455796151
0.06742769027
0.06445764604
0.05153858426
0.0394290791
0.03099285601
0.02634407146
0.02560491857
0.02758344614
0.0271419134
0.03590512735
0.05916699086
0.04474894823
0.01702888342
0.005365031047
0.06180738323
0.07288797295
0.06475795288
0.08183427719
0.05138380557
0.06866311116
0.2342722126
0.1049441447
0.107861622
0.1398849278
0.1568209593
0.1347598288
0.08311000748
0.04162620453
0.02580007126
0.02237615385
0.01345087904
1.179390174
0.05584698695
0.01444242205
0.009907873122
0.009034373358
0.009897769054
0.013262551
0.02223973527
0.00908951328
0.01374326529
0.02398947567
0.0001679812997
4.115150138e-05
1.988405245e-05
1.697774434e-05
0.03492305785
0.042225837
0.05218327356
0.04741111145
0.3692517005
0.2024383242
0.1951279553
0.1058370637
0.1310615561
0.15803777
0.1658420049
0.1379846012
0.0830424127
0.04505230575
0.03413823189
0.02320885224
1.436738904
0.0106687248
0.006722642544
0.006169255722
0.00634961197
0.007111813338
0.01063448497
0.02510614981
0.003764997381
0.002815803099
0.002419653765
0.000642349652
1.002663549e-06
8.723646848e-08
8.851568469e-09
0.01973230823
0.02696810695
0.03655821472
0.08622230294
0.566653407
0.03946758045
0.01366738996
0.05529384329
0.1118788754
0.1481453924
0.1682810312
0.1818500524
0.1906455796
0.1939720964
0.2489149511
0.3218006496
3.970369756
0.002794837305
0.002622391333
0.002662012988
0.002469574203
0.002549491936
0.004490232793
0.01445933078
0.005558262894
0.007222018586
0.009795827511
0.007365833983
3.192517614e-05
1.669048788e-06
9.152141733e-08
0.003484135436
0.01547353823
0.04082717807
0.3085936832
0.2679105995
0.03061929506
0.01046716701
0.05372748732
0.1175959123
0.1533525745
0.1619732291
0.1620221371
0.1625978747
0.157575077
0.1627177805
0.1586909832
3.827713057
0.001640894133
2.798821711e-07
0.001176680449
0.02060500155
0.02015190863
0.03064546396
0.006537453955
0.001160358179
0.0002129997472
0.0001672048843
0.00950989351
0.03401878785
0.05911699915
0.06805083562
0.002069339899
0.000383846523
0.02890755277
0.06508290167
0.08226969859
0.07863811174
0.0645793466
0.04584011354
0.02888023219
0.01870960428
0.01167658182
2.048912186
0.2107249736
0.001250826847
0.05386627646
0.03912322436
0.01113276869
0.04756082193
0.04162101631
0.009368786154
0.001842547053
0.000376104057
0.004643558887
0.002668763469
0.001561242722
0.01430172547
0.001061679132
0.0004139457668
0.02291599005
0.05122005392
0.06410503583
0.06110686061
0.05022249552
0.03736714766
0.03101091475
0.03344633699
0.02961450641
1.060617307
)
;

boundaryField
{
    walls
    {
        type            zeroGradient;
    }
    wallFilmFace_top
    {
        type            zeroGradient;
    }
    region0_to_wallFilmRegion_wallFilmFace
    {
        type            zeroGradient;
    }
    mirrorFace_top
    {
        type            zeroGradient;
    }
    region0_to_wallFilmRegion_mirrorFace
    {
        type            zeroGradient;
    }
    procBoundary0to1
    {
        type            processor;
        value           nonuniform List<scalar> 
52
(
1.459209189
0.0824423404
0.1119472506
0.1156665656
0.1052585327
0.08544882852
0.06728913905
0.06728913905
0.04240048331
0.03353692069
0.02733043266
0.02262259229
0.02262259229
0.01322497949
0.01153204821
0.01153204821
0.01316064236
0.01375089997
0.06273579452
0.010820297
0.010820297
0.00109788366
0.0016825964
0.0016825964
0.001928666496
0.0003125083178
0.0002450410174
0.0005127263837
0.0005127263837
0.03735088618
0.08716300106
0.08716300106
0.1813105372
0.1813105372
0.2513415979
0.1192441531
0.1192441531
0.102669701
0.09068787068
0.05390815851
0.05390815851
0.09479527932
0.09479527932
0.02397389021
0.006376542446
2.983170396e-05
4.739431566e-08
4.564632524e-08
4.668658662e-08
6.74372723e-08
6.74372723e-08
2.005298772e-05
)
;
    }
    procBoundary0to2
    {
        type            processor;
        value           nonuniform List<scalar> 
26
(
0.02973157394
0.007502334557
0.05721210524
0.02017434825
0.003276009851
0.05498659745
0.06392813465
0.03068252492
0.007335209858
0.001626210082
0.001757636176
0.0006242049315
0.0002165666327
8.683358445e-05
6.658275778e-05
0.0001057163723
0.01888787385
0.04271442849
0.05373065747
0.04889322751
0.03905453297
0.02880088409
0.03201891726
0.04628502464
0.05418873512
0.9395021008
)
;
    }
}


// ************************************************************************* //
