/*--------------------------------*- C++ -*----------------------------------*\
  =========                 |
  \\      /  F ield         | OpenFOAM: The Open Source CFD Toolbox
   \\    /   O peration     | Website:  https://openfoam.org
    \\  /    A nd           | Version:  8
     \\/     M anipulation  |
\*---------------------------------------------------------------------------*/
FoamFile
{
    version     2.0;
    format      ascii;
    class       volScalarField;
    location    "0.5/wallFilmRegion";
    object      T;
}
// * * * * * * * * * * * * * * * * * * * * * * * * * * * * * * * * * * * * * //

dimensions      [0 0 0 1 0 0 0];

internalField   nonuniform List<scalar> 
1369
(
300.0000015
300.0000018
300.0000017
300.0000016
300.0000015
300.0000014
300.0000013
300.0000012
300.0000011
300.0000011
300.000001
300.000001
300.000001
300.0000011
300.0000013
300.0000015
300.0000016
300.0000016
300.0000016
300.0000014
300.0000014
300.0000014
300.0000014
300.0000014
300.0000013
300.000001
300.0000009
300.0000018
300.0000017
300.0000015
300.000001
300.0000007
300.0000008
300.0000006
300.0000007
300.0000008
300.0000011
300.0000013
300.0000017
300.0000023
300.0000028
300.0000027
300.0000024
300.0000022
300.0000021
300.000002
300.000002
300.0000019
300.0000018
300.0000017
300.0000016
300.0000015
300.0000014
300.0000014
300.0000013
300.0000013
300.0000014
300.0000014
300.0000015
300.0000021
300.000002
300.0000028
300.0000026
300.0000024
300.0000023
300.0000021
300.000002
300.0000019
300.0000019
300.0000019
300.0000019
300.0000021
300.0000023
300.0000025
300.0000025
300.0000024
300.0000023
300.0000022
300.0000022
300.0000025
300.0000033
300.0000023
300.0000013
300.0000007
300.0000034
300.0000015
300.0000011
300.000002
300.0000023
300.0000023
300.0000027
300.0000041
300.0000034
300.000003
300.0000022
300.0000029
300.0000042
300.0000064
300.000013
300.0000284
300.000025
300.0000104
300.0000012
300.0000015
300.0000031
300.0000061
300.0000089
300.0000091
300.0000077
300.0000068
300.0000066
300.0000069
300.0000075
300.0000078
300.0000075
300.0000068
300.0000062
300.0000058
300.0000056
300.0000028
300.0000021
300.000003
300.0000029
300.0000028
300.0000027
300.0000026
300.0000024
300.0000023
300.0000021
300.000002
300.0000019
300.000002
300.000002
300.0000022
300.0000022
300.0000022
300.0000023
300.0000023
300.0000023
300.0000025
300.0000026
300.0000017
300.000001
300.0000004
299.9999997
300.0000011
300.0000011
300.0000017
300.0000021
300.0000022
300.0000027
300.0000045
300.000004
300.0000038
300.0000024
300.0000031
300.0000043
300.0000065
300.0000143
300.000036
300.0000259
300.0000075
300.0000003
300.0000005
300.0000016
300.0000037
300.0000066
300.000008
300.0000072
300.0000062
300.0000058
300.0000059
300.0000062
300.0000064
300.0000062
300.0000058
300.0000055
300.0000053
300.0000053
300.0000029
300.0000022
300.0000033
300.0000034
300.0000034
300.0000034
300.0000032
300.000003
300.0000027
300.0000024
300.0000021
300.0000019
300.0000018
300.0000018
300.0000018
300.000002
300.0000021
300.0000023
300.0000023
300.0000023
300.0000023
300.0000019
300.0000012
300.0000007
300.0000004
299.9999996
299.9999997
300.0000007
300.0000014
300.0000019
300.0000022
300.0000026
300.0000049
300.0000047
300.0000052
300.0000032
300.0000036
300.0000048
300.0000071
300.0000193
300.0000561
300.0000224
300.0000062
299.9999998
300
300.0000008
300.0000023
300.0000046
300.0000067
300.0000066
300.0000057
300.000005
300.0000049
300.000005
300.000005
300.000005
300.0000048
300.0000048
300.0000047
300.0000048
300.000003
300.0000022
300.0000038
300.0000039
300.000004
300.000004
300.0000037
300.0000032
300.0000027
300.0000023
300.0000019
300.0000017
300.0000016
300.0000016
300.0000016
300.0000018
300.000002
300.0000023
300.0000023
300.0000022
300.0000019
300.0000013
300.0000008
300.0000005
300.0000003
300.0000007
299.9999976
300.0000005
300.0000011
300.0000018
300.0000021
300.0000023
300.0000045
300.0000051
300.0000071
300.0000049
300.0000048
300.0000059
300.000009
300.0000328
300.0000502
300.0000191
300.000006
299.9999996
299.9999997
300.0000003
300.0000014
300.0000032
300.0000054
300.0000061
300.0000053
300.0000042
300.0000041
300.0000042
300.0000042
300.0000042
300.0000042
300.0000042
300.0000043
300.0000044
300.0000029
300.0000022
300.0000041
300.0000044
300.0000045
300.0000043
300.0000037
300.0000031
300.0000025
300.000002
300.0000017
300.0000015
300.0000014
300.0000014
300.0000015
300.0000017
300.000002
300.0000023
300.0000022
300.0000019
300.0000015
300.000001
300.0000007
300.0000004
300.0000002
300.0000008
300.0000005
300.0000003
300.0000009
300.0000016
300.000002
300.000002
300.0000032
300.0000048
300.0000092
300.0000084
300.0000073
300.0000085
300.0000532
300.0000413
300.0000285
300.0000138
300.0000054
299.9999994
299.9999995
300
300.0000008
300.0000022
300.000004
300.0000053
300.0000052
300.0000032
300.0000034
300.0000036
300.0000038
300.0000038
300.0000039
300.0000039
300.000004
300.0000041
300.0000028
300.0000022
300.0000042
300.0000046
300.0000046
300.000004
300.0000033
300.0000026
300.0000021
300.0000017
300.0000015
300.0000013
300.0000013
300.0000013
300.0000014
300.0000017
300.000002
300.0000023
300.0000021
300.0000016
300.0000012
300.0000008
300.0000006
300.0000004
300.0000002
300.0000007
300.0000005
300.0000002
300.0000006
300.0000011
300.0000018
300.0000017
300.0000021
300.0000035
300.0000109
300.0000139
300.0000112
300.0000392
300.0000283
300.0000199
300.0000127
300.0000073
300.0000036
299.9999994
299.9999994
299.9999997
300.0000003
300.0000014
300.0000028
300.0000043
300.000005
300.0000019
300.0000023
300.0000031
300.0000035
300.0000036
300.0000037
300.0000037
300.0000037
300.0000038
300.0000027
300.0000021
300.0000041
300.0000044
300.0000041
300.0000035
300.0000028
300.0000022
300.0000018
300.0000015
300.0000013
300.0000012
300.0000011
300.0000012
300.0000014
300.0000017
300.0000021
300.0000025
300.0000021
300.0000016
300.0000012
300.0000009
300.0000007
300.0000005
300.0000003
300.0000005
300.0000003
300.0000001
300.0000003
300.0000007
300.0000014
300.0000018
300.0000017
300.0000023
300.0000127
300.0000241
300.0000273
300.0000218
300.0000153
300.00001
300.0000061
300.0000035
300.000002
299.9999993
299.9999994
299.9999996
300
300.0000008
300.0000018
300.0000031
300.0000044
300.0000009
300.0000012
300.000002
300.0000029
300.0000035
300.0000036
300.0000036
300.0000036
300.0000037
300.0000026
300.0000021
300.0000039
300.0000039
300.0000035
300.0000029
300.0000023
300.0000018
300.0000015
300.0000013
300.0000011
300.0000011
300.0000011
300.0000011
300.0000013
300.0000015
300.000002
300.0000032
300.0000031
300.0000025
300.000002
300.0000017
300.0000011
300.0000007
300.0000004
300.0000003
300.0000001
300
300.0000001
300.0000003
300.0000008
300.0000018
300.0000021
300.0000022
300.0000116
300.0000219
300.0000166
300.0000125
300.0000087
300.0000057
300.0000034
300.000002
300.0000013
299.9999994
299.9999994
299.9999995
299.9999998
300.0000003
300.0000011
300.000002
300.0000031
300.0000004
300.0000005
300.0000009
300.0000018
300.0000028
300.0000035
300.0000036
300.0000036
300.0000036
300.0000024
300.000002
300.0000036
300.0000034
300.000003
300.0000024
300.0000019
300.0000016
300.0000013
300.0000012
300.0000011
300.000001
300.000001
300.0000011
300.0000012
300.0000013
300.0000016
300.0000039
300.0000067
300.0000097
300.0000155
300.0000131
300.0000019
300.0000009
300.0000004
300.0000003
300.0000001
300
300.0000001
300.0000003
300.0000006
300.0000015
300.0000022
300.0000023
300.0000062
300.0000163
300.0000085
300.0000067
300.0000052
300.0000034
300.000002
300.0000013
300.0000011
299.9999995
299.9999994
299.9999995
299.9999997
300.0000001
300.0000006
300.0000011
300.0000016
300.0000001
300.0000002
300.0000004
300.0000009
300.0000018
300.0000028
300.0000034
300.0000035
300.0000036
300.0000023
300.0000019
300.0000033
300.0000031
300.0000026
300.0000021
300.0000017
300.0000014
300.0000012
300.0000011
300.0000011
300.0000011
300.0000012
300.0000012
300.0000012
300.0000011
300.0000013
300.0000038
300.0000076
300.0000116
300.0000224
300.0000234
300.0000008
300.0000008
300.0000005
300.0000025
300.000003
300.0000002
300.0000023
300.0000074
300.0000154
300.0000218
300.0000031
300.0000023
300.0000037
300.0000046
300.0000038
300.0000031
300.0000031
300.000002
300.0000012
300.0000009
300.0000009
299.9999995
299.9999994
299.9999995
299.9999996
299.9999999
300.0000002
300.0000006
300.0000005
300
300.0000001
300.0000002
300.0000005
300.0000011
300.0000022
300.0000031
300.0000035
300.0000036
300.0000022
300.0000019
300.0000031
300.0000027
300.0000023
300.0000019
300.0000015
300.0000013
300.0000012
300.0000012
300.0000013
300.0000013
300.0000014
300.0000015
300.0000014
300.0000011
300.000001
300.0000037
300.0000082
300.0000125
300.0000265
300.000027
299.9999996
299.9999996
300
300.0000012
300.0000018
300.0000002
300.0000026
300.0000082
300.0000175
300.0000352
300.0000033
300.0000023
300.0000032
300.0000044
300.0000016
300.0000009
300.0000018
300.0000011
300.0000007
300.0000006
300.0000007
299.9999995
299.9999994
299.9999994
299.9999995
299.9999997
299.9999999
300.0000002
300.0000001
300
300
300.0000001
300.0000003
300.0000009
300.0000019
300.000003
300.0000035
300.0000036
300.0000021
300.0000014
300.0000014
300.0000015
300.0000017
300.0000019
300.0000021
300.0000021
300.0000012
300.0000009
300.0000037
300.0000089
300.0000133
300.00003
300.0000335
299.999999
299.9999986
299.9999987
300.0000005
300.000001
300.0000006
300.0000058
300.0000332
300.0000968
300.0000893
300.0000034
300.0000029
300.0000039
300.0000004
299.9999977
299.9999995
300.0000008
300.0000004
300.0000002
300.0000003
300.0000005
299.9999995
299.9999993
299.9999994
299.9999994
299.9999995
299.9999996
299.9999997
300.0000001
300.0000002
300.0000003
300.0000009
300.0000022
300.0000034
300.000004
300.000004
300.0000039
300.0000038
300.0000021
300.0000025
300.000003
300.0000035
300.0000016
300.0000009
300.0000039
300.00001
300.0000144
300.0000347
300.0000501
299.9999991
299.9999989
299.9999983
300
300.0000003
300.0000009
300.0000038
300.0000249
300.0000691
300.0001104
300.0000056
300.0000052
300.0000052
299.9999986
299.9999978
299.9999989
300.0000001
299.9999999
300
300.0000001
300.0000003
299.9999995
299.9999993
299.9999993
299.9999994
299.9999994
299.9999995
299.9999996
299.9999997
300.0000001
300.0000004
300.000001
300.000002
300.000003
300.0000038
300.0000041
300.000004
300.0000038
300.0000019
300.0000039
300.0000025
300.000001
300.0000047
300.0000123
300.0000164
300.0000424
300.0001332
300.0000615
300.0000191
300.0000001
300.0000002
300.0000072
300.0000037
300.0000131
300.0001337
300.0001135
300.0001787
300.0000097
300.0000073
300.0000018
299.9999988
299.999998
299.9999986
299.9999997
299.9999997
299.9999999
300
300.0000002
299.9999996
299.9999994
299.9999993
299.9999994
299.9999994
299.9999995
299.9999995
299.9999996
300
300.0000003
300.0000007
300.0000016
300.0000027
300.0000037
300.0000041
300.0000039
300.0000037
300.0000018
300.000017
300.0000199
300.000053
300.0002355
300.0001434
300.0000475
300.0000006
300.000001
300.0000023
300.0000049
300.0000167
300.0002139
300.0001097
300.0000646
300.0000123
300.0000069
300.000002
299.9999992
299.9999985
299.9999985
300
299.9999998
300.0000003
300.0000005
300.0000005
300
299.9999997
299.9999996
299.9999996
299.9999996
299.9999996
299.9999997
300
300.0000003
300.0000007
300.0000014
300.0000024
300.0000034
300.0000041
300.0000042
300.0000038
300.0000034
300.0000017
300.0000601
300.0004764
300.000342
300.0001126
300.0000013
300.0000015
300.0000018
300.0000025
300.000005
300.0000354
300.0000919
300.0001127
300.0000145
300.0000077
300.0000052
300.0000037
300.0000042
300.0001554
300.0000294
299.9999996
300.0000049
300.0000042
300.0000022
299.9999986
299.9999987
299.9999989
299.9999993
299.9999999
300.0000011
300.0000031
300.0000061
300.0000083
300.0000075
300.0000071
300.0000067
300.0000059
300.0000051
300.0000043
300.0000036
300.0000033
300.0000016
300.0000027
300.0000023
300.0000023
300.0000026
300.0000038
300.0000176
300.0000768
300.0008285
300.0000196
300.0000083
300.0000063
300.0000063
300.0000093
300.0012625
300.0030959
300.0014402
300.0000191
300.0000226
300.0000133
299.9999985
299.9999985
299.9999986
299.999999
299.9999996
300.0000031
300.0000041
300.0000041
300.0000047
300.0000059
300.0000068
300.0000066
300.0000057
300.0000048
300.0000041
300.0000035
300.0000033
300.0000016
300.000004
300.0000034
300.0000041
300.0000182
300.0000577
300.003021
300.0000594
300.0000104
300.0000069
300.0000067
300.0000102
300.0029149
300.0030325
300.0031122
300.0021459
300.0000182
300.0000131
299.9999985
299.9999984
299.9999985
299.9999987
300.0000016
300.0000027
300.0000038
300.0000061
300.00001
300.0000102
300.0000085
300.0000066
300.0000053
300.0000045
300.0000041
300.0000038
300.0000036
300.0000015
300.0000036
300.0000045
300.000019
300.000033
300.002005
300.0002955
300.0000274
300.0000085
300.000007
300.0000083
300.000363
300.0001201
300.0001902
300.0007541
300.0000132
300.0000121
299.9999992
299.9999987
299.9999987
299.9999995
300.0000077
300.0000444
300.0000117
300.0000099
300.0000067
300.0000059
300.0000055
300.0000049
300.0000046
300.0000045
300.0000045
300.0000045
300.0000045
300.0000015
300.0000038
300.0000045
300.0000085
300.0000193
300.0000149
300.0000135
300.0000126
300.0000116
299.9999908
300.0000082
300.0000103
300.0000113
300.0000128
300.0000145
300.0000094
300.0000091
299.9999996
299.999999
299.999999
300.0000005
300.0000027
300.0000462
300.0000092
300.0000073
300.0000043
300.0000037
300.0000036
300.0000038
300.0000043
300.000005
300.0000056
300.0000059
300.000006
300.0000016
300.0000047
300.0000065
300.0000129
300.0000115
300.00001
300.0000087
300.0000079
300.0000076
300.0000072
300.0000069
300.0000068
300.0000067
300.0000067
300.0000068
300.0000071
300.0000006
299.9999994
299.9999993
300.0000015
300.0000027
300.0000052
300.0000058
300.0000054
300.0000031
300.0000026
300.0000027
300.0000032
300.0000045
300.0000063
300.0000077
300.0000081
300.0000082
300.0000018
300.0000046
300.0000053
300.0000077
300.0000081
300.0000079
300.0000077
300.0000073
300.000007
300.0000067
300.0000067
300.0000067
300.0000065
300.0000062
300.0000061
300.0000063
300.0000021
300.0000003
299.9999999
300.0000022
300.0000033
300.000005
300.0000045
300.0000044
300.0000024
300.0000019
300.0000019
300.0000025
300.0000042
300.0000078
300.0000102
300.0000101
300.0000097
300.000002
300.0000045
300.0000047
300.0000051
300.0000052
300.0000051
300.000005
300.000005
300.0000048
300.0000044
300.0000045
300.000005
300.0000046
300.0000048
300.0000054
300.0000065
300.0000027
300.0000013
300.0000008
300.0000027
300.0000037
300.0000051
300.0000041
300.000004
300.000002
300.0000013
300.0000014
300.0000019
300.000003
300.0000052
300.0000067
300.0000069
300.0000071
300.000002
300.0000047
300.0000051
300.0000055
300.0000056
300.0000052
300.000004
300.0000014
299.9999964
299.9999997
300.000002
299.9999999
300.0000008
300.0000029
300.000008
300.0000033
300.0000019
300.0000017
300.0000033
300.0000043
300.0000053
300.0000041
300.0000036
300.0000016
300.000001
300.000001
300.0000015
300.0000024
300.0000038
300.0000051
300.0000058
300.0000065
300.0000018
300.0000094
300.0000083
299.9999993
299.9999848
299.9999707
299.9999615
299.9999605
300.0000023
299.9999893
299.9999836
300.0002766
300.00052
300.0008207
300.0011458
300.0000027
300.000003
300.0000043
300.0000049
300.0000049
300.0000038
300.0000027
300.0000014
300.0000008
300.0000007
300.0000011
300.0000018
300.0000029
300.0000043
300.0000052
300.0000056
300.0000018
300.0000041
299.9999856
299.9999666
299.9999563
299.9999517
299.9999506
299.9999547
300.0000462
300.0000328
300.0000269
300.000028
300.0017069
300.0033099
300.0034597
300.0000049
300.0000052
300.0000056
300.0000056
300.000004
300.0000036
300.0000045
300.0000006
300.0000004
300.0000004
300.0000006
300.0000011
300.0000018
300.0000023
300.0000024
300.0000022
300.0000016
299.9999882
299.9999657
299.9999579
299.9999555
299.9999552
299.9999564
299.9999599
300.0000259
300.0000204
300.0000161
300.0000045
300.0001245
300.0012703
300.0032637
300.0000108
300.0000082
300.0000068
300.0000065
300.0000036
300.0000022
300.0000028
300.0000004
300.0000003
300.0000002
300.0000002
300.0000003
300.0000003
300.0000005
300.000001
300.0000018
300.0000018
300.0000039
300.0033866
300.0000335
300.0000189
300.0000155
300.0000027
300.0000045
300.0000142
300.0000654
300.0001021
300.0000109
300.0000085
300.0000117
300.0000077
300.0000477
300.0001093
300.0000008
300.0000005
300.0000005
300.0000006
300.0000008
300.0000015
300.0000034
300.0000068
300.0000108
300.0000021
299.9999857
300.0000275
299.9999907
300.000016
300.0000164
300.0000019
300.0000023
300.0000048
300.0000145
300.0000613
300.0000147
300.000025
300.0000631
300.0000162
300.0000913
300.0001533
300.0000013
300.0000007
300.0000007
300.000001
300.0000018
300.0000044
300.0000076
300.0000079
300.0000076
300.0000024
)
;

boundaryField
{
    walls
    {
        type            zeroGradient;
    }
    wallFilmFace_top
    {
        type            zeroGradient;
    }
    region0_to_wallFilmRegion_wallFilmFace
    {
        type            zeroGradient;
    }
    mirrorFace_top
    {
        type            zeroGradient;
    }
    region0_to_wallFilmRegion_mirrorFace
    {
        type            zeroGradient;
    }
    procBoundary0to1
    {
        type            processor;
        value           nonuniform List<scalar> 
52
(
300.0000018
300.0000029
300.0000026
300.0000021
300.0000018
300.0000015
300.0000014
300.0000014
300.0000016
300.0000017
300.0000019
300.0000022
300.0000022
300.0000033
300.0000036
300.0000036
300.0000039
300.000004
300.0000016
300.0000075
300.0000075
300.0000316
300.0000276
300.0000276
300.0000189
300.0000669
300.0001001
300.0000687
300.0000687
300.0000063
300.0000061
300.0000061
300.0000043
300.0000043
300.0000042
300.0000044
300.0000044
300.0000046
300.0000047
300.0000046
300.0000046
300.0000058
300.0000058
300.0000093
300.0000094
300.0004023
300.0028485
300.0028609
300.0029889
300.0031572
300.0031572
300.001515
)
;
    }
    procBoundary0to2
    {
        type            processor;
        value           nonuniform List<scalar> 
26
(
299.9999891
300.0000139
299.9999937
300.0000164
300.0000262
300.0000011
300.0000014
300.0000026
300.0000059
300.0000188
300.0000244
300.0000549
300.0001551
300.0004843
300.0008857
300.0007154
300.0000031
300.0000014
300.0000014
300.000002
300.0000047
300.0000086
300.0000079
300.0000059
300.000005
300.0000024
)
;
    }
}


// ************************************************************************* //
