/*--------------------------------*- C++ -*----------------------------------*\
  =========                 |
  \\      /  F ield         | OpenFOAM: The Open Source CFD Toolbox
   \\    /   O peration     | Website:  https://openfoam.org
    \\  /    A nd           | Version:  8
     \\/     M anipulation  |
\*---------------------------------------------------------------------------*/
FoamFile
{
    version     2.0;
    format      ascii;
    class       volVectorField;
    location    "0.5/wallFilmRegion";
    object      U;
}
// * * * * * * * * * * * * * * * * * * * * * * * * * * * * * * * * * * * * * //

dimensions      [0 1 -1 0 0 0 0];

internalField   nonuniform List<vector> 
1369
(
(-0.5213928515 -0.7384537571 0)
(-1.158634282 0.637168863 0)
(-1.205594476 -0.8824760294 0)
(-1.255554558 -0.8491781083 0)
(-1.27933671 -0.8400451386 0)
(-1.298303436 -0.8294342343 0)
(-1.31410077 -0.8249144124 0)
(-1.3298666 -0.8232617055 0)
(-1.348613114 -0.8196011433 0)
(-1.37165995 -0.807198724 0)
(-1.39790543 -0.7785683842 0)
(-1.421875817 -0.7277841747 0)
(-1.433446186 -0.6513710087 0)
(-1.414233313 -0.548727948 0)
(-1.340836601 -0.4232179496 0)
(-1.217356082 -0.3001275239 0)
(-1.121488325 -0.2365832705 0)
(-1.099188273 -0.2415381748 0)
(-1.124318973 -0.3066219072 0)
(-1.271845912 -0.3866479492 0)
(-1.319767551 -0.3671183967 0)
(-1.275808465 -0.3505904962 0)
(-1.236905141 -0.3238975356 0)
(-1.223593257 -0.2927040124 0)
(-1.190445729 -0.2693210997 0)
(-1.153794027 -0.2411346352 0)
(-1.091785621 -0.2199962128 0)
(-1.20582677 -0.2489431725 0)
(-1.257870808 -0.245410253 0)
(-1.356270863 -0.2505872371 0)
(-1.601136772 -0.2053636258 0)
(-1.763966322 -0.09012245363 0)
(-1.525270876 -0.01870446925 0)
(-1.648842243 0.1673698861 0)
(-1.557175806 0.250402479 0)
(-1.384066548 0.2955967073 0)
(-1.325962954 0.334371668 0)
(-1.355156514 0.3832548943 0)
(-1.397273643 0.4398076324 0)
(-1.41261491 0.4819110606 0)
(-1.397927472 0.4667340323 0)
(-1.389208437 0.4302284632 0)
(-1.370227233 0.390555652 0)
(-1.331899999 0.376847172 0)
(-1.285207424 0.3838966582 0)
(-1.251697744 0.4048298958 0)
(-1.237241414 0.4349197336 0)
(-1.238122984 0.4710510063 0)
(-1.250279898 0.5109313323 0)
(-1.270940766 0.553272995 0)
(-1.296035797 0.5977089304 0)
(-1.320233716 0.643860507 0)
(-1.338435599 0.6906278682 0)
(-1.347664796 0.7366216863 0)
(-1.348224947 0.7807228485 0)
(-1.342603957 0.8223456564 0)
(-1.334532832 0.8579193634 0)
(-1.325379862 0.9053004871 0)
(-1.325348331 0.2818763023 0)
(-0.8203695655 0.7299085552 0)
(0.2753484681 -1.286886843 0)
(-0.8926833486 -1.167252883 0)
(-0.8352519378 -1.28022451 0)
(-0.9448000088 -1.264986707 0)
(-0.92502722 -1.22757767 0)
(-0.8951938783 -1.175982134 0)
(-0.8602094366 -1.118915947 0)
(-0.829568308 -1.061241856 0)
(-0.8071322972 -1.002749266 0)
(-0.7899309907 -0.940177778 0)
(-0.7730900392 -0.8695995458 0)
(-0.7580197734 -0.7870500835 0)
(-0.7590396155 -0.6851629826 0)
(-0.8041008509 -0.5554014537 0)
(-0.9091751504 -0.4191181185 0)
(-1.029211219 -0.3082457918 0)
(-1.074852707 -0.1985760806 0)
(-0.9160602703 -0.1011464027 0)
(-0.8042573202 -0.2159612618 0)
(-0.7994196281 -0.5608068429 0)
(-0.8508706114 -0.5215667213 0)
(-1.168745424 -0.4282345989 0)
(-1.440272272 -0.3258052101 0)
(-1.562640723 -0.247167063 0)
(1.197701237 -0.2737910168 0)
(0.4956568821 -0.2213020204 0)
(-0.5244906869 -0.2963910992 0)
(-0.6804402022 -0.5507470107 0)
(-0.7034975357 -0.4703333992 0)
(-0.7431217184 -0.3858691351 0)
(-0.8197775127 -0.3105118957 0)
(-1.075271958 0.05938222898 0)
(-1.170500074 0.2928536997 0)
(-1.033448165 0.5066439632 0)
(-0.7315208874 0.6412919899 0)
(-0.5917313274 0.5718787513 0)
(-0.5502666839 0.4746006351 0)
(-0.5472037369 0.4154183179 0)
(-0.6031497339 0.5236253582 0)
(-0.6343743313 0.4787353442 0)
(-0.5896006278 -0.04954056035 0)
(-0.4929437451 -0.4227759407 0)
(-1.553342418 0.01450468824 0)
(-1.703612457 0.3023163301 0)
(-1.560874492 0.4584422963 0)
(-1.299607276 0.5790935428 0)
(-1.096135157 0.660256749 0)
(-0.976493989 0.7090109511 0)
(-0.8793432484 0.7386529693 0)
(-0.7746306246 0.7588684181 0)
(-0.6526038807 0.7803596079 0)
(-0.5042256264 0.8175127235 0)
(-0.3560274888 0.8739918302 0)
(-0.2840447136 0.922288646 0)
(-0.3126480859 0.9416225168 0)
(-0.3905415761 0.9462235641 0)
(-0.4735409117 0.9534684845 0)
(-0.4548655748 0.9702396251 0)
(-0.5535466058 0.9394688633 0)
(0.516146255 1.227572002 0)
(-0.8418746745 -1.28243508 0)
(-0.9464297979 -1.139867046 0)
(-0.9694275381 -1.286379747 0)
(-0.9878086962 -1.267985966 0)
(-0.9965792718 -1.222971037 0)
(-0.9929006573 -1.158384529 0)
(-0.9759806781 -1.084894907 0)
(-0.947364539 -1.010382172 0)
(-0.9098562148 -0.9376776108 0)
(-0.866105541 -0.8657838474 0)
(-0.8187383681 -0.7921388391 0)
(-0.7751812352 -0.7151279917 0)
(-0.7551810057 -0.6313660328 0)
(-0.7956108332 -0.5364823543 0)
(-0.9149731247 -0.4427826121 0)
(-1.048008937 -0.3538708233 0)
(-1.114928842 -0.2977115539 0)
(-0.9980636674 -0.2499031499 0)
(-0.9028566057 -0.3002496451 0)
(-0.9626421105 -0.5935669968 0)
(-1.202115037 -0.6062528657 0)
(-1.409486295 -0.5042454763 0)
(-1.541410614 -0.3511323819 0)
(-1.578508838 -0.2247265705 0)
(-0.1871542126 -0.02867704684 0)
(-0.2838774155 -0.2331969444 0)
(-0.6646807027 -0.3162011989 0)
(-0.7129517783 -0.6073722033 0)
(-0.7705451562 -0.5170510871 0)
(-0.7972400236 -0.4057383705 0)
(-0.818297975 -0.2910709042 0)
(-1.142524414 0.06303723137 0)
(-1.150497813 0.3010028658 0)
(-1.057268288 0.5049435269 0)
(-0.7432042392 0.6534509401 0)
(-0.5920442546 0.5907516332 0)
(-0.5529150207 0.4562773514 0)
(-0.5783864332 0.389996022 0)
(-0.7017796176 0.3986485698 0)
(-0.8274310369 0.270374497 0)
(-0.954425819 -0.2841408141 0)
(-1.188724229 -0.4305069858 0)
(-2.041647701 0.1794281388 0)
(-2.047468632 0.351265808 0)
(-1.946997665 0.4748156864 0)
(-1.754591237 0.5891606205 0)
(-1.510848375 0.6769409528 0)
(-1.280544051 0.7303710416 0)
(-1.090590804 0.7614771614 0)
(-0.9409548345 0.7799788063 0)
(-0.8253994997 0.7938094933 0)
(-0.731067671 0.8105689545 0)
(-0.6615630146 0.8323815413 0)
(-0.6264980672 0.8515652834 0)
(-0.6334013433 0.8622676285 0)
(-0.6705827576 0.8728958987 0)
(-0.7171034297 0.8889560378 0)
(-0.7601735276 0.9128541017 0)
(-0.7892170035 0.8328868717 0)
(-0.8600453021 1.244464361 0)
(-0.7937541551 -1.276291066 0)
(-0.8944081046 -1.200200767 0)
(-0.9132912285 -1.274764614 0)
(-0.9279780781 -1.257920146 0)
(-0.9327388674 -1.20887665 0)
(-0.9266389805 -1.133092389 0)
(-0.9112236947 -1.042990143 0)
(-0.8906207692 -0.9519793056 0)
(-0.8676472031 -0.8679904463 0)
(-0.8406049675 -0.7917172994 0)
(-0.80620654 -0.7211849093 0)
(-0.7727527397 -0.6619670935 0)
(-0.7511875087 -0.6035032463 0)
(-0.7860634866 -0.5467226359 0)
(-0.9113126453 -0.4895628047 0)
(-1.089591167 -0.4430684651 0)
(-1.143238761 -0.404705616 0)
(-1.028852387 -0.3899219585 0)
(-0.9498390249 -0.4495693063 0)
(-0.9988316091 -0.695209464 0)
(-1.178494453 -0.7137790766 0)
(-1.3260375 -0.576223811 0)
(-1.437701937 -0.3926333966 0)
(-1.542249917 -0.2659134019 0)
(-0.9090566552 0.1864892871 0)
(-0.2219209458 -0.1985822404 0)
(-0.9087113197 -0.2600713648 0)
(-0.7517287733 -0.5718976731 0)
(-0.7262666212 -0.4758808263 0)
(-0.6921844113 -0.3484732225 0)
(-0.6341830499 -0.2239175823 0)
(-0.9600372458 0.06924574542 0)
(-1.023772895 0.3073008032 0)
(-0.9184942881 0.4626044394 0)
(-0.6892347804 0.6399033703 0)
(-0.6172893068 0.5834172415 0)
(-0.595213893 0.4644541787 0)
(-0.5883380037 0.3765725314 0)
(-0.6841599502 0.1921233122 0)
(-0.8127572835 -0.1143854154 0)
(-0.9484398667 -0.4768753813 0)
(-1.20955213 -0.4647498294 0)
(-2.094127394 0.2540145941 0)
(-2.042220308 0.367252856 0)
(-1.937610153 0.4768929689 0)
(-1.755425574 0.5854750336 0)
(-1.510217755 0.6779946226 0)
(-1.265301815 0.740833954 0)
(-1.059433177 0.7786929565 0)
(-0.896183903 0.8004668685 0)
(-0.7903228596 0.8132576666 0)
(-0.6778074123 0.823001555 0)
(-0.5968913551 0.8257391258 0)
(-0.5671993325 0.8229498008 0)
(-0.5953972278 0.8188336143 0)
(-0.6556513159 0.829182379 0)
(-0.7196702302 0.8495632404 0)
(-0.7744862846 0.87610411 0)
(-0.8103286726 0.8641640018 0)
(-0.8312995654 1.264636194 0)
(-0.7757293866 -1.261706866 0)
(-0.8422489872 -1.149401371 0)
(-0.8576189287 -1.239077324 0)
(-0.8697431045 -1.225444864 0)
(-0.8739068288 -1.175707167 0)
(-0.8732165503 -1.09517886 0)
(-0.8742193465 -1.001518938 0)
(-0.8807113013 -0.9129240904 0)
(-0.8879516678 -0.8355233208 0)
(-0.8856244415 -0.7656145978 0)
(-0.864743871 -0.7000411747 0)
(-0.8465375034 -0.6643027563 0)
(-0.8282708901 -0.6262174521 0)
(-0.849684068 -0.5902939426 0)
(-0.9668568337 -0.5597881038 0)
(-1.143159987 -0.5308898668 0)
(-1.183157727 -0.5058247668 0)
(-1.079427972 -0.5327246164 0)
(-1.009327827 -0.643183061 0)
(-1.025871247 -0.8416414872 0)
(-1.117938138 -0.8026500903 0)
(-1.206057752 -0.6234423347 0)
(-1.297955041 -0.4374003326 0)
(-1.367845798 -0.2909247208 0)
(-1.097644719 0.2760647743 0)
(0.01816253154 0.07671602357 0)
(-1.433897989 -0.04826811223 0)
(-0.8921152726 -0.3153791124 0)
(-0.6970403237 -0.2770434088 0)
(-0.590578437 -0.1899885987 0)
(-0.4254657766 -0.1013260552 0)
(-0.706035986 0.08478083155 0)
(-0.8694448413 0.3051173894 0)
(-0.7421372493 0.341522767 0)
(-0.6881966676 0.5689756558 0)
(-0.6792312065 0.5690969136 0)
(-0.6669976073 0.4576109983 0)
(-0.6310845867 0.3544665985 0)
(-0.6946547778 -0.04643228496 0)
(-0.7764953529 -0.1394113165 0)
(-0.9130305322 -0.4727589134 0)
(-1.206965264 -0.4468360023 0)
(-2.034484591 0.2709175637 0)
(-1.979950355 0.3736325236 0)
(-1.888326258 0.481646954 0)
(-1.735682015 0.5874757793 0)
(-1.518791872 0.6780593584 0)
(-1.278247673 0.745872524 0)
(-1.05994651 0.7912846217 0)
(-0.8828033823 0.8190773868 0)
(-0.8771877605 0.8308899183 0)
(-0.7174058117 0.8495293053 0)
(-0.6052341644 0.8483197337 0)
(-0.5657021659 0.8348510563 0)
(-0.5975188337 0.8094222466 0)
(-0.6649679901 0.8181783994 0)
(-0.7343189126 0.8407491927 0)
(-0.7937247923 0.8683499685 0)
(-0.8331248639 0.8589318783 0)
(-0.8289144273 1.272247163 0)
(-0.7527313364 -1.245843634 0)
(-0.7930974574 -1.081360661 0)
(-0.8037634237 -1.179558203 0)
(-0.815792947 -1.167958623 0)
(-0.8280375492 -1.122448837 0)
(-0.8473361029 -1.052413764 0)
(-0.8772430179 -0.9776596852 0)
(-0.9129268608 -0.9092188299 0)
(-0.9447280242 -0.8457673853 0)
(-0.966511618 -0.7866071516 0)
(-0.9950081032 -0.7532023819 0)
(-0.9872831544 -0.710914782 0)
(-0.9606934404 -0.6702621941 0)
(-0.9586266413 -0.6400167095 0)
(-1.041888594 -0.6246234579 0)
(-1.200073585 -0.6193223963 0)
(-1.20884091 -0.6213299348 0)
(-1.123029926 -0.7028329018 0)
(-1.035220598 -0.860490704 0)
(-1.008549224 -0.9691040382 0)
(-1.032159771 -0.8703452705 0)
(-1.095333533 -0.6702965835 0)
(-1.152073746 -0.4649917405 0)
(-1.193181257 -0.2869652225 0)
(-1.065465046 0.2094026324 0)
(-1.075012604 0.364894748 0)
(-2.032257986 0.05041930982 0)
(-1.347224985 0.1708881161 0)
(-0.9056860907 0.2222987444 0)
(-0.6076115945 0.1306327847 0)
(-0.2593536067 0.07181501197 0)
(-0.3616882843 0.1266816448 0)
(-0.634827327 0.286164797 0)
(-0.5525907608 0.1267693569 0)
(-0.6769700405 0.380587596 0)
(-0.7585657719 0.4713240036 0)
(-0.7472349522 0.4189203555 0)
(-0.6685269767 -0.4473716359 0)
(-0.6880044894 -0.295277465 0)
(-0.7236982292 -0.1836764204 0)
(-0.8342736852 -0.3637675578 0)
(-1.073498172 -0.3123958196 0)
(-1.925916874 0.2709219841 0)
(-1.881259415 0.3783014398 0)
(-1.805856405 0.4921103176 0)
(-1.685206471 0.6025897576 0)
(-1.509087531 0.6939649761 0)
(-1.296984283 0.7601391164 0)
(-1.083491685 0.8049298062 0)
(-0.897763474 0.8367348646 0)
(-1.17441367 0.8295525304 0)
(-0.9226114489 0.8805793323 0)
(-0.6971030054 0.9008448142 0)
(-0.5997782249 0.8823124093 0)
(-0.6160960637 0.8055361878 0)
(-0.6906715957 0.8231487325 0)
(-0.7570341369 0.8507811589 0)
(-0.8130744989 0.8793831232 0)
(-0.8509916858 0.8710228124 0)
(-0.8204693938 1.280216955 0)
(-0.7352697569 -1.232788771 0)
(-0.755477835 -1.014234215 0)
(-0.7610974593 -1.114492033 0)
(-0.7788107527 -1.106955592 0)
(-0.8103549028 -1.078337758 0)
(-0.8542453976 -1.034487032 0)
(-0.9037788277 -0.984213923 0)
(-0.9531986596 -0.9315424579 0)
(-1.004492556 -0.8824996851 0)
(-1.07100493 -0.8530210744 0)
(-1.106772597 -0.8101243953 0)
(-1.110522046 -0.7635970371 0)
(-1.089025174 -0.7241548445 0)
(-1.078436793 -0.7014157009 0)
(-1.125858031 -0.7010997295 0)
(-1.177516684 -0.688492938 0)
(-1.166046994 -0.7632204516 0)
(-1.082198288 -0.9103736389 0)
(-1.021132279 -1.033834393 0)
(-0.9751936457 -1.057576863 0)
(-0.9765657053 -0.9075606379 0)
(-0.992984716 -0.6890914229 0)
(-1.007568611 -0.474248376 0)
(-1.029675715 -0.3072969374 0)
(-1.003072714 -0.1120125033 0)
(-1.247736306 -0.1836871211 0)
(-2.124472792 -0.05094550943 0)
(-1.748947033 0.4925795865 0)
(-1.331431481 0.7598544042 0)
(-0.8811840833 0.7015938276 0)
(-0.1788221829 0.336738101 0)
(-0.1470721311 0.2359679711 0)
(-0.2700218946 0.2547142462 0)
(-0.4309147047 -0.08060842144 0)
(-0.6105936194 0.05009600993 0)
(-0.7141654903 0.2513250215 0)
(-0.6299326476 -0.6124661877 0)
(-0.6927014958 -0.5812320834 0)
(-0.707488006 -0.4918596616 0)
(-0.720902575 -0.3733242053 0)
(-0.7548007834 -0.176163259 0)
(-0.8785945309 0.05849840686 0)
(-1.79155514 0.2682919406 0)
(-1.757088428 0.3841989071 0)
(-1.695747552 0.5059798307 0)
(-1.603739013 0.6258614014 0)
(-1.468925276 0.7260112552 0)
(-1.298275852 0.7950611875 0)
(-1.113403606 0.8219138726 0)
(-0.9384222351 0.8436775591 0)
(-1.514063156 0.8041133269 0)
(-1.279676596 0.8962697786 0)
(-0.9479625268 0.9577135008 0)
(-0.7777144292 0.9280444879 0)
(-0.7472977599 0.84294972 0)
(-0.7522008448 0.857025832 0)
(-0.7898022019 0.884569458 0)
(-0.8293547559 0.9095458488 0)
(-0.8586650326 0.8972792903 0)
(-0.8083417245 1.289067409 0)
(-0.7228866129 -1.226975225 0)
(-0.7359298732 -0.9754440674 0)
(-0.7388949334 -1.077166868 0)
(-0.7671499107 -1.084329385 0)
(-0.8166499657 -1.07916244 0)
(-0.8732814858 -1.055128225 0)
(-0.9289089995 -1.015618015 0)
(-0.9872415036 -0.971309774 0)
(-1.072412886 -0.9489622462 0)
(-1.13327897 -0.9045209193 0)
(-1.171400065 -0.8507294527 0)
(-1.18105019 -0.7970135641 0)
(-1.161581304 -0.7608495672 0)
(-1.122001043 -0.7343560439 0)
(-1.071327081 -0.6870624647 0)
(-1.092745699 -0.7169914313 0)
(-1.103513391 -0.8775856754 0)
(-1.016255921 -1.059008684 0)
(-0.9460172309 -1.152183178 0)
(-0.9198252055 -1.082757079 0)
(-0.9092114279 -0.896777855 0)
(-0.8953959589 -0.6676496566 0)
(-0.8601506973 -0.4961600045 0)
(-0.8822211313 -0.4739909766 0)
(-1.038410143 -0.6998533501 0)
(-1.342492789 -0.5781272089 0)
(-1.741205719 -0.1185262074 0)
(-1.584598005 0.5796609473 0)
(-1.393423104 1.036874377 0)
(-1.140057844 1.246584299 0)
(-0.5805105922 0.8382701069 0)
(-0.1635821827 0.351691326 0)
(0.04649545476 0.272561639 0)
(-0.3673466543 -0.2220043697 0)
(-0.5432897911 -0.4922828379 0)
(-0.5395030015 -0.6814382935 0)
(-0.6609487258 -0.6962715239 0)
(-0.7219797575 -0.6707219966 0)
(-0.7561945107 -0.6142173783 0)
(-0.831013869 -0.5409743055 0)
(-0.9751252901 -0.4182259195 0)
(-1.182236809 -0.2552378417 0)
(-1.666834352 0.2733053174 0)
(-1.614681458 0.3924822291 0)
(-1.563445794 0.5215063597 0)
(-1.494555278 0.6522478845 0)
(-1.395530436 0.7670725945 0)
(-1.262674412 0.8516577845 0)
(-1.108280578 0.8101880437 0)
(-0.9692143095 0.7791848506 0)
(-1.603190224 0.7573764262 0)
(-1.512368939 0.8930360418 0)
(-1.267998113 1.003878544 0)
(-1.003712317 1.032637704 0)
(-0.856151429 0.9900548562 0)
(-0.8129311597 0.9608998434 0)
(-0.8145799689 0.9558268747 0)
(-0.8310262335 0.9591865343 0)
(-0.8488389317 0.9344044708 0)
(-0.789736121 1.297538228 0)
(-0.71358743 -1.231172249 0)
(-0.7299035685 -0.9717322568 0)
(-0.7320924297 -1.081466221 0)
(-0.7676877867 -1.110737843 0)
(-0.824861866 -1.122012768 0)
(-0.8851571299 -1.104600915 0)
(-0.9445157447 -1.066547923 0)
(-1.039363811 -1.050631687 0)
(-1.110859706 -1.005406348 0)
(-1.164098621 -0.9423338858 0)
(-1.196262962 -0.8697890645 0)
(-1.196961915 -0.796449746 0)
(-1.148510466 -0.7358847447 0)
(-1.025510427 -0.6473502154 0)
(-0.9335674627 -0.5908133184 0)
(-0.955402271 -0.6393001257 0)
(-1.058403176 -0.8547998905 0)
(-1.002643129 -1.025083714 0)
(-0.9195190885 -1.126621729 0)
(-0.864132595 -1.051243157 0)
(-0.8265394791 -0.8213750453 0)
(-0.7475361863 -0.6033971507 0)
(-0.6659803586 -0.6811382997 0)
(-0.7646237596 -1.046503073 0)
(-1.015998071 -1.201553425 0)
(-1.153576761 -0.7690161421 0)
(-1.266372771 -0.1426856789 0)
(-1.199468481 0.6251225739 0)
(-1.130874139 1.13998168 0)
(-1.048968337 1.509994886 0)
(-0.8749741049 1.541166266 0)
(-0.254007379 0.8401057469 0)
(0.1729133756 0.4517420861 0)
(-0.211526709 -0.146852601 0)
(-0.4711973771 -0.5448720836 0)
(-0.5931009802 -0.7164519823 0)
(-0.6880660698 -0.7411004668 0)
(-0.7391372178 -0.6990475022 0)
(-0.808150145 -0.6518215869 0)
(-0.9354114301 -0.5917155077 0)
(-1.098068135 -0.4612836991 0)
(-1.271840416 -0.3013984805 0)
(-1.505926216 0.2792185292 0)
(-1.45633776 0.4018694604 0)
(-1.414050064 0.5374613134 0)
(-1.362616485 0.6786436311 0)
(-1.291781362 0.8100407663 0)
(-1.184428912 0.9198809257 0)
(-1.023985434 0.6445747964 0)
(-0.9084748955 0.4636367496 0)
(-1.41553372 0.7233887727 0)
(-1.389801319 0.9092663752 0)
(-1.2951671 1.099365538 0)
(-1.12633238 1.231839045 0)
(-0.9352271003 1.213629713 0)
(-0.8210983062 1.113240001 0)
(-0.7931005022 1.042332759 0)
(-0.8007639167 1.010576311 0)
(-0.8158828057 0.9702289595 0)
(-0.7638842387 1.302668642 0)
(-0.7037319256 -1.246627484 0)
(-0.7246463736 -0.9906813454 0)
(-0.7239419721 -1.112926684 0)
(-0.7591410956 -1.164283647 0)
(-0.8167865424 -1.187945683 0)
(-0.8796717581 -1.174535403 0)
(-0.9806332985 -1.168573818 0)
(-1.06633104 -1.130324654 0)
(-1.131663794 -1.063174457 0)
(-1.180369494 -0.9816897508 0)
(-1.199163421 -0.8856454351 0)
(-1.174336482 -0.7732395932 0)
(-1.093215164 -0.6533344393 0)
(-0.9536750421 -0.5327426127 0)
(-0.8231889287 -0.4378667029 0)
(-0.8191946094 -0.4940658046 0)
(-0.9956094511 -0.7437668299 0)
(-1.10422273 -0.6151040659 0)
(-1.176060511 -0.5088753729 0)
(-1.235924833 -0.3558715678 0)
(-1.014772759 0.03968327265 0)
(-0.4431656509 -0.5762110863 0)
(-0.338288446 -1.294831894 0)
(-0.548184232 -1.658903666 0)
(-0.812514036 -1.403604284 0)
(-0.8277105857 -0.8181978102 0)
(-0.8353985945 -0.1504673049 0)
(-0.8382165742 0.655162197 0)
(-0.8454429975 1.195354596 0)
(-0.8265183556 1.637040855 0)
(-0.7811359988 1.850785603 0)
(-0.1873063 1.146763665 0)
(0.4442589624 0.4597414962 0)
(0.3563094101 0.1289947666 0)
(-0.3638428971 -0.4504945379 0)
(-0.5569127477 -0.6351155926 0)
(-0.6716933625 -0.712239608 0)
(-0.7232069403 -0.6971033781 0)
(-0.8096672483 -0.6825118645 0)
(-0.9358892237 -0.6310245784 0)
(-1.065298416 -0.4816717673 0)
(-1.184367103 -0.3127220719 0)
(-1.333546753 0.2851225329 0)
(-1.287957504 0.411836055 0)
(-1.252535829 0.5533885393 0)
(-1.213500989 0.7036916473 0)
(-1.163130403 0.8505188705 0)
(-1.074736201 0.9842904297 0)
(-0.8748746536 0.2212388959 0)
(-0.7463637408 -0.1786774495 0)
(-1.134134676 0.7096292948 0)
(-1.117994538 0.9264299306 0)
(-1.076010659 1.168258751 0)
(-0.9918223126 1.37507797 0)
(-0.8888208588 1.449713979 0)
(-0.7883401739 1.317625821 0)
(-0.7479825206 1.143110212 0)
(-0.7539244404 1.052640855 0)
(-0.7710018355 0.9947279964 0)
(-0.7318550624 1.302274621 0)
(-0.6893907755 -1.27394206 0)
(-0.7077280065 -1.019462647 0)
(-0.6995343647 -1.152840995 0)
(-0.7265690992 -1.223785721 0)
(-0.7800217006 -1.262706224 0)
(-0.8807470874 -1.287744065 0)
(-0.9815305973 -1.283113035 0)
(-1.04183012 -1.217965791 0)
(-1.089641627 -1.127053521 0)
(-1.122099077 -1.016189634 0)
(-1.132722626 -0.887688503 0)
(-1.110278401 -0.7417894998 0)
(-1.037074035 -0.578486823 0)
(-0.9033920334 -0.4055886554 0)
(-0.749918591 -0.2385822785 0)
(-0.7292583143 -0.3566542489 0)
(-0.8971616532 -0.7701879758 0)
(-1.000486497 -0.6372766028 0)
(-1.077154176 -0.5419909561 0)
(-1.215647028 -0.4075660731 0)
(-1.096947464 0.2688960594 0)
(-0.3460606768 -0.1621513026 0)
(0.3638809759 -0.1691399546 0)
(0.8351978881 -0.5064942401 0)
(-0.240456067 0.2250093858 0)
(-0.3433296963 0.3037761338 0)
(0.8698436885 -0.142433792 0)
(0.6655533219 0.2496474964 0)
(-0.3499474301 0.8381916383 0)
(-0.5058922442 1.036072917 0)
(-0.4854319822 1.11351801 0)
(0.3711057411 0.6060453974 0)
(0.6529441372 0.4309840157 0)
(0.5190736838 0.3628382523 0)
(0.3955033189 0.3087533902 0)
(-0.3620599462 -0.2388746957 0)
(-0.583661957 -0.5624759924 0)
(-0.6632353415 -0.7250991577 0)
(-0.7554347694 -0.7394829821 0)
(-0.8651090141 -0.6802571977 0)
(-0.962073033 -0.5076009977 0)
(-1.044511325 -0.3265890545 0)
(-1.153407039 0.2919058626 0)
(-1.113465312 0.4222562493 0)
(-1.083508465 0.5691027427 0)
(-1.052727471 0.7270253862 0)
(-1.01628025 0.8866598721 0)
(-0.9571290814 1.033390443 0)
(-0.7145666739 -0.3028057247 0)
(-0.6288499505 -0.5935158158 0)
(-0.8558869794 0.7120838287 0)
(-0.8469944215 0.9412999321 0)
(-0.8289626077 1.210470007 0)
(-0.794451322 1.471836478 0)
(-0.7403947202 1.60717056 0)
(-0.706618958 1.523560925 0)
(-0.6926009703 1.278807421 0)
(-0.7061853863 1.100869638 0)
(-0.726356253 1.011253302 0)
(-0.6952509825 1.295572422 0)
(-0.6689833944 -1.309359144 0)
(-0.6721856564 -1.046513088 0)
(-0.6463315236 -1.179519279 0)
(-0.6662785728 -1.277386524 0)
(-0.7429433496 -1.36872317 0)
(-0.8361268696 -1.403265484 0)
(-0.8973253728 -1.365527453 0)
(-0.9478318706 -1.287664263 0)
(-0.9883667488 -1.180597114 0)
(-1.017561215 -1.05233855 0)
(-1.032049675 -0.9068573146 0)
(-1.024635001 -0.7414610131 0)
(-0.9818996233 -0.5459214389 0)
(-0.8894834018 -0.3065575168 0)
(-0.7935165691 -0.02219216407 0)
(-0.7183490538 -0.1800108951 0)
(-0.8236085627 -0.7816904859 0)
(-0.9055540672 -0.6386961013 0)
(-0.9640517061 -0.5527848927 0)
(-1.106556305 -0.4598064928 0)
(-1.087657514 0.4276772443 0)
(-0.2711963726 -0.2311556067 0)
(0.07817040722 -0.2213865168 0)
(0.6153456441 -0.2536461995 0)
(-0.3197160472 0.2410515361 0)
(-0.3450557311 0.3287461074 0)
(1.245358202 -0.1513221457 0)
(0.5809908317 0.3123624169 0)
(-0.3314273359 0.9169813395 0)
(-0.4684570326 1.223671572 0)
(-0.4312647365 1.250150019 0)
(0.5157329962 0.5641555733 0)
(0.6540578577 0.4674171668 0)
(0.4652172603 0.4674894253 0)
(0.17367925 0.4698081246 0)
(-0.1350885863 0.1475771647 0)
(-0.4717675623 -0.3671626443 0)
(-0.5690734735 -0.7852119329 0)
(-0.6628866666 -0.804507958 0)
(-0.7548580407 -0.7271504948 0)
(-0.8238325256 -0.5324517778 0)
(-0.8816932498 -0.3401982477 0)
(-0.9697227233 0.2978350924 0)
(-0.9367874503 0.4323952035 0)
(-0.9116762621 0.5845204984 0)
(-0.8865444968 0.749043017 0)
(-0.8593927441 0.9185928622 0)
(-0.8398316615 1.070416349 0)
(-0.6547652179 -0.4546820718 0)
(-0.574699472 -0.4025928929 0)
(-0.603007163 0.7039597214 0)
(-0.6072885756 0.9504819821 0)
(-0.6071177613 1.236626474 0)
(-0.5968939425 1.519835858 0)
(-0.5955972432 1.684679701 0)
(-0.6008468501 1.599183039 0)
(-0.6260061691 1.353904851 0)
(-0.6592770855 1.127525715 0)
(-0.6844277407 1.012147042 0)
(-0.6551726605 1.282616811 0)
(-0.8321725277 -1.342762954 0)
(-0.8656056904 -1.229107921 0)
(-0.8923558873 -1.094567888 0)
(-0.9093906525 -0.94456629 0)
(-0.9135899808 -0.7779808973 0)
(-0.9006714415 -0.5813538339 0)
(-0.8583307182 -0.3140256738 0)
(-0.7266320639 0.2183172088 0)
(-0.6954203128 -0.01572233017 0)
(-0.7699177283 -0.7837507026 0)
(-0.8239104224 -0.6256853344 0)
(-0.8625907946 -0.5411140419 0)
(-0.9817386337 -0.4764906867 0)
(-0.9965588824 0.4703060694 0)
(-0.3656413741 -0.3031395909 0)
(-0.3523954478 -0.330971905 0)
(-0.1531685596 -0.3106248978 0)
(-0.2501451836 0.2999460342 0)
(-0.2393963857 0.3832976785 0)
(1.314561719 -0.06065663991 0)
(0.3621564988 0.2062102477 0)
(0.01401846805 0.01599045778 0)
(0.4103300414 0.5187483123 0)
(0.0320874091 0.03023911778 0)
(0.5923691952 0.5209315043 0)
(0.5791335989 0.4839485444 0)
(0.3822035915 0.4187231764 0)
(-0.1779728276 -0.1370646564 0)
(-0.2629157907 0.02276348155 0)
(-0.3685024592 -0.2226270583 0)
(-0.4527574004 -0.8503285553 0)
(-0.5465192102 -0.8642858907 0)
(-0.6263736906 -0.7658882612 0)
(-0.67177907 -0.5538094055 0)
(-0.712504278 -0.3517134964 0)
(-0.7875575927 0.3008628263 0)
(-0.7613395126 0.4416512519 0)
(-0.7407178815 0.5998192584 0)
(-0.7202022661 0.7707025841 0)
(-0.6986673652 0.9480096324 0)
(-0.6756666131 1.122821423 0)
(-0.6516860614 1.286559246 0)
(-0.6235758262 1.435457285 0)
(0.4639169355 0.9077949886 0)
(0.600307101 0.8869925609 0)
(0.5337434541 0.991698273 0)
(0.1463626671 1.123538291 0)
(-0.2851426923 1.169191755 0)
(-0.4975802316 1.11016479 0)
(-0.5831489649 1.046032032 0)
(-0.624243952 1.009335459 0)
(-0.6462447143 0.9647306366 0)
(-0.6126783986 1.26190276 0)
(-0.7741840672 -0.8296689687 0)
(-0.7650541043 -0.655268408 0)
(-0.7512943004 -0.4270106241 0)
(-0.6497796258 0.3687415062 0)
(-0.6790475326 0.1230893416 0)
(-0.72993465 -0.7789973404 0)
(-0.753074016 -0.6007933283 0)
(-0.7737045625 -0.5082498594 0)
(-0.8724022088 -0.47466666 0)
(-0.8707260587 0.4384097481 0)
(-0.3972364925 -0.3108894055 0)
(-0.3527428516 -0.3509736976 0)
(-0.2678773345 -0.343513473 0)
(-0.1178559806 0.2749322903 0)
(-0.135470678 0.3999049932 0)
(0.7235803117 0.1986269708 0)
(0.1026842016 0.3898453635 0)
(0.01570906475 0.1568276824 0)
(0.6502605494 0.1186413668 0)
(0.004485231695 -0.0001538142343 0)
(0.5435600894 0.4192918654 0)
(0.3749088706 0.3527096799 0)
(0.2444566356 0.1819130338 0)
(-0.2146058733 -0.1484471818 0)
(-0.224976194 0.0325970629 0)
(-0.3301696555 -0.1530602263 0)
(-0.3249271059 -0.9129593026 0)
(-0.420951434 -0.9132167555 0)
(-0.4951709406 -0.7937623929 0)
(-0.5209462479 -0.5723594258 0)
(-0.5496775348 -0.3611818847 0)
(-0.6103899898 0.299829532 0)
(-0.5892285888 0.4501697011 0)
(-0.573172294 0.6156038558 0)
(-0.5577926579 0.7931345654 0)
(-0.5421847946 0.9775065851 0)
(-0.5261449255 1.160205214 0)
(-0.5102025783 1.332716867 0)
(-0.4947623111 1.498169352 0)
(0.6191317897 1.011854706 0)
(0.7385355803 0.9904516207 0)
(0.546404274 1.139156575 0)
(0.1181788404 1.297122498 0)
(-0.2490729659 1.289129683 0)
(-0.444148073 1.154698194 0)
(-0.5367467097 1.033414 0)
(-0.5841947584 0.9746698558 0)
(-0.6065901044 0.9244922959 0)
(-0.5695762321 1.233050202 0)
(-0.5470109615 -0.4444338175 0)
(-0.5837460372 0.249310311 0)
(-0.7130423849 0.2612794491 0)
(-0.6979499692 -0.766130516 0)
(-0.6912396087 -0.5637561543 0)
(-0.6947104347 -0.4448491461 0)
(-0.7724461362 -0.4771352388 0)
(-0.7897703682 0.4917832444 0)
(-0.7396639309 0.6591647983 0)
(-0.6525594227 0.8378330666 0)
(0.2894546835 0.04301956663 0)
(0.1390182349 -0.2659074847 0)
(0.1667190791 0.2191911909 0)
(0.3375206741 0.302368327 0)
(0.1348405053 0.1550142744 0)
(0.007004016854 0.003424630607 0)
(0.666700771 0.01314347812 0)
(0.0004112522596 -6.301859261e-05 0)
(0.3732397683 0.2227109148 0)
(0.2431880818 0.03698820174 0)
(-0.05888775823 -0.2362692312 0)
(-0.1431027289 -0.09916540992 0)
(-0.1819656428 -0.000758391698 0)
(-0.2852891713 -0.1538926549 0)
(-0.2141187258 -0.9998464802 0)
(-0.3080349524 -0.9248332146 0)
(-0.3702143731 -0.8068407149 0)
(-0.3797754262 -0.5898742033 0)
(-0.3999260685 -0.3715844607 0)
(-0.4358192741 0.2954700159 0)
(-0.4200857794 0.4594950214 0)
(-0.410518016 0.6334215309 0)
(-0.4028907294 0.818129962 0)
(-0.3956763823 1.009506592 0)
(-0.387150127 1.196963946 0)
(-0.378584535 1.371454611 0)
(-0.3716958325 1.535427191 0)
(0.2941849527 1.320747427 0)
(0.3357865043 1.34451612 0)
(0.1033043335 1.51303699 0)
(-0.1609390657 1.567144508 0)
(-0.3229278669 1.419629525 0)
(-0.4245470077 1.185154546 0)
(-0.5005660501 1.001953465 0)
(-0.5503372703 0.9246227167 0)
(-0.5725988707 0.8729990893 0)
(-0.5286338841 1.196859009 0)
(-0.6378203585 -0.5150154776 0)
(-0.6263013051 -0.3257238464 0)
(-0.6730503052 -0.4746512765 0)
(-0.6900953406 0.4974179087 0)
(-0.6542750972 0.6944863034 0)
(-0.5874651135 0.8935995305 0)
(0.3372730661 0.1972983117 0)
(0.2452376188 0.03918482501 0)
(0.2784146766 0.1135882617 0)
(0.3595584773 0.1699958181 0)
(0.1495336166 0.05538893792 0)
(0.004316134934 0.0005244545782 0)
(0.6047143012 -0.006474145857 0)
(0.0007955022061 -0.0002867226142 0)
(0.178236454 -0.02303784039 0)
(0.1663001046 -0.1959350067 0)
(0.04870751519 -0.323710883 0)
(-0.1077242399 -0.2544120508 0)
(-0.1506850543 -0.1933209161 0)
(-0.237003984 -0.1639071956 0)
(-0.3401533981 -0.9984019737 0)
(-0.2235922042 -0.6277694468 0)
(-0.2416042448 -0.7816105485 0)
(-0.2341955114 -0.5913547517 0)
(-0.2605461151 -0.3861149421 0)
(-0.2388572588 0.2867398334 0)
(-0.2380676792 0.4735761144 0)
(-0.2450723282 0.6596672974 0)
(-0.2540204575 0.8534202499 0)
(-0.2626218875 1.052941505 0)
(-0.2630909887 1.239733789 0)
(-0.2588031272 1.395155658 0)
(-0.2617045524 1.53539304 0)
(-0.2360889622 1.648573463 0)
(-0.2433524602 1.702723069 0)
(-0.2642901086 1.673562445 0)
(-0.2915236814 1.529773125 0)
(-0.3405395452 1.295831853 0)
(-0.4117709879 1.050210569 0)
(-0.4846018401 0.894889528 0)
(-0.5321922837 0.8552119171 0)
(-0.5524660276 0.8188891651 0)
(-0.4924896491 1.15785987 0)
(-0.5382647699 -0.4627710751 0)
(-0.590193006 0.5109044067 0)
(-0.5493340961 0.7596958438 0)
(-0.4588228315 0.9633918256 0)
(0.2348470829 0.402643814 0)
(0.2435837189 0.3035913911 0)
(0.2998106778 0.2988322206 0)
(0.4070113651 0.2115837581 0)
(0.3513732487 0.1987910735 0)
(0.06853237417 0.03873705413 0)
(0.5351876374 -0.008530333181 0)
(4.04286298e-05 -1.955315588e-05 0)
(0.07828609962 -0.06027339539 0)
(0.1842385736 -0.1797238456 0)
(0.2007248361 -0.2584702705 0)
(0.1503957403 -0.3225515431 0)
(0.1151139058 -0.3569801963 0)
(0.07880161812 -3.029556092e-05 0)
(-0.0146686103 -0.1009768635 0)
(-0.07889795029 0.1709144538 0)
(0.1222147417 -0.3402697595 0)
(0.1027034975 -0.288693159 0)
(0.2088267305 -0.2972595055 0)
(0.5321132547 0.3584154918 0)
(0.5070670627 0.3467772401 0)
(0.4386923035 0.4606974411 0)
(0.3840235934 0.5994910151 0)
(0.3392733306 0.7295798107 0)
(0.2514252777 0.7804016856 0)
(0.07321831216 0.7922466138 0)
(-0.1202657577 0.7947169553 0)
(-0.1418947114 0.6656941853 0)
(-0.1413330615 0.5512052356 0)
(-0.2104907275 0.5536987147 0)
(-0.3029659274 0.5919470466 0)
(-0.3875434409 0.6391901937 0)
(-0.4518127631 0.6889298103 0)
(-0.4971888579 0.7402025657 0)
(-0.5288845915 0.7886276292 0)