/*--------------------------------*- C++ -*----------------------------------*\
  =========                 |
  \\      /  F ield         | OpenFOAM: The Open Source CFD Toolbox
   \\    /   O peration     | Website:  https://openfoam.org
    \\  /    A nd           | Version:  8
     \\/     M anipulation  |
\*---------------------------------------------------------------------------*/
FoamFile
{
    version     2.0;
    format      ascii;
    class       volScalarField;
    location    "0.1";
    object      alphat;
}
// * * * * * * * * * * * * * * * * * * * * * * * * * * * * * * * * * * * * * //

dimensions      [1 -1 -1 0 0 0 0];

internalField   nonuniform List<scalar> 
67410
(
6.492830207e-07
7.648314684e-07
7.649737138e-07
7.649747217e-07
7.649747368e-07
7.649747492e-07
7.649747642e-07
7.649747815e-07
7.649748007e-07
7.649748217e-07
7.649748441e-07
7.649748678e-07
7.649748924e-07
7.649749176e-07
7.649749431e-07
7.649749686e-07
7.649749942e-07
7.64975019e-07
7.649750431e-07
7.64975066e-07
7.649750881e-07
7.649751086e-07
7.649751274e-07
7.649751446e-07
7.649751621e-07
7.649754233e-07
6.862888678e-07
8.247177737e-07
8.250232023e-07
8.250278631e-07
8.250279288e-07
8.250279436e-07
8.250279606e-07
8.2502798e-07
8.250280014e-07
8.250280247e-07
8.250280497e-07
8.250280761e-07
8.250281034e-07
8.250281318e-07
8.250281603e-07
8.250281889e-07
8.250282175e-07
8.250282452e-07
8.25028272e-07
8.250282969e-07
8.250283211e-07
8.250283428e-07
8.250283625e-07
8.250283795e-07
8.250283965e-07
8.250286579e-07
6.863274285e-07
8.248641066e-07
8.253245785e-07
8.253360025e-07
8.253362122e-07
8.253362459e-07
8.253362827e-07
8.253363245e-07
8.253363708e-07
8.253364213e-07
8.253364754e-07
8.253365319e-07
8.253365912e-07
8.253366523e-07
8.253367131e-07
8.253367744e-07
8.253368339e-07
8.253368929e-07
8.253369495e-07
8.253370024e-07
8.253370515e-07
8.253370963e-07
8.253371357e-07
8.253371693e-07
8.253371993e-07
8.253374692e-07
6.863276806e-07
8.248661516e-07
8.253315594e-07
8.253432876e-07
8.253435059e-07
8.253435414e-07
8.253435795e-07
8.253436233e-07
8.253436718e-07
8.253437246e-07
8.253437812e-07
8.253438409e-07
8.25343903e-07
8.253439659e-07
8.253440296e-07
8.253440937e-07
8.253441558e-07
8.253442176e-07
8.253442766e-07
8.253443322e-07
8.253443834e-07
8.253444302e-07
8.253444713e-07
8.253445064e-07
8.253445375e-07
8.253448082e-07
6.863277049e-07
8.248661914e-07
8.253317108e-07
8.253434478e-07
8.253436672e-07
8.253437038e-07
8.253437435e-07
8.25343789e-07
8.253438393e-07
8.253438942e-07
8.253439522e-07
8.253440134e-07
8.253440772e-07
8.25344142e-07
8.253442084e-07
8.253442738e-07
8.25344339e-07
8.253444025e-07
8.253444634e-07
8.253445207e-07
8.253445738e-07
8.25344622e-07
8.253446647e-07
8.253447011e-07
8.253447332e-07
8.253450046e-07
6.863277347e-07
8.248662164e-07
8.253317807e-07
8.253435208e-07
8.253437416e-07
8.253437797e-07
8.253438209e-07
8.253438676e-07
8.253439194e-07
8.253439759e-07
8.253440364e-07
8.253441003e-07
8.253441663e-07
8.25344234e-07
8.253443024e-07
8.253443708e-07
8.253444382e-07
8.253445041e-07
8.253445671e-07
8.253446267e-07
8.25344682e-07
8.253447321e-07
8.253447768e-07
8.253448147e-07
8.253448481e-07
8.253451208e-07
6.8632777e-07
8.248662455e-07
8.253318609e-07
8.253436047e-07
8.253438266e-07
8.253438661e-07
8.253439093e-07
8.253439584e-07
8.253440125e-07
8.253440715e-07
8.253441346e-07
8.253442011e-07
8.253442701e-07
8.253443405e-07
8.25344412e-07
8.253444829e-07
8.253445531e-07
8.25344622e-07
8.253446877e-07
8.253447499e-07
8.253448077e-07
8.253448601e-07
8.253449072e-07
8.25344947e-07
8.253449819e-07
8.253452562e-07
6.8632781e-07
8.24866279e-07
8.253319533e-07
8.253437012e-07
8.253439247e-07
8.253439659e-07
8.253440112e-07
8.253440625e-07
8.253441191e-07
8.253441806e-07
8.253442466e-07
8.253443151e-07
8.253443869e-07
8.253444601e-07
8.25344535e-07
8.253446095e-07
8.25344684e-07
8.253447549e-07
8.253448243e-07
8.253448896e-07
8.253449505e-07
8.253450057e-07
8.253450552e-07
8.253450973e-07
8.253451346e-07
8.25345411e-07
6.863278548e-07
8.248663167e-07
8.253320565e-07
8.253438092e-07
8.253440339e-07
8.253440767e-07
8.253441236e-07
8.253441769e-07
8.253442361e-07
8.253443005e-07
8.253443697e-07
8.253444426e-07
8.253445182e-07
8.253445957e-07
8.253446743e-07
8.253447532e-07
8.253448304e-07
8.25344906e-07
8.25344979e-07
8.253450478e-07
8.253451115e-07
8.253451704e-07
8.253452218e-07
8.253452661e-07
8.253453046e-07
8.253455827e-07
6.863279036e-07
8.248663574e-07
8.253321683e-07
8.253439258e-07
8.253441526e-07
8.253441977e-07
8.253442474e-07
8.253443039e-07
8.253443667e-07
8.25344435e-07
8.253445079e-07
8.253445847e-07
8.253446645e-07
8.253447465e-07
8.25344829e-07
8.25344912e-07
8.25344994e-07
8.253450737e-07
8.253451509e-07
8.253452236e-07
8.253452911e-07
8.253453526e-07
8.253454071e-07
8.253454541e-07
8.253454948e-07
8.253457746e-07
6.86327957e-07
8.248664025e-07
8.253322919e-07
8.253440549e-07
8.253442835e-07
8.253443311e-07
8.253443838e-07
8.253444432e-07
8.253445094e-07
8.253445815e-07
8.253446583e-07
8.253447391e-07
8.253448236e-07
8.253449101e-07
8.253449976e-07
8.253450854e-07
8.253451723e-07
8.253452561e-07
8.253453375e-07
8.253454146e-07
8.25345486e-07
8.253455512e-07
8.25345609e-07
8.25345659e-07
8.253457018e-07
8.253459844e-07
6.863280139e-07
8.248664509e-07
8.253324242e-07
8.253441933e-07
8.253444242e-07
8.253444743e-07
8.253445295e-07
8.253445926e-07
8.25344662e-07
8.253447381e-07
8.253448195e-07
8.253449049e-07
8.253449944e-07
8.253450858e-07
8.253451785e-07
8.253452713e-07
8.253453625e-07
8.253454522e-07
8.253455377e-07
8.253456195e-07
8.253456953e-07
8.253457652e-07
8.253458282e-07
8.253459104e-07
8.253461012e-07
8.253465999e-07
6.863280734e-07
8.248665024e-07
8.253325645e-07
8.253443398e-07
8.253445727e-07
8.253446254e-07
8.253446839e-07
8.253447504e-07
8.253448243e-07
8.253449042e-07
8.253449902e-07
8.253450809e-07
8.253451752e-07
8.253452719e-07
8.253453701e-07
8.253454682e-07
8.253455652e-07
8.2534566e-07
8.253457512e-07
8.253458402e-07
8.253459631e-07
8.253464417e-07
8.253470879e-07
8.253476875e-07
8.253482199e-07
8.253488921e-07
6.863281358e-07
8.248665566e-07
8.253327117e-07
8.253444933e-07
8.253447286e-07
8.253447839e-07
8.253448457e-07
8.253449159e-07
8.253449939e-07
8.253450789e-07
8.253451694e-07
8.253452654e-07
8.253453653e-07
8.253454678e-07
8.253455722e-07
8.253456769e-07
8.253457799e-07
8.253458833e-07
8.253461224e-07
8.253469772e-07
8.253479037e-07
8.253488028e-07
8.253495995e-07
8.253502927e-07
8.25350876e-07
8.253515796e-07
6.863282002e-07
8.24866613e-07
8.253328646e-07
8.253446527e-07
8.253448904e-07
8.253449485e-07
8.253450139e-07
8.253450879e-07
8.253451704e-07
8.253452603e-07
8.253453567e-07
8.253454595e-07
8.25345565e-07
8.25345673e-07
8.253457826e-07
8.253458947e-07
8.253461199e-07
8.253471599e-07
8.253483144e-07
8.253494314e-07
8.253504777e-07
8.253514413e-07
8.253522829e-07
8.253530298e-07
8.253536362e-07
8.253543698e-07
6.863282658e-07
8.248666711e-07
8.25333022e-07
8.25344817e-07
8.253450572e-07
8.253451186e-07
8.253451879e-07
8.253452671e-07
8.253453545e-07
8.25345449e-07
8.2534555e-07
8.253456566e-07
8.25345767e-07
8.253458814e-07
8.253460033e-07
8.25346979e-07
8.253482878e-07
8.253495866e-07
8.253508375e-07
8.253520242e-07
8.253531294e-07
8.253541357e-07
8.253550349e-07
8.253558127e-07
8.253564588e-07
8.253572259e-07
6.863283323e-07
8.248667314e-07
8.253331846e-07
8.253449863e-07
8.253452289e-07
8.253452931e-07
8.253453655e-07
8.253454477e-07
8.253455388e-07
8.253456373e-07
8.253457432e-07
8.253458538e-07
8.253459745e-07
8.253465051e-07
8.253478801e-07
8.253493075e-07
8.253507164e-07
8.253520874e-07
8.253534044e-07
8.253546454e-07
8.2535581e-07
8.253568681e-07
8.253578026e-07
8.253586244e-07
8.253593104e-07
8.253600921e-07
6.863283981e-07
8.248667913e-07
8.253333456e-07
8.253451545e-07
8.253453991e-07
8.253454658e-07
8.253455412e-07
8.25345626e-07
8.253457209e-07
8.253458247e-07
8.253459372e-07
8.253460642e-07
8.253471908e-07
8.253486707e-07
8.253501677e-07
8.253516653e-07
8.253531442e-07
8.253545821e-07
8.253559559e-07
8.253572606e-07
8.253584666e-07
8.253595745e-07
8.253605605e-07
8.253614182e-07
8.253621352e-07
8.253629487e-07
6.863284633e-07
8.248668511e-07
8.253335034e-07
8.253453186e-07
8.253455656e-07
8.253456352e-07
8.253457144e-07
8.253458049e-07
8.253459056e-07
8.2534602e-07
8.25346358e-07
8.253477946e-07
8.253493076e-07
8.253508661e-07
8.253524347e-07
8.253539943e-07
8.253555362e-07
8.253570341e-07
8.253584737e-07
8.253598359e-07
8.253611029e-07
8.253622593e-07
8.253632892e-07
8.253641762e-07
8.253649295e-07
8.253657697e-07
6.863285282e-07
8.248669098e-07
8.253336601e-07
8.253454827e-07
8.253457328e-07
8.253458062e-07
8.253458904e-07
8.253459854e-07
8.253460992e-07
8.253468286e-07
8.253482788e-07
8.253498075e-07
8.253513872e-07
8.25353011e-07
8.253546372e-07
8.253562684e-07
8.253578746e-07
8.253594356e-07
8.253609338e-07
8.253623373e-07
8.253636545e-07
8.253648579e-07
8.253659286e-07
8.253668574e-07
8.253676374e-07
8.253685076e-07
6.863285916e-07
8.248669691e-07
8.253338167e-07
8.25345646e-07
8.253458983e-07
8.253459741e-07
8.253460627e-07
8.253462114e-07
8.25347235e-07
8.253486496e-07
8.253501608e-07
8.253517477e-07
8.253533876e-07
8.253550711e-07
8.253567679e-07
8.253584558e-07
8.253601154e-07
8.253617334e-07
8.25363285e-07
8.253647512e-07
8.253661132e-07
8.253673678e-07
8.25368481e-07
8.253694461e-07
8.253702561e-07
8.253711577e-07
6.863286519e-07
8.248670261e-07
8.253339646e-07
8.253458001e-07
8.253460579e-07
8.253461558e-07
8.25346451e-07
8.253475609e-07
8.253489172e-07
8.253503817e-07
8.253519481e-07
8.253535937e-07
8.253552948e-07
8.253570281e-07
8.253587802e-07
8.253605269e-07
8.25362248e-07
8.253639239e-07
8.253655284e-07
8.253670468e-07
8.253684615e-07
8.253697513e-07
8.253709121e-07
8.253719069e-07
8.253727535e-07
8.253736803e-07
6.8632871e-07
8.248670879e-07
8.253341166e-07
8.253459729e-07
8.253462806e-07
8.253467611e-07
8.253478352e-07
8.25349093e-07
8.253504927e-07
8.253520088e-07
8.253536233e-07
8.253553151e-07
8.253570692e-07
8.253588614e-07
8.253606699e-07
8.253624722e-07
8.253642481e-07
8.253659756e-07
8.253676313e-07
8.253692e-07
8.253706588e-07
8.253719922e-07
8.253731866e-07
8.253742233e-07
8.25375099e-07
8.253760529e-07
6.863287587e-07
8.248672018e-07
8.253343322e-07
8.253463492e-07
8.25347095e-07
8.253480594e-07
8.253492068e-07
8.253505068e-07
8.253519416e-07
8.253534984e-07
8.253551591e-07
8.253569031e-07
8.253587082e-07
8.253605517e-07
8.253624115e-07
8.253642642e-07
8.253660914e-07
8.253678685e-07
8.253695752e-07
8.253711878e-07
8.253726835e-07
8.253740606e-07
8.253752912e-07
8.253763624e-07
8.253772716e-07
8.253785084e-07
6.863287768e-07
8.248675952e-07
8.253349303e-07
8.253472524e-07
8.253482637e-07
8.25349268e-07
8.253504411e-07
8.253517727e-07
8.253532471e-07
8.253548461e-07
8.253565477e-07
8.253583372e-07
8.253601879e-07
8.253620779e-07
8.253639841e-07
8.253658831e-07
8.253677587e-07
8.253695818e-07
8.253713301e-07
8.253729829e-07
8.253745243e-07
8.253759343e-07
8.253772017e-07
8.253783064e-07
8.253795003e-07
6.863287426e-07
8.248683451e-07
8.253358536e-07
8.253482693e-07
8.253492989e-07
8.253503268e-07
8.253515275e-07
8.253528895e-07
8.253543965e-07
8.253560305e-07
8.253577708e-07
8.253595988e-07
8.253614903e-07
8.25363422e-07
8.253653697e-07
8.253673135e-07
8.253692298e-07
8.253710935e-07
8.25372879e-07
8.253745741e-07
8.253761508e-07
8.253775983e-07
8.253788962e-07
8.253800335e-07
8.253812511e-07
6.863286853e-07
8.248691473e-07
8.253367082e-07
8.25349136e-07
8.253501812e-07
8.253512281e-07
8.253524514e-07
8.253538387e-07
8.253553738e-07
8.253570382e-07
8.253588116e-07
8.253606734e-07
8.253626003e-07
8.253645686e-07
8.253665514e-07
8.253685353e-07
8.253704906e-07
8.253723857e-07
8.253742105e-07
8.253759397e-07
8.253775522e-07
8.253790329e-07
8.253803562e-07
8.253815235e-07
8.253827703e-07
6.863286398e-07
8.248698062e-07
8.253373999e-07
8.253498376e-07
8.253508955e-07
8.253519577e-07
8.253531995e-07
8.25354608e-07
8.253561666e-07
8.253578564e-07
8.253596579e-07
8.253615476e-07
8.253635047e-07
8.253655042e-07
8.253675189e-07
8.253695352e-07
8.253715218e-07
8.253734502e-07
8.253753059e-07
8.253770657e-07
8.253787084e-07
8.253802185e-07
8.253815701e-07
8.253827617e-07
8.253840335e-07
6.863286115e-07
8.248703018e-07
8.253379204e-07
8.253503654e-07
8.253514332e-07
8.253525079e-07
8.253537642e-07
8.253551895e-07
8.253567666e-07
8.253584768e-07
8.253603002e-07
8.253622134e-07
8.253641945e-07
8.2536622e-07
8.253682616e-07
8.253703067e-07
8.253723143e-07
8.25374272e-07
8.25376155e-07
8.253779413e-07
8.253796091e-07
8.253811467e-07
8.253825237e-07
8.253837346e-07
8.253847708e-07
8.253860665e-07
6.863288158e-07
8.248708475e-07
8.253384817e-07
8.253509322e-07
8.253520069e-07
8.253530908e-07
8.253543575e-07
8.253557952e-07
8.253573862e-07
8.253591118e-07
8.253609518e-07
8.253628826e-07
8.253648831e-07
8.253669263e-07
8.253689917e-07
8.253710575e-07
8.253730865e-07
8.253750645e-07
8.253769717e-07
8.253787803e-07
8.253804721e-07
8.253820269e-07
8.253834284e-07
8.253846613e-07
8.253857096e-07
8.253868217e-07
5.84998305e-07
7.140020944e-07
7.14330138e-07
7.143352655e-07
7.143354271e-07
7.143355621e-07
7.143357246e-07
7.143359106e-07
7.143361174e-07
7.143363436e-07
7.143365862e-07
7.143368414e-07
7.143371074e-07
7.143373823e-07
7.143376614e-07
7.14337942e-07
7.143382193e-07
7.143384907e-07
7.143387527e-07
7.143389996e-07
7.143392349e-07
7.143394504e-07
7.143396456e-07
7.143398192e-07
7.143399706e-07
7.143403383e-07
5.860908356e-07
1.053785698e-05
1.568840672e-05
1.582509991e-05
1.582800417e-05
1.582925225e-05
1.583069088e-05
1.583231548e-05
1.583411127e-05
1.583605879e-05
1.583813325e-05
1.584031883e-05
1.584257606e-05
1.584489865e-05
1.584722149e-05
1.584954492e-05
1.585185222e-05
1.585407046e-05
1.585620588e-05
1.585817205e-05
1.58600622e-05
1.586173731e-05
1.586322582e-05
1.586448571e-05
1.586553512e-05
1.586642836e-05
5.86208475e-07
1.37220125e-05
2.595755972e-05
2.646942938e-05
2.648193558e-05
2.648555987e-05
2.648960637e-05
2.64941813e-05
2.649924042e-05
2.650473068e-05
2.651059563e-05
2.651672202e-05
2.652310791e-05
2.652966205e-05
2.653621298e-05
2.654278537e-05
2.654917237e-05
2.655547359e-05
2.656149548e-05
2.656712974e-05
2.657235529e-05
2.657711343e-05
2.658131311e-05
2.658487825e-05
2.658783243e-05
2.659019948e-05
5.86210689e-07
1.378335212e-05
2.628279253e-05
2.681726423e-05
2.683056955e-05
2.683440469e-05
2.683864513e-05
2.684346989e-05
2.684879467e-05
2.685457421e-05
2.686074614e-05
2.686722857e-05
2.68739513e-05
2.688079633e-05
2.688769986e-05
2.689461595e-05
2.690133351e-05
2.69079673e-05
2.691430034e-05
2.692025834e-05
2.692574437e-05
2.693075452e-05
2.693517566e-05
2.693893017e-05
2.694203972e-05
2.6944527e-05
5.862108029e-07
1.378561673e-05
2.629374282e-05
2.682908109e-05
2.684252672e-05
2.684648964e-05
2.685089148e-05
2.685589305e-05
2.686140975e-05
2.68674034e-05
2.687375953e-05
2.688043985e-05
2.688738104e-05
2.689443193e-05
2.690161346e-05
2.690870375e-05
2.691573166e-05
2.69225679e-05
2.692910563e-05
2.693526458e-05
2.69409588e-05
2.694613604e-05
2.695072015e-05
2.695462257e-05
2.6957835e-05
2.696038761e-05
5.862109141e-07
1.378759539e-05
2.630100707e-05
2.683676136e-05
2.685034974e-05
2.685448075e-05
2.685905646e-05
2.686422451e-05
2.686994088e-05
2.687614541e-05
2.688276867e-05
2.688973804e-05
2.689693617e-05
2.690429911e-05
2.691173078e-05
2.691914406e-05
2.692642875e-05
2.693353714e-05
2.694033118e-05
2.694673809e-05
2.695267334e-05
2.695805855e-05
2.696285268e-05
2.69669284e-05
2.697027565e-05
2.697294919e-05
5.86211049e-07
1.378989806e-05
2.63093988e-05
2.684561776e-05
2.685934707e-05
2.686364335e-05
2.686843663e-05
2.68738579e-05
2.687982859e-05
2.688632206e-05
2.689324253e-05
2.690051584e-05
2.690804422e-05
2.691573048e-05
2.692350918e-05
2.693123137e-05
2.693884296e-05
2.694628926e-05
2.695338074e-05
2.69600802e-05
2.696629603e-05
2.697192179e-05
2.697698267e-05
2.698124466e-05
2.698475595e-05
2.698759144e-05
5.862112025e-07
1.37925331e-05
2.631898761e-05
2.685572609e-05
2.686963177e-05
2.687412612e-05
2.687915487e-05
2.688483316e-05
2.689110191e-05
2.689789323e-05
2.690515236e-05
2.691272939e-05
2.692061045e-05
2.692864841e-05
2.693680775e-05
2.694492096e-05
2.695298863e-05
2.696069751e-05
2.696818543e-05
2.697522379e-05
2.698177848e-05
2.698770355e-05
2.69930138e-05
2.699751639e-05
2.700125003e-05
2.700427023e-05
5.862113733e-07
1.37954681e-05
2.632966925e-05
2.686699136e-05
2.688105941e-05
2.688576028e-05
2.689101478e-05
2.689696231e-05
2.690354367e-05
2.691068115e-05
2.69183172e-05
2.692633507e-05
2.693464673e-05
2.694313635e-05
2.695172383e-05
2.69603078e-05
2.696871608e-05
2.697690498e-05
2.698479384e-05
2.699222113e-05
2.699908458e-05
2.700540419e-05
2.70109356e-05
2.701570238e-05
2.70195851e-05
2.702277976e-05
5.862115593e-07
1.379865016e-05
2.634126833e-05
2.687920789e-05
2.689349828e-05
2.689844887e-05
2.690400712e-05
2.691029717e-05
2.691726211e-05
2.692481653e-05
2.693287074e-05
2.694133448e-05
2.695010624e-05
2.695908856e-05
2.696812601e-05
2.697717468e-05
2.69860825e-05
2.699473414e-05
2.700306534e-05
2.701090928e-05
2.701818668e-05
2.702480494e-05
2.703067552e-05
2.703572226e-05
2.703985934e-05
2.704320584e-05
5.862117613e-07
1.380211231e-05
2.635389227e-05
2.689251175e-05
2.690701964e-05
2.691223662e-05
2.691811882e-05
2.692474784e-05
2.693210417e-05
2.694009098e-05
2.694859669e-05
2.695752484e-05
2.696680357e-05
2.697628856e-05
2.698586388e-05
2.699543363e-05
2.70048704e-05
2.701397233e-05
2.702277193e-05
2.70310818e-05
2.703878288e-05
2.704578585e-05
2.705200423e-05
2.705736921e-05
2.70617174e-05
2.706529297e-05
5.86211979e-07
1.380579792e-05
2.636731701e-05
2.690667492e-05
2.692142618e-05
2.692692639e-05
2.693311442e-05
2.694014509e-05
2.694789118e-05
2.695632608e-05
2.696532879e-05
2.697476991e-05
2.698459599e-05
2.69946189e-05
2.700475841e-05
2.701487119e-05
2.702479735e-05
2.703450205e-05
2.704376536e-05
2.705256752e-05
2.706071558e-05
2.706812488e-05
2.707469111e-05
2.708016967e-05
2.708379069e-05
2.708593881e-05
5.862122112e-07
1.380967109e-05
2.63814332e-05
2.692154811e-05
2.693653942e-05
2.694233423e-05
2.694888366e-05
2.695630042e-05
2.69645201e-05
2.697340514e-05
2.698292427e-05
2.699292311e-05
2.700328646e-05
2.7013893e-05
2.702460786e-05
2.7035296e-05
2.704582369e-05
2.705607472e-05
2.706589297e-05
2.707518206e-05
2.708351006e-05
2.708824294e-05
2.709048195e-05
2.709184886e-05
2.709260757e-05
2.709320189e-05
5.862124531e-07
1.381369612e-05
2.639610705e-05
2.693700748e-05
2.69522565e-05
2.695835227e-05
2.696526726e-05
2.697310366e-05
2.698177588e-05
2.699119768e-05
2.700122014e-05
2.701179606e-05
2.702275366e-05
2.703396236e-05
2.704531163e-05
2.705665245e-05
2.706777318e-05
2.707856779e-05
2.708785584e-05
2.709146641e-05
2.709329052e-05
2.709422502e-05
2.709491651e-05
2.70954263e-05
2.709582061e-05
2.709626022e-05
5.862126993e-07
1.381783273e-05
2.641119404e-05
2.695290159e-05
2.696841542e-05
2.697482935e-05
2.698212841e-05
2.699038556e-05
2.699954905e-05
2.700949282e-05
2.702010929e-05
2.703133701e-05
2.70428944e-05
2.70547007e-05
2.706663944e-05
2.707848462e-05
2.708927994e-05
2.709296011e-05
2.709442949e-05
2.709535808e-05
2.709615328e-05
2.709684963e-05
2.709742414e-05
2.70979102e-05
2.709828171e-05
2.709871978e-05
5.862129535e-07
1.382203869e-05
2.642655904e-05
2.696909237e-05
2.698488479e-05
2.699163814e-05
2.699934609e-05
2.700810333e-05
2.701776832e-05
2.702822958e-05
2.703937957e-05
2.705110579e-05
2.706322732e-05
2.707560125e-05
2.708800997e-05
2.709342576e-05
2.709492482e-05
2.709596635e-05
2.709689216e-05
2.70977184e-05
2.709845775e-05
2.709910996e-05
2.709967418e-05
2.710012537e-05
2.71004848e-05
2.710091218e-05
5.862132117e-07
1.382631327e-05
2.644214575e-05
2.698550907e-05
2.700157051e-05
2.700864201e-05
2.701671214e-05
2.702585247e-05
2.7035965e-05
2.70469052e-05
2.7058601e-05
2.707083944e-05
2.708348983e-05
2.709318551e-05
2.709506944e-05
2.709624317e-05
2.709726535e-05
2.709817812e-05
2.709903329e-05
2.709977189e-05
2.710040212e-05
2.710091894e-05
2.71013637e-05
2.710175047e-05
2.710207408e-05
2.710247998e-05
5.862134719e-07
1.383052389e-05
2.645753211e-05
2.700173387e-05
2.701804499e-05
2.70254139e-05
2.703384398e-05
2.704335578e-05
2.705392452e-05
2.706541866e-05
2.707768069e-05
2.70904744e-05
2.709497763e-05
2.709621773e-05
2.709726352e-05
2.709825267e-05
2.709914846e-05
2.7099894e-05
2.710054641e-05
2.710115234e-05
2.710170342e-05
2.710220685e-05
2.710265588e-05
2.710304655e-05
2.710337783e-05
2.710379803e-05
5.862137176e-07
1.383465159e-05
2.647255141e-05
2.70175468e-05
2.703412678e-05
2.704181689e-05
2.705064694e-05
2.706067497e-05
2.707178981e-05
2.708382887e-05
2.709450731e-05
2.709596432e-05
2.709703569e-05
2.709807678e-05
2.709893307e-05
2.70996807e-05
2.710039305e-05
2.710106992e-05
2.710172046e-05
2.710234027e-05
2.710291472e-05
2.710343529e-05
2.710389893e-05
2.710430323e-05
2.710464651e-05
2.710507991e-05
5.862139721e-07
1.383864685e-05
2.64872477e-05
2.703306972e-05
2.704994693e-05
2.705800154e-05
2.70672776e-05
2.707772094e-05
2.708908569e-05
2.70955828e-05
2.709670953e-05
2.709768135e-05
2.70985143e-05
2.70992853e-05
2.710001551e-05
2.71007481e-05
2.710147077e-05
2.710216493e-05
2.710283148e-05
2.710346634e-05
2.710405828e-05
2.710460384e-05
2.710509023e-05
2.710551414e-05
2.710587493e-05
2.710632092e-05
5.862142199e-07
1.384256414e-05
2.650157376e-05
2.704817487e-05
2.706529388e-05
2.707360402e-05
2.708308129e-05
2.709307495e-05
2.709632317e-05
2.709723574e-05
2.709801607e-05
2.709875641e-05
2.70994892e-05
2.710024047e-05
2.710098735e-05
2.710173283e-05
2.710247265e-05
2.710319629e-05
2.710389305e-05
2.710455491e-05
2.710517351e-05
2.710573929e-05
2.710624733e-05
2.71066911e-05
2.710706841e-05
2.710752675e-05
5.862144567e-07
1.384624332e-05
2.651501082e-05
2.70623238e-05
2.707963982e-05
2.708789079e-05
2.709519058e-05
2.709681135e-05
2.7097516e-05
2.709819052e-05
2.709888649e-05
2.709960919e-05
2.710035042e-05
2.710111405e-05
2.710188878e-05
2.710266552e-05
2.710343497e-05
2.710418526e-05
2.710490964e-05
2.710559701e-05
2.710623987e-05
2.710682847e-05
2.71073574e-05
2.710781735e-05
2.710821084e-05
2.710868394e-05
5.862146904e-07
1.384966925e-05
2.652744571e-05
2.707511029e-05
2.709178981e-05
2.709619712e-05
2.709709973e-05
2.709766643e-05
2.709828276e-05
2.709893824e-05
2.709963771e-05
2.710037775e-05
2.710114795e-05
2.71019389e-05
2.710274134e-05
2.710354564e-05
2.710434128e-05
2.710511881e-05
2.71058686e-05
2.710658043e-05
2.710724591e-05
2.710785663e-05
2.710840496e-05
2.710888267e-05
2.710929194e-05
2.710978197e-05
5.862149066e-07
1.385252243e-05
2.653744698e-05
2.708384478e-05
2.70965315e-05
2.709725683e-05
2.7097754e-05
2.709830968e-05
2.70989294e-05
2.709960502e-05
2.710032891e-05
2.710109277e-05
2.71018875e-05
2.710270354e-05
2.71035315e-05
2.710436091e-05
2.710518254e-05
2.710598466e-05
2.710675855e-05
2.710749356e-05
2.710818089e-05
2.710881123e-05
2.710937891e-05
2.710987384e-05
2.711030887e-05
2.711093978e-05
5.862151193e-07
1.385422274e-05
2.654217626e-05
2.708637578e-05
2.709720985e-05
2.709780037e-05
2.709830603e-05
2.709887975e-05
2.709951757e-05
2.71002125e-05
2.710095655e-05
2.710174199e-05
2.710255894e-05
2.71033982e-05
2.710424937e-05
2.710510214e-05
2.710594669e-05
2.710677235e-05
2.710756821e-05
2.710832493e-05
2.71090327e-05
2.710968257e-05
2.711026868e-05
2.711078711e-05
2.711138229e-05
5.862153456e-07
1.385476333e-05
2.654317949e-05
2.708685315e-05
2.709767752e-05
2.709827883e-05
2.709879693e-05
2.709938468e-05
2.710003799e-05
2.710074979e-05
2.71015121e-05
2.710231639e-05
2.710315333e-05
2.710401324e-05
2.710488549e-05
2.710575966e-05
2.710662534e-05
2.710747163e-05
2.710828803e-05
2.710906469e-05
2.710979124e-05
2.711045944e-05
2.711106274e-05
2.711159451e-05
2.711220493e-05
5.862155848e-07
1.385489234e-05
2.654354732e-05
2.708724556e-05
2.70980778e-05
2.709868796e-05
2.709921663e-05
2.709981635e-05
2.710048303e-05
2.710120947e-05
2.710198763e-05
2.71028083e-05
2.710366286e-05
2.710454085e-05
2.710543166e-05
2.710632436e-05
2.710720932e-05
2.710807403e-05
2.710890889e-05
2.710970348e-05
2.711044774e-05
2.711113366e-05
2.711174806e-05
2.711229454e-05
2.711291791e-05
5.862157943e-07
1.385498333e-05
2.654384686e-05
2.708756521e-05
2.709840392e-05
2.709902144e-05
2.709955874e-05
2.710016847e-05
2.710084636e-05
2.710158503e-05
2.710237634e-05
2.710321108e-05
2.710408075e-05
2.7104974e-05
2.710588083e-05
2.710678949e-05
2.710769009e-05
2.710857192e-05
2.710942271e-05
2.711023322e-05
2.711099302e-05
2.711169235e-05
2.711232064e-05
2.711287919e-05
2.711351558e-05
5.862159719e-07
1.385505695e-05
2.654407834e-05
2.708781158e-05
2.70986553e-05
2.709927864e-05
2.709982272e-05
2.710044042e-05
2.710112714e-05
2.71018756e-05
2.710267755e-05
2.710352379e-05
2.710440509e-05
2.710531103e-05
2.710623087e-05
2.71071533e-05
2.710806723e-05
2.710896233e-05
2.710982713e-05
2.711065158e-05
2.711142513e-05
2.711213507e-05
2.711277666e-05
2.71133415e-05
2.711383682e-05
2.711451448e-05
5.862163241e-07
1.385518448e-05
2.654437126e-05
2.708811335e-05
2.70989604e-05
2.709958795e-05
2.710013705e-05
2.710076039e-05
2.710145366e-05
2.710220938e-05
2.710301926e-05
2.710387423e-05
2.710476417e-05
2.71056799e-05
2.710660975e-05
2.710754273e-05
2.710846766e-05
2.710937325e-05
2.711024995e-05
2.711108478e-05
2.711186922e-05
2.711259132e-05
2.711324235e-05
2.711381723e-05
2.711431242e-05
2.71148749e-05
5.849389546e-07
7.140361554e-07
7.14479673e-07
7.144895581e-07
7.144898228e-07
7.144899755e-07
7.144901563e-07
7.144903658e-07
7.144906004e-07
7.144908579e-07
7.144911339e-07
7.144914227e-07
7.144917214e-07
7.144920276e-07
7.144923337e-07
7.144926424e-07
7.144929454e-07
7.14493245e-07
7.144935346e-07
7.144938104e-07
7.1449407e-07
7.144943108e-07
7.144945297e-07
7.144947245e-07
7.144948938e-07
7.144952786e-07
5.860901079e-07
1.290056208e-05
2.277810351e-05
2.314934717e-05
2.31561772e-05
2.315643256e-05
2.315661777e-05
2.315682689e-05
2.315705844e-05
2.315731061e-05
2.315758052e-05
2.315786421e-05
2.315815955e-05
2.31584641e-05
2.315877035e-05
2.315907907e-05
2.315938164e-05
2.315967934e-05
2.315996586e-05
2.316023605e-05
2.316048836e-05
2.316072058e-05
2.316092817e-05
2.316110795e-05
2.316126282e-05
2.316152471e-05
5.862798691e-07
1.863044423e-05
7.745353718e-05
8.671112644e-05
8.706403763e-05
8.707545221e-05
8.70780648e-05
8.708080641e-05
8.708384059e-05
8.70871387e-05
8.709066439e-05
8.709436242e-05
8.709821213e-05
8.710216983e-05
8.710614394e-05
8.711013496e-05
8.71140341e-05
8.711786752e-05
8.712153945e-05
8.712499705e-05
8.71281834e-05
8.713110636e-05
8.713368946e-05
8.713589427e-05
8.713769432e-05
8.713937409e-05
5.862842064e-07
1.877611462e-05
8.32899047e-05
9.481569928e-05
9.52845348e-05
9.530009516e-05
9.530338684e-05
9.530681507e-05
9.531060053e-05
9.531471492e-05
9.531911134e-05
9.532373436e-05
9.532853731e-05
9.533344256e-05
9.533840345e-05
9.534336604e-05
9.534823246e-05
9.535300493e-05
9.535757346e-05
9.536187959e-05
9.536585598e-05
9.536948181e-05
9.537268936e-05
9.537542683e-05
9.537764288e-05
9.537953087e-05
5.862844199e-07
1.877838915e-05
8.346925518e-05
9.508618366e-05
9.556024807e-05
9.557607939e-05
9.557950782e-05
9.558307049e-05
9.55870145e-05
9.559129995e-05
9.559586563e-05
9.560066926e-05
9.560566036e-05
9.561076012e-05
9.561593723e-05
9.562109379e-05
9.562618083e-05
9.563113553e-05
9.563587886e-05
9.564035452e-05
9.564450137e-05
9.564827224e-05
9.565161832e-05
9.565447817e-05
9.565679527e-05
9.565871922e-05
5.862846093e-07
1.877860688e-05
8.347695886e-05
9.509760687e-05
9.557195949e-05
9.558791327e-05
9.559146773e-05
9.559516663e-05
9.559926105e-05
9.560371325e-05
9.560847086e-05
9.561348484e-05
9.561867257e-05
9.562398097e-05
9.562935206e-05
9.563470066e-05
9.563997407e-05
9.56451298e-05
9.565005991e-05
9.565471441e-05
9.565903308e-05
9.566295059e-05
9.566644764e-05
9.566941633e-05
9.567185687e-05
9.567387071e-05
5.862848262e-07
1.877883383e-05
8.348154476e-05
9.510387199e-05
9.557841002e-05
9.559448953e-05
9.559820264e-05
9.560208817e-05
9.560636976e-05
9.561102541e-05
9.561598907e-05
9.562120934e-05
9.562662044e-05
9.563217e-05
9.56377702e-05
9.564334785e-05
9.564886024e-05
9.565422644e-05
9.565937883e-05
9.566424458e-05
9.566876536e-05
9.567288459e-05
9.567651888e-05
9.567965618e-05
9.568222719e-05
9.568435235e-05
5.862850767e-07
1.877909315e-05
8.348674219e-05
9.511094042e-05
9.558568316e-05
9.560190882e-05
9.560578106e-05
9.560984293e-05
9.561432404e-05
9.561917608e-05
9.562437125e-05
9.562982458e-05
9.563549235e-05
9.564129278e-05
9.564717317e-05
9.565304156e-05
9.565883173e-05
9.566445738e-05
9.566987582e-05
9.567499027e-05
9.567973032e-05
9.568406154e-05
9.568787143e-05
9.569115989e-05
9.569389113e-05
9.569612893e-05
5.862853606e-07
1.877938532e-05
8.349251544e-05
9.511878196e-05
9.559373574e-05
9.56101066e-05
9.561415509e-05
9.561841179e-05
9.562312513e-05
9.562824365e-05
9.563371397e-05
9.563947344e-05
9.564544779e-05
9.565156004e-05
9.565775562e-05
9.566394292e-05
9.567002814e-05
9.56759549e-05
9.56816689e-05
9.568705657e-05
9.569205814e-05
9.569659724e-05
9.570063493e-05
9.570410482e-05
9.57069437e-05
9.570931656e-05
5.862856703e-07
1.877970205e-05
8.349882397e-05
9.51273569e-05
9.560256205e-05
9.561911895e-05
9.562337324e-05
9.562787599e-05
9.563285127e-05
9.563825964e-05
9.564403261e-05
9.565011215e-05
9.565641589e-05
9.566287478e-05
9.566939749e-05
9.567592377e-05
9.56823529e-05
9.568862316e-05
9.569464612e-05
9.570033109e-05
9.570561152e-05
9.571041204e-05
9.571467881e-05
9.571834631e-05
9.572136933e-05
9.572385742e-05
5.86286003e-07
1.878004594e-05
8.350568363e-05
9.513667918e-05
9.561215119e-05
9.562889824e-05
9.56333826e-05
9.563812869e-05
9.564339063e-05
9.564910093e-05
9.565520219e-05
9.566161714e-05
9.566828029e-05
9.567510363e-05
9.568199929e-05
9.568890172e-05
9.569570827e-05
9.570231014e-05
9.57086725e-05
9.571468862e-05
9.572027207e-05
9.572535373e-05
9.572987025e-05
9.573376494e-05
9.573694849e-05
9.573958889e-05
5.86286355e-07
1.878041218e-05
8.351300387e-05
9.514662764e-05
9.562238511e-05
9.563933861e-05