/*--------------------------------*- C++ -*----------------------------------*\
  =========                 |
  \\      /  F ield         | OpenFOAM: The Open Source CFD Toolbox
   \\    /   O peration     | Website:  https://openfoam.org
    \\  /    A nd           | Version:  8
     \\/     M anipulation  |
\*---------------------------------------------------------------------------*/
FoamFile
{
    version     2.0;
    format      ascii;
    class       volScalarField;
    location    "0.1";
    object      N2;
}
// * * * * * * * * * * * * * * * * * * * * * * * * * * * * * * * * * * * * * //

dimensions      [0 0 0 0 0 0 0];

internalField   nonuniform List<scalar> 
67410
(
0.7899935309
0.7899935309
0.7899935308
0.7899935307
0.7899935305
0.7899935304
0.7899935301
0.7899935298
0.7899935295
0.7899935292
0.7899935289
0.7899935285
0.7899935281
0.7899935277
0.7899935273
0.7899935269
0.7899935265
0.7899935261
0.7899935257
0.7899935253
0.7899935249
0.7899935245
0.7899935241
0.7899935237
0.7899935233
0.7899935229
0.7899935309
0.7899935335
0.7899935344
0.7899935344
0.7899935342
0.789993534
0.7899935338
0.7899935335
0.7899935332
0.7899935328
0.7899935325
0.7899935321
0.7899935317
0.7899935313
0.7899935309
0.7899935305
0.7899935301
0.7899935297
0.7899935293
0.7899935289
0.7899935285
0.7899935281
0.7899935277
0.7899935273
0.7899935269
0.7899935265
0.7899935308
0.7899935341
0.7899935362
0.7899935361
0.789993536
0.7899935358
0.7899935355
0.7899935353
0.789993535
0.7899935346
0.7899935343
0.7899935339
0.7899935335
0.7899935331
0.7899935327
0.7899935323
0.7899935319
0.7899935315
0.7899935311
0.7899935307
0.7899935303
0.7899935299
0.7899935295
0.7899935291
0.7899935287
0.7899935283
0.7899935306
0.7899935339
0.7899935361
0.7899935361
0.7899935359
0.7899935357
0.7899935354
0.7899935352
0.7899935349
0.7899935345
0.7899935342
0.7899935338
0.7899935334
0.789993533
0.7899935326
0.7899935322
0.7899935318
0.7899935314
0.789993531
0.7899935305
0.7899935301
0.7899935297
0.7899935294
0.789993529
0.7899935285
0.7899935282
0.7899935305
0.7899935338
0.7899935359
0.7899935359
0.7899935357
0.7899935355
0.7899935353
0.789993535
0.7899935347
0.7899935343
0.789993534
0.7899935336
0.7899935332
0.7899935328
0.7899935324
0.789993532
0.7899935316
0.7899935312
0.7899935307
0.7899935303
0.7899935299
0.7899935295
0.7899935291
0.7899935287
0.7899935283
0.7899935279
0.7899935303
0.7899935335
0.7899935357
0.7899935357
0.7899935355
0.7899935353
0.789993535
0.7899935348
0.7899935344
0.7899935341
0.7899935337
0.7899935334
0.789993533
0.7899935326
0.7899935321
0.7899935317
0.7899935313
0.7899935309
0.7899935305
0.7899935301
0.7899935296
0.7899935292
0.7899935288
0.7899935284
0.789993528
0.7899935276
0.78999353
0.7899935333
0.7899935355
0.7899935354
0.7899935352
0.789993535
0.7899935348
0.7899935345
0.7899935342
0.7899935338
0.7899935335
0.7899935331
0.7899935327
0.7899935323
0.7899935319
0.7899935314
0.789993531
0.7899935306
0.7899935302
0.7899935298
0.7899935293
0.7899935289
0.7899935285
0.7899935281
0.7899935277
0.7899935273
0.7899935297
0.789993533
0.7899935352
0.7899935351
0.7899935349
0.7899935347
0.7899935345
0.7899935342
0.7899935339
0.7899935335
0.7899935331
0.7899935328
0.7899935324
0.789993532
0.7899935315
0.7899935311
0.7899935307
0.7899935303
0.7899935298
0.7899935294
0.789993529
0.7899935286
0.7899935282
0.7899935278
0.7899935273
0.7899935269
0.7899935294
0.7899935327
0.7899935349
0.7899935348
0.7899935346
0.7899935344
0.7899935341
0.7899935338
0.7899935335
0.7899935332
0.7899935328
0.7899935324
0.789993532
0.7899935316
0.7899935312
0.7899935308
0.7899935303
0.7899935299
0.7899935295
0.7899935291
0.7899935286
0.7899935282
0.7899935278
0.7899935274
0.7899935269
0.7899935266
0.7899935291
0.7899935324
0.7899935345
0.7899935345
0.7899935343
0.7899935341
0.7899935338
0.7899935335
0.7899935332
0.7899935328
0.7899935324
0.789993532
0.7899935316
0.7899935312
0.7899935308
0.7899935304
0.7899935299
0.7899935295
0.7899935291
0.7899935287
0.7899935282
0.7899935278
0.7899935274
0.789993527
0.7899935265
0.7899935261
0.7899935287
0.789993532
0.7899935342
0.7899935341
0.7899935339
0.7899935337
0.7899935334
0.7899935331
0.7899935328
0.7899935324
0.789993532
0.7899935317
0.7899935312
0.7899935308
0.7899935304
0.78999353
0.7899935295
0.7899935291
0.7899935287
0.7899935282
0.7899935278
0.7899935274
0.789993527
0.7899935265
0.7899935261
0.7899935257
0.7899935284
0.7899935316
0.7899935338
0.7899935337
0.7899935335
0.7899935333
0.789993533
0.7899935327
0.7899935324
0.789993532
0.7899935316
0.7899935312
0.7899935308
0.7899935304
0.78999353
0.7899935295
0.7899935291
0.7899935287
0.7899935282
0.7899935278
0.7899935274
0.7899935269
0.7899935265
0.7899935261
0.7899935256
0.7899935252
0.7899935279
0.7899935312
0.7899935334
0.7899935333
0.7899935331
0.7899935329
0.7899935326
0.7899935323
0.7899935319
0.7899935316
0.7899935312
0.7899935308
0.7899935304
0.78999353
0.7899935295
0.7899935291
0.7899935287
0.7899935282
0.7899935278
0.7899935273
0.7899935269
0.7899935265
0.789993526
0.7899935256
0.7899935251
0.7899935248
0.7899935275
0.7899935308
0.789993533
0.7899935329
0.7899935327
0.7899935324
0.7899935321
0.7899935318
0.7899935315
0.7899935311
0.7899935307
0.7899935303
0.7899935299
0.7899935295
0.7899935291
0.7899935286
0.7899935282
0.7899935277
0.7899935273
0.7899935268
0.7899935264
0.789993526
0.7899935255
0.7899935251
0.7899935247
0.7899935243
0.7899935271
0.7899935303
0.7899935325
0.7899935324
0.7899935322
0.789993532
0.7899935317
0.7899935314
0.789993531
0.7899935307
0.7899935303
0.7899935299
0.7899935295
0.789993529
0.7899935286
0.7899935282
0.7899935277
0.7899935273
0.7899935268
0.7899935264
0.7899935259
0.7899935255
0.789993525
0.7899935246
0.7899935241
0.7899935238
0.7899935266
0.7899935299
0.789993532
0.7899935319
0.7899935317
0.7899935315
0.7899935312
0.7899935309
0.7899935305
0.7899935302
0.7899935298
0.7899935294
0.789993529
0.7899935285
0.7899935281
0.7899935277
0.7899935272
0.7899935268
0.7899935263
0.7899935259
0.7899935254
0.789993525
0.7899935245
0.7899935241
0.7899935236
0.7899935232
0.7899935261
0.7899935294
0.7899935315
0.7899935314
0.7899935312
0.789993531
0.7899935307
0.7899935304
0.7899935301
0.7899935297
0.7899935293
0.7899935289
0.7899935285
0.789993528
0.7899935276
0.7899935272
0.7899935267
0.7899935263
0.7899935258
0.7899935253
0.7899935249
0.7899935244
0.789993524
0.7899935236
0.7899935231
0.7899935227
0.7899935256
0.7899935288
0.789993531
0.7899935309
0.7899935307
0.7899935305
0.7899935302
0.7899935299
0.7899935295
0.7899935292
0.7899935288
0.7899935284
0.789993528
0.7899935275
0.7899935271
0.7899935267
0.7899935262
0.7899935257
0.7899935253
0.7899935248
0.7899935244
0.7899935239
0.7899935235
0.789993523
0.7899935225
0.7899935221
0.789993525
0.7899935283
0.7899935305
0.7899935304
0.7899935302
0.78999353
0.7899935297
0.7899935294
0.789993529
0.7899935287
0.7899935283
0.7899935279
0.7899935275
0.789993527
0.7899935266
0.7899935261
0.7899935257
0.7899935252
0.7899935247
0.7899935243
0.7899935238
0.7899935234
0.7899935229
0.7899935225
0.789993522
0.7899935216
0.7899935245
0.7899935278
0.7899935299
0.7899935299
0.7899935297
0.7899935294
0.7899935292
0.7899935289
0.7899935285
0.7899935282
0.7899935278
0.7899935274
0.7899935269
0.7899935265
0.7899935261
0.7899935256
0.7899935252
0.7899935247
0.7899935242
0.7899935237
0.7899935233
0.7899935228
0.7899935224
0.7899935219
0.7899935214
0.789993521
0.789993524
0.7899935272
0.7899935294
0.7899935293
0.7899935292
0.7899935289
0.7899935287
0.7899935283
0.789993528
0.7899935276
0.7899935273
0.7899935269
0.7899935264
0.789993526
0.7899935256
0.7899935251
0.7899935246
0.7899935242
0.7899935237
0.7899935232
0.7899935227
0.7899935223
0.7899935218
0.7899935214
0.7899935209
0.7899935205
0.7899935234
0.7899935267
0.7899935289
0.7899935288
0.7899935286
0.7899935284
0.7899935281
0.7899935278
0.7899935275
0.7899935271
0.7899935267
0.7899935263
0.7899935259
0.7899935255
0.789993525
0.7899935246
0.7899935241
0.7899935236
0.7899935232
0.7899935227
0.7899935222
0.7899935217
0.7899935213
0.7899935208
0.7899935203
0.7899935199
0.7899935229
0.7899935262
0.7899935284
0.7899935283
0.7899935281
0.7899935279
0.7899935276
0.7899935273
0.789993527
0.7899935266
0.7899935262
0.7899935258
0.7899935254
0.789993525
0.7899935245
0.789993524
0.7899935236
0.7899935231
0.7899935226
0.7899935221
0.7899935217
0.7899935212
0.7899935207
0.7899935203
0.7899935197
0.7899935193
0.7899935224
0.7899935257
0.7899935278
0.7899935278
0.7899935276
0.7899935274
0.7899935271
0.7899935268
0.7899935265
0.7899935261
0.7899935257
0.7899935253
0.7899935249
0.7899935245
0.789993524
0.7899935235
0.7899935231
0.7899935226
0.7899935221
0.7899935216
0.7899935211
0.7899935207
0.7899935202
0.7899935197
0.7899935192
0.7899935188
0.7899935219
0.7899935252
0.7899935273
0.7899935273
0.7899935271
0.7899935269
0.7899935266
0.7899935263
0.789993526
0.7899935256
0.7899935253
0.7899935248
0.7899935244
0.789993524
0.7899935235
0.789993523
0.7899935225
0.789993522
0.7899935216
0.7899935211
0.7899935206
0.7899935201
0.7899935197
0.7899935192
0.7899935187
0.7899935214
0.7899935247
0.7899935269
0.7899935268
0.7899935266
0.7899935264
0.7899935261
0.7899935259
0.7899935255
0.7899935252
0.7899935248
0.7899935244
0.7899935239
0.7899935235
0.789993523
0.7899935225
0.789993522
0.7899935215
0.7899935211
0.7899935206
0.7899935201
0.7899935196
0.7899935192
0.7899935187
0.7899935183
0.7899935209
0.7899935242
0.7899935264
0.7899935263
0.7899935262
0.7899935259
0.7899935257
0.7899935254
0.7899935251
0.7899935247
0.7899935243
0.7899935239
0.7899935234
0.789993523
0.7899935225
0.789993522
0.7899935215
0.7899935211
0.7899935206
0.7899935201
0.7899935196
0.7899935191
0.7899935187
0.7899935182
0.7899935178
0.7899935204
0.7899935237
0.7899935259
0.7899935259
0.7899935257
0.7899935255
0.7899935252
0.7899935249
0.7899935246
0.7899935242
0.7899935238
0.7899935234
0.789993523
0.7899935225
0.789993522
0.7899935216
0.7899935211
0.7899935206
0.7899935201
0.7899935196
0.7899935191
0.7899935187
0.7899935182
0.7899935177
0.7899935173
0.78999352
0.7899935233
0.7899935255
0.7899935254
0.7899935252
0.789993525
0.7899935248
0.7899935245
0.7899935241
0.7899935238
0.7899935234
0.7899935229
0.7899935225
0.789993522
0.7899935215
0.7899935211
0.7899935206
0.7899935201
0.7899935196
0.7899935191
0.7899935186
0.7899935182
0.7899935177
0.7899935173
0.7899935168
0.7899935164
0.7899935196
0.7899935229
0.789993525
0.789993525
0.7899935248
0.7899935246
0.7899935243
0.789993524
0.7899935237
0.7899935233
0.7899935229
0.7899935225
0.7899935221
0.7899935216
0.7899935211
0.7899935206
0.7899935201
0.7899935196
0.7899935191
0.7899935186
0.7899935182
0.7899935177
0.7899935173
0.7899935168
0.7899935164
0.789993516
0.7899939005
0.7899939005
0.7899939004
0.7899939003
0.7899939001
0.7899938999
0.7899938997
0.7899938994
0.7899938991
0.7899938988
0.7899938985
0.7899938981
0.7899938977
0.7899938973
0.7899938969
0.7899938965
0.7899938961
0.7899938957
0.7899938953
0.7899938949
0.7899938945
0.7899938941
0.7899938937
0.7899938933
0.7899938929
0.7899938925
0.7899939005
0.7899939017
0.7899939025
0.7899939025
0.7899939023
0.7899939021
0.7899939019
0.7899939016
0.7899939013
0.789993901
0.7899939006
0.7899939003
0.7899938999
0.7899938995
0.7899938991
0.7899938987
0.7899938983
0.7899938979
0.7899938975
0.7899938971
0.7899938967
0.7899938963
0.7899938959
0.7899938955
0.7899938951
0.7899938948
0.7899939004
0.7899939022
0.7899939061
0.7899939064
0.7899939063
0.7899939061
0.7899939058
0.7899939056
0.7899939053
0.789993905
0.7899939046
0.7899939042
0.7899939039
0.7899939035
0.7899939031
0.7899939027
0.7899939022
0.7899939018
0.7899939014
0.789993901
0.7899939006
0.7899939002
0.7899938998
0.7899938994
0.789993899
0.7899938988
0.7899939003
0.7899939021
0.7899939063
0.7899939066
0.7899939065
0.7899939063
0.7899939061
0.7899939058
0.7899939055
0.7899939052
0.7899939048
0.7899939044
0.7899939041
0.7899939037
0.7899939033
0.7899939029
0.7899939024
0.789993902
0.7899939016
0.7899939012
0.7899939008
0.7899939004
0.7899939
0.7899938996
0.7899938992
0.789993899
0.7899939001
0.7899939019
0.7899939061
0.7899939065
0.7899939063
0.7899939061
0.7899939059
0.7899939056
0.7899939053
0.789993905
0.7899939046
0.7899939043
0.7899939039
0.7899939035
0.7899939031
0.7899939027
0.7899939022
0.7899939018
0.7899939014
0.789993901
0.7899939006
0.7899939002
0.7899938998
0.7899938994
0.789993899
0.7899938987
0.7899938999
0.7899939017
0.7899939059
0.7899939063
0.7899939061
0.7899939059
0.7899939057
0.7899939054
0.7899939051
0.7899939047
0.7899939044
0.789993904
0.7899939036
0.7899939032
0.7899939028
0.7899939024
0.789993902
0.7899939016
0.7899939012
0.7899939008
0.7899939003
0.7899938999
0.7899938995
0.7899938991
0.7899938987
0.7899938985
0.7899938996
0.7899939015
0.7899939057
0.789993906
0.7899939059
0.7899939057
0.7899939054
0.7899939051
0.7899939048
0.7899939045
0.7899939041
0.7899939037
0.7899939034
0.789993903
0.7899939025
0.7899939021
0.7899939017
0.7899939013
0.7899939009
0.7899939005
0.7899939
0.7899938996
0.7899938992
0.7899938988
0.7899938984
0.7899938981
0.7899938994
0.7899939012
0.7899939054
0.7899939057
0.7899939056
0.7899939054
0.7899939051
0.7899939048
0.7899939045
0.7899939042
0.7899939038
0.7899939034
0.7899939031
0.7899939027
0.7899939022
0.7899939018
0.7899939014
0.789993901
0.7899939006
0.7899939001
0.7899938997
0.7899938993
0.7899938989
0.7899938985
0.789993898
0.7899938978
0.7899938991
0.7899939009
0.7899939051
0.7899939054
0.7899939053
0.7899939051
0.7899939048
0.7899939045
0.7899939042
0.7899939039
0.7899939035
0.7899939031
0.7899939027
0.7899939023
0.7899939019
0.7899939015
0.7899939011
0.7899939006
0.7899939002
0.7899938998
0.7899938993
0.7899938989
0.7899938985
0.7899938981
0.7899938977
0.7899938974
0.7899938988
0.7899939006
0.7899939048
0.7899939051
0.7899939049
0.7899939047
0.7899939045
0.7899939042
0.7899939038
0.7899939035
0.7899939031
0.7899939027
0.7899939024
0.7899939019
0.7899939015
0.7899939011
0.7899939007
0.7899939003
0.7899938998
0.7899938994
0.789993899
0.7899938985
0.7899938981
0.7899938977
0.7899938973
0.789993897
0.7899938984
0.7899939002
0.7899939044
0.7899939048
0.7899939046
0.7899939044
0.7899939041
0.7899939038
0.7899939035
0.7899939031
0.7899939028
0.7899939024
0.789993902
0.7899939016
0.7899939011
0.7899939007
0.7899939003
0.7899938998
0.7899938994
0.789993899
0.7899938986
0.7899938981
0.7899938977
0.7899938973
0.7899938968
0.7899938966
0.789993898
0.7899938999
0.789993904
0.7899939044
0.7899939042
0.789993904
0.7899939037
0.7899939034
0.7899939031
0.7899939027
0.7899939024
0.789993902
0.7899939016
0.7899939011
0.7899939007
0.7899939003
0.7899938999
0.7899938994
0.789993899
0.7899938986
0.7899938981
0.7899938977
0.7899938973
0.7899938969
0.7899938964
0.7899938962
0.7899938976
0.7899938995
0.7899939036
0.789993904
0.7899939038
0.7899939036
0.7899939033
0.789993903
0.7899939027
0.7899939023
0.7899939019
0.7899939015
0.7899939011
0.7899939007
0.7899939003
0.7899938999
0.7899938994
0.789993899
0.7899938986
0.7899938981
0.7899938977
0.7899938972
0.7899938968
0.7899938964
0.7899938959
0.7899938957
0.7899938972
0.789993899
0.7899939032
0.7899939036
0.7899939034
0.7899939031
0.7899939029
0.7899939026
0.7899939022
0.7899939019
0.7899939015
0.7899939011
0.7899939007
0.7899939003
0.7899938999
0.7899938994
0.789993899
0.7899938985
0.7899938981
0.7899938976
0.7899938972
0.7899938968
0.7899938963
0.7899938959
0.7899938954
0.7899938952
0.7899938968
0.7899938986
0.7899939028
0.7899939031
0.7899939029
0.7899939027
0.7899939024
0.7899939021
0.7899939018
0.7899939014
0.789993901
0.7899939006
0.7899939002
0.7899938998
0.7899938994
0.7899938989
0.7899938985
0.7899938981
0.7899938976
0.7899938972
0.7899938967
0.7899938963
0.7899938958
0.7899938954
0.7899938949
0.7899938947
0.7899938963
0.7899938981
0.7899939023
0.7899939026
0.7899939025
0.7899939022
0.7899939019
0.7899939016
0.7899939013
0.7899939009
0.7899939006
0.7899939002
0.7899938998
0.7899938993
0.7899938989
0.7899938985
0.789993898
0.7899938976
0.7899938971
0.7899938967
0.7899938962
0.7899938958
0.7899938953
0.7899938949
0.7899938944
0.7899938942
0.7899938958
0.7899938976
0.7899939018
0.7899939022
0.789993902
0.7899939017
0.7899939015
0.7899939012
0.7899939008
0.7899939005
0.7899939001
0.7899938997
0.7899938993
0.7899938988
0.7899938984
0.789993898
0.7899938975
0.7899938971
0.7899938966
0.7899938962
0.7899938957
0.7899938953
0.7899938948
0.7899938944
0.7899938939
0.7899938937
0.7899938953
0.7899938971
0.7899939013
0.7899939017
0.7899939015
0.7899939012
0.789993901
0.7899939007
0.7899939003
0.7899939
0.7899938996
0.7899938992
0.7899938988
0.7899938984
0.7899938979
0.7899938975
0.789993897
0.7899938966
0.7899938961
0.7899938956
0.7899938952
0.7899938947
0.7899938943
0.7899938938
0.7899938933
0.7899938931
0.7899938948
0.7899938966
0.7899939008
0.7899939011
0.789993901
0.7899939007
0.7899939005
0.7899939002
0.7899938998
0.7899938995
0.7899938991
0.7899938987
0.7899938983
0.7899938978
0.7899938974
0.789993897
0.7899938965
0.789993896
0.7899938956
0.7899938951
0.7899938946
0.7899938942
0.7899938937
0.7899938933
0.7899938928
0.7899938926
0.7899938943
0.7899938961
0.7899939003
0.7899939006
0.7899939005
0.7899939002
0.7899939
0.7899938997
0.7899938993
0.789993899
0.7899938986
0.7899938982
0.7899938978
0.7899938973
0.7899938969
0.7899938964
0.789993896
0.7899938955
0.789993895
0.7899938946
0.7899938941
0.7899938936
0.7899938932
0.7899938927
0.7899938922
0.789993892
0.7899938938
0.7899938956
0.7899938998
0.7899939001
0.7899938999
0.7899938997
0.7899938994
0.7899938991
0.7899938988
0.7899938985
0.7899938981
0.7899938977
0.7899938973
0.7899938968
0.7899938964
0.7899938959
0.7899938955
0.789993895
0.7899938945
0.789993894
0.7899938936
0.7899938931
0.7899938926
0.7899938922
0.7899938917
0.7899938914
0.7899938932
0.7899938951
0.7899938992
0.7899938996
0.7899938994
0.7899938992
0.7899938989
0.7899938986
0.7899938983
0.7899938979
0.7899938976
0.7899938972
0.7899938967
0.7899938963
0.7899938959
0.7899938954
0.7899938949
0.7899938945
0.789993894
0.7899938935
0.789993893
0.7899938926
0.7899938921
0.7899938916
0.7899938911
0.7899938909
0.7899938927
0.7899938945
0.7899938987
0.7899938991
0.7899938989
0.7899938987
0.7899938984
0.7899938981
0.7899938978
0.7899938974
0.7899938971
0.7899938967
0.7899938962
0.7899938958
0.7899938953
0.7899938949
0.7899938944
0.7899938939
0.7899938934
0.789993893
0.7899938925
0.789993892
0.7899938916
0.7899938911
0.7899938906
0.7899938903
0.7899938922
0.789993894
0.7899938982
0.7899938986
0.7899938984
0.7899938982
0.7899938979
0.7899938976
0.7899938973
0.7899938969
0.7899938966
0.7899938962
0.7899938957
0.7899938953
0.7899938948
0.7899938944
0.7899938939
0.7899938934
0.7899938929
0.7899938924
0.789993892
0.7899938915
0.789993891
0.7899938905
0.78999389
0.78999389
0.7899938917
0.7899938935
0.7899938977
0.7899938981
0.7899938979
0.7899938977
0.7899938974
0.7899938971
0.7899938968
0.7899938965
0.7899938961
0.7899938957
0.7899938952
0.7899938948
0.7899938943
0.7899938939
0.7899938934
0.7899938929
0.7899938924
0.7899938919
0.7899938914
0.789993891
0.7899938905
0.78999389
0.7899938897
0.7899938912
0.789993893
0.7899938972
0.7899938976
0.7899938974
0.7899938972
0.789993897
0.7899938967
0.7899938963
0.789993896
0.7899938956
0.7899938952
0.7899938948
0.7899938943
0.7899938938
0.7899938934
0.7899938929
0.7899938924
0.7899938919
0.7899938914
0.7899938909
0.7899938905
0.78999389
0.7899938895
0.7899938893
0.7899938907
0.7899938926
0.7899938968
0.7899938971
0.789993897
0.7899938968
0.7899938965
0.7899938962
0.7899938959
0.7899938955
0.7899938951
0.7899938947
0.7899938943
0.7899938938
0.7899938934
0.7899938929
0.7899938924
0.7899938919
0.7899938914
0.7899938909
0.7899938905
0.78999389
0.7899938895
0.7899938891
0.7899938888
0.7899938903
0.7899938921
0.7899938963
0.7899938967
0.7899938965
0.7899938963
0.789993896
0.7899938957
0.7899938954
0.7899938951
0.7899938947
0.7899938942
0.7899938938
0.7899938934
0.7899938929
0.7899938924
0.7899938919
0.7899938914
0.7899938909
0.7899938904
0.78999389
0.7899938895
0.7899938891
0.7899938886
0.7899938883
0.7899938898
0.7899938916
0.7899938958
0.7899938962
0.789993896
0.7899938958
0.7899938956
0.7899938953
0.7899938949
0.7899938946
0.7899938942
0.7899938938
0.7899938933
0.7899938929
0.7899938924
0.7899938919
0.7899938914
0.7899938909
0.7899938904
0.7899938899
0.7899938895
0.789993889
0.7899938886
0.7899938881
0.7899938876
0.7899938875
0.7899938894
0.7899938913
0.7899938956
0.7899938959
0.7899938958
0.7899938955
0.7899938953
0.789993895
0.7899938947
0.7899938943
0.7899938939
0.7899938935
0.789993893
0.7899938926
0.7899938921
0.7899938916
0.7899938911
0.7899938906
0.7899938901
0.7899938896
0.7899938892
0.7899938887
0.7899938883
0.7899938878
0.7899938874
0.7899938871
0.7899941658
0.7899941657
0.7899941656
0.7899941655
0.7899941654
0.7899941652
0.7899941649
0.7899941647
0.7899941644
0.7899941641
0.7899941637
0.7899941634
0.789994163
0.7899941626
0.7899941622
0.7899941618
0.7899941614
0.789994161
0.7899941606
0.7899941601
0.7899941597
0.7899941593
0.789994159
0.7899941585
0.7899941581
0.7899941577
0.7899941657
0.7899941655
0.7899941656
0.7899941655
0.7899941654
0.7899941652
0.7899941649
0.7899941647
0.7899941644
0.7899941641
0.7899941637
0.7899941634
0.789994163
0.7899941626
0.7899941622
0.7899941618
0.7899941614
0.789994161
0.7899941606
0.7899941602
0.7899941597
0.7899941593
0.7899941589
0.7899941585
0.7899941581
0.7899941579
0.7899941656
0.7899941655
0.7899941678
0.789994168
0.7899941678
0.7899941676
0.7899941674
0.7899941671
0.7899941668
0.7899941665
0.7899941662
0.7899941658
0.7899941654
0.7899941651
0.7899941646
0.7899941642
0.7899941638
0.7899941634
0.789994163
0.7899941626
0.7899941622
0.7899941618
0.7899941614
0.789994161
0.7899941605
0.7899941603
0.7899941655
0.7899941654
0.7899941679
0.7899941681
0.789994168
0.7899941678
0.7899941675
0.7899941673
0.789994167
0.7899941667
0.7899941663
0.789994166
0.7899941656
0.7899941652
0.7899941648
0.7899941644
0.789994164
0.7899941635
0.7899941631
0.7899941627
0.7899941623
0.7899941619
0.7899941615
0.7899941611
0.7899941606
0.7899941604
0.7899941653
0.7899941652
0.7899941677
0.789994168
0.7899941678
0.7899941676
0.7899941674
0.7899941671
0.7899941668
0.7899941665
0.7899941661
0.7899941658
0.7899941654
0.789994165
0.7899941646
0.7899941642
0.7899941638
0.7899941634
0.7899941629
0.7899941625
0.7899941621
0.7899941617
0.7899941613
0.7899941609
0.7899941604
0.7899941602
0.7899941651
0.789994165
0.7899941675
0.7899941678
0.7899941676
0.7899941674
0.7899941672
0.7899941669
0.7899941666
0.7899941663
0.7899941659
0.7899941655
0.7899941652
0.7899941648
0.7899941644
0.789994164
0.7899941635
0.7899941631
0.7899941627
0.7899941623
0.7899941619
0.7899941614
0.789994161
0.7899941606
0.7899941602
0.78999416
0.7899941649
0.7899941648
0.7899941673
0.7899941675
0.7899941674
0.7899941672
0.7899941669
0.7899941666
0.7899941663
0.789994166
0.7899941657
0.7899941653
0.7899941649
0.7899941645
0.7899941641
0.7899941637
0.7899941633
0.7899941628
0.7899941624
0.789994162
0.7899941616
0.7899941612
0.7899941607
0.7899941603
0.7899941599
0.7899941596
0.7899941646
0.7899941645
0.789994167
0.7899941672
0.7899941671
0.7899941669
0.7899941666
0.7899941664
0.789994166
0.7899941657
0.7899941654
0.789994165
0.7899941646
0.7899941642
0.7899941638
0.7899941634
0.7899941629
0.7899941625
0.7899941621
0.7899941617
0.7899941612
0.7899941608
0.7899941604
0.78999416
0.7899941595
0.7899941593
0.7899941643
0.7899941642
0.7899941667
0.7899941669
0.7899941668
0.7899941666
0.7899941663
0.789994166
0.7899941657
0.7899941654
0.789994165
0.7899941647
0.7899941643
0.7899941639
0.7899941634
0.789994163
0.7899941626
0.7899941622
0.7899941617
0.7899941613
0.7899941609
0.7899941605
0.78999416
0.7899941596
0.7899941592
0.789994159
0.789994164
0.7899941639
0.7899941664
0.7899941666
0.7899941665
0.7899941662
0.789994166
0.7899941657
0.7899941654
0.789994165
0.7899941647
0.7899941643
0.7899941639
0.7899941635
0.7899941631
0.7899941627
0.7899941622
0.7899941618
0.7899941614
0.7899941609
0.7899941605
0.7899941601
0.7899941597
0.7899941592
0.7899941588
0.7899941586
0.7899941637
0.7899941636
0.789994166
0.7899941663
0.7899941661
0.7899941659
0.7899941656
0.7899941653
0.789994165
0.7899941647
0.7899941643
0.7899941639
0.7899941635
0.7899941631
0.7899941627
0.7899941623
0.7899941618
0.7899941614
0.789994161
0.7899941605
0.7899941601
0.7899941597
0.7899941592
0.7899941588
0.7899941584
0.7899941581
0.7899941633
0.7899941632
0.7899941657
0.7899941659
0.7899941657
0.7899941655
0.7899941652
0.7899941649
0.7899941646
0.7899941643
0.7899941639
0.7899941635
0.7899941631
0.7899941627
0.7899941623
0.7899941619
0.7899941614
0.789994161
0.7899941606
0.7899941601
0.7899941597
0.7899941592
0.7899941588
0.7899941584
0.7899941579
0.7899941577
0.7899941629
0.7899941628
0.7899941652
0.7899941655
0.7899941653
0.7899941651
0.7899941648
0.7899941645
0.7899941642
0.7899941639
0.7899941635
0.7899941631
0.7899941627
0.7899941623
0.7899941619
0.7899941614
0.789994161
0.7899941605
0.7899941601
0.7899941597
0.7899941592
0.7899941588
0.7899941584
0.7899941579
0.7899941574
0.7899941572
0.7899941625
0.7899941624
0.7899941648
0.7899941651
0.7899941649
0.7899941647
0.7899941644
0.7899941641
0.7899941638
0.7899941634
0.789994163
0.7899941627
0.7899941623
0.7899941618
0.7899941614
0.789994161
0.7899941605
0.7899941601
0.7899941596
0.7899941592
0.7899941587
0.7899941583
0.7899941579
0.7899941574
0.789994157
0.7899941567
0.789994162
0.7899941619
0.7899941644
0.7899941646
0.7899941644
0.7899941642
0.7899941639
0.7899941636
0.7899941633
0.789994163
0.7899941626
0.7899941622
0.7899941618
0.7899941614
0.7899941609
0.7899941605
0.7899941601
0.7899941596
0.7899941592
0.7899941587
0.7899941583
0.7899941578
0.7899941574
0.7899941569
0.7899941565
0.7899941562
0.7899941616
0.7899941615
0.7899941639
0.7899941641
0.789994164
0.7899941637
0.7899941635
0.7899941632
0.7899941628
0.7899941625
0.7899941621
0.7899941617
0.7899941613
0.7899941609
0.7899941605
0.78999416
0.7899941596
0.7899941591
0.7899941587
0.7899941582
0.7899941578
0.7899941573
0.7899941569
0.7899941564
0.7899941559
0.7899941557
0.7899941611
0.789994161
0.7899941634
0.7899941637
0.7899941635
0.7899941633
0.789994163
0.7899941627
0.7899941624
0.789994162
0.7899941616
0.7899941612
0.7899941608
0.7899941604
0.78999416
0.7899941595
0.7899941591
0.7899941586
0.7899941582
0.7899941577
0.7899941572
0.7899941568
0.7899941564
0.7899941559
0.7899941554
0.7899941552
0.7899941606
0.7899941605
0.7899941629
0.7899941632
0.789994163
0.7899941628
0.7899941625
0.7899941622
0.7899941619
0.7899941615
0.7899941611
0.7899941607
0.7899941603
0.7899941599
0.7899941595
0.789994159
0.7899941586
0.7899941581
0.7899941576
0.7899941572
0.7899941567
0.7899941563
0.7899941558
0.7899941554
0.7899941549
0.7899941546
0.7899941601
0.78999416
0.7899941624
0.7899941627
0.7899941625
0.7899941623
0.789994162
0.7899941617
0.7899941614
0.789994161
0.7899941606
0.7899941602
0.7899941598
0.7899941594
0.789994159
0.7899941585
0.7899941581
0.7899941576
0.7899941571
0.7899941567
0.7899941562
0.7899941557
0.7899941553
0.7899941548
0.7899941543
0.7899941541
0.7899941596
0.7899941594
0.7899941619
0.7899941621
0.789994162
0.7899941618
0.7899941615
0.7899941612
0.7899941609
0.7899941605
0.7899941601
0.7899941597
0.7899941593
0.7899941589
0.7899941584
0.789994158
0.7899941575
0.7899941571
0.7899941566
0.7899941561
0.7899941557
0.7899941552
0.7899941547
0.7899941543
0.7899941538
0.7899941535
0.789994159
0.7899941589
0.7899941614
0.7899941616
0.7899941615
0.7899941612
0.789994161
0.7899941607
0.7899941604
0.78999416
0.7899941596
0.7899941592
0.7899941588
0.7899941584
0.7899941579
0.7899941575
0.789994157
0.7899941565
0.7899941561
0.7899941556
0.7899941551
0.7899941547
0.7899941542
0.7899941537
0.7899941532
0.789994153
0.7899941585
0.7899941584
0.7899941609
0.7899941611
0.7899941609
0.7899941607
0.7899941605
0.7899941602
0.7899941598
0.7899941595
0.7899941591
0.7899941587
0.7899941583
0.7899941579
0.7899941574
0.789994157
0.7899941565
0.789994156
0.7899941555
0.7899941551
0.7899941546
0.7899941541
0.7899941537
0.7899941532
0.7899941527
0.7899941524
0.789994158
0.7899941579
0.7899941604
0.7899941606
0.7899941604
0.7899941602
0.78999416
0.7899941597
0.7899941593
0.789994159
0.7899941586
0.7899941582
0.7899941578
0.7899941574
0.7899941569
0.7899941564
0.789994156
0.7899941555
0.789994155
0.7899941545
0.789994154
0.7899941536
0.7899941531
0.7899941526
0.7899941521
0.7899941519
0.7899941575
0.7899941574
0.7899941598
0.7899941601
0.7899941599
0.7899941597
0.7899941595
0.7899941592
0.7899941588
0.7899941585
0.7899941581
0.7899941577
0.7899941573
0.7899941568
0.7899941564
0.7899941559
0.7899941554
0.789994155
0.7899941545
0.789994154
0.7899941535
0.7899941531
0.7899941526
0.7899941521
0.7899941516
0.7899941516
0.789994157
0.7899941569
0.7899941593
0.7899941596
0.7899941594
0.7899941592
0.789994159
0.7899941587
0.7899941583
0.789994158
0.7899941576
0.7899941572
0.7899941568
0.7899941563
0.7899941559
0.7899941554
0.7899941549
0.7899941545
0.789994154
0.7899941535
0.789994153
0.7899941525
0.7899941521
0.7899941516
0.7899941513
0.7899941565
0.7899941564
0.7899941589
0.7899941591
0.789994159
0.7899941587
0.7899941585
0.7899941582
0.7899941579
0.7899941575
0.7899941571
0.7899941567
0.7899941563
0.7899941559
0.7899941554
0.7899941549
0.7899941544
0.789994154
0.7899941535
0.789994153
0.7899941525
0.789994152
0.7899941516
0.7899941511
0.7899941508
0.789994156
0.7899941559
0.7899941584
0.7899941586
0.7899941585
0.7899941583
0.789994158
0.7899941577
0.7899941574
0.789994157
0.7899941567
0.7899941563
0.7899941558
0.7899941554
0.7899941549
0.7899941544
0.7899941539
0.7899941535
0.789994153
0.7899941525
0.789994152
0.7899941516
0.7899941511
0.7899941506
0.7899941503
0.7899941556
0.7899941555
0.7899941579
0.7899941582
0.789994158
0.7899941578
0.7899941576
0.7899941573
0.7899941569
0.7899941566
0.7899941562
0.7899941558
0.7899941553
0.7899941549
0.7899941544
0.7899941539
0.7899941535
0.789994153
0.7899941525
0.789994152
0.7899941515
0.7899941511
0.7899941506
0.7899941501