/*--------------------------------*- C++ -*----------------------------------*\
  =========                 |
  \\      /  F ield         | OpenFOAM: The Open Source CFD Toolbox
   \\    /   O peration     | Website:  https://openfoam.org
    \\  /    A nd           | Version:  8
     \\/     M anipulation  |
\*---------------------------------------------------------------------------*/
FoamFile
{
    version     2.0;
    format      ascii;
    class       volScalarField;
    location    "0.1";
    object      nut;
}
// * * * * * * * * * * * * * * * * * * * * * * * * * * * * * * * * * * * * * //

dimensions      [0 2 -1 0 0 0 0];

internalField   nonuniform List<scalar> 
67410
(
5.629924837e-07
6.631843961e-07
6.633077366e-07
6.633086102e-07
6.633086228e-07
6.633086329e-07
6.633086452e-07
6.633086593e-07
6.63308675e-07
6.633086921e-07
6.633087105e-07
6.633087298e-07
6.633087499e-07
6.633087705e-07
6.633087913e-07
6.633088121e-07
6.63308833e-07
6.633088532e-07
6.633088728e-07
6.633088914e-07
6.633089093e-07
6.633089258e-07
6.63308941e-07
6.633089547e-07
6.633089688e-07
6.633091938e-07
5.950802066e-07
7.151117357e-07
7.153765724e-07
7.153806134e-07
7.153806698e-07
7.15380682e-07
7.153806959e-07
7.153807117e-07
7.153807292e-07
7.153807483e-07
7.153807688e-07
7.153807904e-07
7.153808128e-07
7.15380836e-07
7.153808593e-07
7.153808827e-07
7.153809061e-07
7.153809287e-07
7.153809506e-07
7.153809708e-07
7.153809904e-07
7.15381008e-07
7.153810237e-07
7.153810372e-07
7.153810507e-07
7.153812757e-07
5.951136423e-07
7.152386205e-07
7.156378954e-07
7.156478008e-07
7.15647982e-07
7.156480106e-07
7.156480416e-07
7.156480769e-07
7.156481161e-07
7.156481587e-07
7.156482044e-07
7.156482521e-07
7.156483021e-07
7.156483538e-07
7.156484051e-07
7.156484568e-07
7.15648507e-07
7.156485568e-07
7.156486045e-07
7.15648649e-07
7.156486902e-07
7.156487277e-07
7.156487606e-07
7.156487884e-07
7.156488132e-07
7.156490456e-07
5.951138605e-07
7.152403932e-07
7.15643948e-07
7.156541171e-07
7.156543058e-07
7.156543359e-07
7.156543682e-07
7.156544052e-07
7.156544462e-07
7.156544908e-07
7.156545387e-07
7.156545891e-07
7.156546416e-07
7.156546949e-07
7.156547487e-07
7.156548028e-07
7.156548553e-07
7.156549075e-07
7.156549572e-07
7.156550041e-07
7.156550471e-07
7.156550863e-07
7.156551207e-07
7.156551498e-07
7.156551755e-07
7.156554086e-07
5.951138809e-07
7.15240427e-07
7.156440786e-07
7.156542553e-07
7.15654445e-07
7.15654476e-07
7.156545096e-07
7.156545481e-07
7.156545907e-07
7.156546371e-07
7.156546862e-07
7.15654738e-07
7.15654792e-07
7.156548467e-07
7.156549029e-07
7.156549582e-07
7.156550134e-07
7.15655067e-07
7.156551184e-07
7.156551667e-07
7.156552114e-07
7.156552519e-07
7.156552876e-07
7.156553178e-07
7.156553444e-07
7.15655578e-07
5.951139061e-07
7.152404479e-07
7.156441383e-07
7.156543178e-07
7.156545086e-07
7.15654541e-07
7.156545758e-07
7.156546153e-07
7.156546592e-07
7.15654707e-07
7.156547583e-07
7.156548124e-07
7.156548683e-07
7.156549256e-07
7.156549835e-07
7.156550414e-07
7.156550984e-07
7.156551541e-07
7.156552074e-07
7.156552576e-07
7.156553042e-07
7.156553463e-07
7.156553837e-07
7.156554153e-07
7.15655443e-07
7.156556778e-07
5.951139359e-07
7.152404721e-07
7.156442069e-07
7.156543895e-07
7.156545813e-07
7.156546149e-07
7.156546514e-07
7.15654693e-07
7.156547389e-07
7.156547889e-07
7.156548423e-07
7.156548987e-07
7.156549572e-07
7.156550168e-07
7.156550774e-07
7.156551375e-07
7.156551969e-07
7.156552553e-07
7.156553108e-07
7.156553634e-07
7.156554121e-07
7.156554562e-07
7.156554957e-07
7.156555289e-07
7.156555579e-07
7.156557941e-07
5.951139697e-07
7.152405001e-07
7.156442859e-07
7.156544721e-07
7.156546653e-07
7.156547002e-07
7.156547386e-07
7.156547821e-07
7.156548302e-07
7.156548823e-07
7.156549382e-07
7.156549964e-07
7.156550572e-07
7.156551194e-07
7.156551829e-07
7.15655246e-07
7.156553092e-07
7.156553693e-07
7.15655428e-07
7.156554832e-07
7.156555347e-07
7.156555812e-07
7.156556228e-07
7.15655658e-07
7.156556891e-07
7.156559272e-07
5.951140075e-07
7.152405315e-07
7.156443742e-07
7.156545645e-07
7.156547587e-07
7.156547951e-07
7.156548348e-07
7.1565488e-07
7.156549303e-07
7.156549849e-07
7.156550437e-07
7.156551056e-07
7.156551698e-07
7.156552356e-07
7.156553023e-07
7.156553693e-07
7.156554348e-07
7.156554989e-07
7.156555609e-07
7.156556191e-07
7.15655673e-07
7.156557226e-07
7.156557659e-07
7.15655803e-07
7.156558351e-07
7.156560746e-07
5.951140488e-07
7.152405656e-07
7.156444698e-07
7.156546642e-07
7.156548602e-07
7.156548986e-07
7.156549408e-07
7.156549888e-07
7.156550421e-07
7.156551001e-07
7.156551621e-07
7.156552274e-07
7.156552952e-07
7.156553649e-07
7.15655435e-07
7.156555056e-07
7.156555752e-07
7.15655643e-07
7.156557084e-07
7.1565577e-07
7.156558272e-07
7.156558792e-07
7.156559252e-07
7.156559646e-07
7.156559986e-07
7.156562396e-07
5.951140938e-07
7.152406032e-07
7.156445755e-07
7.156547747e-07
7.156549723e-07
7.156550128e-07
7.156550575e-07
7.15655108e-07
7.156551643e-07
7.156552256e-07
7.15655291e-07
7.156553598e-07
7.156554316e-07
7.156555052e-07
7.156555797e-07
7.156556544e-07
7.156557283e-07
7.156557995e-07
7.156558687e-07
7.156559341e-07
7.156559947e-07
7.156560498e-07
7.156560986e-07
7.156561407e-07
7.156561766e-07
7.1565642e-07
5.951141419e-07
7.152406436e-07
7.156446887e-07
7.156548932e-07
7.156550928e-07
7.156551354e-07
7.156551823e-07
7.15655236e-07
7.15655295e-07
7.156553598e-07
7.156554291e-07
7.156555019e-07
7.156555781e-07
7.156556559e-07
7.156557349e-07
7.15655814e-07
7.156558916e-07
7.156559679e-07
7.156560407e-07
7.156561102e-07
7.156561745e-07
7.156562337e-07
7.156562871e-07
7.156563571e-07
7.156565213e-07
7.156569521e-07
5.951141921e-07
7.152406866e-07
7.156448087e-07
7.156550185e-07
7.156552198e-07
7.156552647e-07
7.156553145e-07
7.15655371e-07
7.15655434e-07
7.156555021e-07
7.156555754e-07
7.156556527e-07
7.156557331e-07
7.156558156e-07
7.156558993e-07
7.156559829e-07
7.156560656e-07
7.156561464e-07
7.15656224e-07
7.156562998e-07
7.15656405e-07
7.156568186e-07
7.156573776e-07
7.156578962e-07
7.156583566e-07
7.156589379e-07
5.951142447e-07
7.152407319e-07
7.156449346e-07
7.156551499e-07
7.156553532e-07
7.156554003e-07
7.15655453e-07
7.156555128e-07
7.156555793e-07
7.156556518e-07
7.156557289e-07
7.156558109e-07
7.156558961e-07
7.156559836e-07
7.156560727e-07
7.156561621e-07
7.1565625e-07
7.156563382e-07
7.15656544e-07
7.156572839e-07
7.156580859e-07
7.156588641e-07
7.156595536e-07
7.156601534e-07
7.15660658e-07
7.156612665e-07
5.95114299e-07
7.152407789e-07
7.156450652e-07
7.156552862e-07
7.156554916e-07
7.156555412e-07
7.156555969e-07
7.1565566e-07
7.156557305e-07
7.156558072e-07
7.156558895e-07
7.156559773e-07
7.156560674e-07
7.156561596e-07
7.156562533e-07
7.15656349e-07
7.156565429e-07
7.156574432e-07
7.156584428e-07
7.1565941e-07
7.156603159e-07
7.156611501e-07
7.156618785e-07
7.156625249e-07
7.156630494e-07
7.156636839e-07
5.951143543e-07
7.152408273e-07
7.156451998e-07
7.156554267e-07
7.156556343e-07
7.156556867e-07
7.156557459e-07
7.156558135e-07
7.156558881e-07
7.156559689e-07
7.156560552e-07
7.156561463e-07
7.156562407e-07
7.156563384e-07
7.156564427e-07
7.156572873e-07
7.156584207e-07
7.156595454e-07
7.156606287e-07
7.156616562e-07
7.156626132e-07
7.156634844e-07
7.156642628e-07
7.156649359e-07
7.156654949e-07
7.156661585e-07
5.951144103e-07
7.152408776e-07
7.156453387e-07
7.156555715e-07
7.156557812e-07
7.156558361e-07
7.156558979e-07
7.156559681e-07
7.156560459e-07
7.156561301e-07
7.156562207e-07
7.156563152e-07
7.156564185e-07
7.156568772e-07
7.156580681e-07
7.156593043e-07
7.156605245e-07
7.156617118e-07
7.156628524e-07
7.156639271e-07
7.156649355e-07
7.156658516e-07
7.156666607e-07
7.156673719e-07
7.156679655e-07
7.156686418e-07
5.951144656e-07
7.152409274e-07
7.156454762e-07
7.156557152e-07
7.156559266e-07
7.156559836e-07
7.156560481e-07
7.156561206e-07
7.156562018e-07
7.156562906e-07
7.156563869e-07
7.156564957e-07
7.156574712e-07
7.15658753e-07
7.156600496e-07
7.156613467e-07
7.156626276e-07
7.156638729e-07
7.156650628e-07
7.156661926e-07
7.156672369e-07
7.156681963e-07
7.156690499e-07
7.156697924e-07
7.156704129e-07
7.156711167e-07
5.951145203e-07
7.152409771e-07
7.156456109e-07
7.156558554e-07
7.156560689e-07
7.156561284e-07
7.156561962e-07
7.156562736e-07
7.156563598e-07
7.156564578e-07
7.156567496e-07
7.15657994e-07
7.156593045e-07
7.156606545e-07
7.156620132e-07
7.15663364e-07
7.156646996e-07
7.15665997e-07
7.156672438e-07
7.156684236e-07
7.156695208e-07
7.156705221e-07
7.156714138e-07
7.156721817e-07
7.156728337e-07
7.156735606e-07
5.951145748e-07
7.152410258e-07
7.156457446e-07
7.156559955e-07
7.156562117e-07
7.156562746e-07
7.156563467e-07
7.15656428e-07
7.156565255e-07
7.156571568e-07
7.15658413e-07
7.156597372e-07
7.156611056e-07
7.156625122e-07
7.156639209e-07
7.156653338e-07
7.156667251e-07
7.156680772e-07
7.156693748e-07
7.156705903e-07
7.156717312e-07
7.156727733e-07
7.156737004e-07
7.156745045e-07
7.156751796e-07
7.156759326e-07
5.951146279e-07
7.15241075e-07
7.156458782e-07
7.156561349e-07
7.15656353e-07
7.156564179e-07
7.156564938e-07
7.156566218e-07
7.156575082e-07
7.156587337e-07
7.156600427e-07
7.156614174e-07
7.15662838e-07
7.156642964e-07
7.156657662e-07
7.156672284e-07
7.156686659e-07
7.156700674e-07
7.156714114e-07
7.156726813e-07
7.156738609e-07
7.156749474e-07
7.156759114e-07
7.15676747e-07
7.156774481e-07
7.156782284e-07
5.951146783e-07
7.152411222e-07
7.156460042e-07
7.156562663e-07
7.156564892e-07
7.156565733e-07
7.156568284e-07
7.156577898e-07
7.156589648e-07
7.156602334e-07
7.156615904e-07
7.156630159e-07
7.156644896e-07
7.156659911e-07
7.156675089e-07
7.156690221e-07
7.156705129e-07
7.156719646e-07
7.156733544e-07
7.156746697e-07
7.156758949e-07
7.15677012e-07
7.156780172e-07
7.156788786e-07
7.156796114e-07
7.156804136e-07
5.951147269e-07
7.152411736e-07
7.156461338e-07
7.156564139e-07
7.156566801e-07
7.15657096e-07
7.156580265e-07
7.156591162e-07
7.156603287e-07
7.156616421e-07
7.156630408e-07
7.156645064e-07
7.15666026e-07
7.156675786e-07
7.156691453e-07
7.156707066e-07
7.156722451e-07
7.156737415e-07
7.156751757e-07
7.156765346e-07
7.156777981e-07
7.156789529e-07
7.156799873e-07
7.15680885e-07
7.156816432e-07
7.156824688e-07
5.951147673e-07
7.152412702e-07
7.156463186e-07
7.156567381e-07
7.156573841e-07
7.156582196e-07
7.156592137e-07
7.156603399e-07
7.156615829e-07
7.156629316e-07
7.156643704e-07
7.156658812e-07
7.156674451e-07
7.156690421e-07
7.156706533e-07
7.156722583e-07
7.156738412e-07
7.156753807e-07
7.156768591e-07
7.15678256e-07
7.156795516e-07
7.156807443e-07
7.156818101e-07
7.156827377e-07
7.156835249e-07
7.156845956e-07
5.951147812e-07
7.152416091e-07
7.156468351e-07
7.156575191e-07
7.156583954e-07
7.156592655e-07
7.156602818e-07
7.156614355e-07
7.156627128e-07
7.156640982e-07
7.156655724e-07
7.156671227e-07
7.15668726e-07
7.156703634e-07
7.156720148e-07
7.1567366e-07
7.156752848e-07
7.156768641e-07
7.156783787e-07
7.156798105e-07
7.156811456e-07
7.15682367e-07
7.156834647e-07
7.156844213e-07
7.15685455e-07
5.951147498e-07
7.152422574e-07
7.156476336e-07
7.156583988e-07
7.15659291e-07
7.156601816e-07
7.156612218e-07
7.156624018e-07
7.156637075e-07
7.156651231e-07
7.156666309e-07
7.156682146e-07
7.156698533e-07
7.156715269e-07
7.156732143e-07
7.156748982e-07
7.156765583e-07
7.156781729e-07
7.156797197e-07
7.156811881e-07
7.156825539e-07
7.156838078e-07
7.156849319e-07
7.156859169e-07
7.156869712e-07
5.951146985e-07
7.15242951e-07
7.156483726e-07
7.156591483e-07
7.15660054e-07
7.156609611e-07
7.156620209e-07
7.156632229e-07
7.156645529e-07
7.156659949e-07
7.156675314e-07
7.156691444e-07
7.156708138e-07
7.156725191e-07
7.156742369e-07
7.156759556e-07
7.156776496e-07
7.156792914e-07
7.156808722e-07
7.156823702e-07
7.15683767e-07
7.156850497e-07
7.156861959e-07
7.15687207e-07
7.156882867e-07
5.951146574e-07
7.152435204e-07
7.156489705e-07
7.156597547e-07
7.156606715e-07
7.156615918e-07
7.156626677e-07
7.15663888e-07
7.156652384e-07
7.156667024e-07
7.156682632e-07
7.156699004e-07
7.15671596e-07
7.156733283e-07
7.156750738e-07
7.156768207e-07
7.156785418e-07
7.156802124e-07
7.156818201e-07
7.156833446e-07
7.156847677e-07
7.156860758e-07
7.156872466e-07
7.156882788e-07
7.156893802e-07
5.951146313e-07
7.152439482e-07
7.156494199e-07
7.156602105e-07
7.156611358e-07
7.15662067e-07
7.156631555e-07
7.156643903e-07
7.156657568e-07
7.156672385e-07
7.156688182e-07
7.156704759e-07
7.156721923e-07
7.156739471e-07
7.156757159e-07
7.156774877e-07
7.15679227e-07
7.156809231e-07
7.156825544e-07
7.156841019e-07
7.156855468e-07
7.156868788e-07
7.156880716e-07
7.156891205e-07
7.15690018e-07
7.156911398e-07
5.951148068e-07
7.152444192e-07
7.156499045e-07
7.156606999e-07
7.156616312e-07
7.156625703e-07
7.156636678e-07
7.156649134e-07
7.156662919e-07
7.15667787e-07
7.156693811e-07
7.15671054e-07
7.156727872e-07
7.156745574e-07
7.156763468e-07
7.156781366e-07
7.156798945e-07
7.156816081e-07
7.156832604e-07
7.156848273e-07
7.156862929e-07
7.156876399e-07
7.156888539e-07
7.156899219e-07
7.156908299e-07
7.156917929e-07
5.072520878e-07
6.191112861e-07
6.193957325e-07
6.194001783e-07
6.194003179e-07
6.194004343e-07
6.194005745e-07
6.19400735e-07
6.194009134e-07
6.194011086e-07
6.194013179e-07
6.194015381e-07
6.194017676e-07
6.194020048e-07
6.194022457e-07
6.194024877e-07
6.19402727e-07
6.194029611e-07
6.194031871e-07
6.194034e-07
6.194036028e-07
6.194037885e-07
6.194039567e-07
6.194041061e-07
6.194042363e-07
6.194045538e-07
5.08199421e-07
9.137376785e-06
1.360341893e-05
1.37219456e-05
1.372446387e-05
1.372554607e-05
1.372679349e-05
1.372820216e-05
1.372975927e-05
1.373144794e-05
1.373324669e-05
1.373514178e-05
1.3737099e-05
1.373911289e-05
1.3741127e-05
1.374314162e-05
1.374514225e-05
1.374706566e-05
1.374891725e-05
1.375062209e-05
1.375226102e-05
1.375371348e-05
1.375500415e-05
1.375609657e-05
1.375700649e-05
1.375778097e-05
5.083014259e-07
1.189835833e-05
2.250780234e-05
2.295164454e-05
2.296248865e-05
2.296563125e-05
2.296913995e-05
2.297310684e-05
2.297749357e-05
2.298225414e-05
2.29873396e-05
2.299265175e-05
2.299818891e-05
2.300387196e-05
2.300955223e-05
2.301525111e-05
2.302078923e-05
2.302625298e-05
2.303147451e-05
2.303635993e-05
2.304089096e-05
2.30450167e-05
2.304865821e-05
2.30517495e-05
2.305431102e-05
2.305636341e-05
5.083033453e-07
1.19515459e-05
2.278981172e-05
2.325325215e-05
2.326478918e-05
2.32681146e-05
2.327179146e-05
2.327597498e-05
2.328059206e-05
2.328560347e-05
2.329095511e-05
2.329657598e-05
2.330240522e-05
2.33083405e-05
2.331432651e-05
2.332032341e-05
2.332614815e-05
2.333190027e-05
2.333739161e-05
2.334255774e-05
2.334731463e-05
2.335165889e-05
2.335549242e-05
2.335874791e-05
2.336144416e-05
2.336360079e-05
5.083034436e-07
1.195350954e-05
2.279930669e-05
2.326349853e-05
2.327515722e-05
2.327859344e-05
2.328241025e-05
2.328674708e-05
2.329153057e-05
2.329672764e-05
2.330223899e-05
2.330803146e-05
2.331405012e-05
2.33201639e-05
2.332639096e-05
2.333253891e-05
2.333863277e-05
2.334456042e-05
2.335022925e-05
2.335556962e-05
2.336050704e-05
2.336499618e-05
2.336897102e-05
2.337235477e-05
2.337514022e-05
2.33773535e-05
5.083035394e-07
1.195522522e-05
2.280560549e-05
2.327015806e-05
2.328194052e-05
2.32855225e-05
2.328949007e-05
2.329397126e-05
2.329892789e-05
2.33043078e-05
2.331005079e-05
2.331609389e-05
2.332233535e-05
2.33287197e-05
2.333516366e-05
2.334159168e-05
2.334790818e-05
2.335407183e-05
2.335996289e-05
2.336551827e-05
2.337066469e-05
2.337533415e-05
2.337949111e-05
2.338302512e-05
2.338592748e-05
2.338824561e-05
5.083036557e-07
1.195722185e-05
2.281288194e-05
2.327783742e-05
2.328974208e-05
2.329346736e-05
2.329762359e-05
2.330232434e-05
2.330750149e-05
2.331313194e-05
2.331913264e-05
2.332543928e-05
2.33319671e-05
2.333863182e-05
2.334537668e-05
2.335207255e-05
2.335867251e-05
2.336512915e-05
2.337127812e-05
2.337708719e-05
2.338247688e-05
2.338735494e-05
2.339174318e-05
2.339543871e-05
2.339848331e-05
2.340094188e-05
5.08303788e-07
1.195950667e-05
2.282119636e-05
2.328660231e-05
2.329865991e-05
2.330255693e-05
2.330691734e-05
2.331184095e-05
2.331727655e-05
2.332316526e-05
2.332945962e-05
2.333602962e-05
2.334286325e-05
2.334983292e-05
2.335690783e-05
2.336394275e-05
2.337093818e-05
2.337762251e-05
2.338411523e-05
2.339021815e-05
2.339590168e-05
2.340103926e-05
2.340564373e-05
2.340954789e-05
2.341278528e-05
2.341540401e-05
5.083039353e-07
1.196205159e-05
2.283045837e-05
2.329637039e-05
2.330856878e-05
2.331264487e-05
2.331720102e-05
2.332235809e-05
2.332806476e-05
2.333425363e-05
2.334087481e-05
2.334782707e-05
2.335503406e-05
2.336239537e-05
2.336984153e-05
2.337728464e-05
2.338457541e-05
2.339167596e-05
2.339851635e-05
2.34049565e-05
2.341090775e-05
2.341638744e-05
2.342118368e-05
2.342531692e-05
2.342868358e-05
2.343145359e-05
5.083040956e-07
1.196481073e-05
2.284051589e-05
2.33069633e-05
2.331935447e-05
2.332364711e-05
2.332846664e-05
2.333392071e-05
2.333995997e-05
2.334651037e-05
2.335349413e-05
2.336083301e-05
2.336843896e-05
2.337622748e-05
2.33840638e-05
2.339190986e-05
2.339963379e-05
2.340713558e-05
2.341435952e-05
2.342116095e-05
2.342747114e-05
2.343320979e-05
2.343830012e-05
2.344267611e-05
2.344626333e-05
2.3449165e-05
5.083042698e-07
1.196781274e-05
2.285146206e-05
2.331849903e-05
2.33310788e-05
2.333560242e-05
2.334070284e-05
2.334645083e-05
2.335282948e-05
2.33597548e-05
2.336713006e-05
2.337487162e-05
2.338291716e-05
2.339114155e-05
2.339944427e-05
2.340774215e-05
2.341592473e-05
2.342381696e-05
2.343144705e-05
2.343865249e-05
2.344533006e-05
2.345140229e-05
2.34567942e-05
2.346144614e-05
2.346521641e-05
2.34683167e-05
5.083044574e-07
1.197100851e-05
2.286310261e-05
2.333077987e-05
2.334357066e-05
2.334833987e-05
2.335370548e-05
2.335980174e-05
2.336651834e-05
2.33738322e-05
2.338163841e-05
2.338982477e-05
2.339834491e-05
2.340703574e-05
2.341582766e-05
2.34245964e-05
2.343320333e-05
2.344161824e-05
2.34496504e-05
2.345728271e-05
2.346434785e-05
2.347077241e-05
2.347646594e-05
2.348121636e-05
2.348435611e-05
2.348621866e-05
5.083046576e-07
1.197436691e-05
2.28753427e-05
2.334367636e-05
2.33566753e-05
2.336169995e-05
2.336737894e-05
2.337380997e-05
2.338093723e-05
2.33886414e-05
2.33968954e-05
2.340556535e-05
2.341455137e-05
2.342374826e-05
2.343303906e-05
2.34423067e-05
2.345143521e-05
2.346032384e-05
2.346883719e-05
2.347689172e-05
2.348411289e-05
2.348821672e-05
2.349015812e-05
2.349134333e-05
2.349200116e-05
2.349251641e-05
5.083048661e-07
1.197785698e-05
2.288806635e-05
2.335708112e-05
2.337030353e-05
2.337558914e-05
2.33815851e-05
2.338838e-05
2.339589965e-05
2.340406926e-05
2.341275969e-05
2.342193002e-05
2.343143132e-05
2.344115034e-05
2.345099124e-05
2.346082482e-05
2.347046756e-05
2.347982752e-05
2.348788115e-05
2.349101182e-05
2.349259346e-05
2.349340372e-05
2.349400327e-05
2.349444527e-05
2.349478713e-05
2.349516823e-05
5.083050782e-07
1.19814438e-05
2.290114822e-05
2.337086284e-05
2.338431486e-05
2.338987635e-05
2.339620534e-05
2.340336508e-05
2.341131071e-05
2.341993291e-05
2.342913841e-05
2.343887393e-05
2.344889529e-05
2.345913249e-05
2.346948453e-05
2.347975544e-05
2.348911601e-05
2.349230704e-05
2.34935811e-05
2.349438623e-05
2.34950757e-05
2.349567946e-05
2.349617758e-05
2.349659899e-05
2.349692109e-05
2.349730086e-05
5.083052973e-07
1.198509076e-05
2.291447114e-05
2.33849018e-05
2.339859539e-05
2.34044512e-05
2.341113473e-05
2.34187281e-05
2.342710858e-05
2.343617949e-05
2.344584761e-05
2.345601537e-05
2.346652591e-05
2.347725529e-05
2.348801485e-05
2.349271083e-05
2.349401063e-05
2.349491369e-05
2.349571641e-05
2.34964328e-05
2.349707385e-05
2.349763933e-05
2.349812852e-05
2.34985197e-05
2.349883132e-05
2.349920182e-05
5.083055198e-07
1.198879721e-05
2.292798631e-05
2.339913666e-05
2.341306351e-05
2.341919518e-05
2.342619277e-05
2.343411831e-05
2.344288685e-05
2.345237306e-05
2.346251445e-05
2.347312636e-05
2.348409546e-05
2.349250254e-05
2.349413606e-05
2.349515374e-05
2.349604003e-05
2.349683144e-05
2.349757292e-05
2.349821331e-05
2.349875974e-05
2.349920783e-05
2.349959344e-05
2.349992876e-05
2.350020932e-05
2.35005612e-05
5.083057439e-07
1.199244821e-05
2.294132776e-05
2.341320511e-05
2.342734847e-05
2.343373802e-05
2.344104772e-05
2.344929537e-05
2.345845948e-05
2.346842602e-05
2.347905838e-05
2.349015176e-05
2.349405647e-05
2.349513172e-05
2.349603847e-05
2.349689612e-05
2.349767281e-05
2.349831922e-05
2.349888488e-05
2.349941023e-05
2.349988802e-05
2.350032451e-05
2.350071382e-05
2.350105253e-05
2.350133973e-05
2.3501704e-05
5.083059554e-07
1.19960273e-05
2.295435093e-05
2.342691644e-05
2.344129292e-05
2.344796099e-05
2.345561749e-05
2.346431277e-05
2.347395041e-05
2.348438944e-05
2.349364867e-05
2.3494912e-05
2.349584094e-05
2.349674363e-05
2.349748607e-05
2.349813429e-05
2.349875192e-05
2.349933878e-05
2.349990283e-05
2.350044021e-05
2.350093828e-05
2.350138962e-05
2.35017916e-05
2.350214212e-05
2.350243974e-05
2.350281545e-05
5.083061746e-07
1.199949156e-05
2.296709402e-05
2.344037629e-05
2.34550105e-05
2.346199463e-05
2.347003787e-05
2.347909326e-05
2.34889476e-05
2.349458121e-05
2.349555815e-05
2.349640077e-05
2.349712297e-05
2.349779146e-05
2.349842458e-05
2.349905976e-05
2.349968634e-05
2.35002882e-05
2.350086612e-05
2.350141656e-05
2.350192978e-05
2.35024028e-05
2.35028245e-05
2.350319203e-05
2.350350483e-05
2.350389146e-05
5.083063879e-07
1.20028882e-05
2.297951607e-05
2.345347389e-05
2.346831777e-05
2.347552347e-05
2.348374118e-05
2.349240665e-05
2.349522315e-05
2.349601439e-05
2.349669097e-05
2.349733288e-05
2.349796824e-05
2.349861962e-05
2.349926719e-05
2.349991355e-05
2.3500555e-05
2.350118242e-05
2.350178654e-05
2.350236039e-05
2.350289673e-05
2.350338727e-05
2.350382776e-05
2.350421251e-05
2.350453963e-05
2.350493697e-05
5.083065916e-07
1.200607838e-05
2.299116728e-05
2.346574236e-05
2.348075706e-05
2.348791145e-05
2.349424107e-05
2.349564641e-05
2.349625738e-05
2.349684221e-05
2.349744565e-05
2.349807226e-05
2.349871494e-05
2.349937704e-05
2.350004875e-05
2.350072222e-05
2.350138935e-05
2.350203989e-05
2.350266795e-05
2.350326392e-05
2.35038213e-05
2.350433163e-05
2.350479022e-05
2.3505189e-05
2.350553016e-05
2.35059403e-05
5.083067927e-07
1.200904897e-05
2.30019495e-05
2.347682945e-05
2.349129225e-05
2.349511381e-05
2.349589643e-05
2.349638778e-05
2.349692217e-05
2.34974905e-05
2.349809696e-05
2.349873861e-05
2.349940641e-05
2.350009219e-05
2.350078794e-05
2.350148529e-05
2.350217515e-05
2.35028493e-05
2.350349939e-05
2.350411657e-05
2.350469357e-05
2.350522308e-05
2.350569849e-05
2.350611268e-05
2.350646751e-05
2.350689233e-05
5.083069786e-07
1.201152292e-05
2.301062153e-05
2.348440306e-05
2.34954037e-05
2.349603261e-05
2.349646368e-05
2.349694547e-05
2.349748279e-05
2.349806859e-05
2.349869623e-05
2.349935853e-05
2.350004759e-05
2.350075514e-05
2.350147301e-05
2.350219214e-05
2.350290454e-05
2.35036e-05
2.3504271e-05
2.350490828e-05
2.350550422e-05
2.350605074e-05
2.350654293e-05
2.350697205e-05
2.350734922e-05
2.350789617e-05
5.083071615e-07
1.201299722e-05
2.301472223e-05
2.348659762e-05
2.349599183e-05
2.349650384e-05
2.349694228e-05
2.349743971e-05
2.349799273e-05
2.349859526e-05
2.349924039e-05
2.34999214e-05
2.350062973e-05
2.35013574e-05
2.350209541e-05
2.35028348e-05
2.350356706e-05
2.350428294e-05
2.350497298e-05
2.350562909e-05
2.350624275e-05
2.350680621e-05
2.350731438e-05
2.350776387e-05
2.350827987e-05
5.083073563e-07
1.201346594e-05
2.301559206e-05
2.348701149e-05
2.349639728e-05
2.349691865e-05
2.349736786e-05
2.349787747e-05
2.349844392e-05
2.349906108e-05
2.349972204e-05
2.350041939e-05
2.350114506e-05
2.350189064e-05
2.350264692e-05
2.350340487e-05
2.350415545e-05
2.350488922e-05
2.350559707e-05
2.350627047e-05
2.350690041e-05
2.350747977e-05
2.350800285e-05
2.350846391e-05
2.350899312e-05
5.083075622e-07
1.201357777e-05
2.301591094e-05
2.348735168e-05
2.34967443e-05
2.349727334e-05
2.349773172e-05
2.34982517e-05
2.349882975e-05
2.349945961e-05
2.350013431e-05
2.350084587e-05
2.350158681e-05
2.350234807e-05
2.350312044e-05
2.350389445e-05
2.350466175e-05
2.350541149e-05
2.350613536e-05
2.35068243e-05
2.35074696e-05
2.350806432e-05
2.350859703e-05
2.350907084e-05
2.350961128e-05
5.083077426e-07
1.201365664e-05
2.301617061e-05
2.348762878e-05
2.349702701e-05
2.349756243e-05
2.34980283e-05
2.349855696e-05
2.349914472e-05
2.349978519e-05
2.35004713e-05
2.350119505e-05
2.35019491e-05
2.350272358e-05
2.350350985e-05
2.35042977e-05
2.350507856e-05
2.350584315e-05
2.350658082e-05
2.350728357e-05
2.350794235e-05
2.35085487e-05
2.350909345e-05
2.350957773e-05
2.351012946e-05
5.083078952e-07
1.201372044e-05
2.301637126e-05
2.348784235e-05
2.349724492e-05
2.34977854e-05
2.349825713e-05
2.349879271e-05
2.349938813e-05
2.350003708e-05
2.350073241e-05
2.350146614e-05
2.350223027e-05
2.350301576e-05
2.35038133e-05
2.35046131e-05
2.350540551e-05
2.350618161e-05
2.350693143e-05
2.350764626e-05
2.350831696e-05
2.350893251e-05
2.35094888e-05
2.350997853e-05
2.351040799e-05
2.351099548e-05
5.083081991e-07
1.201383097e-05
2.301662516e-05
2.348810392e-05
2.349750937e-05
2.34980535e-05
2.34985296e-05
2.349907006e-05
2.349967116e-05
2.350032641e-05
2.350102861e-05
2.35017699e-05
2.350254153e-05
2.350333551e-05
2.350414173e-05
2.350495067e-05
2.350575263e-05
2.350653782e-05
2.350729796e-05
2.35080218e-05
2.350870194e-05
2.350932803e-05
2.35098925e-05
2.351039094e-05
2.351082029e-05
2.351130794e-05
5.072011582e-07
6.191414712e-07
6.195260455e-07
6.195346165e-07
6.195348456e-07
6.195349774e-07
6.195351335e-07
6.195353143e-07
6.195355169e-07
6.195357392e-07
6.195359775e-07
6.195362268e-07
6.195364847e-07
6.19536749e-07
6.195370132e-07
6.195372797e-07
6.195375413e-07
6.195377998e-07
6.195380497e-07
6.195382877e-07
6.195385116e-07
6.195387192e-07
6.195389079e-07
6.195390757e-07
6.195392214e-07
6.195395536e-07
5.081993242e-07
1.118609039e-05
1.975091648e-05
2.007282222e-05
2.007874453e-05
2.007896594e-05
2.007912651e-05
2.007930781e-05
2.007950856e-05
2.007972719e-05
2.007996119e-05
2.008020714e-05
2.00804632e-05
2.008072724e-05
2.008099275e-05
2.00812604e-05
2.008152272e-05
2.008178081e-05
2.008202922e-05
2.008226346e-05
2.00824822e-05
2.008268352e-05
2.008286349e-05
2.008301934e-05
2.008315359e-05
2.00833806e-05
5.083638661e-07
1.615447695e-05
6.716003973e-05
7.518730456e-05
7.549331415e-05
7.550321167e-05
7.550547697e-05
7.550785412e-05
7.551048496e-05
7.551334463e-05
7.551640163e-05
7.551960806e-05
7.552294602e-05
7.55263776e-05
7.552982341e-05
7.553328387e-05
7.553666467e-05
7.553998849e-05
7.554317227e-05
7.554617022e-05
7.554893296e-05
7.555146732e-05
7.555370699e-05
7.555561864e-05
7.555717931e-05
7.555863557e-05
5.083676266e-07
1.628078788e-05
7.222075977e-05
8.221478768e-05
8.262131537e-05
8.263480769e-05
8.263766181e-05
8.264063433e-05
8.264391659e-05
8.264748405e-05
8.265129605e-05
8.265530453e-05
8.265946902e-05
8.266372221e-05
8.266802364e-05
8.267232655e-05
8.267654606e-05
8.268068412e-05
8.268464533e-05
8.268837902e-05
8.269182679e-05
8.269497059e-05
8.269775171e-05
8.270012522e-05
8.270204659e-05
8.270368338e-05
5.083678113e-07
1.628276011e-05
7.237627468e-05
8.244932488e-05
8.286038654e-05
8.28741138e-05
8.28770865e-05
8.288017559e-05
8.288359532e-05
8.288731112e-05
8.289126988e-05
8.289543497e-05
8.28997626e-05
8.290418445e-05
8.290867337e-05
8.291314447e-05
8.291755528e-05
8.292185134e-05
8.292596413e-05
8.292984481e-05
8.293344039e-05
8.293670996e-05
8.293961119e-05
8.294209082e-05
8.29440998e-05
8.294576777e-05
5.083679749e-07
1.628294889e-05
7.238295447e-05
8.245922986e-05
8.287054142e-05
8.288437487e-05
8.288745686e-05
8.289066407e-05
8.289421422e-05
8.28980746e-05
8.290219978e-05
8.290654726e-05
8.29110454e-05
8.291564816e-05
8.292030528e-05
8.292494289e-05
8.292951531e-05
8.293398568e-05
8.293826042e-05
8.294229618e-05
8.294604074e-05
8.294943745e-05
8.29524696e-05
8.29550436e-05
8.295715962e-05
8.295890553e-05
5.083681623e-07
1.628314565e-05
7.23869308e-05
8.246466224e-05
8.287613457e-05
8.289007704e-05
8.289329659e-05
8.289666562e-05
8.290037808e-05
8.290441486e-05
8.290871872e-05
8.291324506e-05
8.291793688e-05
8.292274876e-05
8.292760453e-05
8.293244075e-05
8.293722039e-05
8.294187326e-05
8.294634074e-05
8.295055967e-05
8.295447948e-05
8.295805111e-05
8.296120225e-05
8.296392246e-05
8.296615161e-05
8.296799405e-05
5.083683788e-07
1.628337049e-05
7.23914374e-05
8.247079116e-05
8.288244099e-05
8.289651018e-05
8.289986771e-05
8.290338965e-05
8.290727511e-05
8.291148218e-05
8.291598677e-05
8.292071521e-05
8.292562959e-05
8.293065899e-05
8.293575772e-05
8.294084604e-05
8.294586653e-05
8.295074437e-05
8.295544255e-05
8.295987713e-05
8.296398707e-05
8.296774251e-05
8.297104592e-05
8.297389719e-05
8.297626529e-05
8.297820539e-05
5.083686241e-07
1.62836238e-05
7.239644326e-05
8.247759042e-05
8.288942324e-05
8.290361834e-05
8.290712869e-05
8.291081957e-05
8.291490639e-05
8.291934452e-05
8.292408771e-05
8.29290816e-05
8.293426181e-05
8.293956159e-05
8.294493362e-05
8.295029846e-05
8.29555748e-05
8.296071373e-05
8.296566818e-05
8.297033967e-05
8.297467637e-05
8.297861208e-05
8.2982113e-05
8.29851216e-05
8.298758303e-05
8.298964024e-05
5.083688916e-07
1.628389841e-05
7.240191325e-05
8.24850256e-05
8.289707638e-05
8.29114328e-05
8.29151216e-05
8.291902583e-05
8.292333977e-05
8.292802923e-05
8.293303484e-05
8.293830626e-05
8.294377209e-05
8.294937244e-05
8.295502813e-05
8.29606869e-05
8.296626144e-05
8.297169822e-05
8.297692057e-05
8.298184985e-05
8.298642836e-05
8.299059073e-05
8.29942903e-05
8.299747024e-05
8.300009134e-05
8.300224847e-05
5.08369179e-07
1.628419656e-05
7.240786112e-05
8.249310879e-05
8.290539097e-05
8.291991226e-05
8.292380055e-05
8.292791578e-05
8.293247828e-05
8.293742955e-05
8.294271982e-05
8.294828208e-05
8.295405955e-05
8.295997591e-05
8.296595498e-05
8.297193992e-05
8.297784172e-05
8.298356604e-05
8.298908268e-05
8.29942991e-05
8.299914035e-05
8.30035465e-05
8.300746263e-05
8.301083957e-05
8.301359987e-05
8.301588907e-05
5.083694832e-07
1.62845141e-05
7.241420836e-05
8.250173493e-05
8.291426462e-05
8.292896493e-05
8.293305014e-05