/*--------------------------------*- C++ -*----------------------------------*\
  =========                 |
  \\      /  F ield         | OpenFOAM: The Open Source CFD Toolbox
   \\    /   O peration     | Website:  https://openfoam.org
    \\  /    A nd           | Version:  8
     \\/     M anipulation  |
\*---------------------------------------------------------------------------*/
FoamFile
{
    version     2.0;
    format      ascii;
    class       volScalarField;
    location    "0.1";
    object      O2;
}
// * * * * * * * * * * * * * * * * * * * * * * * * * * * * * * * * * * * * * //

dimensions      [0 0 0 0 0 0 0];

internalField   nonuniform List<scalar> 
67410
(
0.2100064691
0.2100064691
0.2100064692
0.2100064693
0.2100064695
0.2100064696
0.2100064699
0.2100064702
0.2100064705
0.2100064708
0.2100064711
0.2100064715
0.2100064719
0.2100064723
0.2100064727
0.2100064731
0.2100064735
0.2100064739
0.2100064743
0.2100064747
0.2100064751
0.2100064755
0.2100064759
0.2100064763
0.2100064767
0.2100064771
0.2100064691
0.2100064665
0.2100064656
0.2100064656
0.2100064658
0.210006466
0.2100064662
0.2100064665
0.2100064668
0.2100064672
0.2100064675
0.2100064679
0.2100064683
0.2100064687
0.2100064691
0.2100064695
0.2100064699
0.2100064703
0.2100064707
0.2100064711
0.2100064715
0.2100064719
0.2100064723
0.2100064727
0.2100064731
0.2100064735
0.2100064692
0.2100064659
0.2100064638
0.2100064639
0.210006464
0.2100064642
0.2100064645
0.2100064647
0.210006465
0.2100064654
0.2100064657
0.2100064661
0.2100064665
0.2100064669
0.2100064673
0.2100064677
0.2100064681
0.2100064685
0.2100064689
0.2100064693
0.2100064697
0.2100064701
0.2100064705
0.2100064709
0.2100064713
0.2100064717
0.2100064694
0.2100064661
0.2100064639
0.2100064639
0.2100064641
0.2100064643
0.2100064646
0.2100064648
0.2100064651
0.2100064655
0.2100064658
0.2100064662
0.2100064666
0.210006467
0.2100064674
0.2100064678
0.2100064682
0.2100064686
0.210006469
0.2100064695
0.2100064699
0.2100064703
0.2100064706
0.210006471
0.2100064715
0.2100064718
0.2100064695
0.2100064662
0.2100064641
0.2100064641
0.2100064643
0.2100064645
0.2100064647
0.210006465
0.2100064653
0.2100064657
0.210006466
0.2100064664
0.2100064668
0.2100064672
0.2100064676
0.210006468
0.2100064684
0.2100064688
0.2100064693
0.2100064697
0.2100064701
0.2100064705
0.2100064709
0.2100064713
0.2100064717
0.2100064721
0.2100064697
0.2100064665
0.2100064643
0.2100064643
0.2100064645
0.2100064647
0.210006465
0.2100064652
0.2100064656
0.2100064659
0.2100064663
0.2100064666
0.210006467
0.2100064674
0.2100064679
0.2100064683
0.2100064687
0.2100064691
0.2100064695
0.2100064699
0.2100064704
0.2100064708
0.2100064712
0.2100064716
0.210006472
0.2100064724
0.21000647
0.2100064667
0.2100064645
0.2100064646
0.2100064648
0.210006465
0.2100064652
0.2100064655
0.2100064658
0.2100064662
0.2100064665
0.2100064669
0.2100064673
0.2100064677
0.2100064681
0.2100064686
0.210006469
0.2100064694
0.2100064698
0.2100064702
0.2100064707
0.2100064711
0.2100064715
0.2100064719
0.2100064723
0.2100064727
0.2100064703
0.210006467
0.2100064648
0.2100064649
0.2100064651
0.2100064653
0.2100064655
0.2100064658
0.2100064661
0.2100064665
0.2100064669
0.2100064672
0.2100064676
0.210006468
0.2100064685
0.2100064689
0.2100064693
0.2100064697
0.2100064702
0.2100064706
0.210006471
0.2100064714
0.2100064718
0.2100064722
0.2100064727
0.2100064731
0.2100064706
0.2100064673
0.2100064651
0.2100064652
0.2100064654
0.2100064656
0.2100064659
0.2100064662
0.2100064665
0.2100064668
0.2100064672
0.2100064676
0.210006468
0.2100064684
0.2100064688
0.2100064692
0.2100064697
0.2100064701
0.2100064705
0.2100064709
0.2100064714
0.2100064718
0.2100064722
0.2100064726
0.2100064731
0.2100064734
0.2100064709
0.2100064676
0.2100064655
0.2100064655
0.2100064657
0.2100064659
0.2100064662
0.2100064665
0.2100064668
0.2100064672
0.2100064676
0.210006468
0.2100064684
0.2100064688
0.2100064692
0.2100064696
0.2100064701
0.2100064705
0.2100064709
0.2100064713
0.2100064718
0.2100064722
0.2100064726
0.210006473
0.2100064735
0.2100064739
0.2100064713
0.210006468
0.2100064658
0.2100064659
0.2100064661
0.2100064663
0.2100064666
0.2100064669
0.2100064672
0.2100064676
0.210006468
0.2100064683
0.2100064688
0.2100064692
0.2100064696
0.21000647
0.2100064705
0.2100064709
0.2100064713
0.2100064718
0.2100064722
0.2100064726
0.210006473
0.2100064735
0.2100064739
0.2100064743
0.2100064716
0.2100064684
0.2100064662
0.2100064663
0.2100064665
0.2100064667
0.210006467
0.2100064673
0.2100064676
0.210006468
0.2100064684
0.2100064688
0.2100064692
0.2100064696
0.21000647
0.2100064705
0.2100064709
0.2100064713
0.2100064718
0.2100064722
0.2100064726
0.2100064731
0.2100064735
0.2100064739
0.2100064744
0.2100064748
0.2100064721
0.2100064688
0.2100064666
0.2100064667
0.2100064669
0.2100064671
0.2100064674
0.2100064677
0.2100064681
0.2100064684
0.2100064688
0.2100064692
0.2100064696
0.21000647
0.2100064705
0.2100064709
0.2100064713
0.2100064718
0.2100064722
0.2100064727
0.2100064731
0.2100064735
0.210006474
0.2100064744
0.2100064749
0.2100064752
0.2100064725
0.2100064692
0.210006467
0.2100064671
0.2100064673
0.2100064676
0.2100064679
0.2100064682
0.2100064685
0.2100064689
0.2100064693
0.2100064697
0.2100064701
0.2100064705
0.2100064709
0.2100064714
0.2100064718
0.2100064723
0.2100064727
0.2100064732
0.2100064736
0.210006474
0.2100064745
0.2100064749
0.2100064753
0.2100064757
0.2100064729
0.2100064697
0.2100064675
0.2100064676
0.2100064678
0.210006468
0.2100064683
0.2100064686
0.210006469
0.2100064693
0.2100064697
0.2100064701
0.2100064705
0.210006471
0.2100064714
0.2100064718
0.2100064723
0.2100064727
0.2100064732
0.2100064736
0.2100064741
0.2100064745
0.210006475
0.2100064754
0.2100064759
0.2100064762
0.2100064734
0.2100064701
0.210006468
0.2100064681
0.2100064683
0.2100064685
0.2100064688
0.2100064691
0.2100064695
0.2100064698
0.2100064702
0.2100064706
0.210006471
0.2100064715
0.2100064719
0.2100064723
0.2100064728
0.2100064732
0.2100064737
0.2100064741
0.2100064746
0.210006475
0.2100064755
0.2100064759
0.2100064764
0.2100064768
0.2100064739
0.2100064706
0.2100064685
0.2100064686
0.2100064688
0.210006469
0.2100064693
0.2100064696
0.2100064699
0.2100064703
0.2100064707
0.2100064711
0.2100064715
0.210006472
0.2100064724
0.2100064728
0.2100064733
0.2100064737
0.2100064742
0.2100064747
0.2100064751
0.2100064756
0.210006476
0.2100064764
0.2100064769
0.2100064773
0.2100064744
0.2100064712
0.210006469
0.2100064691
0.2100064693
0.2100064695
0.2100064698
0.2100064701
0.2100064705
0.2100064708
0.2100064712
0.2100064716
0.210006472
0.2100064725
0.2100064729
0.2100064733
0.2100064738
0.2100064743
0.2100064747
0.2100064752
0.2100064756
0.2100064761
0.2100064765
0.210006477
0.2100064775
0.2100064779
0.210006475
0.2100064717
0.2100064695
0.2100064696
0.2100064698
0.21000647
0.2100064703
0.2100064706
0.210006471
0.2100064713
0.2100064717
0.2100064721
0.2100064725
0.210006473
0.2100064734
0.2100064739
0.2100064743
0.2100064748
0.2100064753
0.2100064757
0.2100064762
0.2100064766
0.2100064771
0.2100064775
0.210006478
0.2100064784
0.2100064755
0.2100064722
0.2100064701
0.2100064701
0.2100064703
0.2100064706
0.2100064708
0.2100064711
0.2100064715
0.2100064718
0.2100064722
0.2100064726
0.2100064731
0.2100064735
0.2100064739
0.2100064744
0.2100064748
0.2100064753
0.2100064758
0.2100064763
0.2100064767
0.2100064772
0.2100064776
0.2100064781
0.2100064786
0.210006479
0.210006476
0.2100064728
0.2100064706
0.2100064707
0.2100064708
0.2100064711
0.2100064713
0.2100064717
0.210006472
0.2100064724
0.2100064727
0.2100064731
0.2100064736
0.210006474
0.2100064744
0.2100064749
0.2100064754
0.2100064758
0.2100064763
0.2100064768
0.2100064773
0.2100064777
0.2100064782
0.2100064786
0.2100064791
0.2100064795
0.2100064766
0.2100064733
0.2100064711
0.2100064712
0.2100064714
0.2100064716
0.2100064719
0.2100064722
0.2100064725
0.2100064729
0.2100064733
0.2100064737
0.2100064741
0.2100064745
0.210006475
0.2100064754
0.2100064759
0.2100064764
0.2100064768
0.2100064773
0.2100064778
0.2100064783
0.2100064787
0.2100064792
0.2100064797
0.2100064801
0.2100064771
0.2100064738
0.2100064716
0.2100064717
0.2100064719
0.2100064721
0.2100064724
0.2100064727
0.210006473
0.2100064734
0.2100064738
0.2100064742
0.2100064746
0.210006475
0.2100064755
0.210006476
0.2100064764
0.2100064769
0.2100064774
0.2100064779
0.2100064783
0.2100064788
0.2100064793
0.2100064797
0.2100064803
0.2100064807
0.2100064776
0.2100064743
0.2100064722
0.2100064722
0.2100064724
0.2100064726
0.2100064729
0.2100064732
0.2100064735
0.2100064739
0.2100064743
0.2100064747
0.2100064751
0.2100064755
0.210006476
0.2100064765
0.2100064769
0.2100064774
0.2100064779
0.2100064784
0.2100064789
0.2100064793
0.2100064798
0.2100064803
0.2100064808
0.2100064812
0.2100064781
0.2100064748
0.2100064727
0.2100064727
0.2100064729
0.2100064731
0.2100064734
0.2100064737
0.210006474
0.2100064744
0.2100064747
0.2100064752
0.2100064756
0.210006476
0.2100064765
0.210006477
0.2100064775
0.210006478
0.2100064784
0.2100064789
0.2100064794
0.2100064799
0.2100064803
0.2100064808
0.2100064813
0.2100064786
0.2100064753
0.2100064731
0.2100064732
0.2100064734
0.2100064736
0.2100064739
0.2100064741
0.2100064745
0.2100064748
0.2100064752
0.2100064756
0.2100064761
0.2100064765
0.210006477
0.2100064775
0.210006478
0.2100064785
0.2100064789
0.2100064794
0.2100064799
0.2100064804
0.2100064808
0.2100064813
0.2100064817
0.2100064791
0.2100064758
0.2100064736
0.2100064737
0.2100064738
0.2100064741
0.2100064743
0.2100064746
0.2100064749
0.2100064753
0.2100064757
0.2100064761
0.2100064766
0.210006477
0.2100064775
0.210006478
0.2100064785
0.2100064789
0.2100064794
0.2100064799
0.2100064804
0.2100064809
0.2100064813
0.2100064818
0.2100064822
0.2100064796
0.2100064763
0.2100064741
0.2100064741
0.2100064743
0.2100064745
0.2100064748
0.2100064751
0.2100064754
0.2100064758
0.2100064762
0.2100064766
0.210006477
0.2100064775
0.210006478
0.2100064784
0.2100064789
0.2100064794
0.2100064799
0.2100064804
0.2100064809
0.2100064813
0.2100064818
0.2100064823
0.2100064827
0.21000648
0.2100064767
0.2100064745
0.2100064746
0.2100064748
0.210006475
0.2100064752
0.2100064755
0.2100064759
0.2100064762
0.2100064766
0.2100064771
0.2100064775
0.210006478
0.2100064785
0.2100064789
0.2100064794
0.2100064799
0.2100064804
0.2100064809
0.2100064814
0.2100064818
0.2100064823
0.2100064827
0.2100064832
0.2100064836
0.2100064804
0.2100064771
0.210006475
0.210006475
0.2100064752
0.2100064754
0.2100064757
0.210006476
0.2100064763
0.2100064767
0.2100064771
0.2100064775
0.2100064779
0.2100064784
0.2100064789
0.2100064794
0.2100064799
0.2100064804
0.2100064809
0.2100064814
0.2100064818
0.2100064823
0.2100064827
0.2100064832
0.2100064836
0.210006484
0.2100060995
0.2100060995
0.2100060996
0.2100060997
0.2100060999
0.2100061001
0.2100061003
0.2100061006
0.2100061009
0.2100061012
0.2100061015
0.2100061019
0.2100061023
0.2100061027
0.2100061031
0.2100061035
0.2100061039
0.2100061043
0.2100061047
0.2100061051
0.2100061055
0.2100061059
0.2100061063
0.2100061067
0.2100061071
0.2100061075
0.2100060995
0.2100060983
0.2100060975
0.2100060975
0.2100060977
0.2100060979
0.2100060981
0.2100060984
0.2100060987
0.210006099
0.2100060994
0.2100060997
0.2100061001
0.2100061005
0.2100061009
0.2100061013
0.2100061017
0.2100061021
0.2100061025
0.2100061029
0.2100061033
0.2100061037
0.2100061041
0.2100061045
0.2100061049
0.2100061052
0.2100060996
0.2100060978
0.2100060939
0.2100060936
0.2100060937
0.2100060939
0.2100060942
0.2100060944
0.2100060947
0.210006095
0.2100060954
0.2100060958
0.2100060961
0.2100060965
0.2100060969
0.2100060973
0.2100060978
0.2100060982
0.2100060986
0.210006099
0.2100060994
0.2100060998
0.2100061002
0.2100061006
0.210006101
0.2100061012
0.2100060997
0.2100060979
0.2100060937
0.2100060934
0.2100060935
0.2100060937
0.2100060939
0.2100060942
0.2100060945
0.2100060948
0.2100060952
0.2100060956
0.2100060959
0.2100060963
0.2100060967
0.2100060971
0.2100060976
0.210006098
0.2100060984
0.2100060988
0.2100060992
0.2100060996
0.2100061
0.2100061004
0.2100061008
0.210006101
0.2100060999
0.2100060981
0.2100060939
0.2100060935
0.2100060937
0.2100060939
0.2100060941
0.2100060944
0.2100060947
0.210006095
0.2100060954
0.2100060957
0.2100060961
0.2100060965
0.2100060969
0.2100060973
0.2100060978
0.2100060982
0.2100060986
0.210006099
0.2100060994
0.2100060998
0.2100061002
0.2100061006
0.210006101
0.2100061013
0.2100061001
0.2100060983
0.2100060941
0.2100060937
0.2100060939
0.2100060941
0.2100060943
0.2100060946
0.2100060949
0.2100060953
0.2100060956
0.210006096
0.2100060964
0.2100060968
0.2100060972
0.2100060976
0.210006098
0.2100060984
0.2100060988
0.2100060992
0.2100060997
0.2100061001
0.2100061005
0.2100061009
0.2100061013
0.2100061015
0.2100061004
0.2100060985
0.2100060943
0.210006094
0.2100060941
0.2100060943
0.2100060946
0.2100060949
0.2100060952
0.2100060955
0.2100060959
0.2100060963
0.2100060966
0.210006097
0.2100060975
0.2100060979
0.2100060983
0.2100060987
0.2100060991
0.2100060995
0.2100061
0.2100061004
0.2100061008
0.2100061012
0.2100061016
0.2100061019
0.2100061006
0.2100060988
0.2100060946
0.2100060943
0.2100060944
0.2100060946
0.2100060949
0.2100060952
0.2100060955
0.2100060958
0.2100060962
0.2100060966
0.2100060969
0.2100060973
0.2100060978
0.2100060982
0.2100060986
0.210006099
0.2100060994
0.2100060999
0.2100061003
0.2100061007
0.2100061011
0.2100061015
0.210006102
0.2100061022
0.2100061009
0.2100060991
0.2100060949
0.2100060946
0.2100060947
0.2100060949
0.2100060952
0.2100060955
0.2100060958
0.2100060961
0.2100060965
0.2100060969
0.2100060973
0.2100060977
0.2100060981
0.2100060985
0.2100060989
0.2100060994
0.2100060998
0.2100061002
0.2100061007
0.2100061011
0.2100061015
0.2100061019
0.2100061023
0.2100061026
0.2100061012
0.2100060994
0.2100060952
0.2100060949
0.2100060951
0.2100060953
0.2100060955
0.2100060958
0.2100060962
0.2100060965
0.2100060969
0.2100060973
0.2100060976
0.2100060981
0.2100060985
0.2100060989
0.2100060993
0.2100060997
0.2100061002
0.2100061006
0.210006101
0.2100061015
0.2100061019
0.2100061023
0.2100061027
0.210006103
0.2100061016
0.2100060998
0.2100060956
0.2100060952
0.2100060954
0.2100060956
0.2100060959
0.2100060962
0.2100060965
0.2100060969
0.2100060972
0.2100060976
0.210006098
0.2100060984
0.2100060989
0.2100060993
0.2100060997
0.2100061002
0.2100061006
0.210006101
0.2100061014
0.2100061019
0.2100061023
0.2100061027
0.2100061032
0.2100061034
0.210006102
0.2100061001
0.210006096
0.2100060956
0.2100060958
0.210006096
0.2100060963
0.2100060966
0.2100060969
0.2100060973
0.2100060976
0.210006098
0.2100060984
0.2100060989
0.2100060993
0.2100060997
0.2100061001
0.2100061006
0.210006101
0.2100061014
0.2100061019
0.2100061023
0.2100061027
0.2100061031
0.2100061036
0.2100061038
0.2100061024
0.2100061005
0.2100060964
0.210006096
0.2100060962
0.2100060964
0.2100060967
0.210006097
0.2100060973
0.2100060977
0.2100060981
0.2100060985
0.2100060989
0.2100060993
0.2100060997
0.2100061001
0.2100061006
0.210006101
0.2100061014
0.2100061019
0.2100061023
0.2100061028
0.2100061032
0.2100061036
0.2100061041
0.2100061043
0.2100061028
0.210006101
0.2100060968
0.2100060964
0.2100060966
0.2100060969
0.2100060971
0.2100060974
0.2100060978
0.2100060981
0.2100060985
0.2100060989
0.2100060993
0.2100060997
0.2100061001
0.2100061006
0.210006101
0.2100061015
0.2100061019
0.2100061024
0.2100061028
0.2100061032
0.2100061037
0.2100061041
0.2100061046
0.2100061048
0.2100061032
0.2100061014
0.2100060972
0.2100060969
0.2100060971
0.2100060973
0.2100060976
0.2100060979
0.2100060982
0.2100060986
0.210006099
0.2100060994
0.2100060998
0.2100061002
0.2100061006
0.2100061011
0.2100061015
0.2100061019
0.2100061024
0.2100061028
0.2100061033
0.2100061037
0.2100061042
0.2100061046
0.2100061051
0.2100061053
0.2100061037
0.2100061019
0.2100060977
0.2100060974
0.2100060975
0.2100060978
0.2100060981
0.2100060984
0.2100060987
0.2100060991
0.2100060994
0.2100060998
0.2100061002
0.2100061007
0.2100061011
0.2100061015
0.210006102
0.2100061024
0.2100061029
0.2100061033
0.2100061038
0.2100061042
0.2100061047
0.2100061051
0.2100061056
0.2100061058
0.2100061042
0.2100061024
0.2100060982
0.2100060978
0.210006098
0.2100060983
0.2100060985
0.2100060988
0.2100060992
0.2100060995
0.2100060999
0.2100061003
0.2100061007
0.2100061012
0.2100061016
0.210006102
0.2100061025
0.2100061029
0.2100061034
0.2100061038
0.2100061043
0.2100061047
0.2100061052
0.2100061056
0.2100061061
0.2100061063
0.2100061047
0.2100061029
0.2100060987
0.2100060983
0.2100060985
0.2100060988
0.210006099
0.2100060993
0.2100060997
0.2100061
0.2100061004
0.2100061008
0.2100061012
0.2100061016
0.2100061021
0.2100061025
0.210006103
0.2100061034
0.2100061039
0.2100061044
0.2100061048
0.2100061053
0.2100061057
0.2100061062
0.2100061067
0.2100061069
0.2100061052
0.2100061034
0.2100060992
0.2100060989
0.210006099
0.2100060993
0.2100060995
0.2100060998
0.2100061002
0.2100061005
0.2100061009
0.2100061013
0.2100061017
0.2100061022
0.2100061026
0.210006103
0.2100061035
0.210006104
0.2100061044
0.2100061049
0.2100061054
0.2100061058
0.2100061063
0.2100061067
0.2100061072
0.2100061074
0.2100061057
0.2100061039
0.2100060997
0.2100060994
0.2100060995
0.2100060998
0.2100061
0.2100061003
0.2100061007
0.210006101
0.2100061014
0.2100061018
0.2100061022
0.2100061027
0.2100061031
0.2100061036
0.210006104
0.2100061045
0.210006105
0.2100061054
0.2100061059
0.2100061064
0.2100061068
0.2100061073
0.2100061078
0.210006108
0.2100061062
0.2100061044
0.2100061002
0.2100060999
0.2100061001
0.2100061003
0.2100061006
0.2100061009
0.2100061012
0.2100061015
0.2100061019
0.2100061023
0.2100061027
0.2100061032
0.2100061036
0.2100061041
0.2100061045
0.210006105
0.2100061055
0.210006106
0.2100061064
0.2100061069
0.2100061074
0.2100061078
0.2100061083
0.2100061086
0.2100061068
0.2100061049
0.2100061008
0.2100061004
0.2100061006
0.2100061008
0.2100061011
0.2100061014
0.2100061017
0.2100061021
0.2100061024
0.2100061028
0.2100061033
0.2100061037
0.2100061041
0.2100061046
0.2100061051
0.2100061055
0.210006106
0.2100061065
0.210006107
0.2100061074
0.2100061079
0.2100061084
0.2100061089
0.2100061091
0.2100061073
0.2100061055
0.2100061013
0.2100061009
0.2100061011
0.2100061013
0.2100061016
0.2100061019
0.2100061022
0.2100061026
0.2100061029
0.2100061033
0.2100061038
0.2100061042
0.2100061047
0.2100061051
0.2100061056
0.2100061061
0.2100061066
0.210006107
0.2100061075
0.210006108
0.2100061084
0.2100061089
0.2100061094
0.2100061097
0.2100061078
0.210006106
0.2100061018
0.2100061014
0.2100061016
0.2100061018
0.2100061021
0.2100061024
0.2100061027
0.2100061031
0.2100061034
0.2100061038
0.2100061043
0.2100061047
0.2100061052
0.2100061056
0.2100061061
0.2100061066
0.2100061071
0.2100061076
0.210006108
0.2100061085
0.210006109
0.2100061095
0.21000611
0.21000611
0.2100061083
0.2100061065
0.2100061023
0.2100061019
0.2100061021
0.2100061023
0.2100061026
0.2100061029
0.2100061032
0.2100061035
0.2100061039
0.2100061043
0.2100061048
0.2100061052
0.2100061057
0.2100061061
0.2100061066
0.2100061071
0.2100061076
0.2100061081
0.2100061086
0.210006109
0.2100061095
0.21000611
0.2100061103
0.2100061088
0.210006107
0.2100061028
0.2100061024
0.2100061026
0.2100061028
0.210006103
0.2100061033
0.2100061037
0.210006104
0.2100061044
0.2100061048
0.2100061052
0.2100061057
0.2100061062
0.2100061066
0.2100061071
0.2100061076
0.2100061081
0.2100061086
0.2100061091
0.2100061095
0.21000611
0.2100061105
0.2100061107
0.2100061093
0.2100061074
0.2100061032
0.2100061029
0.210006103
0.2100061032
0.2100061035
0.2100061038
0.2100061041
0.2100061045
0.2100061049
0.2100061053
0.2100061057
0.2100061062
0.2100061066
0.2100061071
0.2100061076
0.2100061081
0.2100061086
0.2100061091
0.2100061095
0.21000611
0.2100061105
0.2100061109
0.2100061112
0.2100061097
0.2100061079
0.2100061037
0.2100061033
0.2100061035
0.2100061037
0.210006104
0.2100061043
0.2100061046
0.2100061049
0.2100061053
0.2100061058
0.2100061062
0.2100061066
0.2100061071
0.2100061076
0.2100061081
0.2100061086
0.2100061091
0.2100061096
0.21000611
0.2100061105
0.2100061109
0.2100061114
0.2100061117
0.2100061102
0.2100061084
0.2100061042
0.2100061038
0.210006104
0.2100061042
0.2100061044
0.2100061047
0.2100061051
0.2100061054
0.2100061058
0.2100061062
0.2100061067
0.2100061071
0.2100061076
0.2100061081
0.2100061086
0.2100061091
0.2100061096
0.2100061101
0.2100061105
0.210006111
0.2100061114
0.2100061119
0.2100061124
0.2100061125
0.2100061106
0.2100061087
0.2100061044
0.2100061041
0.2100061042
0.2100061045
0.2100061047
0.210006105
0.2100061053
0.2100061057
0.2100061061
0.2100061065
0.210006107
0.2100061074
0.2100061079
0.2100061084
0.2100061089
0.2100061094
0.2100061099
0.2100061104
0.2100061108
0.2100061113
0.2100061117
0.2100061122
0.2100061126
0.2100061129
0.2100058342
0.2100058343
0.2100058344
0.2100058345
0.2100058346
0.2100058348
0.2100058351
0.2100058353
0.2100058356
0.2100058359
0.2100058363
0.2100058366
0.210005837
0.2100058374
0.2100058378
0.2100058382
0.2100058386
0.210005839
0.2100058394
0.2100058399
0.2100058403
0.2100058407
0.210005841
0.2100058415
0.2100058419
0.2100058423
0.2100058343
0.2100058345
0.2100058344
0.2100058345
0.2100058346
0.2100058348
0.2100058351
0.2100058353
0.2100058356
0.2100058359
0.2100058363
0.2100058366
0.210005837
0.2100058374
0.2100058378
0.2100058382
0.2100058386
0.210005839
0.2100058394
0.2100058398
0.2100058403
0.2100058407
0.2100058411
0.2100058415
0.2100058419
0.2100058421
0.2100058344
0.2100058345
0.2100058322
0.210005832
0.2100058322
0.2100058324
0.2100058326
0.2100058329
0.2100058332
0.2100058335
0.2100058338
0.2100058342
0.2100058346
0.2100058349
0.2100058354
0.2100058358
0.2100058362
0.2100058366
0.210005837
0.2100058374
0.2100058378
0.2100058382
0.2100058386
0.210005839
0.2100058395
0.2100058397
0.2100058345
0.2100058346
0.2100058321
0.2100058319
0.210005832
0.2100058322
0.2100058325
0.2100058327
0.210005833
0.2100058333
0.2100058337
0.210005834
0.2100058344
0.2100058348
0.2100058352
0.2100058356
0.210005836
0.2100058365
0.2100058369
0.2100058373
0.2100058377
0.2100058381
0.2100058385
0.2100058389
0.2100058394
0.2100058396
0.2100058347
0.2100058348
0.2100058323
0.210005832
0.2100058322
0.2100058324
0.2100058326
0.2100058329
0.2100058332
0.2100058335
0.2100058339
0.2100058342
0.2100058346
0.210005835
0.2100058354
0.2100058358
0.2100058362
0.2100058366
0.2100058371
0.2100058375
0.2100058379
0.2100058383
0.2100058387
0.2100058391
0.2100058396
0.2100058398
0.2100058349
0.210005835
0.2100058325
0.2100058322
0.2100058324
0.2100058326
0.2100058328
0.2100058331
0.2100058334
0.2100058337
0.2100058341
0.2100058345
0.2100058348
0.2100058352
0.2100058356
0.210005836
0.2100058365
0.2100058369
0.2100058373
0.2100058377
0.2100058381
0.2100058386
0.210005839
0.2100058394
0.2100058398
0.21000584
0.2100058351
0.2100058352
0.2100058327
0.2100058325
0.2100058326
0.2100058328
0.2100058331
0.2100058334
0.2100058337
0.210005834
0.2100058343
0.2100058347
0.2100058351
0.2100058355
0.2100058359
0.2100058363
0.2100058367
0.2100058372
0.2100058376
0.210005838
0.2100058384
0.2100058388
0.2100058393
0.2100058397
0.2100058401
0.2100058404
0.2100058354
0.2100058355
0.210005833
0.2100058328
0.2100058329
0.2100058331
0.2100058334
0.2100058336
0.210005834
0.2100058343
0.2100058346
0.210005835
0.2100058354
0.2100058358
0.2100058362
0.2100058366
0.2100058371
0.2100058375
0.2100058379
0.2100058383
0.2100058388
0.2100058392
0.2100058396
0.21000584
0.2100058405
0.2100058407
0.2100058357
0.2100058358
0.2100058333
0.2100058331
0.2100058332
0.2100058334
0.2100058337
0.210005834
0.2100058343
0.2100058346
0.210005835
0.2100058353
0.2100058357
0.2100058361
0.2100058366
0.210005837
0.2100058374
0.2100058378
0.2100058383
0.2100058387
0.2100058391
0.2100058395
0.21000584
0.2100058404
0.2100058408
0.210005841
0.210005836
0.2100058361
0.2100058336
0.2100058334
0.2100058335
0.2100058338
0.210005834
0.2100058343
0.2100058346
0.210005835
0.2100058353
0.2100058357
0.2100058361
0.2100058365
0.2100058369
0.2100058373
0.2100058378
0.2100058382
0.2100058386
0.2100058391
0.2100058395
0.2100058399
0.2100058403
0.2100058408
0.2100058412
0.2100058414
0.2100058363
0.2100058364
0.210005834
0.2100058337
0.2100058339
0.2100058341
0.2100058344
0.2100058347
0.210005835
0.2100058353
0.2100058357
0.2100058361
0.2100058365
0.2100058369
0.2100058373
0.2100058377
0.2100058382
0.2100058386
0.210005839
0.2100058395
0.2100058399
0.2100058403
0.2100058408
0.2100058412
0.2100058416
0.2100058419
0.2100058367
0.2100058368
0.2100058343
0.2100058341
0.2100058343
0.2100058345
0.2100058348
0.2100058351
0.2100058354
0.2100058357
0.2100058361
0.2100058365
0.2100058369
0.2100058373
0.2100058377
0.2100058381
0.2100058386
0.210005839
0.2100058394
0.2100058399
0.2100058403
0.2100058408
0.2100058412
0.2100058416
0.2100058421
0.2100058423
0.2100058371
0.2100058372
0.2100058348
0.2100058345
0.2100058347
0.2100058349
0.2100058352
0.2100058355
0.2100058358
0.2100058361
0.2100058365
0.2100058369
0.2100058373
0.2100058377
0.2100058381
0.2100058386
0.210005839
0.2100058395
0.2100058399
0.2100058403
0.2100058408
0.2100058412
0.2100058416
0.2100058421
0.2100058426
0.2100058428
0.2100058375
0.2100058376
0.2100058352
0.2100058349
0.2100058351
0.2100058353
0.2100058356
0.2100058359
0.2100058362
0.2100058366
0.210005837
0.2100058373
0.2100058377
0.2100058382
0.2100058386
0.210005839
0.2100058395
0.2100058399
0.2100058404
0.2100058408
0.2100058413
0.2100058417
0.2100058421
0.2100058426
0.210005843
0.2100058433
0.210005838
0.2100058381
0.2100058356
0.2100058354
0.2100058356
0.2100058358
0.2100058361
0.2100058364
0.2100058367
0.210005837
0.2100058374
0.2100058378
0.2100058382
0.2100058386
0.2100058391
0.2100058395
0.2100058399
0.2100058404
0.2100058408
0.2100058413
0.2100058417
0.2100058422
0.2100058426
0.2100058431
0.2100058435
0.2100058438
0.2100058384
0.2100058385
0.2100058361
0.2100058359
0.210005836
0.2100058363
0.2100058365
0.2100058368
0.2100058372
0.2100058375
0.2100058379
0.2100058383
0.2100058387
0.2100058391
0.2100058395
0.21000584
0.2100058404
0.2100058409
0.2100058413
0.2100058418
0.2100058422
0.2100058427
0.2100058431
0.2100058436
0.2100058441
0.2100058443
0.2100058389
0.210005839
0.2100058366
0.2100058363
0.2100058365
0.2100058367
0.210005837
0.2100058373
0.2100058376
0.210005838
0.2100058384
0.2100058388
0.2100058392
0.2100058396
0.21000584
0.2100058405
0.2100058409
0.2100058414
0.2100058418
0.2100058423
0.2100058428
0.2100058432
0.2100058436
0.2100058441
0.2100058446
0.2100058448
0.2100058394
0.2100058395
0.2100058371
0.2100058368
0.210005837
0.2100058372
0.2100058375
0.2100058378
0.2100058381
0.2100058385
0.2100058389
0.2100058393
0.2100058397
0.2100058401
0.2100058405
0.210005841
0.2100058414
0.2100058419
0.2100058424
0.2100058428
0.2100058433
0.2100058437
0.2100058442
0.2100058446
0.2100058451
0.2100058454
0.2100058399
0.21000584
0.2100058376
0.2100058373
0.2100058375
0.2100058377
0.210005838
0.2100058383
0.2100058386
0.210005839
0.2100058394
0.2100058398
0.2100058402
0.2100058406
0.210005841
0.2100058415
0.2100058419
0.2100058424
0.2100058429
0.2100058433
0.2100058438
0.2100058443
0.2100058447
0.2100058452
0.2100058457
0.2100058459
0.2100058404
0.2100058406
0.2100058381
0.2100058379
0.210005838
0.2100058382
0.2100058385
0.2100058388
0.2100058391
0.2100058395
0.2100058399
0.2100058403
0.2100058407
0.2100058411
0.2100058416
0.210005842
0.2100058425
0.2100058429
0.2100058434
0.2100058439
0.2100058443
0.2100058448
0.2100058453
0.2100058457
0.2100058462
0.2100058465
0.210005841
0.2100058411
0.2100058386
0.2100058384
0.2100058385
0.2100058388
0.210005839
0.2100058393
0.2100058396
0.21000584
0.2100058404
0.2100058408
0.2100058412
0.2100058416
0.2100058421
0.2100058425
0.210005843
0.2100058435
0.2100058439
0.2100058444
0.2100058449
0.2100058453
0.2100058458
0.2100058463
0.2100058468
0.210005847
0.2100058415
0.2100058416
0.2100058391
0.2100058389
0.2100058391
0.2100058393
0.2100058395
0.2100058398
0.2100058402
0.2100058405
0.2100058409
0.2100058413
0.2100058417
0.2100058421
0.2100058426
0.210005843
0.2100058435
0.210005844
0.2100058445
0.2100058449
0.2100058454
0.2100058459
0.2100058463
0.2100058468
0.2100058473
0.2100058476
0.210005842
0.2100058421
0.2100058396
0.2100058394
0.2100058396
0.2100058398
0.21000584
0.2100058403
0.2100058407
0.210005841
0.2100058414
0.2100058418
0.2100058422
0.2100058426
0.2100058431
0.2100058436
0.210005844
0.2100058445
0.210005845
0.2100058455
0.210005846
0.2100058464
0.2100058469
0.2100058474
0.2100058479
0.2100058481
0.2100058425
0.2100058426
0.2100058402
0.2100058399
0.2100058401
0.2100058403
0.2100058405
0.2100058408
0.2100058412
0.2100058415
0.2100058419
0.2100058423
0.2100058427
0.2100058432
0.2100058436
0.2100058441
0.2100058446
0.210005845
0.2100058455
0.210005846
0.2100058465
0.2100058469
0.2100058474
0.2100058479
0.2100058484
0.2100058484
0.210005843
0.2100058431
0.2100058407
0.2100058404
0.2100058406
0.2100058408
0.210005841
0.2100058413
0.2100058417
0.210005842
0.2100058424
0.2100058428
0.2100058432
0.2100058437
0.2100058441
0.2100058446
0.2100058451
0.2100058455
0.210005846
0.2100058465
0.210005847
0.2100058475
0.2100058479
0.2100058484
0.2100058487
0.2100058435
0.2100058436
0.2100058411
0.2100058409
0.210005841
0.2100058413
0.2100058415
0.2100058418
0.2100058421
0.2100058425
0.2100058429
0.2100058433
0.2100058437
0.2100058441
0.2100058446
0.2100058451
0.2100058456
0.210005846
0.2100058465
0.210005847
0.2100058475
0.210005848
0.2100058484
0.2100058489
0.2100058492
0.210005844
0.2100058441
0.2100058416
0.2100058414
0.2100058415
0.2100058417
0.210005842
0.2100058423
0.2100058426
0.210005843
0.2100058433
0.2100058437
0.2100058442
0.2100058446
0.2100058451
0.2100058456
0.2100058461
0.2100058465
0.210005847
0.2100058475
0.210005848
0.2100058484
0.2100058489
0.2100058494
0.2100058497
0.2100058444
0.2100058445
0.2100058421
0.2100058418
0.210005842
0.2100058422
0.2100058424
0.2100058427
0.2100058431
0.2100058434
0.2100058438
0.2100058442
0.2100058447
0.2100058451
0.2100058456
0.2100058461
0.2100058465
0.210005847
0.2100058475
0.210005848
0.2100058485
0.2100058489
0.2100058494
0.2100058499