/*--------------------------------*- C++ -*----------------------------------*\
  =========                 |
  \\      /  F ield         | OpenFOAM: The Open Source CFD Toolbox
   \\    /   O peration     | Website:  https://openfoam.org
    \\  /    A nd           | Version:  8
     \\/     M anipulation  |
\*---------------------------------------------------------------------------*/
FoamFile
{
    version     2.0;
    format      ascii;
    class       volVectorField;
    location    "0.1";
    object      U;
}
// * * * * * * * * * * * * * * * * * * * * * * * * * * * * * * * * * * * * * //

dimensions      [0 1 -1 0 0 0 0];

internalField   nonuniform List<vector> 
67410
(
(-1.782340245e-05 -4.195154052e-05 6.500422192e-05)
(-5.347275759e-05 -4.255101986e-05 6.539338101e-05)
(-8.851171326e-05 -4.256450197e-05 6.491398005e-05)
(-0.0001224879264 -4.269985347e-05 6.428911585e-05)
(-0.0001549081828 -4.293545297e-05 6.350769773e-05)
(-0.0001853292567 -4.324961002e-05 6.257423785e-05)
(-0.0002133487233 -4.363284111e-05 6.148609976e-05)
(-0.0002386044973 -4.407428169e-05 6.025670041e-05)
(-0.0002607519638 -4.456728586e-05 5.88967845e-05)
(-0.0002794881969 -4.510527207e-05 5.742044144e-05)
(-0.0002945543683 -4.568085644e-05 5.584517589e-05)
(-0.0003057201683 -4.628884733e-05 5.418180871e-05)
(-0.0003128014481 -4.691897833e-05 5.246068211e-05)
(-0.000315694963 -4.756733803e-05 5.069294424e-05)
(-0.0003142953564 -4.822327732e-05 4.89129492e-05)
(-0.0003085798408 -4.887944132e-05 4.71297345e-05)
(-0.0002985526627 -4.953636207e-05 4.534827994e-05)
(-0.000284275598 -5.017485278e-05 4.362401292e-05)
(-0.0002659541021 -5.079512798e-05 4.195427483e-05)
(-0.0002436824984 -5.13830144e-05 4.038841817e-05)
(-0.0002176488659 -5.194568222e-05 3.889017703e-05)
(-0.0001881830901 -5.24633488e-05 3.753510408e-05)
(-0.0001555902535 -5.293711565e-05 3.631022074e-05)
(-0.0001202087875 -5.33592564e-05 3.524640444e-05)
(-8.241849123e-05 -5.372930313e-05 3.433893684e-05)
(-4.265097682e-05 -5.403545747e-05 3.360724205e-05)
(-1.815382842e-05 -0.0001264029024 6.50660078e-05)
(-5.385829358e-05 -0.0001281368217 6.577448504e-05)
(-8.940902702e-05 -0.0001282109497 6.549129962e-05)
(-0.0001239129744 -0.0001286455787 6.485698536e-05)
(-0.0001567946458 -0.0001293800166 6.405337704e-05)
(-0.0001876233754 -0.0001303467871 6.309675844e-05)
(-0.0002160049123 -0.0001315198408 6.198428101e-05)
(-0.0002415772436 -0.0001328676453 6.072836285e-05)
(-0.0002639970507 -0.0001343713704 5.933996763e-05)
(-0.0002829577365 -0.0001360111057 5.783243306e-05)
(-0.0002981998424 -0.000137764986 5.622298546e-05)
(-0.0003094871522 -0.0001396181766 5.45251549e-05)
(-0.0003166352026 -0.0001415387323 5.276550421e-05)
(-0.000319540358 -0.0001435161519 5.095776614e-05)
(-0.0003180921537 -0.0001455102519 4.913564157e-05)
(-0.0003122798851 -0.0001475120687 4.730741089e-05)
(-0.0003020941851 -0.0001495161254 4.548794772e-05)
(-0.0002875978279 -0.0001514609962 4.372114522e-05)
(-0.0002690061533 -0.0001533538719 4.201220853e-05)
(-0.0002464201428 -0.0001551368449 4.040883973e-05)
(-0.0002200222298 -0.0001568602014 3.887904497e-05)
(-0.0001901409219 -0.0001584335271 3.749364917e-05)
(-0.0001570981402 -0.0001598765297 3.624357524e-05)
(-0.0001212332169 -0.0001611537688 3.51579723e-05)
(-8.292496121e-05 -0.0001622842228 3.423539935e-05)
(-4.260393673e-05 -0.0001632153565 3.349398201e-05)
(-1.817539891e-05 -0.0002100085271 6.436737224e-05)
(-5.393670096e-05 -0.0002131413693 6.518378487e-05)
(-8.978887728e-05 -0.0002135406375 6.516775917e-05)
(-0.0001247822413 -0.0002143855261 6.453610549e-05)
(-0.000158048491 -0.000215654561 6.371052173e-05)
(-0.0001891939166 -0.0002172799458 6.273177465e-05)
(-0.0002178517828 -0.0002192323169 6.159976504e-05)
(-0.0002436644771 -0.0002214667037 6.032174454e-05)
(-0.0002662968419 -0.0002239562366 5.890853745e-05)
(-0.000285439768 -0.000226669013 5.737405765e-05)
(-0.0003008375983 -0.0002295726166 5.573390466e-05)
(-0.000312246732 -0.0002326292462 5.401169509e-05)
(-0.0003194860222 -0.0002358090705 5.221869348e-05)
(-0.0003224425472 -0.0002390779703 5.037922957e-05)
(-0.0003210116391 -0.0002423783122 4.851787624e-05)
(-0.0003152083606 -0.0002456998814 4.664825458e-05)
(-0.0003049795825 -0.0002489960591 4.48118192e-05)
(-0.0002904018682 -0.0002522224703 4.300530287e-05)
(-0.0002716873608 -0.0002553543682 4.126645659e-05)
(-0.0002489780622 -0.0002583222249 3.962046499e-05)
(-0.0002224281397 -0.0002611470059 3.808004953e-05)
(-0.000192337787 -0.0002637629649 3.666372322e-05)
(-0.0001590752059 -0.0002661525681 3.539228757e-05)
(-0.0001229813764 -0.0002682700656 3.428598088e-05)
(-8.442128674e-05 -0.0002701356552 3.334308485e-05)
(-4.380818179e-05 -0.0002716744564 3.260089949e-05)
(-1.834157425e-05 -0.0002918142107 6.332170849e-05)
(-5.446271899e-05 -0.0002963380868 6.409759939e-05)
(-9.074045047e-05 -0.0002972251449 6.406144342e-05)
(-0.0001262272305 -0.0002985666339 6.341114835e-05)
(-0.0001599631034 -0.0003004002966 6.256192553e-05)
(-0.0001915393242 -0.0003026927715 6.15569963e-05)
(-0.0002205871151 -0.0003054103861 6.040033799e-05)
(-0.0002467470917 -0.0003085179888 5.909120205e-05)
(-0.0002696901884 -0.0003119727427 5.764526334e-05)
(-0.0002891037561 -0.0003157345373 5.607538988e-05)
(-0.0003047218709 -0.000319759933 5.439819425e-05)
(-0.0003163110562 -0.0003239923359 5.263397445e-05)
(-0.0003236908968 -0.0003283994301 5.08000769e-05)
(-0.0003267273441 -0.0003329291993 4.891614526e-05)
(-0.0003253361026 -0.0003375081162 4.700857021e-05)
(-0.000319518547 -0.0003421289937 4.509471977e-05)
(-0.0003092278516 -0.0003466701003 4.321586497e-05)
(-0.0002945507297 -0.0003511533681 4.136632528e-05)
(-0.000275675004 -0.0003554901517 3.958759887e-05)
(-0.0002527517921 -0.0003596319956 3.789909243e-05)
(-0.0002259675531 -0.0003635222774 3.632504471e-05)
(-0.0001956086538 -0.0003671604882 3.487536799e-05)
(-0.000162019006 -0.0003704756239 3.357473404e-05)
(-0.0001255791572 -0.0003734272618 3.244405989e-05)
(-8.663621145e-05 -0.0003759876434 3.147781809e-05)
(-4.562051301e-05 -0.0003781508388 3.07180413e-05)
(-1.861906276e-05 -0.0003708379884 6.195042529e-05)
(-5.532337408e-05 -0.0003766577934 6.268000487e-05)
(-9.217726715e-05 -0.0003779099036 6.259703554e-05)
(-0.000128245394 -0.0003797054275 6.191676572e-05)
(-0.000162549905 -0.0003820881954 6.103686182e-05)
(-0.000194659669 -0.0003850311734 5.999967705e-05)
(-0.0002242067846 -0.0003884960803 5.88044881e-05)
(-0.000250823671 -0.0003924509598 5.745303546e-05)
(-0.0002741697076 -0.0003968439872 5.59616457e-05)
(-0.0002939351576 -0.0004016238173 5.434175325e-05)
(-0.0003098464119 -0.0004067360649 5.260966549e-05)
(-0.0003216719672 -0.0004121181162 5.078634343e-05)
(-0.0003292356508 -0.0004177192182 4.889012335e-05)
(-0.000332379608 -0.0004234643522 4.695085702e-05)
(-0.000331048082 -0.0004292928841 4.497656673e-05)
(-0.0003252035351 -0.0004351446825 4.301103676e-05)
(-0.000314824632 -0.0004409283906 4.106108357e-05)
(-0.0003000239995 -0.0004466218003 3.915659347e-05)
(-0.0002809369808 -0.0004521283432 3.732279597e-05)
(-0.0002577405772 -0.000457393776 3.558135498e-05)
(-0.0002306412211 -0.0004623500984 3.39548699e-05)
(-0.0001999234011 -0.000466968939 3.246038302e-05)
(-0.000165911777 -0.0004711866054 3.111732433e-05)
(-0.0001289945467 -0.0004749502711 2.994702427e-05)
(-8.957429271e-05 -0.0004781924022 2.895403474e-05)
(-4.803419298e-05 -0.0004809505771 2.817621093e-05)
(-1.897905922e-05 -0.0004462751319 6.027354427e-05)
(-5.643561996e-05 -0.0004533037692 6.096039908e-05)
(-9.401082399e-05 -0.000454850724 6.084489167e-05)
(-0.000130784379 -0.0004570505795 6.013677895e-05)
(-0.000165772998 -0.0004599442063 5.922373946e-05)
(-0.000198529723 -0.0004635053678 5.814610591e-05)
(-0.0002286814113 -0.0004676916939 5.690218194e-05)
(-0.000255853894 -0.0004724564711 5.549854703e-05)
(-0.0002796969138 -0.000477751031 5.394665274e-05)
(-0.0002998950697 -0.0004835080918 5.226178968e-05)
(-0.0003161701506 -0.000489664669 5.046165144e-05)
(-0.000328292629 -0.000496149437 4.856569151e-05)
(-0.0003360685649 -0.000502891314 4.659950636e-05)
(-0.0003393531059 -0.0005098053826 4.458209516e-05)
(-0.0003380782212 -0.0005168325355 4.253751116e-05)
(-0.0003322117395 -0.0005238594928 4.049081188e-05)
(-0.0003217482578 -0.0005308375335 3.846998857e-05)
(-0.0003067688044 -0.000537695539 3.649317006e-05)
(-0.000287426191 -0.0005443242805 3.459038711e-05)
(-0.0002639027429 -0.0005506657365 3.278286247e-05)
(-0.0002364131575 -0.0005566466688 3.109325826e-05)
(-0.0002052484837 -0.000562207299 2.95428688e-05)
(-0.0001707259019 -0.0005672972284 2.814581661e-05)
(-0.000133221853 -0.0005718359514 2.692922395e-05)
(-9.318204627e-05 -0.0005757721455 2.589905888e-05)
(-5.102085319e-05 -0.0005790630418 2.5085063e-05)
(-1.940716803e-05 -0.000517386907 5.830301052e-05)
(-5.776271241e-05 -0.0005255495993 5.894101356e-05)
(-9.619931488e-05 -0.0005273576138 5.879593127e-05)
(-0.0001338007336 -0.0005299267516 5.806042418e-05)
(-0.0001695914607 -0.0005332965258 5.710859222e-05)
(-0.0002031114465 -0.0005374376845 5.598248413e-05)
(-0.0002339716143 -0.0005423052564 5.468283456e-05)
(-0.0002617974732 -0.0005478411358 5.321529132e-05)
(-0.0002862259799 -0.000553984846 5.159578553e-05)
(-0.0003069318228 -0.0005606712813 4.983586443e-05)
(-0.0003236369485 -0.0005678161626 4.795706778e-05)
(-0.0003361009894 -0.0005753428655 4.597917478e-05)
(-0.0003441329909 -0.0005831594286 4.392595091e-05)
(-0.0003475881561 -0.0005911946651 4.182094391e-05)
(-0.0003463797535 -0.0005993421452 3.968540934e-05)
(-0.0003404816497 -0.0006075059316 3.755312552e-05)
(-0.0003299184617 -0.0006156024858 3.544501168e-05)
(-0.0003147367524 -0.0006235669726 3.337998944e-05)
(-0.0002950862273 -0.0006312607211 3.139661341e-05)
(-0.0002711831223 -0.0006386237322 2.951115481e-05)
(-0.000243231987 -0.000645576021 2.774771522e-05)
(-0.0002115421977 -0.0006520385004 2.6132903e-05)
(-0.0001764157257 -0.0006579448704 2.466723663e-05)
(-0.0001382398907 -0.0006632210911 2.340075096e-05)
(-9.745842979e-05 -0.0006678252723 2.232877419e-05)
(-5.453858899e-05 -0.000671668574 2.147404947e-05)
(-1.989786008e-05 -0.0005834786486 5.605542825e-05)
(-5.928473791e-05 -0.000592702445 5.663349619e-05)
(-9.870992655e-05 -0.000594748434 5.645788649e-05)
(-0.0001372618128 -0.0005976548103 5.56926455e-05)
(-0.0001739667344 -0.0006014678017 5.469788164e-05)
(-0.0002083574427 -0.0006061487389 5.351940935e-05)
(-0.0002400306327 -0.000611648032 5.215764708e-05)
(-0.0002685952512 -0.000617905444 5.062080467e-05)
(-0.0002936934138 -0.0006248443206 4.892265974e-05)
(-0.0003149837538 -0.0006323938065 4.708030508e-05)
(-0.0003321754993 -0.0006404659942 4.511110189e-05)
(-0.0003450307132 -0.0006489675779 4.303653245e-05)
(-0.0003533613848 -0.0006578021229 4.088117018e-05)
(-0.0003570069302 -0.000666870833 3.867786988e-05)
(-0.0003558722751 -0.0006760731526 3.644039399e-05)
(-0.0003499502403 -0.0006852992877 3.420538281e-05)
(-0.0003392693409 -0.000694455311 3.198469929e-05)
(-0.000323850438 -0.0007034351935 2.983669341e-05)
(-0.0003038516745 -0.0007121360777 2.775266051e-05)
(-0.0002795193741 -0.0007204596589 2.57781875e-05)
(-0.0002510474263 -0.0007283151977 2.392828434e-05)
(-0.0002187417646 -0.000735636514 2.223607691e-05)
(-0.0001829250583 -0.0007422974918 2.070633087e-05)
(-0.0001440004559 -0.0007482673373 1.938020045e-05)
(-0.000102397503 -0.0007534984003 1.825978942e-05)
(-5.858055247e-05 -0.0007578719006 1.735936405e-05)
(-2.044861935e-05 -0.0006439065755 5.354189829e-05)
(-6.098846845e-05 -0.0006541079348 5.406158694e-05)
(-0.0001015159333 -0.0006563717458 5.38525857e-05)
(-0.0001411294087 -0.0006595869418 5.305605811e-05)
(-0.0001788575629 -0.0006638050899 5.201596397e-05)
(-0.0002142171811 -0.0006689834298 5.077722645e-05)
(-0.0002467971218 -0.0006750657941 4.934660211e-05)
(-0.000276193418 -0.0006819840693 4.773043737e-05)
(-0.0003020314456 -0.0006896617876 4.59435089e-05)
(-0.0003239736108 -0.000698005598 4.400460546e-05)
(-0.0003417173964 -0.0007069310707 4.193174452e-05)
(-0.0003550130977 -0.0007163324237 3.975129265e-05)
(-0.0003636637602 -0.000726103845 3.748667368e-05)
(-0.0003675201404 -0.000736123004 3.516622057e-05)
(-0.0003664834757 -0.0007463029693 3.281544511e-05)
(-0.0003605348291 -0.0007565119779 3.046137347e-05)
(-0.0003497029892 -0.000766632549 2.814012348e-05)
(-0.0003340247677 -0.0007765484894 2.587333672e-05)
(-0.0003136582844 -0.0007861853709 2.368449244e-05)
(-0.0002888330117 -0.0007953977871 2.160808167e-05)
(-0.0002597885128 -0.0008040916638 1.96711392e-05)
(-0.0002267955633 -0.0008121918356 1.788028411e-05)
(-0.0001901947828 -0.0008195776773 1.628323565e-05)
(-0.000150459058 -0.0008262026 1.488309505e-05)
(-0.0001079361561 -0.0008319796774 1.371301593e-05)
(-6.313551745e-05 -0.000836848563 1.276404211e-05)
(-2.10513463e-05 -0.0006980824072 5.07861567e-05)
(-6.285470422e-05 -0.0007091727551 5.124039103e-05)
(-0.0001045917731 -0.0007116336938 5.099539325e-05)
(-0.0001453692042 -0.0007151278146 5.01633933e-05)
(-0.000184217451 -0.000719711709 4.907180536e-05)
(-0.0002206418648 -0.000725339266 4.777099624e-05)
(-0.0002542131595 -0.0007319477676 4.626537407e-05)
(-0.0002845181566 -0.0007394662584 4.456365787e-05)
(-0.0003111714124 -0.0007478057218 4.268070681e-05)
(-0.0003338229332 -0.000756874462 4.063684992e-05)
(-0.0003521683743 -0.0007665673007 3.84540484e-05)
(-0.0003659464331 -0.0007767811847 3.615578204e-05)
(-0.000374951063 -0.0007873943122 3.376974604e-05)
(-0.0003790422844 -0.0007982869766 3.13228818e-05)
(-0.0003781147296 -0.0008093395741 2.885010697e-05)
(-0.0003721278985 -0.0008204321774 2.637276676e-05)
(-0.0003611272841 -0.0008314245048 2.392495873e-05)
(-0.0003451807137 -0.0008422126087 2.153759598e-05)
(-0.0003244144592 -0.0008526876546 1.923301808e-05)
(-0.0002990534227 -0.0008627041749 1.704708392e-05)
(-0.0002693681309 -0.0008721681798 1.500347558e-05)
(-0.0002356355367 -0.0008809707067 1.31273114e-05)
(-0.0001982094906 -0.0008890312688 1.144223265e-05)
(-0.0001575298887 -0.0008962609932 9.968277652e-06)
(-0.0001140113042 -0.0009025580249 8.728305541e-06)
(-6.820083921e-05 -0.0009078852845 7.734326931e-06)
(-2.170592534e-05 -0.0007454722244 4.781165083e-05)
(-6.487224908e-05 -0.0007573550952 4.820140878e-05)
(-0.0001079086262 -0.0007599898275 4.791718616e-05)
(-0.0001499399299 -0.000763730199 4.704793543e-05)
(-0.0001899973391 -0.0007686367699 4.590285149e-05)
(-0.0002275656249 -0.0007746592785 4.453357477e-05)
(-0.0002622083995 -0.0007817336469 4.294549162e-05)
(-0.0002934930207 -0.0007897768281 4.11530666e-05)
(-0.0003210222122 -0.000798704035 3.91672165e-05)
(-0.0003444407656 -0.0008084093991 3.700872976e-05)
(-0.0003634338074 -0.000818784976 3.470539625e-05)
(-0.0003777334602 -0.0008297129549 3.228305343e-05)
(-0.0003871245876 -0.0008410747889 2.976568596e-05)
(-0.0003914603875 -0.0008527368657 2.718679233e-05)
(-0.0003906418203 -0.0008645622649 2.457677821e-05)
(-0.0003846274116 -0.0008764328209 2.196466504e-05)
(-0.000373463372 -0.0008882202488 1.938146315e-05)
(-0.0003572208438 -0.0008997649069 1.687072114e-05)
(-0.0003360126368 -0.0009109801935 1.444248525e-05)
(-0.0003100843911 -0.000921717572 1.213666116e-05)
(-0.0002797155444 -0.0009318652527 9.982672743e-06)
(-0.0002451916001 -0.0009413143078 8.005838088e-06)
(-0.0002068750724 -0.0009499725511 6.230484189e-06)
(-0.000165215435 -0.0009577532859 4.675443338e-06)
(-0.0001206171955 -0.0009645404437 3.376328675e-06)
(-7.366765974e-05 -0.0009702978463 2.321683993e-06)
(-2.24029754e-05 -0.0007856033108 4.465185643e-05)
(-6.701799586e-05 -0.0007981694775 4.49716788e-05)
(-0.0001114351673 -0.0008009522135 4.464716902e-05)
(-0.0001548002436 -0.000804903316 4.373857065e-05)
(-0.0001961400931 -0.0008100866175 4.253604502e-05)
(-0.0002349294053 -0.0008164487232 4.109340513e-05)
(-0.0002707050539 -0.000823921525 3.94210689e-05)
(-0.0003030313097 -0.0008324170565 3.752545292e-05)
(-0.0003314978561 -0.0008418450685 3.543196345e-05)
(-0.0003557294128 -0.0008521008174 3.315538386e-05)
(-0.0003754086259 -0.0008630626108 3.072392983e-05)
(-0.0003902625805 -0.0008746060277 2.816841629e-05)
(-0.0004000680237 -0.0008866074354 2.551068523e-05)
(-0.0004046649549 -0.0008989290881 2.279159672e-05)
(-0.0004039648041 -0.0009114306144 2.003728238e-05)
(-0.0003979365104 -0.0009239755328 1.728288923e-05)
(-0.0003865803624 -0.0009364325998 1.456659007e-05)
(-0.0003700096436 -0.0009486378236 1.190835819e-05)
(-0.0003483627155 -0.0009604884137 9.35429077e-06)
(-0.0003218370308 -0.0009718608062 6.922649414e-06)
(-0.0002907463097 -0.0009826061272 4.653797424e-06)
(-0.0002553888855 -0.0009926170129 2.571569479e-06)
(-0.000216142867 -0.00100179336 7.042664348e-07)
(-0.0001734220483 -0.001010061927 -9.256687617e-07)
(-0.0001276962621 -0.001017258412 -2.301940594e-06)
(-7.953485533e-05 -0.001023426704 -3.406367155e-06)
(-2.313526957e-05 -0.0008180698296 4.134442424e-05)
(-6.927088248e-05 -0.000831204383 4.158591897e-05)
(-0.0001151368022 -0.0008341100433 4.121745208e-05)
(-0.0001599026453 -0.0008382343493 4.026657979e-05)
(-0.0002025923517 -0.0008436452335 3.900403054e-05)
(-0.0002426583172 -0.000850288312 3.748472202e-05)
(-0.0002796284402 -0.0008580874759 3.572009599e-05)
(-0.0003130459855 -0.0008669612783 3.372264855e-05)
(-0.0003424954325 -0.0008768022343 3.151021673e-05)
(-0.0003675872086 -0.0008875060162 2.911252129e-05)
(-0.0003879849528 -0.0008989545541 2.654766178e-05)
(-0.0004034187039 -0.0009110096137 2.385012832e-05)
(-0.0004136588241 -0.0009235380404 2.105074836e-05)
(-0.0004185401895 -0.0009364069993 1.818232065e-05)
(-0.0004179651551 -0.0009494665627 1.527926166e-05)
(-0.0004119022504 -0.0009625704379 1.237657166e-05)
(-0.0004003676152 -0.0009755766471 9.509880086e-06)
(-0.0003834634573 -0.000988347138 6.710520143e-06)
(-0.0003613467052 -0.001000734341 4.017836613e-06)
(-0.0003342127199 -0.001012632019 1.458280686e-06)
(-0.0003023586167 -0.001023872966 -9.288137541e-07)
(-0.0002661230903 -0.001034350778 -3.122361269e-06)
(-0.0002259058879 -0.001043990079 -5.097145525e-06)
(-0.0001820863365 -0.001052636515 -6.80861487e-06)
(-0.000135196893 -0.001060237129 -8.270342861e-06)
(-8.577665494e-05 -0.001066726341 -9.43049222e-06)
(-2.389303902e-05 -0.0008425397786 3.791907048e-05)
(-7.160813379e-05 -0.0008561251084 3.807670676e-05)
(-0.0001189807731 -0.0008591272012 3.766298058e-05)
(-0.0001652000681 -0.0008633864732 3.666825863e-05)
(-0.0002092898933 -0.0008689742831 3.534225865e-05)
(-0.0002506846466 -0.0008758340041 3.3744238e-05)
(-0.0002888938102 -0.0008838898755 3.188501075e-05)
(-0.0003234474535 -0.0008930544564 2.977959119e-05)
(-0.0003539103464 -0.0009032216183 2.744929014e-05)
(-0.0003798956085 -0.0009142740206 2.491775712e-05)
(-0.0004010489009 -0.0009260959088 2.221912933e-05)
(-0.0004170809214 -0.0009385492846 1.93754621e-05)
(-0.0004277742632 -0.0009514967785 1.642578742e-05)
(-0.000432950594 -0.0009647873425 1.340487399e-05)
(-0.0004325066926 -0.0009782818345 1.034636009e-05)
(-0.0004264201813 -0.0009918257914 7.288661349e-06)
(-0.0004147003405 -0.001005272835 4.274518831e-06)
(-0.0003974543286 -0.001018480922 1.321385164e-06)
(-0.0003748552202 -0.00103129392 -1.508823425e-06)
(-0.0003470790989 -0.001043598477 -4.207700637e-06)
(-0.0003144393913 -0.001055246504 -6.725617899e-06)
(-0.0002773346564 -0.00106612204 -9.039346296e-06)
(-0.0002360907942 -0.001076121825 -1.110561755e-05)
(-0.0001911459364 -0.001085112762 -1.29246136e-05)
(-0.0001430668538 -0.001093058708 -1.446053652e-05)
(-9.234795185e-05 -0.001099826164 -1.56868874e-05)
(-2.467080992e-05 -0.0008587608125 3.440896704e-05)
(-7.400897669e-05 -0.0008726800671 3.448032651e-05)
(-0.0001229303135 -0.0008757493208 3.402073037e-05)
(-0.0001706426461 -0.0008801031062 3.298124492e-05)
(-0.0002161715136 -0.0008858151721 3.159036349e-05)
(-0.0002589299421 -0.000892827936 2.991069965e-05)
(-0.0002984144515 -0.000901063624 2.795389122e-05)
(-0.0003341352219 -0.000910431813 2.57395675e-05)
(-0.0003656440999 -0.0009208263378 2.328586629e-05)
(-0.0003925410175 -0.0009321293894 2.062270135e-05)
(-0.0004144670788 -0.0009442117356 1.77807537e-05)
(-0.0004311287457 -0.000956944943 1.478675036e-05)
(-0.0004422821513 -0.0009701832092 1.168533024e-05)
(-0.0004477602382 -0.0009837770612 8.502971777e-06)
(-0.000447461625 -0.0009975824385 5.28203207e-06)
(-0.0004413469331 -0.001011445267 2.065069318e-06)
(-0.0004294458886 -0.001025201767 -1.105796924e-06)
(-0.0004118500494 -0.001038730778 -4.204953297e-06)
(-0.0003887474987 -0.001051859802 -7.187553021e-06)
(-0.0003603425506 -0.001064467097 -1.001774978e-05)
(-0.0003269295288 -0.001076434868 -1.266679251e-05)
(-0.0002888959531 -0.001087616209 -1.509555155e-05)
(-0.0002466228558 -0.00109788876 -1.727647647e-05)
(-0.0002005627307 -0.001107181525 -1.918423028e-05)
(-0.0001512476942 -0.001115384474 -2.079495779e-05)
(-9.922551966e-05 -0.001122424779 -2.208927503e-05)
(-2.546339162e-05 -0.0008665675341 3.084835451e-05)
(-7.645207533e-05 -0.0008807000667 3.083715578e-05)
(-0.0001269472063 -0.0008838059272 3.032945621e-05)
(-0.000176178696 -0.0008882130315 2.924467048e-05)
(-0.0002231715931 -0.0008939943686 2.778771835e-05)
(-0.0002673194231 -0.0009010923215 2.602478298e-05)
(-0.0003080981158 -0.0009094296207 2.3969907e-05)
(-0.0003450068555 -0.0009189101556 2.164231707e-05)
(-0.0003775804857 -0.0009294317102 1.906429625e-05)
(-0.0004054069926 -0.0009408760201 1.626164604e-05)
(-0.0004281204504 -0.0009531105011 1.327146627e-05)
(-0.0004454134512 -0.0009660044095 1.012559945e-05)
(-0.0004570456804 -0.0009794100535 6.864690693e-06)
(-0.0004628406774 -0.0009931895838 3.526613578e-06)
(-0.000462690177 -0.001007174642 1.516875439e-07)
(-0.0004565503708 -0.001021227093 -3.226158201e-06)
(-0.0004444662404 -0.001035182726 -6.559999326e-06)
(-0.000426535565 -0.001048899425 -9.818083771e-06)
(-0.0004029309444 -0.001062246051 -1.294627091e-05)
(-0.0003738880173 -0.001075056518 -1.591686653e-05)
(-0.0003396927322 -0.001087234491 -1.869607462e-05)
(-0.0003007386792 -0.001098610999 -2.124533725e-05)
(-0.0002574345951 -0.001109110283 -2.353486153e-05)
(-0.000210231971 -0.00111860743 -2.553587677e-05)
(-0.0001596956703 -0.001127021516 -2.722255532e-05)
(-0.000106360935 -0.001134270978 -2.8593207e-05)
(-2.626369347e-05 -0.0008658806124 2.727601098e-05)
(-7.891376945e-05 -0.0008800954449 2.718417015e-05)
(-0.0001309925019 -0.0008832089191 2.662875617e-05)
(-0.0001817549862 -0.0008876251701 2.54971712e-05)
(-0.0002302217258 -0.0008934222238 2.39717913e-05)
(-0.0002757684878 -0.0009005375752 2.21221937e-05)
(-0.0003178521582 -0.0009088958703 1.996516661e-05)
(-0.000355955773 -0.0009184026151 1.752132103e-05)
(-0.0003896069257 -0.0009289530326 1.481540475e-05)
(-0.0004183724696 -0.0009404311562 1.188148295e-05)
(-0.0004418799054 -0.0009527074714 8.747969735e-06)
(-0.0004598191995 -0.0009656457672 5.450089008e-06)
(-0.0004719387422 -0.0009791019146 2.032718161e-06)
(-0.0004780489332 -0.0009929299021 -1.466097201e-06)
(-0.0004780479511 -0.001006972745 -5.005822856e-06)
(-0.0004719010058 -0.001021085467 -8.547555279e-06)
(-0.0004596336899 -0.001035118786 -1.204448117e-05)
(-0.000441373475 -0.001048914531 -1.545642943e-05)
(-0.0004172822689 -0.0010623415 -1.872840732e-05)
(-0.0003876023987 -0.001075244725 -2.183719477e-05)
(-0.0003526250664 -0.001087527154 -2.475007338e-05)
(-0.0003127602264 -0.001099025616 -2.742097411e-05)
(-0.0002684369396 -0.001109642811 -2.981106282e-05)
(-0.0002201020735 -0.001119287343 -3.190877088e-05)
(-0.0001683350123 -0.001127860223 -3.368078371e-05)
(-0.0001136766628 -0.001135256737 -3.510467181e-05)
(-2.705663632e-05 -0.0008567048481 2.372924181e-05)
(-8.136454122e-05 -0.0008708756504 2.354610505e-05)
(-0.0001350263312 -0.0008739674543 2.294358954e-05)
(-0.0001873181361 -0.0008783522093 2.176540862e-05)
(-0.0002372579007 -0.0008841081403 2.017633626e-05)
(-0.0002841998239 -0.000891176805 1.824593707e-05)
(-0.0003275873258 -0.0008994804009 1.59923015e-05)
(-0.0003668874935 -0.0009089271868 1.34345717e-05)
(-0.0004016117035 -0.0009194132597 1.060332757e-05)
(-0.0004313210028 -0.0009308185568 7.531083111e-06)
(-0.0004556273684 -0.0009430199527 4.253949986e-06)
(-0.0004742074458 -0.0009558795248 8.070571215e-07)
(-0.0004868102358 -0.0009692563979 -2.765678487e-06)
(-0.0004932451209 -0.0009830049069 -6.435563504e-06)
(-0.0004934051699 -0.0009969814939 -1.013522867e-05)
(-0.0004872549645 -0.001011027874 -1.383294803e-05)
(-0.0004748250379 -0.001025006711 -1.748759396e-05)
(-0.000456232885 -0.001038765544 -2.104929724e-05)
(-0.0004316545706 -0.001052158004 -2.447518239e-05)
(-0.0004013630208 -0.001065055369 -2.772887895e-05)
(-0.0003656352644 -0.001077326889 -3.076365586e-05)
(-0.0003248645995 -0.001088864234 -3.3554303e-05)
(-0.0002795380478 -0.001099517517 -3.605522838e-05)
(-0.0002301053098 -0.001109239496 -3.824386802e-05)
(-0.0001771165991 -0.001117906714 -4.009710309e-05)
(-0.0001211712886 -0.001125420223 -4.158409446e-05)
(-2.784124933e-05 -0.0008391425282 2.024241051e-05)
(-8.37860403e-05 -0.0008531530309 1.998146492e-05)
(-0.0001390133604 -0.0008561964045 1.933267044e-05)
(-0.0001928151876 -0.0008605113215 1.810942633e-05)
(-0.0002442122515 -0.0008661723621 1.645369344e-05)
(-0.00029253833 -0.0008731268874 1.444095626e-05)
(-0.0003372163264 -0.0008812977145 1.208785179e-05)
(-0.0003777008218 -0.0008905941205 9.419945372e-06)
(-0.0004134885069 -0.00090091282 6.467339957e-06)
(-0.000444125302 -0.0009121389202 3.263496642e-06)
(-0.000469219236 -0.0009241455441 -1.574602367e-07)
(-0.0004884407948 -0.0009368056421 -3.762596002e-06)
(-0.0005015299516 -0.0009499792931 -7.488563845e-06)
(-0.0005082943465 -0.0009635277042 -1.131008936e-05)
(-0.0005086183166 -0.0009773061418 -1.517143681e-05)
(-0.0005024738224 -0.000991166731 -1.902975407e-05)
(-0.0004898927942 -0.001004968732 -2.283998077e-05)
(-0.0004709928626 -0.001018565799 -2.655316889e-05)
(-0.0004459618317 -0.001031814997 -3.012366e-05)
(-0.0004150591073 -0.001044606602 -3.351529539e-05)
(-0.0003785981108 -0.001056773731 -3.668090663e-05)
(-0.0003369679155 -0.001068247035 -3.958555958e-05)
(-0.000290664271 -0.00107887657 -4.219237238e-05)
(-0.0002401628271 -0.001088585942 -4.446296857e-05)
(-0.0001859864692 -0.001097280679 -4.64012128e-05)
(-0.0001287959801 -0.001104879691 -4.79514664e-05)
(-2.861239912e-05 -0.00081339806 1.686245014e-05)
(-8.616163504e-05 -0.0008271290743 1.652112771e-05)
(-0.000142919172 -0.0008300948776 1.582869501e-05)
(-0.0001981986666 -0.0008342964926 1.456208866e-05)
(-0.000251020433 -0.000839810215 1.284347758e-05)
(-0.0003007003276 -0.0008465810261 1.075063746e-05)
(-0.0003466426018 -0.0008545371575 8.305323619e-06)
(-0.0003882859057 -0.0008635915005 5.52515271e-06)
(-0.0004251152163 -0.0008736459688 2.45238586e-06)
(-0.0004566658891 -0.0008845830221 -8.842627158e-07)
(-0.0004825365106 -0.0008962867703 -4.447852715e-06)
(-0.0005023896279 -0.0009086290685 -8.194518293e-06)
(-0.000515961489 -0.000921484681 -1.20728425e-05)
(-0.0005230560909 -0.0009347085633 -1.605144213e-05)
(-0.0005235566925 -0.0009481686977 -2.007009829e-05)
(-0.0005174321789 -0.0009617242387 -2.408343809e-05)
(-0.0005047147362 -0.000975228539 -2.804378713e-05)
(-0.0004855195111 -0.0009885522789 -3.190165895e-05)
(-0.0004600624845 -0.001001550529 -3.561218061e-05)
(-0.0004285904689 -0.001014108566 -3.912509404e-05)
(-0.0003914245406 -0.00102608765 -4.241955867e-05)
(-0.0003489764881 -0.001037412034 -4.543871593e-05)
(-0.0003017256946 -0.001047931051 -4.81479036e-05)
(-0.0002501823152 -0.00105756528 -5.051771096e-05)
(-0.0001948913437 -0.001066226339 -5.252483411e-05)
(-0.0001364961 -0.001073857925 -5.414490921e-05)
(-2.936216295e-05 -0.0007797525963 1.362493335e-05)
(-8.846421021e-05 -0.0007930798974 1.321256159e-05)
(-0.0001467002764 -0.0007959364428 1.247589259e-05)
(-0.000203411485 -0.0007999833154 1.11648038e-05)
(-0.0002576136616 -0.0008052951857 9.384430506e-06)
(-0.0003086041947 -0.0008118194958 7.213556081e-06)
(-0.000355773311 -0.0008194860798 4.676268077e-06)
(-0.0003985469064 -0.0008282162458 1.794933046e-06)
(-0.0004363884293 -0.0008379084219 -1.399177862e-06)
(-0.0004688243386 -0.0008484548771 -4.864855014e-06)
(-0.0004954512311 -0.0008597471199 -8.563766661e-06)
(-0.0005159293461 -0.0008716645565 -1.24524506e-05)
(-0.0005299801964 -0.0008840828467 -1.647887439e-05)
(-0.0005374040723 -0.0008968678505 -2.060506776e-05)
(-0.0005380898434 -0.0009098926234 -2.476950597e-05)
(-0.000531993479 -0.0009230202722 -2.892548077e-05)
(-0.0005191595674 -0.0009361134637 -3.302994666e-05)
(-0.0004997075904 -0.0009490502651 -3.702987826e-05)
(-0.0004738412042 -0.0009616939518 -4.087512664e-05)
(-0.0004418266097 -0.0009739211669 -4.452080972e-05)
(-0.0004040197962 -0.0009856142242 -4.79241914e-05)
(-0.0003607968046 -0.000996698988 -5.105936239e-05)
(-0.0003126493535 -0.00100701924 -5.386469414e-05)
(-0.0002601210909 -0.001016534553 -5.632223322e-05)
(-0.0002037600126 -0.001025113581 -5.840102333e-05)
(-0.0001442252792 -0.001032713923 -6.009186301e-05)
(-3.007631233e-05 -0.0007385663197 1.056785045e-05)
(-9.066517398e-05 -0.0007513744829 1.00846501e-05)
(-0.0001503215274 -0.0007540966983 9.30715929e-06)
(-0.0002084060248 -0.0007579509909 7.957963638e-06)
(-0.0002639327134 -0.0007630110104 6.119721976e-06)
(-0.00031618142 -0.0007692282887 3.873558602e-06)
(-0.0003645300861 -0.0007765409662 1.244951018e-06)
(-0.0004083830565 -0.0007848574647 -1.740631526e-06)
(-0.0004471936833 -0.0007940917532 -5.046058807e-06)
(-0.0004804898894 -0.0008041543729 -8.635014861e-06)
(-0.0005078561136 -0.000814933634 -1.246521643e-05)
(-0.0005289376122 -0.0008263190675 -1.648512441e-05)
(-0.0005434558678 -0.0008381868532 -2.064547495e-05)
(-0.0005512120909 -0.0008504224309 -2.490704252e-05)
(-0.0005520864935 -0.0008628960327 -2.921407718e-05)
(-0.0005460365877 -0.0008754827074 -3.351172244e-05)
(-0.0005331109386 -0.000888058057 -3.775090842e-05)
(-0.0005134253285 -0.0009004948643 -4.188693544e-05)
(-0.0004871941453 -0.000912676014 -4.585920162e-05)
(-0.0004546850531 -0.0009244814388 -4.962425014e-05)