/*--------------------------------*- C++ -*----------------------------------*\
  =========                 |
  \\      /  F ield         | OpenFOAM: The Open Source CFD Toolbox
   \\    /   O peration     | Website:  https://openfoam.org
    \\  /    A nd           | Version:  8
     \\/     M anipulation  |
\*---------------------------------------------------------------------------*/
FoamFile
{
    version     2.0;
    format      ascii;
    class       volScalarField;
    location    "1.7/wallFilmRegion";
    object      delta;
}
// * * * * * * * * * * * * * * * * * * * * * * * * * * * * * * * * * * * * * //

dimensions      [0 1 0 0 0 0 0];

internalField   nonuniform List<scalar> 
1369
(
0.003498740902
0.0004138873696
0.0003715886074
0.0002447519453
0.0001872576601
0.0001166270586
6.422246941e-05
0.003060791681
0.0003425636822
0.0002341061828
0.000145963983
0.0001027155247
6.290000319e-05
4.202537277e-05
4.48108273e-05
4.140067075e-05
5.101267055e-05
6.958816763e-05
0.003186270895
0.0002991693783
0.0001691585082
0.0001063065661
7.094895738e-05
4.390916709e-05
4.715331812e-05
0.0001008564777
7.720162323e-05
7.316694034e-05
8.481700174e-05
8.669905321e-05
8.005560702e-05
0.003539661652
0.0002974009578
0.0001594975851
0.0001017693255
6.085054139e-05
3.058789282e-05
4.792448306e-05
0.0002604805198
0.0001759796181
0.0001086304919
9.976720761e-05
8.234702103e-05
6.826439891e-05
7.529632092e-05
0.0001120857371
0.000209443386
0.0004292769257
0.003975116624
0.0003525148201
0.0001996647512
0.0001279058366
7.005780797e-05
3.343570029e-05
7.150884826e-05
0.0004555039258
0.0004127240481
0.0001655578927
0.0001124497514
7.690976871e-05
6.482317497e-05
7.766607488e-05
0.0001126197384
0.0001919516495
0.0004105178725
3.786893785e-05
2.025487998e-08
0.004270436056
0.0004238179676
0.0002637109855
0.0001812436996
0.0001114394844
8.228092289e-05
0.0001805972207
0.0005327806909
0.0006040488809
0.0002258958875
0.000126801403
8.365114389e-05
7.292944588e-05
8.159123469e-05
9.177362265e-05
9.569716127e-05
7.774679974e-05
2.964052198e-05
2.649523463e-07
8.240580269e-07
0.0001758988081
0.001593947457
0.0007144244465
0.004283834259
0.0004071755909
0.0002794568877
0.0002413703676
0.0002249594255
0.0002626332865
0.0004541610524
0.0004409386091
0.0003273516538
0.0002261800907
0.0001573898812
0.0001122150623
8.550968402e-05
8.149285423e-05
7.450838981e-05
6.425707681e-05
5.100735423e-05
3.313473321e-05
1.407363377e-05
0.000150668275
0.001667733801
0.001673842487
0.001187570033
0.0008306920058
0.001450775687
0.004332245038
0.000288499976
0.0002029098059
0.0002303088388
0.0002792534791
0.0003150942958
0.0005454734523
0.000444454308
0.0002787427619
0.0002329328489
0.0002311218149
0.0001807668771
0.0001043985099
8.188750327e-05
6.489814035e-05
5.344088833e-05
4.653477919e-05
4.082821403e-05
3.841838194e-05
0.0008405925615
0.001662585256
0.001512056462
0.001431821345
0.001453215364
0.001764375125
0.002171758739
0.003898734636
0.0001607399168
8.347648212e-05
8.248778963e-05
9.583014324e-05
0.0002070481983
0.0007220837099
0.0003999485236
0.0002947608485
0.000290809419
0.0003567815331
0.0002794262328
0.0001152630282
6.962946052e-05
4.865923281e-05
4.203117483e-05
4.874486891e-05
6.191087524e-05
2.810455214e-05
0.0002394837982
0.0009795224592
0.001429483686
0.001367996927
0.001530852924
0.001668632019
0.001898759472
0.003039539018
0.000158525831
0.0001013030474
8.614425092e-05
0.0001314814245
0.0002076916042
0.0002843301814
0.0003440184894
0.0003706134159
0.0003570128741
0.0004207920408
0.000315633136
0.0001047769159
4.389986316e-05
2.883673815e-05
4.077933453e-05
0.0001035801052
0.0002151988989
0.0001704728122
0.000382415469
0.0007261879103
0.001338459373
0.0009795073942
0.001059090836
0.001124507377
0.0008068710726
0.0003275458119
0.002963863433
0.0002161723084
0.0001593208784
0.0001264307705
0.0001720874129
0.0002332876486
0.0003022083969
0.000355274894
0.0003818302983
0.0003834791365
0.0003709356022
0.0002356257952
0.0001227912562
0.0001310594762
0.0001060997125
7.37762344e-05
5.990599028e-05
6.922397673e-05
0.000319578932
0.0005264126057
0.0008281018669
0.0007545013735
0.0006068894701
0.0006274761871
0.0006263177293
0.0003960253408
0.0001454461503
0.002831853249
0.0002644741688
0.0002303434469
0.0001755846617
0.0002071691574
0.0002351894242
0.0002710671643
0.0003031725619
0.0003531319513
0.0004535128318
0.0003451960878
0.0001578677777
8.258506121e-05
0.000169037506
0.0002610639579
0.0002759322763
0.0002187102895
0.0001231866859
0.0002918055914
0.0003251427799
0.000412756665
0.0004771211761
0.0003860215266
0.0004001707362
0.0005243205476
0.0007728363209
0.0002253724408
0.002645522894
0.0002136577778
0.0003014335702
0.0002157582148
0.000212350151
0.0002101530576
0.0002150991583
0.0002246328153
0.0002774772551
0.0005841238816
0.0003839746979
0.000135474109
0.0001531764665
0.0001197598411
0.0001431532771
0.000246522293
0.0003130098016
0.0002531953201
5.512672642e-06
6.857148182e-05
0.0002482283436
0.0004914454247
0.0006862003392
0.0008260884361
0.00135381616
0.001177696674
0.0006408472278
0.0007711716583
0.002492091292
0.000218039028
0.0002569737938
0.0002370195054
0.0002208236088
0.0001975760046
0.000169736805
0.0001407707032
0.0001155734263
0.0007768096814
0.0005087955217
4.88391545e-05
0.0005262614012
0.002845743369
0.0006727208644
0.0001785209593
0.0002315415904
0.0002991770448
3.915669311e-06
7.553234661e-05
0.0002418335869
0.0005784683261
0.001141509206
0.001855904098
0.001195521806
0.0008707161775
0.0008602725238
0.0007241123877
0.0006468961071
0.002550519304
5.922898611e-05
5.528581708e-05
7.302554906e-05
0.0001301030379
0.0001855477813
0.000191628064
0.0001709990656
0.0001624102297
0.0001870366717
0.0001547310012
8.478519379e-05
6.640438131e-05
5.830642462e-05
3.44430885e-05
4.047947977e-05
0.0001133038521
0.0002124926271
6.004765685e-06
0.0001235003217
0.000213003332
0.0004636431067
0.001319085822
0.0009417195387
0.0004930890803
0.0006273316652
0.0006987120425
0.0005357387566
0.000436057282
0.003189298386
0.0001074523842
9.793558088e-05
0.0001191171613
0.0001954930331
0.0002620821228
0.0002480873591
0.0002043007029
0.0001702449395
0.0001392655348
0.0001239150477
7.391231082e-05
1.731773063e-05
1.115786799e-05
5.390592185e-06
6.428620785e-06
2.574904313e-05
8.320287366e-05
1.628116884e-05
0.0002623499494
0.0002730775095
0.0004135399022
0.001452013121
0.001078535574
0.0003982891453
0.0004390091122
0.0007226703793
0.0008553972287
0.0005405462152
0.003700870178
0.0001316923004
0.0001176785072
0.0001031849123
0.0001456630752
0.0002061387125
0.00024689631
0.0002046716168
0.0001637300409
0.0001171021596
0.0001155815196
7.716754455e-05
2.572938206e-05
1.820964397e-05
5.705466465e-06
3.113895045e-06
4.845448548e-06
1.726401617e-05
4.821516451e-05
0.000437957268
0.000434329264
0.0003831439102
0.001427086169
0.001405396595
0.0005085273024
0.0003412196156
0.0006893840822
0.0008024486924
0.000559514204
0.000611276591
0.0004868672925
0.0004972090567
0.0005123005174
0.0006163387787
0.003622137991
0.0001297513122
0.000126394049
7.660849078e-05
9.240755348e-05
0.0001145520024
0.0001647790636
0.0001747183934
0.000143421544
9.840137226e-05
0.0001072955242
7.40443658e-05
2.340406766e-05
3.89249566e-05
4.76300538e-05
3.769895527e-05
1.633279209e-05
2.656572536e-05
0.0001244411635
0.0005990318395
0.0007686813081
0.0008856565522
0.001300111274
0.001391639368
0.0009425394673
0.000557603457
0.0007489478109
0.0009377845411
0.000770234854
0.0006989060533
0.0003715279516
0.0003537463123
0.0006224467574
0.001262648903
0.003622307138
0.0001697633199
0.0001506107573
7.308412765e-05
7.925127328e-05
8.105796699e-05
9.491488013e-05
0.0001322508048
0.0001187505167
8.281254676e-05
9.730854561e-05
6.599945733e-05
8.723653439e-06
1.645941727e-05
4.381086807e-05
7.708228701e-05
9.20106477e-05
0.00013109353
0.0002921372606
0.0006085022346
0.0009511775461
0.001326074713
0.00155336091
0.001627079712
0.001340433072
0.0009575242952
0.0009696254243
0.001236116223
0.001150504125
0.0006168466803
0.0003213667681
0.0004658688702
0.00166794214
0.001248569637
0.003722351383
0.0002176741596
0.0001588266095
7.755158169e-05
8.10070129e-05
7.685560289e-05
7.127858709e-05
8.243830473e-05
9.243233823e-05
7.419342564e-05
8.213667387e-05
5.777338976e-05
8.458790069e-06
1.256563932e-05
3.689808626e-05
0.0001529777928
0.000361935796
0.0003711771186
0.0003936086155
0.0006144204908
0.0008720892503
0.001191778596
0.001731926889
0.001672070651
0.001387195547
0.001235456434
0.001215323492
0.001775936461
0.001966843586
0.001349849854
0.001244633317
0.001335784424
0.000959256839
0.003223152082
0.0002340018157
0.0001462292804
8.03944155e-05
8.356926498e-05
8.360413674e-05
8.986503092e-05
0.0001367927462
0.000242408688
0.0001987214885
0.0001093459361
5.162387949e-05
1.280747428e-05
1.382943004e-05
5.118041057e-05
0.0002443854993
0.0007323086938
0.001017735499
0.0009090877025
0.0007356954725
0.0009697929437
0.00112030989
0.001288075916
0.001245763589
0.001200691784
0.001159714696
0.001634728737
0.00184434052
0.002487258075
0.001968235216
0.00144414604
0.0008669869219
0.003120398849
0.000227555235
0.000115967209
7.845393736e-05
7.790512632e-05
7.979692319e-05
0.0001018163066
0.0002231337021
0.0005609338725
0.0003722423776
0.0001398540134
4.512864379e-05
9.781567677e-06
5.82175655e-06
1.529648691e-05
6.240315841e-05
0.0003381865129
0.00100593685
0.001474034256
0.0009077606797
0.0009949210281
0.001021578178
0.0009554199358
0.001023886388
0.001056857914
0.0007905125682
0.001549146794
0.001407244646
0.001562024027
0.001795604157
0.001256314257
0.001054163768
0.003589854239
0.0002731419663
0.0001338641547
0.0001056959498
8.778882865e-05
6.17244902e-05
2.722273475e-05
0.0001095514168
0.000871299609
0.000591491188
0.0002030645347
0.0002050226948
0.000155720786
7.186087267e-05
2.665023795e-05
1.28204148e-05
1.399461108e-05
4.433723582e-05
0.0004565416695
0.001038212651
0.00104988646
0.0009051864092
0.0006702191038
0.001090906265
0.001620471302
0.00105901079
0.001467100583
0.001360382277
0.001929032953
0.002324144578
0.002146540475
0.001961715559
0.00318612128
0.0002444831413
0.0001461010884
0.0001051533611
9.323186203e-05
6.840423161e-05
3.388609986e-05
6.235829331e-06
4.086483785e-06
3.019331241e-06
3.101314334e-06
3.744418122e-06
4.879698061e-06
6.135771202e-06
5.609067764e-06
4.911790215e-06
6.052966351e-06
1.475371112e-05
0.0001379021664
0.000941046938
0.001001354604
0.001087402154
0.001081871077
0.00109002702
0.001207483218
0.001323203134
0.001533800091
0.001522074346
0.001838479154
0.00193194237
0.001696493716
0.003144989135
0.0002632450732
0.0001368364544
8.666212592e-05
8.073119823e-05
5.945981239e-05
2.647799756e-05
7.173988928e-07
4.44239751e-07
3.098652858e-07
2.44074367e-07
2.372368868e-07
3.115235334e-07
5.049979258e-07
9.261971598e-07
1.875854837e-06
4.119810143e-06
1.691535648e-05
8.257284907e-05
0.0005879569044
0.001151055339
0.001375055528
0.001498902285
0.001212249516
0.00124224719
0.001654005278
0.001991410275
0.001810924955
0.001770159372
0.001726966834
0.001474383081
0.003543181071
0.0001844099854
9.173497033e-05
6.894463328e-05
6.725993586e-05
5.192240338e-05
2.490753952e-05
2.566144383e-06
1.624902229e-06
9.516061896e-07
3.716549846e-07
1.333836957e-07
2.610208554e-08
9.812030851e-10
5.953047166e-07
1.331576263e-06
1.647026843e-06
6.022045495e-06
3.153921637e-05
0.0001970269626
0.0008531629393
0.001135519759
0.001781966596
0.00155420938
0.001619821957
0.002085008225
0.002509290836
0.002172158926
0.002026288993
0.001902027902
0.0008753329398
0.003732607627
0.00013571773
6.872933562e-05
6.134956168e-05
6.634104082e-05
6.03515102e-05
4.433052391e-05
3.896550602e-05
3.386052645e-05
1.246188822e-05
9.128244247e-07
3.480658793e-07
1.254628572e-07
5.092979495e-07
6.8876227e-07
1.673733208e-07
3.060246761e-07
6.51215096e-07
1.565139937e-06
5.067866289e-06
0.0001019600076
8.782999242e-05
0.0003312853451
0.001434937538
0.001658913852
0.001498501884
0.002248976086
0.002066933942
0.002173990051
0.001913083375
0.001179105569
0.003712833573
0.0001395115569
7.209821867e-05
7.202883383e-05
9.281468642e-05
0.0001175723542
0.0001417289807
0.0001221749989
6.924710908e-05
2.306133512e-05
1.493333796e-06
6.428078075e-07
3.762146345e-07
1.265558749e-06
6.151144298e-07
2.18905802e-07
3.330395783e-07
5.751835522e-07
1.184724263e-06
2.490488884e-06
7.241803004e-06
1.723948403e-05
0.0002450917817
0.0009997989546
0.001241891417
0.002843741008
0.001632119587
0.001286950277
0.001142932399
0.000744100059
0.00029738869
0.003589003378
0.0002162332969
0.0001312825808
0.0001173454978
0.0001404693953
0.000158501522
0.0001335711095
7.820923212e-05
3.976734027e-05
1.347756726e-05
2.167541482e-06
1.198661173e-06
9.805095758e-07
1.863072131e-06
8.702102052e-07
4.681566662e-07
6.595223928e-07
1.094404867e-06
2.668566984e-06
8.719033152e-06
3.110249603e-05
0.0001410978296
0.0005535869622
0.001096936345
0.002018506014
0.001758036692
0.0003969539849
0.0007798830261
0.0008738706316
0.000242781272
0.0002293965543
0.003381219853
0.0002905041368
0.0002415037816
0.0001878515371
0.0001760861164
0.0001385970547
8.22098666e-05
4.394957357e-05
2.282506621e-05
1.016851491e-05
4.597159601e-06
6.069071974e-06
1.244168039e-05
2.321926339e-05
2.974971384e-05
2.637497057e-05
1.299485103e-05
2.98778443e-06
7.765289511e-06
3.109633156e-05
0.0001972433233
0.000634499423
0.0008170282144
0.001024736057
0.00144767529
0.000614004124
0.0001483289236
0.0003310152684
0.0006603951988
2.030873428e-05
0.0001781831401
0.003252801139
0.0002268173981
0.0002273643155
0.0001544949481
0.0001183336828
7.026260458e-05
3.688350178e-05
2.015824307e-05
1.313933247e-05
9.75858894e-06
7.714928505e-06
9.473344125e-06
1.533301995e-05
2.62658684e-05
3.47994798e-05
3.373317932e-05
2.441636941e-05
3.369093373e-05
0.0001498511686
0.0004110821845
0.0006840416623
0.0008506291296
0.0008856050035
0.0009393028076
0.0006339696088
0.0005596189616
0.000302933832
0.0009820196705
0.00102767319
0.0003423378896
0.0001112751958
0.003967986233
0.0004095163488
0.0003179693236
0.0001891176621
0.0001077415485
5.10585018e-05
2.869803525e-05
1.83627722e-05
1.403882198e-05
1.145702612e-05
9.713964723e-06
1.455674775e-05
3.73426811e-05
5.37656261e-05
3.128391954e-05
2.845107388e-05
2.55654433e-05
3.849812343e-05
0.0001263585257
0.0003117891013
0.0004961411468
0.0005361784758
0.000547854267
0.0002360205913
4.567080803e-05
3.454051476e-06
1.286273556e-06
6.354348483e-05
0.0001226947613
0.0008201233118
0.000659964608
0.005695930676
0.001434192865
0.003748860099
0.002931742097
0.001214752373
0.0001292846887
4.428090429e-05
3.082849911e-05
2.096884827e-05
1.211586824e-05
1.071639095e-05
2.754589839e-05
0.0001116668269
8.616997924e-05
3.919709115e-05
7.017013577e-05
0.0002133913124
0.0005687843309
0.0009131180995
0.0008780313156
0.0005390565052
0.000253734385
0.000114806292
6.06667145e-06
2.219866996e-05
3.080877053e-05
7.617219113e-05
0.0004516991711
0.0002413322806
0.0009151485735
0.001611989602
0.007650312538
0.001211003986
0.003537722593
0.003146956566
0.003791754133
0.001497219398
0.0001295307234
4.056725839e-05
2.565443141e-05
1.249836167e-05
1.084072417e-05
4.357895706e-05
0.0001928279022
7.297779839e-05
3.29962821e-05
4.736607798e-05
0.0001152384091
0.0003106401704
0.0005889995895
0.0007092692685
0.0005420230184
0.0002557893951
9.543565581e-05
1.602809741e-05
6.171604501e-05
0.0001357913142
0.001313681555
0.0009236681652
0.001352614812
0.001054392026
0.0004417998796
0.006744404434
0.0006761619813
0.003707535614
0.003113664839
0.003533910156
0.004432765051
0.001564448903
7.621688621e-05
3.107984529e-05
1.444286875e-05
1.19564664e-05
6.035815605e-05
0.0001750883744
4.645636187e-05
2.501422167e-05
2.908854178e-05
5.405446128e-05
0.0001408707591
0.0003180581411
0.0004735671286
0.0004542582717
0.0002742778165
0.0001214447087
5.183467624e-05
0.000228913702
0.0005039581863
0.001045146505
0.0008614381467
0.0005587951207
0.0002476235801
0.0003261470785
0.005900880292
0.0004422024573
0.003722417031
0.0034704357
0.003248771194
0.003185034107
0.002475291692
0.0001691852565
4.265540217e-05
1.920489394e-05
1.508660125e-05
7.104236308e-05
0.0001070780358
3.663533455e-05
3.301285546e-05
3.898125631e-05
4.592813781e-05
7.61197189e-05
0.0001769764436
0.0003279280749
0.0003931307773
0.0003136784065
0.000169229834
0.0001283637009
0.0004004550897
0.0006998208066
0.0002408020315
0.0002755133204
0.0001091762083
0.0001097473968
0.001020487792
0.005371598912
0.0005624902834
0.00380416065
0.003573708919
0.003555454802
0.003348269691
0.002653424772
0.0004079088911
7.521225074e-05
2.83780952e-05
2.07657745e-05
6.703029243e-05
6.302622824e-05
4.56558232e-05
6.331573496e-05
7.109424825e-05
5.153149233e-05
4.961109527e-05
9.748231918e-05
0.0002054731451
0.0002963826215
0.0003092392653
0.0002467743713
0.000247324562
0.0002411449046
0.0002156298639
5.595455576e-05
8.451930834e-05
2.445108004e-05
4.280043736e-05
0.0003160784405
0.004855711283
0.0006739883081
0.003143754625
0.00347702517
0.003963754352
0.003991413544
0.003260071823
0.0008276095983
0.0001562426279
4.411045677e-05
2.91729505e-05
5.640351829e-05
6.040847504e-05
8.931437654e-05
0.0001447200908
0.0001200563943
4.760377054e-05
3.760917131e-05
6.526555176e-05
0.0001513930094
0.0002902854132
0.0004560093417
0.0005976129503
0.0006521485117
0.0003760105064
0.0001169563225
3.806496132e-06
3.742985635e-05
7.071969109e-05
0.0001364765728
0.0002664828221
0.004438317567
0.0007472178256
0.00319614725
0.003301759607
0.004340453461
0.004702157371
0.004770245033
0.002080522218
0.0002989441966
6.442698324e-05
3.499065947e-05
5.154067748e-05
7.437950154e-05
0.0001105906964
9.076973699e-05
5.358996029e-05
3.93785347e-05
3.518924917e-05
5.678874087e-05
0.0001268662016
0.0002885413897
0.00057367599
0.0009021256018
0.001143090491
0.001124077708
0.000817799093
2.119663258e-05
9.242119353e-05
0.0001752137407
0.0001937784589
0.0001696166648
0.004166478228
0.0008181977818
0.003731425312
0.003463185829
0.004415790827
0.005207153993
0.00573743141
0.002819317465
0.0003602222686
8.236373657e-05
3.382976864e-05
3.632721146e-05
3.428037062e-05
3.590522408e-05
2.456950868e-05
2.253595555e-05
3.442819419e-05
3.828244368e-05
5.636417977e-05
9.761213841e-05
0.0001948098431
0.0003883605664
0.0005731210416
0.0005408416187
0.0002962151005
0.0002312105317
7.444800641e-05
0.0001342398045
0.0001413200398
9.159669031e-05
6.782841526e-05
0.004187864115
0.0008696796417
0.00539388527
0.004054520733
0.004550298599
0.005872297639
0.008057513118
0.003358335237
0.000175136025
6.752813525e-05
2.795755408e-05
2.507830904e-05
1.943032296e-05
2.1800712e-05
1.001026449e-05
1.887277013e-05
4.000541568e-05
6.633121505e-05
0.0001092054978
0.0001489829556
0.0001794269643
0.0002254627161
0.000252638073
0.0001794592739
0.0001198465276
0.00020613675
0.0002138473516
0.0003022140296
0.0001308899042
4.025494823e-05
3.286732372e-06
0.00441789765
0.001397706276
0.00579014379
0.004412624904
0.004404148675
0.004620809979
0.006615868377
0.007534354588
0.001956934709
5.262162726e-05
2.556816106e-05
2.199008086e-05
1.987990317e-05
1.723827081e-05
6.778344966e-06
1.336162164e-05
3.553749215e-05
7.655646998e-05
0.00015206598
0.0002129015239
0.0002136075235
0.0001940159041
0.0001721103534
0.0001272483529
0.0001044285325
0.0001776023682
0.0004943441666
0.0006617586396
0.0001159624251
1.507810079e-05
4.157137619e-07
0.0049055897
0.004475566591
0.006104377438
0.004628624451
0.004284780061
0.00400876025
0.004983987195
0.006770708845
0.004743344521
0.000226849452
3.523665402e-05
2.27903544e-05
2.141139034e-05
1.642716324e-05
8.277445856e-06
8.897044101e-06
2.089150797e-05
5.121016146e-05
0.0001280567851
0.0002365764746
0.000250692531
0.0002101724143
0.0001825426649
0.0001449150515
0.0001175059125
0.0001558687258
0.0007960794291
0.0008563224677
5.338010582e-05
8.521221321e-06
2.882192437e-06
0.006032603359
0.005746106714
0.006375722154
0.004711807797
0.004198908341
0.00350008738
0.003913952205
0.004788714579
0.005944867385
0.0003348552983
4.719080838e-05
2.599541598e-05
2.411387179e-05
1.828084573e-05
1.045592982e-05
6.826495177e-06
1.131081298e-05
2.681047614e-05
6.611442045e-05
0.0002798740938
0.0003430577951
0.0002479736626
0.0002253211764
0.0001966121792
0.0001623250807
0.000176587356
0.0008294889417
0.0006487963505
3.945412748e-05
2.060885532e-05
0.0002744915565
0.007384815956
0.005925434216
0.006485715379
0.00467885731
0.00412012599
0.003167166842
0.003027752924
0.002789476158
0.005968308187
0.0005754683106
5.843553799e-05
2.960889908e-05
2.731561012e-05
2.100175614e-05
1.268039243e-05
6.181991595e-06
7.285427467e-06
1.811304371e-05
0.0001037652107
0.001262921154
0.0007097067022
0.0004416826982
0.0004222464372
0.0004361472774
0.0004056714174
0.000386520595
0.0007452388224
0.0004284749986
4.012373565e-05
1.806212991e-05
3.011544367e-09
0.008804138953
0.007202601471
0.006809135715
0.005259358896
0.004804914863
0.004054005948
0.003819725381
0.003939924222
0.006681937573
0.002710339751
0.0001696880875
5.115100058e-05
3.636325682e-05
2.835595317e-05
1.922682302e-05
9.989562568e-06
1.191703655e-05
5.211590004e-05
0.001519490596
0.001622436864
0.001274704778
0.001993515637
0.002682503041
0.003118695441
0.003033992471
0.002200343623
0.001253762423
0.0006284023237
5.257092818e-05
2.222355218e-05
2.744468185e-10
0.009883502265
0.008084656501
0.007286521046
0.005734652536
0.00473710151
0.004177742113
0.004454979825
0.005327360907
0.00708934064
0.007912549528
0.003021226671
0.0002252056215
7.461920018e-05
5.48149046e-05
4.122169455e-05
2.900741608e-05
0.0001135797463
0.0006260685615
0.00154473126
0.0002305612629
0.0001878515952
0.0002571499995
0.0004137252215
0.0006840704588
0.001036639358
0.001190361671
0.0004132643642
0.0001925755552
8.050440456e-05
2.784618896e-05
1.764451499e-09
0.009849623456
0.008376187795
0.007125238887
0.005337842429
0.004635273253
0.004859060962
0.005921059465
0.00767215034
0.01012221137
0.01258696276
0.01008555107
0.007419462389
0.004758111716
0.003645147469
0.003523720921
0.003821756256
0.004426475899
0.005496601557
0.004993500924
0.003921628462
0.003675306826
0.003482840264
0.003426172752
0.003547695855
0.003912100896
0.004442612276
0.004478484546
0.004607351821
0.003760841821
0.002075936135
0.0005074944328
)
;

boundaryField
{
    walls
    {
        type            zeroGradient;
    }
    wallFilmFace_top
    {
        type            zeroGradient;
    }
    region0_to_wallFilmRegion_wallFilmFace
    {
        type            zeroGradient;
    }
    mirrorFace_top
    {
        type            zeroGradient;
    }
    region0_to_wallFilmRegion_mirrorFace
    {
        type            zeroGradient;
    }
    procBoundary1to0
    {
        type            processor;
        value           nonuniform List<scalar> 
52
(
0.004641866884
0.0007271890468
0.0008525973872
0.0006170942742
0.0005891727792
0.0004891838243
0.0003744008865
4.927594126e-05
4.927594126e-05
4.531246507e-05
5.339242859e-05
6.333078829e-05
8.284763119e-05
8.284763119e-05
8.644318332e-05
8.435475432e-05
8.435475432e-05
0.0001197924183
0.0002128419593
0.000222427447
4.90483204e-05
4.90483204e-05
1.471505275e-09
7.165044719e-08
7.165044719e-08
3.819032018e-05
0.000396408018
0.0005802060476
0.0005898496892
0.0005898496892
0.001192407925
0.002084965623
0.002084965623
0.002100295974
0.001201545401
0.001201545401
0.0003094023085
0.0001994808456
0.0003732164984
0.0003732164984
0.0009443610091
0.0009443610091
0.001042048014
0.0003898731316
0.0004354489632
0.0004354489632
0.0005811169293
0.0007266527469
0.0006372372851
0.0002116478493
0.0006131777158
0.001153320532
)
;
    }
    procBoundary1to2
    {
        type            processor;
        value           nonuniform List<scalar> 
33
(
0.001301786007
0.0007951406328
0.0007951406328
0.0007704404389
0.0007704404389
0.0009735460977
0.001843216468
0.001728926126
0.001728926126
0.0004849646606
0.0002768131633
0.0004939330869
5.475795484e-05
3.619804873e-05
9.030245033e-05
0.0001966531393
0.0004911013971
0.001280618945
0.0003769628665
0.0001930678287
0.0001117140639
6.383753687e-05
0.000483725749
0.0002679207536
8.44324541e-05
2.930956478e-05
5.432066735e-05
8.218299122e-05
1.941509809e-05
5.643075595e-08
7.733783448e-08
3.489509689e-08
0.0004516726498
)
;
    }
}


// ************************************************************************* //
