/*--------------------------------*- C++ -*----------------------------------*\
  =========                 |
  \\      /  F ield         | OpenFOAM: The Open Source CFD Toolbox
   \\    /   O peration     | Website:  https://openfoam.org
    \\  /    A nd           | Version:  8
     \\/     M anipulation  |
\*---------------------------------------------------------------------------*/
FoamFile
{
    version     2.0;
    format      ascii;
    class       volScalarField;
    location    "1.7/wallFilmRegion";
    object      mu;
}
// * * * * * * * * * * * * * * * * * * * * * * * * * * * * * * * * * * * * * //

dimensions      [1 -1 -1 0 0 0 0];

internalField   nonuniform List<scalar> 
1369
(
0.000886147382
0.0008861473769
0.0008861473888
0.0008861473929
0.0008861473915
0.0008861473851
0.0008861473711
0.0008861473821
0.0008861473811
0.0008861473913
0.0008861473945
0.0008861473919
0.0008861473826
0.0008861473634
0.0008861473587
0.000886147358
0.000886147368
0.0008861473762
0.0008861473825
0.0008861473868
0.0008861473953
0.000886147397
0.0008861473942
0.0008861473852
0.0008861473705
0.0008861473729
0.0008861473713
0.0008861473775
0.0008861473816
0.0008861473828
0.0008861473827
0.0008861473829
0.0008861473919
0.0008861473982
0.000886147399
0.0008861473967
0.0008861473896
0.0008861473817
0.0008861473844
0.0008861473819
0.0008861473847
0.0008861473854
0.0008861473834
0.0008861473809
0.0008861473827
0.0008861473891
0.0008861473969
0.0008861474033
0.0008861473828
0.0008861473939
0.000886147399
0.0008861473997
0.0008861473977
0.0008861473913
0.0008861473905
0.000886147392
0.0008861473889
0.0008861473902
0.0008861473886
0.0008861473843
0.0008861473813
0.0008861473842
0.0008861473906
0.0008861473979
0.0008861474041
0.0008861473814
0.0008861310758
0.0008861473816
0.0008861473932
0.0008861473986
0.0008861473992
0.000886147397
0.0008861473925
0.0008861473931
0.0008861473952
0.0008861473935
0.0008861473943
0.0008861473921
0.0008861473877
0.0008861473852
0.0008861473873
0.0008861473905
0.0008861473925
0.0008861473915
0.0008861473772
0.0008861441621
0.0008861457554
0.000886147366
0.000886147448
0.0008861474649
0.0008861473792
0.0008861473924
0.0008861473984
0.0008861473981
0.0008861473955
0.000886147393
0.0008861473942
0.000886147396
0.0008861473975
0.0008861473977
0.0008861473968
0.000886147394
0.0008861473908
0.0008861473916
0.0008861473928
0.0008861473931
0.0008861473908
0.0008861473801
0.0008861472848
0.0008861473935
0.0008861474239
0.0008861474605
0.0008861474749
0.0008861474672
0.0008861474598
0.0008861473773
0.0008861473951
0.0008861474002
0.0008861473989
0.0008861473966
0.0008861473945
0.0008861473954
0.0008861473973
0.0008861474008
0.0008861474022
0.000886147403
0.0008861474006
0.0008861473956
0.0008861473948
0.0008861473944
0.0008861473941
0.0008861473945
0.0008861473925
0.000886147362
0.0008861474025
0.0008861474628
0.0008861474664
0.00088614747
0.0008861474637
0.0008861474584
0.0008861474583
0.0008861473755
0.0008861473938
0.0008861474018
0.0008861474
0.0008861473974
0.0008861473959
0.0008861473967
0.0008861474
0.0008861474053
0.0008861474074
0.0008861474077
0.0008861474053
0.000886147399
0.0008861473966
0.0008861473953
0.0008861473988
0.0008861474112
0.000886147421
0.0008861473491
0.0008861474073
0.0008861474608
0.0008861474739
0.0008861474747
0.000886147468
0.0008861474618
0.0008861474669
0.0008861473733
0.0008861473633
0.000886147389
0.0008861473884
0.000886147389
0.0008861473937
0.0008861473997
0.000886147404
0.0008861474072
0.0008861474096
0.0008861474097
0.0008861474074
0.0008861474009
0.0008861473972
0.0008861474015
0.0008861474234
0.0008861474431
0.0008861474494
0.000886147405
0.0008861474146
0.0008861474359
0.0008861474742
0.0008861474929
0.0008861474801
0.0008861474728
0.0008861474786
0.0008861474909
0.0008861473734
0.0008861473623
0.000886147387
0.0008861473899
0.000886147391
0.0008861473961
0.0008861474012
0.0008861474049
0.0008861474075
0.0008861474096
0.0008861474097
0.0008861474074
0.0008861474001
0.0008861473973
0.0008861473959
0.0008861473992
0.0008861474102
0.0008861474231
0.0008861474108
0.0008861474202
0.0008861474556
0.0008861475117
0.0008861475149
0.0008861474974
0.0008861474869
0.0008861474849
0.0008861474816
0.0008861473743
0.0008861473521
0.00088614738
0.0008861473884
0.0008861473928
0.0008861473987
0.0008861474028
0.0008861474056
0.0008861474074
0.0008861474084
0.0008861474086
0.0008861474056
0.0008861473961
0.0008861473962
0.0008861473981
0.0008861474003
0.0008861474029
0.000886147407
0.0008861474143
0.0008861474199
0.000886147427
0.0008861474338
0.0008861474479
0.00088614748
0.0008861474502
0.0008861474492
0.0008861474645
0.0008861473757
0.0008861473296
0.0008861473676
0.0008861473899
0.0008861473976
0.0008861474021
0.0008861474046
0.0008861474061
0.0008861474068
0.0008861474067
0.0008861474076
0.0008861474035
0.000886147397
0.0008861473968
0.0008861473972
0.0008861474004
0.0008861474028
0.0008861474051
0.0008861473057
0.0008861474257
0.0008861474326
0.0008861474355
0.0008861474376
0.0008861474518
0.0008861474685
0.0008861474417
0.0008861474875
0.0008861474655
0.0008861473736
0.0008861473632
0.0008861473854
0.0008861473972
0.0008861474019
0.0008861474046
0.0008861474061
0.0008861474068
0.0008861474064
0.0008861474051
0.0008861474075
0.0008861474047
0.000886147406
0.0008861474074
0.0008861474094
0.0008861473995
0.0008861474019
0.0008861474046
0.0008861473302
0.0008861474303
0.0008861474411
0.0008861474415
0.0008861474485
0.0008861474656
0.0008861474734
0.0008861474767
0.0008861474908
0.0008861475011
0.0008861474986
0.0008861473708
0.0008861473172
0.0008861473268
0.0008861473538
0.0008861473756
0.0008861473905
0.0008861473996
0.0008861474039
0.0008861474047
0.0008861474047
0.0008861474071
0.0008861474094
0.0008861474134
0.0008861474132
0.0008861473936
0.0008861473802
0.0008861473969
0.0008861474029
0.0008861473724
0.0008861474365
0.0008861474656
0.0008861474541
0.000886147473
0.0008861475049
0.0008861475151
0.0008861474894
0.0008861474986
0.0008861475027
0.0008861475185
0.00088614737
0.0008861473287
0.0008861473288
0.0008861473437
0.0008861473599
0.0008861473773
0.000886147393
0.0008861474014
0.0008861474031
0.0008861474025
0.0008861474046
0.0008861474013
0.0008861473441
0.0008861473144
0.0008861472539
0.0008861472912
0.0008861473741
0.0008861473968
0.0008861474041
0.000886147441
0.0008861474949
0.0008861474676
0.0008861474895
0.0008861475026
0.0008861475359
0.0008861475199
0.0008861475054
0.0008861475143
0.0008861475372
0.000886147371
0.0008861473292
0.0008861473277
0.0008861473478
0.000886147361
0.0008861473714
0.0008861473853
0.0008861473976
0.0008861474001
0.0008861473991
0.0008861474021
0.0008861473984
0.0008861473603
0.0008861473398
0.00088614724
0.0008861472069
0.000886147308
0.0008861473829
0.0008861474244
0.0008861474452
0.0008861474991
0.000886147475
0.0008861474906
0.0008861475179
0.0008861475333
0.0008861475243
0.0008861475059
0.0008861475158
0.000886147542
0.0008861475355
0.0008861475382
0.0008861475392
0.0008861475477
0.0008861475437
0.0008861473725
0.0008861473324
0.0008861473342
0.0008861473671
0.0008861473761
0.0008861473771
0.0008861473793
0.0008861473913
0.0008861473947
0.0008861473927
0.0008861473983
0.000886147396
0.0008861473602
0.0008861473793
0.0008861473885
0.0008861473907
0.0008861473691
0.0008861473977
0.0008861474305
0.0008861474449
0.0008861474556
0.0008861474811
0.0008861475037
0.0008861475152
0.000886147517
0.0008861475226
0.0008861475051
0.0008861475151
0.0008861475388
0.0008861475312
0.000886147538
0.0008861475125
0.0008861475572
0.0008861475513
0.0008861473757
0.0008861473474
0.0008861473517
0.0008861473821
0.0008861473869
0.0008861473834
0.0008861473723
0.0008861473778
0.0008861473829
0.0008861473794
0.0008861473902
0.0008861473892
0.0008861472905
0.0008861473416
0.0008861473791
0.0008861473971
0.0008861474051
0.0008861474224
0.0008861474377
0.0008861474456
0.0008861474539
0.0008861474671
0.0008861474895
0.0008861474952
0.0008861475006
0.0008861475107
0.0008861475057
0.0008861475148
0.0008861475302
0.000886147524
0.0008861475426
0.0008861475354
0.0008861475077
0.000886147519
0.0008861473791
0.0008861473561
0.000886147371
0.0008861473905
0.0008861473931
0.0008861473902
0.0008861473754
0.0008861473548
0.000886147364
0.0008861473641
0.0008861473729
0.0008861473737
0.0008861472919
0.0008861473339
0.0008861473798
0.0008861474078
0.0008861474193
0.0008861474274
0.0008861474367
0.0008861474449
0.000886147449
0.0008861474531
0.0008861474604
0.0008861474702
0.0008861474885
0.0008861475048
0.0008861475088
0.0008861475192
0.0008861475203
0.0008861475084
0.0008861475199
0.0008861474979
0.0008861474924
0.0008861473814
0.0008861473618
0.0008861473856
0.0008861473956
0.000886147397
0.0008861473955
0.00088614739
0.0008861473834
0.0008861473902
0.000886147391
0.0008861473831
0.0008861473669
0.0008861473175
0.000886147336
0.0008861473938
0.0008861474188
0.0008861474278
0.000886147433
0.000886147439
0.0008861474482
0.0008861474439
0.0008861474398
0.000886147436
0.0008861474452
0.0008861474694
0.0008861474862
0.00088614751
0.0008861475159
0.0008861475109
0.0008861475007
0.0008861474885
0.0008861474813
0.0008861473839
0.000886147381
0.0008861473954
0.000886147399
0.0008861473996
0.0008861473985
0.0008861473962
0.0008861473956
0.0008861473997
0.0008861473991
0.0008861473959
0.0008861473829
0.000886147317
0.0008861472509
0.0008861473439
0.000886147403
0.0008861474278
0.0008861474372
0.0008861474451
0.0008861474533
0.0008861474495
0.0008861474438
0.0008861474379
0.0008861474375
0.0008861474536
0.0008861474872
0.0008861475041
0.0008861474907
0.0008861474961
0.000886147483
0.0008861474537
0.00088614745
0.0008861473867
0.0008861474
0.0008861474028
0.0008861474037
0.0008861474038
0.0008861474027
0.000886147399
0.0008861473992
0.0008861474019
0.0008861473997
0.0008861473963
0.0008861473958
0.0008861473918
0.0008861473776
0.0008861473405
0.0008861472946
0.0008861473289
0.000886147412
0.0008861474527
0.0008861474577
0.0008861474541
0.0008861474473
0.0008861474398
0.000886147446
0.0008861474539
0.0008861474746
0.0008861474782
0.0008861474829
0.0008861474912
0.0008861474704
0.0008861474416
0.0008861474295
0.0008861473829
0.0008861473881
0.000886147399
0.0008861474016
0.0008861474013
0.0008861473976
0.00088614738
0.0008861472287
0.0008861471886
0.0008861471064
0.0008861470757
0.0008861470735
0.0008861470897
0.0008861471047
0.0008861471147
0.0008861471587
0.0008861472785
0.0008861473844
0.0008861474533
0.0008861474629
0.000886147463
0.0008861474593
0.000886147455
0.0008861474545
0.0008861474587
0.0008861474665
0.0008861474703
0.0008861474793
0.0008861474842
0.0008861474648
0.0008861474404
0.0008861473815
0.0008861473864
0.0008861473985
0.0008861473996
0.0008861473998
0.0008861473965
0.0008861473805
0.0008861466951
0.0008861464477
0.0008861461094
0.000886145798
0.0008861457628
0.0008861461263
0.0008861465459
0.0008861468443
0.0008861470879
0.0008861473073
0.0008861474125
0.0008861474557
0.0008861474672
0.0008861474709
0.0008861474708
0.0008861474666
0.0008861474639
0.0008861474621
0.0008861474692
0.0008861474719
0.0008861474767
0.0008861474768
0.0008861474581
0.0008861474368
0.0008861473873
0.0008861473997
0.0008861473961
0.0008861473971
0.0008861473975
0.000886147394
0.0008861473758
0.0008861471281
0.0008861470168
0.0008861468336
0.0008861463435
0.0008861451841
0.0008861410004
0.0008861010034
0.0008861463165
0.0008861469874
0.0008861472651
0.0008861473983
0.000886147453
0.0008861474693
0.000886147473
0.000886147475
0.0008861474755
0.0008861474759
0.0008861474771
0.0008861474813
0.0008861474834
0.0008861474819
0.0008861474759
0.0008861474508
0.0008861474304
0.0008861473921
0.0008861474023
0.0008861473914
0.000886147393
0.0008861473933
0.0008861473884
0.0008861473723
0.0008861473621
0.0008861473598
0.0008861473114
0.0008861467847
0.0008861461665
0.0008861450578
0.000886145913
0.0008861460418
0.0008861457738
0.0008861465286
0.0008861469742
0.0008861472357
0.0008861473835
0.0008861474633
0.0008861474554
0.0008861474666
0.0008861474771
0.0008861474783
0.0008861474808
0.0008861475069
0.0008861475029
0.0008861474987
0.0008861474852
0.0008861474813
0.0008861473984
0.0008861474115
0.0008861473925
0.0008861473905
0.0008861473916
0.0008861473928
0.0008861473968
0.0008861473998
0.0008861473895
0.0008861473592
0.0008861469548
0.0008861465398
0.0008861460799
0.0008861462616
0.0008861458564
0.0008861456482
0.0008861461799
0.0008861465538
0.0008861468243
0.0008861470524
0.0008861473505
0.0008861474348
0.0008861474959
0.0008861474978
0.0008861474792
0.0008861474964
0.0008861475531
0.0008861475233
0.0008861475346
0.0008861475242
0.0008861475527
0.0008861474068
0.0008861474526
0.0008861474381
0.0008861474218
0.0008861474167
0.0008861474178
0.00088614742
0.000886147408
0.0008861473889
0.0008861473435
0.0008861470339
0.0008861467262
0.0008861464292
0.0008861463553
0.0008861459595
0.0008861461374
0.0008861465728
0.0008861469457
0.0008861472132
0.0008861473955
0.0008861474759
0.0008861474982
0.0008861475063
0.0008861475072
0.0008861474951
0.0008861475184
0.000886147521
0.0008861475261
0.0008861475913
0.0008861475722
0.0008861475974
0.0008861474123
0.0008861474951
0.0008861474957
0.0008861474801
0.0008861474681
0.0008861474563
0.0008861474343
0.000886147407
0.0008861473786
0.0008861473294
0.0008861472076
0.000886147237
0.0008861473109
0.0008861473644
0.0008861473982
0.0008861474079
0.0008861473757
0.0008861471185
0.0008861472945
0.0008861474357
0.0008861474901
0.0008861475034
0.0008861475126
0.0008861475143
0.0008861474923
0.0008861475066
0.0008861475019
0.0008861475257
0.0008861475478
0.0008861476182
0.0008861476123
0.0008861474112
0.0008861475114
0.0008861475189
0.0008861475064
0.0008861474918
0.0008861474689
0.0008861474329
0.000886147394
0.0008861473577
0.000886147315
0.0008861472697
0.0008861473027
0.0008861473541
0.0008861473896
0.0008861474087
0.0008861474102
0.0008861473879
0.0008861473823
0.0008861474418
0.0008861474787
0.0008861475005
0.000886147511
0.0008861475158
0.0008861475143
0.0008861475158
0.0008861475125
0.0008861475058
0.0008861474894
0.000886147519
0.0008861476093
0.0008861477342
0.0008861474116
0.0008861474867
0.000886147484
0.0008861474715
0.0008861474557
0.00088614743
0.0008861474042
0.0008861473861
0.0008861473713
0.0008861473469
0.000886147305
0.0008861473439
0.0008861473758
0.0008861473772
0.0008861473911
0.0008861473934
0.0008861473825
0.0008861474076
0.0008861474495
0.0008861474629
0.0008861474715
0.0008861474832
0.0008861474841
0.0008861474524
0.0008861474813
0.0008861473696
0.0008861471419
0.0008861474886
0.0008861474797
0.0008861474923
0.0008861475767
0.0008861473946
0.0008861473697
0.00088614737
0.0008861473819
0.0008861474034
0.0008861474229
0.000886147404
0.0008861473937
0.0008861473841
0.000886147367
0.0008861473364
0.0008861473738
0.0008861473906
0.000886147386
0.0008861474043
0.000886147439
0.0008861474628
0.0008861474699
0.0008861474707
0.0008861474696
0.0008861474677
0.0008861474666
0.0008861474654
0.0008861473753
0.0008861474309
0.0008861474238
0.0008861474201
0.0008861475077
0.0008861474792
0.0008861474475
0.0008861475076
0.0008861473844
0.0008861473643
0.0008861473657
0.0008861473726
0.0008861473888
0.0008861474174
0.000886147418
0.0008861473986
0.0008861473904
0.0008861473768
0.000886147356
0.0008861473878
0.0008861473954
0.0008861473901
0.0008861474007
0.0008861474298
0.0008861474542
0.0008861474609
0.0008861474605
0.0008861474586
0.0008861474568
0.0008861474553
0.0008861474482
0.0008861473998
0.0008861474344
0.0008861474349
0.0008861474424
0.0008861474507
0.0008861474429
0.0008861474318
0.0008861474971
0.0008861473811
0.0008861473653
0.0008861473641
0.0008861473653
0.0008861473704
0.0008861473873
0.0008861474234
0.0008861474115
0.0008861473958
0.0008861473839
0.0008861473697
0.0008861473939
0.0008861473958
0.0008861473869
0.0008861473908
0.000886147412
0.0008861474367
0.0008861474472
0.0008861474497
0.0008861474499
0.0008861474497
0.0008861474485
0.0008861474397
0.0008861474221
0.0008861474546
0.0008861474604
0.0008861474413
0.0008861474371
0.0008861474234
0.0008861474103
0.0008861474516
0.0008861473805
0.0008861473738
0.0008861473647
0.0008861473645
0.0008861473669
0.0008861473752
0.0008861474052
0.0008861474308
0.0008861474038
0.0008861473914
0.0008861473805
0.0008861473951
0.0008861473923
0.0008861473855
0.000886147397
0.0008861474113
0.000886147423
0.0008861474323
0.0008861474379
0.0008861474401
0.0008861474411
0.0008861474411
0.0008861474376
0.0008861474368
0.0008861474702
0.0008861474726
0.0008861474307
0.0008861474259
0.0008861474099
0.0008861474074
0.0008861474287
0.000886147381
0.0008861473756
0.0008861473656
0.0008861473645
0.0008861473666
0.0008861473717
0.0008861473901
0.0008861474395
0.0008861474155
0.0008861473993
0.0008861473878
0.0008861473925
0.0008861473858
0.0008861473897
0.0008861474045
0.0008861474146
0.000886147418
0.000886147419
0.0008861474267
0.000886147432
0.000886147435
0.0008861474364
0.0008861474364
0.0008861474381
0.0008861474781
0.0008861474758
0.0008861474216
0.0008861474233
0.0008861474
0.000886147403
0.0008861474029
0.0008861473815
0.0008861473771
0.0008861473668
0.0008861473652
0.0008861473668
0.0008861473713
0.0008861473822
0.000886147427
0.0008861474237
0.0008861474063
0.0008861473908
0.0008861473876
0.0008861473819
0.0008861473874
0.0008861473925
0.0008861474
0.0008861474112
0.0008861474061
0.000886147416
0.0008861474271
0.0008861474338
0.000886147438
0.0008861474413
0.0008861474442
0.0008861474507
0.0008861474433
0.0008861473532
0.0008861474119
0.0008861474142
0.0008861474155
0.0008861474151
0.0008861473816
0.0008861473777
0.0008861473677
0.0008861473663
0.0008861473667
0.0008861473691
0.0008861473759
0.0008861473901
0.0008861474215
0.0008861474109
0.000886147393
0.0008861473896
0.000886147394
0.0008861473956
0.0008861473847
0.000886147386
0.0008861474015
0.0008861473975
0.0008861474098
0.0008861474257
0.0008861474359
0.0008861474422
0.0008861474466
0.0008861474496
0.0008861474505
0.0008861474445
0.0008861474027
0.0008861474151
0.000886147416
0.0008861474152
0.0008861474127
0.0008861473813
0.0008861473778
0.0008861473682
0.000886147368
0.0008861473672
0.0008861473665
0.0008861473701
0.0008861473789
0.0008861473986
0.0008861474119
0.0008861473947
0.0008861473923
0.0008861473951
0.0008861473891
0.0008861473641
0.0008861473735
0.0008861473919
0.0008861473948
0.000886147407
0.0008861474219
0.0008861474343
0.0008861474426
0.0008861474471
0.0008861474479
0.0008861474378
0.0008861474299
0.0008861474156
0.0008861474155
0.0008861474144
0.000886147412
0.0008861473976
0.0008861473806
0.0008861473772
0.0008861473698
0.0008861473695
0.0008861473685
0.0008861473667
0.0008861473682
0.0008861473758
0.0008861473947
0.0008861474084
0.0008861473931
0.0008861473894
0.0008861473849
0.0008861473732
0.0008861473289
0.0008861473637
0.0008861473913
0.0008861474061
0.0008861474173
0.0008861474246
0.0008861474306
0.0008861474368
0.0008861474403
0.0008861474374
0.0008861474266
0.0008861474254
0.0008861474209
0.0008861474192
0.0008861474138
0.0008861474031
0.0008861471039
0.0008861473798
0.0008861473766
0.000886147372
0.0008861473706
0.0008861473693
0.0008861473676
0.0008861473655
0.0008861473696
0.0008861473822
0.0008861473979
0.0008861473862
0.0008861473815
0.0008861473756
0.0008861473647
0.0008861473182
0.000886147349
0.0008861473847
0.0008861474058
0.0008861474178
0.0008861474238
0.0008861474271
0.0008861474292
0.00088614743
0.0008861474267
0.0008861474211
0.0008861474224
0.0008861474232
0.0008861474203
0.0008861474109
0.0008861473759
0.0008861466145
0.0008861473791
0.0008861473751
0.000886147372
0.0008861473709
0.0008861473697
0.0008861473682
0.000886147366
0.000886147365
0.0008861473752
0.0008861473798
0.0008861473828
0.0008861473777
0.0008861473738
0.0008861473632
0.0008861473292
0.0008861473317
0.0008861473672
0.0008861473926
0.0008861474103
0.0008861474186
0.0008861474241
0.0008861474255
0.0008861474249
0.0008861474224
0.0008861474188
0.0008861474195
0.0008861474236
0.0008861474194
0.000886147395
0.0008861473163
0.0008861470425
0.0008861473785
0.0008861473737
0.0008861473718
0.0008861473714
0.0008861473704
0.0008861473689
0.0008861473665
0.0008861473635
0.0008861473712
0.0008861473814
0.0008861473847
0.0008861473794
0.0008861473766
0.0008861473682
0.0008861473463
0.0008861473282
0.0008861473452
0.0008861473701
0.0008861473931
0.0008861474007
0.0008861474159
0.0008861474227
0.0008861474228
0.0008861474212
0.0008861474184
0.0008861474175
0.0008861474223
0.0008861474167
0.0008861473814
0.0008861473556
0.0008861473926
0.0008861473783
0.0008861473734
0.0008861473722
0.0008861473728
0.0008861473719
0.0008861473703
0.0008861473673
0.0008861473619
0.0008861473696
0.0008861473911
0.0008861473875
0.0008861473827
0.0008861473805
0.0008861473744
0.0008861473601
0.0008861473372
0.0008861473293
0.0008861473547
0.000886147365
0.0008861473685
0.000886147389
0.0008861474063
0.0008861474164
0.0008861474189
0.0008861474182
0.0008861474165
0.0008861474172
0.0008861474108
0.0008861473812
0.00088614736
0.0008860951683
0.0008861473785
0.0008861473735
0.0008861473738
0.0008861473755
0.0008861473749
0.0008861473737
0.0008861473713
0.0008861473671
0.0008861473696
0.0008861473861
0.0008861473909
0.0008861473878
0.0008861473849
0.0008861473808
0.0008861473723
0.000886147357
0.0008861473373
0.0008861473595
0.0008861473632
0.0008861473764
0.0008861473868
0.0008861473897
0.000886147393
0.0008861473969
0.0008861474011
0.0008861474041
0.0008861473993
0.0008861474006
0.000886147387
0.0008861473701
0.0008860855651
0.0008861473784
0.000886147374
0.0008861473771
0.0008861473809
0.0008861473823
0.0008861473821
0.0008861473809
0.0008861473787
0.0008861473758
0.0008861473828
0.0008861473879
0.0008861473918
0.0008861473917
0.0008861473894
0.0008861473856
0.0008861473786
0.0008861473691
0.0008861473657
0.0008861473658
0.0008861473853
0.0008861473861
0.0008861473872
0.0008861473889
0.000886147391
0.0008861473937
0.0008861473973
0.000886147394
0.0008861473915
0.0008861473918
0.0008861473799
0.0008860862808
0.0008861473754
0.0008861473756
0.0008861473806
0.0008861473839
0.0008861473849
0.0008861473851
0.000886147385
0.0008861473848
0.0008861473843
0.0008861473844
0.0008861473853
0.000886147385
0.0008861473862
0.0008861473865
0.0008861473858
0.0008861473846
0.0008861473834
0.0008861473835
0.0008861473868
0.0008861473906
0.0008861473915
0.0008861473919
0.0008861473924
0.0008861473932
0.0008861473945
0.000886147396
0.0008861473974
0.0008861473988
0.0008861474003
0.0008861474022
0.0008861474015
)
;

boundaryField
{
    walls
    {
        type            zeroGradient;
    }
    wallFilmFace_top
    {
        type            zeroGradient;
    }
    region0_to_wallFilmRegion_wallFilmFace
    {
        type            zeroGradient;
    }
    mirrorFace_top
    {
        type            zeroGradient;
    }
    region0_to_wallFilmRegion_mirrorFace
    {
        type            zeroGradient;
    }
    procBoundary1to0
    {
        type            processor;
        value           nonuniform List<scalar> 
52
(
0.0008861473819
0.0008861473728
0.0008861473903
0.0008861473971
0.0008861473988
0.0008861473997
0.0008861473996
0.0008861473601
0.0008861473601
0.0008861473551
0.0008861473611
0.0008861473703
0.0008861473806
0.0008861473806
0.0008861473831
0.0008861473846
0.0008861473846
0.0008861473901
0.0008861473965
0.0008861473992
0.0008861473843
0.0008861473843
0.0008861029405
0.0008861381206
0.0008861381206
0.0008861473186
0.0008861474072
0.0008861474497
0.0008861474598
0.0008861474598
0.0008861474622
0.000886147457
0.000886147457
0.0008861474625
0.000886147505
0.000886147505
0.000886147459
0.0008861474887
0.0008861474762
0.0008861474762
0.0008861474643
0.0008861474643
0.0008861474971
0.0008861475198
0.0008861475374
0.0008861475374
0.00088614754
0.0008861475366
0.0008861475349
0.0008861475457
0.0008861474991
0.0008861475265
)
;
    }
    procBoundary1to2
    {
        type            processor;
        value           nonuniform List<scalar> 
33
(
0.0008861474935
0.0008861474825
0.0008861474825
0.0008861474887
0.0008861474887
0.0008861474367
0.0008861474234
0.0008861474264
0.0008861474264
0.0008861474237
0.0008861474514
0.0008861474706
0.0008861474837
0.0008861474751
0.000886147448
0.0008861476138
0.0008861475086
0.0008861474907
0.0008861474908
0.00088614749
0.0008861474159
0.0008861474017
0.0008861474299
0.0008861474295
0.0008861474172
0.0008861473864
0.0008861473734
0.0008861473716
0.0008861473609
0.0008861402432
0.0008861414526
0.0008861382605
0.0008861473996
)
;
    }
}


// ************************************************************************* //
