/*--------------------------------*- C++ -*----------------------------------*\
  =========                 |
  \\      /  F ield         | OpenFOAM: The Open Source CFD Toolbox
   \\    /   O peration     | Website:  https://openfoam.org
    \\  /    A nd           | Version:  8
     \\/     M anipulation  |
\*---------------------------------------------------------------------------*/
FoamFile
{
    version     2.0;
    format      ascii;
    class       volScalarField;
    location    "1.7/wallFilmRegion";
    object      sigma;
}
// * * * * * * * * * * * * * * * * * * * * * * * * * * * * * * * * * * * * * //

dimensions      [1 0 -2 0 0 0 0];

internalField   nonuniform List<scalar> 
1369
(
0.07244713453
0.07244713448
0.0724471346
0.07244713464
0.07244713463
0.07244713456
0.07244713442
0.07244713453
0.07244713452
0.07244713463
0.07244713466
0.07244713463
0.07244713454
0.07244713434
0.07244713429
0.07244713428
0.07244713438
0.07244713447
0.07244713453
0.07244713458
0.07244713467
0.07244713469
0.07244713466
0.07244713456
0.07244713441
0.07244713443
0.07244713442
0.07244713448
0.07244713452
0.07244713454
0.07244713454
0.07244713454
0.07244713463
0.0724471347
0.07244713471
0.07244713468
0.07244713461
0.07244713453
0.07244713455
0.07244713453
0.07244713456
0.07244713456
0.07244713454
0.07244713452
0.07244713454
0.0724471346
0.07244713468
0.07244713475
0.07244713454
0.07244713465
0.07244713471
0.07244713471
0.07244713469
0.07244713463
0.07244713462
0.07244713463
0.0724471346
0.07244713461
0.0724471346
0.07244713455
0.07244713452
0.07244713455
0.07244713462
0.07244713469
0.07244713476
0.07244713452
0.07244696521
0.07244713453
0.07244713465
0.0724471347
0.07244713471
0.07244713469
0.07244713464
0.07244713464
0.07244713467
0.07244713465
0.07244713466
0.07244713463
0.07244713459
0.07244713456
0.07244713458
0.07244713462
0.07244713464
0.07244713463
0.07244713448
0.07244710109
0.07244711764
0.07244713436
0.07244713521
0.07244713539
0.0724471345
0.07244713464
0.0724471347
0.0724471347
0.07244713467
0.07244713464
0.07244713466
0.07244713468
0.07244713469
0.07244713469
0.07244713468
0.07244713465
0.07244713462
0.07244713463
0.07244713464
0.07244713464
0.07244713462
0.07244713451
0.07244713352
0.07244713465
0.07244713496
0.07244713534
0.07244713549
0.07244713541
0.07244713534
0.07244713448
0.07244713467
0.07244713472
0.0724471347
0.07244713468
0.07244713466
0.07244713467
0.07244713469
0.07244713472
0.07244713474
0.07244713475
0.07244713472
0.07244713467
0.07244713466
0.07244713466
0.07244713465
0.07244713466
0.07244713464
0.07244713432
0.07244713474
0.07244713537
0.07244713541
0.07244713544
0.07244713538
0.07244713532
0.07244713532
0.07244713446
0.07244713465
0.07244713473
0.07244713472
0.07244713469
0.07244713467
0.07244713468
0.07244713472
0.07244713477
0.07244713479
0.0724471348
0.07244713477
0.07244713471
0.07244713468
0.07244713467
0.0724471347
0.07244713483
0.07244713493
0.07244713419
0.07244713479
0.07244713535
0.07244713548
0.07244713549
0.07244713542
0.07244713536
0.07244713541
0.07244713444
0.07244713433
0.0724471346
0.0724471346
0.0724471346
0.07244713465
0.07244713471
0.07244713476
0.07244713479
0.07244713482
0.07244713482
0.07244713479
0.07244713473
0.07244713469
0.07244713473
0.07244713496
0.07244713516
0.07244713523
0.07244713477
0.07244713487
0.07244713509
0.07244713549
0.07244713568
0.07244713555
0.07244713547
0.07244713553
0.07244713566
0.07244713444
0.07244713432
0.07244713458
0.07244713461
0.07244713462
0.07244713468
0.07244713473
0.07244713477
0.07244713479
0.07244713482
0.07244713482
0.07244713479
0.07244713472
0.07244713469
0.07244713467
0.07244713471
0.07244713482
0.07244713496
0.07244713483
0.07244713493
0.07244713529
0.07244713588
0.07244713591
0.07244713573
0.07244713562
0.0724471356
0.07244713556
0.07244713445
0.07244713422
0.07244713451
0.0724471346
0.07244713464
0.0724471347
0.07244713475
0.07244713477
0.07244713479
0.0724471348
0.07244713481
0.07244713477
0.07244713468
0.07244713468
0.0724471347
0.07244713472
0.07244713475
0.07244713479
0.07244713486
0.07244713492
0.072447135
0.07244713507
0.07244713521
0.07244713555
0.07244713524
0.07244713523
0.07244713539
0.07244713446
0.07244713399
0.07244713438
0.07244713461
0.07244713469
0.07244713474
0.07244713476
0.07244713478
0.07244713479
0.07244713479
0.0724471348
0.07244713475
0.07244713469
0.07244713468
0.07244713469
0.07244713472
0.07244713475
0.07244713477
0.07244713374
0.07244713498
0.07244713505
0.07244713508
0.07244713511
0.07244713525
0.07244713543
0.07244713515
0.07244713562
0.0724471354
0.07244713444
0.07244713433
0.07244713456
0.07244713469
0.07244713474
0.07244713476
0.07244713478
0.07244713479
0.07244713478
0.07244713477
0.07244713479
0.07244713476
0.07244713478
0.07244713479
0.07244713481
0.07244713471
0.07244713474
0.07244713476
0.07244713399
0.07244713503
0.07244713514
0.07244713515
0.07244713522
0.0724471354
0.07244713548
0.07244713551
0.07244713566
0.07244713577
0.07244713574
0.07244713441
0.07244713386
0.07244713396
0.07244713424
0.07244713446
0.07244713462
0.07244713471
0.07244713476
0.07244713477
0.07244713476
0.07244713479
0.07244713481
0.07244713486
0.07244713485
0.07244713465
0.07244713451
0.07244713468
0.07244713475
0.07244713443
0.0724471351
0.0724471354
0.07244713528
0.07244713547
0.07244713581
0.07244713591
0.07244713564
0.07244713574
0.07244713578
0.07244713595
0.0724471344
0.07244713398
0.07244713398
0.07244713413
0.0724471343
0.07244713448
0.07244713464
0.07244713473
0.07244713475
0.07244713474
0.07244713476
0.07244713473
0.07244713414
0.07244713383
0.0724471332
0.07244713359
0.07244713445
0.07244713468
0.07244713476
0.07244713514
0.0724471357
0.07244713542
0.07244713565
0.07244713578
0.07244713613
0.07244713596
0.07244713581
0.0724471359
0.07244713614
0.07244713441
0.07244713398
0.07244713397
0.07244713417
0.07244713431
0.07244713442
0.07244713456
0.07244713469
0.07244713472
0.07244713471
0.07244713474
0.0724471347
0.0724471343
0.07244713409
0.07244713305
0.07244713271
0.07244713376
0.07244713454
0.07244713497
0.07244713519
0.07244713575
0.0724471355
0.07244713566
0.07244713594
0.0724471361
0.07244713601
0.07244713582
0.07244713592
0.07244713619
0.07244713612
0.07244713615
0.07244713616
0.07244713625
0.07244713621
0.07244713443
0.07244713401
0.07244713403
0.07244713437
0.07244713447
0.07244713448
0.0724471345
0.07244713463
0.07244713466
0.07244713464
0.0724471347
0.07244713467
0.0724471343
0.0724471345
0.0724471346
0.07244713462
0.0724471344
0.07244713469
0.07244713503
0.07244713518
0.07244713529
0.07244713556
0.07244713579
0.07244713591
0.07244713593
0.07244713599
0.07244713581
0.07244713591
0.07244713616
0.07244713608
0.07244713615
0.07244713588
0.07244713635
0.07244713629
0.07244713446
0.07244713417
0.07244713421
0.07244713453
0.07244713458
0.07244713454
0.07244713443
0.07244713449
0.07244713454
0.0724471345
0.07244713461
0.0724471346
0.07244713358
0.07244713411
0.0724471345
0.07244713469
0.07244713477
0.07244713495
0.07244713511
0.07244713519
0.07244713528
0.07244713541
0.07244713565
0.0724471357
0.07244713576
0.07244713587
0.07244713581
0.07244713591
0.07244713607
0.072447136
0.0724471362
0.07244713612
0.07244713583
0.07244713595
0.0724471345
0.07244713426
0.07244713441
0.07244713462
0.07244713464
0.07244713461
0.07244713446
0.07244713425
0.07244713434
0.07244713434
0.07244713444
0.07244713444
0.07244713359
0.07244713403
0.07244713451
0.0724471348
0.07244713492
0.072447135
0.0724471351
0.07244713518
0.07244713522
0.07244713527
0.07244713534
0.07244713544
0.07244713564
0.0724471358
0.07244713585
0.07244713595
0.07244713597
0.07244713584
0.07244713596
0.07244713573
0.07244713568
0.07244713452
0.07244713432
0.07244713457
0.07244713467
0.07244713469
0.07244713467
0.07244713461
0.07244713454
0.07244713461
0.07244713462
0.07244713454
0.07244713437
0.07244713386
0.07244713405
0.07244713465
0.07244713491
0.072447135
0.07244713506
0.07244713512
0.07244713522
0.07244713517
0.07244713513
0.07244713509
0.07244713519
0.07244713544
0.07244713561
0.07244713586
0.07244713592
0.07244713587
0.07244713576
0.07244713564
0.07244713556
0.07244713455
0.07244713452
0.07244713467
0.07244713471
0.07244713471
0.0724471347
0.07244713468
0.07244713467
0.07244713471
0.07244713471
0.07244713467
0.07244713454
0.07244713385
0.07244713317
0.07244713413
0.07244713475
0.07244713501
0.0724471351
0.07244713518
0.07244713527
0.07244713523
0.07244713517
0.07244713511
0.07244713511
0.07244713527
0.07244713562
0.0724471358
0.07244713566
0.07244713571
0.07244713558
0.07244713527
0.07244713524
0.07244713458
0.07244713472
0.07244713475
0.07244713475
0.07244713476
0.07244713474
0.07244713471
0.07244713471
0.07244713474
0.07244713471
0.07244713468
0.07244713467
0.07244713463
0.07244713448
0.0724471341
0.07244713362
0.07244713398
0.07244713484
0.07244713526
0.07244713532
0.07244713528
0.07244713521
0.07244713513
0.07244713519
0.07244713528
0.07244713549
0.07244713553
0.07244713558
0.07244713566
0.07244713545
0.07244713515
0.07244713502
0.07244713454
0.07244713459
0.07244713471
0.07244713473
0.07244713473
0.07244713469
0.07244713451
0.07244713294
0.07244713252
0.07244713167
0.07244713135
0.07244713133
0.07244713149
0.07244713165
0.07244713175
0.07244713221
0.07244713345
0.07244713455
0.07244713527
0.07244713537
0.07244713537
0.07244713533
0.07244713529
0.07244713528
0.07244713533
0.07244713541
0.07244713545
0.07244713554
0.07244713559
0.07244713539
0.07244713514
0.07244713452
0.07244713457
0.0724471347
0.07244713471
0.07244713471
0.07244713468
0.07244713451
0.0724471274
0.07244712483
0.07244712132
0.07244711808
0.07244711772
0.07244712149
0.07244712585
0.07244712895
0.07244713148
0.07244713375
0.07244713485
0.07244713529
0.07244713541
0.07244713545
0.07244713545
0.07244713541
0.07244713538
0.07244713536
0.07244713543
0.07244713546
0.07244713551
0.07244713551
0.07244713532
0.0724471351
0.07244713458
0.07244713471
0.07244713468
0.07244713469
0.07244713469
0.07244713465
0.07244713447
0.07244713189
0.07244713074
0.07244712884
0.07244712375
0.07244711171
0.07244706827
0.07244665294
0.07244712347
0.07244713043
0.07244713332
0.0724471347
0.07244713527
0.07244713544
0.07244713547
0.07244713549
0.0724471355
0.0724471355
0.07244713552
0.07244713556
0.07244713558
0.07244713557
0.0724471355
0.07244713524
0.07244713503
0.07244713463
0.07244713474
0.07244713463
0.07244713464
0.07244713465
0.0724471346
0.07244713443
0.07244713432
0.0724471343
0.0724471338
0.07244712833
0.07244712191
0.0724471104
0.07244711928
0.07244712061
0.07244711783
0.07244712567
0.07244713029
0.07244713301
0.07244713454
0.07244713537
0.07244713529
0.07244713541
0.07244713552
0.07244713553
0.07244713556
0.07244713583
0.07244713579
0.07244713574
0.0724471356
0.07244713556
0.0724471347
0.07244713484
0.07244713464
0.07244713462
0.07244713463
0.07244713464
0.07244713468
0.07244713471
0.07244713461
0.07244713429
0.07244713009
0.07244712578
0.07244712101
0.0724471229
0.07244711869
0.07244711653
0.07244712205
0.07244712593
0.07244712874
0.07244713111
0.0724471342
0.07244713508
0.07244713571
0.07244713573
0.07244713554
0.07244713572
0.07244713631
0.072447136
0.07244713611
0.07244713601
0.0724471363
0.07244713479
0.07244713526
0.07244713511
0.07244713494
0.07244713489
0.0724471349
0.07244713492
0.0724471348
0.0724471346
0.07244713413
0.07244713091
0.07244712772
0.07244712464
0.07244712387
0.07244711976
0.07244712161
0.07244712613
0.07244713
0.07244713278
0.07244713467
0.0724471355
0.07244713574
0.07244713582
0.07244713583
0.0724471357
0.07244713595
0.07244713597
0.07244713603
0.0724471367
0.0724471365
0.07244713677
0.07244713484
0.0724471357
0.07244713571
0.07244713555
0.07244713542
0.0724471353
0.07244713507
0.07244713479
0.07244713449
0.07244713398
0.07244713272
0.07244713302
0.07244713379
0.07244713435
0.0724471347
0.0724471348
0.07244713446
0.07244713179
0.07244713362
0.07244713509
0.07244713565
0.07244713579
0.07244713589
0.0724471359
0.07244713567
0.07244713582
0.07244713577
0.07244713602
0.07244713625
0.07244713698
0.07244713692
0.07244713483
0.07244713587
0.07244713595
0.07244713582
0.07244713567
0.07244713543
0.07244713506
0.07244713465
0.07244713428
0.07244713383
0.07244713336
0.07244713371
0.07244713424
0.07244713461
0.07244713481
0.07244713482
0.07244713459
0.07244713453
0.07244713515
0.07244713553
0.07244713576
0.07244713587
0.07244713592
0.0724471359
0.07244713592
0.07244713588
0.07244713581
0.07244713564
0.07244713595
0.07244713689
0.07244713819
0.07244713484
0.07244713562
0.07244713559
0.07244713546
0.07244713529
0.07244713503
0.07244713476
0.07244713457
0.07244713442
0.07244713416
0.07244713373
0.07244713413
0.07244713446
0.07244713448
0.07244713462
0.07244713465
0.07244713453
0.0724471348
0.07244713523
0.07244713537
0.07244713546
0.07244713558
0.07244713559
0.07244713526
0.07244713556
0.0724471344
0.07244713204
0.07244713564
0.07244713554
0.07244713567
0.07244713655
0.07244713466
0.0724471344
0.0724471344
0.07244713453
0.07244713475
0.07244713495
0.07244713476
0.07244713465
0.07244713455
0.07244713437
0.07244713406
0.07244713444
0.07244713462
0.07244713457
0.07244713476
0.07244713512
0.07244713537
0.07244713544
0.07244713545
0.07244713544
0.07244713542
0.07244713541
0.07244713539
0.07244713446
0.07244713504
0.07244713496
0.07244713492
0.07244713583
0.07244713554
0.07244713521
0.07244713583
0.07244713455
0.07244713435
0.07244713436
0.07244713443
0.0724471346
0.0724471349
0.0724471349
0.0724471347
0.07244713462
0.07244713448
0.07244713426
0.07244713459
0.07244713467
0.07244713461
0.07244713472
0.07244713503
0.07244713528
0.07244713535
0.07244713534
0.07244713532
0.07244713531
0.07244713529
0.07244713522
0.07244713471
0.07244713507
0.07244713508
0.07244713516
0.07244713524
0.07244713516
0.07244713505
0.07244713572
0.07244713452
0.07244713436
0.07244713434
0.07244713436
0.07244713441
0.07244713458
0.07244713496
0.07244713484
0.07244713467
0.07244713455
0.0724471344
0.07244713465
0.07244713467
0.07244713458
0.07244713462
0.07244713484
0.0724471351
0.07244713521
0.07244713523
0.07244713523
0.07244713523
0.07244713522
0.07244713513
0.07244713495
0.07244713528
0.07244713534
0.07244713515
0.0724471351
0.07244713496
0.07244713482
0.07244713525
0.07244713451
0.07244713444
0.07244713435
0.07244713435
0.07244713437
0.07244713446
0.07244713477
0.07244713504
0.07244713476
0.07244713463
0.07244713451
0.07244713467
0.07244713464
0.07244713457
0.07244713469
0.07244713483
0.07244713496
0.07244713505
0.07244713511
0.07244713513
0.07244713514
0.07244713514
0.07244713511
0.0724471351
0.07244713545
0.07244713547
0.07244713503
0.07244713498
0.07244713482
0.07244713479
0.07244713501
0.07244713452
0.07244713446
0.07244713436
0.07244713435
0.07244713437
0.07244713442
0.07244713461
0.07244713513
0.07244713488
0.07244713471
0.07244713459
0.07244713464
0.07244713457
0.07244713461
0.07244713476
0.07244713487
0.0724471349
0.07244713491
0.07244713499
0.07244713505
0.07244713508
0.07244713509
0.07244713509
0.07244713511
0.07244713553
0.0724471355
0.07244713494
0.07244713496
0.07244713472
0.07244713475
0.07244713475
0.07244713452
0.07244713448
0.07244713437
0.07244713435
0.07244713437
0.07244713442
0.07244713453
0.072447135
0.07244713496
0.07244713478
0.07244713462
0.07244713459
0.07244713453
0.07244713459
0.07244713464
0.07244713472
0.07244713483
0.07244713478
0.07244713488
0.072447135
0.07244713507
0.07244713511
0.07244713514
0.07244713518
0.07244713524
0.07244713517
0.07244713423
0.07244713484
0.07244713486
0.07244713488
0.07244713487
0.07244713453
0.07244713448
0.07244713438
0.07244713437
0.07244713437
0.0724471344
0.07244713447
0.07244713461
0.07244713494
0.07244713483
0.07244713464
0.07244713461
0.07244713465
0.07244713467
0.07244713456
0.07244713457
0.07244713473
0.07244713469
0.07244713482
0.07244713498
0.07244713509
0.07244713515
0.0724471352
0.07244713523
0.07244713524
0.07244713518
0.07244713474
0.07244713487
0.07244713488
0.07244713487
0.07244713485
0.07244713452
0.07244713449
0.07244713439
0.07244713438
0.07244713438
0.07244713437
0.07244713441
0.0724471345
0.0724471347
0.07244713484
0.07244713466
0.07244713464
0.07244713467
0.0724471346
0.07244713434
0.07244713444
0.07244713463
0.07244713466
0.07244713479
0.07244713494
0.07244713507
0.07244713516
0.07244713521
0.07244713521
0.07244713511
0.07244713503
0.07244713488
0.07244713488
0.07244713487
0.07244713484
0.07244713469
0.07244713452
0.07244713448
0.0724471344
0.0724471344
0.07244713439
0.07244713437
0.07244713439
0.07244713446
0.07244713466
0.0724471348
0.07244713464
0.07244713461
0.07244713456
0.07244713444
0.07244713398
0.07244713434
0.07244713463
0.07244713478
0.0724471349
0.07244713497
0.07244713503
0.0724471351
0.07244713514
0.0724471351
0.07244713499
0.07244713498
0.07244713493
0.07244713492
0.07244713486
0.07244713475
0.07244713164
0.07244713451
0.07244713447
0.07244713443
0.07244713441
0.0724471344
0.07244713438
0.07244713436
0.0724471344
0.07244713453
0.07244713469
0.07244713457
0.07244713452
0.07244713446
0.07244713435
0.07244713387
0.07244713419
0.07244713456
0.07244713478
0.0724471349
0.07244713496
0.072447135
0.07244713502
0.07244713503
0.07244713499
0.07244713494
0.07244713495
0.07244713496
0.07244713493
0.07244713483
0.07244713447
0.07244712656
0.0724471345
0.07244713446
0.07244713443
0.07244713441
0.0724471344
0.07244713439
0.07244713436
0.07244713435
0.07244713446
0.07244713451
0.07244713454
0.07244713448
0.07244713444
0.07244713433
0.07244713398
0.07244713401
0.07244713438
0.07244713464
0.07244713482
0.07244713491
0.07244713497
0.07244713498
0.07244713498
0.07244713495
0.07244713491
0.07244713492
0.07244713496
0.07244713492
0.07244713466
0.07244713385
0.072447131
0.07244713449
0.07244713444
0.07244713442
0.07244713442
0.07244713441
0.07244713439
0.07244713437
0.07244713434
0.07244713442
0.07244713452
0.07244713456
0.0724471345
0.07244713447
0.07244713439
0.07244713416
0.07244713397
0.07244713415
0.07244713441
0.07244713464
0.07244713472
0.07244713488
0.07244713495
0.07244713495
0.07244713494
0.07244713491
0.0724471349
0.07244713495
0.07244713489
0.07244713452
0.07244713426
0.07244713464
0.07244713449
0.07244713444
0.07244713443
0.07244713443
0.07244713442
0.07244713441
0.07244713438
0.07244713432
0.0724471344
0.07244713462
0.07244713459
0.07244713454
0.07244713451
0.07244713445
0.0724471343
0.07244713406
0.07244713398
0.07244713425
0.07244713435
0.07244713439
0.0724471346
0.07244713478
0.07244713489
0.07244713491
0.07244713491
0.07244713489
0.07244713489
0.07244713483
0.07244713452
0.0724471343
0.07244659234
0.07244713449
0.07244713444
0.07244713444
0.07244713446
0.07244713446
0.07244713444
0.07244713442
0.07244713437
0.0724471344
0.07244713457
0.07244713462
0.07244713459
0.07244713456
0.07244713452
0.07244713443
0.07244713427
0.07244713407
0.0724471343
0.07244713433
0.07244713447
0.07244713458
0.07244713461
0.07244713464
0.07244713468
0.07244713473
0.07244713476
0.07244713471
0.07244713472
0.07244713458
0.07244713441
0.07244649262
0.07244713449
0.07244713445
0.07244713448
0.07244713452
0.07244713453
0.07244713453
0.07244713452
0.0724471345
0.07244713446
0.07244713454
0.07244713459
0.07244713463
0.07244713463
0.07244713461
0.07244713457
0.07244713449
0.0724471344
0.07244713436
0.07244713436
0.07244713456
0.07244713457
0.07244713458
0.0724471346
0.07244713462
0.07244713465
0.07244713469
0.07244713465
0.07244713463
0.07244713463
0.07244713451
0.07244650005
0.07244713446
0.07244713446
0.07244713451
0.07244713455
0.07244713456
0.07244713456
0.07244713456
0.07244713456
0.07244713455
0.07244713455
0.07244713456
0.07244713456
0.07244713457
0.07244713458
0.07244713457
0.07244713456
0.07244713454
0.07244713454
0.07244713458
0.07244713462
0.07244713463
0.07244713463
0.07244713464
0.07244713465
0.07244713466
0.07244713467
0.07244713469
0.0724471347
0.07244713472
0.07244713474
0.07244713473
)
;

boundaryField
{
    walls
    {
        type            zeroGradient;
    }
    wallFilmFace_top
    {
        type            zeroGradient;
    }
    region0_to_wallFilmRegion_wallFilmFace
    {
        type            zeroGradient;
    }
    mirrorFace_top
    {
        type            zeroGradient;
    }
    region0_to_wallFilmRegion_mirrorFace
    {
        type            zeroGradient;
    }
    procBoundary1to0
    {
        type            processor;
        value           nonuniform List<scalar> 
52
(
0.07244713453
0.07244713443
0.07244713462
0.07244713469
0.0724471347
0.07244713471
0.07244713471
0.0724471343
0.0724471343
0.07244713425
0.07244713431
0.07244713441
0.07244713452
0.07244713452
0.07244713454
0.07244713456
0.07244713456
0.07244713461
0.07244713468
0.07244713471
0.07244713455
0.07244713455
0.07244667305
0.07244703836
0.07244703836
0.07244713387
0.07244713479
0.07244713523
0.07244713534
0.07244713534
0.07244713536
0.07244713531
0.07244713531
0.07244713537
0.07244713581
0.07244713581
0.07244713533
0.07244713564
0.07244713551
0.07244713551
0.07244713538
0.07244713538
0.07244713572
0.07244713596
0.07244713614
0.07244713614
0.07244713617
0.07244713613
0.07244713612
0.07244713623
0.07244713575
0.07244713603
)
;
    }
    procBoundary1to2
    {
        type            processor;
        value           nonuniform List<scalar> 
33
(
0.07244713569
0.07244713557
0.07244713557
0.07244713564
0.07244713564
0.0724471351
0.07244713496
0.07244713499
0.07244713499
0.07244713496
0.07244713525
0.07244713545
0.07244713558
0.0724471355
0.07244713521
0.07244713694
0.07244713584
0.07244713566
0.07244713566
0.07244713565
0.07244713488
0.07244713473
0.07244713503
0.07244713502
0.0724471349
0.07244713457
0.07244713444
0.07244713442
0.07244713431
0.0724470604
0.07244707296
0.07244703981
0.07244713471
)
;
    }
}


// ************************************************************************* //
