/*--------------------------------*- C++ -*----------------------------------*\
  =========                 |
  \\      /  F ield         | OpenFOAM: The Open Source CFD Toolbox
   \\    /   O peration     | Website:  https://openfoam.org
    \\  /    A nd           | Version:  8
     \\/     M anipulation  |
\*---------------------------------------------------------------------------*/
FoamFile
{
    version     2.0;
    format      ascii;
    class       volScalarField;
    location    "0.6";
    object      htcConv;
}
// * * * * * * * * * * * * * * * * * * * * * * * * * * * * * * * * * * * * * //

dimensions      [1 0 -1 1 0 0 0];

internalField   uniform 0;

boundaryField
{
    walls
    {
        type            calculated;
        value           uniform 0;
    }
    region0_to_wallFilmRegion_wallFilmFace
    {
        type            convectiveHeatTransfer;
        L               1;
        value           nonuniform List<scalar> 
983
(
2.299964271
2.429110641
2.76114529
2.820540557
3.043304474
3.203983764
3.530519438
3.8667696
3.952611543
3.811545946
3.550125686
3.314776868
3.166031609
3.05758092
2.925854497
2.746539012
2.55336198
2.411614351
2.34090253
2.310508345
2.297784431
2.305895421
2.328841672
2.33422102
2.261971147
2.082885535
1.805146287
1.464656545
1.108920853
0.7972370685
2.341786314
2.471080827
2.669607085
2.779335821
3.161628399
3.584171346
3.649483255
3.833563377
3.814679348
3.627608653
3.404217986
3.216046871
3.095680326
2.98843121
2.83366252
2.630234736
2.448907236
2.352284917
2.31582089
2.29421287
2.285541053
2.311253121
2.347293412
2.339619788
2.246907389
2.041578317
1.756326561
1.436921792
1.119718292
0.8519870586
2.478461324
2.584436208
2.678556979
2.833644265
3.17796129
3.702980193
3.7245435
3.827540405
3.752014795
3.510253887
3.289960853
3.157769693
3.0845799
2.991126857
2.833665553
2.630516827
2.462923312
2.38846434
2.367488022
2.359460719
2.393317959
2.493548875
2.582658516
2.585136438
2.467617593
2.213878974
1.88313188
1.536296238
1.207105662
0.957082487
2.526782902
2.531023655
2.439716664
2.303355264
2.536028952
3.295561016
3.385521031
3.40905781
3.25433794
3.017131386
2.9479693
2.986250801
2.996288377
2.921123032
2.777388626
2.609904562
2.462268948
2.389882194
2.372156083
2.388239353
2.505478797
2.704979842
2.842706865
2.856591347
2.734285672
2.461598503
2.072638689
1.66804016
1.316203894
1.091669716
2.614202687
2.598445281
2.484342234
2.287546852
2.253310278
2.608191202
3.051408693
3.17797458
2.962421155
2.694816202
2.758283085
2.852268209
2.863053602
2.782532562
2.657057742
2.577659079
2.473579401
2.40539824
2.392611339
2.444535138
2.66308985
2.942155322
3.102661003
3.119770989
3.001097629
2.740182687
2.337343956
1.888097756
1.494832344
1.269061727
2.570749714
2.549853862
2.42672067
2.264305749
2.265406095
2.573391212
2.975937961
3.005391035
2.548789155
2.204490569
2.504360046
2.629637137
2.632145071
2.482510945
2.47982398
2.596620113
2.561754729
2.487273527
2.460695868
2.524551236
2.836124982
3.16390805
3.322148747
3.334464698
3.223020576
2.987420015
2.61456884
2.157910026
1.723531251
1.472743881
2.42095535
2.419954326
2.360531959
2.274664821
2.325343705
2.630761977
2.851592367
2.810592799
2.008330375
1.979200499
2.373651337
2.425583289
2.341267239
2.04989781
2.619983076
2.866653719
2.842223313
2.737960998
2.654404495
2.671745669
3.063185516
3.369515741
3.496751228
3.505339658
3.402066609
3.189974136
2.862773029
2.433133424
1.977371745
1.691754888
1.970202697
2.230896816
2.325670858
2.34101609
2.437210555
2.664272145
2.776049683
2.747221468
2.334411181
2.110424256
2.233591523
2.168065516
2.01563498
2.072806529
3.086882702
3.365167012
3.194301553
3.025570921
2.904705747
2.894048673
3.277489184
3.517756883
3.611997282
3.613622473
3.5339369
3.34658551
3.054473933
2.662129907
2.205144719
1.901383359
1.883729713
1.966424921
2.22955044
2.405273429
2.541591689
2.693646717
2.732813992
2.703002385
2.507349532
2.360795738
2.184900656
1.907989593
2.230064217
2.450643859
3.449419943
3.719589398
3.534529521
3.154323504
3.003342524
3.020591487
3.378069711
3.565968778
3.654650778
3.669194509
3.602913217
3.4531654
3.179802209
2.82085381
2.374761712
2.071107401
2.23335321
1.972744929
2.251810801
2.524055484
2.634329175
2.725524112
2.702797881
2.555257853
2.372600786
2.208553143
2.023647547
2.014085728
2.350526251
2.982951818
3.598157601
3.75692509
3.66809192
3.100279751
2.820795962
2.956939677
3.354679435
3.512923456
3.619002857
3.662785973
3.61958411
3.488787941
3.230597963
2.887872533
2.46629778
2.187978934
2.497148742
2.342808299
2.468064965
2.65066401
2.697900313
2.659085511
2.44351441
2.181849335
2.051969058
1.971356395
1.871794119
2.093864572
2.450204937
3.024779877
3.651202689
3.752205247
3.581405639
2.690870391
2.295659454
2.752672426
3.231757918
3.401431144
3.540332096
3.606765798
3.579006061
3.445938027
3.185567968
2.856913281
2.482817633
2.253356512
2.646569919
2.590109913
2.607300712
2.697081839
2.659771123
2.333872784
2.050963224
2.036679967
1.977046131
1.857709912
2.012802416
2.181165259
2.193818734
2.483655269
3.065206208
2.823254973
2.411339529
1.578738754
1.903630423
2.570055307
3.106229065
3.334771879
3.475243757
3.514791721
3.437920633
3.261534015
3.000469066
2.740011472
2.449575837
2.294140292
2.702728934
2.712282059
2.676607497
2.664961184
2.539797785
1.782751944
1.703299621
1.79718996
1.934174499
2.131881335
2.274165917
2.266103246
2.191855936
2.031352653
1.887654192
2.129314859
2.303739972
2.142961443
1.409846259
2.319791743
2.788249004
3.084237687
3.188408992
3.138836444
3.010955543
2.878048037
2.773434194
2.649260133
2.443351059
2.329081527
2.584336623
2.678677886
2.639647233
2.612915935
2.418515276
0.9802143098
1.533894237
1.548425256
1.998027313
2.246919905
2.311513915
2.273217193
2.15375718
1.904506649
1.718210464
2.224094211
2.329406073
2.158217349
2.067223483
2.026449499
2.372098845
2.767422993
2.9399243
2.99154965
2.99867677
2.943916912
2.829791651
2.689883784
2.479522831
2.347634466
2.295209665
2.628131896
2.52407422
2.531411475
2.223040581
1.274317962
1.380115558
1.297003285
2.007758957
2.278979497
2.300722774
2.218112244
2.078786294
2.04510548
2.001152439
2.230144383
2.355844395
2.335362283
2.324994243
2.410737538
2.438277607
2.580648692
2.773916512
2.884295117
2.905991051
2.864939408
2.778354497
2.668349498
2.477996311
2.345403329
2.69855503
2.571911285
2.417986168
2.412254694
1.996058889
1.55213492
1.075128142
1.361303373
2.082017338
2.26904661
2.234267719
2.113501213
1.986564321
1.966545208
2.094156546
2.271710625
2.348302137
2.352097406
2.478490661
2.588083214
2.623409779
2.685769236
2.776590696
2.842895969
2.860022458
2.831138165
2.760307941
2.66357157
2.478740417
2.341621923
2.6975592
2.500721485
2.324161131
2.262479158
1.93704051
1.633936071
1.445139344
1.783161561
2.128930823
2.243707854
2.176519002
2.030708931
1.848610783
1.849060385
2.011040105
2.214066138
2.23232392
2.314028222
2.571279402
2.728325071
2.769285277
2.777760667
2.800799871
2.826733214
2.831060937
2.80454487
2.740052001
2.650086429
2.467242907
2.330016635
2.619765317
2.419758086
2.251323149
2.131009341
1.875044639
1.792257686
1.90560412
2.13771356
2.306818466
2.333455375
2.235112698
2.008504401
1.671201345
1.494088498
1.845865746
2.128086265
2.062346643
2.293995288
2.563793048
2.68350321
2.719700822
2.726177539
2.737419124
2.755686337
2.764523715
2.751834667
2.698902009
2.616855456
2.438994635
2.311704158
2.556755228
2.308144445
2.138546405
2.014475812
1.824181348
1.935179376
2.147280187
2.313019654
2.401322279
2.37827482
2.256020782
1.978458951
1.383849332
1.113028313
1.966823751
2.152919832
2.10723966
2.24197663
2.433887819
2.531169697
2.574823498
2.593321666
2.617060584
2.649628959
2.67449262
2.684720163
2.63796244
2.561746168
2.388898606
2.281207493
2.460088726
2.162202882
1.978019679
1.873330465
1.782968365
2.026540381
2.223682422
2.334742854
2.39432583
2.402269051
2.354748145
2.223807916
1.870449564
2.097603099
2.671790926
2.188809707
2.087631773
2.059430986
2.222962062
2.321264819
2.375445145
2.407617767
2.454502071
2.515224771
2.56098097
2.605172283
2.5642612
2.500222665
2.397195431
2.343739864
2.177900207
1.8668191
1.715220972
1.652861648
1.668549538
1.98670403
2.17428509
2.25620126
2.304756369
2.35174056
2.364122311
2.293276257
2.267069114
3.04444702
3.104545203
2.379515669
1.732349955
1.459371076
1.869204348
2.059945341
2.139206944
2.171322227
2.265343471
2.390248993
2.471027649
2.635339463
2.501914231
2.237507318
2.051419892
2.074558551
2.579408442
1.933734774
1.653656438
1.486324107
1.505758371
1.760252882
1.906972297
2.009049102
2.084075713
2.187163128
2.336193845
2.547517285
2.862952296
3.3026136
3.233249115
2.867101938
2.157892996
1.585678347
1.520848969
1.611325477
1.797155067
2.026749981
2.273920016
2.444619236
2.540876864
2.518220263
2.551675824
2.343465388
1.987554885
1.870460338
2.119142723
1.692899225
1.484236203
1.364018552
1.312798357
1.374721147
1.516064745
1.76364507
2.013032123
2.312462143
2.573130771
3.044008538
3.235995275
3.486875538
3.341441391
3.236084634
2.908582554
2.478062105
2.177802058
1.960396681
2.169710324
2.367795053
2.456336541
2.36423769
2.637803514
2.821024369
2.553154141
2.39660987
2.089022822
2.06950294
1.767818849
1.446486553
1.254396925
1.217691381
1.161085927
1.285072337
1.365830059
1.493737813
1.507690955
1.658864215
1.908599298
2.181563778
2.76998739
3.205560933
2.964908403
1.246253253
2.116299527
1.946180238
1.741744239
2.140625623
2.390885952
2.531594671
2.550425795
2.532532215
2.583428525
2.776616115
2.719421219
2.55946391
2.213014252
2.119491258
1.557773725
1.259062348
1.130883738
1.186863957
1.244483779
1.422197505
1.450906461
1.545731661
1.497590126
1.589234924
2.001307787
2.325980596
2.498114241
2.631258087
1.878579912
2.438620786
2.628911983
2.579318611
2.368322904
2.34142981
2.450686059
2.577717833
2.623632676
2.693473639
2.784967914
2.849426774
2.803463127
2.686367869
2.352095905
2.279306088
1.401966818
1.166775961
1.161950298
1.335636662
1.382930815
1.476507679
1.415111056
1.486476849
1.387029899
1.409754489
1.70929295
2.359507868
2.664679304
2.484847962
2.209954954
2.6100033
2.780200813
2.683605251
2.389471358
2.287553563
2.33894551
2.527542042
2.682181036
2.750126503
2.881123181
2.948948171
2.903890865
2.75209394
2.248114776
1.970515556
1.269437544
1.172199248
1.349515884
1.510820964
1.419383559
1.297727406
1.287389226
1.438700541
1.345096019
1.445641307
1.548142657
2.041143558
2.442708914
2.494441424
2.545419681
2.744560492
2.761318997
2.628141369
2.322018224
2.235774802
2.294035585
2.443079651
2.635427717
2.778803973
2.8864653
2.932471428
2.930903077
2.863126167
2.500799883
2.170743252
1.292872823
1.276773721
1.551317048
1.689450577
1.264147418
1.222674855
1.418492988
1.538743319
1.531940671
1.642308494
1.672138815
1.927881118
2.2276159
2.475565826
2.622098855
2.654563795
2.61448491
2.439551821
2.181952598
2.139809393
2.278032423
2.48342549
2.662109571
2.797314323
2.896850515
2.942681012
2.917093032
2.834473585
2.460773544
2.160122963
1.375387467
1.763238949
1.81633908
1.485501302
1.494271269
1.651805028
1.734003679
1.816634577
1.933934437
1.921206858
2.001249394
2.143275012
2.440954852
2.515317312
2.488410699
2.422430309
2.297247428
2.183333972
2.209409241
2.356777219
2.528381316
2.670735505
2.786522587
2.869520983
2.892983206
2.846679372
2.734279635
2.356199999
2.20279196
1.487188147
1.585271478
1.852181584
1.826236173
1.532636389
1.868220973
1.957020751
2.06303922
2.110687433
2.090924964
2.026099224
1.99003446
2.0890044
2.29114361
2.31144106
2.284994703
2.247827592
2.361732528
2.451986511
2.563348924
2.67010569
2.755163027
2.834967473
2.907766174
2.912120436
2.842122184
2.686949915
2.298990435
2.164484451
1.736485294
1.822333726
1.843453018
1.787717647
1.985186706
2.029566475
2.150282003
2.192522429
2.20157909
2.227677907
2.20112135
2.177563036
1.984612839
1.796418761
2.011428581
2.076215575
1.937442639
2.329665751
2.553593181
2.690767503
2.759320569
2.760028906
2.790100779
2.919999072
2.9218812
2.814582895
2.6209073
2.229029089
2.085867008
1.885378852
1.987692148
2.067572232
2.136618272
2.187898894
2.224098924
2.308943835
2.303556567
2.301528129
2.36200411
2.349374351
2.24372936
2.244531257
2.003642477
1.634722359
1.696949848
1.393800259
2.240922202
2.538142004
2.694484049
2.73287435
2.656674442
2.443872783
2.732843648
2.804936154
2.706441982
2.515176989
2.143732016
1.969407247
2.25453008
2.350027762
2.42918654
2.443702737
2.480419888
2.412947314
2.390637635
2.505043726
2.507518484
2.33853598
2.211231137
2.274336576
2.188280871
1.821859563
2.735221724
2.412831046
2.814958551
2.895106791
2.850900992
2.731682391
2.393601937
2.511906863
2.749979007
2.632711266
2.441023727
2.098537297
1.899079183
)
;
    }
    region0_to_wallFilmRegion_mirrorFace
    {
        type            convectiveHeatTransfer;
        L               1;
        value           nonuniform List<scalar> 
428
(
3.527044869
3.715942609
3.603480561
3.555959599
3.5226569
3.518037249
3.609490837
3.565421678
3.598031123
3.840324714
4.075975776
4.10508676
4.110437513
4.121494521
4.146368087
4.186987086
4.23491688
4.344264465
3.952667711
4.182226819
4.280556803
4.34512044
4.401988038
4.45696304
4.514634096
4.586030173
4.690359497
3.762649506
3.556216555
3.609167988
3.663061917
3.697818305
3.697735182
3.654865295
3.692751142
3.728269252
0.8934470438
1.383983239
1.325319321
1.661842891
1.46431124
1.672278699
2.210053757
1.836358064
2.026229525
2.098290594
2.18326566
2.568402449
2.70707877
2.512585771
2.916406624
3.402287839
3.018089911
2.846132696
2.831253033
3.289153322
2.933412879
3.209951451
3.518717363
3.657343943
1.620446068
1.937752358
1.874805348
1.402994824
1.697791326
1.616611853
1.52250068
1.689877101
1.762900029
1.405840501
1.610451807
1.626032694
1.316148136
1.551866887
1.4789176
1.241950241
1.399855393
1.369000288
1.228449151
1.295286559
1.291464333
2.021534724
2.214232904
2.113497958
1.757480874
1.907885136
1.900439762
1.836457455
1.920711364
1.883176907
1.667133761
1.856118125
1.966468224
1.654294692
1.857885102
1.653716296
1.550542001
1.564947855
1.62068341
1.371165761
1.527140739
1.640201717
2.314441305
2.863928904
2.29135282
2.142256073
2.223415427
2.995050037
2.244512227
2.770196049
2.445840175
2.41799607
2.375469018
2.518531813
1.978480396
2.500200867
2.01420209
1.903676999
1.521050835
1.827552357
1.995019251
2.183571061
2.492265724
1.525171707
1.589589595
1.586639571
1.693788682
1.647090494
1.747229304
2.017305644
1.86586469
2.088363955
1.606193753
1.539418648
1.587566542
1.734525326
1.635441618
1.696375291
2.187970475
1.933515304
2.424561087
1.523108887
1.312418211
1.536244992
1.844890331
1.826973384
2.340335211
1.977111147
2.841512785
1.172109964
1.677394649
1.477418246
1.684543902
1.445507839
1.361874101
1.267516071
1.216327345
1.25081136
2.048669958
1.860978476
1.848874374
1.672217106
1.714102712
1.58217571
1.437776561
1.925631355
2.585857936
2.072575002
2.383076925
2.489894173
2.041691778
1.820320776
2.023270235
1.848543604
2.971086717
2.274386398
2.540798569
2.269818307
2.131291255
1.940573278
2.82271001
1.55964341
1.594091056
1.835278265
2.296975653
1.579727115
1.664105335
1.836404243
2.748884254
1.420330773
1.593827809
2.323688875
3.335093416
3.937506669
3.870325786
4.149364552
4.285048197
4.178796377
4.395917805
4.493416103
4.413732527
4.576994776
4.644615146
4.57694271
4.701226286
4.767121153
4.633730555
2.372251309
3.36592155
3.784265128
3.948994652
3.937747932
4.443182608
4.278811997
4.320381454
4.286949231
3.340670349
3.241325303
3.172671064
3.090415905
2.974730133
2.8500262
2.853702601
2.929315262
2.048707296
2.634814106
2.118162073
3.7333757
3.692575202
3.884395443
2.51779395
3.387580679
1.794535532
3.670015288
3.914634374
3.906819849
2.474614178
2.091911165
1.429252522
3.565613319
3.879688617
3.859394329
2.18955206
1.771320845
2.276262731
3.545308549
3.848086925
3.840835361
1.890388324
2.377477138
2.538191555
3.503589075
3.831689525
3.828312184
2.057846423
3.335152911
3.451721507
3.551172706
3.837991556
3.85779666
1.95496874
3.357617677
3.970900307
3.510777443
3.885828459
3.879287076
3.58627379
3.898228074
3.934271063
3.985795782
4.011124172
3.933105677
4.089300755
4.099410441
4.173037419
4.217040342
4.106944246
4.244781784
4.265739624
4.115291596
4.284369952
4.302310747
4.131318169
4.320647753
4.340378888
4.165374698
4.362083676
4.385273568
4.204856981
4.410725751
4.438798935
4.281077923
4.475239209
4.524735188
4.454592777
4.587125775
4.674014532
3.91493345
4.023850898
4.095392757
4.183114249
4.238188707
4.113445451
4.239882655
4.31500621
4.286062756
4.330017612
4.372304316
4.37406768
4.429526911
4.411396558
4.448455958
4.483719082
4.517624224
4.484926961
4.550141254
4.58161119
4.547316039
4.633478057
4.615455972
4.654108942
4.698690947
4.753400151
4.760271561
3.83376702
3.948474372
3.863639555
4.039277219
4.11155647
4.085974674
4.150748807
4.301804491
4.214366337
4.335964744
4.463674582
4.391888184
4.508575474
4.546910098
4.51828264
4.519128383
4.610645206
4.514267663
4.476538082
4.645183891
4.424652455
4.05254398
4.222909727
4.341505319
4.242046869
4.446147179
4.359099043
4.537184603
4.612908002
4.672800165
4.595886023
4.731813932
4.6227779
4.810933414
3.526625453
3.755972217
3.658644378
3.578930214
3.818045453
3.698138165
3.877486298
3.733697495
3.776214546
3.81997071
4.056255174
3.862746655
3.903817894
4.170745026
3.942393834
4.225886452
3.976752984
4.004193978
4.0220982
3.668832762
4.360862495
4.020975447
4.019693817
4.024100307
4.302465325
4.024733158
3.729712937
4.024966244
4.026553262
3.745291586
4.018653994
3.997202939
4.276580804
4.114212922
4.48662401
4.326140453
4.334111542
4.500720529
4.274566294
3.65178478
3.462324359
3.281427981
3.43130874
3.409360017
3.20680877
3.401060564
3.396184023
3.637845588
3.135069876
3.390465783
3.381485598
3.683585556
3.037148821
3.366308803
3.344021515
3.703073188
2.907251532
3.314003442
3.277638873
3.6811172
2.835197825
3.24241247
3.250952491
2.890584935
3.276201349
3.309298752
3.71503304
2.958583602
3.339750455
3.361415713
)
;
    }
    procBoundary0to1
    {
        type            processor;
        value           uniform 0;
    }
    procBoundary0to2
    {
        type            processor;
        value           uniform 0;
    }
    procBoundary0to3
    {
        type            processor;
        value           uniform 0;
    }
}


// ************************************************************************* //
