/*--------------------------------*- C++ -*----------------------------------*\
  =========                 |
  \\      /  F ield         | OpenFOAM: The Open Source CFD Toolbox
   \\    /   O peration     | Website:  https://openfoam.org
    \\  /    A nd           | Version:  8
     \\/     M anipulation  |
\*---------------------------------------------------------------------------*/
FoamFile
{
    version     2.0;
    format      ascii;
    class       volScalarField;
    location    "0.6";
    object      k;
}
// * * * * * * * * * * * * * * * * * * * * * * * * * * * * * * * * * * * * * //

dimensions      [0 2 -2 0 0 0 0];

internalField   nonuniform List<scalar> 
67286
(
0.01652780915
0.01834887839
0.0203963768
0.02237828199
0.02490037936
0.02730224461
0.02905198433
0.02879218937
0.01758558544
0.01668956806
0.01672437842
0.01627863666
0.01546341536
0.01443329921
0.0107638204
0.01096331128
0.01074895537
0.009815297263
0.008391877999
0.006643454954
0.005059076745
0.004929606467
0.002232634687
0.001197052951
0.001044868799
0.001084630349
0.0006316600103
0.0005705419682
0.01804229924
0.02104691763
0.02321006872
0.02433027884
0.0272047219
0.03060262052
0.03405900092
0.03667293462
0.03281141055
0.02405705384
0.01917742105
0.01672285651
0.0151828817
0.01381323889
0.01118963144
0.01029419299
0.009624007471
0.00860103531
0.007212944286
0.005471371289
0.003637926221
0.002403895969
0.0009565058199
0.0003447118805
0.0002487023037
0.0007227204645
0.001325165536
0.001577029172
0.001804955723
0.002214156656
0.002556786104
0.002580456793
0.02196193775
0.02660554196
0.02829726208
0.02646291546
0.02910528461
0.03275953306
0.03639286422
0.03919096313
0.04057001903
0.0376701838
0.02963560198
0.02301926211
0.01833071731
0.01502534896
0.01213964352
0.01034107674
0.008987540211
0.007695484383
0.006235992043
0.004490681297
0.002626099833
0.001207966432
0.0003582609347
0.0001555778816
0.0008103215699
0.00157779703
0.001942373175
0.002152526291
0.002364928025
0.002794660824
0.003344260825
0.003911987991
0.0302711377
0.03769880021
0.03871535997
0.0309865529
0.03136391547
0.03419337417
0.03587146888
0.03723173967
0.03812952301
0.03742783897
0.03308381785
0.02810212912
0.02336790553
0.01908373254
0.01525122474
0.01227049619
0.01002064677
0.008300597411
0.006683143718
0.004782675548
0.002772897724
0.001166254988
0.000462041707
0.0007726148312
0.001715221871
0.002055238423
0.002190869201
0.002406569425
0.002477473447
0.003133719177
0.003963205227
0.005179117364
0.006623220143
0.04427522357
0.05407995847
0.05796090686
0.04908966454
0.04258075678
0.03760555257
0.03399843392
0.03452994514
0.03445884425
0.03288267699
0.02926367755
0.02647853108
0.02316653361
0.01914165974
0.01476969534
0.01206068584
0.01062397003
0.009338818221
0.007934496114
0.00615418995
0.004123702945
0.00218910785
0.001164291943
0.001635549714
0.002180996975
0.002230872503
0.002141545801
0.002459282622
0.003023430974
0.003561948151
0.004725220296
0.006476683782
0.008059115297
0.07525620131
0.08772963801
0.09112167065
0.0856561772
0.06188381671
0.0380521472
0.03012459649
0.02990491436
0.02895512605
0.02704024981
0.02542001469
0.02247300285
0.01654838267
0.01169292321
0.01410628829
0.0148717643
0.01264890081
0.01045801806
0.009031144412
0.007924921073
0.006309432727
0.003853174022
0.002195486769
0.00233881607
0.002490204565
0.00237934616
0.002101989779
0.002676614632
0.003478293523
0.004406564584
0.005877376606
0.00759664552
0.008910304566
0.0629282807
0.07460506767
0.08013952982
0.07635230639
0.05367723166
0.03296507725
0.02674264952
0.02559503928
0.02409795393
0.0232577777
0.02170970897
0.01705344677
0.01055022108
0.01074383776
0.01392276167
0.01483044615
0.01150621274
0.009667734313
0.00898971192
0.008566131362
0.007619884908
0.005012655468
0.002749601635
0.002681469777
0.002830193062
0.002964922088
0.003105409622
0.003446977662
0.004252447888
0.005578060658
0.006972577124
0.008381987038
0.009523751066
0.04993257804
0.05886927448
0.06234231998
0.05794194375
0.03888951787
0.02664227195
0.02412600629
0.02341088715
0.02201162867
0.02066355995
0.01746111609
0.01091554319
0.00845214663
0.009389509067
0.0102459286
0.009809496448
0.008916037857
0.008859604969
0.009010037251
0.008955001695
0.008389649369
0.006158622583
0.003442519154
0.002915230635
0.003038037775
0.003257472141
0.003547333878
0.004024446537
0.005241646961
0.006677145359
0.007794052459
0.00875572651
0.009674593573
0.03684243354
0.04443463986
0.04686734339
0.04036419657
0.02738309508
0.02265779855
0.02277351778
0.02206628382
0.02019269141
0.01774716214
0.01255852644
0.009185222505
0.00963915014
0.009899137693
0.009983213904
0.009825068053
0.008816193624
0.008861749157
0.009078160414
0.009100004115
0.008796998143
0.007456782006
0.004984991467
0.003240507609
0.003291384882
0.0036216836
0.003987565633
0.004717436496
0.006307607358
0.007423587512
0.008163681733
0.009203301677
0.01048183467
0.0256844738
0.03093808208
0.03336803784
0.02842271377
0.02515133056
0.02773636741
0.03183016066
0.0283498077
0.02275873281
0.01822386599
0.01206420794
0.009764752481
0.01002727627
0.01018867517
0.01020763902
0.009961139642
0.009206445835
0.008967888522
0.009076181558
0.00912324514
0.009127145538
0.008676769066
0.008711931652
0.004155080257
0.003669981597
0.003797375973
0.00424951932
0.005626573497
0.007094780387
0.007934545971
0.008696511199
0.009871433317
0.01127203035
0.01875921303
0.02213868028
0.0251692013
0.02543494935
0.02797910183
0.03281492707
0.03616350513
0.03269532117
0.02497098486
0.01773823775
0.0100350657
0.009978457751
0.01018808676
0.01036282653
0.01086381467
0.0110609654
0.01031138698
0.009699363056
0.009552241186
0.009419869609
0.009839336377
0.01074529101
0.01371470177
0.007697443801
0.005515341506
0.005036907577
0.004600522197
0.005224505159
0.006697392913
0.007672137096
0.008481073496
0.009383569357
0.01020219929
0.01576920512
0.01864644875
0.02247839771
0.02545698464
0.02853926105
0.03179800218
0.03287021165
0.02940302068
0.02094626594
0.01138420506
0.01076739381
0.0102368922
0.01040059175
0.0109726205
0.01164629752
0.01149884022
0.01070088693
0.0103254867
0.01035862893
0.01015569568
0.01184261317
0.0151474048
0.0190983828
0.01345898029
0.0110687181
0.01136388806
0.01066255946
0.01027446568
0.01062679671
0.009045392799
0.008482955403
0.009351134276
0.01005539867
0.01448694433
0.01728541794
0.02128612186
0.02455229741
0.02680768611
0.0280641863
0.02649890539
0.02076453712
0.01381158292
0.0130476604
0.01462930913
0.01117761826
0.01076395128
0.01121705213
0.01174430748
0.01169393151
0.01115108383
0.01064301
0.01052606143
0.01156712207
0.01706943316
0.02194688268
0.02466067317
0.01952934108
0.01790597703
0.02003677207
0.02235237751
0.02284360053
0.02194798536
0.01624420853
0.008787978496
0.009048039681
0.009861627116
0.01326793408
0.01551060157
0.01900522652
0.02177267234
0.0231873577
0.02267236143
0.01891412565
0.0135379057
0.01461129875
0.02115679812
0.02424393675
0.01638311319
0.01204326299
0.01083553875
0.01133094763
0.01138805662
0.01097422654
0.01025547562
0.01082582494
0.01800162519
0.0273882079
0.0345864794
0.0313821439
0.03021826615
0.02511041719
0.02684360114
0.03116568878
0.03194846884
0.03096714141
0.02588191754
0.01582188767
0.01071789683
0.009461619892
0.01179133736
0.01305965919
0.01553836952
0.01751067427
0.01810726856
0.01678933417
0.01568085319
0.02061272134
0.02958376711
0.03892170999
0.04312080092
0.03644312607
0.01895714238
0.01068469317
0.01052739532
0.01058371838
0.01024911126
0.01007472711
0.01322200056
0.02080368534
0.02960017271
0.03810835435
0.03611431572
0.02984932051
0.02648223589
0.0332243519
0.03679587772
0.03666448172
0.03592058226
0.03258821024
0.025965612
0.01770660799
0.01155558692
0.01041147473
0.01093641794
0.01234536877
0.01352523449
0.01383592004
0.01306494451
0.01358996534
0.01894215766
0.02715462963
0.03607439538
0.04026173234
0.0277904027
0.01488877124
0.009940035848
0.00998084466
0.009987470711
0.009842256232
0.0101895797
0.01387919544
0.01980702589
0.02493548405
0.03131145134
0.03249042326
0.02413397633
0.03465132802
0.03982788487
0.0425996997
0.0447538915
0.0453606589
0.03951575174
0.03087403543
0.0271316695
0.01916456739
0.009473295601
0.009786823318
0.01052059999
0.01111542915
0.01129257474
0.0108920813
0.0111003279
0.01423707603
0.01998735659
0.02595677139
0.02833140205
0.01653125124
0.01078122464
0.009637924787
0.009807164137
0.009976053998
0.01069027116
0.01380594926
0.02061905432
0.02581127253
0.02607979164
0.02723261066
0.0278466553
0.02864853472
0.03870795776
0.04419959178
0.04863222683
0.05205950028
0.05252373274
0.04670073595
0.03823304149
0.03338129632
0.03122443999
0.008971370331
0.009251692998
0.009634243678
0.009900515088
0.009980933667
0.009720101338
0.009517880679
0.0105635663
0.01318878017
0.01626679736
0.01701991624
0.01004992219
0.009488873811
0.009605947973
0.01047125175
0.01238325095
0.0162618072
0.02206243476
0.02768100335
0.02991078907
0.02928284759
0.02672004707
0.02439186735
0.02873606367
0.03883324052
0.04511475915
0.05077401796
0.05446932886
0.05501327309
0.05038428586
0.0428048558
0.03641141552
0.03833627537
0.008670505809
0.008843749177
0.009010995978
0.009115386915
0.009180734482
0.009080352003
0.008962302765
0.009214687769
0.009736785237
0.01027888569
0.01037208403
0.01020782918
0.01009223219
0.01013875505
0.01242518702
0.01600770251
0.02025190657
0.02406222878
0.02688200577
0.02832909179
0.02840573292
0.02638359354
0.0231118093
0.02856452447
0.037901702
0.04456942586
0.05033493604
0.05391737018
0.05459705897
0.05034338096
0.04361024939
0.03767848887
0.03297598231
0.008414094479
0.008445711167
0.008508225207
0.008593149937
0.008738539396
0.008825141292
0.008856173995
0.008912260125
0.008972982364
0.009219994866
0.01010607874
0.01172064671
0.01305296645
0.01079367934
0.01407836405
0.01772837129
0.02065910385
0.02252922184
0.02402508826
0.02502877389
0.02522127854
0.02332997853
0.02278051957
0.02983905944
0.03616349038
0.04231816997
0.04838563124
0.05202366076
0.0526562571
0.04906022763
0.0430656028
0.03745578714
0.03255659126
0.008165429387
0.008117456733
0.008234845954
0.008499778956
0.008870502308
0.009164757972
0.009324829538
0.009360035074
0.009240494924
0.009381774405
0.0102270989
0.01187000733
0.01411832819
0.01177340772
0.01401503991
0.01746334827
0.01935697037
0.02011815143
0.02086846987
0.02151126828
0.02170140806
0.02048036526
0.02336421912
0.02914999023
0.03365054555
0.03934920124
0.04534576388
0.04912466393
0.04969761135
0.04666662299
0.041378942
0.03615784527
0.03175220075
0.007910798527
0.007897044481
0.008227981141
0.008790322372
0.009379024019
0.009780901866
0.009985403964
0.009965181577
0.009659246899
0.009648522377
0.01028265483
0.01156086216
0.01378418189
0.01227614491
0.01334132332
0.01636158173
0.01767210625
0.01792757745
0.01832928581
0.01879025183
0.01905606084
0.01912366925
0.02318549808
0.02761156844
0.03093352584
0.03602191168
0.04164172071
0.04537067002
0.04584563984
0.04326300471
0.03858463875
0.03384218868
0.02980215902
0.007570892541
0.007664569193
0.008236189847
0.009061650293
0.009814167137
0.01028270221
0.01053036601
0.0105690387
0.01024287939
0.009997532919
0.01033986743
0.01121648384
0.01290930686
0.01214568236
0.01274142383
0.0150599796
0.01603560415
0.01615924589
0.01645427567
0.01684102355
0.01717499131
0.01805276183
0.02215088374
0.02564716228
0.02832150434
0.03274572884
0.03776550596
0.04115352096
0.04141103268
0.03917124188
0.03499812443
0.03069570244
0.02691200351
0.006948640957
0.007165560647
0.007908239361
0.008950516687
0.009909745827
0.01050948738
0.01081189472
0.01096176404
0.01083699958
0.01053251736
0.01047438708
0.010909868
0.01212876052
0.01172213393
0.01205622038
0.01368098409
0.01446143199
0.0146285545
0.01491162531
0.01523291384
0.01553251512
0.0166664476
0.02050499052
0.02361561448
0.02611027347
0.02977464331
0.03408467217
0.03695063524
0.03685772534
0.03491028606
0.03121588151
0.02664404474
0.02194854991
0.005743596647
0.006080304603
0.006901290244
0.008096266621
0.009365887478
0.01028225929
0.01076550252
0.01097693248
0.01102717554
0.01089801457
0.01071538468
0.0107843376
0.01143436716
0.01103916189
0.01118432666
0.01224213488
0.01288168987
0.01312154117
0.01339130137
0.01362647034
0.01382843981
0.01489389144
0.01832139642
0.02164150216
0.02432120235
0.02724726295
0.03092646101
0.03315367964
0.03260289796
0.0308863577
0.02782809514
0.02393941687
0.01867787677
0.003929349047
0.004303666183
0.005029351687
0.006130822794
0.007665059419
0.009156992474
0.01015212705
0.01064053582
0.01081143173
0.01079156101
0.01065432644
0.01054833104
0.01052775585
0.01013526189
0.01017610726
0.01081653007
0.0113115635
0.0115740756
0.01179598681
0.0119321733
0.01202934052
0.01282687265
0.01598487453
0.01952871977
0.02269358841
0.02534491836
0.02826844351
0.02991271978
0.02882848441
0.02717420339
0.02451123735
0.02123991109
0.01753446761
0.001938831528
0.002253743849
0.002782835311
0.003465465176
0.004681631305
0.006506208822
0.008333115734
0.009534669558
0.01009076591
0.0102373803
0.01013301152
0.009857358706
0.009454061569
0.009148965692
0.009160507277
0.009514963108
0.009853512683
0.0100863642
0.01021924012
0.01025482065
0.01023330129
0.01078661675
0.01326109782
0.01703017787
0.0206674182
0.02358588962
0.0259174841
0.02717243277
0.02555568835
0.02381667204
0.02126989457
0.01832752329
0.0153966208
0.0005758585083
0.000730344173
0.001012168037
0.001293311565
0.001821187818
0.003037860255
0.005024521912
0.007007927681
0.008331646219
0.008915941752
0.008979590311
0.008721064067
0.008365593599
0.008225759174
0.008238214383
0.008406209743
0.008593380964
0.008741422171
0.008818427909
0.00879123456
0.008694085049
0.009023260704
0.01075922115
0.01414218775
0.01802748203
0.02126005446
0.02371418083
0.02469453391
0.02254217158
0.02050724953
0.01790836664
0.0152455232
0.01288934241
9.100469392e-05
0.0001261791268
0.0001973401272
0.0002599043213
0.0003788384342
0.0007858918109
0.001857881354
0.003556582011
0.005314180611
0.00654933283
0.007158333969
0.007311328716
0.00730840302
0.007341235861
0.00735876073
0.007407177507
0.007462637068
0.00750317959
0.007505050956
0.007449666819
0.007337200956
0.007635195607
0.00882443568
0.01138923272
0.01485406913
0.01808992641
0.02076626643
0.0218481892
0.01929115763
0.0169957462
0.01446477767
0.01223850324
0.0105196385
9.756033813e-06
1.322996154e-05
1.967354508e-05
2.531838067e-05
3.75446536e-05
9.994887452e-05
0.0003726623328
0.001115823196
0.002357918232
0.003762722261
0.004932688938
0.005739701674
0.006216840458
0.00643586594
0.006483961385
0.006468040035
0.006430975314
0.006394532885
0.006373933933
0.006395422915
0.006462654193
0.006878353016
0.007851311071
0.009564387722
0.01191496863
0.01430566227
0.01681875507
0.0182246569
0.01600962953
0.01381513303
0.01159442089
0.009763177924
0.008526709832
0.01701000858
0.02024887659
0.02103840998
0.02258121206
0.0252062438
0.02865761158
0.03215204621
0.03397562747
0.02238953754
0.01811350496
0.01521129499
0.01259722028
0.01053766195
0.01184706224
0.005750089525
0.007350325588
0.007595763296
0.007266797292
0.006421123784
0.005879404328
0.006607373216
0.006491878883
0.001770808579
0.0006208717692
0.000563699595
0.0005540072416
0.0003431620062
0.0003529500615
0.01774558054
0.0225619453
0.02382675063
0.025508662
0.02934877843
0.03540707356
0.04265313511
0.04922616286
0.05376984215
0.03979175656
0.0262306882
0.01833810709
0.01378754188
0.01179941352
0.009126835365
0.007621905305
0.007220836963
0.006476559438
0.005451397979
0.004320331264
0.003290527594
0.001807441169
0.0005762804107
0.0001740459135
0.0001371107077
0.0004209890942
0.0008784182288
0.001143899267
0.001481230119
0.002129194284
0.002443309599
0.002303825975
0.01937642504
0.02635334519
0.02768021151
0.02871188971
0.03233210412
0.03769432367
0.04286631343
0.0460163153
0.04898139136
0.04820110218
0.03686330517
0.02427066803
0.01707876085
0.0131108495
0.01048866117
0.008893106045
0.007692955841
0.006476106172
0.005120614358
0.003659106529
0.002108335025
0.0008701329861
0.0002422630673
9.981390615e-05
0.0003865932047
0.0009814883277
0.001654329529
0.002257122646
0.002922439237
0.002899611058
0.00313536128
0.003290028099
0.02269894831
0.02977082643
0.03504230355
0.03949398848
0.04153369395
0.04211268608
0.04109736907
0.04123304024
0.04196523213
0.04182805628
0.03479314637
0.02481248973
0.01888470128
0.01546310707
0.01298314605
0.01081500507
0.008858907659
0.007173896331
0.005594266332
0.003868840096
0.002143675948
0.0009149140433
0.0003401240127
0.0004309498753
0.001065202456
0.00167484274
0.002257311044
0.002916409156
0.002420821513
0.003290520106
0.003385095008
0.003710011049
0.00425125428
0.02852193269
0.05318286925
0.07329353966
0.07958718127
0.0692035082
0.05398790654
0.04089647828
0.03742380059
0.03574930563
0.03256413334
0.02359626428
0.01782569927
0.01602016835
0.01503363522
0.0144462397
0.01371614759
0.01084219025
0.007641870927
0.005592366216
0.003712896814
0.002765590393
0.001647236094
0.0009176332345
0.00116936795
0.001770804565
0.002078641792
0.001953565804
0.002239590465
0.003434817838
0.002817667535
0.003366270586
0.004063700059
0.005005196138
0.0540524781
0.08579816276
0.09101812621
0.09150671898
0.08466162282
0.05508705028
0.03142455081
0.02800955544
0.02473085775
0.01873468891
0.0133438247
0.01315659163
0.01221578612
0.01567105442
0.01959864327
0.01897915586
0.01434395843
0.008728446699
0.006758189284
0.005669000243
0.004437444228
0.002777311654
0.001777936943
0.001956498096
0.002255360971
0.001828044129
0.0009799588482
0.001669311721
0.00281441539
0.003336708382
0.002957856415
0.003978171254
0.005641861887
0.04658826673
0.07221072013
0.07958387241
0.07902184787
0.06658453959
0.03412408146
0.02104901822
0.01811025315
0.01403674446
0.009719474885
0.01056264794
0.01006966372
0.009301247692
0.01505209898
0.02086133097
0.02127068648
0.01696350803
0.009748967984
0.007291357055
0.006376062043
0.005439272913
0.00361023931
0.002424920862
0.002259925295
0.002130911455
0.001921783602
0.00199126631
0.00225600539
0.002789348794
0.003310296623
0.002898330683
0.003105873578
0.005391189622
0.03355440869
0.04296611546
0.04886479061
0.04719387318
0.03734478373
0.0230946165
0.01872197164
0.01607367034
0.01111921942
0.009911624722
0.01005867965
0.007639484187
0.007974769843
0.01115575266
0.01489425222
0.01437967063
0.01018465269
0.007151206167
0.006495049833
0.006462940128
0.005855544277
0.004245285991
0.002925119163
0.002287674152
0.00210830333
0.002361082439
0.002801401776
0.002933830345
0.003260004231
0.003856710103
0.003976236367
0.003985511819
0.005298404361
0.02435283135
0.02633441671
0.02854358764
0.02760365367
0.02378075493
0.02208119861
0.02530377121
0.02952924128
0.0161802924
0.01121146125
0.008592362973
0.00817117111
0.008492043983
0.00858829022
0.008900362896
0.007796268328
0.005002239486
0.005188994075
0.005789309375
0.006134410221
0.006023154215
0.004916875053
0.003591953787
0.002546461966
0.002563998279
0.003324930382
0.003772291745
0.003772530231
0.003928045423
0.004223216997
0.004649083808
0.005891218562
0.008834296398
0.01861670028
0.01939140228
0.02025937477
0.02092619803
0.02390203284
0.03235118758
0.03800595263
0.03930216426
0.02873060053
0.01562331459
0.01049491376
0.009031465273
0.007696074492
0.006601074804
0.006712005222
0.00679864054
0.005959401731
0.005749859577
0.005903948486
0.005947153224
0.006257526642
0.005724526332
0.004845125311
0.003223689481
0.003035092773
0.003234797118
0.003773295217
0.003971393896
0.004329284727
0.004808431847
0.005594801947
0.006942061145
0.009966289682
0.01561993427
0.01575749264
0.01699055988
0.01905841937
0.02592529682
0.03594325675
0.04051904216
0.04041690608
0.02819528416
0.01538627985
0.01018939639
0.009225742821
0.007457849055
0.007692752634
0.009750771583
0.0109815705
0.009834641855
0.008611715085
0.007559889564
0.006839925963
0.007000406019
0.007408909458
0.007113345372
0.004613354848
0.004295421284
0.003738876892
0.003203122789
0.003502569701
0.004344944877
0.004521795016
0.004696270878
0.005318228622
0.00628131975
0.01425793892
0.01410834865
0.01563610547
0.01807344498
0.02475966681
0.03111642764
0.03254001951
0.03008071754
0.02008153486
0.01134916468
0.01039943688
0.008957735633
0.008591020021
0.009932145133
0.01214332455
0.01192760582
0.01070688509
0.01041695934
0.01046353023
0.009002274
0.008820232834
0.01051009683
0.01061341042
0.007342920544
0.007751511327
0.00751761295
0.005621750758
0.00506431622
0.005748389888
0.005536557698
0.005024795514
0.006238490381
0.008254922107
0.0134087298
0.01333462916
0.01514973509
0.01792724583
0.02314237399
0.02566343975
0.02165862906
0.01799043513
0.01356764603
0.01173331633
0.01432611345
0.01259019511
0.01100542256
0.01113020851
0.01236876085
0.01236479508
0.01164952514
0.01133153605
0.01146111358
0.01078144001
0.01243619806
0.02009047177
0.02351427996
0.0119141699
0.01390862679
0.01457017208
0.01277829443
0.01095016612
0.01078274703
0.009442161422
0.00705808244
0.008645818219
0.01130348683
0.01247779488
0.01253742991
0.01445264847
0.01731544733
0.02069689987
0.0210948713
0.01748709924
0.01428803409
0.01326179007
0.02230175927
0.03563480625
0.03092026101
0.02017214189
0.0114627576
0.01180450228
0.01208895571
0.01168194743
0.0112424206
0.01203679025
0.01332880077
0.0208291146
0.03452722147
0.03101904317
0.03447749219
0.02129285844
0.02135709808
0.01967051771
0.0153252946
0.01225600151
0.01146850924
0.01075877558
0.01091643214
0.01217730652
0.01140832959
0.01154941639
0.01326146814
0.01570043552
0.01803243396
0.01888076541
0.017956936
0.01680391085
0.02228411894
0.03918123535
0.04390860374
0.03716575296
0.02382117263
0.009868302547
0.01001954059
0.01012904856
0.009998519126
0.01043798924
0.01212056542
0.01698568717
0.02602535504
0.04068051867
0.03623359077
0.03058065489
0.02531189387
0.02697765574
0.02586088395
0.02525265094
0.02842090723
0.02408088959
0.01388174495
0.01407308523
0.0132852715
0.01044478197
0.01082083206
0.01214721988
0.01386587351
0.0155538952
0.01668590719
0.01728582289
0.01734579338
0.02155844844
0.03639038707
0.03993657891
0.03157240838
0.01350588765
0.007806587045
0.007879775546
0.008320532287
0.008785515591
0.01014428085
0.0141680301
0.0251739548
0.0318887625
0.03477654304
0.0324008238
0.02394435094
0.03014289559
0.03499192393
0.04022773211
0.04544715671
0.04735400711
0.03701793008
0.0201094698
0.01524440968
0.01760860076
0.009786556468
0.01051434372
0.01131351901
0.01216774343
0.01313672677
0.01414058639
0.01491799067
0.01512245506
0.01584922003
0.0218065974
0.02235743335
0.01540173699
0.009946318702
0.007804842659
0.007403815429
0.008089272369
0.01022822565
0.01535599839
0.02642211823
0.03912365192
0.04147817077
0.04145506942
0.02976317037
0.02578733034
0.0344974354
0.04367851961
0.05311581684
0.05931864255
0.0580993076
0.04804914711
0.03052765043
0.02422270492
0.03229001102
0.00935732319
0.01009778239
0.01019258097
0.01036078209
0.01100794115
0.01203054701
0.01265360851
0.01235050188
0.01191062318
0.01247923228
0.01226464256
0.01244442932
0.01364793368
0.009977673504
0.008776343714
0.01055373296
0.01519598265
0.0232102467
0.03184444216
0.03534149729
0.03765169575
0.03956547434
0.02691019485
0.0268621589
0.03787366587
0.05090695156
0.06204186828
0.06713800053
0.06475154354
0.0560451166
0.04286160195
0.03234156874
0.03073386878
0.008957507773
0.009260857042
0.008722061644
0.008572962304
0.009279876135
0.01051002919
0.01114636158
0.0107368264
0.009897772519
0.009902265332
0.01146962449
0.013252564
0.0156858472
0.01406747245
0.01095885832
0.01316424693
0.01789866611
0.02412383786
0.028891008
0.03138853078
0.03257453161
0.0338076373
0.02411401025
0.02798448442
0.04045754066
0.05306528895
0.06433937863
0.06917348285
0.06643947362
0.05737982845
0.04526770887
0.03519302743
0.026301453
0.008523490006
0.008234848053
0.007374870996
0.007215121816
0.008054256143
0.009407416146
0.01015839885
0.009803364863
0.008611301626
0.008315626583
0.009891791121
0.01267891049
0.01607816035
0.01722843316
0.01273363201
0.01414847398
0.01717450586
0.02074288073
0.02380864784
0.02586812969
0.02679372957
0.02690062683
0.02252476014
0.02791169964
0.03561906922
0.04750069065
0.06009573081
0.06629564007
0.06480212817
0.05674278414
0.04521488294
0.03391389609
0.02622858564
0.008105557072
0.007391228792
0.006607417133
0.006665834998
0.00760958985
0.00904691878
0.01000270102
0.009511591788
0.007834016864
0.007513124134
0.008979211222
0.01197625416
0.01613620509
0.01625053347
0.01277769334
0.01378608573
0.01496240948
0.01661394912
0.01856553841
0.02018350573
0.02119523999
0.02122039
0.02163809243
0.02449418236
0.0298982818
0.04194552098
0.05415052375
0.06054016535
0.06037440981
0.05383591765
0.0432199875
0.03206375102
0.02398725062
0.007709813387
0.006847007795
0.006388739157
0.006770613644
0.007902435893
0.009599009893
0.01100672575
0.01037944895
0.007895986805
0.007342379603
0.008614340689
0.01113252794
0.0146069458
0.01396181699
0.01234677237
0.01305118069
0.0131615489
0.01386576238
0.01524572383
0.01672705322
0.01842963892
0.02049724198
0.02102129034
0.02121583282
0.02524946264
0.03627861179
0.04702546653
0.05353171151
0.05401933487
0.04889498587
0.03934514409
0.02943530787
0.02143506041
0.007210154915
0.006399469749
0.006275428327
0.006935404484
0.008275065873
0.01029604849
0.01237300617
0.01233690741
0.009491864879
0.007781171698
0.008488710099
0.01032869139
0.0125342112
0.01234797402
0.01187437105
0.01226329423
0.01202409858
0.01245369976
0.01366400314
0.015151357
0.017257561
0.02011534366
0.02105617081
0.01936893949
0.021222628
0.02943739844
0.03989879961
0.04619989119
0.04672920398
0.04264217906
0.0342330898
0.02598021529
0.02101018813
0.006337490095
0.005707579545
0.005807291362
0.00659672258
0.00796049938
0.009955616897
0.0124250358
0.01370262768
0.0122715174
0.009728626609
0.008769427104
0.009692478122
0.01093470168
0.01123731821
0.01110510782
0.01114674496
0.01087265897
0.0113921212
0.01260492529
0.01406632939
0.01613295294
0.01896277025
0.02098276116
0.01800792843
0.0185493805
0.02426414267
0.03351747685
0.03916592303
0.03945725893
0.03626196837
0.0295678081
0.02517828934
0.01891459588
0.004912704223
0.004519133466
0.004754008994
0.005522302375
0.006729664477
0.008310265062
0.01033367892
0.01239152834
0.01304177673
0.01190122742
0.01013744893
0.009583873967
0.009777038239
0.01012505789
0.009882186934
0.009600319914
0.009457895745
0.01009418182
0.01125701942
0.01260489358
0.01451186571
0.01775156844
0.01793686277
0.02094148344
0.01706339106
0.02031898903
0.02837901461
0.03326883334
0.03301064728
0.03018863428
0.02533124713
0.02393216111
0.01401282337
0.003059204875
0.002954024534
0.003266465535
0.003849292912
0.004773484655
0.005976961325
0.007389008306
0.00905904665
0.01056700562
0.01102326974
0.01014529541
0.009138868443
0.008803419878
0.008810623778
0.008339223258
0.007897763501
0.007907146904
0.008476536109
0.00942354664
0.01048116296
0.0120757467
0.01408138854
0.01584706076
0.0163624502
0.0154165014
0.01779514815
0.02476233545
0.02888480511
0.02784761362
0.02516833631
0.02093057411
0.01689131935
0.01258290211
0.001306235373
0.001344331472
0.001647077464
0.002001550141
0.002546031225
0.00339420607
0.004658130349
0.006166959207
0.007624782009
0.008620775344
0.008723478289
0.008236544465
0.007803820306
0.007524930426
0.006918232856
0.006463793872
0.006467858635
0.00683948956
0.007427877276
0.008078009802
0.008968971385
0.01020969804
0.01151681721
0.01303756508
0.01361955721
0.01555305503
0.02120571015
0.02575719513
0.02398186472
0.0211259868
0.01708167837
0.01288877567
0.01032837306
0.0003325496625
0.0003778592192
0.000519668276
0.0006415151825
0.0008292368425
0.001274119977
0.002280212557
0.003711509011
0.005202622121
0.00637882488
0.007002263953
0.007099629146
0.006922490884
0.006644334965
0.006101715709
0.005672792842
0.005542260591
0.00565904993
0.005917911192
0.006262570224
0.006716807331
0.007295092607
0.008471764224
0.01068380112
0.01224288253
0.01442599478
0.01895540919
0.02308621105
0.02075552651
0.01771035533
0.0141045087
0.01082183841
0.009172125885
4.809909107e-05
7.087678649e-05
0.000103871784
0.0001260217654
0.0001605090414
0.0002778653653
0.0007092346293
0.001672572419
0.002981156466
0.004249952298
0.005231962386
0.005847750096
0.006134256079
0.006126924347
0.005845307627
0.005543308885
0.005353837316
0.005288398834
0.005306882958
0.005424736903
0.00587745471
0.006073156221
0.007328038022
0.009369987233
0.01149012059
0.01400557344
0.01739965629
0.02047203462
0.0180937779
0.0151342249
0.0121428546
0.009857043608
0.008665059203
6.89319083e-06
1.045141573e-05
1.323286746e-05
1.457477224e-05
1.754978396e-05
3.463361011e-05
0.0001279351799
0.0004596524754
0.001228910913
0.002409360195
0.003660323355
0.004682968973
0.005359658995
0.005679798806
0.00571499222
0.005622444807
0.005508121253
0.005438766919
0.005459026358
0.005578351053
0.005747369003
0.006367175009
0.007374350724
0.008771204446
0.01039848456
0.01183265514
0.01462756171
0.01653820034
0.01484767725
0.01274097762
0.01055736249
0.008755509863
0.007708336189
0.01769620801
0.02329169555
0.02234452283
0.02347719763
0.02687011336
0.03157187143
0.03598527254
0.03905728775
0.03419580683
0.02733486574
0.01959040837
0.01417017705
0.01002964908
0.009263826556
0.003637411965
0.00514863769
0.004605534101
0.004518910032
0.004251288968
0.004248257825
0.007092322542
0.009364631031
0.001841536264
0.0003716428187
0.0002932542906
0.0002715818188
0.0001931943251
0.0002127729061
0.000275431986
0.01808363789
0.02597484458
0.02453187478
0.0261168077
0.03113324535
0.03864301717
0.04671840928
0.05321801413
0.05871315089
0.05543369125
0.03918679949
0.02427464691
0.01530781912
0.01078888707
0.009581281001
0.006458391889
0.005155808563
0.004222691712
0.003523685035
0.002738397109
0.002095079388
0.001132594311
0.0003564304027
0.0001767540736
0.0001473230121
0.0002401357959
0.0004960209351
0.0006619190572
0.0008632918515
0.001362054511
0.001689514072
0.001562944012
0.01857759771
0.02780142533
0.02674296383
0.02890339297
0.03330906271
0.0380623882
0.04125376409
0.04277540731
0.04450425839
0.04623251045
0.04231402078
0.02796938219
0.01770174498
0.01204403477
0.009257236815
0.007626621938
0.006396640827
0.005206819645
0.003853987364