/*--------------------------------*- C++ -*----------------------------------*\
  =========                 |
  \\      /  F ield         | OpenFOAM: The Open Source CFD Toolbox
   \\    /   O peration     | Website:  https://openfoam.org
    \\  /    A nd           | Version:  8
     \\/     M anipulation  |
\*---------------------------------------------------------------------------*/
FoamFile
{
    version     2.0;
    format      ascii;
    class       volScalarField;
    location    "0.6";
    object      O2;
}
// * * * * * * * * * * * * * * * * * * * * * * * * * * * * * * * * * * * * * //

dimensions      [0 0 0 0 0 0 0];

internalField   nonuniform List<scalar> 
67286
(
0.2100036945
0.2100035184
0.210003395
0.2100032618
0.2100031672
0.2100030981
0.210003106
0.2100032453
0.2100036912
0.2100036993
0.2100036924
0.2100037433
0.2100038532
0.2100040426
0.2100045079
0.2100047198
0.2100048474
0.2100050653
0.210005364
0.2100057317
0.2100062664
0.2100065689
0.2100068494
0.2100069575
0.2100070023
0.2100069864
0.2100070272
0.2100069802
0.2100035191
0.2100033491
0.2100031407
0.2100030243
0.2100029514
0.210002895
0.2100028831
0.2100029893
0.2100033507
0.2100037053
0.2100038554
0.210003938
0.2100040405
0.2100042244
0.2100046025
0.2100048554
0.2100049959
0.2100051877
0.2100054421
0.2100058088
0.2100062852
0.2100066798
0.2100069827
0.2100071402
0.2100071649
0.210006892
0.2100065808
0.2100064861
0.2100063612
0.2100062824
0.2100062974
0.2100064563
0.2100035031
0.2100031702
0.2100028712
0.2100028096
0.2100026859
0.2100025709
0.2100024824
0.2100024919
0.2100028166
0.2100032689
0.2100036888
0.2100039587
0.2100041449
0.2100043272
0.2100045841
0.2100048139
0.2100049996
0.2100052157
0.2100054979
0.2100059228
0.2100064314
0.2100068712
0.2100071348
0.2100071848
0.2100067987
0.2100064226
0.2100063
0.2100062704
0.2100061875
0.2100061041
0.2100060629
0.210006118
0.2100033165
0.2100028121
0.2100025538
0.210002552
0.2100023805
0.2100022728
0.2100021997
0.2100022415
0.2100025588
0.210003006
0.2100034794
0.2100037765
0.2100040069
0.210004221
0.210004464
0.2100047626
0.2100050896
0.2100053788
0.2100056763
0.2100060845
0.2100065469
0.2100068987
0.2100070437
0.2100068284
0.2100063285
0.2100061821
0.2100061499
0.2100061514
0.2100060553
0.2100059944
0.2100058768
0.2100058548
0.2100057795
0.2100030317
0.2100025659
0.2100026123
0.2100028939
0.2100026683
0.2100024457
0.2100023868
0.2100023975
0.2100026884
0.2100031092
0.2100035705
0.2100038163
0.2100040354
0.2100043191
0.2100047407
0.2100052015
0.2100054748
0.2100056063
0.2100057049
0.2100059179
0.2100063103
0.2100066673
0.2100067521
0.2100063914
0.210006092
0.2100060254
0.2100060241
0.2100059993
0.2100059293
0.2100060562
0.2100057175
0.2100056732
0.21000563
0.2100012181
0.2100015023
0.2100017131
0.2100022592
0.2100025417
0.2100026844
0.2100026225
0.2100027275
0.2100030495
0.2100034453
0.2100037512
0.2100040281
0.2100045914
0.2100052324
0.2100053342
0.2100054482
0.2100055999
0.2100055635
0.2100054858
0.2100054914
0.2100057301
0.2100062123
0.210006314
0.2100060405
0.2100058682
0.2100057981
0.2100057676
0.2100056906
0.2100056695
0.2100056182
0.2100055337
0.2100055319
0.2100055622
0.2100028188
0.2100023315
0.2100023641
0.2100028288
0.2100030308
0.2100029975
0.2100029087
0.2100031399
0.210003504
0.2100037737
0.2100040118
0.2100044778
0.2100053103
0.2100054925
0.2100054605
0.2100056013
0.2100054873
0.2100052907
0.2100051586
0.2100051585
0.2100053246
0.2100058403
0.210006032
0.2100058302
0.2100056137
0.2100054364
0.2100053412
0.2100053666
0.2100054383
0.2100054111
0.2100053874
0.2100053995
0.2100053637
0.2100039433
0.2100031947
0.2100031023
0.2100033629
0.2100033907
0.2100032308
0.2100031189
0.2100033817
0.2100037227
0.2100039978
0.2100043389
0.2100050582
0.2100052984
0.2100051834
0.210005077
0.2100049417
0.2100049225
0.2100048409
0.2100048423
0.2100049432
0.2100051191
0.2100055486
0.2100058639
0.2100056511
0.2100053769
0.2100051345
0.2100050063
0.2100051182
0.2100052302
0.2100052514
0.2100052807
0.2100052526
0.2100051181
0.2100045467
0.2100039235
0.2100036521
0.2100037011
0.2100036391
0.2100035308
0.2100035148
0.2100037919
0.2100039999
0.2100042783
0.2100047736
0.2100048749
0.2100047253
0.210004643
0.2100045831
0.2100045434
0.2100046357
0.2100046161
0.2100046887
0.2100048445
0.2100050282
0.2100053269
0.2100057251
0.2100055472
0.2100052222
0.2100049174
0.2100048101
0.2100049874
0.2100050911
0.2100051304
0.210005122
0.2100049823
0.2100046816
0.2100046001
0.2100042807
0.210004013
0.2100039019
0.2100039343
0.2100041718
0.2100045273
0.2100045635
0.2100044801
0.2100046112
0.2100048916
0.2100046792
0.210004574
0.2100044935
0.2100044278
0.2100043626
0.2100043382
0.2100043904
0.2100045609
0.2100047817
0.2100049784
0.2100052401
0.2100054993
0.2100056239
0.2100053664
0.2100050698
0.2100049074
0.2100049562
0.210005002
0.2100050541
0.2100050695
0.2100049979
0.2100047759
0.2100043835
0.2100042742
0.2100041009
0.2100040099
0.2100042034
0.2100045249
0.2100047556
0.2100048815
0.2100047411
0.2100048299
0.2100046894
0.2100045328
0.2100044296
0.2100043432
0.2100041457
0.2100039016
0.2100038095
0.2100039847
0.210004314
0.2100046715
0.2100049494
0.2100052734
0.2100052177
0.2100056388
0.210005675
0.2100054365
0.2100052174
0.2100051082
0.2100050414
0.2100050455
0.2100051146
0.210005141
0.2100050753
0.210004235
0.2100042052
0.2100040998
0.210004089
0.2100043452
0.2100046249
0.2100048317
0.2100050001
0.2100048845
0.210004824
0.2100045519
0.2100043863
0.2100042477
0.2100040386
0.2100037279
0.2100034333
0.210003328
0.2100035602
0.2100040193
0.2100045565
0.2100049951
0.2100053181
0.2100050871
0.2100054075
0.2100056561
0.2100056155
0.2100053673
0.2100051987
0.2100050682
0.2100050382
0.2100050941
0.2100051552
0.2100051935
0.2100042451
0.2100042663
0.210004193
0.210004203
0.2100044152
0.2100046428
0.2100048498
0.2100049999
0.2100048492
0.210004665
0.2100044102
0.2100042036
0.2100039547
0.210003703
0.210003436
0.2100032256
0.2100031871
0.210003446
0.2100039742
0.2100046437
0.2100051106
0.2100053502
0.2100051117
0.2100052501
0.2100053243
0.2100053919
0.210005128
0.210004946
0.2100048768
0.2100049636
0.2100051128
0.2100051055
0.2100051594
0.2100043476
0.2100044573
0.2100044396
0.2100044373
0.2100045551
0.2100047325
0.2100049325
0.2100050022
0.2100048465
0.2100046479
0.2100045632
0.2100045364
0.2100041227
0.2100038214
0.2100036004
0.2100034652
0.2100034853
0.210003774
0.210004422
0.2100049332
0.2100048897
0.2100048435
0.2100048145
0.2100047937
0.2100047905
0.2100050638
0.2100049361
0.2100048446
0.2100048656
0.2100049684
0.2100051176
0.2100051747
0.2100051322
0.2100045058
0.2100047277
0.2100048019
0.2100048086
0.2100048691
0.2100050114
0.2100051325
0.2100049731
0.2100045332
0.2100041743
0.2100040572
0.2100042414
0.2100042793
0.2100039446
0.2100038111
0.2100037486
0.2100038246
0.2100041918
0.210004804
0.2100047845
0.2100043014
0.2100042327
0.2100042722
0.2100041523
0.2100046426
0.2100048933
0.2100048616
0.2100049679
0.2100050174
0.2100050808
0.2100049129
0.2100050916
0.2100052106
0.2100047372
0.2100050049
0.2100051157
0.2100051218
0.2100051335
0.2100052136
0.2100052968
0.2100051286
0.2100046184
0.2100041086
0.2100040105
0.2100045844
0.2100044621
0.2100041875
0.2100040292
0.2100040229
0.2100040872
0.2100044145
0.2100048721
0.2100049733
0.2100046963
0.2100041628
0.2100038475
0.2100050654
0.2100047591
0.210004735
0.2100048221
0.2100048882
0.2100048801
0.210005078
0.2100049746
0.2100048806
0.2100051567
0.2100050087
0.2100052007
0.2100052523
0.2100052344
0.210005224
0.2100052715
0.2100053551
0.2100053403
0.2100050127
0.2100044126
0.2100041129
0.2100047405
0.2100044867
0.210004323
0.2100042299
0.2100042415
0.2100043448
0.2100045308
0.2100045451
0.2100044699
0.2100046025
0.2100046746
0.2100040463
0.2100049713
0.2100045799
0.2100045519
0.2100045479
0.2100045118
0.21000441
0.2100046118
0.2100045836
0.2100044502
0.2100047262
0.2100052247
0.210005308
0.2100052972
0.2100052664
0.2100052619
0.2100053117
0.2100053731
0.2100053978
0.2100053484
0.2100050633
0.2100046703
0.2100048519
0.2100046117
0.210004507
0.2100044542
0.2100044543
0.2100044548
0.210004376
0.2100042029
0.210004042
0.210004105
0.2100046067
0.2100047407
0.2100049463
0.2100046017
0.2100044223
0.2100042806
0.2100041582
0.2100040594
0.2100041713
0.2100041546
0.2100042627
0.2100046514
0.2100053562
0.2100053887
0.2100053626
0.2100053376
0.2100053379
0.2100053678
0.2100053678
0.2100053419
0.2100053247
0.2100052114
0.2100049752
0.2100048873
0.2100048605
0.2100046908
0.21000463
0.2100045562
0.2100044601
0.210004318
0.2100040952
0.2100039054
0.2100039174
0.2100043845
0.2100048607
0.2100047932
0.2100046534
0.210004452
0.2100041695
0.2100039753
0.2100038613
0.2100038591
0.2100039221
0.2100040814
0.2100046012
0.2100054407
0.2100054766
0.2100054601
0.2100054345
0.2100054101
0.2100053861
0.2100053497
0.2100053241
0.2100052866
0.2100051605
0.2100049371
0.2100047092
0.2100046887
0.2100048669
0.2100047106
0.2100045761
0.2100044589
0.2100043301
0.210004117
0.2100039437
0.2100039586
0.2100043658
0.2100047393
0.2100047726
0.2100048791
0.2100044035
0.2100040733
0.2100038635
0.2100037413
0.210003669
0.2100037688
0.2100039616
0.2100042985
0.2100055123
0.2100055754
0.2100055665
0.2100055158
0.2100054599
0.2100054447
0.2100054692
0.2100054558
0.2100052897
0.2100049612
0.2100045553
0.2100043275
0.2100047694
0.2100049177
0.2100048012
0.2100045839
0.2100044764
0.2100043704
0.2100041948
0.2100040599
0.2100041062
0.2100044768
0.2100047848
0.2100047423
0.2100046312
0.2100043763
0.2100040391
0.2100038165
0.2100036889
0.2100036082
0.2100037216
0.2100039248
0.2100041963
0.2100055857
0.2100056779
0.2100056674
0.2100055853
0.2100055252
0.2100055467
0.2100055949
0.2100055538
0.2100053643
0.2100050567
0.2100046801
0.2100044543
0.2100049717
0.2100050132
0.2100049155
0.2100046461
0.2100045226
0.2100044208
0.210004278
0.2100041869
0.2100042843
0.2100046919
0.210004956
0.2100048217
0.2100047164
0.2100047862
0.210004128
0.2100038804
0.2100037211
0.2100036563
0.2100037668
0.2100039556
0.2100041933
0.2100056682
0.2100057754
0.210005764
0.2100056556
0.2100055932
0.2100056479
0.2100057379
0.2100057243
0.2100055565
0.2100053051
0.2100050232
0.2100048327
0.2100051962
0.2100051412
0.2100050266
0.2100047657
0.2100046147
0.2100045049
0.2100043833
0.210004335
0.2100044954
0.2100049457
0.2100054114
0.2100049358
0.2100047921
0.2100046336
0.2100042518
0.2100039968
0.2100038354
0.2100037856
0.210003877
0.2100040181
0.21000421
0.2100057941
0.2100058795
0.2100058739
0.2100057408
0.2100056387
0.2100056821
0.2100058074
0.2100058744
0.210005782
0.2100055827
0.210005369
0.2100052081
0.2100053368
0.2100052364
0.2100051356
0.2100049127
0.2100047497
0.2100046351
0.21000453
0.2100045117
0.2100047001
0.2100051264
0.2100056056
0.2100049405
0.2100048787
0.2100047183
0.210004417
0.2100041676
0.2100040126
0.2100039696
0.2100040309
0.2100041377
0.2100043124
0.210006056
0.2100060638
0.2100060504
0.2100059031
0.2100057174
0.2100056716
0.2100057674
0.2100058828
0.210005899
0.2100057854
0.2100056207
0.2100054627
0.2100053698
0.2100053202
0.2100052412
0.2100050627
0.2100049137
0.2100048066
0.2100047225
0.2100047146
0.2100048571
0.2100050556
0.2100049675
0.2100049929
0.2100049886
0.2100050625
0.210004599
0.2100043639
0.2100042221
0.2100041851
0.2100042328
0.2100044039
0.2100045516
0.2100064817
0.2100064144
0.2100063691
0.2100062458
0.2100059852
0.2100057596
0.2100057128
0.2100057832
0.2100058414
0.2100058164
0.2100057109
0.210005557
0.2100054069
0.2100054061
0.2100053374
0.2100052076
0.2100050949
0.2100050152
0.2100049685
0.2100049875
0.2100050907
0.2100051644
0.2100051277
0.2100050873
0.2100049794
0.2100049394
0.2100047003
0.2100045178
0.2100044148
0.2100043731
0.2100043984
0.2100044601
0.2100045619
0.2100069481
0.2100068492
0.2100067806
0.2100067135
0.2100065189
0.2100061757
0.2100058738
0.2100057529
0.2100057463
0.2100057397
0.2100056833
0.2100055781
0.2100054836
0.2100054851
0.2100054258
0.2100053445
0.210005277
0.2100052356
0.2100052429
0.2100053398
0.2100055315
0.210005392
0.2100053122
0.2100051985
0.2100050433
0.2100049436
0.2100048008
0.2100046347
0.2100045695
0.2100045254
0.2100045454
0.2100045789
0.2100046467
0.2100072435
0.2100071817
0.2100071294
0.2100071038
0.2100070383
0.2100068132
0.2100064221
0.2100060483
0.2100058253
0.2100057243
0.2100056631
0.2100056054
0.2100055636
0.2100055512
0.210005511
0.2100054722
0.2100054457
0.2100054442
0.2100054977
0.2100056566
0.2100057801
0.2100055248
0.2100054923
0.2100053538
0.2100051813
0.2100050699
0.2100048702
0.2100047173
0.2100046843
0.2100046793
0.2100047211
0.210004757
0.2100048012
0.2100073158
0.2100072982
0.2100072872
0.210007289
0.2100072923
0.2100072367
0.2100070216
0.2100066493
0.2100062511
0.2100059466
0.2100057589
0.2100056609
0.2100056188
0.2100056054
0.2100055938
0.2100055901
0.2100055962
0.2100056282
0.2100057367
0.2100059063
0.2100062146
0.210005607
0.2100056663
0.2100055161
0.2100053524
0.2100053263
0.2100049192
0.2100048067
0.2100048032
0.2100048563
0.2100049297
0.2100049634
0.2100049813
0.2100073125
0.2100073105
0.210007315
0.2100073252
0.2100073438
0.210007362
0.2100073339
0.2100071703
0.2100068423
0.2100064422
0.2100060874
0.2100058366
0.2100057057
0.2100056657
0.2100056649
0.2100056792
0.2100056973
0.210005716
0.2100057207
0.2100056319
0.2100056632
0.2100056278
0.2100056567
0.2100055981
0.2100054893
0.2100060254
0.210004991
0.2100049164
0.2100049209
0.2100050282
0.2100051339
0.2100051715
0.2100051604
0.2100037408
0.2100037861
0.2100038123
0.2100038101
0.2100038021
0.2100037673
0.2100037604
0.210003824
0.2100040992
0.2100042267
0.2100043201
0.2100044332
0.2100046134
0.2100049085
0.2100055711
0.2100055449
0.2100054966
0.2100055985
0.2100057553
0.2100060563
0.2100064655
0.21000667
0.2100069474
0.210007063
0.2100070966
0.2100070917
0.210007103
0.2100070816
0.2100036421
0.2100036131
0.2100035765
0.2100035455
0.2100034848
0.2100033775
0.210003307
0.2100033592
0.2100036362
0.2100039918
0.2100042173
0.210004367
0.2100045187
0.210004726
0.2100050966
0.2100052369
0.2100053603
0.21000554
0.2100057903
0.2100061497
0.2100065313
0.2100068384
0.2100070715
0.2100071487
0.2100071556
0.2100070216
0.2100068361
0.2100067707
0.2100066733
0.2100065296
0.2100065197
0.2100066747
0.2100036379
0.2100034549
0.2100033332
0.2100031699
0.2100029795
0.2100027367
0.2100025365
0.2100024951
0.2100027342
0.2100032907
0.2100039109
0.2100042545
0.2100044455
0.2100046088
0.210004803
0.2100049539
0.2100051493
0.2100053957
0.210005728
0.2100061904
0.2100066698
0.2100070175
0.2100071663
0.2100071734
0.2100070043
0.2100067477
0.2100065759
0.2100065185
0.2100064221
0.2100062939
0.2100062878
0.2100063923
0.2100035184
0.2100032778
0.2100031381
0.210002931
0.2100027328
0.2100024894
0.2100023717
0.2100023936
0.2100026632
0.2100032147
0.2100038963
0.2100043067
0.2100044688
0.2100045719
0.2100047201
0.2100049545
0.2100052352
0.2100055181
0.2100058604
0.2100063314
0.2100067856
0.2100070202
0.210007103
0.2100070122
0.2100067093
0.2100065197
0.2100064392
0.2100063913
0.2100062642
0.2100061714
0.2100061387
0.2100062112
0.2100062251
0.2100036627
0.2100035065
0.2100032074
0.2100027262
0.2100024023
0.2100023344
0.2100025413
0.2100025674
0.210002837
0.2100033769
0.2100041895
0.2100045792
0.2100046825
0.2100048271
0.210005154
0.2100055365
0.2100058059
0.2100059849
0.2100061879
0.2100065395
0.2100067928
0.2100069126
0.2100069115
0.2100067002
0.210006471
0.2100063882
0.2100063252
0.2100062518
0.210006138
0.2100058666
0.2100060256
0.2100060754
0.2100061074
0.210004028
0.2100036362
0.2100032748
0.2100029488
0.2100028001
0.2100029309
0.2100031014
0.2100031476
0.2100034553
0.2100040322
0.2100046734
0.2100048843
0.2100053318
0.2100056332
0.2100055191
0.2100056154
0.2100058776
0.2100061393
0.2100060853
0.2100061012
0.2100062896
0.210006592
0.2100066216
0.2100064506
0.2100062949
0.2100061864
0.210006026
0.2100060098
0.2100059437
0.2100058819
0.2100059726
0.2100060938
0.2100061953
0.2100042586
0.2100039601
0.2100037932
0.2100035963
0.2100035442
0.2100035721
0.2100037155
0.2100039814
0.2100044113
0.2100048635
0.2100049477
0.2100052344
0.2100057338
0.2100058227
0.2100057395
0.210005786
0.2100058876
0.2100059335
0.210005866
0.2100058369
0.210005905
0.210006262
0.2100063301
0.2100062631
0.2100061144
0.2100058874
0.2100057016
0.2100056406
0.2100056892
0.2100056393
0.2100057433
0.2100059192
0.2100059667
0.2100043615
0.2100040965
0.2100041722
0.210004022
0.2100039059
0.2100038477
0.2100040227
0.2100045331
0.2100048852
0.2100050121
0.2100050723
0.2100054809
0.2100056005
0.2100056245
0.2100056417
0.2100057334
0.2100058135
0.2100058518
0.2100058505
0.210005823
0.210005774
0.2100059938
0.2100061378
0.2100060652
0.2100057646
0.2100053319
0.2100050367
0.2100051323
0.2100054417
0.2100054308
0.2100054766
0.2100056125
0.2100056225
0.2100042677
0.2100039875
0.2100041245
0.2100040185
0.2100040571
0.2100042062
0.2100046266
0.210005142
0.2100051097
0.2100050292
0.2100052206
0.2100052073
0.2100052654
0.2100054242
0.2100055614
0.2100057575
0.2100060556
0.210005945
0.2100059185
0.2100059113
0.2100057769
0.2100058303
0.2100059601
0.2100058062
0.2100053885
0.2100048578
0.2100046281
0.2100048834
0.2100052412
0.2100052462
0.2100051857
0.2100051214
0.2100047216
0.2100041774
0.2100040281
0.2100041436
0.210004215
0.2100045068
0.2100049133
0.2100051312
0.210005224
0.210005311
0.210005136
0.2100051925
0.2100051814
0.2100054335
0.2100056298
0.2100055537
0.2100054035
0.2100053908
0.2100054399
0.2100056142
0.210005836
0.2100057898
0.210005762
0.2100058177
0.2100057907
0.210005553
0.2100051869
0.2100048168
0.2100048788
0.2100051755
0.2100051176
0.2100050436
0.2100050515
0.2100047603
0.2100041552
0.2100041403
0.2100042571
0.2100044676
0.2100048551
0.2100051173
0.2100051462
0.2100052083
0.2100053734
0.2100051513
0.210005087
0.2100052398
0.2100053689
0.2100052811
0.2100048668
0.2100043332
0.210004236
0.2100045686
0.2100051528
0.2100055855
0.2100057262
0.2100058014
0.2100057894
0.2100058495
0.2100057957
0.2100056206
0.2100053437
0.2100051965
0.2100051857
0.2100051537
0.210005249
0.210005427
0.2100054653
0.2100041859
0.2100042577
0.2100043907
0.2100046611
0.210005023
0.2100052155
0.2100052406
0.2100052965
0.2100052665
0.2100051358
0.210005144
0.2100051707
0.210005016
0.2100046798
0.2100040427
0.2100035353
0.2100034252
0.2100037553
0.2100045036
0.2100052547
0.2100055678
0.2100057816
0.2100058355
0.2100058251
0.2100058058
0.2100057601
0.2100055744
0.2100053982
0.2100052746
0.2100052543
0.2100053741
0.2100054702
0.210005539
0.2100042404
0.210004359
0.2100045019
0.2100047687
0.2100050893
0.2100052477
0.2100052931
0.2100052009
0.2100051121
0.2100050202
0.2100049985
0.2100048845
0.210004592
0.2100041375
0.2100036582
0.2100033221
0.210003318
0.2100036872
0.210004447
0.2100052284
0.2100056614
0.2100057124
0.2100054113
0.2100058699
0.210005698
0.2100055878
0.2100054237
0.2100053142
0.2100052456
0.2100052679
0.2100053176
0.2100052505
0.2100052557
0.210004321
0.2100044931
0.2100046597
0.2100048794
0.210005114
0.2100051817
0.2100051837
0.2100051416
0.2100051339
0.210005306
0.2100055117
0.2100050748
0.2100044924
0.2100042129
0.2100038574
0.2100036722
0.210003753
0.2100041254
0.2100047966
0.2100052295
0.2100057924
0.210005428
0.2100056865
0.2100060409
0.2100056255
0.2100054221
0.2100052674
0.2100052882
0.2100053316
0.2100053159
0.2100052445
0.2100051447
0.2100050386
0.2100044716
0.2100047266
0.2100049215
0.2100050398
0.2100050692
0.2100050165
0.2100050097
0.210005021
0.2100051446
0.2100053013
0.210005302
0.210005047
0.2100048195
0.210004374
0.2100042353
0.2100041756
0.210004298
0.2100045902
0.2100049611
0.2100053274
0.2100056544
0.2100058454
0.2100056116
0.2100058826
0.2100054919
0.2100053803
0.2100053885
0.2100054291
0.2100053755
0.2100053627
0.2100052634
0.2100051592
0.2100051429
0.2100047189
0.2100050089
0.2100051592
0.2100051515
0.2100050518
0.2100049621
0.2100049808
0.2100050613
0.2100053484
0.2100053854
0.2100053046
0.2100048586
0.2100049108
0.2100047491
0.2100046601
0.2100046748
0.2100047795
0.2100049313
0.2100050772
0.2100050058
0.2100050184
0.2100052579
0.21000587
0.2100056121
0.2100053105
0.2100054087
0.2100053436
0.2100052756
0.2100051212
0.2100052975
0.2100053624
0.2100052808
0.2100052951
0.2100050121
0.2100052463
0.2100053055
0.2100052194
0.210005094
0.2100050433
0.2100050705
0.2100050578
0.2100051769
0.2100052876
0.210005382
0.210005031
0.2100049855
0.2100049888
0.2100049514
0.2100049599
0.2100049593
0.2100049681
0.2100048278
0.2100045574
0.2100044986
0.2100048848
0.2100056159
0.2100053941
0.2100052809
0.2100055243
0.2100051325
0.210004912
0.2100046993
0.2100049808
0.2100053766
0.2100055052
0.2100053723
0.2100052622
0.2100054255
0.2100054353
0.2100053403
0.2100052425
0.210005233
0.2100052806
0.2100052576
0.210005252
0.2100053143
0.2100053572
0.2100051501
0.2100051191
0.210005149
0.2100050733
0.2100050443
0.2100049858
0.2100048549
0.2100045014
0.2100041881
0.2100041815
0.2100045873
0.2100053119
0.2100052707
0.2100051764
0.2100050999
0.2100047676
0.2100044925
0.2100042723
0.2100044837
0.2100048656
0.2100051498
0.2100052806
0.2100054355
0.2100055797
0.2100056013
0.2100055331
0.2100054527
0.2100054165
0.2100054195
0.2100053824
0.2100053561
0.2100053324
0.2100052598
0.2100050883
0.2100050155
0.2100051518
0.2100051296
0.21000511
0.2100050253
0.2100047421
0.210004323
0.2100040359
0.2100040635
0.2100045033
0.2100051839
0.2100051637
0.2100050597
0.2100048352
0.2100044121
0.2100041215
0.2100039387
0.2100040437
0.2100043536
0.2100047174
0.210004909
0.2100055506
0.2100057236
0.2100057841
0.2100057381
0.2100056401
0.2100055494
0.2100055106
0.2100054925
0.2100054688
0.2100053867
0.2100051113
0.2100047533
0.2100047835
0.2100051973
0.2100051543
0.2100051631
0.2100050737
0.2100047267
0.2100043055
0.2100040496
0.2100041223
0.210004588
0.2100050475
0.2100051708
0.2100049582
0.2100045199
0.2100041274
0.2100038639
0.2100037098
0.2100037686
0.2100040292
0.2100043594
0.2100046251
0.2100056331
0.2100058524
0.2100059474
0.2100059015
0.2100057807
0.2100056692
0.2100056409
0.2100056511
0.2100056506
0.2100055113
0.2100051328
0.2100047874
0.2100048763
0.2100053171
0.2100051861
0.2100051636
0.2100050946
0.2100047692
0.2100043997
0.2100042026
0.2100043392
0.2100048271
0.2100051215
0.2100051893
0.2100049456
0.2100044515
0.2100040821
0.2100037807
0.2100036151
0.2100036581
0.2100038873
0.2100042046
0.2100045104
0.2100056996
0.2100059521
0.2100060691
0.2100060191
0.2100058959
0.2100058064
0.2100058094
0.2100058668
0.2100059425
0.2100058312
0.2100054541
0.2100051631
0.2100052218
0.2100053973
0.2100052237
0.2100051443
0.2100050692
0.2100047884
0.2100044856
0.2100043414
0.2100044755
0.2100048531
0.2100051766
0.2100052055
0.2100049434
0.2100046764
0.2100041852
0.2100038869
0.2100036701
0.2100036937
0.2100038839
0.2100041726
0.2100044943
0.2100057798
0.2100060287
0.2100061474
0.2100060973
0.2100059846
0.2100059242
0.2100059587
0.2100060197
0.2100061064
0.210006087
0.2100058484
0.2100055858
0.2100055082
0.210005431
0.2100052671
0.2100051644
0.210005063
0.2100048168
0.2100045604
0.2100044452
0.2100045482
0.210004826
0.2100051623
0.2100051896
0.2100050944
0.2100049529
0.2100044701
0.2100041164
0.2100038624
0.2100038538
0.2100039945
0.210004253
0.2100045372
0.2100059536
0.2100061442
0.2100062353
0.2100061798
0.2100060656
0.2100060114
0.2100060722
0.2100061376
0.2100061504
0.2100061132
0.2100059824
0.2100057597
0.2100056034
0.2100054528
0.2100053375
0.2100052391
0.2100051199
0.2100049008
0.2100046707
0.2100045628
0.2100046345
0.2100048183
0.2100051112
0.2100051298
0.210005224
0.2100049963
0.210004738
0.2100043863
0.210004136
0.2100041067
0.2100042022
0.210004486
0.2100047992
0.2100062905
0.2100063909
0.2100064205
0.2100063548
0.2100062168
0.2100061093
0.2100061241
0.2100061965
0.2100061608
0.2100060223
0.2100058919
0.2100057389
0.2100056131
0.210005503
0.2100054427
0.2100053623
0.2100052451
0.2100050558
0.2100048554
0.2100047346
0.2100047262
0.2100048169
0.2100049557
0.2100050262
0.2100053254
0.2100054022
0.2100049497
0.2100046698
0.2100044345
0.2100043895
0.2100044534
0.2100046598
0.2100050364
0.2100067427
0.2100067613
0.2100067261
0.2100066686
0.2100065353
0.2100063499
0.2100062199
0.2100061767
0.2100061209
0.2100059779
0.2100058247
0.2100057081
0.2100056286
0.2100055926
0.2100055705
0.2100055167
0.2100054214
0.2100052823
0.2100051332
0.2100050231
0.210004943
0.2100049167
0.2100050575
0.2100052195
0.2100053822
0.2100055133
0.2100051622
0.2100048754
0.2100047041
0.2100046672
0.2100047179
0.2100048533
0.2100051367
0.2100071315
0.2100070894
0.2100070339
0.2100070021
0.2100069409
0.2100067817
0.2100065333
0.2100062964
0.2100061052
0.2100059331
0.2100057951
0.2100057139
0.2100056867
0.2100056947
0.210005697
0.2100056736
0.2100056194
0.2100055458
0.2100054728
0.2100054085
0.2100052858
0.2100053383
0.2100053166
0.2100054167
0.2100054899
0.2100055568
0.2100054129
0.2100050401
0.2100049267
0.2100049142
0.2100049646
0.210005016
0.2100050793
0.2100072458
0.2100072122
0.2100071907
0.2100071904
0.2100071978
0.2100071514
0.2100069712
0.2100066675
0.2100063351
0.2100060511
0.2100058585
0.2100057703
0.2100057584
0.2100057779
0.2100057965
0.2100058026
0.2100057944
0.2100057845
0.2100057876
0.2100058033
0.2100061564
0.2100057042
0.2100055864
0.2100055813
0.210005568
0.2100056041
0.2100057086
0.2100051487
0.2100050803
0.2100050956
0.2100051639
0.2100051718
0.2100051665
0.2100071829
0.2100071798
0.2100071873
0.2100072064
0.2100072412
0.2100072739
0.2100072443
0.2100070697
0.2100067501
0.2100063763
0.2100060646
0.2100058806
0.2100058138
0.2100058174
0.2100058446
0.2100058749
0.2100059021
0.2100059282
0.2100059379
0.210005827
0.2100058437
0.2100058996
0.2100057749
0.2100056928
0.2100056146
0.2100057444
0.2100053674
0.2100051235
0.2100050922
0.2100051685
0.2100052725
0.2100052783
0.2100052484
0.2100071195
0.2100071306
0.2100071462
0.2100071708
0.2100072109
0.2100072673
0.2100073241
0.2100073125
0.210007134
0.2100067817
0.2100063871
0.2100060795
0.2100058985
0.2100058266
0.2100058224
0.2100058455
0.2100058716
0.2100058854
0.2100058658
0.210005783
0.2100055758
0.2100057009
0.2100056888
0.2100056104
0.2100055291
0.2100050483
0.2100050668
0.2100050063
0.2100050475
0.2100051703
0.2100052907
0.2100053294
0.2100053005
0.2100038713
0.2100039821
0.2100040571
0.2100041047
0.2100040954
0.2100040309
0.2100039925
0.2100040192
0.2100042259
0.2100043779
0.2100045558
0.2100047147
0.2100048968
0.2100052478
0.2100058132
0.2100058725
0.2100058769
0.2100059938
0.2100061525
0.2100064207
0.2100067134
0.2100067936
0.2100069772
0.2100070239
0.2100070239
0.2100070228
0.2100070267
0.2100070264
0.2100070349
0.2100037731
0.2100037506
0.2100037121
0.2100036815
0.2100035918
0.2100034232
0.2100032475
0.2100031506
0.2100032223
0.2100035632
0.2100040871
0.2100044482
0.2100046871
0.2100049263
0.2100052102
0.210005436
0.2100056513
0.2100058878
0.2100061684
0.2100064965
0.2100067788
0.2100069722
0.2100070458
0.2100070363
0.210007017
0.2100069712
0.2100068794
0.2100068549
0.210006823
0.2100067156
0.2100066949
0.2100068249
0.2100037009
0.2100035037
0.2100033272
0.2100031479
0.2100029043
0.2100026139
0.2100023826
0.2100023575
0.2100025993
0.2100030469
0.2100037365
0.2100042996
0.2100045836
0.2100047867
0.2100049591
0.2100051221
0.2100053371
0.2100056209
0.2100060177
0.2100064909
0.2100068696
0.2100070448
0.2100070688
0.2100070373
0.2100069631
0.2100068149
0.2100066815
0.2100066358
0.2100065779
0.2100064711
0.2100064788
0.2100065888
0.2100035753
0.2100033146
0.2100030958
0.2100028807
0.210002612
0.210002377
0.2100022862
0.2100023537
0.2100026601
0.2100031572
0.2100038823
0.2100044566
0.2100046874
0.2100048188
0.2100049697
0.210005187
0.210005437
0.2100057283
0.2100061157
0.2100065898
0.2100068883
0.2100069625
0.2100070009
0.2100069847
0.2100068214
0.2100066492
0.2100065352
0.2100064525
0.2100063021
0.2100063509
0.2100063756
0.210006481
0.2100065617
0.2100036644
0.2100034028
0.2100028806
0.2100022713
0.2100019909
0.2100020998
0.2100023678
0.2100025119
0.2100028299
0.2100033794
0.2100044395
0.2100049814
0.2100050846
0.2100052376
0.2100055185
0.2100057915
0.2100060024
0.2100062147
0.2100064914
0.2100067839
0.2100068355
0.2100068599
0.2100068847
0.210006808
0.2100066331
0.2100064928
0.2100063607
0.2100062965
0.2100062631
0.2100061543
0.2100062863
0.2100063501
0.210006388
0.2100038153
0.210003556
0.2100030639
0.2100026763
0.2100025612
0.2100027348
0.2100030844
0.2100031919
0.2100035597
0.2100041807
0.2100051091
0.2100054022
0.2100057145
0.2100056576
0.2100054874
0.2100055671
0.2100058581
0.2100063726
0.2100064613
0.2100065586
0.2100067001
0.2100068463
0.2100068021
0.2100066551
0.210006474
0.2100062666
0.2100059637
0.2100060468
0.2100061429
0.2100061411
0.2100062798
0.2100063905
0.2100064978
0.2100040444
0.2100039486
0.2100038078
0.2100036459
0.2100035828
0.2100037679
0.210004077
0.2100044072
0.2100050296
0.2100055094
0.2100055199
0.2100056896
0.2100059384
0.2100059118
0.2100057625
0.21000573
0.2100058372
0.2100062128
0.2100062623
0.2100063192
0.210006373
0.2100066526
0.2100065631
0.2100064999
0.210006296
0.2100060229
0.2100057614
0.2100057708
0.2100058706
0.2100058632
0.2100059693
0.2100061565
0.2100062049
0.2100040988
0.2100040944
0.2100043162
0.2100043907
0.2100042994
0.2100043469
0.2100046521
0.2100052153
0.21000557
0.210005571
0.2100055412
0.2100057736
0.210005812
0.210005853
0.2100059127
0.2100060517
0.2100061346
0.2100061982
0.2100062604
0.2100062406
0.210006182
0.2100063171
0.2100063777
0.2100063372
0.2100059936
0.2100054126
0.2100049842
0.2100051744
0.2100055599
0.2100055917
0.2100056728
0.2100058158
0.2100058343
0.2100041042
0.2100041443
0.2100043634
0.2100045249
0.210004636
0.2100049137
0.2100052161
0.2100051122
0.210005257
0.2100054747
0.2100055562
0.2100054832
0.2100055415
0.210005751
0.2100059948
0.2100061999
0.2100063708
0.2100064412
0.2100063209
0.2100062025
0.2100061077
0.2100061545
0.2100062234
0.2100061518
0.2100056723
0.2100048613
0.2100045619
0.2100048866
0.2100052524
0.2100052182
0.2100051036
0.2100050505
0.2100047132
0.2100041428
0.2100042351
0.210004442
0.210004689
0.2100049939
0.2100051611
0.2100050802
0.2100050129
0.2100052132
0.2100054388
0.2100054343
0.2100054383
0.2100056919