/*--------------------------------*- C++ -*----------------------------------*\
  =========                 |
  \\      /  F ield         | OpenFOAM: The Open Source CFD Toolbox
   \\    /   O peration     | Website:  https://openfoam.org
    \\  /    A nd           | Version:  8
     \\/     M anipulation  |
\*---------------------------------------------------------------------------*/
FoamFile
{
    version     2.0;
    format      ascii;
    class       volScalarField;
    location    "0.6";
    object      p_rgh;
}
// * * * * * * * * * * * * * * * * * * * * * * * * * * * * * * * * * * * * * //

dimensions      [1 -1 -2 0 0 0 0];

internalField   nonuniform List<scalar> 
67286
(
100004.0424
100003.8939
100003.8883
100003.8448
100003.8483
100003.8496
100003.8685
100003.8992
100003.8778
100003.8445
100003.7943
100003.7646
100003.7565
100003.7599
100003.828
100003.746
100003.7691
100003.7973
100003.8228
100003.83
100003.8145
100003.84
100003.8299
100003.8425
100003.8505
100003.8538
100003.8561
100003.8544
100003.9897
100003.8789
100003.872
100003.8511
100003.8654
100003.8767
100003.8969
100003.8831
100003.9045
100003.8695
100003.8255
100003.7851
100003.7655
100003.7532
100003.7377
100003.75
100003.7772
100003.8036
100003.8264
100003.8438
100003.8365
100003.837
100003.8437
100003.8513
100003.8568
100003.8564
100003.8538
100003.8518
100003.8502
100003.8567
100003.8585
100003.8641
100004.0147
100003.9059
100003.909
100003.9053
100003.938
100003.962
100003.9821
100003.9782
100003.929
100003.871
100003.8124
100003.7825
100003.7756
100003.7755
100003.7785
100003.7844
100003.8061
100003.8266
100003.8444
100003.8561
100003.8548
100003.8626
100003.8569
100003.8582
100003.8554
100003.8514
100003.8449
100003.8456
100003.8366
100003.8648
100003.8526
100003.8568
100004.0569
100003.9093
100003.924
100003.9439
100003.9789
100004.0077
100004.0224
100004.0095
100003.9702
100003.8857
100003.796
100003.7661
100003.7797
100003.794
100003.8057
100003.8147
100003.8262
100003.8387
100003.852
100003.8605
100003.8614
100003.8643
100003.8595
100003.8588
100003.8533
100003.8482
100003.8442
100003.8498
100003.8565
100003.8451
100003.8499
100003.8558
100003.8532
100004.095
100003.9304
100004.0297
100004.0629
100004.0794
100004.0512
100004.0049
100003.9773
100003.9288
100003.8579
100003.7814
100003.767
100003.7905
100003.8122
100003.8296
100003.839
100003.8344
100003.8385
100003.8469
100003.8547
100003.8576
100003.8579
100003.8556
100003.8539
100003.8469
100003.8436
100003.8404
100003.8671
100003.8387
100004.0372
100003.8484
100003.8634
100003.8337
100004.2849
100004.1209
100004.2824
100004.2008
100004.0739
100003.9762
100003.9173
100003.8862
100003.8477
100003.7953
100003.7639
100003.7925
100003.8303
100003.8512
100003.8537
100003.8409
100003.8292
100003.8283
100003.8389
100003.8479
100003.8545
100003.8583
100003.856
100003.8523
100003.8472
100003.8449
100003.8493
100003.8485
100003.8409
100003.8553
100003.8456
100003.8463
100003.8442
100004.2626
100004.1076
100004.2233
100004.0794
100003.9271
100003.8688
100003.8495
100003.8236
100003.7992
100003.7754
100003.7871
100003.8298
100003.8474
100003.8437
100003.8468
100003.8503
100003.845
100003.8378
100003.8384
100003.8434
100003.8508
100003.86
100003.8557
100003.8491
100003.8449
100003.8412
100003.8396
100003.8404
100003.8372
100003.8506
100003.833
100003.828
100003.8161
100004.066
100003.8669
100003.9319
100003.8424
100003.822
100003.8357
100003.8348
100003.8125
100003.7953
100003.7957
100003.8247
100003.8671
100003.858
100003.8527
100003.8508
100003.8457
100003.8349
100003.8316
100003.8315
100003.8367
100003.846
100003.8566
100003.8604
100003.8509
100003.8484
100003.8448
100003.8436
100003.8411
100003.8349
100003.8297
100003.8221
100003.818
100003.8159
100003.9426
100003.7949
100003.8032
100003.7896
100003.8323
100003.862
100003.8701
100003.8676
100003.84
100003.8399
100003.8743
100003.8839
100003.853
100003.8459
100003.8394
100003.8305
100003.8278
100003.8265
100003.8265
100003.8316
100003.8423
100003.8555
100003.8687
100003.8582
100003.8543
100003.8512
100003.848
100003.8418
100003.83
100003.8176
100003.8106
100003.8138
100003.8231
100003.9022
100003.81
100003.8209
100003.8232
100003.863
100003.9014
100003.9096
100003.8952
100003.8629
100003.8653
100003.899
100003.8669
100003.8433
100003.8315
100003.8323
100003.8401
100003.8447
100003.8434
100003.8373
100003.8358
100003.8416
100003.8529
100003.8661
100003.8673
100003.8604
100003.8582
100003.8519
100003.8434
100003.8287
100003.8181
100003.8178
100003.8237
100003.8396
100003.9006
100003.8352
100003.8425
100003.8323
100003.8528
100003.8784
100003.8852
100003.8738
100003.8691
100003.9202
100003.9127
100003.8606
100003.8483
100003.8491
100003.8681
100003.8927
100003.8971
100003.8873
100003.8684
100003.8582
100003.851
100003.8636
100003.8557
100003.8671
100003.8695
100003.8716
100003.8629
100003.8526
100003.8401
100003.8267
100003.8204
100003.8197
100003.8263
100003.9066
100003.8535
100003.8482
100003.8282
100003.8366
100003.8529
100003.858
100003.8634
100003.9026
100003.9344
100003.8881
100003.8664
100003.8651
100003.8783
100003.911
100003.9414
100003.9485
100003.9383
100003.9121
100003.8965
100003.8715
100003.8737
100003.7938
100003.8288
100003.8585
100003.8765
100003.8666
100003.8542
100003.8465
100003.8405
100003.8382
100003.8419
100003.8525
100003.9122
100003.8658
100003.8545
100003.8361
100003.8384
100003.8478
100003.8582
100003.8837
100003.9215
100003.9083
100003.8762
100003.8723
100003.8817
100003.9045
100003.9333
100003.9621
100003.9674
100003.9612
100003.9487
100003.9438
100003.9059
100003.9605
100003.9757
100003.8249
100003.8815
100003.893
100003.8825
100003.8552
100003.8531
100003.8534
100003.8562
100003.8644
100003.8789
100003.9161
100003.876
100003.8638
100003.85
100003.8514
100003.8615
100003.8725
100003.8691
100003.8539
100003.851
100003.9
100003.944
100003.9514
100003.9279
100003.9393
100003.9516
100003.9555
100003.9577
100003.9552
100003.9487
100003.9053
100004.1121
100004.1406
100003.8585
100003.9395
100003.9469
100003.9339
100003.8499
100003.8424
100003.844
100003.8651
100003.8864
100003.9062
100003.9176
100003.8838
100003.8721
100003.8614
100003.8668
100003.884
100003.8832
100003.8371
100003.8152
100003.9854
100004.1577
100004.0535
100003.937
100003.9433
100003.9279
100003.9325
100003.9356
100003.9523
100003.9424
100003.924
100003.9142
100003.982
100004.0434
100003.9324
100004.0303
100003.966
100003.9078
100003.8708
100003.8766
100003.8524
100003.8481
100003.881
100003.8894
100003.9155
100003.8856
100003.8738
100003.8629
100003.8645
100003.8724
100003.8602
100003.8188
100003.8201
100004.0109
100004.0917
100003.9927
100003.9044
100003.9319
100003.9067
100003.9144
100003.9212
100003.9382
100003.9422
100003.9571
100003.9573
100003.9593
100003.9353
100003.9814
100003.977
100003.9201
100003.9166
100003.9434
100003.9702
100003.9356
100003.8735
100003.9112
100003.9033
100003.9109
100003.8819
100003.8708
100003.8612
100003.8622
100003.869
100003.8684
100003.848
100003.8201
100003.8589
100003.834
100003.8945
100003.8988
100003.9039
100003.9009
100003.9091
100003.9218
100003.9384
100003.9423
100003.9639
100003.9908
100003.9868
100004.0106
100003.991
100003.9731
100003.9647
100003.9588
100004.0021
100004.0231
100003.9795
100003.888
100003.926
100003.8707
100003.9049
100003.8753
100003.8653
100003.8569
100003.8583
100003.8645
100003.8675
100003.8647
100003.8724
100003.905
100003.9183
100003.9175
100003.9186
100003.9136
100003.9144
100003.9208
100003.9336
100003.9473
100003.9697
100004.0011
100004.0297
100003.9925
100004.0423
100003.9936
100003.974
100003.961
100003.9797
100004.0284
100004.0509
100004.0294
100003.9602
100004.0064
100003.9244
100003.8995
100003.8696
100003.8606
100003.8525
100003.8538
100003.8577
100003.8558
100003.85
100003.8618
100003.9014
100003.9522
100003.9447
100003.943
100003.9323
100003.9304
100003.9257
100003.9296
100003.9493
100003.9901
100004.0227
100004.0385
100003.9996
100004.0621
100004.0286
100004.0199
100004.0144
100004.0268
100004.0599
100004.0575
100004.0266
100003.9685
100003.9747
100003.9873
100003.8969
100003.8671
100003.8579
100003.8482
100003.8471
100003.8447
100003.8322
100003.814
100003.8319
100003.9006
100003.9882
100004.0186
100003.9685
100003.9258
100003.9462
100003.9246
100003.9273
100003.9516
100003.9947
100004.024
100004.035
100004.0121
100004.0877
100004.0832
100004.2538
100004.0934
100004.0669
100004.0727
100004.053
100004.0121
100003.955
100003.9267
100003.9286
100003.8991
100003.8691
100003.8588
100003.8464
100003.8413
100003.8317
100003.8089
100003.791
100003.8401
100003.956
100004.0932
100004.1238
100003.9733
100003.9301
100003.9585
100003.9276
100003.9276
100003.9504
100003.9874
100004.0145
100004.0284
100004.0357
100004.0976
100004.0798
100004.1061
100004.1127
100004.0832
100004.0759
100004.0413
100003.9929
100003.9338
100003.8892
100003.883
100003.9059
100003.8752
100003.8627
100003.8454
100003.8319
100003.8128
100003.79
100003.7956
100003.8652
100003.9838
100004.1015
100004.0923
100003.9071
100003.9168
100003.9521
100003.9302
100003.9283
100003.9494
100003.9819
100004.0113
100004.0395
100004.0785
100004.1597
100004.1087
100004.1273
100004.3416
100004.0956
100004.0748
100004.023
100003.972
100003.9147
100003.87
100003.8667
100003.9138
100003.8837
100003.8699
100003.8493
100003.8304
100003.808
100003.7864
100003.7915
100003.838
100003.9177
100003.9946
100003.967
100003.8396
100003.9078
100003.9378
100003.9251
100003.9275
100003.949
100003.9802
100004.0154
100004.0619
100004.1414
100004.4186
100004.1421
100004.1247
100004.1419
100004.0673
100004.0411
100003.9973
100003.9498
100003.8993
100003.8681
100003.8718
100003.9187
100003.893
100003.8807
100003.8605
100003.8397
100003.8164
100003.7928
100003.7858
100003.8054
100003.846
100003.8869
100003.8592
100003.8107
100003.9002
100003.9212
100003.9179
100003.9258
100003.9478
100003.9781
100004.0157
100004.0688
100004.1657
100004.5016
100004.0972
100004.1077
100004.1012
100004.042
100004.0084
100003.9703
100003.9301
100003.8991
100003.888
100003.9079
100003.9176
100003.9025
100003.8941
100003.8785
100003.8594
100003.8372
100003.814
100003.7946
100003.7909
100003.8028
100003.8172
100003.8066
100003.8235
100003.8937
100003.909
100003.9128
100003.9242
100003.9454
100003.9749
100004.0079
100004.037
100004.0192
100004.0506
100004.0803
100004.106
100004.2253
100004.032
100003.9863
100003.946
100003.9085
100003.8827
100003.8693
100003.8788
100003.9158
100003.9078
100003.9058
100003.8984
100003.8867
100003.8679
100003.8467
100003.8263
100003.8099
100003.8042
100003.808
100003.8224
100003.8507
100003.8937
100003.9056
100003.9132
100003.9273
100003.9505
100003.9846
100004.0253
100004.0404
100004.0719
100003.9496
100004.0491
100004.0383
100004.0617
100003.9983
100003.9609
100003.929
100003.8937
100003.8703
100003.8513
100003.8191
100003.917
100003.9111
100003.9124
100003.911
100003.9092
100003.9007
100003.8857
100003.8682
100003.8536
100003.8451
100003.8467
100003.8641
100003.8801
100003.9032
100003.9107
100003.9194
100003.9357
100003.9639
100004.0118
100004.0925
100004.1964
100004.0389
100004.0363
100004.0348
100004.0332
100004.0378
100004.0093
100003.9589
100003.9317
100003.8971
100003.8776
100003.8612
100003.8435
100003.9172
100003.9144
100003.9166
100003.9179
100003.9209
100003.9219
100003.9181
100003.9098
100003.9005
100003.8945
100003.8951
100003.9045
100003.9107
100003.9216
100003.926
100003.9343
100003.9514
100003.9846
100004.047
100004.1532
100004.2616
100004.0516
100004.0672
100004.0606
100004.065
100004.1036
100004.0461
100003.9971
100003.9607
100003.9275
100003.9077
100003.8915
100003.8792
100003.9163
100003.9152
100003.9175
100003.9201
100003.9249
100003.93
100003.9335
100003.9341
100003.9332
100003.9327
100003.9337
100003.9351
100003.935
100003.9388
100003.9411
100003.9481
100003.9639
100003.9987
100004.0799
100004.1754
100004.456
100004.0256
100004.1056
100004.0883
100004.0992
100004.231
100004.0651
100004.0567
100003.9957
100003.9611
100003.9371
100003.9196
100003.9066
100003.9162
100003.9159
100003.9183
100003.9213
100003.9269
100003.9346
100003.9441
100003.9543
100003.9638
100003.9706
100003.9749
100003.9772
100003.9768
100003.979
100003.9804
100003.9852
100003.9942
100004.0077
100004.019
100003.9583
100004.0444
100004.0421
100004.1192
100004.1687
100004.1969
100004.7303
100004.1563
100004.2059
100004.0929
100004.047
100004.0083
100003.9806
100003.963
100003.8773
100003.821
100003.816
100003.7823
100003.7756
100003.7632
100003.7642
100003.7657
100003.7632
100003.7389
100003.7152
100003.7046
100003.7076
100003.713
100003.7417
100003.7045
100003.7244
100003.7499
100003.7667
100003.7933
100003.7946
100003.7623
100003.792
100003.8136
100003.836
100003.8422
100003.8453
100003.8457
100003.878
100003.801
100003.7994
100003.7848
100003.7867
100003.7812
100003.7815
100003.7681
100003.7847
100003.776
100003.7491
100003.7203
100003.7121
100003.7093
100003.6989
100003.7179
100003.7372
100003.7732
100003.8019
100003.8271
100003.8242
100003.7903
100003.8186
100003.8295
100003.8434
100003.8439
100003.8418
100003.8398
100003.8342
100003.8434
100003.8512
100003.8587
100003.8902
100003.7983
100003.8189
100003.8242
100003.8287
100003.8273
100003.8267
100003.811
100003.7798
100003.7456
100003.7215
100003.7141
100003.7261
100003.7372
100003.7385
100003.745
100003.7787
100003.8064
100003.8294
100003.8453
100003.8464
100003.8418
100003.8436
100003.8464
100003.8443
100003.8402
100003.8315
100003.8309
100003.8179
100003.8302
100003.8407
100003.8482
100003.8025
100003.7163
100003.7801
100003.8116
100003.8423
100003.8473
100003.8416
100003.8217
100003.7921
100003.7492
100003.7112
100003.7054
100003.7284
100003.7537
100003.771
100003.786
100003.8007
100003.8174
100003.8355
100003.8492
100003.8527
100003.8498
100003.8486
100003.8484
100003.8417
100003.8365
100003.8287
100003.8307
100003.828
100003.8062
100003.8338
100003.8383
100003.8398
100003.7713
100003.748
100003.8372
100003.8754
100003.8871
100003.8589
100003.8328
100003.8034
100003.7708
100003.7341
100003.702
100003.7072
100003.7317
100003.7654
100003.7953
100003.8027
100003.8014
100003.8082
100003.8252
100003.8414
100003.8495
100003.8538
100003.8485
100003.8455
100003.8355
100003.8325
100003.8247
100003.8248
100003.8029
100003.6911
100003.8061
100003.8032
100003.7911
100003.7243
100003.7116
100003.8066
100003.815
100003.8457
100003.8076
100003.7796
100003.7609
100003.7349
100003.7117
100003.6971
100003.7188
100003.769
100003.8025
100003.7956
100003.7922
100003.7924
100003.8004
100003.8147
100003.8311
100003.8443
100003.8572
100003.8484
100003.8428
100003.8366
100003.8348
100003.8341
100003.8309
100003.8263
100003.8209
100003.82
100003.8148
100003.8397
100003.7383
100003.6951
100003.7746
100003.7451
100003.7538
100003.7368
100003.7468
100003.7435
100003.7279
100003.7175
100003.7074
100003.7494
100003.7848
100003.79
100003.7986
100003.8052
100003.8067
100003.806
100003.8116
100003.823
100003.8314
100003.8638
100003.8436
100003.8411
100003.8348
100003.8321
100003.8273
100003.8264
100003.8136
100003.8
100003.7876
100003.7854
100003.7798
100003.6579
100003.6138
100003.6955
100003.6597
100003.7031
100003.7302
100003.7464
100003.7457
100003.7305
100003.7198
100003.7404
100003.8034
100003.8103
100003.8076
100003.8032
100003.7985
100003.7953
100003.7999
100003.8019
100003.8109
100003.8162
100003.8391
100003.8403
100003.8387
100003.8359
100003.8338
100003.8293
100003.825
100003.8127
100003.8014
100003.8015
100003.8055
100003.8076
100003.6813
100003.5922
100003.6791
100003.6617
100003.7409
100003.7882
100003.8139
100003.8056
100003.7804
100003.768
100003.8084
100003.8173
100003.7984
100003.7919
100003.7889
100003.7916
100003.7968
100003.8016
100003.802
100003.8082
100003.809
100003.83
100003.8383
100003.84
100003.8369
100003.8359
100003.8283
100003.8208
100003.8021
100003.7937
100003.785
100003.7804
100003.7623
100003.7629
100003.659
100003.6996
100003.7213
100003.7832
100003.8152
100003.8226
100003.8012
100003.7818
100003.7817
100003.8327
100003.8009
100003.7903
100003.7856
100003.792
100003.7989
100003.805
100003.809
100003.8072
100003.8113
100003.8047
100003.8165
100003.7969
100003.8352
100003.8326
100003.8386
100003.8274
100003.8184
100003.8046
100003.7992
100003.7927
100003.7889
100003.7828
100003.8271
100003.7454
100003.7504
100003.7528
100003.7789
100003.7942
100003.8006
100003.7957
100003.7884
100003.8265
100003.8241
100003.794
100003.7916
100003.7987
100003.8088
100003.8245
100003.8267
100003.8262
100003.816
100003.8221
100003.8087
100003.8297
100003.7717
100003.8163
100003.8361
100003.8504
100003.834
100003.8229
100003.8037
100003.7898
100003.7835
100003.7805
100003.7744
100003.8552
100003.7935
100003.7794
100003.7669
100003.7783
100003.786
100003.7912
100003.7824
100003.8145
100003.8385
100003.8099
100003.8083
100003.8122
100003.8181
100003.8376
100003.8547
100003.8581
100003.8552
100003.835
100003.8331
100003.812
100003.7939
100003.7445
100003.7596
100003.7816
100003.849
100003.8319
100003.824
100003.81
100003.7976
100003.7894
100003.7913
100003.813
100003.8707
100003.8195
100003.799
100003.7856
100003.7947
100003.7956
100003.7905
100003.7937
100003.8078
100003.7653
100003.7508
100003.778
100003.813
100003.8353
100003.8559
100003.8719
100003.8714
100003.8661
100003.8418
100003.857
100003.8511
100003.8925
100003.8195
100003.7639
100003.7422
100003.8228
100003.797
100003.7847
100003.7842
100003.7969
100003.8034
100003.8087
100003.8543
100003.886
100003.8434
100003.8206
100003.8036
100003.8057
100003.8065
100003.8082
100003.8053
100003.7683
100003.7497
100003.7889
100003.8593
100003.8842
100003.8639
100003.8718
100003.8768
100003.8734
100003.8673
100003.8525
100003.8366
100003.8541
100003.8821
100003.8072
100003.7642
100003.7292
100003.8122
100003.7779
100003.757
100003.7685
100003.7722
100003.8022
100003.8257
100003.8309
100003.8996
100003.8661
100003.845
100003.8243
100003.817
100003.8064
100003.7664
100003.6905
100003.6728
100003.726
100003.7914
100003.8094
100003.8668
100003.8505
100003.863
100003.8695
100003.8663
100003.8618
100003.833
100003.8257
100003.8609
100003.9082
100003.8486
100003.7311
100003.7657
100003.8132
100003.7826
100003.7804
100003.7908
100003.7917
100003.7761
100003.7978
100003.8249
100003.9044
100003.8752
100003.8576
100003.8383
100003.8279
100003.8143
100003.7604
100003.7101
100003.7548
100003.7783
100003.8177
100003.8356
100003.8461
100003.8629
100003.8603
100003.8698
100003.8728
100003.8926
100003.8889
100003.8427
100003.8104
100003.8553
100003.8228
100003.8335
100003.8253
100003.8171
100003.8073
100003.8094
100003.8198
100003.8094
100003.7907
100003.7787
100003.7884
100003.8998
100003.8713
100003.8576
100003.8444
100003.8384
100003.8324
100003.7911
100003.7031
100003.6833
100003.7241
100003.754
100003.7875
100003.8348
100003.8577
100003.8608
100003.8722
100003.8859
100003.9098
100003.9156
100003.9058
100003.8777
100003.8633
100003.8039
100003.8942
100003.855
100003.9856
100003.851
100003.8569
100003.8548
100003.8284
100003.7851
100003.7656
100003.682
100003.8905
100003.862
100003.8514
100003.842
100003.8408
100003.8435
100003.8333
100003.7884
100003.7282
100003.7125
100003.7315
100003.8216
100003.8827
100003.89
100003.8809
100003.8857
100003.8941
100003.9041
100003.9067
100003.9157
100003.9119
100003.9018
100003.854
100003.9156
100003.847
100003.8647
100003.87
100003.8816
100003.8774
100003.8404
100003.7736
100003.7803
100003.6186
100003.8817
100003.8537
100003.8451
100003.8365
100003.8362
100003.8359
100003.8247
100003.7929
100003.762
100003.7595
100003.7908
100003.837
100003.8901
100003.9058
100003.8905
100003.8878
100003.8905
100003.9047
100003.9239
100003.9382
100003.9423
100003.9263
100003.932
100003.9292
100003.8953
100003.9153
100003.9198
100003.9199
100003.8984
100003.854
100003.7898
100003.7591
100003.673
100003.8757
100003.8485
100003.84
100003.828
100003.8215
100003.8053
100003.7729
100003.7403
100003.7329
100003.7545
100003.809
100003.8529
100003.858
100003.8986
100003.887
100003.882
100003.8878
100003.9052
100003.9274
100003.9459
100003.9542
100003.9511
100003.973
100003.9767
100003.9296
100003.9199
100003.9292
100003.9332
100003.9082
100003.863
100003.8054
100003.7573
100003.7069
100003.8737
100003.8471
100003.8368
100003.8179
100003.7993
100003.7699
100003.7453
100003.7358
100003.7466
100003.7758
100003.8317
100003.8555
100003.8369
100003.848
100003.877
100003.8766
100003.887
100003.9069
100003.9306
100003.9529
100003.9689
100003.9881
100004.0177
100004.0078
100004.0406
100003.9403
100003.9482
100003.946
100003.9131
100003.8711
100003.8222
100003.7756
100003.7434
100003.8759
100003.8497
100003.8358
100003.8075
100003.778
100003.7499
100003.7448
100003.7501
100003.7685
100003.7951
100003.8322
100003.8274
100003.7946
100003.8031
100003.8669
100003.8743
100003.8876
100003.9095
100003.9344
100003.9601
100003.9838
100004.0182
100004.0567
100004.0255
100004.0369
100004.0481
100003.9342
100003.9581
100003.9102
100003.873
100003.8314
100003.7898
100003.7723
100003.8819
100003.857
100003.8406
100003.8059
100003.7699
100003.7418
100003.7436
100003.7502
100003.7622
100003.7797
100003.798
100003.7804
100003.7587
100003.7842
100003.8658
100003.8754
100003.8902
100003.9139
100003.9403
100003.9705
100004.0031
100004.0422
100004.1014
100004.0421
100004.0927
100004.0772
100003.9649
100003.9522
100003.9064
100003.8715
100003.8395
100003.8078
100003.8015
100003.8907
100003.8696
100003.8533
100003.8177
100003.7777
100003.7435
100003.7386
100003.7485
100003.7548
100003.763
100003.7744
100003.7574
100003.7494
100003.7941
100003.8709
100003.879
100003.8941
100003.919
100003.9449
100003.9792
100004.0244
100004.0419
100004.1476
100004.0173
100004.0884
100003.974
100003.9565
100003.9358
100003.8977
100003.8664
100003.8442
100003.8288
100003.827
100003.901
100003.8849
100003.8729
100003.8428
100003.8026
100003.76
100003.7379
100003.741
100003.7508
100003.754
100003.7591
100003.7499
100003.7569
100003.8206
100003.876
100003.883
100003.8967
100003.9189
100003.943
100003.9696
100003.9922
100004.0344
100004.0091
100004.0444
100004.039
100004.1388
100003.9248
100003.938
100003.8905
100003.8614
100003.8407
100003.8315
100003.7976
100003.9084
100003.8972
100003.8921
100003.8741
100003.8434
100003.7998
100003.7621
100003.7434
100003.7436
100003.752
100003.756
100003.7556
100003.7889
100003.8507
100003.8825
100003.8891
100003.9018
100003.9216
100003.9425
100003.9593
100003.9429
100003.9938
100003.951
100004.017
100003.9749
100004.0309
100003.9454
100003.9226
100003.8893
100003.859
100003.8369
100003.8224
100003.7882
100003.911
100003.9047
100003.9037
100003.8962
100003.8828
100003.8552
100003.8176
100003.7843
100003.7658
100003.7626
100003.7699
100003.7897
100003.8352
100003.8752
100003.8899
100003.8961
100003.9082
100003.9269
100003.9493
100003.9607
100003.9194
100003.9916
100004.0214
100003.9946
100003.9929
100004.0026
100004.046
100003.9263
100003.9051
100003.8633
100003.8449
100003.829
100003.8138
100003.9109
100003.9075
100003.908
100003.9062
100003.904
100003.8958
100003.8789
100003.8549
100003.8341
100003.8248
100003.8305
100003.852
100003.8808
100003.8993
100003.905
100003.91
100003.9202
100003.9383
100003.9669
100003.9944
100004.2775
100004.0182
100004.0117
100004.0154
100004.0137
100004.0533
100004.1895
100003.96
100003.9303
100003.8874
100003.8711
100003.8595
100003.8508
100003.9098
100003.9081
100003.9091
100003.9093
100003.9105
100003.9106
100003.9084
100003.9018
100003.8914
100003.8839
100003.8864
100003.8978
100003.9088
100003.9153
100003.917
100003.9204
100003.9278
100003.9394
100003.9495
100003.8603
100003.958
100004.0275
100004.0289
100004.0304
100004.0356
100004.2061
100004.0294
100003.9804
100003.9362
100003.9076
100003.8921
100003.8845
100003.879
100003.9096
100003.9088
100003.9099
100003.9111
100003.9136
100003.9166
100003.9201
100003.9233
100003.9259
100003.9288
100003.9321
100003.9373
100003.9434
100003.9477
100003.9485
100003.9498
100003.9521
100003.9527
100003.9448
100003.9177
100003.8576
100003.9683
100004.029
100004.0648
100004.0828
100003.9289
100003.9887
100004.052
100003.9996
100003.9762
100003.9534
100003.9402
100003.9331
100003.8477
100003.8154
100003.8149
100003.7865
100003.7789
100003.7679
100003.7703
100003.7721
100003.7777
100003.7674
100003.7507
100003.7399
100003.7364
100003.7486
100003.7451
100003.7358
100003.7508
100003.7668
100003.7728
100003.7883
100003.8139
100003.8106
100003.8215
100003.8264
100003.8297
100003.833
100003.8336
100003.8338
100003.832
100003.8504
100003.8191
100003.8198
100003.7951
100003.7884
100003.7787
100003.7767
100003.7736
100003.7865
100003.7798
100003.7534
100003.7326
100003.7283
100003.7305
100003.733
100003.7538
100003.7665
100003.7845
100003.7947
100003.8123
100003.8152
100003.8238
100003.8296
100003.8314
100003.8341
100003.8345
100003.8345
100003.8351
100003.8342
100003.8356
100003.8385
100003.8429
100003.8617
100003.8309
100003.8354
100003.817
100003.8101
100003.8036
100003.7997
100003.7871
100003.7699
100003.7524
100003.7368
100003.7232
100003.7312
100003.742
100003.748
100003.7588
100003.7793
100003.7952
100003.811
100003.8235
100003.8299
100003.8341
100003.8344
100003.8365
100003.8342
100003.8342
100003.8302
100003.8294
100003.8249
100003.8247
100003.8296
100003.8317
100003.8562
100003.8297
100003.85
100003.8383
100003.832
100003.8189
100003.8086
100003.7916
100003.7716
100003.7458
100003.7282
100003.721
100003.7412
100003.7562
100003.7669
100003.7786
100003.7911
100003.8063
100003.8201
100003.8335
100003.8381
100003.8425
100003.8395
100003.8401
100003.8377
100003.8377
100003.8353
100003.8372
100003.8384
100003.8318
100003.8477
100003.856
100003.8822
100003.876
100003.8404
100003.8587
100003.8391
100003.8223
100003.8003
100003.7901
100003.7692
100003.7532
100003.729
100003.7183
100003.7258
100003.7492
100003.7741
100003.7934
100003.8005
100003.802
100003.8107
100003.8221
100003.835
100003.8354
100003.8483
100003.838
100003.8395
100003.8334
100003.8321
100003.8268
100003.8251
100003.8317
100003.816
100003.8282
100003.8171
100003.8174
100003.8658
100003.8097
100003.8537
100003.8267
100003.8011
100003.7715
100003.7645
100003.7504
100003.7417
100003.7253
100003.7268
100003.7452
100003.7733
100003.7901
100003.7905
100003.7926
100003.7976
100003.8102
100003.8194
100003.8329
100003.8352
100003.8475
100003.8387
100003.8418
100003.8376
100003.8365
100003.8388
100003.8406
100003.8417
100003.8522
100003.8619
100003.8543
100003.9144
100003.8212
100003.7601
100003.805
100003.7653
100003.7404
100003.7344
100003.746
100003.7426
100003.7425
100003.7324
100003.7419
100003.7585
100003.7734
100003.7841
100003.7947
100003.8034
100003.8067
100003.814
100003.82
100003.8418
100003.8328
100003.905
100003.8391
100003.8499
100003.8353
100003.8332
100003.8276
100003.824
100003.8216
100003.8196
100003.8177
100003.8114
100003.8127
100003.771
100003.7134
100003.7533
100003.7257
100003.7286
100003.7478
100003.7699
100003.7715
100003.7653
100003.7549
100003.7681
100003.7795
100003.787
100003.7921
100003.7978
100003.8045
100003.8101
100003.8177
100003.8216
100003.8342
100003.8337
100003.845
100003.8384
100003.8416
100003.8383
100003.8346
100003.8329
100003.8312
100003.8279
100003.829
100003.8283
100003.8213
100003.8157
100003.7754
100003.7398
100003.7625
100003.7487
100003.7766
100003.8132
100003.845
100003.8158
100003.7991
100003.7691
100003.7915
100003.7907
100003.7937
100003.7976
100003.8005
100003.8086
100003.8137
100003.821
100003.8258
100003.8347
100003.8384
100003.8493
100003.8418
100003.8413
100003.8362
100003.8351
100003.8301
100003.8255
100003.8165
100003.8112
100003.7967
100003.7927
100003.7629
100003.7917
100003.7634
100003.781
100003.7728
100003.8062
100003.8263
100003.8217
100003.8047
100003.7923
100003.7812
100003.8011
100003.7922
100003.7952
100003.7938
100003.8017
100003.8092
100003.8211
100003.8256
100003.8289
100003.8353
100003.8393
100003.8424
100003.8417
100003.8441
100003.836
100003.8367
100003.832
100003.8287
100003.8206
100003.8159
100003.8088
100003.8053
100003.7948
100003.8092
100003.7866
100003.7976
100003.7904
100003.8059
100003.8141
100003.8198
100003.8119
100003.8076
100003.8108
100003.8107
100003.7928
100003.8012
100003.8047
100003.8199
100003.832
100003.8381
100003.8424
100003.841
100003.8435
100003.8481
100003.8542
100003.8564
100003.8591
100003.8433
100003.8425
100003.8351
100003.8262
100003.8189
100003.8115
100003.8004
100003.7954
100003.7729
100003.8261
100003.8081
100003.8145
100003.8061
100003.8112
100003.8143
100003.8218
100003.8246
100003.8273
100003.8376
100003.815
100003.8173
100003.8087
100003.8165
100003.8336
100003.8479
100003.8576
100003.8644
100003.8672
100003.8641
100003.853
100003.8179
100003.8542
100003.873
100003.8519
100003.8564
100003.8633
100003.8359
100003.829
100003.8211
100003.8122
100003.8097
100003.803
100003.8427
100003.8292
100003.8356
100003.8341
100003.8363
100003.8411
100003.8512
100003.8508
100003.8528
100003.8346
100003.8176
100003.8049
100003.8232
100003.8401
100003.856
100003.8677
100003.875
100003.8815
100003.8845
100003.8899
100003.9042
100003.9001
100003.858
100003.9394
100003.8805
100003.8779
100003.8211
100003.8208
100003.827
100003.8207
100003.8143
100003.8162
100003.8124
100003.8572
100003.8456
100003.8502
100003.8507
100003.8553
100003.863
100003.8728
100003.8824
100003.8868
100003.868
100003.8698
100003.8657
100003.848
100003.8635
100003.8696
100003.8763
100003.8827
100003.8916
100003.9022
100003.9091
100003.948
100003.9047
100003.8873
100003.9218
100003.969
100004.1115
100004.1062
100003.8305
100003.8993
100003.8527
100003.8368
100003.8422
100003.8473
100003.8666
100003.8548
100003.8552
100003.853
100003.8574
100003.8656
100003.8744
100003.868
100003.8648
100003.8764
100003.8962
100003.888
100003.9129
100003.8818
100003.8841
100003.8821
100003.8877
100003.8916
100003.8968
100003.9049
100003.917
100003.9151
100003.8866
100003.9086
100003.8918
100003.8811
100003.8297
100003.8178
100003.8344
100003.8441
100003.845
100003.8442
100003.8351
100003.8688
100003.856
100003.8522
100003.8482
100003.8529
100003.8603
100003.8661
100003.8641
100003.8593
100003.8456
100003.896
100003.8564
100003.881