/*--------------------------------*- C++ -*----------------------------------*\
  =========                 |
  \\      /  F ield         | OpenFOAM: The Open Source CFD Toolbox
   \\    /   O peration     | Website:  https://openfoam.org
    \\  /    A nd           | Version:  8
     \\/     M anipulation  |
\*---------------------------------------------------------------------------*/
FoamFile
{
    version     2.0;
    format      ascii;
    class       volScalarField;
    location    "1.7";
    object      nut;
}
// * * * * * * * * * * * * * * * * * * * * * * * * * * * * * * * * * * * * * //

dimensions      [0 2 -1 0 0 0 0];

internalField   nonuniform List<scalar> 
67286
(
0.0001658889909
0.0001960536632
0.000195283889
0.0001864896743
0.0001754340719
0.0001808152904
0.0001909052498
0.0001941361636
0.0001874684843
0.000175682124
0.0001682121964
0.0001612308873
0.0001572093911
0.0001615559306
0.0001701263971
0.0001785293815
0.0001854104358
0.0001911199864
0.000196694314
0.000203513494
0.0002135127485
0.0002281911058
0.0002455719617
0.000229209338
0.0002186120615
0.0002283758523
0.0002548390756
0.0002992437368
0.0001556633556
0.000182903451
0.0001816630545
0.0001692059844
0.0001701530634
0.0001801679084
0.0001869152783
0.0001868768975
0.000184161356
0.000182589683
0.0001812767612
0.0001731552379
0.0001645591215
0.0001668988623
0.0001764485723
0.00018686519
0.0001957393448
0.0002032910193
0.0002109779862
0.0002204835681
0.0002339663658
0.0002517909459
0.0002755136169
0.0002740310978
0.0002404782433
0.0002349248884
0.0002600002583
0.0002782577658
0.00026600925
0.0002578911989
0.0002491730113
0.0002393557715
0.00015206925
0.0001755918628
0.0001722767221
0.0001616338822
0.0001654337811
0.0001723800913
0.0001781796574
0.0001838945306
0.0001847980067
0.0001940169822
0.000198402634
0.0001876661265
0.0001729681025
0.0001714453626
0.0001807502391
0.0001927005772
0.0002033768622
0.0002124048039
0.0002222568197
0.0002369517846
0.000261241923
0.0002840301179
0.0003186079027
0.0003120928059
0.0002659847829
0.0002532714125
0.0002968198129
0.0003032103243
0.0002808183714
0.0002647041331
0.0002580182881
0.0002522120557
0.0001485165874
0.0001699836358
0.0001676734809
0.0001661507709
0.0001713433819
0.000180570933
0.0001954527031
0.0002172090088
0.0001943919426
0.000205818185
0.0002124151474
0.0002002922665
0.0001792424984
0.0001727382305
0.0001794531247
0.0001905395281
0.0002006364246
0.0002084158428
0.000216424525
0.0002303438655
0.0002576195567
0.0002519310292
0.0002692825424
0.0002730640623
0.0002676035676
0.0002660295649
0.0002732739487
0.0002777412404
0.0002738365048
0.0002679813268
0.0002684757343
0.0002629313012
0.0002536254002
0.0001518230478
0.0001990327822
0.0001827252649
0.0001745709139
0.0001805028814
0.0002051272963
0.000225775078
0.0002151878449
0.0002000074283
0.0002059224301
0.0002104734878
0.0001984260204
0.0001792678416
0.000171839133
0.0001754497347
0.0001833356084
0.0001915290528
0.0002008441142
0.0002198938034
0.0002695153092
0.0003617656828
0.0002405446729
0.0002434437823
0.0002577640083
0.000280095211
0.0002715524027
0.0002718665108
0.0002749463976
0.0002742752042
0.0002690050918
0.0002630456846
0.0002556369734
0.0002471277905
0.0001450453261
0.000178552361
0.000206224571
0.0001828646659
0.0001700689513
0.0001779968867
0.0001823578165
0.0001838261425
0.0001854556648
0.0001869075316
0.0001857991999
0.0001813692041
0.0001768019899
0.0001770190474
0.000181960312
0.0001881849329
0.0001953542118
0.0002155863032
0.000286968627
0.000434710247
0.0005902814775
0.0003251917343
0.0002396914995
0.0002711155911
0.0003663126041
0.0002847950361
0.0002647021358
0.0002590641101
0.0002514761774
0.000242115011
0.0002350149556
0.0002292105004
0.0002247166039
0.000135675543
0.0001607144709
0.0001759612624
0.000168206062
0.0001751373228
0.0001856079915
0.0001932616461
0.000198715406
0.0002011113286
0.0001998546423
0.0001957223613
0.0001912878767
0.0001902197416
0.0001950729608
0.0002034236362
0.0002102654467
0.0002131503388
0.0002134193681
0.0002160982006
0.0002378763931
0.0003353592653
0.000217032628
0.0002147164673
0.0002198848932
0.0002363271818
0.0002283044414
0.0002228014063
0.0002189645354
0.0002144210707
0.000211922507
0.0002153882414
0.0002227758143
0.000231285935
0.0001331718388
0.0001589328659
0.0001730987283
0.0001839559729
0.0001950228372
0.00020398538
0.0002125471728
0.0002192906238
0.0002222964932
0.0002205073435
0.0002153469216
0.0002109911184
0.0002122300671
0.0002211158526
0.0002326895012
0.0002405366343
0.0002423964794
0.0002402345032
0.0002375880543
0.0002365894777
0.0002418101637
0.0002337911054
0.0002330373425
0.0002326055117
0.0002310957485
0.0002300480176
0.0002296508158
0.0002254980967
0.0002202539866
0.0002211430458
0.0002348500507
0.0002523925121
0.0002658523988
0.0001554997897
0.0001830507253
0.0001960547562
0.0002056189578
0.0002139586628
0.0002229930233
0.000232532724
0.0002401800826
0.0002444676173
0.0002424370176
0.0002364329961
0.0002325053644
0.0002358629699
0.0002477075778
0.0002607982209
0.0002685144718
0.0002690006534
0.0002648301926
0.0002606119671
0.0002584924042
0.0002570822498
0.0002577516033
0.0002578894434
0.0002581835009
0.0002570179732
0.0002544395261
0.0002504106626
0.0002434898446
0.0002355097645
0.0002405456999
0.0002650835018
0.0002894175
0.0003052951693
0.0001696951342
0.0002008989154
0.0002133428401
0.0002219684015
0.0002303954748
0.0002408452378
0.0002521362496
0.0002619932332
0.000273631369
0.0002672136801
0.0002570337452
0.0002534305898
0.0002587976169
0.0002732791869
0.0002871782971
0.0002942160077
0.0002933590981
0.0002873349944
0.0002816257711
0.0002794575956
0.0002789584168
0.0002795484184
0.0002799259439
0.000280135649
0.0002795336454
0.0002767721414
0.0002704092587
0.0002594473262
0.0002482210331
0.0002612094076
0.0002949817376
0.0003245681082
0.0003434265011
0.0001801912436
0.0002145655558
0.0002270221742
0.000236118249
0.0002460809262
0.0002584417578
0.0002724432021
0.0002963534435
0.0003474012878
0.0003199246647
0.0002802152825
0.000273479493
0.0002804794427
0.0002952718788
0.0003080652144
0.0003137211937
0.0003115763092
0.0003042250879
0.0002972652328
0.0002944301498
0.0002935125059
0.000293165146
0.0002927323171
0.0002920546886
0.000291041382
0.0002886138569
0.0002828362374
0.0002723797084
0.0002585375621
0.0002833972746
0.0003253691525
0.0003580699275
0.000382671854
0.0001840005321
0.000220285992
0.0002353062132
0.0002491399524
0.0002635515885
0.0002803498713
0.0003201566129
0.0004293557136
0.0005756995601
0.0004954212668
0.0003108341267
0.0002851948746
0.0002936718908
0.0003089061185
0.0003201797999
0.000324383544
0.0003215268393
0.0003140018157
0.0003067915014
0.0003034252034
0.0003018470369
0.0003005084537
0.0002990326772
0.0002973718852
0.0002956609842
0.0002932846889
0.0002882274498
0.0002788693515
0.0002683381121
0.0003070025508
0.0003563185829
0.0003917522428
0.000420635947
0.0001822234324
0.0002187024495
0.0002345147588
0.0002493011469
0.0002643663352
0.0002774275722
0.0002909403025
0.0003207398479
0.0003939177345
0.0003477205054
0.0002900428018
0.0002823445441
0.000288772751
0.0003041810269
0.0003165754081
0.0003213812913
0.0003195745379
0.0003144420055
0.0003100265256
0.0003075169248
0.0003056779062
0.0003037315143
0.0003014783469
0.0002990004018
0.0002965604056
0.0002940303856
0.0002895479179
0.0002806313911
0.0002822901995
0.0003346001815
0.0003851359366
0.0004208439322
0.0004490843534
0.0001780703885
0.0002135816687
0.0002299457463
0.0002455136824
0.0002609218265
0.0002745765716
0.0002845860067
0.0002933150234
0.0003077907181
0.0002986027559
0.0002816470772
0.0002740534845
0.000278285381
0.0002945012803
0.0003087693203
0.0003152498312
0.0003152659169
0.0003121504906
0.0003091937006
0.0003072595419
0.0003054837623
0.0003034232755
0.0003011099432
0.0002986206938
0.000296110122
0.0002933980533
0.0002895834396
0.0002805598912
0.0003051070366
0.0003641435246
0.0004090502615
0.0004402531872
0.0004635529593
0.0001721785172
0.0002062700876
0.0002229914476
0.0002390088659
0.0002545450963
0.0002688101595
0.0002796519781
0.0002862616894
0.0002892890511
0.0002858203612
0.0002753263
0.0002651902731
0.0002666707018
0.0002828391165
0.0002987609948
0.0003073081468
0.0003095331068
0.0003084515013
0.0003066889657
0.0003050291294
0.0003031786895
0.0003012470922
0.0002995061669
0.0002980294274
0.0002970242693
0.0002964842993
0.000295284466
0.0002857511874
0.0002975273428
0.000352745727
0.000398790717
0.0004296020989
0.0004544598346
0.0001651948947
0.0001984857429
0.0002158998154
0.0002323088115
0.0002477378521
0.0002617164108
0.0002734665678
0.000280561982
0.0002826770304
0.0002790854795
0.0002688611597
0.000256619391
0.0002560826108
0.0002706199719
0.0002875499091
0.0002980318446
0.000302267087
0.0003027810084
0.0003017190868
0.0003000133259
0.0002981328109
0.0002969006632
0.0002968582012
0.0002983053551
0.0003019984852
0.0003085348087
0.0003170002548
0.0003211478091
0.0002939176088
0.0003320167893
0.0003796816686
0.0004092492425
0.0004351850591
0.0001586151703
0.0001928306424
0.0002116499863
0.0002284239372
0.0002434558256
0.0002567628584
0.0002685568048
0.0002758429714
0.000277874173
0.0002739726181
0.0002633010235
0.0002493593709
0.0002466293379
0.0002588880348
0.0002755138935
0.0002874669399
0.0002932416913
0.0002947775712
0.0002939244537
0.000292014589
0.0002905393785
0.0002911543232
0.0002947399578
0.0003020473973
0.000314049516
0.0003300613007
0.0003462234827
0.0003563192691
0.0003198281874
0.0003122914782
0.000354938509
0.0003854155106
0.000409550169
0.0001530276331
0.0001902500844
0.0002113535305
0.0002286714537
0.0002432433894
0.0002558522873
0.0002668692979
0.0002734618938
0.000274924697
0.0002705303683
0.000259317411
0.0002437867124
0.0002379086574
0.0002474221267
0.0002626493667
0.0002753372395
0.0002820994451
0.0002841343971
0.0002832179051
0.0002814279815
0.0002815181464
0.0002857928431
0.0002949580731
0.000309178585
0.0003279564233
0.0003483484046
0.0003648696031
0.0003727394585
0.000348433983
0.0003126750965
0.0003348076499
0.0003625335332
0.0003809218104
0.0001512524888
0.0001925893701
0.0002155018033
0.0002329384717
0.0002468336363
0.0002586300944
0.0002679604067
0.000273053208
0.000273378193
0.0002681949266
0.0002563986401
0.0002394101577
0.0002297559013
0.0002357482276
0.000249355407
0.000261430687
0.0002686406707
0.0002709181201
0.0002702248641
0.0002696187259
0.0002726246289
0.0002814267895
0.0002959618679
0.0003148419005
0.000336342278
0.000357276132
0.0003726759594
0.0003784944697
0.0003607183501
0.0003240214819
0.0003230965379
0.0003421426417
0.0003541193723
0.0001533303851
0.0001980114215
0.0002220293979
0.0002395520882
0.0002528891113
0.000263562967
0.0002704035816
0.0002732119718
0.0002717681335
0.0002654083437
0.0002529777261
0.0002350359495
0.0002217360228
0.0002235515361
0.0002353854637
0.0002465319042
0.0002534938126
0.0002563361615
0.0002570211471
0.0002587177586
0.000264727877
0.0002767584959
0.0002944676842
0.0003151980031
0.0003367011965
0.0003565990637
0.0003709376023
0.0003755570964
0.0003599895531
0.0003272314354
0.0003132778775
0.0003299229152
0.0003339097392
0.0001566560241
0.0002037259951
0.0002287637602
0.0002469516509
0.0002608129777
0.0002697346219
0.0002736455843
0.0002732277662
0.0002689420619
0.0002606081758
0.0002472912258
0.0002290731072
0.0002129054928
0.0002104278823
0.0002202651395
0.0002307983414
0.0002377534248
0.0002413148822
0.0002435058009
0.0002473542264
0.0002556700195
0.0002695576871
0.0002881252462
0.0003089466491
0.0003293285261
0.000347559822
0.0003607700514
0.0003648517259
0.0003490584976
0.0003196762546
0.0003010969915
0.0003180008095
0.000319643771
0.0001585292882
0.0002073542813
0.000233532817
0.0002528286718
0.000267478911
0.0002754526674
0.0002770012697
0.000273003666
0.0002646408713
0.0002529611213
0.0002382333819
0.0002201846025
0.0002019434602
0.0001958837981
0.0002036215285
0.0002135698343
0.0002206517587
0.0002250457516
0.0002287447288
0.0002343166131
0.0002438463555
0.0002580634314
0.000276157965
0.0002961515983
0.0003153829199
0.0003320427536
0.0003441045811
0.0003480105461
0.0003300204214
0.0003035377766
0.0002886458701
0.0003106575874
0.0003124498272
0.0001568640884
0.0002066642113
0.0002339718494
0.0002543443071
0.0002697701604
0.0002778327986
0.0002783235905
0.0002716297949
0.0002588985767
0.0002425276507
0.0002262556456
0.0002075389585
0.0001878444903
0.0001798539875
0.0001857574813
0.0001949962169
0.000202215825
0.000207445328
0.0002124582078
0.0002191645998
0.0002288770951
0.000242159821
0.0002587736177
0.0002773746334
0.0002957301218
0.0003115485064
0.0003228077911
0.0003259112077
0.0003059017322
0.0002847684559
0.0002809017687
0.0003060099951
0.0003075550435
0.0001507454551
0.0002001818875
0.0002284668885
0.0002494036299
0.0002655051867
0.0002741901985
0.0002747037757
0.0002667819437
0.0002509242686
0.0002302654054
0.0002113926738
0.0001911250466
0.0001713139031
0.0001640423227
0.0001690284978
0.0001776065669
0.0001850386897
0.0001910371252
0.0001968528466
0.0002037346425
0.0002124683768
0.0002236094547
0.0002375607739
0.0002539226532
0.0002710150665
0.0002864491564
0.0002975052655
0.000299586145
0.0002797716631
0.0002695325755
0.0002764435176
0.0003003757745
0.00030146561
0.0001408127318
0.0001876671837
0.0002165982486
0.0002380491363
0.0002539791197
0.0002631876468
0.0002640444223
0.0002558145108
0.0002384502921
0.0002149051969
0.0001933753485
0.0001727131385
0.0001565280023
0.0001534548231
0.0001595019034
0.0001685051473
0.0001769755715
0.0001840867124
0.000190126627
0.0001956307639
0.0002012361244
0.0002079159931
0.0002169460704
0.000229064539
0.0002434630773
0.0002577854784
0.0002686737785
0.0002709553277
0.0002572009307
0.0002579274869
0.0002714272359
0.0002938617907
0.0002945493721
0.0001291153428
0.0001704202967
0.0001986798089
0.0002206410306
0.0002361774735
0.0002452356777
0.0002461716649
0.0002376739555
0.0002198126126
0.000194623952
0.0001735967962
0.0001573607267
0.0001499342424
0.0001533045876
0.0001623827502
0.0001734184654
0.0001840579575
0.0001931055356
0.0001998997057
0.0002040044123
0.0002054198161
0.0002051337829
0.0002055126918
0.0002094843259
0.0002182124122
0.0002296557487
0.0002399536234
0.0002443567938
0.0002402675559
0.0002495597323
0.0002675254251
0.0002922852769
0.000292449581
0.0001179223452
0.0001515979371
0.0001762342962
0.0001977565991
0.0002135366424
0.000222289006
0.000222821111
0.0002138135023
0.0001950544093
0.0001718392356
0.0001576006615
0.0001509355941
0.000152530717
0.0001605976454
0.0001722562121
0.0001853287831
0.0001980682196
0.0002092671571
0.0002178912523
0.0002228052313
0.0002228878928
0.0002179040722
0.0002095028831
0.0002021795168
0.000201579043
0.0002081648428
0.0002174697356
0.0002255180519
0.0002324248254
0.0002493554122
0.000273438846
0.0003036297797
0.000303495669
0.0001080528036
0.0001349705448
0.0001530999659
0.000171190439
0.000186126736
0.0001948284427
0.0001952990139
0.0001863198653
0.0001697179246
0.0001551565508
0.0001510567145
0.0001522720208
0.0001577427747
0.0001669065623
0.0001790914037
0.0001928953146
0.0002067146103
0.0002193085576
0.0002296220837
0.0002363945492
0.0002377664752
0.0002324807152
0.0002205286149
0.0002048981809
0.0001944723541
0.0001956873491
0.0002048774969
0.0002177558521
0.0002344150432
0.0002577368857
0.0002867625369
0.0003203376981
0.0003199947504
9.896615567e-05
0.0001218492953
0.0001339283234
0.0001460100094
0.0001572228772
0.000164583817
0.0001656242372
0.0001599343582
0.0001516561294
0.0001481142859
0.0001497351105
0.0001530639481
0.0001582375175
0.0001661605757
0.0001771761518
0.0001902884883
0.0002038308617
0.0002163730761
0.0002268242642
0.0002340795063
0.0002367231233
0.0002332923109
0.0002223893474
0.0002046609636
0.0001887406263
0.0001858254072
0.0001954552466
0.0002120618673
0.0002339137137
0.0002599480178
0.0002885067105
0.0003234439714
0.0003221208513
8.984146097e-05
0.0001092208584
0.0001182239482
0.0001255799444
0.0001319117725
0.000136447766
0.0001382779102
0.0001377394887
0.0001371097917
0.0001381192097
0.0001400708322
0.000142615347
0.0001467663037
0.0001536605186
0.0001634900733
0.0001750013298
0.0001864072616
0.0001963793641
0.0002041741278
0.000209270932
0.0002110173982
0.0002084269218
0.0001999232735
0.000184423921
0.0001692004909
0.0001651628558
0.0001752196677
0.0001925460085
0.0002142950296
0.000238621221
0.0002635174453
0.0002931644025
0.0002905649837
0.0001531259418
0.0004547240972
0.0004714144773
0.0004171975313
0.000477759145
0.0006428778791
0.0007764394262
0.0008203191788
0.0008087295303
0.0007571601291
0.0006890512125
0.0006096294592
0.0005459810979
0.0005392095757
0.000587575118
0.000658604853
0.0007273412064
0.0007908505325
0.0008600964711
0.0009560222297
0.001106483539
0.001287029281
0.001343710227
0.001247434246
0.001168720203
0.001259422766
0.001511670296
0.001545261812
0.0001390653165
0.0003823239763
0.0003757273241
0.0003934902214
0.0005343164183
0.0007032807758
0.000801926815
0.0008368355229
0.0008467316474
0.0008468509561
0.0008195799787
0.0007415294078
0.0006525199712
0.0006236535588
0.0006719838476
0.0007576154448
0.0008391369242
0.0009148322829
0.0009991547786
0.001113966648
0.001284375872
0.001405463161
0.001490329387
0.001478668053
0.001399698014
0.00137950043
0.001575329588
0.001650031616
0.001590825717
0.001487403826
0.001380197105
0.001274606861
0.0001380730371
0.0003292701243
0.0003609113452
0.0004295118112
0.0005685012785
0.0007068050764
0.0008150204036
0.0008889815446
0.0008901772936
0.0009300845206
0.0009394298112
0.0008867190972
0.0007814416604
0.0007209300562
0.0007550950985
0.0008440193301
0.0009221100183
0.0009883857263
0.0010649642
0.001202390065
0.001508320088
0.001440621716
0.001558894708
0.001550102502
0.001514383464
0.001513250436
0.001595809354
0.0016093075
0.001556464328
0.001460374952
0.001377560801
0.001321247916
0.0001460097504
0.0003776486857
0.0004578075628
0.0005435319408
0.0006616661026
0.0008132485792
0.0009904325357
0.001110821682
0.0009979394911
0.0009805498616
0.001001652362
0.0009632272736
0.0008635019883
0.0007666575729
0.0007644865461
0.000835519869
0.0009061994203
0.0009583663839
0.0009930372991
0.001041628192
0.001093388053
0.001317994023
0.00140487289
0.001446988769
0.001465934866
0.001434744111
0.001465332563
0.001474515712
0.001436566708
0.001386375018
0.00135003702
0.001328311844
0.00128636614
0.0001602323788
0.0004614425692
0.000637305255
0.0006398277102
0.0007428510622
0.0009410898753
0.001104108005
0.001177888487
0.001029511571
0.0009644303342
0.0009809572419
0.000943856613
0.0008376976892
0.0007284230633
0.0006971125544
0.0007383849408
0.000795948835
0.00083312117
0.0008781061888
0.001110837288
0.00139080204
0.001266013341
0.001256391018
0.001442701921
0.001679389182
0.00146420208
0.001371559806
0.001353628628
0.001337722842
0.001317771985
0.00129739647
0.001279841766
0.001242724219
0.0001345146847
0.0004052044519
0.0005964210883
0.0006202922924
0.0006095110851
0.0006781644851
0.0007330953393
0.000733001466
0.0007295584816
0.0007791015319
0.0008257252774
0.0007988533593
0.0007165621303
0.0006377909928
0.0006060382562
0.0006174900458
0.000639142705
0.0006645019117
0.0008748130532
0.001508473669
0.001808413284
0.001632724022
0.001209151957
0.001861424535
0.0022129472
0.001702114101
0.001334721938
0.001248173219
0.001214935508
0.001188557683
0.001164767179
0.001143531496
0.001099743836
0.0001226159895
0.0003153014258
0.0004510903229
0.0004235024545
0.0004453414049
0.0004984429501
0.0005293602619
0.0005490283353
0.0005812999356
0.0006271905335
0.0006591046259
0.0006515922436
0.000609986452
0.0005625167596
0.0005333939042
0.0005250278833
0.0005327020798
0.0005635506899
0.0006523292321
0.0009355607804
0.001303850031
0.0009683620259
0.0008283205732
0.001006591264
0.001410237783
0.001164282255
0.001021825179
0.0009467486913
0.0008964658429
0.0008664432762
0.0008622936779
0.0008726025267
0.0008754050101
0.0001222341102
0.0002736933263
0.0003745767774
0.0004281033746
0.0004879889625
0.0005403439147
0.0005827140411
0.0006240478182
0.0006631726619
0.0006887191184
0.0006874253509
0.0006614436453
0.000620870893
0.0005876144102
0.0005720184697
0.0005672235513
0.0005641842809
0.0005647915999
0.0005801585921
0.0006295320012
0.0006790487407
0.0006666888412
0.0006613436032
0.0007248447095
0.0008180904047
0.0007945917818
0.0007701352957
0.0007301740366
0.0006968342775
0.0006854601941
0.0007126311786
0.0007722119207
0.0008324860259
0.0001429130827
0.0003445544191
0.0004809632486
0.0005779575389
0.0006487189857
0.0007006848566
0.0007485038803
0.0007959906704
0.0008283863605
0.0008378092042
0.0008202970582
0.0007808373133
0.000741569201
0.0007317040557
0.0007515903964
0.0007701036637
0.0007757691013
0.0007734276735
0.0007763556045
0.0007973124042
0.0008143517393
0.000843674231
0.0008632014327
0.0008868333589
0.000897355187
0.000886318588
0.0008274716138
0.0007557989337
0.0006884959784
0.0006734947754
0.0007465312286
0.0008689768903
0.0009299027334
0.0001616922604
0.0004727030595
0.0006429420009
0.0007469862248
0.0008143658809
0.0008624616715
0.0008945445186
0.0009299414089
0.0009666568352
0.0009710203962
0.0009383716328
0.0009200563428
0.0009138911806
0.0009174576445
0.0009331133479
0.0009485482021
0.000955219638
0.0009551289744
0.0009532064639
0.000954522372
0.0009602080434
0.0009725172726
0.0009842940071
0.0009955960008
0.001000861015
0.0009974336528
0.000975927288
0.0009308689039
0.0008030538481
0.0007752866119
0.0009171095858
0.001021568883
0.001066434295
0.0001780559899
0.000578336281
0.0007619951686
0.0008602508509
0.0009209966046
0.0009673046486
0.001031834543
0.001180482499
0.001525811169
0.001325214014
0.001128056131
0.001027154334
0.001007334068
0.001012521579
0.001027767225
0.00104011838
0.001044408747
0.001042949455
0.001038357185
0.00103381733
0.00102794999
0.001029175176
0.001032193934
0.001034518846
0.001037267197
0.001040123703
0.001038940522
0.001030294986
0.0009585844606
0.0009406477785
0.001097483769
0.001179197186
0.001211955743
0.0001855237919
0.0006166245497
0.0008060804209
0.0009078222731
0.0009697532516
0.001026422652
0.001166356233
0.001754162747
0.002106830007
0.001986616111
0.001359723177
0.001092701679
0.001045978941
0.001052156192
0.001064313054
0.001073658331
0.001076123581
0.001073243405
0.001065083531
0.00105356604
0.001042241258
0.001035644354
0.001031583436
0.001029121536
0.001030874456
0.001038975392
0.001054411889
0.001080059331
0.00108087554
0.001103759205
0.001220767888
0.001293088087
0.001319115301
0.0001848259269
0.0006029672946
0.0007869003893
0.0008984858504
0.0009619145337
0.001013154578
0.001086130582
0.00129336916
0.001716807048
0.001522544337
0.001197248572
0.001078736391
0.001067773078
0.001077000377
0.001089382986
0.001095945113
0.001094199457
0.001085700243
0.001071809015
0.0010565337
0.001043175597
0.001032150126
0.001022508016
0.001015401995
0.001015334051
0.001026373856
0.001053848432
0.001104461144
0.001152047933
0.001202439267
0.00128073634
0.001338132796
0.001357478512
0.0001795124151
0.000550259859
0.0007146293939
0.0008334091186
0.0009267039528
0.0009848388622
0.00103155574
0.00108708881
0.001167301619
0.001151742861
0.001082654807
0.001051646218
0.001056343286
0.001069540473
0.00108812199
0.001098929233
0.00109863743
0.001090116369
0.001076515151
0.001061872435
0.00104823329
0.001034443744
0.001020345577
0.001009333166
0.00100742302
0.00101964983
0.001051239645
0.001108982028
0.001145290284
0.001196712755
0.001272042554
0.001329278648
0.001350170089
0.0001717009102
0.0004812412221
0.0006196819305
0.0007384828501
0.0008582130277
0.0009481928243
0.001004647394
0.001037387877
0.001055893715
0.001052896443
0.001033449074
0.001020223179
0.001018019151
0.001031842033
0.001060297137
0.001080256961
0.001086320605
0.001082385554
0.001072906827
0.001061570935
0.001049427298
0.001035191896
0.001019938978
0.001008366047
0.001006053054
0.001016615262
0.001043807534
0.001095694445
0.001118884537
0.0011777704
0.001240304024
0.00131691391
0.001338538566
0.0001628078855
0.0004168508273
0.0005345260366
0.0006510630319
0.0007849779867
0.0009067058335
0.0009803401875
0.001016197829
0.00102553229
0.001017341444
0.0009980226189
0.0009729646672
0.0009476344229
0.0009701139069
0.001012841013
0.001044336089
0.001059136057
0.001061887793
0.001057708073
0.001050116634
0.001040064811
0.001027295836
0.001013846696
0.001003614849
0.0009998081845
0.001003968557
0.001018257515
0.001054425784
0.001081637151
0.001134648765
0.001210273521
0.001280417969
0.00129417911
0.0001544865689
0.0003679691567
0.000476346963
0.0005964070754
0.0007398700592
0.0008777358855
0.0009607305959
0.0009999890096
0.001006700206
0.0009916434215
0.0009616831409
0.0009170348929
0.0008640902002
0.0008850978978
0.0009488904759
0.000992945593
0.00101666038
0.001025699007
0.001025625317
0.001020429721
0.001012261954
0.001002507503
0.0009930673404
0.0009859833786
0.0009834603576
0.0009857751758
0.0009918191201
0.001017270128
0.001060885453
0.00106246996
0.001172291777
0.001223443739
0.001228738036
0.0001473266215
0.0003400589519
0.0004530525231
0.0005852811205
0.0007368413377
0.000872969496
0.0009522411945
0.0009877129468
0.0009888247988
0.0009650583629
0.0009217874149
0.0008563867615
0.0007800882587
0.0007881319712
0.000866193552
0.0009238494831
0.0009553533609
0.0009683826733
0.0009694278797
0.0009642438523
0.000958234217
0.0009546845041
0.0009531343485
0.0009534824596
0.0009588573871
0.0009678707615
0.0009736429863
0.000991827938
0.001023263067
0.001033396963
0.001124692946
0.001167016983
0.001167792292
0.0001430728937
0.0003355810707
0.0004686215429
0.000620027181
0.0007737845281
0.0008908654962
0.0009574896947
0.000981738974
0.0009719590254
0.0009360279155
0.0008776388736
0.00079281764
0.0006983914435
0.0006878290125
0.0007596851377
0.0008329771717
0.0008699938185
0.0008828715581
0.0008795031385
0.0008694142793
0.0008679333841
0.0008809300729
0.0008954127478
0.0009084251873
0.0009257787362
0.0009457680151
0.0009552906823
0.0009672881035
0.0009839984939
0.0009958232893
0.001080195008
0.001122387868
0.001121943954
0.0001419626527
0.0003464592862
0.0005089086441
0.0006823098619
0.0008308642894
0.0009227358952
0.0009720386715
0.0009801908432
0.0009546469479
0.0009023949579
0.0008264830052
0.0007239339365
0.0006149810384
0.0005855532398
0.0006403432171
0.0007143855969
0.0007557782294
0.0007614954675
0.0007466441312
0.0007327600625
0.0007419991058
0.0007815466426
0.0008235596734
0.0008527531439
0.0008804265827
0.0009085789119
0.000922271989
0.0009296916829
0.000938055788
0.0009508023274
0.001035530486
0.001070969898
0.001075977738
0.0001425813697
0.0003604033078
0.0005504366841
0.0007415102301
0.0008710842564
0.0009516291351
0.0009850099974
0.0009756883456
0.0009311797717
0.000858806464
0.000763364979
0.0006459941015
0.0005295758727
0.0004880963632
0.0005230564902
0.000581719397
0.000617276137
0.0006210381443
0.0006084918816
0.0006019666774
0.0006210271521
0.0006729938932
0.0007409766941
0.0007877387716
0.0008221606584
0.0008518265324
0.0008672859734
0.0008731158001
0.00088204714
0.0009008877539
0.000990118616
0.001025716637
0.001030137516
0.0001427595973
0.0003659653813
0.0005706822925
0.0007706136203
0.0008898100175
0.000962769898
0.0009837166613
0.0009579778529
0.0008931325057
0.0007981590505
0.0006844935203
0.0005551274997
0.0004458035122
0.0004043502104
0.0004240148388
0.0004647850272
0.0004923690961
0.0004981568974
0.0004939046982
0.000497124206
0.0005220609447
0.0005746106636
0.0006488817761
0.000714583153
0.0007559400894
0.0007838356729
0.0007985807045
0.0008065227195
0.0008225917939
0.0008397694366
0.0009430562225
0.0009741499927
0.0009779312646
0.0001405713234
0.0003561313062
0.0005568888581
0.0007574720351
0.0008751600122
0.0009444916586
0.0009570074349
0.0009171439996
0.0008321915392
0.0007143517296
0.0005803406654
0.0004583014647
0.0003723507483
0.0003417427293
0.0003535345817
0.0003809959554
0.0004029646803
0.0004129666358
0.0004180067549
0.0004295470097
0.0004565660737
0.0005022978787
0.0005644107049
0.0006339577295
0.0006868615367
0.0007176842391
0.0007338675819
0.0007468045364
0.0007721599815
0.000780576792
0.0008968318541
0.0009235611988
0.0009268719954
0.0001355269498
0.0003319408143
0.0005080176827
0.0007032751185
0.0008202597864
0.0008882302835
0.0008960291343
0.0008455565037
0.0007432494827
0.0006035478004
0.0004679739551
0.0003751987739
0.0003211611007
0.0003062598764
0.0003166468803
0.0003381278369
0.0003603587645
0.0003784564984
0.0003944051553
0.0004135548543
0.0004401553878
0.0004751745568
0.0005171639654
0.0005649460504
0.0006154845171
0.000657432184
0.0006807957314
0.0006993808306
0.0007268732368
0.0007449646169
0.0008594737708
0.0008850919931
0.000887599616
0.0001286785861
0.0003029485174
0.0004365794822
0.0006038999221
0.0007302120658
0.0007914215115
0.0007973171577
0.0007430376146
0.0006383982265
0.0004894100145
0.0003806522859
0.000326311488
0.0003025340232
0.0003017567823
0.0003153566076
0.0003401545149
0.0003728763524
0.0004081039913
0.0004411966422
0.0004700443588
0.0004942859975
0.0005137798827
0.0005293727561
0.0005450633121
0.0005666934803
0.0005964133245
0.0006274276646
0.0006511986187
0.0006783015641
0.0007262350181
0.0008404498818
0.000869430413
0.0008714354435
0.0001214923018
0.0002796205941
0.0003681317015
0.0004840951546
0.0006050271884
0.0006713676714
0.0006764254005
0.0006261771807
0.0005211222604
0.0004037157535
0.0003392130195
0.0003213389572
0.0003191183922
0.0003272145889
0.000347491233
0.0003851407797
0.0004399771953
0.0005030855938
0.0005607595361
0.0006021872735
0.0006230002363
0.0006224723921
0.0006044622582
0.0005797885626
0.0005635165915
0.0005652622032
0.0005826431009
0.0006067895927
0.0006486985682
0.0007181049285
0.0008421590322
0.0008802980563
0.0008845804912
0.0001144625628
0.0002628239084
0.0003200294588
0.00038186857
0.0004585299887
0.0005190028453
0.0005334337061
0.000496262907
0.0004270399426
0.0003664498755
0.0003468409192
0.0003533100744
0.0003607990936
0.0003729219863
0.0004005655505
0.000454023307
0.0005337357652
0.000625833553
0.0007072579914
0.0007605389128
0.000780631167
0.0007639627776
0.0007126746353
0.0006432020893
0.0005841967436
0.0005560588958
0.0005580137681