/*--------------------------------*- C++ -*----------------------------------*\
  =========                 |
  \\      /  F ield         | OpenFOAM: The Open Source CFD Toolbox
   \\    /   O peration     | Website:  https://openfoam.org
    \\  /    A nd           | Version:  8
     \\/     M anipulation  |
\*---------------------------------------------------------------------------*/
FoamFile
{
    version     2.0;
    format      ascii;
    class       volScalarField;
    location    "1.7";
    object      O2;
}
// * * * * * * * * * * * * * * * * * * * * * * * * * * * * * * * * * * * * * //

dimensions      [0 0 0 0 0 0 0];

internalField   nonuniform List<scalar> 
67286
(
0.2100023025
0.210002196
0.2100019815
0.2100015793
0.2100010256
0.210000805
0.2100008361
0.2100009659
0.2100010129
0.2100010966
0.2100011694
0.2100012365
0.2100012789
0.2100013345
0.2100014055
0.2100014624
0.2100015022
0.2100015318
0.2100015542
0.210001556
0.2100015254
0.2100013042
0.2100010108
0.210001152
0.2100012033
0.2100010379
0.2100008418
0.2100002819
0.2100022652
0.2100020665
0.2100016662
0.2100010816
0.2100007621
0.2100007046
0.2100007763
0.2100009061
0.2100008112
0.2100009238
0.2100009454
0.2100009494
0.2100009188
0.2100009219
0.2100009703
0.2100010201
0.2100010578
0.2100010889
0.210001122
0.2100011467
0.210001228
0.2100010224
0.2100008369
0.2100006685
0.210000827
0.2100007089
0.2100006666
0.2100006423
0.2100005978
0.210000527
0.2100005353
0.2100005679
0.2100020998
0.2100018136
0.2100013687
0.2100009251
0.210000624
0.2100005415
0.2100005915
0.2100008146
0.2100005822
0.2100007741
0.2100007691
0.2100007467
0.2100006683
0.2100006396
0.2100006789
0.2100007313
0.2100007771
0.2100008282
0.2100009122
0.2100010183
0.2100017574
0.2100006376
0.2099998089
0.2099999229
0.210000357
0.2100002292
0.2099998803
0.2099998039
0.2100001458
0.210000194
0.2100002239
0.2100002694
0.210001778
0.2100014588
0.2100011493
0.2100008256
0.2100005884
0.2100006409
0.2100010393
0.2100014956
0.2100002414
0.2100007664
0.2100005997
0.2100005877
0.2100004719
0.2100004223
0.2100004582
0.2100005201
0.2100005842
0.2100006547
0.2100007443
0.2100008456
0.2100010567
0.2100006599
0.2100005457
0.2100003135
0.2100004844
0.2100000686
0.2100000576
0.2099999357
0.2099998884
0.2099998662
0.2099998478
0.2099999788
0.2100000674
0.2100015398
0.2100012344
0.2100011788
0.2100007738
0.2100004247
0.2100002805
0.2100001909
0.2100003004
0.2100002571
0.2100003922
0.2100004074
0.2100003631
0.2100002651
0.2100002178
0.2100002426
0.2100002944
0.2100003619
0.2100004549
0.2100005847
0.2100007922
0.2100011058
0.2100004861
0.2100003423
0.210000061
0.2100002606
0.2099997471
0.2099997006
0.2099995708
0.2099995991
0.2099996486
0.2099997093
0.2099997876
0.2099998399
0.2100014852
0.2100015009
0.210001287
0.210000726
0.2100002793
0.2100001792
0.2100002223
0.2100003057
0.2100001548
0.2100001984
0.2100001559
0.2100001106
0.2100000541
0.2100000123
0.2100000034
0.210000038
0.2100001473
0.2100003885
0.2100006404
0.2100012061
0.2099989817
0.210000778
0.2100010251
0.2100008376
0.210002156
0.210000408
0.2100001893
0.2099998299
0.2099997644
0.209999725
0.2099997191
0.2099997255
0.2099997149
0.2100014218
0.210001331
0.2100010137
0.2100005607
0.210000276
0.2100001841
0.2100001185
0.2100000857
0.2100000513
0.2100000114
0.2099999666
0.2099999163
0.209999854
0.2099997732
0.2099996861
0.2099996103
0.209999571
0.2099995896
0.2099996888
0.2099998536
0.2100004468
0.2099994743
0.2099996504
0.2099994999
0.2100000208
0.2099995154
0.2099994612
0.2099994102
0.2099994265
0.2099994609
0.2099994463
0.2099994079
0.2099993716
0.2100012433
0.2100010465
0.2100007507
0.2100004888
0.2100003375
0.2100002363
0.2100001726
0.2100001347
0.21000007
0.2099999298
0.2099998674
0.2099997832
0.2099996867
0.2099995692
0.2099994409
0.2099993279
0.2099992579
0.2099992406
0.2099992641
0.2099993188
0.2099995125
0.2099991104
0.2099992124
0.2099990686
0.2099993372
0.2099989792
0.2099989819
0.2099989129
0.2099990105
0.2099991707
0.2099991865
0.2099991482
0.2099991608
0.2100008883
0.2100008059
0.2100006599
0.2100005149
0.2100003584
0.2100002222
0.2100001403
0.210000095
0.2100000678
0.2099997853
0.2099997338
0.2099996276
0.2099995221
0.2099993921
0.2099992489
0.2099991162
0.2099990205
0.2099989702
0.2099989397
0.209998895
0.2099989681
0.2099986578
0.2099986414
0.2099985582
0.2099985973
0.209998488
0.2099985221
0.2099985682
0.2099987205
0.2099989719
0.2099989876
0.209998973
0.2099990667
0.2100008145
0.2100008176
0.2100007253
0.2100005995
0.2100004731
0.2100004145
0.2100004271
0.2100004597
0.2100003968
0.2099995345
0.2099997612
0.2099994928
0.2099993845
0.2099992396
0.2099990804
0.2099989259
0.2099988104
0.2099987434
0.2099986897
0.2099986163
0.2099985563
0.2099984081
0.2099983732
0.2099983004
0.2099983377
0.2099982667
0.2099983356
0.2099983902
0.2099985501
0.2099988309
0.2099988604
0.2099988953
0.2099990077
0.210000704
0.2100007489
0.210000655
0.2100004967
0.2100003508
0.2100002741
0.2100002588
0.2100003543
0.2100004387
0.2099993662
0.2099995017
0.2099993146
0.209999212
0.2099990511
0.2099988619
0.2099986834
0.2099985594
0.2099984946
0.2099984463
0.20999837
0.2099982414
0.2099981104
0.2099980293
0.209997977
0.2099979783
0.2099979958
0.2099981135
0.2099982442
0.2099984331
0.2099987306
0.209998797
0.2099988384
0.2099989151
0.210000629
0.2100006268
0.2100005475
0.2100005289
0.2100006879
0.2100011787
0.2100023662
0.210004966
0.2100032244
0.2099977934
0.2100001995
0.2099991068
0.2099991883
0.2099988838
0.209998639
0.2099984361
0.2099983082
0.2099982544
0.209998219
0.2099981385
0.2099980118
0.209997887
0.2099977998
0.2099977496
0.2099977507
0.2099977949
0.2099979518
0.2099981325
0.2099983797
0.2099986746
0.2099987789
0.2099987906
0.2099987949
0.210000547
0.2100004743
0.2100003429
0.2100002536
0.2100002591
0.2100003865
0.2100007511
0.2100016576
0.2100033654
0.2099995985
0.2099997894
0.2099992593
0.2099990934
0.2099988627
0.2099986178
0.2099984045
0.2099982622
0.2099981906
0.2099981332
0.209998038
0.2099979068
0.209997778
0.2099976785
0.2099976202
0.2099976179
0.2099976843
0.2099978748
0.2099980779
0.2099983928
0.2099986672
0.2099987874
0.2099987627
0.2099987072
0.2100004911
0.2100003813
0.2100002647
0.2100002084
0.2100002249
0.2100003035
0.2100004034
0.2100005504
0.2100009068
0.2099994317
0.2099996152
0.2099993018
0.2099991576
0.2099989389
0.209998702
0.2099984894
0.2099983349
0.2099982404
0.2099981613
0.2099980613
0.2099979396
0.209997815
0.2099977116
0.2099976463
0.2099976379
0.2099977031
0.2099978642
0.2099980602
0.2099984054
0.2099986156
0.2099986923
0.2099984847
0.2099984179
0.2100004374
0.2100002917
0.210000174
0.2100001034
0.2100000706
0.2100000585
0.2100000409
0.2100000281
0.2100001021
0.2099994832
0.2099994349
0.2099993221
0.2099991933
0.2099990038
0.2099987984
0.2099986058
0.2099984533
0.2099983498
0.2099982646
0.2099981689
0.2099980568
0.2099979367
0.2099978313
0.2099977618
0.2099977477
0.2099978015
0.2099979281
0.2099980462
0.209998435
0.2099987277
0.2099987414
0.2099987293
0.2099986209
0.2100003972
0.2100002184
0.2100001028
0.2100000332
0.2099999856
0.2099999443
0.2099998888
0.2099998056
0.2099997244
0.209999462
0.2099993912
0.2099993375
0.2099992319
0.2099990662
0.2099988946
0.2099987321
0.2099985943
0.2099984946
0.2099984145
0.2099983293
0.2099982282
0.2099981148
0.2099980113
0.2099979398
0.2099979164
0.2099979426
0.2099979997
0.2099980292
0.2099984145
0.2099987208
0.209998858
0.2099989739
0.2099989353
0.2100003667
0.2100001476
0.2100000197
0.2099999485
0.2099998976
0.2099998481
0.2099997868
0.2099996953
0.2099995862
0.2099994441
0.2099993808
0.2099993469
0.2099992596
0.2099991165
0.2099989784
0.2099988533
0.2099987414
0.2099986567
0.2099985892
0.2099985177
0.2099984296
0.2099983279
0.2099982313
0.2099981548
0.2099981044
0.2099980742
0.209998061
0.2099981153
0.2099983956
0.2099987585
0.2099990133
0.209999151
0.2099992178
0.2100003679
0.210000111
0.2099999568
0.2099998713
0.2099998156
0.209999768
0.2099997137
0.2099996311
0.2099995312
0.2099994319
0.2099993793
0.2099993522
0.2099992754
0.2099991492
0.2099990421
0.2099989572
0.2099988791
0.2099988162
0.2099987643
0.2099987065
0.2099986336
0.2099985474
0.2099984551
0.2099983588
0.2099982595
0.2099981618
0.209998091
0.2099981341
0.2099983379
0.2099986313
0.2099989759
0.2099992331
0.2099993933
0.2100003544
0.2100000652
0.2099998859
0.2099997895
0.2099997327
0.209999692
0.2099996456
0.2099995774
0.2099994957
0.2099994195
0.2099993759
0.209999353
0.209999283
0.2099991669
0.2099990834
0.2099990343
0.2099989936
0.2099989579
0.2099989244
0.2099988834
0.2099988314
0.2099987682
0.2099986872
0.2099985773
0.2099984415
0.2099983003
0.2099981922
0.2099982122
0.2099983869
0.2099986182
0.20999903
0.2099993014
0.209999495
0.2100003344
0.2100000389
0.2099998496
0.2099997512
0.2099996943
0.2099996513
0.2099995984
0.2099995344
0.2099994653
0.2099994032
0.2099993657
0.2099993471
0.2099992839
0.2099991746
0.2099991067
0.2099990863
0.2099990823
0.209999079
0.2099990706
0.2099990539
0.2099990308
0.2099989982
0.209998941
0.2099988422
0.2099986994
0.2099985414
0.2099984082
0.2099983904
0.2099985729
0.209998749
0.2099991556
0.2099993123
0.2099995882
0.2100003224
0.2100000485
0.2099998668
0.2099997786
0.2099997327
0.2099996777
0.2099996067
0.2099995283
0.2099994521
0.2099993877
0.209999347
0.2099993303
0.2099992751
0.2099991765
0.2099991198
0.2099991232
0.2099991545
0.2099991869
0.209999207
0.2099992155
0.209999222
0.2099992233
0.2099992005
0.2099991355
0.2099990153
0.2099988626
0.2099987131
0.2099986487
0.209998856
0.2099989865
0.209999351
0.2099995455
0.209999737
0.2100003132
0.2100000756
0.2099999071
0.2099998323
0.2099997987
0.2099997427
0.2099996636
0.2099995694
0.2099994703
0.209999379
0.209999318
0.2099992994
0.2099992485
0.2099991683
0.2099991279
0.2099991548
0.2099992203
0.2099992881
0.2099993354
0.2099993626
0.2099993886
0.2099994177
0.2099994298
0.2099994049
0.2099993284
0.2099992014
0.2099990475
0.2099989342
0.2099991626
0.2099992473
0.209999542
0.2099996978
0.2099998555
0.2100002982
0.2100001056
0.2099999431
0.2099998711
0.2099998441
0.2099997954
0.2099997239
0.2099996322
0.2099995197
0.2099993849
0.2099992869
0.2099992542
0.2099991964
0.2099991383
0.2099991257
0.2099991821
0.2099992808
0.2099993808
0.2099994515
0.2099994899
0.2099995207
0.2099995612
0.2099995988
0.2099996097
0.2099995767
0.2099994911
0.209999354
0.2099992169
0.2099994276
0.2099994919
0.2099996969
0.2099998453
0.2099999682
0.2100002626
0.2100001357
0.2099999742
0.209999885
0.2099998541
0.2099998108
0.2099997503
0.209999676
0.2099995784
0.2099994165
0.209999269
0.2099992049
0.2099991262
0.2099990829
0.2099991002
0.2099991872
0.2099993147
0.2099994415
0.2099995347
0.2099995863
0.2099996183
0.209999657
0.2099997048
0.2099997423
0.2099997465
0.209999701
0.2099995979
0.2099994732
0.2099996469
0.2099996843
0.2099998101
0.2099999596
0.2100000311
0.2100001793
0.2100001527
0.2100000102
0.2099998939
0.2099998364
0.2099997904
0.209999734
0.2099996755
0.2099996099
0.2099994603
0.2099992756
0.2099991744
0.209999075
0.2099990298
0.2099990536
0.2099991492
0.2099992874
0.2099994294
0.2099995445
0.2099996208
0.2099996693
0.209999712
0.2099997626
0.2099998177
0.2099998586
0.2099998603
0.2099998071
0.2099997241
0.209999842
0.2099998323
0.2099999012
0.2099999836
0.2100000262
0.2100000268
0.2100001162
0.2100000388
0.2099999124
0.2099998151
0.209999747
0.2099996849
0.2099996317
0.2099995944
0.2099994841
0.2099993029
0.2099991873
0.2099990859
0.2099990218
0.209999014
0.2099990779
0.2099991943
0.2099993282
0.2099994523
0.2099995544
0.2099996348
0.2099997011
0.2099997641
0.2099998356
0.2099999159
0.2099999758
0.209999988
0.2099999617
0.2100000171
0.2099999718
0.2099999902
0.2099999647
0.2100000001
0.2099998258
0.2099999804
0.2100000033
0.209999919
0.2099998085
0.2099997108
0.2099996292
0.2099995678
0.20999953
0.2099994566
0.209999324
0.2099992328
0.2099991463
0.2099990576
0.209998998
0.2099990057
0.2099990778
0.2099991832
0.2099992952
0.2099994025
0.2099995022
0.2099995941
0.2099996786
0.2099997698
0.2099998948
0.2100000212
0.2100000967
0.2100001185
0.2100001276
0.2100000615
0.210000035
0.2099999421
0.2099999633
0.2099996684
0.2099997619
0.2099998412
0.2099998307
0.2099997544
0.2099996541
0.209999555
0.2099994697
0.2099994085
0.2099993581
0.2099992971
0.2099992521
0.2099991872
0.2099990859
0.209998986
0.2099989415
0.209998967
0.2099990384
0.2099991271
0.209999219
0.2099993103
0.2099994034
0.2099994988
0.209999606
0.2099997759
0.2099999758
0.2100001043
0.21000015
0.2100001201
0.2100000257
0.2099999579
0.2099998278
0.2099998414
0.2099997027
0.2099995697
0.2099995802
0.2099995833
0.2099995424
0.2099994641
0.2099993664
0.2099992686
0.2099991988
0.209999175
0.2099991731
0.2099991686
0.2099991306
0.2099990421
0.2099989319
0.2099988543
0.2099988398
0.2099988769
0.2099989382
0.2099990057
0.2099990757
0.2099991535
0.2099992452
0.2099993615
0.2099995645
0.2099998339
0.2100000224
0.2100000967
0.2100000563
0.209999929
0.2099998048
0.2099996269
0.2099996651
0.2099999364
0.2099995049
0.2099993371
0.2099992418
0.2099991618
0.2099990785
0.209998989
0.2099989056
0.2099988553
0.2099988517
0.2099988725
0.2099988925
0.2099988917
0.209998851
0.2099987761
0.2099987005
0.2099986564
0.2099986492
0.2099986645
0.209998689
0.2099987205
0.2099987671
0.2099988422
0.2099989625
0.209999182
0.2099995139
0.2099997884
0.2099999245
0.209999919
0.2099997838
0.20999959
0.209999232
0.2099994026
0.2100024173
0.2100022496
0.2100019476
0.2100015647
0.2100012354
0.2100011362
0.210001171
0.2100012175
0.2100013129
0.2100013787
0.2100014326
0.2100014545
0.2100014359
0.2100014183
0.2100014111
0.2100013919
0.2100013489
0.2100012858
0.2100012051
0.210001101
0.2100009714
0.2100007919
0.2100007469
0.2100007421
0.2100007909
0.2100006876
0.2100004503
0.2100004345
0.2100023524
0.2100020509
0.2100016674
0.2100012768
0.2100010615
0.2100010142
0.2100010168
0.2100009406
0.2100010957
0.2100011769
0.2100012308
0.2100012218
0.2100011559
0.210001101
0.2100010805
0.210001064
0.2100010222
0.2100009516
0.2100008492
0.2100006971
0.2100004997
0.2100004236
0.2100002734
0.2100003183
0.2100004142
0.210000441
0.2100002549
0.2100005348
0.2100003112
0.2100003681
0.2100004507
0.2100005301
0.2100021011
0.2100017934
0.2100014381
0.2100011172
0.2100009065
0.2100008013
0.210000789
0.2100007029
0.2100008874
0.2100009799
0.2100010538
0.2100010411
0.2100009494
0.2100008633
0.2100008226
0.2100007999
0.2100007551
0.2100006856
0.2100006038
0.2100004585
0.2100001341
0.2100002534
0.2100000968
0.2100000064
0.2100000532
0.210000044
0.209999927
0.2099999549
0.2099999443
0.2100000726
0.2100001817
0.2100002647
0.2100018312
0.2100015925
0.2100013279
0.2100010589
0.2100008275
0.2100005924
0.2100005594
0.2099995985
0.2100007007
0.2100007357
0.2100008789
0.2100008766
0.2100007771
0.2100006679
0.210000607
0.2100005773
0.2100005249
0.2100004218
0.2100002452
0.2100001108
0.2099997092
0.2099999991
0.209999813
0.2099998993
0.2099997802
0.2099998569
0.2099997664
0.2099997943
0.2099998429
0.2099998931
0.2100000123
0.2100000564
0.2100001673
0.2100016882
0.2100016879
0.2100013363
0.2100010389
0.2100007368
0.2100006353
0.2100006092
0.210000388
0.2100005763
0.2100006626
0.2100007334
0.2100007005
0.2100005881
0.2100004694
0.2100003979
0.2100003661
0.2100003306
0.2100002792
0.2100001419
0.2099999436
0.2099992819
0.2099999342
0.20999986
0.2099999108
0.2099995482
0.2099996867
0.2099996163
0.2099996211
0.2099996509
0.209999707
0.2099997854
0.2099998667
0.2099999645
0.2100016636
0.2100016623
0.2100014117
0.2100009379
0.2100006094
0.2100004935
0.2100004313
0.2100003414
0.2100004139
0.2100004765
0.2100004945
0.2100004462
0.2100003498
0.2100002534
0.2100001861
0.2100001337
0.2100000386
0.209999793
0.2099988834
0.2099986022
0.2099949263
0.2099985434
0.2099992495
0.210000047
0.2099978926
0.209999546
0.2099995465
0.2099995946
0.2099996046
0.2099996425
0.2099996946
0.2099997473
0.2099998031
0.2100015497
0.2100014187
0.2100010939
0.2100006961
0.2100004503
0.210000358
0.2100003057
0.2100002647
0.2100002754
0.210000289
0.2100002726
0.2100002138
0.210000123
0.2100000254
0.2099999429
0.2099998803
0.2099998345
0.2099997967
0.2099997082
0.2099995067
0.2099984147
0.2099995584
0.2099995931
0.2099996747
0.2099995675
0.2099995675
0.2099994882
0.2099994615
0.2099994805
0.2099995149
0.2099995519
0.2099995887
0.2099996301
0.2100013372
0.2100011548
0.2100009154
0.2100006824
0.2100005317
0.2100004277
0.2100003444
0.210000274
0.2100001937
0.2100001681
0.2100001254
0.2100000371
0.2099999273
0.2099998165
0.2099997222
0.2099996422
0.20999956
0.2099994608
0.2099993327
0.2099992592
0.209998855
0.2099991892
0.2099992329
0.2099993444
0.209999294
0.2099992621
0.2099992329
0.2099992224
0.2099992605
0.2099993226
0.2099993674
0.2099994118
0.2099994712
0.210001054
0.2100010471
0.210000924
0.210000772
0.2100006171
0.210000469
0.2100003342
0.210000223
0.2100001008
0.2100000227
0.209999938
0.2099998338
0.2099997239
0.2099996212
0.2099995347
0.2099994533
0.2099993706
0.2099992907
0.2099992294
0.2099991811
0.2099990585
0.2099989982
0.2099989735
0.2099989469
0.2099989657
0.2099989191
0.2099989468
0.2099989848
0.2099990482
0.2099991412
0.2099992045
0.2099992682
0.2099993366
0.2100010202
0.2100010858
0.2100010103
0.2100008784
0.2100007021
0.2100004738
0.2100001572
0.2099998209
0.20999905
0.2099994262
0.2099995978
0.2099995669
0.209999519
0.2099994227
0.2099993164
0.2099992033
0.2099990884
0.2099989747
0.2099988621
0.2099987533
0.2099986202
0.20999857
0.2099985322
0.209998518
0.2099985425
0.2099985725
0.2099986729
0.2099987882
0.2099988891
0.2099989974
0.2099990785
0.209999136
0.2099992186
0.2100009646
0.2100010684
0.2100009939
0.2100008403
0.2100006407
0.2100004191
0.2100001994
0.2100000555
0.209999514
0.2099995793
0.2099995519
0.2099994382
0.2099993135
0.2099991911
0.2099990617
0.2099989358
0.209998817
0.2099987097
0.2099986187
0.2099985652
0.209998364
0.2099982464
0.2099981715
0.2099981412
0.2099981744
0.2099982522
0.2099983961
0.2099985743
0.2099987477
0.2099988763
0.2099989611
0.2099990171
0.2099991084
0.2100008805
0.2100009785
0.2100009199
0.2100007781
0.2100005434
0.2100001643
0.2099991117
0.2099977817
0.2099925014
0.2099975586
0.2099986736
0.2099989064
0.2099990794
0.2099989873
0.209998864
0.2099987169
0.2099985699
0.2099984318
0.2099983177
0.2099982369
0.2099980739
0.2099979621
0.2099978932
0.2099978792
0.2099979322
0.2099980444
0.2099982259
0.2099984405
0.2099986576
0.2099987955
0.2099988763
0.209998927
0.2099990079
0.2100007744
0.2100008256
0.2100007606
0.2100006475
0.2100005048
0.2100003715
0.2100002996
0.2100002234
0.209998993
0.2099992283
0.2099994405
0.2099992297
0.2099990905
0.2099989342
0.2099987665
0.2099985958
0.209998436
0.2099982973
0.2099981831
0.2099980833
0.2099979368
0.2099978241
0.2099977601
0.2099977585
0.2099978286
0.2099979656
0.2099981639
0.2099983919
0.2099986192
0.2099987662
0.2099988566
0.2099989047
0.2099989961
0.2100006754
0.2100006721
0.2100006054
0.2100005221
0.2100004208
0.210000263
0.2100000224
0.2099997512
0.2099990858
0.2099992847
0.2099992831
0.2099991842
0.2099990924
0.2099989457
0.2099987698
0.2099985865
0.2099984162
0.2099982704
0.2099981477
0.2099980346
0.2099979062
0.2099978036
0.2099977499
0.2099977603
0.2099978425
0.2099979902
0.20999819
0.2099984126
0.2099986256
0.209998795
0.2099988943
0.2099989063
0.209999049
0.2100005861
0.2100005228
0.2100004449
0.210000377
0.2100003087
0.2100002082
0.2100000597
0.2099998759
0.2099996498
0.2099994876
0.2099993631
0.2099992563
0.2099991396
0.2099989933
0.2099988214
0.2099986411
0.2099984729
0.209998329
0.2099982069
0.2099980945
0.2099979815
0.2099978907
0.209997845
0.2099978601
0.2099979409
0.2099980789
0.2099982594
0.2099984678
0.2099986788
0.2099988528
0.2099991149
0.2099990493
0.2099992073
0.210000523
0.2100004062
0.2100003184
0.2100002639
0.2100002219
0.2100001549
0.2100000401
0.2099998774
0.2099996866
0.2099995271
0.2099994101
0.2099993125
0.2099991979
0.2099990585
0.2099989011
0.2099987371
0.2099985839
0.2099984535
0.2099983438
0.2099982439
0.2099981471
0.2099980666
0.2099980225
0.20999803
0.2099980933
0.2099982042
0.2099983579
0.2099985723
0.2099987588
0.2099989584
0.2099991663
0.2099992654
0.2099994206
0.2100004861
0.2100003247
0.2100002278
0.2100001851
0.2100001626
0.2100001182
0.2100000239
0.2099998819
0.2099997178
0.2099995682
0.209999457
0.2099993671
0.2099992574
0.2099991274
0.2099989936
0.2099988573
0.2099987312
0.2099986254
0.2099985384
0.2099984593
0.2099983803
0.2099983078
0.2099982586
0.2099982497
0.2099982892
0.2099983764
0.2099985196
0.2099987553
0.2099989258
0.2099990887
0.209999272
0.2099994434
0.2099995983
0.2100004876
0.2100002972
0.210000191
0.2100001535
0.2100001384
0.2100001003
0.2100000155
0.209999889
0.2099997434
0.2099996081
0.2099995042
0.2099994186
0.2099993111
0.2099991881
0.2099990824
0.2099989827
0.2099988929
0.2099988201
0.2099987621
0.2099987082
0.209998649
0.2099985857
0.2099985316
0.209998506
0.2099985218
0.2099985848
0.2099987129
0.2099989493
0.209999097
0.2099992769
0.2099994646
0.20999961
0.2099997461
0.210000495
0.2100003044
0.2100002039
0.2100001704
0.2100001489
0.2100000995
0.2100000136
0.2099998954
0.2099997632
0.2099996408
0.2099995442
0.2099994612
0.2099993518
0.2099992307
0.2099991477
0.2099990908
0.2099990426
0.2099990062
0.2099989778
0.2099989482
0.2099989111
0.2099988642
0.2099988135
0.2099987779
0.209998774
0.2099988129
0.209998917
0.2099991384
0.2099992633
0.2099994529
0.2099996169
0.2099997334
0.2099998631
0.2100004936
0.2100003315
0.2100002522
0.2100002242
0.2100001895
0.2100001217
0.2100000259
0.2099999058
0.2099997777
0.2099996612
0.2099995682
0.2099994858
0.2099993734
0.2099992511
0.2099991815
0.2099991595
0.2099991536
0.2099991531
0.2099991501
0.2099991398
0.2099991244
0.2099991044
0.2099990737
0.2099990425
0.2099990314
0.2099990535
0.2099991304
0.2099993235
0.2099994367
0.2099996181
0.2099997508
0.2099999438
0.210000022
0.2100004749
0.2100003586
0.210000308
0.2100002888
0.2100002411
0.2100001676
0.2100000622
0.2099999316
0.2099997937
0.2099996691
0.2099995696
0.2099994821
0.2099993688
0.2099992491
0.2099991878
0.2099991901
0.20999922
0.2099992532
0.2099992756
0.2099992841
0.2099992865
0.2099992883
0.209999286
0.2099992739
0.2099992714
0.2099992899
0.2099993437
0.2099994979
0.2099996031
0.2099997532
0.2099998824
0.2100000687
0.2100001592
0.2100004333
0.2100003653
0.2100003412
0.2100003327
0.2100002867
0.210000218
0.2100001123
0.2099999728
0.2099998159
0.2099996667
0.2099995465
0.2099994447
0.2099993329
0.2099992267
0.2099991774
0.2099991983
0.2099992582
0.209999323
0.2099993707
0.2099993958
0.2099994088
0.2099994203
0.2099994345
0.2099994499
0.2099994659
0.2099994932
0.2099995353
0.2099996487
0.2099997447
0.2099998554
0.2100000253
0.2100002514
0.2100003288
0.2100003666
0.2100003439
0.2100003373
0.2100003386
0.2100003013
0.2100002433
0.2100001473
0.2100000091
0.2099998368
0.2099996546
0.2099994996
0.2099993798
0.2099992707
0.2099991869
0.2099991576
0.2099991981
0.2099992835
0.2099993764
0.2099994483
0.209999489
0.2099995083
0.2099995209
0.2099995365
0.2099995631
0.2099996007
0.2099996419
0.2099996863
0.2099997715
0.2099998629
0.2099999543
0.2100001614
0.2100003744
0.2100004554
0.2100002672
0.2100002932
0.2100002955
0.2100003047
0.2100002734
0.2100002235
0.21000014
0.210000013
0.2099998397
0.2099996316
0.2099994452
0.2099993138
0.2099992077
0.2099991432
0.2099991332
0.20999919
0.2099992946
0.2099994109
0.2099995067
0.2099995669
0.2099995975
0.2099996129
0.2099996253
0.2099996463
0.2099996861
0.2099997407
0.2099997989
0.2099998762
0.2099999727
0.2100000701
0.2100002717
0.2100004333
0.2100005182
0.2100001246
0.2100002087
0.2100002202
0.210000228
0.2100002074
0.2100001572
0.2100000809
0.209999969
0.2099998133
0.2099996051
0.2099994148
0.2099992871
0.2099991859
0.209999126
0.2099991171
0.2099991731
0.2099992827
0.2099994141
0.2099995339
0.2099996215
0.2099996741
0.2099997011
0.209999715
0.2099997313
0.2099997649
0.2099998208
0.2099998894
0.2099999715
0.2100000792
0.2100001849
0.2100003455
0.2100004591
0.2100005271
0.2099999412
0.2100000775
0.2100001126
0.2100001129
0.2100000983
0.2100000514
0.2099999766
0.2099998775
0.2099997468
0.2099995794
0.2099994236
0.2099993186
0.2099992295
0.2099991617
0.2099991305
0.2099991606
0.2099992529
0.209999383
0.2099995181
0.2099996329
0.2099997139
0.2099997599
0.2099997808
0.2099997983
0.2099998375
0.2099999032
0.209999983
0.2100000722
0.2100001846
0.210000278
0.2100003929
0.2100004764
0.2100005171
0.2099997518
0.2099998935
0.2099999598
0.2099999622
0.2099999363
0.2099998882
0.2099998174
0.2099997311
0.2099996378
0.2099995358
0.2099994412
0.2099993741
0.2099993057
0.2099992308
0.2099991704
0.2099991611
0.2099992186
0.2099993275
0.2099994583
0.2099995839
0.2099996842
0.2099997487
0.2099997797
0.2099998003
0.2099998517
0.2099999445
0.2100000483
0.2100001499
0.2100002564
0.210000337
0.210000415
0.2100004843
0.2100005001
0.2099996445
0.2099996932
0.2099997527
0.2099997641
0.2099997311
0.2099996724
0.2099996018
0.2099995329
0.2099994789
0.2099994403
0.2099994094
0.2099993842
0.2099993408
0.2099992686
0.2099991889
0.2099991439
0.2099991614
0.2099992364
0.2099993441
0.209999459
0.2099995606
0.2099996338
0.2099996745
0.2099997014
0.2099997663
0.209999894
0.2100000307
0.210000147
0.2100002467
0.2100003185
0.2100003677
0.2100004162
0.2100004132
0.2099997407
0.2099995557
0.2099995246
0.2099995036
0.2099994595
0.2099993961
0.2099993297
0.2099992776
0.2099992548
0.2099992614
0.2099992772
0.2099992853
0.2099992653
0.2099992048
0.2099991192
0.2099990491
0.2099990318
0.2099990744
0.2099991562
0.2099992515
0.2099993401
0.2099994079
0.2099994511
0.2099994863
0.2099995688
0.2099997331
0.2099999103
0.2100000452
0.2100001395
0.2100002012
0.2100002425
0.210000273
0.2100002654
0.2099999969
0.2099995241
0.2099993249
0.2099992027
0.2099991046
0.209999021
0.2099989547
0.2099989147
0.2099989103
0.2099989361
0.2099989716
0.2099989992
0.2099990022
0.2099989659
0.2099988939
0.2099988159
0.2099987702
0.2099987737
0.2099988152
0.2099988735
0.2099989321
0.2099989825
0.2099990239
0.2099990713
0.2099991784
0.2099993975
0.2099996455
0.209999824
0.2099999215
0.2099999513
0.2099999494
0.2099999555
0.2099999753
0.2100023547
0.2100022091
0.2100019824
0.2100017069
0.2100014906
0.2100014172
0.2100014243
0.2100014523
0.2100014926
0.2100015381
0.2100015708
0.2100015718
0.2100015305
0.2100014636
0.2100013815
0.210001277
0.2100011451
0.2100009902
0.2100008163
0.2100006211
0.2100003711
0.2100002379
0.2100001237
0.2100000785
0.2100000977
0.2100001526
0.2100000067
0.2099999939
0.2100000686
0.2100022543
0.210002052
0.2100017868
0.2100015188
0.2100013598
0.210001311
0.2100013056
0.2100013256
0.2100013242
0.2100013617
0.2100013818
0.2100013634
0.2100012985
0.2100012132
0.2100011263
0.210001028
0.2100009041
0.210000754
0.210000582
0.2100003952
0.2100001355
0.210000036
0.2099998439
0.2099998307
0.2099998703
0.2099999052
0.2099998534
0.2099996891
0.2099999442
0.2100001005
0.2100002627
0.2100004162
0.2100020917
0.210001871
0.2100016237
0.2100013954
0.2100012501
0.2100011813
0.2100011491
0.2100011271
0.2100011275
0.2100011834
0.2100012025
0.2100011768
0.210001097
0.2100009934
0.210000892
0.2100007876
0.2100006623
0.2100005083
0.2100003019
0.2100000113
0.2099987678
0.209999792
0.2099996095
0.2099996316
0.2099996219
0.2099996781
0.2099996879
0.2099997413
0.2099997908
0.2099999206
0.2100000618
0.2100002038
0.2100019141
0.2100017517
0.2100015545
0.2100013438
0.2100011905
0.2100011254
0.2100010555
0.21000127
0.2100009555
0.2100010472
0.2100010352
0.2100010022
0.2100009118
0.210000794
0.2100006785
0.2100005679
0.2100004458
0.2100003115
0.2100001685
0.2100000229
0.2099999163
0.2099997706
0.2099995451
0.2099995273
0.209999244
0.2099994727
0.2099994371
0.2099995061
0.2099996172
0.2099997418
0.2099998774
0.2100000211
0.2100001574
0.2100018488
0.2100017258
0.2100015301
0.2100012735
0.2100010746
0.2100009596
0.2100008876
0.2100007699
0.2100007332
0.2100008505
0.210000859
0.2100008228
0.2100007238
0.2100005991
0.2100004789
0.2100003734
0.2100002725
0.2100001586
0.2099999734
0.2099997134
0.2099995288
0.2099996828
0.2099996163
0.209999552
0.2099991546
0.2099993633
0.2099993437
0.2099994098
0.2099994816
0.2099995808
0.2099996958
0.2099998222
0.2099999518
0.2100017718
0.2100017314
0.2100014955
0.2100011398
0.2100009222
0.2100008344
0.2100007958
0.210000752
0.210000705
0.2100007192
0.2100006957
0.2100006285
0.2100005222
0.2100003997
0.2100002817
0.2100001728
0.2100000703
0.2099999507
0.2099998195
0.2099992694
0.2100010357
0.2099992136
0.2099994133
0.2099991698
0.2099968743
0.2099987654
0.2099989611
0.20999925
0.2099993516
0.2099994583
0.209999565
0.2099996734
0.2099997823
0.2100016383
0.210001529
0.2100012516
0.210000936
0.2100007446
0.2100006635
0.2100006226
0.2100005901
0.2100005664
0.2100005547
0.2100005089
0.2100004278
0.210000318
0.210000198
0.210000087
0.2099999962
0.209999926
0.209999863
0.209999754
0.2099994789
0.2099991665
0.2099995149
0.2099994743
0.2099994518
0.2099989508
0.2099992422
0.2099992002
0.2099992422
0.2099993033
0.2099993793
0.2099994589
0.2099995429
0.2099996333
0.2100014532
0.2100013338
0.2100011255
0.2100009113
0.2100007654
0.2100006728
0.210000606
0.2100005508
0.2100004921
0.2100004252
0.2100003511
0.2100002409
0.2100001146
0.2099999826
0.2099998601
0.209999755
0.2099996681
0.2099995999
0.2099995575
0.2099995486
0.2099995471
0.2099993896
0.2099992266
0.2099991727
0.2099988327
0.2099990392
0.2099990324
0.2099991206
0.2099991978
0.2099992691
0.2099993322
0.2099994016
0.209999487
0.2100012199
0.2100012481
0.2100011326
0.2100009838
0.2100008456
0.210000728
0.210000629
0.2100005464
0.2100004552
0.2100003124
0.2100001839
0.2100000323
0.2099998788
0.2099997346
0.2099996094
0.2099995067
0.2099994276
0.2099993714
0.2099993316
0.2099992996
0.2099991636
0.2099990535
0.2099989334
0.2099988638
0.2099987947
0.2099988041
0.209998854
0.2099989516
0.2099990398
0.2099991128
0.2099991713
0.2099992407
0.2099993338
0.2100011711
0.2100012517
0.2100011822
0.2100010581
0.2100009134
0.2100007642
0.2100006008
0.2100004796
0.2100004238
0.2100000857
0.2100000009
0.2099997726
0.2099996233
0.2099994601
0.209999312
0.2099991783