/*--------------------------------*- C++ -*----------------------------------*\
  =========                 |
  \\      /  F ield         | OpenFOAM: The Open Source CFD Toolbox
   \\    /   O peration     | Website:  https://openfoam.org
    \\  /    A nd           | Version:  8
     \\/     M anipulation  |
\*---------------------------------------------------------------------------*/
FoamFile
{
    version     2.0;
    format      ascii;
    class       surfaceScalarField;
    location    "1.7";
    object      phi;
}
// * * * * * * * * * * * * * * * * * * * * * * * * * * * * * * * * * * * * * //

dimensions      [1 0 -1 0 0 0 0];

internalField   nonuniform List<scalar> 
197358
(
9.378888734e-06
6.985349288e-06
-1.394918072e-05
1.089169055e-05
6.068502333e-06
-5.67286013e-06
6.493795027e-06
2.000544334e-06
1.526912596e-06
-2.921513893e-06
-6.613896319e-06
9.398229581e-06
-1.248579039e-05
-1.519483906e-05
1.129468591e-05
-1.668372752e-05
-2.070152364e-05
5.610418709e-06
-1.777376606e-05
-2.591189433e-05
1.367486427e-06
-1.78254054e-05
-3.17290037e-05
6.552626696e-07
-2.076745566e-05
-3.108520483e-05
1.313002374e-06
-2.526702591e-05
-3.355492053e-05
3.925557279e-06
-3.126498611e-05
-3.350378681e-05
5.767929605e-06
-3.835956264e-05
-3.256817564e-05
7.894454583e-06
-4.620884739e-05
-3.04958906e-05
9.757366204e-06
-5.312157867e-05
-2.778129463e-05
9.900681942e-06
-5.810238761e-05
-2.491260336e-05
9.061185201e-06
-6.117793892e-05
-2.244636991e-05
8.449069107e-06
-6.275329218e-05
-2.033796405e-05
8.486905726e-06
-6.308378665e-05
-1.880080993e-05
9.015104104e-06
-6.209333245e-05
-1.811284628e-05
9.490819159e-06
-5.873184514e-05
-1.824662784e-05
8.952309529e-06
-4.854355643e-05
-2.298720564e-05
5.764611814e-06
-3.539953318e-05
-1.998625971e-05
-1.43968827e-06
-1.626560987e-05
-2.763925867e-05
-5.706934481e-06
-8.660503763e-06
-2.62789513e-05
5.524799858e-06
-8.819415416e-06
-2.47907864e-05
1.293443191e-05
-8.251836906e-06
-2.021247576e-05
9.970158084e-06
6.450362681e-06
-2.428611752e-05
-2.072444443e-06
-1.681679791e-05
-1.780087893e-05
5.361806975e-06
9.337859555e-06
-7.713877638e-06
2.861885959e-06
8.456378433e-06
1.124931826e-07
-6.029108161e-06
2.681522954e-06
8.210490927e-06
-1.622361073e-05
-1.082099323e-05
1.440219362e-05
-2.208822375e-05
-1.867121377e-05
9.341899284e-06
-2.383025476e-05
-2.319957032e-05
4.241720712e-06
-2.330556565e-05
-2.894349442e-05
2.509853715e-06
-1.98330433e-05
-3.906054032e-05
3.862472471e-06
-2.342048864e-05
-2.957132636e-05
2.074604879e-06
-2.676392991e-05
-3.253770067e-05
2.326594371e-06
-3.089343401e-05
-3.162683228e-05
2.252928575e-06
-3.644918701e-05
-3.151924818e-05
4.507262821e-06
-4.370776362e-05
-3.041872631e-05
7.181910847e-06
-5.052784528e-05
-2.842770902e-05
7.467036761e-06
-5.534604832e-05
-2.609871953e-05
6.004883805e-06
-5.803856191e-05
-2.42282267e-05
4.474944365e-06
-5.920547278e-05
-2.29288785e-05
3.758400271e-06
-5.921669336e-05
-2.243562985e-05
3.646616123e-06
-5.784875224e-05
-2.299509344e-05
3.514906811e-06
-5.481902081e-05
-2.384689002e-05
2.571314867e-06
-4.390461558e-05
-3.346546548e-05
-4.351237277e-07
-3.361108166e-05
-2.217945456e-05
-8.099483124e-06
-1.603985741e-05
-2.640037342e-05
-1.880937969e-05
-4.287568939e-06
-2.43728735e-05
-1.365761562e-05
-2.109665999e-06
-2.997168814e-05
3.003702646e-06
-2.966710063e-06
-2.430368021e-05
4.948939995e-06
7.893990944e-06
-2.460735376e-05
-1.053877578e-05
2.770606421e-05
-1.554200539e-05
-2.108622595e-05
4.06775793e-05
-1.537599965e-05
-1.04141505e-05
4.964735737e-05
-1.924346727e-05
-6.604613153e-06
5.568741759e-05
-2.486899479e-05
-4.13564417e-06
-2.88946259e-05
-1.747683201e-06
7.427310368e-07
7.061615162e-06
1.533992893e-06
-3.710046335e-07
3.654477099e-07
9.205160882e-06
-6.636216765e-06
-5.630242279e-06
1.457753534e-05
-1.643543804e-05
-1.724768378e-05
1.622674852e-05
-2.358505852e-05
-2.274264245e-05
1.122277205e-05
-2.654805448e-05
-2.78735817e-05
7.641507686e-06
-2.60440695e-05
-3.305574253e-05
3.619909903e-06
-2.210671992e-05
-3.905007216e-05
-3.930607147e-06
-2.598385084e-05
-2.690882221e-05
1.215861285e-06
-2.86695449e-05
-2.985207955e-05
6.885666782e-11
-3.118370809e-05
-2.719192645e-05
-1.92059142e-06
-3.521539284e-05
-2.787769301e-05
3.90477212e-07
-4.178696372e-05
-2.801339988e-05
4.166706524e-06
-4.859498945e-05
-2.687112236e-05
5.251948566e-06
-5.359597526e-05
-2.483163874e-05
3.734426093e-06
-5.661769984e-05
-2.285337367e-05
1.647383602e-06
-5.879917083e-05
-2.135912077e-05
6.122054357e-07
-6.128452928e-05
-2.053571867e-05
5.859065308e-07
-6.410049959e-05
-2.061977962e-05
4.41059367e-07
-6.511609842e-05
-2.020548073e-05
-2.625014239e-06
-4.544686951e-05
-2.735567283e-05
-2.577962873e-05
-3.406500208e-05
-9.921298194e-06
-2.363901905e-05
-8.990505978e-06
-9.518901405e-07
-5.052228515e-05
7.894096515e-06
-5.014628566e-06
-3.624203094e-05
1.153328797e-06
-2.128680134e-05
-1.94338625e-06
-6.243471932e-06
-1.587512692e-05
-1.031015533e-06
1.359072149e-05
-6.772286269e-06
-3.766845269e-05
3.857960856e-05
1.107378476e-07
-4.064081675e-05
4.903803181e-05
-8.723506479e-06
-1.711027378e-05
5.137675557e-05
-1.446015703e-05
-7.121457874e-06
5.295292306e-05
-1.927089427e-05
-7.173718793e-06
-2.304157376e-05
-7.190066166e-06
-1.486378613e-06
6.39408572e-06
2.154387201e-06
-4.83661907e-06
-3.351017235e-06
7.06720256e-06
-1.09070567e-05
-1.11057356e-05
1.154653759e-05
-2.131522507e-05
-1.784528308e-05
1.100680191e-05
-3.338045105e-05
-1.89348698e-05
8.260261371e-06
-4.58933166e-05
-1.894784812e-05
3.597744903e-06
-5.168467976e-05
-1.710137113e-05
-1.011584707e-05
-1.909408014e-05
-6.418071291e-06
-6.51266952e-05
-1.799261431e-05
-2.389998878e-05
-4.120459873e-06
-2.939082417e-05
-1.851353465e-05
5.725554344e-08
-3.109170193e-05
-2.083198291e-05
-4.659347019e-06
-3.459483467e-05
-2.208976933e-05
-2.284556674e-06
-4.062697481e-05
-2.429553935e-05
2.314706227e-06
-4.749863309e-05
-2.477940513e-05
4.780417579e-06
-5.2960193e-05
-2.363532916e-05
4.265726629e-06
-5.649417434e-05
-2.190839567e-05
2.589459208e-06
-5.913075903e-05
-2.079430147e-05
2.072200524e-06
-6.181668779e-05
-2.121558665e-05
3.366230525e-06
-6.381191243e-05
-2.457039881e-05
5.946346978e-06
-6.084398093e-05
-2.879487259e-05
5.621991907e-06
-3.676230618e-05
-6.146628076e-05
1.002980903e-05
-2.870705032e-05
-1.62979682e-05
-1.677552369e-06
-1.717279818e-05
-7.380742744e-06
-5.10462264e-06
-7.084066893e-06
-5.762142895e-06
-9.340523296e-06
2.597805984e-06
-2.877250316e-05
-2.195637466e-06
5.251394085e-06
-1.250779043e-05
-6.020296297e-06
1.356888299e-05
-5.449358768e-06
-9.639838848e-06
2.550389112e-05
2.007103671e-06
-1.38307994e-05
3.284086115e-05
-4.606571532e-06
-1.145332295e-05
3.699635057e-05
-8.783375277e-06
-9.831692882e-06
4.389625875e-05
-1.033046108e-05
-1.583975587e-05
4.939961968e-05
-1.398343176e-05
-1.45609253e-05
-1.741978315e-05
-1.074896501e-05
1.002580357e-05
1.952255115e-05
-2.315378201e-05
1.901918744e-05
1.4676876e-05
-2.702073269e-05
4.600283339e-06
3.144038475e-06
1.697142948e-07
-1.978807981e-05
-3.233549076e-06
9.777474892e-06
-3.703365188e-05
-5.612069389e-06
3.924484265e-06
-3.759985349e-05
-4.737168514e-06
-1.364002223e-05
-2.652935295e-05
-3.543144561e-06
-2.461751367e-05
-1.948994406e-05
4.40882012e-07
-1.388338638e-05
-2.642564191e-05
-1.398547335e-05
-2.978031862e-06
-3.044638661e-05
-1.292500488e-05
-1.567963409e-06
-3.290326585e-05
-1.502657209e-05
-3.348396805e-06
-3.575460568e-05
-1.818948881e-05
-1.048598463e-06
-4.126851875e-05
-2.231127217e-05
3.530080779e-06
-4.779842331e-05
-2.484801311e-05
6.598967758e-06
-5.324961781e-05
-2.550464886e-05
7.320953941e-06
-5.698890716e-05
-2.484752584e-05
6.678823111e-06
-6.004827635e-05
-2.413629228e-05
6.401708231e-06
-6.350742606e-05
-2.444013436e-05
6.683963274e-06
-6.616725663e-05
-2.738191842e-05
5.471550908e-06
-5.815912025e-05
-2.855184237e-05
-8.251426858e-06
-3.338463136e-05
-5.310122938e-05
-3.314096083e-05
-2.871233917e-05
-2.303766186e-05
2.067720973e-06
-2.40309346e-05
-1.976398782e-05
7.702232519e-06
-1.435015686e-05
-1.192283929e-05
-3.519381572e-06
-1.335205925e-06
-2.915037472e-05
-1.263619824e-05
4.191666821e-06
-1.022940498e-05
-7.804645659e-06
1.219036889e-05
-7.616155994e-06
-5.831313249e-06
2.383394407e-05
-1.489982183e-06
-8.145837944e-06
3.22817194e-05
-3.495245064e-06
-9.558456083e-06
3.851771973e-05
-5.925682605e-06
-9.093059132e-06
4.39345248e-05
-6.983620255e-06
-8.76302879e-06
4.770936401e-05
-9.892149373e-06
-7.865503446e-06
-1.309003761e-05
-6.22009171e-06
-3.041490359e-06
2.03052174e-05
2.259231709e-06
8.400899288e-07
1.947163327e-05
-8.67591531e-06
-8.992398435e-07
1.135460283e-05
-6.470773457e-06
-1.252330636e-05
5.766968655e-06
2.624122245e-06
-2.616317424e-05
-6.875529728e-07
8.716236079e-06
-3.31832245e-05
-4.664437312e-06
6.948884537e-06
-3.552984741e-05
-7.72032175e-06
6.526553395e-06
-3.271162558e-05
-1.210617509e-05
9.731857995e-06
-3.672638284e-05
-1.683558664e-05
6.865738086e-06
-3.786560496e-05
-1.74207577e-05
5.635307269e-06
-3.885921637e-05
-1.845948203e-05
4.42689184e-06
-4.103199738e-05
-2.134442475e-05
5.328138369e-06
-4.546917441e-05
-2.524657044e-05
7.372920418e-06
-5.126103626e-05
-2.823039374e-05
9.174681831e-06
-5.749037867e-05
-2.958452605e-05
1.030963633e-05
-6.480649993e-05
-2.898090015e-05
1.14498785e-05
-7.587917561e-05
-2.660988246e-05
1.354659135e-05
-9.3940686e-05
-2.206073712e-05
1.568226715e-05
-0.0001167390814
-1.353033152e-05
8.947203855e-06
-8.238685374e-05
-1.009165258e-06
-6.189825543e-05
4.617561601e-05
5.509089353e-05
-0.000236757019
3.646946668e-05
7.601434091e-07
-1.408985028e-05
-1.937032713e-05
8.963351966e-06
2.711316405e-05
-1.844414286e-05
4.517634919e-06
-1.736590736e-05
2.932452707e-05
2.212236641e-05
-9.904219045e-05
3.282967644e-05
3.664900281e-06
-1.739908448e-05
2.554463947e-05
7.368381421e-07
-1.067738793e-06
2.817624762e-05
-2.311634288e-06
-1.809495113e-06
3.214456466e-05
-6.962205503e-06
-5.007784576e-07
3.762655222e-05
-1.233809305e-05
9.310583768e-07
4.349677153e-05
-1.470290897e-05
1.8497132e-06
4.787227513e-05
-1.658979995e-05
2.322793805e-06
-1.884810942e-05
3.069210026e-06
-6.53540037e-06
9.42669682e-06
1.741427938e-05
-6.932997249e-06
1.052763444e-05
9.341959876e-06
-9.767979771e-06
8.019507158e-06
6.170458714e-06
-1.99782531e-05
2.247445491e-06
1.373022638e-05
-2.996749101e-05
-5.979252827e-06
1.528146119e-05
-3.537087155e-05
-1.281955989e-05
1.355921157e-05
-3.764201419e-05
-1.79252148e-05
1.247697462e-05
-3.879043883e-05
-2.174124782e-05
1.07844154e-05
-3.94313886e-05
-2.560826599e-05
9.414208761e-06
-3.970014951e-05
-2.541313742e-05
8.261597441e-06
-4.044276511e-05
-2.559912318e-05
7.882697752e-06
-4.250648545e-05
-2.762912815e-05
8.348874139e-06
-4.628194489e-05
-3.080228477e-05
9.331621283e-06
-5.060339695e-05
-3.411133549e-05
1.020283082e-05
-5.448064641e-05
-3.635992128e-05
1.065306635e-05
-5.757897316e-05
-3.708240364e-05
1.120023502e-05
-6.05430117e-05
-3.586551337e-05
1.222005916e-05
-6.409695218e-05
-3.184137855e-05
1.333498155e-05
-6.756962856e-05
-2.294002584e-05
1.288289568e-05
-6.047424928e-05
-9.879660042e-06
1.775928412e-06
-2.525109493e-05
4.192305696e-05
-2.20543364e-05
-2.21694963e-05
-8.79923692e-06
6.478371138e-06
-2.479764012e-05
-2.753260067e-06
1.434559841e-05
-1.976174346e-05
-8.049094657e-06
7.531906211e-06
-5.650058718e-06
1.074666915e-05
-2.734981236e-06
2.081296755e-06
-7.90439724e-06
3.838387675e-06
8.867159659e-06
-1.397950695e-05
7.930871647e-06
1.620897188e-05
-2.015001967e-05
1.049714209e-05
2.278761521e-05
-2.589120916e-05
1.235102409e-05
2.825454866e-05
-3.113402637e-05
1.332970043e-05
3.278322316e-05
-3.141075573e-05
1.217987062e-05
3.712504555e-05
-3.081691891e-05
9.885990811e-06
-3.071167165e-05
7.628337154e-06
-9.8830701e-06
-2.449148222e-06
2.175918691e-05
-1.675242271e-05
1.832034878e-06
1.556522448e-05
-2.224053407e-05
4.534587968e-07
1.305443533e-05
-2.862263715e-05
-4.616655297e-06
1.324649195e-05
-3.475694193e-05
-1.144449741e-05
1.159986113e-05
-3.991489371e-05
-1.769075789e-05
1.002949638e-05
-4.315925604e-05
-2.318997874e-05
8.509495708e-06
-4.361024908e-05
-2.833683692e-05
7.046968324e-06
-4.145186715e-05
-3.379913767e-05
6.032918702e-06
-4.132793561e-05
-3.05099795e-05
4.97335904e-06
-4.197335451e-05
-3.060612335e-05
5.652843708e-06
-4.387348618e-05
-3.26810501e-05
6.952496357e-06
-4.727798365e-05
-3.550888134e-05
8.111535517e-06
-5.098202864e-05
-3.850431951e-05
8.097467052e-06
-5.399568988e-05
-4.062606147e-05
7.280232601e-06
-5.638581103e-05
-4.175496105e-05
7.063103075e-06
-5.876492471e-05
-4.176565891e-05
8.279679876e-06
-6.1348291e-05
-4.004354574e-05
1.078595699e-05
-6.277943799e-05
-3.566052457e-05
1.415210026e-05
-5.836219338e-05
-3.026886745e-05
1.597218104e-05
-3.242453393e-05
-9.463768372e-06
2.545005046e-05
-2.705169722e-05
-2.732317196e-05
1.315195748e-05
-2.269846198e-05
-2.271646199e-05
1.561095559e-05
-1.554931728e-05
-2.495108752e-05
9.753968778e-06
1.817768569e-07
-1.80034214e-05
1.302009868e-05
8.905831328e-06
-2.581402612e-05
9.185853392e-06
1.368817311e-05
-2.9678921e-05
1.091726528e-05
1.678590727e-05
-3.533592915e-05
1.208866587e-05
1.811018614e-05
-4.157037093e-05
1.43555451e-05
1.800132959e-05
-4.654354929e-05
1.551911102e-05
1.93145209e-05
-4.546501165e-05
1.274179962e-05
2.432845528e-05
-4.335353862e-05
7.523408882e-06
-4.065847304e-05
2.706553612e-06
-1.477919987e-05
-8.181717991e-06
2.051198585e-05
-2.357683277e-05
-3.347621278e-06
1.397750814e-05
-2.931311148e-05
-4.313174288e-06
1.050314418e-05
-3.459288039e-05
-7.991203233e-06
8.654548937e-06
-4.006608706e-05
-1.356397619e-05
7.592900444e-06
-4.468727196e-05
-1.953864607e-05
6.469241347e-06
-4.727482773e-05
-2.539085971e-05
4.788520728e-06
-4.720663822e-05
-3.144382615e-05
3.038790096e-06
-4.206564363e-05
-4.15441177e-05
2.604007543e-06
-4.113752928e-05
-3.225005802e-05
8.122804156e-07
-4.113627271e-05
-3.295134293e-05
2.344336213e-06
-4.340650671e-05
-3.439972992e-05
3.989352243e-06
-4.722564583e-05
-3.634547117e-05
4.656174885e-06
-5.068602073e-05
-3.804653584e-05
3.003037275e-06
-5.24845725e-05
-3.915335418e-05
3.262840318e-07
-5.295453167e-05
-4.024122885e-05
-1.043338995e-06
-5.300019055e-05
-4.113208587e-05
-5.874891262e-07
-5.28573839e-05
-4.107207902e-05
8.861335061e-07
-5.145407328e-05
-3.892981521e-05
1.866353603e-06
-4.812603512e-05
-3.531918906e-05
1.72262157e-06
-3.520714939e-05
-2.599362656e-05
3.611285315e-06
-2.961919352e-05
-3.275352494e-05
-1.571389624e-07
-2.187474631e-05
-2.958721354e-05
-8.731765823e-07
-1.339540776e-05
-3.126785121e-05
-2.161782719e-06
-1.769531543e-06
-2.789087737e-05
-1.737612645e-06
6.929348238e-06
-3.359788166e-05
-9.146661973e-07
1.232041527e-05
-3.699773114e-05
1.928172199e-06
1.409729233e-05
-4.296622304e-05
5.854042539e-06
1.169854206e-05
-5.031337493e-05
1.114249042e-05
6.374918442e-06
-5.514958259e-05
1.393042742e-05
6.07533485e-06
-5.361732904e-05
8.452662059e-06
1.360936485e-05
-5.088024989e-05
-6.582496091e-09
-4.657986832e-05
-5.696179084e-06
-1.699428372e-05
-6.995607757e-06
1.580832846e-05
-2.682194327e-05
-2.499055786e-06
8.979240932e-06
-3.410128007e-05
-2.95780785e-06
5.924103469e-06
-4.106024655e-05
-5.797908942e-06
4.765794804e-06
-4.855559252e-05
-1.059725297e-05
4.528734378e-06
-5.52848547e-05
-1.7067465e-05
4.258180242e-06
-5.892314851e-05
-2.616843751e-05
4.415944288e-06
-5.459499862e-05
-4.098599985e-05
5.2137423e-06
-3.401246519e-05
-7.215764995e-05
1.003149791e-05
-3.369020959e-05
-3.235536147e-05
-2.163525183e-07
-3.602759841e-05
-3.243736714e-05
1.823917471e-06
-4.151561089e-05
-2.967749511e-05
7.663655318e-07
-4.754668748e-05
-2.989469593e-05
-4.192295278e-07
-5.13049203e-05
-3.02902114e-05
-3.997628792e-06
-5.210241062e-05
-3.037286159e-05
-7.982542813e-06
-5.119523396e-05
-3.116363512e-05
-9.984307994e-06
-5.031481279e-05
-3.260396056e-05
-9.408084919e-06
-5.001117121e-05
-3.391892767e-05
-7.456343573e-06
-4.893426726e-05
-3.366657987e-05
-6.339720455e-06
-4.579584275e-05
-3.154522152e-05
-6.912028405e-06
-3.68698578e-05
-2.772555073e-05
-7.193721073e-06
-3.075817049e-05
-2.890267706e-05
-9.962233667e-06
-2.16709729e-05
-2.75577333e-05
-1.11163524e-05
-1.249704999e-05
-2.80118479e-05
-1.242944465e-05
-7.540574014e-07
-2.756157548e-05
-1.20717128e-05
7.922246004e-06
-3.141540792e-05
-1.085823639e-05
1.314093635e-05
-3.531597055e-05
-6.899841294e-06
1.363438198e-05
-4.236269433e-05
-1.096250114e-06
7.080085646e-06
-5.135081243e-05
7.592512098e-06
-2.620845447e-06
-5.645731521e-05
1.10094517e-05
-3.062819864e-06
-5.496139728e-05
1.786807025e-06
6.667366575e-06
-5.25857279e-05
-8.023978339e-06
-4.752037603e-05
-1.424022959e-05
-1.776178435e-05
-2.598737798e-06
1.336506341e-05
-2.780461722e-05
1.353323657e-06
6.190587833e-06
-3.549283762e-05
1.71166581e-06
3.018849691e-06
-4.293220687e-05
2.477129733e-07
1.393787153e-06
-5.022132462e-05
-3.586707933e-06
2.784580458e-07
-5.604480167e-05
-1.014741585e-05
-1.096881172e-06
-5.871059642e-05
-2.023925662e-05
-3.263769197e-06
-5.466493553e-05
-3.322064e-05
-1.181154556e-05
-4.812784326e-05
-4.241139724e-05
-3.628316128e-05
-3.95414901e-05
-1.785567266e-05
-2.308564013e-05
-3.872551174e-05
-2.554845645e-05
-7.704658238e-06
-4.398485414e-05
-1.90839583e-05
-5.333794504e-06
-4.943017733e-05
-1.772965652e-05
-6.719281059e-06
-5.242049434e-05
-1.595643881e-05
-1.134298018e-05
-5.202891507e-05
-1.469521276e-05
-1.606874439e-05
-4.975451559e-05
-1.514442162e-05
-1.82931192e-05
-4.786562347e-05
-1.694018236e-05
-1.755217451e-05
-4.73596861e-05
-1.911080586e-05
-1.531357371e-05
-4.68232976e-05
-1.979458352e-05
-1.440793203e-05
-4.366499052e-05
-1.84001501e-05
-1.630301143e-05
-3.769933249e-05
-1.683799142e-05
-1.685290274e-05
-3.122792359e-05
-1.716332888e-05
-1.82105158e-05
-2.25651162e-05
-1.70152502e-05
-1.920505212e-05
-1.31027184e-05
-1.78914259e-05
-1.958246333e-05
-2.408378751e-06
-1.910290817e-05
-1.91525007e-05
6.44922554e-06
-2.304946119e-05
-1.722293582e-05
1.171587353e-05
-2.774709639e-05
-1.283481816e-05
1.160184802e-05
-3.620066444e-05
-6.047237101e-06
1.989348919e-06
-4.629146144e-05
4.553933785e-06
-1.01264443e-05
-5.109950563e-05
6.758764127e-06
-1.041475865e-05
-4.926313368e-05
-5.409203372e-06
1.018372206e-06
-4.808754995e-05
-1.593059937e-05
-4.307199805e-05
-2.321029894e-05
-2.258656296e-05
5.133080198e-06
1.485486018e-05
-3.720635587e-05
8.55965341e-06
7.413555197e-06
-5.02665023e-05
1.079494044e-05
3.976915727e-06
-6.432997987e-05
1.235207784e-05
1.959044502e-06
-8.312383081e-05
1.369020552e-05
1.516660159e-06
-0.0001117648458
1.563657552e-05
2.856321154e-06
-0.0001493564214
2.065526999e-05
-3.304553748e-06
-0.0001516407378
3.874177659e-05
-6.968849794e-05
-9.53789412e-06
9.215611421e-05
-0.0002766887242
3.400563709e-05
1.568321428e-05
-7.707741013e-05
-9.616859155e-06
1.312144557e-05
4.952866318e-06
-3.113159794e-05
5.132962019e-06
-2.701442911e-06
-4.586530141e-05
4.418338526e-06
-7.413781589e-06
-5.217300435e-05
5.36497007e-06
-1.501312393e-05
-5.200438764e-05
5.927458186e-06
-2.079075874e-05
-4.896698924e-05
5.427999089e-06
-2.360928431e-05
-4.630536157e-05
3.680622772e-06
-2.328188838e-05
-4.582730061e-05
1.548836845e-06
-2.11371617e-05
-4.607000401e-05
4.970422573e-07
-2.004840947e-05
-4.379333699e-05
8.051032865e-07
-2.148149042e-05
-3.891013546e-05
1.035937786e-06
-2.275672811e-05
-3.270606923e-05
4.153823386e-07
-2.378244082e-05
-2.463471156e-05
-7.15574904e-07
-2.43707079e-05
-1.54317582e-05
-2.7834076e-06
-2.431056397e-05
-5.268556571e-06
-5.814494968e-06
-2.34510787e-05
3.558386999e-06
-1.075909903e-05
-2.11166485e-05
8.636873862e-06
-1.654440573e-05
-1.628044378e-05
7.565622501e-06
-2.659765483e-05
-8.530994478e-06
-4.815555662e-06
-3.627982097e-05
2.370300405e-06
-1.797399372e-05
-3.887885728e-05
9.385400651e-07
-1.728159575e-05
-3.644987207e-05
-1.350495096e-05
-4.484279533e-06
-3.586228432e-05
-2.502189207e-05
-3.063869403e-05
-3.41762052e-05
-2.373084505e-05
1.216775822e-05
1.669632797e-05
-3.961648974e-05
1.521088783e-05
9.234557635e-06
-5.200474773e-05
1.806734819e-05
5.115967089e-06
-6.169951208e-05
2.051194908e-05
1.534937507e-06
-6.981672932e-05
2.321471454e-05
-1.407426401e-06
-7.829349609e-05
2.759352527e-05
-3.480775888e-06
-8.784631645e-05
3.620085381e-05
-5.99402183e-06
-8.364861344e-05
5.348393272e-05
-1.894268182e-05
-3.003230319e-05
9.230280852e-05
-5.376906849e-05
-2.019395482e-05
3.95378219e-05
-3.369268152e-05
-3.232378278e-05
3.201964078e-05
-6.768976744e-06
-4.49940333e-05
2.40242642e-05
-6.220644206e-06
-5.479064268e-05
2.223391207e-05
-8.018602783e-06
-5.926796021e-05
2.334109014e-05
-1.349834213e-05
-5.842095982e-05
2.40798423e-05
-1.899888106e-05
-5.497717898e-05
2.413124879e-05
-2.214648878e-05
-5.182410923e-05
2.324781071e-05
-2.271968466e-05
-5.026943427e-05
2.210704253e-05
-2.211229019e-05
-4.895573803e-05
2.144916179e-05
-2.226522976e-05
-4.593357023e-05
2.121271318e-05
-2.342922737e-05
-4.135964891e-05
2.071276966e-05
-2.425021879e-05
-3.553264495e-05
1.941974185e-05
-2.483086993e-05
-2.807141624e-05
1.71301396e-05
-2.53064579e-05
-1.918916938e-05
1.370062433e-05
-2.536574353e-05
-9.497686893e-06
9.188025618e-06
-2.469338381e-05
-1.003318845e-06
3.380465344e-06
-2.263323772e-05
3.575388869e-06
-3.158113647e-06
-1.796426647e-05
2.98173722e-07
-1.470055961e-05
-8.619145905e-06
-1.488807129e-05
-2.179445957e-05
7.016058209e-07
-2.718270469e-05
-2.023980288e-05
-6.343718861e-06
-2.365728967e-05
-1.645078937e-05
-2.352383265e-05
-8.454504526e-06
-1.273768815e-05
-3.832671864e-05
-6.362802094e-06
-4.82225383e-05
-2.452548549e-05
1.808649087e-05
1.860693892e-05
-4.194491502e-05
2.086615873e-05
1.176433585e-05
-5.572904251e-05
2.420094168e-05
7.650707505e-06
-6.618629674e-05
2.726544117e-05
3.703972205e-06
-7.340776254e-05
3.037076125e-05
6.557376477e-08
-7.772747971e-05
3.404990678e-05
-2.136718446e-06
-7.80386063e-05
3.93681001e-05
-2.856511485e-06
-6.888506504e-05
4.76479182e-05
-3.318269563e-06
-3.819428541e-05
6.484385785e-05
-3.232247464e-06
-3.329689216e-05
4.463968228e-05
-9.998593836e-06
-3.700737625e-05
3.930532764e-05
-3.575048447e-06
-4.656006156e-05
3.640674654e-05
-2.829296809e-06
-5.670238662e-05
3.61963304e-05
-3.819660485e-06
-6.224357979e-05
3.783703726e-05
-8.954291138e-06
-6.242622147e-05
3.905885337e-05
-1.479587444e-05
-5.94350472e-05
3.963938998e-05
-1.84987786e-05
-5.590547199e-05
3.954362378e-05
-1.982480912e-05
-5.307069273e-05
3.920968336e-05
-1.993680546e-05
-5.043173699e-05
3.909120152e-05
-2.028035924e-05
-4.721471704e-05
3.905760055e-05
-2.106126957e-05
-4.33062222e-05
3.841280812e-05
-2.160789529e-05
-3.841228476e-05
3.661615034e-05
-2.208972492e-05
-3.198398251e-05
3.347237074e-05
-2.276991712e-05
-2.403247519e-05
2.900542631e-05
-2.3255669e-05
-1.523130589e-05
2.339628358e-05
-2.300874702e-05
-7.552415201e-06
1.692030776e-05
-2.121802136e-05
-3.419718221e-06
9.707501098e-06
-1.699759779e-05
-1.150322006e-05
-7.445725715e-07
-5.871783921e-06
-3.133866399e-05
-1.220846827e-06
-7.374875177e-07
-4.228337278e-05
4.026200928e-06
-1.332064531e-05
-3.503273284e-05
1.027642199e-05
-3.397723473e-05
-1.359452255e-05
1.820915563e-05
-5.238436171e-05
2.400857439e-05
-5.821158913e-05
-2.473828545e-05
2.242265318e-05
2.040235164e-05
-4.282821354e-05
2.462570645e-05
1.433060581e-05
-5.687897036e-05
2.789111639e-05
1.036080793e-05
-6.67230728e-05
3.101942541e-05
6.090356881e-06
-7.215756522e-05
3.414282473e-05
1.662666871e-06
-7.347450822e-05
3.756340236e-05
-2.196486868e-06
-7.091973677e-05
4.168291453e-05
-4.869711177e-06
-6.373171169e-05
4.676032556e-05
-6.300703383e-06
-4.679232528e-05
5.383045852e-05
-5.926236049e-06
-4.161844581e-05
4.790642105e-05
-8.440272673e-06
-4.243959688e-05
4.523233622e-05
-5.105650232e-06
-4.929842657e-05
4.512541169e-05
-1.859465745e-06
-5.834840646e-05
4.640413405e-05
-1.157400441e-06
-6.398009528e-05
4.881334733e-05
-5.344156974e-06
-6.456202581e-05
5.073120074e-05
-1.108992109e-05
-6.178555713e-05
5.206492356e-05
-1.520146804e-05
-5.800084858e-05
5.29572654e-05
-1.719777324e-05
-5.459270232e-05
5.367752383e-05
-1.787536984e-05
-5.172367761e-05
5.440724837e-05
-1.818442234e-05
-4.908860676e-05
5.482431131e-05
-1.840111175e-05
-4.639689246e-05
5.420442685e-05
-1.848264943e-05
-4.293298416e-05
5.200468238e-05
-1.885175654e-05
-3.780703511e-05
4.808542255e-05
-1.973831711e-05
-3.073771974e-05
4.257097866e-05
-2.063417502e-05
-2.207498881e-05
3.564871322e-05
-2.091445571e-05
-1.313060345e-05
2.779372386e-05
-1.981709327e-05
-6.294479696e-06
1.916613449e-05
-1.629406712e-05
-1.289041566e-05
1.110339216e-05
-5.251360379e-06
-3.397592733e-05
1.839582161e-05
1.469488902e-06
-4.39184979e-05
2.759240297e-05
-1.362302613e-05
-3.112600194e-05
3.720139797e-05
-3.971678059e-05
-1.209613394e-05
4.490875279e-05
-4.572880405e-05
4.940650543e-05
-5.238754118e-05
-2.462764698e-05
2.50802017e-05
2.197036921e-05
-4.315655695e-05
2.66233521e-05
1.653153413e-05
-5.741893092e-05
2.943579723e-05
1.271795942e-05
-6.706278542e-05
3.229252124e-05
8.371017499e-06
-7.187571665e-05
3.528906139e-05
3.666931452e-06
-7.19922635e-05
3.856504582e-05
-8.849260432e-07
-6.808414572e-05
4.218592529e-05
-4.411010005e-06
-6.07181167e-05
4.61018081e-05
-6.707396311e-06
-4.937271867e-05
4.997069835e-05
-7.485492837e-06
-4.345289134e-05
4.984448665e-05
-7.857544881e-06
-4.319004875e-05
4.975706936e-05
-4.787243113e-06
-4.888310294e-05
5.132302925e-05
-5.04165146e-07
-5.756726025e-05
5.376222464e-05
1.326511606e-06
-6.351646936e-05
5.688176532e-05
-2.118727212e-06
-6.464655267e-05
5.953806025e-05
-7.676267515e-06
-6.226493133e-05
6.167143493e-05
-1.198759154e-05
-5.857768694e-05
6.358391347e-05
-1.431331323e-05
-5.516860588e-05
6.541087238e-05
-1.514181255e-05
-5.271755301e-05
6.709009987e-05
-1.513325342e-05
-5.124658382e-05
6.808981888e-05
-1.473579911e-05
-5.021945796e-05
6.760183068e-05
-1.442383322e-05
-4.849672102e-05
6.513084841e-05
-1.484819942e-05
-4.493191019e-05
6.066087535e-05
-1.6139559e-05
-3.89538109e-05
5.437368407e-05
-1.778009944e-05
-3.042851087e-05
4.649141238e-05
-1.936729489e-05
-1.983991272e-05
3.771881831e-05
-2.051299613e-05
-9.873578256e-06
2.910779647e-05
-1.990731718e-05
-9.342170009e-06
2.315797605e-05
-1.25853456e-05
-2.56520504e-05
3.105954988e-05
3.646776747e-06
-3.562639692e-05
4.281358386e-05
-5.246239351e-06
-2.312800444e-05
5.383046683e-05
-2.912684792e-05
-5.840599733e-06
6.303117803e-05
-3.540921931e-05
6.774511124e-05
-4.331495537e-05
-2.477693404e-05
2.643816481e-05
2.341928348e-05
-4.35827689e-05
2.725714742e-05
1.817235384e-05
-5.761969608e-05
2.938610342e-05
1.408693451e-05
-6.664044579e-05
3.180753319e-05
9.5060462e-06
-7.064597561e-05
3.465786757e-05
4.637021322e-06
-6.988368148e-05
3.796881781e-05
-1.657878744e-07
-6.530448764e-05
4.164293029e-05
-4.035928177e-06
-5.794534135e-05
4.549535907e-05
-6.752413324e-06
-4.900495141e-05
4.903414314e-05
-8.003522051e-06
-4.272379469e-05
5.114220711e-05
-7.578484908e-06
-4.155341746e-05
5.292284194e-05
-4.335743904e-06
-4.640552905e-05
5.560409723e-05
5.714858327e-07
-5.479592612e-05
5.880697191e-05
3.346130276e-06
-6.110621477e-05
6.246858213e-05
7.239842834e-07
-6.287699515e-05
6.581576662e-05
-4.506389268e-06
-6.107966466e-05
6.867673601e-05
-8.802068403e-06
-5.786552717e-05
7.151203122e-05
-1.11416599e-05
-5.504198773e-05
7.438007427e-05
-1.17921131e-05
-5.366421912e-05
7.700413372e-05
-1.129114374e-05
-5.386930733e-05
7.86200044e-05
-1.032441327e-05
-5.480353651e-05
7.834205259e-05
-9.805291326e-06
-5.498383448e-05
7.584961398e-05
-1.053775978e-05
-5.311026196e-05
7.136668924e-05
-1.257867995e-05
-4.827535901e-05
6.517137563e-05
-1.56318921e-05
-3.960293441e-05
5.761410135e-05
-1.979441555e-05
-2.659076621e-05
4.964818609e-05
-2.494084343e-05
-1.133517387e-05
4.290113056e-05
-2.904824476e-05
-5.34770599e-07
3.875080336e-05
-2.639260233e-05
-9.174972266e-06
4.428439945e-05
-4.584038055e-06
-2.222684367e-05
5.37777541e-05
2.088304828e-06
-1.400257741e-05
6.362130361e-05
-1.801449771e-05
2.65701532e-06
7.318382899e-05
-2.68116257e-05
7.881234656e-05
-3.369091539e-05
-2.459132724e-05
2.651557098e-05
2.451427579e-05
-4.369964381e-05
2.740694242e-05
1.895888098e-05
-5.736870263e-05
2.888547337e-05
1.417005044e-05
-6.549425171e-05
3.081960144e-05
9.113842588e-06
-6.845727226e-05
3.351163374e-05
4.109615386e-06
-6.68926306e-05
3.697745605e-05
-5.729193723e-07
-6.190981431e-05
4.100788627e-05
-4.347404558e-06
-5.467262765e-05
4.526818181e-05
-7.009625094e-06
-4.659370676e-05
4.919283304e-05
-8.237202615e-06
-4.028182139e-05
5.233517028e-05
-7.504402408e-06
-3.839015517e-05
5.513521727e-05
-4.103579378e-06
-4.246833757e-05
5.841586542e-05
1.266901503e-06
-5.057214348e-05
6.196365649e-05
4.947642801e-06
-5.731927369e-05
6.586528054e-05
3.350984232e-06
-5.97868502e-05
6.970234974e-05
-1.418431628e-06
-5.879732716e-05
7.319217841e-05
-5.504367746e-06
-5.645154961e-05
7.678735194e-05
-7.620472921e-06
-5.476885068e-05
8.056811322e-05
-7.870083921e-06
-5.501140412e-05
8.40580873e-05
-6.810719586e-06
-5.721083219e-05
8.625456863e-05
-5.434434026e-06
-6.015262512e-05
8.63227321e-05
-5.038171768e-06
-6.210909403e-05
8.428791862e-05
-6.481119449e-06
-6.164028396e-05
8.062655763e-05
-9.727968185e-06
-5.755583379e-05
7.571286236e-05
-1.46252347e-05
-4.846008257e-05
6.99213563e-05
-2.140230871e-05
-3.322005444e-05
6.397060195e-05
-2.956174339e-05
-1.312504419e-05
5.904864942e-05
-3.624182734e-05
4.869371708e-06
5.565151449e-05
-3.489445776e-05
4.766314227e-06
5.951731347e-05
-1.512922179e-05
-7.331527065e-06
6.525262575e-05
6.236057214e-07
-2.636186837e-06
7.246992632e-05
-1.354328606e-05
1.353356531e-05
7.797028092e-05
-2.095551743e-05
8.431815275e-05
-2.484608956e-05
-2.454194264e-05
2.617716255e-05
2.488075207e-05
-4.328477191e-05
2.797621746e-05
1.817396094e-05
-5.60362425e-05
2.916030947e-05
1.247704534e-05
-6.30167038e-05
3.065625004e-05
7.144227683e-06
-6.49055569e-05
3.307555376e-05
2.325353286e-06
-6.270668416e-05
3.662284132e-05
-1.843830433e-06
-5.757078031e-05
4.102210151e-05
-5.149679924e-06
-5.059258254e-05
4.575169608e-05
-7.46125702e-06
-4.306175794e-05
5.010410305e-05
-8.441620754e-06
-3.691628892e-05