/*--------------------------------*- C++ -*----------------------------------*\
  =========                 |
  \\      /  F ield         | OpenFOAM: The Open Source CFD Toolbox
   \\    /   O peration     | Website:  https://openfoam.org
    \\  /    A nd           | Version:  8
     \\/     M anipulation  |
\*---------------------------------------------------------------------------*/
FoamFile
{
    version     2.0;
    format      ascii;
    class       volScalarField;
    location    "1.7";
    object      alphat;
}
// * * * * * * * * * * * * * * * * * * * * * * * * * * * * * * * * * * * * * //

dimensions      [1 -1 -1 0 0 0 0];

internalField   nonuniform List<scalar> 
67451
(
0.0001761367268
0.0001736152039
0.0002132330204
0.0002698791365
0.0003084376167
0.0002580311537
0.0002403465992
0.0002874223626
0.0003622728841
0.0004364999483
0.0004932918925
0.0002296081705
0.0002173439449
0.0002048036486
0.0001923996901
0.0001813879232
0.0001794738263
0.0002202931698
0.0003063630702
0.0003268154119
0.0002952575006
0.000249078197
0.0002476987229
0.0002973129941
0.0003624421811
0.0004245493181
0.0004323909593
0.0004249853482
0.000426870778
0.0004223273201
0.0004101733509
0.0003918820287
0.0003737611278
0.000362125662
0.0003585510093
0.0003522189436
0.0002894442581
0.0002645961343
0.0002539654393
0.0002419454076
0.0002270360082
0.0002157403578
0.0001990934425
0.000187064861
0.0001827906868
0.0002185292267
0.0003112410331
0.0002887907398
0.0002821939659
0.0002579868091
0.0002339942426
0.0002607655056
0.0003112202483
0.0003629767437
0.0003755280765
0.0003851433191
0.0003969509782
0.0003949496918
0.0003831743354
0.0003657893839
0.0003524976978
0.000349272468
0.0003513929869
0.0003466105953
0.0002872421298
0.0002812823448
0.0002703253033
0.0002563042469
0.0002383062068
0.0002180724484
0.0002039045114
0.0001936280935
0.0001884595749
0.0002267079733
0.0003445432034
0.0002920926524
0.0002832683798
0.0002787259764
0.0002464486616
0.0002319356627
0.0002616897308
0.0002984181135
0.0003188055683
0.0003436773515
0.0003608329342
0.0003595705357
0.0003483050173
0.0003345856459
0.0003305227089
0.000336790189
0.0003429634514
0.0003388216556
0.000284675663
0.0002815636013
0.0002685824229
0.0002480516046
0.000226818447
0.0002141615448
0.0002096218758
0.0001944054818
0.0002057738931
0.0003321441737
0.0002629637257
0.0002736895481
0.0002485164304
0.0002208834903
0.0002204492688
0.0002392563165
0.0002672146095
0.0002743790495
0.0002968847578
0.0003146881479
0.0003165605539
0.0003100364771
0.0003043657378
0.0003091171002
0.0003226347227
0.0003314300297
0.0003280865691
0.0002808885366
0.0002762544674
0.00026511238
0.0002491603535
0.0002317538339
0.0002294807618
0.0002501855731
0.0002133372891
0.0001998677465
0.0002218571225
0.0002010359421
0.0002197334953
0.0002137578553
0.00021260254
0.0002370228065
0.0002824612669
0.0003489219678
0.0003021843079
0.0002631981409
0.0002673444366
0.0002699603977
0.0002701280981
0.0002758185404
0.0002896185204
0.0003061967857
0.0003166188747
0.0003147498571
0.0002757500925
0.000256647505
0.0002546568354
0.000249994803
0.0002404804493
0.0002254733342
0.0002264859596
0.0002065462099
0.0002078198126
0.0002137391923
0.0002056697285
0.0001983813365
0.0002097324698
0.0002504843847
0.0003170259772
0.0003773464907
0.000442020314
0.0004130702214
0.0003449004159
0.000269669787
0.0002380408508
0.0002350379667
0.000248832854
0.0002690502595
0.0002876395626
0.0002988525964
0.0002993861843
0.0002692189816
0.0002774554708
0.0002824022807
0.0002800006469
0.0002703369426
0.0002533019792
0.0002300531726
0.0002077471718
0.0001925775446
0.0001956997444
0.0001902379256
0.0002022510812
0.0002603103349
0.000345772583
0.00042540824
0.0004831116473
0.0005235901817
0.0005006155605
0.0004437848171
0.0003653603009
0.0002829748473
0.0002343429491
0.0002298236066
0.0002472925855
0.0002670266851
0.0002798570341
0.0002832356615
0.0002612906648
0.0003202526643
0.0003232669036
0.0003170868134
0.000304373421
0.000285908459
0.0002618726369
0.000234500024
0.0002063734317
0.0001855505686
0.000191386404
0.0002774715755
0.0003696823657
0.0004525248284
0.0005148322056
0.0005559622574
0.0005816445551
0.0005676675739
0.0005284461647
0.0004774329525
0.0004195102539
0.0003507107225
0.0002795923204
0.0002421984883
0.0002460632321
0.0002596236581
0.0002663017095
0.0002517183415
0.0003669782616
0.0003669503505
0.0003562190414
0.0003389791384
0.0003178593916
0.0002935731182
0.0002656577882
0.0002338533037
0.0002022721574
0.0001812087233
0.0002584933165
0.0003717110677
0.0004653170462
0.0005339396947
0.0005715433839
0.0005874986972
0.0005735095875
0.0005352013203
0.0004808721421
0.0004187305764
0.0003484052346
0.0002793991255
0.0002369775923
0.0002304323638
0.0002403924004
0.0002485155647
0.0002399365224
0.0004143533816
0.0004132347647
0.0003985320605
0.0003759188974
0.0003496423879
0.0003219160664
0.0002929479762
0.0002614089441
0.0002265892113
0.0001956521463
0.0002514484771
0.0003677139919
0.0004582153532
0.0005257484728
0.0005629490518
0.0005742102154
0.0005575599921
0.000516900974
0.0004603219952
0.0003952020688
0.0003256961889
0.0002667535059
0.000233616081
0.0002235722599
0.0002257377521
0.0002307839549
0.000225220541
0.0004635163734
0.000463255836
0.0004465082145
0.0004190361981
0.0003863704518
0.0003526892672
0.0003198321349
0.000287110129
0.0002522344389
0.0002158427749
0.0002052953307
0.0003249600035
0.0004212545574
0.0004930337782
0.0005351351068
0.0005435941863
0.0005237293336
0.0004810809141
0.0004241108472
0.0003592504262
0.0002966660676
0.0002526571436
0.0002318362419
0.0002231609676
0.0002184909605
0.0002163325412
0.0002081281064
0.0005097136006
0.0005114328451
0.0004951687966
0.0004657649489
0.0004288725811
0.0003891742091
0.0003502549784
0.0003138853079
0.0002786662867
0.0002413680181
0.0002070634447
0.000243271911
0.0003575090372
0.0004361971999
0.000488932798
0.0004966168126
0.0004753309067
0.0004328916449
0.0003766440418
0.0003162610078
0.000267754164
0.0002409614236
0.0002307783058
0.0002245906253
0.0002165747865
0.0002077259103
0.000191937457
0.0005408474054
0.0005450988053
0.0005315375676
0.0005035316281
0.0004668468817
0.000426231363
0.0003847583476
0.000346156241
0.0003109060194
0.0002745834571
0.0002337483959
0.0002110850716
0.0002703770266
0.0003635726649
0.0004294406977
0.0004386144061
0.0004173456233
0.0003754430298
0.0003221795082
0.0002751573186
0.0002454463786
0.0002331556751
0.0002298179387
0.000225212367
0.0002162251943
0.000203894185
0.0001805723589
0.0005570689589
0.0005634395857
0.0005529888647
0.0005289597297
0.0004981588639
0.0004639683108
0.00042606258
0.0003868658231
0.000350478392
0.0003148971135
0.0002721983111
0.0002265716322
0.000220593027
0.0002835243398
0.0003610269457
0.000373557495
0.0003524097948
0.0003131505394
0.000271353059
0.0002429949021
0.0002305858836
0.0002275147116
0.0002275655215
0.0002238723473
0.0002151232314
0.0002019758049
0.0001745396953
0.0005483267403
0.0005534476018
0.0005420037062
0.0005179000462
0.0004866633027
0.0004494093418
0.0004131672758
0.0003945957537
0.0003849107924
0.0003639013804
0.0003274514
0.0002805600406
0.0002360486186
0.0002311724932
0.0002872979604
0.0003025336797
0.0002848375904
0.0002557795625
0.0002325667518
0.0002222458145
0.0002205265414
0.0002218826077
0.0002232123066
0.0002202052685
0.0002124034576
0.0001998181909
0.0001713637869
0.0005260428171
0.0005296762591
0.0005176021238
0.0004940740993
0.0004628031963
0.000424288963
0.0003920283011
0.0003835301739
0.0003811838617
0.0003663487443
0.0003376714716
0.0002987722753
0.0002536884362
0.0002187444616
0.0002296492973
0.000239657469
0.0002306288234
0.0002170379322
0.000209665651
0.000209279655
0.0002120670121
0.0002151623645
0.0002168448102
0.0002146464186
0.0002079370377
0.0001963775585
0.0001685987278
0.0004950380238
0.000497939071
0.0004862382537
0.0004637990365
0.000432905683
0.0003953167604
0.0003673122821
0.0003631669279
0.0003635461473
0.0003516958295
0.0003265354362
0.0002914829376
0.0002506839598
0.0002140968409
0.000202754866
0.0002082333243
0.0002112683528
0.0002097435475
0.0002068892332
0.0002055017735
0.0002062421106
0.0002081243324
0.0002093245342
0.000207563301
0.0002017620095
0.0001912623666
0.0001649052927
0.0004598362001
0.0004627396498
0.0004518152523
0.0004303237084
0.0004003693891
0.0003658629985
0.0003413217785
0.0003368013297
0.000336543748
0.0003260767802
0.000303446367
0.0002719665266
0.0002366786651
0.0002065966091
0.000195340221
0.0002072758014
0.0002225568626
0.0002278105436
0.0002233056752
0.0002149380088
0.0002077200758
0.0002037357071
0.0002019449545
0.000199454557
0.0001940406329
0.0001844090876
0.0001597413208
0.000423919812
0.0004260652425
0.0004156121264
0.0003951791911
0.000367651198
0.0003381462962
0.0003168490371
0.0003096881531
0.0003064624934
0.0002958576879
0.0002755658597
0.0002484489596
0.0002203021394
0.0001987269473
0.0001935165106
0.0002137414961
0.0002378727857
0.0002481363814
0.0002434951578
0.0002301184062
0.0002154651717
0.0002036005623
0.0001961167108
0.0001910439903
0.0001851033687
0.0001759545181
0.0001530035399
0.0003914466754
0.0003904723002
0.0003799052472
0.0003614136587
0.0003382764267
0.0003142650613
0.0002981734871
0.0002861256087
0.0002786252894
0.0002668989357
0.0002487409039
0.0002270595074
0.0002069090439
0.0001929359488
0.0001917616936
0.0002144578856
0.0002427351487
0.0002563831042
0.0002536359673
0.0002396414528
0.0002215496
0.0002043721696
0.0001913625394
0.0001827074889
0.0001753661643
0.0001662381281
0.0001449233776
0.0003678794795
0.0003626268648
0.0003513189825
0.0003352808063
0.000316426297
0.0002966732008
0.0002798445384
0.0002670322548
0.0002560191066
0.0002431149192
0.0002276380493
0.0002118886679
0.0001986322104
0.0001897660251
0.0001896333039
0.0002089978559
0.0002359581108
0.000251405915
0.0002509257673
0.000238463517
0.0002206298948
0.0002019044565
0.000185956026
0.0001744526896
0.0001654255824
0.0001559511028
0.0001360997935
0.0003557169367
0.0003470584166
0.0003347428521
0.0003198232416
0.0003032353146
0.0002854385266
0.0002686653216
0.00025371653
0.0002402120014
0.0002272433315
0.0002148649168
0.0002039484624
0.0001950819365
0.00018879504
0.0001880774347
0.0002014147526
0.0002229579408
0.0002374724786
0.0002385885728
0.0002287481709
0.000213292599
0.0001957800362
0.0001796767741
0.000166893465
0.0001564185429
0.0001463097935
0.0001274635761
0.0003488965797
0.0003389643705
0.000326164255
0.0003113258721
0.0002953130149
0.0002777537117
0.0002608705112
0.0002449287999
0.0002308807684
0.0002191028325
0.0002094720334
0.0002015117514
0.0001946999291
0.0001892798437
0.0001875430549
0.0001951372293
0.0002100318363
0.0002213365365
0.0002229869947
0.0002159379945
0.0002034931294
0.0001887009691
0.0001742338571
0.0001614672402
0.0001499852407
0.0001389108574
0.0001200658348
0.0003417796504
0.0003316314276
0.0003186501308
0.0003037165241
0.000287692922
0.0002730822665
0.0002561974768
0.000239474804
0.0002259726014
0.000215993786
0.0002084591811
0.000201997969
0.0001958260753
0.0001903507412
0.0001876001275
0.0001911209921
0.0002002454934
0.0002080696963
0.0002095683948
0.0002046008337
0.0001951749792
0.0001834755442
0.000171232903
0.000159260349
0.0001473703529
0.0001351233366
0.0001149630348
0.0003333429078
0.0003225203747
0.0003093234438
0.0002939004589
0.0002825463285
0.0003958755511
0.0003235166526
0.0002574626966
0.0002284770764
0.0002163140773
0.0002094171461
0.0002034164786
0.0001971470303
0.0001911517346
0.000187365425
0.0001882700322
0.0001935008068
0.0001986458901
0.0001998950037
0.0001965534107
0.0001896957743
0.0001807222898
0.0001707146765
0.0001601131385
0.0001485962701
0.0001353710882
0.0001126534731
0.0003289725175
0.000315883504
0.0003008732167
0.0002839581884
0.0002888116942
0.0005847845912
0.0004296348021
0.0003037625567
0.0002399106874
0.0002183467876
0.0002104187281
0.000204278407
0.0001976230917
0.0001909314663
0.0001860150911
0.0001849547354
0.0001876598275
0.0001911275416
0.0001923811154
0.0001904587298
0.0001858445432
0.0001794372967
0.0001719157921
0.0001633097046
0.0001530482232
0.0001401133485
0.0001132339086
0.0003386535562
0.0003213897106
0.0003028480773
0.0002834790153
0.0002687323738
0.0004407345396
0.0003288037372
0.0002556232943
0.0002255827737
0.0002153080246
0.0002094861959
0.0002034600095
0.0001964551276
0.0001890913464
0.0001829973613
0.0001800941537
0.0001807600685
0.0001830610765
0.0001846114481
0.0001842812207
0.0001821070882
0.0001785179735
0.0001737669002
0.0001673474702
0.000158222229
0.0001451198655
0.0001169141022
0.0003553419708
0.000334412552
0.0003123368273
0.0002891551433
0.0002671214258
0.0003118128858
0.0002587521362
0.0002303228113
0.0002183243225
0.0002120816157
0.0002066967037
0.0002005098906
0.0001932081933
0.0001853114833
0.0001781482148
0.000173458202
0.0001721510677
0.0001733956194
0.0001754410027
0.0001769705957
0.0001774065241
0.0001765044805
0.0001741027555
0.0001693602553
0.0001609727833
0.0001475809765
0.0001178612684
0.0003568039355
0.0003363730961
0.0003136843805
0.0002895872167
0.000265751689
0.0002556652523
0.0002336533683
0.0002200903138
0.0002119708849
0.0002061717175
0.0002006741134
0.0001944226712
0.0001871063797
0.000179051907
0.0001712237765
0.0001650498858
0.0001617998803
0.0001617522398
0.0001639677235
0.000166949705
0.0001693551497
0.000170235759
0.0001691749125
0.0001653700329
0.0001575516424
0.000144035668
0.0001133464877
0.0003240258556
0.0003082701578
0.0002891859509
0.0002681063871
0.0002466757797
0.0002291191449
0.0002146899567
0.0002044116701
0.0001973907031
0.0001920495987
0.000187030557
0.0001814654668
0.000174981747
0.0001676561882
0.0001599821719
0.0001528290553
0.0001473735864
0.0001447923116
0.0001454171408
0.0001481078809
0.0001509740713
0.0001525212351
0.0001522180575
0.0001494879484
0.0001431587553
0.0001308657399
0.000101911623
0.0004809133435
0.0004326678426
0.0005502430277
0.00104512477
0.001089362885
0.0009527369507
0.0006991486942
0.0007389332578
0.0009950913451
0.001088867194
0.001244160785
0.0009490386856
0.0008407982052
0.000749748944
0.0006643370851
0.0005633773958
0.0005026532249
0.0007427700193
0.001712816129
0.001375980145
0.0012010301
0.0009605983993
0.000868937321
0.0009987446655
0.001079777169
0.001169027905
0.00129259095
0.001343419081
0.001341675994
0.001321655065
0.001294219903
0.001274342333
0.001261676249
0.001261547249
0.001231754384
0.001044271511
0.0002902247276
0.001339411034
0.001223637896
0.001106139653
0.0009588019497
0.0008904513546
0.0007914369859
0.0006585171928
0.0005845977774
0.0009128049809
0.001749259839
0.001534917515
0.001321707313
0.001143466909
0.000919558271
0.0008356648177
0.0009926824315
0.001215614579
0.001269111793
0.001284588645
0.001279982587
0.001268174329
0.001252243378
0.001244757291
0.001241308835
0.001239523832
0.001204378258
0.001013433219
0.0002872075065
0.001449888999
0.001357535956
0.001238594837
0.001033329869
0.00085728989
0.0008119252117
0.0007315885331
0.0006799509308
0.001067927481
0.001751254693
0.001570778711
0.00133859087
0.001176008843
0.0009569388997
0.0007505730634
0.0007978137833
0.001014663022
0.001192430175
0.001214171818
0.001195494517
0.001157525695
0.001125132866
0.001135836183
0.001164037629
0.001181826357
0.001154342067
0.0009665270922
0.000282542798
0.001403509744
0.001305457785
0.001107276526
0.0008968830938
0.0009156056337
0.0009227438434
0.0008334357084
0.001172641813
0.001967865345
0.001519575538
0.001191740855
0.001040659392
0.0007861266989
0.000716198102
0.0007893914941
0.0008937707246
0.00108704931
0.001124912689
0.001071602552
0.0009316941864
0.0008509291649
0.0008908633084
0.001003053636
0.001073418996
0.001068075183
0.0008960224665
0.0002754142359
0.001353616491
0.001235257417
0.001056769337
0.0009087795532
0.001071881479
0.001214951186
0.001025876797
0.001057529981
0.001368402202
0.0008958036167
0.0007830527478
0.0007014241951
0.0006825584405
0.0007267556191
0.0008471439696
0.0008852421414
0.0009059697069
0.0008974834515
0.0008346043229
0.0007063616796
0.0006381819962
0.0006836976777
0.000810394974
0.000929377484
0.0009523270845
0.000806393632
0.0002660214175
0.001173039606
0.001046592653
0.0009032318583
0.0007911288399
0.0008441486731
0.0009721516557
0.0009423777238
0.0009506862937
0.0008878133231
0.0007378669727
0.0005863527518
0.0005966369471
0.0006810978576
0.0008017175436
0.001033263928
0.001061151628
0.000988096334
0.0007972189141
0.0007046948985
0.0006184041573
0.0005671589307
0.00058387168
0.0006566001292
0.0007657725025
0.0008170766604
0.0007020751643
0.0002545980498
0.0009809182473
0.0009212269644
0.0008395590486
0.0007463228541
0.0006744778652
0.0006381486513
0.0006135903184
0.0006353003942
0.000661439818
0.0006748406314
0.0005666167984
0.0007188758572
0.0008167445684
0.001102727718
0.001291549292
0.001338911889
0.001273220629
0.001087538937
0.00085266657
0.0006996274524
0.0006280046776
0.0005932727773
0.0005807227289
0.0006216469497
0.000666411943
0.0005847812653
0.0002415473695
0.0009973210081
0.0009820302631
0.0009334900134
0.0008353212433
0.0007094657429
0.0005950507528
0.0005337577663
0.0005077705064
0.0004938022936
0.0004626252223
0.0004654016809
0.000728354557
0.001037022018
0.001337544066
0.001516726355
0.001548707572
0.001476540317
0.001281242395
0.001032277688
0.0008541798591
0.0007132842674
0.000631131209
0.0005740696007
0.0005464788047
0.0005453687716
0.0004755018241
0.0002275854358
0.001089459873
0.001069454949
0.00101585749
0.0009296327576
0.0008084756646
0.0006663085606
0.0005697435145
0.000515718216
0.0004812946955
0.000448406859
0.0004733296114
0.0007383450532
0.001190981864
0.001502066366
0.001651984145
0.00166432997
0.001582719756
0.001392192602
0.001140359575
0.0009560179983
0.0008340698508
0.0007386446947
0.0006537144235
0.0005686422621
0.0004989091501
0.0004043967742
0.0002131546543
0.001232557975
0.00120203207
0.001133533987
0.001031462721
0.0009108459041
0.0007757586846
0.000756880317
0.0005626133448
0.000506720628
0.0004631486744
0.0004534889144
0.0006923261886
0.001203875677
0.001525593382
0.001668210159
0.001674718076
0.001577476643
0.001374446026
0.001129358181
0.0009713406127
0.0008798617391
0.0008212626545
0.0007546473144
0.0006529122389
0.0005239372697
0.0003813560155
0.0001985703828
0.001389443434
0.001354131688
0.001274774417
0.00115347036
0.001011149551
0.0008678126474
0.0007153345004
0.0005895180302
0.0005254443832
0.0004843096383
0.0004582569718
0.0005713181747
0.001050540831
0.001399095514
0.00155654262
0.001564570488
0.001450688401
0.001239902487
0.001033887347
0.0009327693033
0.0008923526042
0.0008789522825
0.0008431644529
0.0007510963741
0.000589656875
0.0003979280555
0.0001851495052
0.001509100888
0.001475359778
0.001392076395
0.001258856586
0.001106304257
0.0009512730996
0.000783877465
0.0006568333574
0.0005758545072
0.0005195709258
0.0004796811558
0.0004963624395
0.0007433981848
0.001129484541
0.001317389353
0.001337988099
0.001224759042
0.001046196243
0.0009255855197
0.0008867400578
0.0008981908097
0.0009149851175
0.0008988789038
0.0008236152485
0.0006576936291
0.000435157336
0.0001754326488
0.001562799293
0.001542319786
0.001467049494
0.001335686283
0.001187204753
0.00105959125
0.0009277668663
0.0008014044432
0.0006965472266
0.000598004741
0.000516412973
0.000483749121
0.0005506917627
0.0008105293634
0.001009539097
0.001054744629
0.0009723016961
0.0008594644347
0.0008820306633
0.0009229779436
0.0009239361117
0.000933574722
0.0009162004628
0.0008558908288
0.0007030833607
0.0004719036129
0.000170670504
0.001561109739
0.001551866358
0.001487593036
0.001368573285
0.001257545109
0.001204524049
0.001177138091
0.001117406633
0.0009881113936
0.0008141438435
0.0006398992851
0.0005284727242
0.0005038426574
0.0005919422836
0.0007486717963
0.0008028282584
0.0007559816053
0.0007093425163
0.0007604841367
0.0008274402158
0.0008782868591
0.0009080541305
0.0008993350861
0.0008529742177
0.0007182910299
0.0004937052883
0.0001691149044
0.001537529308
0.001524779411
0.001462098339
0.001357442624
0.00128089337
0.001274786349
0.001277250886
0.001225938645
0.001118369995
0.0009650024718
0.0007918488011
0.0006149791939
0.0005182444884
0.0005202135511
0.0005776745076
0.0006261648682
0.0006276852766
0.0006421586582
0.0007027476857
0.0007711768416
0.0008321786803
0.0008683072331
0.0008677831002
0.000828604148
0.0007063626277
0.0004953687277
0.0001680219713
0.001473389949
0.001447407992
0.001383096582
0.001297102593
0.001247705069
0.001261123386
0.00127724414
0.001239896821
0.001152124029
0.001021378492
0.0008618966904
0.0006964887284
0.0005623887748
0.0005244921914
0.0005406156313
0.0005801345891
0.0006074103174
0.000635411411
0.0006774378179
0.0007265018613
0.0007761483484
0.0008113388164
0.0008178689182
0.0007804044977
0.0006690948629
0.0004768676785
0.0001656139013
0.001385293243
0.001345569114
0.001283965027
0.001217253641
0.001178389948
0.00118187091
0.001197244932
0.001173438376
0.001106176735
0.0009986204088
0.0008631287443
0.0007183734849
0.0005952657957
0.0005532138987
0.0005701837443
0.0006213898921
0.000666422936
0.0006895128018
0.0006984296726
0.0007066401184
0.0007228684191
0.0007410807761
0.0007439395544
0.0007081082445
0.0006096843241
0.0004414979482
0.0001612562243
0.00130548713
0.001256370781
0.001199886499
0.001145179328
0.001100080158
0.001072203599
0.001073906804
0.001050757945
0.0009988561262
0.0009151354748
0.0008122008447
0.000694272042
0.0006086949402
0.0005828433105
0.000613730813
0.0006906844947
0.0007616064462
0.0007874414216
0.0007704179074
0.0007304052651
0.0006931265831
0.000672966143
0.0006578942158
0.0006203476771
0.0005359121566
0.0003954016153
0.0001550284105
0.001247812498
0.001192963328
0.001138323956
0.001084898143
0.00102763625
0.0009820913957
0.0009676446859
0.0009204154152
0.0008732475447
0.0008116933826
0.0007333119441
0.000659310837
0.0006149612454
0.0006059794372
0.0006471560112
0.0007463499129
0.0008355344996
0.0008617204059
0.0008363635556
0.0007751723923
0.000686500915
0.0006174600666
0.0005744950002
0.0005308965383
0.0004591277217
0.0003466270052
0.0001474026365
0.00120073316
0.0011441023
0.001086176886
0.001022700122
0.0009456345664
0.0009044030911
0.0009155848063
0.0008089402901
0.0007524790099
0.0007075020113
0.0006668424094
0.0006373566889
0.0006213946227
0.0006209033025
0.0006619443902
0.0007662640636
0.0008603633811
0.0008925710549
0.0008661812318
0.0007969752961
0.0006802121402
0.0005715878156
0.000502705412
0.0004521115958
0.0003906492697
0.0003028300228
0.0001390689237
0.001152490607
0.001094846664
0.001032374977
0.0009540396033
0.000866407037
0.0007959413217
0.0007635011486
0.0006971361028
0.0006647653012
0.0006454634115
0.0006352409316
0.0006307800249
0.0006271776664
0.0006278286839
0.0006605067354
0.0007514083999
0.0008466652257
0.0008817667256
0.0008596527403
0.0007882582579
0.0006565155958
0.000529087602
0.0004464614905
0.0003917244009
0.0003379652707
0.0002689852858
0.0001308148219
0.001096416092
0.001039464728
0.0009755553835
0.0008970907337
0.0008110433266
0.0007339488427
0.0006823100642
0.0006426358612
0.0006265305066
0.0006245718304
0.0006292193967
0.0006325030351
0.0006302187967
0.0006285252807
0.0006507930469
0.0007193104197
0.0008060045164
0.000846473319
0.0008280516557
0.0007499715973
0.0006167566016
0.0004927085762
0.0004089331537
0.0003527391406
0.0003036283492
0.0002467357642
0.0001233996111
0.001038955384
0.0009826923978
0.0009188509863
0.0008453783606
0.0007670681692
0.0007094025777
0.0006610482563
0.0006291032875
0.0006224074562
0.0006288339539
0.0006364062685
0.0006369116299
0.0006299247342
0.000624502212
0.0006387204147
0.0006867172952
0.000752758578
0.0007917991343
0.0007748150515
0.000696630597
0.0005808497455
0.0004726720654
0.0003928427419
0.0003350228805
0.0002869777121
0.0002349629467
0.000117345865
0.000991915817
0.0009336095351
0.0008682876094
0.0007900434933
0.0007579993668
0.0007953782723
0.0007295409062
0.0006533343365
0.0006384115348
0.0006441896813
0.000647303527
0.0006396271264
0.0006247068939
0.0006144386826
0.0006234690354
0.0006586221161
0.0007071255791
0.0007372626344
0.0007225119608
0.0006584443634
0.0005658716603
0.0004740409277
0.0003980341664
0.0003376194912
0.000287325304
0.000235178195
0.0001132451265
0.0009683818432
0.0009000872795
0.0008197337288
0.0007564060599
0.0009381915381
0.00135608011
0.001170963257
0.0007833505421
0.000666354762
0.0006594824588
0.0006544383639
0.0006356014241
0.0006108122034
0.000594207963
0.000598693712
0.0006268051455
0.0006658790566
0.0006917907498
0.0006838893909
0.0006382036339
0.0005680031766
0.0004917628519
0.0004214116869
0.000358957097
0.0003066116625
0.0002687624496
0.0001106686679
0.0009770413984
0.0008863670715
0.0007758030395
0.0006836653978
0.001011721825
0.001747692156
0.001330362508
0.0008118497119
0.0006681162658
0.0006549772823
0.0006427454261
0.0006150161748
0.0005820049443
0.0005590001513
0.0005578953117
0.0005798119532
0.0006132239487
0.0006392625729
0.0006420367309
0.0006170702673
0.0005713578921
0.0005160871984
0.0004591468584
0.000400122936
0.0003405824256
0.0002845912128
0.0001082664843
0.001009077566
0.0009051232653
0.0007683809262
0.0006592204366
0.0007671236209
0.001231928657
0.0009641919807
0.0006908282758
0.0006364987592
0.0006264380921
0.000605918534
0.0005715640652
0.0005338538289
0.0005064053814
0.0004991236626
0.0005130298126
0.0005397233754
0.0005659631961
0.0005803506086
0.0005780617249
0.0005608013176
0.0005331587206
0.0004980731315
0.0004490075556
0.000378988962
0.0002889213169
0.0001133510246
0.001029226371
0.0009238985122
0.0007747664249
0.0006504464243
0.000618849541
0.0007106965395
0.0006474400374
0.0005843496588
0.0005718127562
0.0005600159818
0.0005359798402
0.000501613632
0.0004656766219
0.000438323063
0.0004265193594
0.0004315405589
0.0004492610619
0.0004728455312
0.0004956368056
0.0005126553132
0.0005206658705
0.0005181852044
0.0005044517943
0.0004680640214
0.0003949819271
0.0002888965779
0.0001145832194
0.0009441395937
0.0008347714418
0.0006970656236
0.0005867210502
0.0005246829316
0.0005196883156
0.0004952113226
0.0004750148455
0.0004634278788
0.0004485264397
0.0004266334995
0.0003996142741
0.0003725299451
0.0003508229577
0.0003381881873
0.0003358846831
0.0003433795079
0.000359226556
0.0003808957878
0.0004039818655
0.0004224985813
0.0004312884235
0.00042766519
0.0004011733892
0.0003400085247
0.0002511313745
0.000109368176
0.0003300335405
0.0003086035729
0.0002842642383
0.0002620154231
0.0002433113666
0.0002315830466
0.0002210967812
0.0002133485279
0.0002073456197
0.0002017236981
0.0001956255087
0.0001887297263
0.0001811498647
0.0001732975983
0.0001657619112
0.0001592741298
0.0001547673044
0.0001532372459
0.0001549904401
0.0001588862608
0.0001627911908
0.000164805388
0.0001640580806
0.0001592031327
0.0001485074496
0.0001307663077
9.699821513e-05
0.0009695392315
0.0008572695468
0.0008385651192
0.001147536934
0.00178692829
0.001653898485
0.001460919873
0.00131555434
0.001387121614
0.00143317889
0.001452511057
0.001560385569
0.001640204433
0.001649351308
0.00160944201
0.001575138155
0.00140923625
0.001282007778
0.001151238685
0.001015777281
0.001040714616
0.001783171991
0.002570631145
0.002239770268
0.001790532333
0.001572046486
0.001518549264
0.00154585168
0.00151841067
0.001532844342
0.001581923898
0.001580842211
0.001550145926
0.001510058739
0.001470355572
0.001442177877
0.001426667235
0.001429603756
0.001397473665
0.001155486499
0.0002882492735
0.002045806538
0.001905666139
0.001745602
0.001566147845
0.001460961285
0.001316038295
0.001168261358
0.001195389585
0.00194520351
0.002521022653
0.002328974054
0.00194467898
0.001719750622
0.001574443293
0.001517519493
0.001568903112
0.001597881504
0.001593331795
0.001575825518
0.001555588173
0.001537332458
0.001515004076
0.001490877423
0.001468981138
0.001455573625
0.001402788675
0.001144566446
0.0002853866112
0.002118601486
0.002017859763
0.001886416983
0.001660310241
0.001470811737
0.001386793767
0.001311631595
0.001365491022
0.002081971909
0.002466886259
0.002335362522
0.001982784554
0.001749867161
0.001572910852
0.001438471633
0.001470847535
0.001572806945
0.00158621692
0.001566805131
0.001544505127
0.00152093199
0.001492725888
0.001469727599
0.001455246813
0.001443094284
0.001382818859
0.001115101089
0.0002794578186
0.002054324597
0.001968685666
0.001752576757
0.001579354451
0.00158729561
0.001571816824
0.001505925375
0.002118796755
0.002513373447
0.002203023195
0.001774891517
0.001574563234
0.00142751972
0.001367894394
0.001433832993
0.001518109419
0.00156620747
0.001543469909
0.001494767514
0.001422637799
0.001350267634
0.001332540922
0.00135473493
0.001365952826
0.001313707162
0.001052137559
0.0002696480705
0.002003420078
0.00190089378
0.001728579533
0.001645003623
0.001772770339
0.00181345129
0.001675835823
0.002004245331
0.002049126835
0.001666692555
0.001371353185
0.001287722863
0.001286097624
0.001321801889
0.001436889895
0.001463099775
0.00150270925
0.001482840026
0.001399783149
0.001275494785
0.00117316308
0.001149727035
0.001190099774
0.00123525346
0.001199752841
0.0009575675111
0.0002566671813
0.001875227113
0.001745312106
0.00159830368
0.001522405402
0.001610362134
0.001656046732
0.001561693246
0.001587338498
0.001517752942
0.001303120927
0.001147925494
0.001193435383
0.001253703393
0.001322307498
0.001416923309
0.001470963081
0.001495088146
0.00144999153
0.001356937808
0.001228761444
0.001115646193
0.00105798118
0.001052322205
0.001081163262
0.001057622077
0.0008398639429
0.0002414018225
0.001684363103
0.00157894435
0.001457076213
0.001350572444
0.001305847368
0.001272866626
0.001210628112
0.001211462974
0.00120203616
0.001352993712
0.001133550695
0.001301727481
0.00133180339
0.001451672608
0.001571262676
0.001612268822
0.001575939374
0.001484064541
0.001395461529
0.001290383987
0.001185455811
0.001086510768
0.001001686742
0.000960220378
0.0009114964558
0.0007099844529
0.0002251408083
0.001554565917
0.001482300861
0.001390833501
0.001281473777
0.001168637348
0.00106958209
0.001013032895
0.0009869977982
0.000962014958
0.000982100404
0.0009686217788
0.001219384172
0.001422326835
0.001622409559
0.00173849558
0.0017515159
0.001685786513
0.001540778195
0.001380278137
0.001297295092
0.001235628776
0.001145492398