/*--------------------------------*- C++ -*----------------------------------*\
  =========                 |
  \\      /  F ield         | OpenFOAM: The Open Source CFD Toolbox
   \\    /   O peration     | Website:  https://openfoam.org
    \\  /    A nd           | Version:  8
     \\/     M anipulation  |
\*---------------------------------------------------------------------------*/
FoamFile
{
    version     2.0;
    format      ascii;
    class       volScalarField;
    location    "1.7";
    object      epsilon;
}
// * * * * * * * * * * * * * * * * * * * * * * * * * * * * * * * * * * * * * //

dimensions      [0 2 -3 0 0 0 0];

internalField   nonuniform List<scalar> 
67451
(
0.1558192193
0.149162367
0.2762306208
0.5593414179
0.8376423402
0.4898749607
0.3956859108
0.676393735
1.356068794
2.375952059
3.433151036
0.3450537513
0.2926647214
0.2448309388
0.2030412354
0.1701719674
0.1647484564
0.3040758807
0.8100157001
0.996474357
0.7347920296
0.4408667699
0.4332763466
0.7488771345
1.357824422
2.185629346
2.308451668
2.192760633
2.222944218
2.152658128
1.971558041
1.718713533
1.49065648
1.355856694
1.316673496
1.248425815
0.948789237
0.5281782642
0.467028156
0.4037671147
0.3335863965
0.2862121528
0.2249599112
0.1866340412
0.1740209178
0.2962141187
0.8537093461
0.6825943465
0.6412726645
0.4899834925
0.3654623219
0.50526572
0.8590450759
1.364318129
1.510965486
1.631353189
1.78686316
1.759749602
1.606383077
1.397019255
1.25024042
1.216767999
1.239508498
1.189702044
0.927320137
0.634735165
0.5633838896
0.4800932939
0.3857969583
0.295577849
0.241668121
0.2068767727
0.1907787386
0.3315317755
1.162723536
0.7084843011
0.6483419738
0.6183964886
0.4272668853
0.3557790447
0.5105738239
0.7574228688
0.9240327105
1.158721634
1.341541207
1.327158684
1.205761605
1.068638609
1.030642176
1.090986397
1.152329839
1.111112144
0.9026329067
0.6368760329
0.5526010244
0.4352228027
0.332640766
0.2800067283
0.2622722702
0.2093408055
0.2465467667
1.021374585
0.5149331606
0.5855996813
0.4378778517
0.3074281998
0.305659991
0.3905305405
0.5440475204
0.5891767665
0.7466724702
0.8893382988
0.9050090847
0.8499351941
0.8043033772
0.8431388928
0.9591501462
1.039818108
1.008642733
0.8670228128
0.6018318889
0.5318307352
0.4412546301
0.3549100382
0.3448817781
0.4456982406
0.2763825248
0.2275694567
0.3064869049
0.2313389018
0.3026780523
0.2786558985
0.2741813806
0.3795611374
0.6422233059
1.212542253
0.7862154928
0.5196660545
0.5448981954
0.5608677226
0.5619070023
0.5985842426
0.6935144691
0.8198318251
0.9063926663
0.8904019743
0.8202192632
0.4822523312
0.4710493689
0.4455668897
0.3965157926
0.3267091955
0.3314905561
0.2512365732
0.2559286647
0.2786868523
0.2483281304
0.2227180713
0.2631546525
0.4478046658
0.9080146483
1.533244049
2.469499301
2.012791691
1.169034789
0.558175052
0.3841848991
0.3700963406
0.4395666317
0.5559743176
0.6794819164
0.7620643753
0.7661294082
0.7632100451
0.6093987475
0.6425637463
0.6262282497
0.5634682699
0.4633397665
0.3470137451
0.2555627485
0.2036954611
0.2138861471
0.1964458881
0.2360130129
0.5022450717
1.178452897
2.198726619
3.224519853
4.109064733
3.588737375
2.496221359
1.389678774
0.6446678476
0.3664815026
0.3462349253
0.4316080914
0.543500854
0.6256625928
0.6485843477
0.6976412944
0.9373930911
0.9640225312
0.909641016
0.8044066317
0.6665089627
0.5119421969
0.3674515836
0.2504689316
0.1821650495
0.1996259653
0.608398129
1.443278519
2.649872276
3.905688272
4.920700659
5.63737877
5.238919991
4.223044236
3.111800841
2.108887003
1.22999949
0.6222837437
0.4048721735
0.4250825851
0.499427113
0.5389606846
0.6236166925
1.410813544
1.410191192
1.289716882
1.111165365
0.91598166
0.7214478528
0.5343045566
0.3643214484
0.2357986601
0.1696236106
0.4915064078
1.464909574
2.879569547
4.35573573
5.344235958
5.806060237
5.398996359
4.383709217
3.175830291
2.093361945
1.203116391
0.6198587515
0.3789255881
0.3490053256
0.3963750128
0.437905916
0.5399214658
2.031553945
2.014582398
1.806241651
1.515297201
1.218975648
0.951277058
0.7164106972
0.5088746627
0.331320515
0.2133924191
0.4529954626
1.418739193
2.749536262
4.157098564
5.105010899
5.417668293
4.95709333
3.945303649
2.782260588
1.757096585
0.9815759907
0.5394237761
0.363217246
0.3188157993
0.3281907715
0.3506025508
0.4463424652
2.845850272
2.840348572
2.541583902
2.099125478
1.644517938
1.250441995
0.932349216
0.674222186
0.4569866234
0.2863524584
0.2464810357
0.9779485131
2.134408338
3.425841294
4.382534636
4.592769719
4.104219578
3.176884002
2.17292873
1.31790745
0.7414129912
0.4587540339
0.3552900203
0.3171760527
0.2976325661
0.2887543231
0.3520608305
3.787712883
3.825597888
3.469811124
2.884944823
2.250040586
1.679842398
1.223904357
0.8805601081
0.6160361331
0.4002136417
0.2527553627
0.4098571899
1.302545673
2.369323292
3.339564779
3.498261105
3.064468901
2.31129493
1.519317907
0.898138626
0.5453774562
0.3984802247
0.350696968
0.3233806803
0.2899130212
0.2556837757
0.2760614516
4.527982024
4.635359141
4.295628066
3.648543304
2.904758299
2.208179835
1.622720217
1.181005419
0.8556188546
0.5893022818
0.3634761758
0.2677079481
0.5625689411
1.369545884
2.260169003
2.406932133
2.070934795
1.504965014
0.9493730417
0.5909815418
0.42058672
0.3613604994
0.3464515234
0.3260805567
0.2885160028
0.2418379242
0.2299170062
4.950100168
5.121826173
4.839909405
4.232938291
3.532802681
2.851339207
2.205459438
1.649777345
1.226539312
0.889547607
0.5741970924
0.331031194
0.3054420619
0.6483626358
1.340880479
1.484216192
1.244091517
0.8714100319
0.566854897
0.4078264873
0.3493336451
0.3360102334
0.3363851688
0.3202622415
0.2841073039
0.2350941335
0.2077074765
4.719196136
4.85234728
4.555181654
3.970979147
3.291666461
2.588630216
2.01052991
1.753975667
1.62950308
1.376543777
1.002225177
0.6298947756
0.3747774718
0.3514316756
0.6745283658
0.7867024998
0.6556219614
0.4745737401
0.3573451799
0.3125921434
0.3058509007
0.3117170488
0.317410493
0.3047235389
0.2734369791
0.227634718
0.1966140589
4.164091345
4.250612511
3.964358422
3.445162328
2.828393368
2.176288611
1.716961345
1.61094719
1.582758118
1.404474093
1.098963126
0.7605459117
0.4651095977
0.2979168907
0.3443555271
0.390857705
0.3482137246
0.2905347615
0.2623993759
0.2613025483
0.2720591553
0.2842189778
0.2909514662
0.2821751672
0.2565147743
0.2160570859
0.187253271
3.467471795
3.528565901
3.283847504
2.847459194
2.312792992
1.758982758
1.411878
1.367298999
1.372383015
1.241873289
0.9930765819
0.7056206779
0.4484042632
0.2792881853
0.237283586
0.2571196589
0.2687803007
0.2632193469
0.2526876928
0.2476250452
0.2502912894
0.2572025165
0.2616729345
0.2551115681
0.2343002086
0.1995821339
0.1751976042
2.776660561
2.829479299
2.63232042
2.272251688
1.828005247
1.393855915
1.132485156
1.089903111
1.087902493
0.9889766946
0.7962574633
0.5726531147
0.3771532123
0.2509685327
0.2124734462
0.254340797
0.315167271
0.3380465501
0.3182304324
0.2835848374
0.2558067991
0.241276942
0.2349324933
0.2263309595
0.208383899
0.1788577715
0.1592232901
2.173625484
2.206588669
2.046957737
1.758202965
1.414684299
1.100323899
0.9058403002
0.8467711951
0.8207983841
0.738072821
0.5958334152
0.4363161343
0.3041608661
0.223481572
0.2067262369
0.2791414914
0.385055745
0.4369740688
0.4126911265
0.3481019467
0.2855563561
0.2408027142
0.2151483767
0.1988580982
0.1808654212
0.1553401229
0.1398878491
1.710302361
1.697176187
1.562265243
1.344307037
1.10192476
0.8835037988
0.7531887018
0.6671917764
0.6163171858
0.5414437819
0.4379820304
0.3330563299
0.2521460875
0.2046482587
0.2012006381
0.2818934138
0.4089715556
0.4817293702
0.4661805388
0.3929850458
0.3103527129
0.2434978584
0.1998361028
0.1739121996
0.1537711732
0.1309786757
0.1188563644
1.419748442
1.359375194
1.235610626
1.073645952
0.9023572791
0.7436746435
0.6240281442
0.5423297622
0.477894607
0.4090657686
0.3357427414
0.2708417857
0.2232736438
0.1948380047
0.1945811208
0.2607644976
0.3754097122
0.4539104559
0.451096553
0.3869779037
0.3063496548
0.2346929235
0.1833222445
0.1513614625
0.1290589761
0.1081255437
0.09843466069
1.284410197
1.19254592
1.069709824
0.9326886481
0.7947852355
0.6627702387
0.5525248397
0.465216927
0.3947354686
0.3341697235
0.2825409407
0.2417372262
0.2116654628
0.1919340824
0.1898323629
0.2332888077
0.3164985351
0.3823163871
0.3875496826
0.3414039175
0.2766741789
0.2139167386
0.1653483031
0.1325192667
0.1091043349
0.089288606
0.08086509991
1.212503735
1.111670645
0.9901973268
0.8608523873
0.7344814058
0.6108769824
0.5059491527
0.4186241325
0.3506256874
0.2997185586
0.262002825
0.2333358934
0.2105152499
0.1934548591
0.188223035
0.2120952832
0.2644787379
0.3094353833
0.3162829816
0.2871292737
0.2402363307
0.1915472915
0.150792887
0.1200284982
0.09620493605
0.07643091602
0.06759991066
1.139935512
1.04123654
0.9234961186
0.7993953399
0.6791542793
0.5804135001
0.4790556662
0.3912084715
0.3288123968
0.2872876852
0.2583598237
0.2351196104
0.214232762
0.1967710772
0.1883943177
0.1992479805
0.229175544
0.2570402976
0.2625523726
0.2442629395
0.2120102835
0.1761250954
0.1431805862
0.1152079252
0.09128723106
0.07036931675
0.05935845395
1.057534314
0.9576697742
0.844621615
0.7242258833
0.6428503304
1.773185257
0.9594854003
0.4841130544
0.3394334329
0.2885729395
0.2619994758
0.2401442207
0.218608381
0.1992611084
0.1876758605
0.1904486608
0.2067844447
0.2236912897
0.2278903376
0.216618112
0.1947143985
0.1683708146
0.1419288594
0.1171032481
0.09361211486
0.07077832556
0.05586763466
1.016776244
0.8998753534
0.7773270186
0.6532037088
0.686289051
5.689080048
2.231748774
0.7868060681
0.3905299085
0.2963710866
0.2657354826
0.2432021631
0.2201840875
0.198555339
0.1836236637
0.1805383411
0.1886034266
0.1992485617
0.2031726281
0.1971242792
0.1831354583
0.1648441254
0.1449812601
0.1242877929
0.1023032882
0.07849461945
0.05674264883
1.110168435
0.9483654928
0.7931229862
0.6501042808
0.5525592611
2.408701456
0.9932374957
0.4701483858
0.3260926531
0.2845473017
0.2622684954
0.2402829106
0.2162843415
0.1928459915
0.1748015639
0.1666425217
0.1685287791
0.1750594771
0.1795425583
0.1785772811
0.1723343211
0.162353552
0.149743265
0.133757412
0.1130438909
0.08721378449
0.06245708817
1.283034143
1.068806433
0.8702893935
0.6901102699
0.5435942427
0.8519189305
0.4883329397
0.3469353826
0.2965447462
0.2720945672
0.2519284467
0.2299582938
0.2057110111
0.181484173
0.1612405585
0.1488593348
0.1455503875
0.1487552136
0.1540969363
0.1581732294
0.1593543968
0.1569427159
0.1506259611
0.1386447104
0.1190369574
0.09171739766
0.06397553715
1.298422933
1.087276206
0.8812497292
0.6929414045
0.5352514911
0.4739975375
0.3627346677
0.3037454203
0.2715834256
0.2499724029
0.230512581
0.2096143268
0.1868032978
0.1636826
0.1431344809
0.1282170569
0.1208194269
0.1207452525
0.1258022233
0.1328092745
0.1386407979
0.1408132565
0.138190397
0.1290624954
0.1115923198
0.0852490421
0.05688743529
1.10793721
0.9535058404
0.7866634641
0.6264626487
0.4877198884
0.3905276605
0.321405751
0.2775533374
0.250022135
0.2303181268
0.2127367681
0.1942923335
0.1741797926
0.1531881634
0.1330924293
0.1160316073
0.104064217
0.09872323151
0.1000405854
0.1057203731
0.1119854543
0.1154599063
0.1147641571
0.1086869474
0.09544110044
0.07288507059
0.04566451778
0.1474792229
0.1421972526
0.2102312737
0.4816032875
0.5424857758
0.4083553673
0.3280864729
0.413621269
0.6691688151
1.13553621
1.60796483
0.2406686067
0.2189470798
0.1952158244
0.1753236421
0.1589603857
0.1605073825
0.2862843113
1.216363142
0.6704915696
0.5192682116
0.3771260431
0.3549569084
0.4484695389
0.7080729514
1.110883469
1.239422777
1.257337095
1.217709823
1.159870617
1.07271885
0.9702081701
0.8884738962
0.8320209846
0.840297673
0.9271231657
1.279831584
0.3015668726
0.2748887921
0.2511383169
0.2344064986
0.209321879
0.1894557611
0.174086339
0.1761022891
0.3131379683
0.8763728264
0.6098236079
0.5010583439
0.4030885607
0.3552256023
0.3777887041
0.4869095918
0.695559289
0.8321507678
0.9254629656
0.9495006936
0.9368285411
0.8868893951
0.8235153801
0.7725423508
0.7568370255
0.7903089949
0.8796710942
1.240483451
0.3157453005
0.2901667204
0.2644462906
0.240771689
0.22039996
0.2059627216
0.1913901366
0.1936051787
0.3507001923
0.8869279626
0.6333679234
0.4730162681
0.4114045157
0.3487444709
0.3288119386
0.3771190239
0.4899686861
0.571043333
0.6509118117
0.7005377706
0.7108524216
0.6949709033
0.6800849822
0.6784724538
0.6987599467
0.7455474939
0.8264701312
1.180922584
0.3092808704
0.2872324203
0.2598886662
0.237183962
0.2276764924
0.2257035672
0.2260995602
0.4210433381
1.076170277
0.6253407862
0.4392417571
0.345154878
0.2828450652
0.2851490811
0.3370203311
0.4115935523
0.4373763777
0.4790731141
0.5062589037
0.5207387974
0.5318092655
0.551198532
0.5807845022
0.6251006141
0.6777684846
0.7490001047
1.093636702
0.3272552704
0.3087436369
0.2849929261
0.2693988941
0.2801914396
0.2967218696
0.2447823708
0.2946672466
0.5625208206
0.2871569918
0.2661709132
0.2507932132
0.2569433993
0.3037550953
0.406528421
0.5082955862
0.4676186169
0.4186092452
0.3920400485
0.382156286
0.3953025097
0.4350575014
0.4877993487
0.5426980626
0.5962574291
0.6590672376
0.9853135963
0.3440106644
0.3299228432
0.3126746163
0.2931104587
0.2849112986
0.2816416312
0.2399669577
0.2424711139
0.2694679724
0.2377566019
0.2130803872
0.2389987168
0.3224532948
0.5124236499
0.7570203014
0.9266775789
0.725116701
0.5493061402
0.3877006877
0.3166265808
0.3074070795
0.3427033791
0.3993864693
0.4559686058
0.5040555949
0.5599891422
0.8635291521
0.387231382
0.3806062317
0.3666303121
0.341108549
0.3031606155
0.2628291886
0.2177773869
0.2001451235
0.208451328
0.2132319449
0.2166191117
0.3500067441
0.5790552598
1.083135146
1.643527928
1.914300972
1.677828357
1.021054059
0.5640548985
0.3717404986
0.2937763543
0.2894981659
0.3256402245
0.3743519938
0.4149192095
0.4604154774
0.7372221084
0.4784344537
0.4740429761
0.4520465208
0.4173552518
0.3669874338
0.3090261033
0.2474636555
0.1994844535
0.173216969
0.1756030939
0.2855323706
0.5020329584
1.043730661
1.815423193
2.344624341
2.555475488
2.418537789
1.8143508
1.094031253
0.6049689552
0.4152200124
0.3236246653
0.2937337157
0.3123011832
0.3411163266
0.3729222145
0.6164595999
0.6677735123
0.6654028102
0.6248585812
0.5556749202
0.4729544774
0.3948533766
0.3156728512
0.2460832986
0.1893656509
0.1648697221
0.2691657009
0.6300242801
1.316424437
2.127259992
2.551980761
2.695591507
2.575808355
2.044197829
1.306130464
0.7314893842
0.4512468437
0.327666915
0.277798646
0.2733363785
0.2859677393
0.3035956203
0.5063164621
0.9384476935
0.9336826577
0.8607061462
0.747175305
0.6266605177
0.5178758347
0.4309147025
0.308379973
0.2384377814
0.1889604138
0.2658155562
0.6262117651
1.322488251
2.059326677
2.435773973
2.568416174
2.408121909
1.868940677
1.177122685
0.6701386869
0.4248306738
0.3137523097
0.2685360439
0.254993148
0.2522262352
0.2535328055
0.4091989394
1.30856663
1.318751297
1.203426326
1.012782293
0.8155801672
0.6524402555
0.5150737418
0.3960658437
0.3023738953
0.2256378663
0.2115484759
0.4682370501
1.01043393
1.700905723
2.080509124
2.191828884
1.971209628
1.445530214
0.8866414091
0.5358385404
0.3695251877
0.2904865129
0.2585022003
0.245768262
0.2352722122
0.2222542763
0.3316444616
1.79103371
1.844406329
1.681231991
1.379970845
1.071290136
0.8256624366
0.6492597211
0.5176207021
0.402854966
0.2961774392
0.2219376428
0.286541471
0.6370394997
1.155640794
1.528730525
1.620110771
1.391872541
0.9795350944
0.6307182239
0.4295621825
0.3166673209
0.2657971973
0.2466237313
0.2379522687
0.2264694985
0.2062683421
0.2821648812
2.087347284
2.201175107
2.059326232
1.717074677
1.347468794
1.057059115
0.8605237433
0.7143016249
0.5702090347
0.4189521652
0.2851055522
0.2299930725
0.3593621258
0.6510426051
0.9532355327
1.037034782
0.8673494045
0.6283977513
0.4859763813
0.3903195026
0.2760086307
0.2433040998
0.2346586066
0.2297233862
0.219861235
0.1990459379
0.2599012011
2.170898785
2.327061306
2.205564648
1.868232928
1.529595573
1.309449127
1.172126485
1.01636235
0.8111990945
0.581457071
0.3771542216
0.2471277632
0.2392827813
0.3667702933
0.5286650296
0.602436617
0.5249638706
0.411462193
0.3229505483
0.267727132
0.235030918
0.2244483488
0.2230503919
0.2206043576
0.2127729836
0.1944993326
0.2529270993
2.118560049
2.243142404
2.099894768
1.772889654
1.480317031
1.334036968
1.245681118
1.112404172
0.9355705052
0.7229817927
0.4892829343
0.3181179938
0.2355038285
0.2417825369
0.3196269317
0.3633764137
0.3316911604
0.2801782163
0.2414832649
0.2200591757
0.2110729692
0.2096155356
0.2114431784
0.2105156091
0.2044123421
0.1888433688
0.2480681299
1.888208901
1.945237987
1.791596794
1.51864445
1.300224234
1.217547424
1.172982462
1.077690809
0.937709068
0.7577587978
0.5498979059
0.3661624901
0.2555161076
0.2062132975
0.2210924507
0.2431157188
0.236029674
0.2183491541
0.204447761
0.1975012124
0.195881082
0.1973663442
0.1998287664
0.199639485
0.1943065211
0.1801436699
0.2375308659
1.584390925
1.582233439
1.446308187
1.244548579
1.08557867
1.019907383
0.9874980069
0.9264747477
0.825184631
0.6811790517
0.5097104152
0.3540248873
0.2511225905
0.1951535645
0.1899247138
0.209576563
0.2205058099
0.2169366804
0.2055172888
0.1947528819
0.1887826914
0.1875102005
0.1884057711
0.1875880323
0.1818986858
0.1677353835
0.2192335226
1.322363522
1.281218884
1.170386443
1.02486025
0.8999373873
0.8308865896
0.7760728574
0.7222859449
0.6492583602
0.5429207149
0.4169676927
0.3077024232
0.2289663744
0.1862069379
0.186451998
0.2183323317
0.2463934711
0.2518293194
0.2359917911
0.2120363215
0.1923192581
0.1814608846
0.177144454
0.1738528325
0.1667912181
0.151899586
0.1947677827
1.14450465
1.077400912
0.9816497708
0.8678009347
0.7661051299
0.6883836856
0.6424637929
0.5526643967
0.487210728
0.4112874489
0.3304951385
0.2583187039
0.2039570101
0.1768699769
0.1869061511
0.2311168426
0.2743860423
0.2912431838
0.27475453
0.2383774269
0.2033606398
0.1791936696
0.1662551043
0.1585021271
0.1492887542
0.1337429361
0.1673952872
1.026211131
0.947257444
0.8552583578
0.7566223855
0.6594493257
0.6150926559
0.71458297
0.4508728105
0.3774346342
0.3223952501
0.268391658
0.220173922
0.1845560322
0.1686042297
0.1828766897
0.2305718383
0.2821315143
0.3083720827
0.2966958771
0.2566187175
0.2118980503
0.1768728409
0.1552038986
0.1422847886
0.1306728791
0.1150721896
0.1405717477
0.9335056742
0.8510240178
0.7611577347
0.6708915681
0.5794215957
0.5002148364
0.4415822423
0.3617892896
0.3114983556
0.2681688063
0.2291614361
0.1965412853
0.1730084502
0.1627697732
0.1750961675
0.2164168588
0.264894648
0.2942336148
0.2887714438
0.2534349535
0.209111866
0.1702984575
0.1435734151
0.1267308899
0.1131101824
0.09801871945
0.1170056916
0.8435038765
0.7679308317
0.6855765893
0.603902447
0.5222027888
0.4458996711
0.3766472912
0.3185092261
0.2741555963
0.2381386589
0.2087252258
0.1853977081
0.1683647833
0.1600936207
0.1675856219
0.1972198457
0.2350132837
0.2600215741
0.2586535693
0.2326286711
0.1958661878
0.1601256551
0.1330134845
0.1142361219
0.09912713034
0.0845710216
0.09823177837
0.7617570341
0.6956917156
0.6225224047
0.5486966936
0.479379329
0.4285290049
0.3598777247
0.3000343654
0.2570629157
0.2255034975
0.2015646681
0.1828887662
0.1686108291
0.160378086
0.1631223471
0.1814153072
0.2072983311
0.2253955041
0.2257158346
0.208338191
0.1805948527
0.1512500509
0.1265114164
0.10712154
0.09080614752
0.07579985165
0.08449133439
0.6970838807
0.6363324201
0.5701856228
0.5100807783
0.4854219403
0.6571664732
0.4816717506
0.3280606742
0.2591564147
0.2241634331
0.2020424679
0.185250143
0.1716590074
0.1625654272
0.1616929585
0.1718643235
0.1883345845
0.2007603829
0.2017441108
0.1903569703
0.1704405486
0.1474702125
0.1257240549
0.1065380078
0.08922434294
0.07329497238
0.07595653496
0.6652407072
0.5982181229
0.5313267871
0.4998142282
0.8523178076
2.432264464
1.639931157
0.6791559275
0.3363412203
0.2405957403
0.2089655395
0.1908332899
0.1762262353
0.1654049372
0.1615192972
0.1664686996
0.1769444906
0.1857676374
0.1873420941
0.1802316532
0.1662542705
0.1485583462
0.1300072165
0.1116354236
0.09500830919
0.08394392136
0.07089398173
0.6969654184
0.611315273
0.533121745
0.5144152877
1.085194552
4.000592461
1.849921865
0.6801436679
0.3399510904
0.2481126217
0.2166288204
0.1974743473
0.1810607348
0.1677532419
0.1606544976
0.1615666645
0.1681206195
0.1749174295
0.1773859792
0.1738258802
0.1649276766
0.1524333318
0.1380742755
0.1219663435
0.1056922528
0.08990956426
0.0663748681
0.7947779076
0.6775897145
0.5647947067
0.4954106338
0.6513204118
1.864940283
1.014688003
0.4600371382
0.2949913225
0.2453219109
0.2220832852
0.2030616744
0.1845728148
0.1682644453
0.1574310432
0.1541626345
0.1571712122
0.1624908758
0.1662777413
0.1665918754
0.1632105488
0.1566376637
0.1474550206
0.1344309413
0.1168456472
0.09274716355
0.07617706899
0.9221483429
0.7744147887
0.6318082008
0.5200402083
0.4688907526
0.6832020164
0.4840088568
0.329973349
0.2745050892
0.2481984462
0.2279172005
0.2073438887
0.1861760603
0.1666336588
0.1518007722
0.1439050174
0.1428978754
0.1465331569
0.1518482635
0.1564742028
0.1588531846
0.1580073636
0.1536638734
0.1436052969
0.1251329394
0.09644230235
0.07866764149
1.011891174
0.8483042558
0.6869934021
0.5535247416
0.453746033
0.4344169198
0.3565620157
0.3006986114
0.2697480581
0.2471425002
0.2257888269
0.2034661812
0.1806791833
0.1593350537
0.1417515426
0.1298520583
0.124603376
0.1256983532
0.1314822793
0.1392665179
0.1459663278
0.1489948466
0.1472523368
0.1381402196
0.1186830385
0.08869452577
0.06839156693
1.327913791
1.084942133
0.8475134138
0.663488527
0.5313010913
0.458161174
0.3987562478
0.3584186812
0.3290673921
0.303026695
0.2763501842
0.2481216358
0.2193935701
0.1920760828
0.1680988598
0.1491411023
0.1368654284
0.1328868012
0.1375421905
0.1482045756
0.1594075474
0.1653835284
0.1631199092
0.1490307705
0.1209332216
0.08254061452
0.0477013127
0.1597640385
0.1523397266
0.1713038172
0.3617755157
1.008042312
0.6656322516
0.481570772
0.3674045487
0.444909455
0.7188809148
1.125403305
1.488064752
1.511733914
1.358199087
1.190290383
0.2081289355
0.1933464132
0.1840644079
0.1745712037
0.1679919109
0.2306393296
0.8624229655
2.182271098
1.194667203
0.6214735384
0.4296273701
0.3837591357
0.4648904967
0.6268470344
0.8814767712
0.9955187514
1.004013151
0.9762051755
0.9365479619
0.8747163092
0.7985151677
0.7342466474
0.6689249715
0.6859055945
0.8010548069
1.253929495
0.2538675803
0.2341899946
0.2168471816
0.2053379728
0.1972969173
0.1872384722
0.183868181
0.2474325145
0.8045436566
1.291161272
0.941897949
0.5805682943
0.4379597963
0.3821559676
0.3926389735
0.4635845557
0.5654021053
0.6853680131
0.7575107945
0.7928723444
0.8053821725
0.776305239
0.7177362891
0.6572526183
0.6322056205
0.6700410076
0.7826218357
1.216911487
0.2576090374
0.2444000133
0.232593711
0.2124697623
0.2024816815
0.201646113
0.208252023
0.2919785456
0.8977945166
1.254876994
0.977627868
0.6038231671
0.4468377691
0.3850438236
0.3522872431
0.3737001853
0.4378002891
0.4990478982
0.557662074
0.6170179793
0.6584869715
0.6581801718
0.629765937
0.6039286916
0.6079064622
0.6536001779
0.7497169551
1.14236456
0.2585604475
0.2527310066
0.2343525396
0.225643605
0.2385623373
0.2549917346
0.2709738647
0.7337899447
1.178854136
0.8197979079
0.4803808597
0.3872453399
0.3266143569
0.305522386
0.3345007443
0.3791529057
0.4033840177
0.4445710439
0.4950627805
0.5283753921
0.530429214
0.524705527
0.530299351
0.5565126267
0.6039182335
0.6818776573
1.025950961
0.282278388
0.2746375986
0.2563913489
0.2648070063
0.2936665785
0.3193456768
0.2790619628
0.5162061389
0.624731177
0.4285253792
0.3111539201
0.2852557163
0.2854543375
0.3354755828
0.4570819982
0.4935512875
0.4579181828
0.4241014422
0.4198997711
0.4179681812
0.411620508
0.4192206546
0.4447250501
0.4821727977
0.5281074553
0.590762455
0.8845066364
0.3086294059
0.292348976
0.2770521983
0.275088792
0.3023395167
0.3018789738
0.267557268
0.2870828491
0.3369435033
0.2688789989
0.2460489661
0.285209165
0.3738760204
0.6206558796
0.9138340903
1.033108177
0.8826585645
0.6243655396
0.4552000338
0.3746852959
0.3426309911
0.3434099918
0.3671121298
0.4016436508
0.43824698
0.4857077294
0.735617325
0.3422249212
0.3227137807
0.3018816286
0.2788114139
0.26209785
0.2478207872
0.2199629074
0.226714982
0.2442176363
0.3059659228
0.2594464335
0.3946099537
0.6688744983
1.224579931
1.665177638
1.837451499
1.682101063
1.194626623
0.7252258342
0.4545501005
0.3420686119
0.3092143576
0.3132893213
0.3326255078
0.354502716
0.3845061031
0.596544031
0.4118053849
0.3926061581
0.3642312588
0.3237137919
0.2774860994
0.2368355243
0.2047964021
0.1879154741
0.1852902267
0.2148548006
0.2636643728
0.5133066132
1.052738897
1.683759053
2.035047974
2.142509252
2.057856343
1.624335581
1.028260213
0.6030607038
0.3968604557
0.3139637823
0.2884489789
0.2870110976
0.2915490482
0.3022508942
0.4795147234
0.5609066239
0.5458310815
0.5001670747
0.4265367726
0.34678348
0.2840808817
0.2605415016
0.2036662838
0.1780502193
0.1798931893
0.269899741
0.6365135014
1.314285297
1.853751482
2.08886088
2.148702849
2.093456528
1.736677944
1.148604984
0.6671772277
0.4146867748
0.3119815424
0.276141139
0.262894952
0.2529318855
0.2465602729
0.3884253153
0.7850220189
0.7637121878
0.683770474
0.565416161
0.4477973883
0.38711869
0.3472836432
0.270915694
0.2030380216
0.1848260436
0.2631319728
0.6407763226
1.327968526
1.811272899
2.007487874
2.067921743
1.98333479
1.600742475
1.036447177
0.6048558005
0.3823139182
0.2936175657
0.2639619583
0.2508493696
0.2340414096
0.2152853365
0.3239223341
1.083542053
1.07459921
0.9426586263
0.7425815949
0.5562681287
0.4226371694
0.3704905461
0.2762389154
0.2280559499
0.1979033653
0.2258649889
0.4891836445
1.088476977
1.55486088
1.772207755
1.829627598
1.674880026
1.256934966
0.7804554108
0.4772928357
0.3256745967
0.2666653424
0.2496602848
0.242427145
0.2260639315
0.2014236393
0.2859557192
1.415866082
1.468763144
1.31130885
1.017001157
0.7253396848
0.529530668
0.4238199314
0.3539131956
0.2923819301
0.2368796975
0.2141569786
0.3191027241
0.6941957396
1.105106954
1.329932251
1.377060638
1.190760151
0.8608475442
0.584557733
0.415945018
0.287183975
0.2435247785
0.2356807665
0.2340338437
0.2214569232
0.197173906
0.2716940364
1.60654677
1.74169186
1.609904732
1.271966597
0.9315853854
0.7199887742
0.6149555309
0.5357898522
0.434608408
0.3249722769
0.2431947084
0.238743572
0.3917777839
0.657436416
0.8394899287
0.8831592671
0.7462829326
0.5699011643
0.9726511535
1.305304363
0.3601498403
0.237866714
0.2253939501
0.2258440107
0.2166369795
0.196057676
0.2724270392
1.657840255
1.846169303
1.725544251
1.357399417
1.03308233
0.8934499399
0.8391723948
0.7589879159
0.6223823775
0.4512932294
0.3026007521
0.2259402043
0.2496480848
0.3659295084
0.4777843133
0.5156717151
0.4525984558
0.3597967014
0.4036414462
0.3572682136
0.2342342464
0.2103774653
0.2122520182
0.2158411785
0.2097392575
0.1937188209
0.2761039775
1.624383019
1.781096521
1.632123619
1.276865205
1.027906159
0.9821313105
0.9589816281
0.8734201805
0.7311592127
0.5476284307
0.3649231691
0.2472663264
0.2076319999
0.2338924792
0.2848589382
0.3099952551
0.2883281855
0.2502191861
0.2368688788
0.2143255398
0.1964619287
0.1962463326
0.2020711747
0.2061578713
0.2012816284
0.1882444442
0.2735689674
1.465380001
1.540519678
1.370244038
1.080483841
0.9201632998
0.941627483
0.9520291271
0.8815320891
0.7515438453
0.5799478813
0.3972191274
0.2661226418
0.2013364739
0.1893930474
0.2084377504
0.2270889485
0.2258824487
0.2131460526
0.2010526701
0.1901164061
0.1857252089
0.1878437012
0.1930572986
0.1959700018
0.1908718433
0.1787629467
0.2608570891
1.233263108
1.233280703
1.075261627
0.8657273891
0.7645924018
0.8042228658
0.83340996
0.7917032066
0.6863126633
0.5396868427
0.3809125966
0.2611339586
0.1964871786
0.177957529
0.1919089987
0.21587936
0.2279898164
0.2242613871
0.2098340179
0.1942015646
0.184329035
0.1818173526
0.1837670413
0.1843560544
0.1780394508
0.1652910842
0.2385238384
1.021822293
0.9761493429
0.8454929918
0.6970486336
0.6192403075
0.6464838303
0.6713997389
0.633681601
0.5579127958
0.4462892095
0.3262725307
0.2353891452
0.1858632183
0.1752640291
0.197583858
0.2337005495
0.2576629721
0.2591869166
0.240525253
0.2132859115
0.1902213584
0.1777514902
0.1736463014
0.1707759585
0.1626523082
0.148677539
0.2099807887
0.8732947373
0.8062973759
0.6985490793
0.5887439293
0.5349326115
0.6764351911
0.6760407188
0.5197757747
0.4226800231
0.3429017905
0.2638279659
0.2043596742
0.1730200996
0.1726862613
0.2042219377
0.251150337
0.2846478213
0.2915814046
0.2718507181
0.2353348809
0.1988155581
0.1744335768
0.1625376793
0.1554032856
0.1453154489
0.1305054113
0.1797144113
0.7753522789
0.7028591535
0.6090078299
0.5186555142
0.4690056539
0.6431018874
3.035043451
0.6750801297
0.3489048921
0.2669837052
0.2162999989
0.1800855715
0.1623657914
0.1682054734
0.2028116327
0.2538873855
0.2928078979
0.3044339875
0.286610328
0.2468524336
0.2025226906
0.1692836942
0.1505121384
0.1393011122
0.127533237
0.1127961498
0.1516904596
0.7035156142
0.6344799687
0.5498979206
0.4667867139
0.4014257777
0.4092030298
0.6639186119
0.3445906444
0.2585208305
0.2181796875
0.1876048843
0.1659231287
0.1558950299
0.1629048229
0.1935327053
0.2403980018
0.2790450309
0.2930426333
0.2784479933
0.2411000547
0.196794181
0.1609441102
0.1385301958
0.1244117864
0.1114575982
0.09750916551
0.1283667174
0.6461270264
0.5832982134
0.5060922343
0.4298247623
0.3666269015
0.3283359762
0.3197512687
0.254661385
0.2206048341
0.1953861007
0.1752965571
0.1607750087
0.1538068521
0.1588928598
0.1816631763
0.2183211444
0.2509406698
0.264240444
0.253166929
0.2223347989
0.1843676676
0.1516230171
0.1289274336
0.1131552507
0.09929503141
0.08612347634
0.1105561485
0.6004237675
0.5409955475
0.4685073393
0.4010984762
0.3548537152
0.3542293602
0.2971089075
0.2442171346
0.2123755693
0.1905160233
0.1740958152
0.1619876979
0.1553745091
0.1575652846
0.1724005388
0.1977197534
0.2216780716
0.2322071195
0.2245036762
0.2017703423
0.1726513951
0.145574276
0.1243077119
0.1075511924
0.09270256143
0.07922303148
0.09776714627
0.5697704605
0.5078666208
0.4372051304
0.3938615733
0.4991437774
1.003219158
0.6401682204
0.3413487757
0.2335172725
0.1968987938
0.1791201492
0.1670031311
0.1594545422
0.1588237665
0.1675618053
0.1840209185
0.2004710216
0.2083143517
0.2036348898
0.1881613174
0.1670341087