/*--------------------------------*- C++ -*----------------------------------*\
  =========                 |
  \\      /  F ield         | OpenFOAM: The Open Source CFD Toolbox
   \\    /   O peration     | Website:  https://openfoam.org
    \\  /    A nd           | Version:  8
     \\/     M anipulation  |
\*---------------------------------------------------------------------------*/
FoamFile
{
    version     2.0;
    format      ascii;
    class       volScalarField;
    location    "1.7";
    object      htcConv;
}
// * * * * * * * * * * * * * * * * * * * * * * * * * * * * * * * * * * * * * //

dimensions      [1 0 -1 1 0 0 0];

internalField   uniform 0;

boundaryField
{
    walls
    {
        type            calculated;
        value           uniform 0;
    }
    region0_to_wallFilmRegion_wallFilmFace
    {
        type            convectiveHeatTransfer;
        L               1;
        value           nonuniform List<scalar> 
822
(
2.961923139
2.867700008
2.934103289
2.869315306
2.741688373
2.621283147
2.657252861
2.637866757
2.682743899
2.798370779
2.888709716
2.93724145
2.908624011
2.959691953
3.121721097
3.274823016
3.50589287
3.677769504
3.781109617
3.819655578
3.805314168
3.734803428
3.645965249
3.575834229
3.507390413
3.408719631
3.239728297
3.050408839
2.919891586
2.682011979
2.538710927
2.944279055
2.877657306
2.845745053
2.77138501
2.652187848
2.723986992
2.763669543
2.837024061
2.949731804
3.049617252
3.134451617
3.159817759
3.221601038
3.379205778
3.527522557
3.737322807
3.892313698
3.980347583
3.999900113
3.960919179
3.868588058
3.756570208
3.658838404
3.572943106
3.46153532
3.345305478
3.235858386
3.106440386
2.885176481
2.809317224
2.846891655
2.695131121
2.742749667
2.740324755
2.622694126
2.71199715
2.814190617
2.912161425
3.03614222
3.153294403
3.2847518
3.377571844
3.452785583
3.623470602
3.756767441
3.915091194
4.025339185
4.080949838
4.079817376
4.030892821
3.940039473
3.825475477
3.712223922
3.591523641
3.489556468
3.182538902
3.136556041
3.087294296
2.950086536
2.957383439
2.819170142
2.593849323
2.489009475
2.610353771
2.507479951
2.612817256
2.751514073
2.899084102
3.06311304
3.194737707
3.376739521
3.528025619
3.61969065
3.794542832
3.898417535
3.999464785
4.064039988
4.088524503
4.069623517
4.017495497
3.944163856
3.839925774
3.699797461
3.583124622
3.27764856
3.280637597
3.506199244
3.353547662
3.124370941
3.0823349
2.712237324
2.654000728
2.428645934
2.416341615
1.94630188
2.134027012
2.574392928
2.788714757
3.02786429
3.174081403
3.401603013
3.599181734
3.704530239
3.874909137
3.922945923
3.969822296
4.004948294
4.015893775
3.988324137
3.944898758
3.90664169
3.818264243
3.696983244
3.454037753
3.311482687
3.224523666
2.867812222
2.935299536
2.936543761
3.026051607
2.6029259
2.60136753
2.53720094
2.436054782
2.555313042
3.00360545
1.994374851
2.34862193
2.60810543
2.908933943
3.014213687
3.357263761
3.591069875
3.712914725
3.869219785
3.804417678
3.799538048
3.837466859
3.86353298
3.85465766
3.785537832
3.821949093
3.762256694
3.527710677
3.463217391
2.981611628
6.309982299
4.97278029
4.095533716
3.424905262
3.17419279
2.684545408
2.64592107
2.51389705
2.410152529
2.234891907
2.365474831
1.89568352
2.173462062
2.420541123
2.769852406
2.955647723
3.238780414
3.51019314
3.664350617
3.810045743
3.545467695
3.497893555
3.586736825
3.683974496
3.68578421
3.739407708
3.848371264
3.761897774
3.599402618
3.685908013
3.133020882
4.867951554
4.446014601
3.89875422
3.447379657
3.282032749
2.545985894
2.631548873
2.607917876
2.348500382
2.6186813
1.699836553
1.684717253
1.806565331
2.17554266
2.474352435
2.867699991
3.07199924
3.370728593
3.547791658
3.699979386
3.273022377
3.233502878
3.394404163
3.561125233
3.656037851
3.804451852
3.778777697
3.696403677
3.566955378
3.577420878
3.288165929
4.094413184
3.894129609
3.558587772
3.291375122
3.215851815
2.817563905
2.902086785
2.372025434
2.842787588
2.0722631
2.371732743
2.062543576
1.586573936
1.846275806
2.089365701
2.434761285
2.777253981
3.137581991
3.360426248
3.507752729
3.127112888
3.154667757
3.338052718
3.498859094
3.602314832
3.687218898
3.666950461
3.591919287
3.492272296
3.465600471
3.300675438
3.680544813
3.560328706
3.36579593
3.192737113
3.164634242
2.421159803
2.49862959
1.668797908
2.016830336
2.734708587
2.072206211
1.774349238
1.410535351
1.880007578
1.900876865
2.086060819
2.379494934
2.806284272
3.092805194
3.213528604
3.049926654
3.165673901
3.338593597
3.466753968
3.546822084
3.583739042
3.547637062
3.474222294
3.393931133
3.343390705
3.245426023
3.390551576
3.306811753
3.203807074
3.098984816
3.11076507
2.306535967
2.096806062
1.846059815
1.898352875
1.960925603
1.789536399
1.694844295
1.561603465
2.283833051
1.815534495
1.874248202
2.09246255
2.423528078
2.76301415
2.853583011
2.939395308
3.153779184
3.311804571
3.407814905
3.450186204
3.450923776
3.407108589
3.342416357
3.278897824
3.226274078
3.16781045
3.205049623
3.146603908
3.08761384
3.019468255
3.057343494
2.297427314
1.769829834
1.564100842
1.670778102
1.916601534
1.594999579
1.743899886
1.795373505
2.536095759
2.297682323
2.168692985
2.168226555
2.230441605
2.479732802
2.550302753
2.752468705
3.056123654
3.211109744
3.278743788
3.297098507
3.283475332
3.245937533
3.199969336
3.156642146
3.117102782
3.08122402
3.077618394
3.032602148
2.992781912
2.945299535
3.002120287
2.390991586
1.77705615
1.548278257
1.222709785
1.580357717
1.720999823
1.757067025
1.94863295
2.228858879
2.426393258
2.519826811
2.554394817
2.481646398
2.475272568
2.50631604
2.598896898
2.866504115
3.023761246
3.085268356
3.098771225
3.090507034
3.072740111
3.051535131
3.029379565
3.005611266
2.98232691
2.965988035
2.928012968
2.897801694
2.864455117
2.938202422
2.306981951
2.236381822
2.024447367
1.905171313
1.913600385
1.810468131
1.804501256
2.187571173
2.529101146
2.570460858
2.742648534
2.873363382
2.895112387
2.817435438
2.650769952
2.567803477
2.69078858
2.81494314
2.868197548
2.88649793
2.89656403
2.903924779
2.905525715
2.899910309
2.887507346
2.870794304
2.851491019
2.816834268
2.791699484
2.769696854
2.858399998
2.227367703
2.150753185
2.415810856
2.155327306
2.073525415
1.720200406
1.841460514
2.332748737
2.677287739
2.725985805
2.928361614
3.134820495
3.283916456
3.313796668
3.203976574
2.966114028
2.806888992
2.745164727
2.711930231
2.699901513
2.715466872
2.743823159
2.765849579
2.77346855
2.767947323
2.753464975
2.73231113
2.697585664
2.673861714
2.659897978
2.75777339
2.563699448
2.375890288
2.294036235
2.20241338
1.896514689
1.784050809
2.408050721
2.745265168
2.956417834
3.019777794
3.205663883
3.418045036
3.560153538
3.595164984
3.511020308
3.275263714
3.002576722
2.787375373
2.660418596
2.614161821
2.623573102
2.655225696
2.680556635
2.68648226
2.675078882
2.65309651
2.624228054
2.583429041
2.554650752
2.54100143
2.63539029
2.419666878
2.280920703
2.100918406
1.551067571
1.613002348
2.349702799
2.790588023
3.092038758
3.231121031
3.442519162
3.632278658
3.728004686
3.71572797
3.593978859
3.349446009
3.058823619
2.799501149
2.658010676
2.633647372
2.660943352
2.693487668
2.706550338
2.689419094
2.650375052
2.602408031
2.552269519
2.494846661
2.450773502
2.424667705
2.495560117
2.200709685
2.230287457
2.111327852
1.857211418
1.812822995
2.117518651
2.719787079
3.248603485
3.41117104
3.592907574
3.715326277
3.740771336
3.667474025
3.532936669
3.307870058
3.046387548
2.806923834
2.686470049
2.691658168
2.739488955
2.778442231
2.785155973
2.748996165
2.680189056
2.599851018
2.520810014
2.439480094
2.372362453
2.32228087
2.348645328
2.293976957
2.402548696
2.421339803
2.321956226
2.143070696
2.191071876
2.492310739
3.282790722
3.467474035
3.600472831
3.652682961
3.593870692
3.477891548
3.427711262
3.243905674
3.03964211
2.846132098
2.742700294
2.754646703
2.808786659
2.848936334
2.850596079
2.801915108
2.713323933
2.609187226
2.506282921
2.403168123
2.313924021
2.237331926
2.210346708
2.438128774
2.563339433
2.663509833
2.624193517
2.426326577
2.335743242
2.258282946
3.171090188
3.390468959
3.471961242
3.481998122
3.369902198
3.329944492
3.33911211
3.181020335
3.033581589
2.889369061
2.800782525
2.805085185
2.853176924
2.887428994
2.878379877
2.816734288
2.716121378
2.599035775
2.482161994
2.364568835
2.260603766
2.164163147
2.095251064
2.573746037
2.64344537
2.79027886
2.768438924
2.595544617
2.404727357
2.146198085
2.916204757
3.167283885
3.230846417
3.24462927
3.187646425
3.211896337
3.189305607
3.106338258
3.016452032
2.916712545
2.841269837
2.828356885
2.856601498
2.874920216
2.85178356
2.781114415
2.675584645
2.554987871
2.433495384
2.309358928
2.200037656
2.094737925
2.008490913
2.536797717
2.592714697
2.788800884
2.80068036
2.693279668
2.514216862
2.225254822
2.623053447
2.865101534
2.952339967
2.99984636
3.00272597
3.049493995
3.064761329
3.037259247
2.990305385
2.924487761
2.859490027
2.825655087
2.821496109
2.813406181
2.773402197
2.69553953
2.590471375
2.47329661
2.355212995
2.232062658
2.126000171
2.021371711
1.941056339
2.624992282
2.54945485
2.753229376
2.788026485
2.759019893
2.665975026
2.477454543
2.517336622
2.650407551
2.730931803
2.806779353
2.86384585
2.93504149
2.97681665
2.983562092
2.964123593
2.919833317
2.861104702
2.807380896
2.766005597
2.72219461
2.658330645
2.57034174
2.465540363
2.354255423
2.247391435
2.134000972
2.041354858
1.94502691
1.885894023
2.696786547
2.495899607
2.708447431
2.767675617
2.806024315
2.791866587
2.702991995
2.630106175
2.619085089
2.630672599
2.695944945
2.777471389
2.859985128
2.915247357
2.938025632
2.931851516
2.898503798
2.842632802
2.774228928
2.700615757
2.619144766
2.524335552
2.417710333
2.305783892
2.198700531
2.109160085
2.012233816
1.941960963
1.860895597
1.836193868
2.49895711
2.436038678
2.700702949
2.803837991
2.88052157
2.91580912
2.897420559
2.846108777
2.783721417
2.722623909
2.716288544
2.760031399
2.82213553
2.871383007
2.895975995
2.894659754
2.866975961
2.813566133
2.737445136
2.641855283
2.528064878
2.398092547
2.259799458
2.115356766
1.98796602
1.933415278
1.866192496
1.82287944
1.762214405
1.782375226
2.243392233
2.352529976
2.700858637
2.863303099
2.978020709
3.041931059
3.058030901
3.036010743
2.979612497
2.892294041
2.815445934
2.783860343
2.793697187
2.817582877
2.834267208
2.833932244
2.811315162
2.763021305
2.687395728
2.583905337
2.452153937
2.293658592
2.112685392
1.903122761
1.558666286
1.605458089
1.598679893
1.579771149
1.533912864
1.601558616
2.071785773
2.341584762
2.772034927
2.980516831
3.123575396
3.208027638
3.246219
3.25010141
3.219769009
3.145320361
3.032508274
2.913412116
2.828551878
2.791211756
2.784460487
2.784786103
2.774152952
2.740986867
2.678148083
2.580889563
2.446083673
2.273952334
2.066408694
1.838733707
1.569641343
1.393557441
1.329249029
1.303919395
1.300583408
1.344454984
)
;
    }
    region0_to_wallFilmRegion_mirrorFace
    {
        type            convectiveHeatTransfer;
        L               1;
        value           nonuniform List<scalar> 
558
(
4.19851596
4.078908727
4.156597391
4.277534375
4.244351991
4.542059491
4.069280969
4.005164721
4.079846361
4.309499013
4.359166183
4.421707552
4.510991251
4.549298558
4.652429798
4.745163612
4.566747169
4.451130351
4.496397619
4.599520961
4.500380496
4.784606389
4.705177173
4.686907817
4.769996297
4.64108259
4.645815486
4.211035775
4.812213418
4.697284262
4.554143299
4.69362022
4.541691758
4.106023575
4.097830601
4.344815172
3.476243743
3.566281111
3.74856399
4.145172395
3.972911522
4.057832416
4.247279842
4.224792774
4.237299699
4.298751173
4.350123634
1.287224867
2.424802505
2.220511646
2.886673717
2.46515674
2.403858143
2.302678355
2.261862976
2.373986082
2.524534098
2.4886866
2.594129459
2.712467955
2.654029427
2.625972436
2.871183429
2.539839935
2.600769455
3.018547568
2.798437678
3.173721819
1.698098845
2.029410779
1.776369759
1.888166113
2.253077369
2.010315653
2.126984013
2.432567306
2.22703846
2.307578372
2.528198076
2.371183469
2.417314224
2.532026198
2.460050398
2.517220046
2.793752668
2.610136261
2.454109854
1.476906662
1.171638601
1.2528439
1.70786258
1.400327708
1.565212551
1.968839997
1.72177434
1.862855066
2.171970012
1.987395253
2.097395853
2.322988577
2.194363021
2.276319734
2.408782862
2.342408301
2.366470898
2.256872076
2.406296419
2.193045709
1.416106429
2.252010235
1.322571313
1.044309133
1.246872581
1.194303242
1.179463431
1.251885814
1.378559802
1.548009283
1.530382157
1.680950698
1.858893642
1.822404716
1.953104473
2.106480409
2.072577967
2.17976155
2.29091303
2.271966222
2.343676871
2.358512882
2.392683095
2.382176234
2.096522612
2.402087751
2.082503112
2.101920164
2.302129573
2.665729934
1.476756521
1.705069652
1.753961404
1.64618075
1.824248558
1.905719353
1.873514841
1.990932086
2.074219834
2.089869529
2.154561872
2.231696662
2.276206779
2.303695937
2.366987569
2.403313125
2.417515499
2.448601409
2.404056828
2.455922803
2.419543287
2.104770202
2.388907931
2.165253041
1.977646983
2.103686098
2.185705156
2.112415936
2.263162174
2.327778521
2.244156463
2.379058326
2.414855829
2.356918928
2.442195004
2.465234683
2.443132915
2.480175412
2.477545342
2.470475203
2.468274037
2.439989064
2.380007297
2.40039624
2.331024315
2.109987613
2.142531562
2.182181182
2.279293141
2.22323531
2.361499829
2.428568037
2.478906573
2.565934355
2.526320639
2.611758988
2.614920292
2.555949306
2.616541559
2.618412717
2.529903925
2.56441647
2.399756183
2.394605033
2.265414149
2.113726806
4.141344475
4.248701761
4.251156703
1.125634693
2.300741982
3.13398383
4.78484238
2.205554517
2.354549366
2.669375311
2.869645348
3.380532645
4.246418789
3.371915669
1.930409217
2.142065198
2.34843724
2.49925926
2.552409487
2.866523072
2.834511988
1.434775576
1.576699328
1.84335243
2.078119057
2.253631732
2.383631821
2.470313358
2.338869916
1.204392381
1.034255042
1.366530723
1.712188394
1.989850212
2.208172972
2.353637618
2.393902637
2.270008539
1.457294846
1.547195951
1.759138755
1.984444188
2.188037224
2.350185077
2.432494815
2.40854376
2.418753198
1.923711626
2.043603951
2.180761849
2.302528147
2.405108879
2.467839477
2.444640278
2.253933375
1.89253596
2.209310962
2.361353165
2.48912092
2.541578673
2.557929377
2.490020163
2.27971038
2.285946338
1.971237383
2.234967323
2.529643249
2.540973191
2.744646201
2.526279232
4.347065645
2.991304367
4.204016333
4.654668763
4.646596565
4.707795495
4.79291856
4.72181713
4.697794924
4.461723479
4.406449649
4.82144062
4.712603041
4.628689071
4.469732807
4.624706043
4.416064791
4.777042645
4.722670256
4.661707076
4.348258865
4.10611265
4.433962123
4.338799252
2.279394296
2.069962514
2.602722154
3.525586499
1.645106571
1.445068913
2.331697361
3.401201757
2.533754587
2.680137161
3.111680992
3.798376446
3.493070016
2.768625047
3.240642557
4.095213819
3.687027578
2.808294493
4.187809735
4.013443184
3.664869909
2.148716637
4.127851559
2.499676351
4.276785186
4.25288181
2.952400704
2.355160063
4.336193559
4.091805438
3.434803773
4.388654948
4.451491556
4.220403112
4.342429217
3.4152926
4.469485498
2.142380801
2.156407421
4.252180924
2.068147928
4.361849921
3.149793586
3.563393279
4.415430684
4.501797452
4.620014025
2.097362612
4.140289109
4.143570731
2.359680742
4.030471881
3.774389948
4.19511495
4.421078045
2.59239102
3.42513549
3.003698667
3.960592668
4.259918334
4.160423275
2.655794981
2.960416234
2.833179094
4.044377528
4.171601269
4.200082945
2.641238083
2.433029883
2.237862866
4.19280547
4.255430448
4.371155304
4.120885372
1.973073674
3.23268468
4.241491458
4.46561461
4.425728823
4.472624352
4.388642617
4.386264068
4.222731604
4.453332993
4.423958029
4.511353186
4.55098127
4.534765382
4.680507028
4.673293018
4.588733726
4.462473424
4.664155708
4.67254776
4.566031367
4.612881275
4.668601987
4.702666125
4.667786094
4.771782392
4.744711939
4.479297426
4.732279903
4.646399524
4.461544646
4.605903612
4.60361386
4.553508019
4.626017395
4.644076357
4.481318817
4.494020246
4.668467458
4.803558329
4.762602011
4.189651251
4.27214666
4.427381083
4.322615437
4.302352239
4.305337444
4.596112834
4.587152052
4.583096528
4.732119599
4.68870789
4.825124987
4.884885871
4.609429351
4.720550897
4.773152185
4.688913005
4.772099973
4.711604277
4.701020963
4.857543464
4.788814129
4.863366674
4.79637136
4.600874803
4.686958991
4.68051643
4.555366655
4.629750116
4.544486191
4.501028265
4.563815585
4.669634425
4.76054149
4.698158278
4.734459651
4.813416152
4.293723448
4.295534328
4.347623746
4.27150709
4.594572596
4.616588668
4.898620601
4.805173959
4.880858667
4.825344748
4.897569228
4.734879817
4.762335432
4.811625011
4.60629803
4.749042569
4.677381996
4.532241849
4.493587146
4.320920716
4.330777612
4.474076325
4.354465681
4.655439684
4.605557501
4.546188595
4.589057295
4.768536523
4.631390795
4.690066386
4.666091896
4.61460982
4.464443258
4.623421252
4.495463526
4.290140123
4.362190713
4.264214593
4.31119853
4.469396025
4.606241565
4.413776255
4.478521041
4.659929184
4.237831237
4.523966127
4.600079018
4.44763481
4.372722264
3.51375569
4.089872248
3.792711479
4.092603956
3.81394712
3.853968419
3.918043496
4.183436918
3.999467894
4.113287853
4.243401449
4.387787937
4.469980172
4.281744355
4.567239801
4.490055765
4.328694724
4.137347627
4.388506547
4.251723009
2.122553267
1.872017706
1.616680147
2.230250166
1.514060382
1.803485835
3.0688815
2.317226865
2.872155385
3.841248936
3.382012541
3.801567723
4.061049181
1.399951692
2.002386304
1.985522917
1.832024218
2.092158252
2.332695464
2.870621355
2.681898858
3.105321586
3.862277212
3.57289322
3.951787939
4.210162302
4.040066667
2.578302377
3.029179165
3.078917279
2.855452977
3.167445095
3.306863988
3.642327544
3.451759168
3.498532278
3.730601852
3.94848048
3.935398073
)
;
    }
    procBoundary1to0
    {
        type            processor;
        value           uniform 0;
    }
    procBoundary1to2
    {
        type            processor;
        value           uniform 0;
    }
    procBoundary1to3
    {
        type            processor;
        value           uniform 0;
    }
}


// ************************************************************************* //
