/*--------------------------------*- C++ -*----------------------------------*\
  =========                 |
  \\      /  F ield         | OpenFOAM: The Open Source CFD Toolbox
   \\    /   O peration     | Website:  https://openfoam.org
    \\  /    A nd           | Version:  8
     \\/     M anipulation  |
\*---------------------------------------------------------------------------*/
FoamFile
{
    version     2.0;
    format      ascii;
    class       volScalarField;
    location    "1.7";
    object      nut;
}
// * * * * * * * * * * * * * * * * * * * * * * * * * * * * * * * * * * * * * //

dimensions      [0 2 -1 0 0 0 0];

internalField   nonuniform List<scalar> 
67451
(
0.0001527272652
0.0001505407537
0.0001848931714
0.0002340106148
0.0002674443816
0.000223737215
0.0002084029237
0.0002492220942
0.000314124076
0.0003784858897
0.0004277296628
0.0001990922749
0.0001884579971
0.00017758432
0.0001668288323
0.0001572805315
0.0001556206303
0.000191014937
0.0002656447934
0.0002833795759
0.0002560158372
0.0002159741225
0.0002147780731
0.0002577982646
0.0003142711734
0.0003681238081
0.0003749231681
0.0003685019428
0.0003701367943
0.0003661971501
0.0003556584593
0.000339798075
0.0003240854213
0.0003139957856
0.0003108964891
0.0003054061237
0.0002509746207
0.000229430182
0.0002202123634
0.0002097898172
0.000196861931
0.0001870674071
0.0001726329377
0.0001622029361
0.0001584966151
0.000189485282
0.000269874294
0.0002504071143
0.0002446883074
0.0002236985508
0.0002028948845
0.0002261081626
0.000269857191
0.0003147347956
0.0003256179162
0.0003339553096
0.0003441936398
0.000342458272
0.0003322478237
0.0003171733352
0.0003056480489
0.0003028512404
0.0003046899224
0.000300543194
0.0002490651756
0.0002438987075
0.0002343979208
0.0002222403115
0.0002066342695
0.0001890895737
0.0001768045558
0.0001678938576
0.000163412083
0.0001965771157
0.0002987505591
0.0002532715641
0.0002456201286
0.000241681612
0.0002136940806
0.0002011099512
0.0002269095568
0.0002587565173
0.0002764343431
0.0002980005354
0.0003128760285
0.0003117813724
0.0003020130518
0.0002901170152
0.0002865940318
0.0002920284835
0.0002973812535
0.0002937899348
0.0002468402038
0.0002441425394
0.0002328865716
0.0002150844286
0.0001966731682
0.0001856983397
0.000181761966
0.000168567454
0.0001784251579
0.0002879957084
0.0002280135734
0.0002373139774
0.0002154869447
0.0001915266322
0.0001911501766
0.0002074576699
0.0002317000992
0.0002379123337
0.0002574269411
0.0002728641484
0.0002744876831
0.000268830663
0.0002639135912
0.0002680334835
0.0002797545486
0.0002873808883
0.0002844818044
0.0002435565891
0.0002395389896
0.0002298777275
0.0002160457882
0.0002009525742
0.0001989815623
0.0002169343116
0.000184983281
0.0001733040471
0.0001923693636
0.0001743168242
0.0001905292791
0.0001853480572
0.0001843462774
0.0002055210034
0.0002449203204
0.0003025481131
0.0002620220409
0.0002282173873
0.0002318126466
0.0002340809271
0.0002342263326
0.0002391605128
0.0002511264493
0.0002655014215
0.0002745383587
0.0002729177614
0.0002391012063
0.0002225378339
0.0002208117427
0.0002167693195
0.0002085194045
0.0001955067574
0.0001963846515
0.0001790949213
0.0001801992533
0.0001853314692
0.0001783348183
0.0001720150639
0.0001818576072
0.0002171934276
0.0002748913148
0.0003271950117
0.0003832734796
0.0003581707614
0.0002990609626
0.0002338288799
0.0002064036286
0.0002037998535
0.0002157613624
0.000233291829
0.0002494105933
0.0002591333859
0.0002595960874
0.0002334381994
0.000240580348
0.0002448697383
0.0002427872974
0.0002344078996
0.0002196368784
0.0001994778198
0.0001801363091
0.0001669827112
0.0001696897729
0.0001649534636
0.0001753704735
0.0002257134417
0.0002998173048
0.0003688690079
0.0004189033535
0.0004540020414
0.0004340807738
0.0003848032435
0.0003168016968
0.0002453657019
0.00020319726
0.0001992785719
0.0002144258588
0.000231537268
0.0002426624503
0.0002455920847
0.0002265636367
0.0002776896917
0.000280303349
0.0002749446161
0.0002639208444
0.0002479098703
0.0002270683838
0.000203333577
0.0001789450923
0.0001608896191
0.0001659496815
0.0002405939776
0.0003205481027
0.0003923812673
0.0004464077405
0.0004820712753
0.0005043400525
0.0004922205656
0.0004582123539
0.0004139793946
0.0003637549264
0.0003040990902
0.0002424326936
0.0002100087514
0.0002133599246
0.0002251181666
0.0002309087308
0.0002182635289
0.0003182052234
0.0003181810247
0.0003088759641
0.0002939273104
0.000275614419
0.000254555806
0.0002303504308
0.0002027728308
0.000175388896
0.0001571247752
0.0002241378273
0.0003223080985
0.0004034736053
0.0004629755455
0.0004955810347
0.0005094153598
0.0004972854175
0.0004640690843
0.0004169610715
0.0003630787286
0.0003021000682
0.000242265283
0.000205481819
0.0001998065058
0.0002084428302
0.0002154864315
0.0002080475611
0.0003592837477
0.0003583137959
0.0003455651995
0.0003259574594
0.0003031731483
0.0002791316153
0.0002540124441
0.0002266661243
0.0001964740647
0.000169648639
0.0002180292435
0.000318842376
0.0003973157981
0.0004558730501
0.0004881289392
0.0004978929171
0.0004834556239
0.0004482009638
0.000399142131
0.0003426772131
0.0002824091477
0.0002313003487
0.0002025671087
0.0001938581799
0.0001957358656
0.0002001114205
0.0001952873889
0.0004019122969
0.0004016863999
0.0003871647741
0.0003633440709
0.0003350198569
0.0003058150716
0.0002773247216
0.0002489516387
0.0002187110148
0.0001871559036
0.0001780101737
0.0002817706116
0.0003652673017
0.0004275065266
0.0004640119307
0.000471346363
0.0004541217131
0.0004171418568
0.0003677436631
0.0003115035808
0.0002572372274
0.0002190774661
0.000201023843
0.0001935015836
0.0001894522325
0.000187580669
0.0001804666118
0.0004419689431
0.0004434597346
0.0004293576004
0.0004038620238
0.0003718730873
0.0003374509173
0.0003037041722
0.0002721682367
0.0002416299455
0.0002092887305
0.0001795433511
0.0002109394131
0.0003099938302
0.0003782240438
0.0004239506082
0.0004306131094
0.000412156236
0.00037535749
0.0003265855546
0.0002742277143
0.0002321678984
0.0002089361781
0.0002001065243
0.0001947412557
0.0001877907553
0.0001801179174
0.0001664277835
0.0004689641837
0.0004726506207
0.0004608922442
0.0004366089282
0.0004048002301
0.000369582958
0.0003336219314
0.0003001502203
0.0002695848866
0.0002380897174
0.0002026817846
0.0001830304875
0.0002344421673
0.0003152517065
0.0003723655841
0.0003803198897
0.0003618777486
0.0003255440673
0.0002793594406
0.0002385859595
0.0002128246699
0.0002021677328
0.0001992737589
0.0001952803693
0.0001874876478
0.0001767954706
0.0001565731782
0.000483029163
0.00048855324
0.000479492135
0.0004586573144
0.0004319506375
0.000402304498
0.0003694367091
0.0003354494025
0.0003038980282
0.0002730456387
0.000236021641
0.0001964589127
0.0001912748452
0.0002458422539
0.0003130444135
0.0003239095325
0.0003055723962
0.0002715308465
0.0002352884813
0.00021069917
0.0001999395584
0.0001972766488
0.0001973207784
0.0001941184884
0.0001865321736
0.0001751320802
0.0001513423048
0.0004754485726
0.0004798889991
0.0004699667591
0.0004490673579
0.0004219827255
0.0003896802498
0.0003582549952
0.0003421518444
0.0003337542388
0.000315537169
0.0002839315209
0.0002432721313
0.000204676401
0.0002004483023
0.0002491143798
0.0002623251917
0.0002469809796
0.0002217849131
0.000201657215
0.0001927079619
0.0001912172689
0.0001923931666
0.0001935461857
0.0001909388207
0.0001841738986
0.0001732612464
0.0001485885068
0.0004561267617
0.0004592774739
0.0004488086694
0.0004284082673
0.0004012938504
0.0003678984752
0.0003399254285
0.0003325568398
0.0003305224906
0.0003176591293
0.0002927932473
0.0002590639117
0.0002199718645
0.0001896720757
0.000199127566
0.0002078056021
0.000199976909
0.0001881923236
0.0001817998626
0.0001814651754
0.0001838821224
0.0001865661282
0.0001880249964
0.0001861187922
0.0001803011032
0.0001702779029
0.0001461909479
0.0004292433106
0.0004317589689
0.0004216137055
0.0004021571975
0.0003753699684
0.0003427768305
0.0003184942714
0.0003148999656
0.0003152289147
0.0003049536643
0.0002831372572
0.0002527433872
0.0002173667439
0.0001856421983
0.0001758076028
0.0001805579468
0.0001831896115
0.000181867463
0.0001793924999
0.0001781894481
0.0001788314159
0.0001804635085
0.0001815042149
0.0001799770609
0.0001749467673
0.0001658425442
0.0001429883913
0.0003987205691
0.0004012383047
0.0003917661104
0.0003731311299
0.0003471579719
0.0003172376144
0.0002959579185
0.0002920384618
0.0002918152562
0.000282739498
0.0002631168197
0.0002358207977
0.0002052228427
0.0001791388187
0.0001693784442
0.0001797277375
0.0001929778905
0.0001975333351
0.0001936271736
0.0001863716024
0.0001801129725
0.0001766581572
0.0001751054123
0.0001729459978
0.0001682515862
0.0001599000862
0.0001385107324
0.0003675780663
0.0003694385027
0.0003603748249
0.0003426576139
0.0003187882044
0.0002932046136
0.0002747378079
0.0002685288166
0.0002657319572
0.0002565366542
0.0002389417469
0.0002154288256
0.0001910228532
0.0001723150994
0.0001677971446
0.0001853341495
0.0002062583066
0.00021515783
0.0002111334309
0.0001995344908
0.0001868287249
0.0001765409718
0.0001700517559
0.0001656532148
0.0001605021044
0.0001525691478
0.0001326684266
0.0003394210252
0.0003385762597
0.0003294136968
0.0003133797079
0.0002933173211
0.0002724971382
0.000258542933
0.0002480975465
0.0002415942784
0.0002314265841
0.0002156819319
0.0001968821357
0.0001794097803
0.0001672937744
0.0001662755751
0.0001859553503
0.0002104744634
0.0002223085536
0.0002199265098
0.0002077919052
0.0001921045161
0.0001772100248
0.0001659294195
0.0001584246494
0.0001520589934
0.0001441440867
0.000125662147
0.0003189862084
0.0003144317745
0.0003046268095
0.0002907201639
0.0002743714234
0.000257243582
0.0002426512779
0.000231542105
0.0002219927358
0.0002108036492
0.0001973837799
0.0001837275953
0.0001722329975
0.0001645451693
0.0001644300789
0.0001812209964
0.0002045981295
0.0002179928594
0.0002175765142
0.0002067705292
0.0001913070458
0.0001750702751
0.0001612414407
0.0001512669283
0.0001434395354
0.0001352242317
0.0001180112512
0.0003084402686
0.0003009325761
0.0002902538436
0.0002773170963
0.0002629337324
0.000247502138
0.0002329580639
0.00021999619
0.0002082865478
0.0001970415242
0.0001863082927
0.0001768427065
0.000169154592
0.0001637032505
0.0001630810085
0.0001746457313
0.0001933257387
0.0002059112324
0.0002068789819
0.0001983463905
0.0001849449035
0.0001697598091
0.0001557967162
0.0001447123403
0.000135629552
0.0001268642788
0.0001105228218
0.0003025264883
0.0002939143717
0.0002828154906
0.0002699491774
0.0002560644818
0.0002408388707
0.0002261994736
0.0002123765272
0.0002001955625
0.0001899829874
0.0001816321835
0.0001747298705
0.0001688233728
0.000164123635
0.0001626176616
0.0001692025258
0.0001821175689
0.0001919198202
0.0001933509129
0.0001872387344
0.0001764478195
0.0001636215739
0.0001510771766
0.0001400072707
0.0001300512497
0.0001204486828
0.0001041082701
0.0002963555177
0.000287556062
0.0002763000886
0.0002633510252
0.0002494571694
0.0002367879672
0.0002221474802
0.0002076473679
0.0001959397159
0.0001872871681
0.0001807539669
0.0001751514862
0.0001697998614
0.0001650522126
0.0001626671534
0.0001657200662
0.0001736318712
0.0001804161942
0.0001817156953
0.0001774083245
0.0001692351819
0.0001590906247
0.0001484750541
0.0001380936742
0.0001277838824
0.0001171645333
9.968365074e-05
0.0002890401004
0.0002796559417
0.0002682129987
0.0002548397341
0.0002449945759
0.0003432613027
0.0002805197103
0.0002232447887
0.0001981114686
0.0001875649616
0.0001815846477
0.0001763814846
0.0001709452605
0.0001657467492
0.0001624636394
0.0001632480053
0.0001677835752
0.0001722448434
0.00017332793
0.0001704304299
0.0001644841791
0.0001567032821
0.0001480256946
0.000138833117
0.000128846864
0.0001173793651
9.768103907e-05
0.0002852505365
0.0002739009933
0.0002608858525
0.0002462181699
0.0002504271179
0.0005070562214
0.0003725322932
0.0002633909453
0.0002080253949
0.0001893274538
0.0001824530835
0.0001771288415
0.0001713580372
0.0001655557409
0.0001612927551
0.0001603733096
0.0001627188705
0.0001657256985
0.000166812653
0.0001651457429
0.0001611447802
0.0001555890603
0.0001490671708
0.0001416048444
0.0001327071348
0.0001214913572
9.818432617e-05
0.0002936448787
0.0002786754078
0.0002625982104
0.0002458029963
0.0002330166574
0.0003821552965
0.0002851036359
0.0002216496632
0.0001956017401
0.0001866925629
0.0001816444797
0.0001764191936
0.000170345277
0.000163960156
0.0001586760694
0.0001561586948
0.0001567360932
0.000158731275
0.0001600755826
0.0001597892291
0.0001579040316
0.0001547919081
0.0001506722544
0.0001451059754
0.0001371934968
0.0001258324809
0.0001013753932
0.0003081152205
0.0002899673838
0.000270825736
0.0002507247645
0.0002316197236
0.0002703707171
0.0002243626783
0.000199711664
0.0001893078923
0.0001838948916
0.0001792256656
0.0001738611051
0.0001675298248
0.0001606826074
0.0001544713538
0.0001504046509
0.0001492712281
0.0001503503618
0.0001521238937
0.0001534501866
0.0001538281679
0.0001530459988
0.0001509634611
0.0001468512454
0.0001395784843
0.0001279664873
0.0001021966588
0.0003093828537
0.0002916673479
0.0002719941072
0.0002510994102
0.0002304318956
0.0002216856198
0.0002025995427
0.0001908390574
0.0001837987886
0.0001787703833
0.000174003444
0.0001685828452
0.0001622389137
0.0001552549059
0.0001484671585
0.0001431137957
0.0001402957202
0.000140254401
0.0001421754281
0.0001447610847
0.0001468468302
0.000147610397
0.0001466905335
0.0001433913271
0.0001366120142
0.000124892349
9.828189775e-05
0.0002809607329
0.0002672990667
0.0002507512941
0.0002324732455
0.0002138909942
0.0001986674811
0.0001861562424
0.000177244026
0.0001711562293
0.0001665250172
0.0001621730489
0.0001573475955
0.0001517255976
0.0001453736431
0.0001387195418
0.0001325171085
0.0001277866945
0.0001255484776
0.0001260902575
0.0001284233805
0.0001309086372
0.0001322501714
0.0001319872806
0.0001296200048
0.000124131973
0.0001134727391
8.836677025e-05
0.000416998162
0.0003751644437
0.0004771136517
0.0009062241
0.0009445825554
0.0008261142275
0.0006062284765
0.0006407258524
0.0008628381047
0.0009441507757
0.001078804941
0.000822908657
0.000729053509
0.0006501049412
0.0005760442887
0.0004885024652
0.0004358480952
0.0006440529259
0.001485164493
0.001193106817
0.001041407623
0.0008329307462
0.0007534520294
0.0008660081121
0.0009362704666
0.001013659122
0.001120799853
0.001164872602
0.001163361198
0.00114600106
0.001122212014
0.001104976159
0.001093993462
0.00109388097
0.001068047428
0.0009054818708
0.000251652047
0.001161399567
0.001061012966
0.0009591304073
0.000831374134
0.0007721077368
0.0006862522194
0.0005709978965
0.0005069020532
0.0007914896159
0.001516774561
0.001330918583
0.001146046133
0.0009914949777
0.0007973446934
0.0007246012156
0.0008607508575
0.001054054293
0.001100441162
0.001113860967
0.001109867071
0.00109962803
0.001085814137
0.001079322841
0.001076332505
0.00107478439
0.001044309504
0.0008787419657
0.0002490357988
0.001257194691
0.001177115635
0.001073981966
0.0008959971684
0.0007433532817
0.0007040174004
0.0006343578297
0.0005895824756
0.0009259957383
0.001518505678
0.001362014455
0.00116068617
0.001019712291
0.0008297575408
0.0006508185395
0.000691780886
0.000879810156
0.001033951198
0.00105280316
0.001036608032
0.001003685234
0.0009755973935
0.0009848780832
0.001009331356
0.001024755807
0.001000924192
0.00083807069
0.0002449913165
0.001216979028
0.00113195646
0.0009601158891
0.0007776842472
0.0007939181987
0.0008001080494
0.000722668339
0.001016793262
0.001706321469
0.001317616504
0.001033353396
0.0009023512378
0.0006816468161
0.0006210120649
0.0006844777193
0.0007749847253
0.0009425758452
0.000975406956
0.0009291818165
0.0008078676981
0.000737836584
0.0007724632507
0.0008697429777
0.0009307565088
0.0009261228839
0.0007769368006
0.0002388103013
0.001173716836
0.00107108791
0.0009163213203
0.0007879996533
0.000929424421
0.001053480786
0.0008895331068
0.0009169796257
0.001186531137
0.0007767462081
0.0006789809549
0.0006082015394
0.0005918430705
0.0006301665431
0.0007345537244
0.0007675899054
0.0007855623132
0.0007782038026
0.0007236815011
0.0006124827589
0.0005533643942
0.0005928308519
0.0007026895747
0.0008058589063
0.0008257584519
0.0006992202955
0.0002306659303
0.001017138766
0.0009074969436
0.0007831892619
0.0006859849806
0.000731957974
0.0008429492064
0.0008171316123
0.0008243364326
0.0007698187037
0.0006398011456
0.0005084236012
0.000517341228
0.0005905768397
0.0006951660772
0.0008959390647
0.000920120855
0.0008567747046
0.0006912652424
0.0006110376261
0.0005362151231
0.000491780563
0.000506272158
0.0005693347529
0.0006639977766
0.0007084834901
0.0006087663329
0.0002207608384
0.0008505510533
0.0007987930011
0.0007279789775
0.0006471340364
0.0005848372559
0.0005533361411
0.0005320413674
0.000550865708
0.0005735309616
0.0005851491335
0.0004913103372
0.0006233337464
0.0007081956783
0.0009561711665
0.001119897797
0.001160966063
0.001104005055
0.0009430010057
0.0007393437253
0.0006066437646
0.0005445397721
0.0005144238707
0.0005035418206
0.0005390271465
0.0005778427757
0.0005070613156
0.0002094446704
0.0008647740981
0.0008515155874
0.0008094264194
0.0007243044157
0.0006151752676
0.0005159662479
0.000462818951
0.0004402854554
0.0004281734306
0.0004011397836
0.0004035477044
0.0006315554067
0.0008991974253
0.001159780226
0.001315148622
0.001342879608
0.001280303267
0.001110960904
0.0008950843064
0.0007406561806
0.0006184858683
0.0005472509764
0.0004977729681
0.0004738491609
0.0004728867336
0.0004123055377
0.0001973383252
0.0009446675578
0.0009273213902
0.0008808471527
0.0008060818291
0.0007010267135
0.0005777539119
0.0004940226214
0.0004471770258
0.0004173282726
0.0003888110485
0.0004104217009
0.0006402157341
0.001032695733
0.001302436606
0.001432430031
0.0014431349
0.001372370524
0.001207164947
0.0009888013466
0.0008289593657
0.0007232185327
0.0006404755727
0.0005668327347
0.0004930670175
0.0004326017728
0.0003506505991
0.0001848254251
0.001068747418
0.001042278549
0.0009828840402
0.0008943782161
0.0007897912437
0.0006726575313
0.0006562870509
0.0004878401668
0.0004393750211
0.0004015938346
0.0003932179507
0.0006003132267
0.001043876176
0.00132283691
0.001446499525
0.001452142078
0.001367823952
0.001191776777
0.0009792620448
0.0008422455113
0.0007629244577
0.0007121132621
0.000654351278
0.0005661371989
0.0004543035393
0.0003306720066
0.0001721794296
0.001204781938
0.001174163339
0.001105352996
0.001000170538
0.00087676452
0.0007524773928
0.0006202636219
0.0005111687991
0.0004556105128
0.0004199425367
0.0003973522601
0.0004953873729
0.0009109199617
0.001213150881
0.001349672893
0.001356633424
0.001257886281
0.001075114436
0.000896479354
0.0008087995093
0.0007737547883
0.0007621355288
0.0007311041258
0.0006512723028
0.0005112887461
0.0003450415187
0.0001605422169
0.001308535967
0.001279279388
0.001207064909
0.001091550553
0.0009592728514
0.0008248457211
0.0006796971888
0.000569537711
0.0004993209963
0.0004505175275
0.0004159291316
0.0004303934189
0.0006445974881
0.0009793719571
0.001142303822
0.001160164694
0.001061983963
0.0009071526714
0.0008025717953
0.0007688887346
0.0007788174954
0.0007933795569
0.0007794139389
0.0007141531686
0.0005702831662
0.0003773228608
0.0001521167606
0.00135509703
0.001337339561
0.001272073321
0.001158168444
0.001029420804
0.0009187678219
0.0008044634334
0.0006948949286
0.000603973398
0.0005185273617
0.0004477792764
0.000419456491
0.0004775023031
0.0007028068393
0.0008753676857
0.0009145651035
0.0008430788475
0.0007452372314
0.0007648050062
0.0008003032892
0.0008011390794
0.0008094972828
0.0007944329841
0.000742139114
0.0006096404335
0.000409185415
0.0001479875264
0.001353631534
0.001345617135
0.001289886591
0.001186685227
0.001090413231
0.00104443885
0.001020692556
0.0009688995871
0.0008567879854
0.0007059411078
0.0005548540552
0.000458236329
0.0004368796466
0.000513270644
0.0006491704527
0.0006961292992
0.0006555086532
0.0006150678523
0.00065941271
0.0007174692209
0.0007615585737
0.000787369665
0.0007798095681
0.000739610331
0.0006228270379
0.0004280895995
0.0001466386827
0.001333184327
0.00132212957
0.001267779784
0.001177033512
0.00111065812
0.001105362706
0.001107499739
0.001063007277
0.0009697350284
0.0008367504745
0.0006866092818
0.0005332460497
0.0004493675739
0.0004510748939
0.0005008991909
0.0005429450057
0.0005442632659
0.0005568129614
0.0006093494089
0.0006686835788
0.000721578405
0.0007529055037
0.0007524511547
0.0007184792658
0.0006124840422
0.0004295320001
0.0001456910154
0.001277569343
0.001255041162
0.001199277689
0.001124712958
0.001081880647
0.00109351547
0.001107493622
0.001075110135
0.0009990028547
0.0008856338331
0.0007473475557
0.0006039227447
0.0004876450217
0.0004547849157
0.0004687654791
0.0005030322151
0.0005266828539
0.0005509624559
0.0005874033597
0.0006299465019
0.0006729949322
0.0007035085725
0.000709170864
0.000676685593
0.0005801693401
0.0004134898329
0.0001436029937
0.001201181363
0.001166737335
0.00111332121
0.001055476246
0.001021777674
0.001024795788
0.001038126382
0.001017484053
0.0009591619475
0.0008659002956
0.0007484158591
0.0006228989807
0.0005161526192
0.0004796894476
0.0004944038754
0.0005388045358
0.00057785253
0.0005978736725
0.0006056054468
0.0006127246829
0.0006267962438
0.0006425881679
0.0006450670195
0.000613997784
0.0005286546817
0.0003828208751
0.0001398244694
0.001131982166
0.001089394087
0.001040417156
0.0009929808769
0.0009538754152
0.0009297034926
0.0009311792606
0.000911107926
0.0008661043812
0.0007935106598
0.0007042564096
0.0006020007032
0.0005277970017
0.0005053810448
0.0005321634318
0.0005988897283
0.0006603859655
0.0006827874093
0.0006680263532
0.0006333315003
0.0006010072839
0.000583526239
0.0005704574041
0.0005379008861
0.0004646870833
0.0003428509054
0.0001344243516
0.001081972996
0.001034413906
0.0009870365569
0.0009407112457
0.0008910594943
0.0008515675062
0.0008390408262
0.0007980887385
0.0007571897044
0.0007038163592
0.0006358520923
0.0005716859515
0.0005332305082
0.0005254423439
0.0005611463711
0.0006471571235
0.0007244888808
0.000747194637
0.0007252077541
0.0006721490284
0.0005952622382
0.0005353971174
0.0004981422142
0.0004603380889
0.000398107552
0.0003005586051
0.0001278120649
0.001041150959
0.0009920468266
0.0009418200055
0.000886779381
0.0008199550217
0.0007842036604
0.0007938901446
0.0007014279022
0.000652470834
0.0006134720599
0.0005782164736
0.0005526495523
0.0005388088863
0.0005383828276
0.0005739693907
0.00066442469
0.0007460180098
0.0007739452324
0.0007510626443
0.0006910543043
0.0005898092767
0.0004956214362
0.00043589369
0.0003920239177
0.0003387301123
0.0002625823869
0.0001205859264
0.0009993203308
0.000949337658
0.0008951687459
0.0008272443206
0.0007512580337
0.0006901574294
0.0006620273714
0.0006044838449
0.0005764152514
0.0005596788039
0.000550815006
0.0005469469947
0.0005438233969
0.0005443878644
0.0005727228672
0.0006515434342
0.0007341404007
0.0007645768311
0.0007454018097
0.0006834957802
0.0005692620657
0.0004587696254
0.0003871247601
0.0003396623745
0.0002930479902
0.0002332357241
0.0001134288187
0.0009506986757
0.0009013164447
0.0008459008985
0.0007778643568
0.0007032526917
0.0006364042343
0.0005916277133
0.0005572269725
0.000543262169
0.0005415638935
0.0005455938331
0.0005484410812
0.0005464604145
0.0005449919401
0.000564300212
0.0006237114035
0.0006988836112
0.0007339739878
0.0007180005639
0.0006502975038
0.0005347871449
0.0004272254698
0.0003545840468
0.0003058583735
0.0002632745525
0.0002139432277
0.0001069991103
0.0009008749834
0.000852089571
0.0007967328885
0.0007330248839
0.0006651221875
0.0006151204513
0.000573192328
0.0005454931647
0.0005396872675
0.0005452596933
0.00055182564
0.0005522638324
0.0005462054898
0.0005415035945
0.0005538321061
0.0005954500204
0.0006527142007
0.0006865661225
0.0006718392194
0.0006040456543
0.0005036523954
0.0004098518474
0.0003406320764
0.0002904966415
0.0002488368238
0.0002037350415
0.0001017499226
0.000860087277
0.0008095300859
0.0007528896401
0.0006850443001
0.0006572587604
0.0006896699864
0.0006325824516
0.0005665041193
0.00055356453
0.0005585747192
0.0005612747054
0.0005546184884
0.0005416811523
0.0005327775599
0.0005406076924
0.0005710887715
0.0006131459376
0.0006392776431
0.0006264873219
0.0005709344481
0.000490664904
0.0004110387395
0.0003451335006
0.0002927481177
0.00024913819
0.0002039216555
9.819417888e-05
0.0008396810525
0.0007804630218
0.0007107886752
0.0006558773046
0.0008135023135
0.001175852495
0.00101533789
0.0006792407789
0.0005777941066
0.0005718351382
0.0005674613594
0.0005511278365
0.000529633109
0.0005152355532
0.0005191250653
0.0005435003425
0.0005773811574
0.0005998490532
0.0005929977507
0.000553383717
0.0004925130767
0.0004264053028
0.0003654040133
0.000311249835
0.0002658612801
0.0002330423833
9.59601393e-05
0.0008471896529
0.0007685661812
0.0006726964789
0.0005928043879
0.0008772601122
0.001515429854
0.001153556082
0.0007039541108
0.0005793218083
0.0005679288354
0.0005573224465
0.0005332783918
0.0005046543757
0.0004847069205
0.0004837488496
0.0005027526359
0.0005317240117
0.000554301962
0.000556707367
0.000535058971
0.0004954218705
0.0004474967941
0.0003981239839
0.0003469445271
0.0002953171562
0.0002467674133
9.387721346e-05
0.0008749680196
0.0007848295013
0.0006662607057
0.0005716079631
0.000665170083
0.001068205155
0.0008360486107
0.0005990155445
0.0005519061274
0.0005431823844
0.0005253898299
0.0004956010992
0.0004629026095
0.0004391020893
0.0004327880746
0.0004448459908
0.0004679918312
0.0004907442352
0.0005032194575
0.0005012347223
0.0004862682334
0.0004622993875
0.0004318767535
0.0003893321418
0.0003286192773
0.0002505220295
9.828597963e-05
0.0008924387667
0.0008011092335
0.0006717973376
0.0005639998497
0.0005366022133
0.0006162439529
0.0005613934058
0.0005066877566
0.0004958168092
0.0004855877471
0.0004647460212
0.0004349471519
0.0004037862534
0.0003800680371
0.000369833044
0.0003741868615
0.0003895521973
0.0004100021572
0.0004297643426
0.0004445209853
0.0004514668683
0.0004493158491
0.0004374076149
0.0004058558801
0.000342486674
0.0002505005512
9.935438673e-05
0.0008186601485
0.0007238272898
0.0006044230182
0.0005087435065
0.0004549504947
0.0004506197754
0.0004293957878
0.0004118834218
0.0004018363561
0.0003889153482
0.0003699320419
0.0003465037524
0.0003230190107
0.0003041969405
0.0002932413531
0.0002912439635
0.0002977426631
0.0003114835412
0.0003302728137
0.0003502906318
0.000366346377
0.0003739679872
0.0003708262638
0.0003478553021
0.0002948194877
0.0002177545145
9.483242675e-05
0.0002861705517
0.0002675886945
0.0002464841493
0.0002271922514
0.0002109740607
0.0002008044803
0.0001917118946
0.0001849934113
0.0001797883183
0.0001749135811
0.0001696258713
0.0001636465687
0.0001570741018
0.0001502654332
0.0001437312692
0.0001381057388
0.0001341978849
0.0001328711713
0.0001343913522
0.000137769397
0.0001411553413
0.0001429018375
0.0001422538406
0.0001380441218
0.0001287699207
0.0001133866342
8.410647762e-05
0.0008406852016
0.0007433363233
0.0007271177054
0.000995026314
0.001549444244
0.001434091205
0.001266759931
0.001140712211
0.001202768423
0.001242701655
0.00125946237
0.001353001074
0.00142221316
0.001430145485
0.001395540958
0.001365799459
0.001221945983
0.001111626294
0.0009982363799
0.0008807780205
0.0009024008657
0.001546183744
0.002228984722
0.001942097598
0.001552565779
0.001363116593
0.001316729341
0.001340403089
0.001316608876
0.001329123852
0.001371680516
0.001370742685
0.001344126104
0.001309366619
0.001274940044
0.001250507163
0.001237057839
0.001239604025
0.001211743985
0.001001917747
0.0002499396255
0.001773915312
0.001652399791
0.001513608326
0.001358003697
0.001266796621
0.001141133812
0.001012996621
0.001036519314
0.001686681115
0.002185974468
0.002019458345
0.001686226348
0.00149119103
0.001365194774
0.001315835752
0.001360390355
0.001385517691
0.001381572316
0.001366392782
0.001348845015
0.00133301545
0.001313654499
0.00129273439
0.001273748271
0.001262122656
0.001216352527
0.0009924487758
0.0002474573821
0.001837035686
0.001749682779
0.001635709108
0.001439651898
0.001275337585
0.001202485498
0.001137312369
0.001184013494
0.001805271214
0.002139032033
0.002024984932
0.001719266517
0.00151730419
0.001363865747
0.00124729394
0.0012753667
0.001363775758
0.001375403332
0.001358571469
0.001339235053
0.001318794658
0.001294337113
0.00127439537
0.001261839176
0.001251301773
0.001199037026
0.0009668998119
0.0002423166903
0.001781300507
0.00170704305
0.001519656397
0.001369454752
0.00137634033
0.001362918654
0.001305785574
0.001837202536
0.002179371057
0.001910235891
0.001539006018
0.001365298723
0.001237797899
0.001186096842
0.00124327213
0.001316347682
0.001358053188
0.001338337483
0.001296107581
0.001233563938
0.001170811931
0.001155441191
0.001174685608
0.001184412678
0.001139110633
0.0009123045576
0.0002338107911
0.001737161584
0.001648260914
0.001498847662
0.001426378755
0.001537164872
0.001572439271
0.001453112995
0.001737874367
0.001776799098
0.001445183325
0.001189095834
0.001116579951
0.001115170384
0.00114613051
0.001245920869
0.001268648504
0.001302993419
0.001285765206
0.001213746777
0.001105976656
0.001017245151
0.0009969238864
0.001031931032
0.001071083748
0.001040301363
0.0008303033954
0.0002225551922
0.001626005347
0.001513356261
0.001385885477
0.001320073952
0.00139634074
0.001435953659
0.001354139776
0.001376376513
0.001316039841
0.001129932123
0.0009953621339
0.001034823724
0.001087081741
0.001146568505
0.00122860942
0.001275467058
0.001296385406
0.001257282231
0.001176595581
0.001065454276
0.0009673724433
0.0009173713696
0.0009124645684
0.0009374726781
0.0009170603188
0.0007282431428
0.0002093187049
0.001460507494
0.001369099186
0.001263427513
0.00117107811
0.001132296797
0.001103699001
0.00104973198
0.001050455302
0.001042281882
0.001173175389
0.0009828974208
0.001128722734
0.00115480144
0.001258740274
0.001362436518
0.001397992998
0.001366491514
0.00128682696
0.001209999458
0.001118887087
0.001027904239
0.0009421093614
0.0008685587786
0.0008326035371
0.0007903553051
0.0006156251049
0.0001952188529
0.001347960703
0.001285299922
0.001205988722
0.001111162957
0.001013322482
0.0009274316998
0.0008783978939
0.000855822578
0.0008341596442
0.0008515752063
0.0008398878249
0.001057323684
0.001233292639
0.001406785906
0.001507444066