/*--------------------------------*- C++ -*----------------------------------*\
  =========                 |
  \\      /  F ield         | OpenFOAM: The Open Source CFD Toolbox
   \\    /   O peration     | Website:  https://openfoam.org
    \\  /    A nd           | Version:  8
     \\/     M anipulation  |
\*---------------------------------------------------------------------------*/
FoamFile
{
    version     2.0;
    format      ascii;
    class       surfaceScalarField;
    location    "1.7";
    object      phi;
}
// * * * * * * * * * * * * * * * * * * * * * * * * * * * * * * * * * * * * * //

dimensions      [1 0 -1 0 0 0 0];

internalField   nonuniform List<scalar> 
197859
(
1.16106201e-05
-4.350109885e-05
1.732072485e-05
-7.29574093e-06
-4.812287089e-05
2.05616669e-05
-1.891184385e-05
-4.082404408e-05
1.381883663e-05
-7.826379879e-06
-5.285398204e-05
-6.559482877e-06
-1.038264469e-06
-3.397696244e-05
-1.090535108e-05
-8.870922464e-06
-3.226348979e-05
3.582500334e-06
-2.396488841e-05
-2.304810911e-05
1.982413574e-05
-3.901952492e-05
-1.225919344e-05
1.507787949e-05
-3.595001664e-05
2.976186069e-06
-4.038644063e-06
-2.699600519e-05
1.68679652e-05
-1.219961967e-05
3.498862103e-05
-2.105181922e-05
5.063120444e-05
-3.653434179e-05
7.766608173e-06
4.282427515e-05
-3.763370092e-05
8.961821135e-06
3.503321939e-05
-3.956948604e-05
6.305191601e-06
2.450897395e-05
-4.077939066e-05
9.370732756e-06
9.323462187e-06
-4.350799249e-05
1.519338718e-05
-1.319213918e-05
-4.465016015e-05
1.904394648e-05
-2.451224036e-05
-3.835839455e-05
8.855390609e-06
1.128206936e-06
-3.70423442e-05
-4.145136174e-05
1.222687929e-05
-2.446876683e-05
-2.060590798e-05
9.932828302e-06
-2.231856363e-05
-7.649728128e-06
-5.347994688e-06
-1.64382766e-05
8.672073534e-06
-2.32464748e-05
-5.103784182e-06
1.074404052e-05
-2.170186851e-05
1.365094621e-05
-1.221848674e-05
-1.731922186e-05
2.608050868e-05
-1.359454388e-05
-1.239240006e-05
3.455174065e-05
-4.489364327e-06
-3.190104697e-06
3.820433356e-05
-7.042617057e-06
7.69474954e-06
3.382282582e-05
-1.414304901e-05
1.887145558e-05
3.342521256e-05
-2.122318544e-05
2.700731461e-05
3.482131756e-05
-2.317009078e-05
3.082532857e-05
3.716140003e-05
-2.107860973e-05
2.997649254e-05
3.679254758e-05
-1.68136805e-05
2.887210312e-05
3.990198909e-05
-1.254027085e-05
3.099259678e-05
3.967622873e-05
-1.028649956e-05
2.66328071e-05
3.353098581e-05
-1.083473241e-05
1.884143988e-05
3.01398278e-05
-9.803966014e-06
3.083362015e-05
-1.253475968e-06
5.671787878e-05
-3.169302241e-05
4.803205641e-07
5.29633538e-05
-3.332091052e-05
2.144010647e-06
4.614744836e-05
-3.391400467e-05
4.196334967e-06
3.627356808e-05
-3.425410745e-05
6.49512143e-06
3.477694317e-05
-3.046063026e-05
-7.611253534e-06
2.66274862e-05
-3.566420556e-05
3.035186255e-06
1.036186056e-05
-4.047928445e-05
1.323783235e-05
-1.53318762e-05
-3.915707291e-05
2.020161008e-05
-2.905593981e-05
-3.199157358e-05
7.357921878e-06
-2.063371385e-06
-3.206338993e-05
-3.197082243e-05
1.938628281e-05
-7.523241491e-06
-3.839446866e-05
1.501805674e-05
-1.338447542e-05
-4.564794862e-06
2.898624456e-06
-8.097350107e-06
3.77934964e-06
-1.497188489e-05
-9.924090163e-07
1.375999622e-05
-2.654661285e-05
1.319032474e-05
1.203609357e-05
-2.605733613e-05
2.448454407e-05
1.107321911e-06
-1.298537363e-05
3.015192045e-05
-8.671505833e-06
-1.158322092e-06
3.37692812e-05
-7.391382771e-06
7.617348377e-06
3.364839858e-05
-8.60058991e-06
1.706562449e-05
3.84668723e-05
-1.448905733e-05
2.309828457e-05
4.375387675e-05
-1.496375358e-05
2.501292761e-05
4.739381762e-05
-1.214452263e-05
2.253347497e-05
4.78033465e-05
-8.527416242e-06
2.133978289e-05
4.7664134e-05
-6.563209418e-06
2.261315922e-05
4.56851517e-05
-7.277560133e-06
2.141026547e-05
4.341101423e-05
-8.673431632e-06
1.636183315e-05
4.320348014e-05
-8.012971933e-06
4.623227596e-05
9.645215878e-07
5.42499192e-05
-5.496724509e-06
5.281290197e-05
-2.843929161e-05
-3.443930192e-06
4.984484779e-05
-3.002886966e-05
-9.163263488e-07
4.195111945e-05
-3.077880548e-05
4.419249189e-06
3.412943145e-05
-2.841198536e-05
5.773961376e-06
2.359610564e-05
-3.222508837e-05
7.09509044e-06
1.185056414e-05
-4.051673193e-05
1.178383967e-05
-9.632372222e-06
-3.600417886e-05
1.833081451e-05
-1.583067185e-05
-2.739603011e-05
1.603426787e-06
1.285844189e-05
-2.359538969e-05
-3.715682003e-05
2.328323008e-05
-5.01216926e-07
-1.744615385e-05
2.082908313e-05
-2.694147745e-06
-8.235366532e-06
1.41628372e-05
3.044976755e-06
-4.475180331e-06
2.762736189e-08
5.462873865e-06
7.680850034e-06
-1.673572194e-05
1.015585464e-05
1.979874826e-05
-2.171395226e-05
1.396426976e-05
1.549935586e-05
-1.465243315e-05
1.729460512e-05
5.796566145e-06
-3.347327674e-06
2.252078731e-05
-5.597709011e-08
7.498007894e-06
2.745942669e-05
-4.655839472e-06
1.729414095e-05
3.706959543e-05
-8.398404153e-06
2.229046347e-05
4.541357426e-05
-6.655506961e-06
2.235051639e-05
5.054121115e-05
-3.206696181e-06
1.894514302e-05
5.240774524e-05
-1.19793217e-06
1.659964178e-05
5.250580198e-05
-2.494816468e-06
1.671589203e-05
5.132546674e-05
-5.755433006e-06
1.667090509e-05
5.118516221e-05
-7.728414707e-06
1.38012263e-05
5.306931866e-05
-6.995901827e-06
5.769911732e-05
2.334333929e-06
5.110125388e-05
-2.017167036e-05
-7.954346956e-06
5.120495089e-05
-2.231836993e-05
-7.813483814e-06
4.481005703e-05
-2.542812553e-05
1.04501961e-06
3.538522528e-05
-2.764303705e-05
8.656741176e-06
2.464527384e-05
-2.66715225e-05
5.18719556e-06
1.561294585e-05
-3.190189568e-05
4.181587323e-07
-1.396503519e-05
-2.240635282e-05
1.598051762e-05
-2.683544537e-05
-2.10775644e-05
6.552009283e-06
3.127998682e-05
2.17198508e-05
-0.0001034353955
3.765067616e-05
8.509374601e-06
-1.538156914e-05
2.470250192e-05
1.499781323e-05
-4.743321039e-06
1.419821914e-05
1.230429974e-05
1.245493264e-06
-4.094069703e-06
9.049760302e-06
1.470616005e-05
-1.866879056e-05
5.586012598e-06
1.91454167e-05
-2.253128041e-05
1.260308308e-06
1.656732109e-05
-1.169121965e-05
-7.19385168e-06
1.364924154e-05
2.63775815e-06
2.231290233e-06
5.961204126e-06
1.193370249e-05
1.646985748e-05
1.694122704e-06
1.928231929e-05
2.987693219e-05
-1.556483928e-07
2.213798961e-05
3.991943099e-05
2.638643435e-06
2.03226024e-05
4.655400943e-05
5.802693938e-06
1.590944449e-05
5.101395092e-05
5.807042253e-06
1.300328835e-05
5.359591027e-05
1.816116866e-06
1.301140475e-05
5.453350655e-05
-3.216215503e-06
1.371378977e-05
5.62269011e-05
-5.74433846e-06
1.20873769e-05
5.984056585e-05
-5.145216075e-06
6.577900584e-05
4.007008636e-06
5.041804246e-05
-1.646956947e-05
-4.519091607e-06
4.975363956e-05
-1.961674122e-05
-2.036477981e-06
4.334185598e-05
-2.231844912e-05
3.302901193e-06
2.881435215e-05
-2.266655638e-05
9.551887212e-06
2.297192574e-05
-1.883208713e-05
-1.996209449e-06
3.315658329e-05
-8.098895273e-06
-3.398666812e-05
2.142847462e-05
-6.676425222e-06
-4.001485821e-06
4.336581029e-06
-8.324597186e-06
4.339454473e-06
2.261359007e-05
3.247082133e-05
-2.902857567e-05
1.908571363e-05
6.128670655e-06
5.908798408e-06
1.020301339e-05
1.637419898e-05
7.506716135e-06
1.385696018e-06
7.822668546e-06
1.329941623e-05
-1.051456073e-05
2.656944166e-06
1.829354554e-05
-1.735455486e-05
-5.205441429e-06
1.763216263e-05
-1.300684705e-05
-1.144124743e-05
8.354402512e-06
9.447769037e-08
-2.50341354e-05
4.739772936e-06
1.14176741e-05
-2.109522717e-05
1.200391524e-05
1.729317891e-05
-3.174729335e-06
1.376954691e-05
2.122295092e-05
1.499474388e-05
1.09526958e-05
2.133781074e-05
2.77601719e-05
1.204451547e-05
1.823903328e-05
3.644576569e-05
1.32070061e-05
1.397807118e-05
4.434344648e-05
1.093135261e-05
1.11868183e-05
5.082851554e-05
5.558460593e-06
1.104154081e-05
5.505931827e-05
-3.807961993e-07
1.18527837e-05
5.878387564e-05
-3.368535917e-06
1.080736029e-05
6.387403392e-05
-2.988412767e-06
7.089247352e-05
5.693502328e-06
5.237881696e-05
-2.262616147e-05
4.340278607e-06
5.238114436e-05
-2.557711102e-05
5.958776751e-06
4.83366743e-05
-2.680970911e-05
8.536491234e-06
3.81283208e-05
-2.450990702e-05
1.205247938e-05
2.857984849e-05
-1.884038891e-05
9.557485472e-06
2.762601901e-05
-3.127872641e-06
-4.016507782e-06
2.148982246e-05
-1.620596322e-06
1.080840212e-06
1.628770629e-05
3.284755102e-06
-6.406585807e-06
2.35225778e-05
1.699757256e-05
8.238900844e-06
1.485325247e-05
2.224200107e-06
1.257430041e-05
3.969984972e-06
8.25218779e-06
1.900563843e-05
-5.572909053e-06
-5.126748596e-06
2.249244018e-05
-1.495018908e-05
-6.541482677e-06
1.857572469e-05
-1.674722978e-05
-1.538163763e-05
1.197346631e-05
-5.895770585e-06
-1.870091059e-05
-3.591373891e-06
1.097329124e-05
-2.673604696e-05
-1.516658979e-05
2.321233849e-05
-2.948522328e-05
-3.848490874e-06
2.778104047e-05
-1.939683506e-05
1.165387181e-05
2.687555243e-05
-4.354741368e-06
2.025530271e-05
2.331809792e-05
1.039846565e-05
2.091935743e-05
1.874813115e-05
2.207948879e-05
1.893633428e-05
1.493419004e-05
3.375697855e-05
1.440041633e-05
1.217712414e-05
4.462926508e-05
8.956265957e-06
1.124500723e-05
5.28329088e-05
3.158434308e-06
1.132956795e-05
5.919770439e-05
-4.985023252e-07
1.01046605e-05
6.571916636e-05
-6.203471011e-07
7.36833739e-05
7.313641014e-06
4.629591919e-05
-3.393436084e-05
6.373962261e-06
5.006200703e-05
-3.53936919e-05
6.051215082e-06
5.063255816e-05
-3.43449888e-05
6.965445887e-06
4.737776982e-05
-3.047650305e-05
9.222068251e-06
4.100792222e-05
-2.471118269e-05
1.22412493e-05
3.570383727e-05
-1.391659015e-05
1.609332639e-05
2.634271552e-05
-9.292847067e-06
1.703375695e-05
1.569260003e-05
-8.79300132e-07
1.481456586e-05
1.209619463e-05
7.098981176e-06
1.349535741e-05
9.12461713e-06
6.172136522e-06
-9.772036858e-07
-6.261326842e-06
6.187742835e-06
1.7450436e-05
-1.996169878e-05
-3.147566689e-06
1.172059536e-05
-2.686005591e-05
-8.115422476e-06
8.471530345e-06
-2.198654048e-05
-1.386312589e-05
-6.39242758e-06
-1.258781946e-06
-1.416601521e-05
-2.526267462e-05
2.257522337e-05
-1.379786722e-05
-3.677190398e-05
3.820972537e-05
-1.54054954e-05
-2.971382617e-05
4.46724455e-05
-1.124962468e-05
-1.460950803e-05
4.113690008e-05
-3.363407325e-06
2.544601029e-06
3.127393545e-05
6.172756061e-06
1.408900453e-05
2.239313013e-05
1.385549019e-05
1.710508129e-05
1.753342748e-05
2.365372225e-05
1.496319731e-05
1.456855567e-05
3.593847652e-05
1.165587182e-05
1.278591787e-05
4.758687645e-05
7.028861319e-06
1.174529557e-05
5.719153348e-05
3.046975639e-06
9.819403609e-06
6.552074828e-05
2.124492197e-06
7.45958493e-05
8.907116764e-06
4.048277207e-05
-4.29917295e-05
1.447136906e-07
4.833926082e-05
-4.276464024e-05
-4.848514714e-07
5.308349364e-05
-3.963408218e-05
5.455156448e-07
5.390333098e-05
-3.453930333e-05
3.243556325e-06
5.026245016e-05
-2.832521465e-05
7.255407183e-06
4.423465808e-05
-2.097469868e-05
1.308626007e-05
3.584281213e-05
-1.69161974e-05
1.601531851e-05
2.348109247e-05
-9.166201523e-06
2.064884862e-05
1.005144859e-05
-1.657368355e-06
2.218618412e-05
-1.40184271e-05
4.645257712e-06
2.559688868e-05
-3.45395523e-05
6.613908059e-06
2.009448852e-05
-3.086905727e-05
1.775983095e-05
-2.45790879e-05
-3.64105955e-05
4.701891405e-06
-7.277353226e-06
-2.750051908e-05
1.595766058e-06
-2.436993768e-05
-1.452206436e-07
1.491573435e-06
-4.30132073e-05
3.090745854e-05
8.507519748e-06
-5.335798659e-05
5.374522629e-05
1.069610385e-05
-4.893903121e-05
6.7818999e-05
1.326150256e-05
-3.858449051e-05
7.227931963e-05
1.67890243e-05
-2.461227207e-05
6.820720231e-05
1.946191578e-05
-9.216499829e-06
5.537824321e-05
2.195512379e-05
4.729886746e-06
3.902555784e-05
2.655520513e-05
1.345174053e-05
2.572125695e-05
3.442835495e-05
1.481493529e-05
1.781667385e-05
4.410869985e-05
1.138325504e-05
1.349983545e-05
5.439846097e-05
7.110396293e-06
9.945191268e-06
6.38156545e-05
5.260218678e-06
7.397402723e-05
1.056749554e-05
3.835259484e-05
-4.829538328e-05
-7.820605191e-06
5.005700002e-05
-4.695918411e-05
-7.509207915e-06
5.830520716e-05
-4.237159371e-05
-5.510097838e-06
6.233005134e-05
-3.625562333e-05
-2.307995643e-06
6.181406803e-05
-2.994800842e-05
2.139251983e-06
5.70791071e-05
-2.39427692e-05
7.703558583e-06
4.883326734e-05
-2.132052698e-05
1.265074215e-05
3.593375264e-05
-1.308344401e-05
1.681701781e-05
2.131884578e-05
-7.097700338e-06
2.00552228e-05
1.539192174e-06
7.214805239e-07
2.370303247e-05
-2.318131185e-05
9.230605752e-06
2.21032675e-05
-3.453819191e-05
2.217657526e-05
6.93913778e-06
-3.639588578e-05
1.876208102e-05
-1.220363938e-05
-2.27744814e-05
2.033681648e-05
-3.23631986e-05
4.678177566e-06
2.312978258e-05
-4.909110042e-05
3.623428756e-05
3.334986382e-05
-5.639830426e-05
6.06801256e-05
3.821442139e-05
-5.196377322e-05
7.600679691e-05
3.90743826e-05
-4.113904757e-05
8.118827066e-05
3.789314893e-05
-2.628496462e-05
7.609011494e-05
3.596490898e-05
-1.14040883e-05
6.228341248e-05
3.459387763e-05
1.168764328e-06
4.479696739e-05
3.482671062e-05
9.215764468e-06
3.010365265e-05
3.713984081e-05
1.198263909e-05
2.046614816e-05
4.225213235e-05
1.149486108e-05
1.448596619e-05
5.086790013e-05
9.511514451e-06
9.723776306e-06
6.039914798e-05
8.179454903e-06
7.140098535e-05
1.229757057e-05
3.897440046e-05
-4.892812921e-05
-1.649218028e-05
5.41485093e-05
-4.714267651e-05
-1.49899896e-05
6.492268781e-05
-4.168148992e-05
-1.146372352e-05
7.030811055e-05
-3.437402981e-05
-7.266541975e-06
7.012457453e-05
-2.648835834e-05
-3.275759168e-06
6.336902964e-05
-1.971087911e-05
2.524209627e-06
6.623139925e-05
-1.219757587e-05
-1.198614532e-05
5.10132283e-05
-1.086427644e-05
1.299946414e-05
3.296891824e-05
-7.03447768e-06
1.798102856e-05
9.307315735e-06
-8.566020767e-08
2.446857538e-05
-1.720880674e-05
9.881528671e-06
2.586493169e-05
-3.063036463e-05
2.389121535e-05
1.17064607e-05
-3.134221421e-05
3.168019799e-05
-1.220679911e-05
-1.632201167e-05
3.88374836e-05
-3.352118317e-05
1.001443515e-05
4.517287712e-05
-4.837954672e-05
3.930975256e-05
5.616576442e-05
-5.211095311e-05
6.264800787e-05
6.176937514e-05
-4.689275907e-05
7.648912984e-05
6.130515183e-05
-3.607127987e-05
7.969795959e-05
5.650561267e-05
-2.182045086e-05
7.345688167e-05
5.016990424e-05
-7.962872837e-06
6.047340491e-05
4.524422013e-05
2.334285048e-06
4.580724661e-05
4.216087105e-05
7.333161429e-06
3.317061611e-05
4.123303914e-05
8.544560884e-06
2.347367955e-05
4.299300629e-05
8.957143171e-06
1.599167314e-05
4.872454413e-05
9.626403375e-06
9.575269062e-06
5.659118764e-05
1.022537875e-05
6.697410622e-05
1.400314875e-05
4.111202386e-05
-4.365253836e-05
-2.660597943e-05
6.018477173e-05
-4.199883e-05
-2.421598331e-05
7.433088522e-05
-3.716443161e-05
-1.866262544e-05
8.292098341e-05
-3.055815616e-05
-1.240548623e-05
8.554290825e-05
-2.322974367e-05
-5.880085509e-06
8.28256816e-05
-1.703536261e-05
4.226145522e-08
7.728317398e-05
-1.128618917e-05
4.631739493e-06
6.479239105e-05
-1.030198136e-05
1.192896744e-05
4.797066528e-05
-7.624490213e-06
1.741203232e-05
2.640199624e-05
-1.130002611e-06
2.26131895e-05
-1.253701981e-06
9.295494719e-06
2.824183951e-05
-2.23187535e-05
2.563218813e-05
1.932411096e-05
-2.566703401e-05
3.899360679e-05
-3.965082317e-06
-1.101994693e-05
5.080766662e-05
-2.661714023e-05
1.39250777e-05
6.133375131e-05
-4.110561534e-05
3.980660762e-05
7.306596909e-05
-4.278129517e-05
5.990923894e-05
7.847890138e-05
-3.68115731e-05
7.051314836e-05
7.656802047e-05
-2.586600521e-05
7.200651599e-05
6.889083934e-05
-1.387749808e-05
6.616247052e-05
5.973476818e-05
-3.71960274e-06
5.510953891e-05
5.297076383e-05
3.327849907e-06
4.377594029e-05
4.824086323e-05
5.255113331e-06
3.423380087e-05
4.579623549e-05
4.980390332e-06
2.605814019e-05
4.571000503e-05
5.460021932e-06
1.814731453e-05
4.876635018e-05
7.870307423e-06
1.000026262e-05
5.397959986e-05
1.075988232e-05
6.174450735e-05
1.523108404e-05
4.267827508e-05
-2.950757053e-05
-3.956327013e-05
6.549831538e-05
-2.811388339e-05
-3.670434247e-05
8.267297804e-05
-2.515421462e-05
-2.918428432e-05
9.370587727e-05
-2.139485221e-05
-2.0195625e-05
9.807367227e-05
-1.681070168e-05
-1.078627317e-05
9.654953675e-05
-1.323550757e-05
-2.275132251e-06
9.170159733e-05
-1.123996556e-05
4.802178859e-06
8.098385694e-05
-1.107925092e-05
1.149563061e-05
6.611343195e-05
-9.327801398e-06
1.657436747e-05
4.683950063e-05
-3.161760548e-06
2.130628323e-05
2.159664152e-05
8.375109852e-06
2.616379643e-05
-3.337126512e-06
2.402991362e-05
2.653655035e-05
-1.410121939e-05
4.005597435e-05
9.70223697e-06
-4.509818839e-06
5.518655443e-05
-1.396975991e-05
1.644271785e-05
7.041623409e-05
-3.003443959e-05
3.753517102e-05
8.259886064e-05
-3.062466811e-05
5.3426084e-05
8.669366412e-05
-2.410484466e-05
6.038368803e-05
8.312710763e-05
-1.351562569e-05
5.987917538e-05
7.307421931e-05
-3.677308318e-06
5.551778873e-05
6.163363709e-05
2.464723085e-06
4.76007427e-05
5.654784188e-05
4.342117766e-06
4.008932195e-05
5.240751214e-05
3.346741575e-06
3.374928909e-05
5.000977354e-05
2.128278242e-06
2.767462401e-05
4.922207895e-05
2.564208366e-06
2.035094322e-05
5.042252787e-05
5.669004304e-06
1.114620365e-05
5.317315293e-05
1.001262087e-05
5.732621856e-05
1.556590063e-05
4.306186009e-05
-2.898387744e-06
-5.417756267e-05
6.77327179e-05
-1.488369269e-06
-5.129572697e-05
8.58947203e-05
-5.204550178e-07
-4.27951766e-05
9.852049145e-05
3.145018932e-08
-3.405150887e-05
0.0001040155302
-7.460978718e-07
-2.155908354e-05
0.0001044216921
-3.473545171e-06
-1.016742223e-05
0.000100454643
-7.463721121e-06
1.915836465e-07
9.179838267e-05
-1.090535536e-05
8.483296013e-06
7.945294389e-05
-1.07843973e-05
1.380301639e-05
6.305219012e-05
-4.990834507e-06
1.823080698e-05
4.196897531e-05
6.513228378e-06
2.294604848e-05
1.869015505e-05
2.103670439e-05
2.627294271e-05
1.129728127e-06
3.632725263e-05
2.129003888e-05
2.857378428e-06
5.240687253e-05
1.052903451e-06
1.790977631e-05
7.183832484e-05
-1.647361239e-05
3.276111843e-05
8.48738002e-05
-1.712535638e-05
4.308744937e-05
8.825033707e-05
-1.188190458e-05
4.506223033e-05
8.493946992e-05
-3.785962488e-06
4.292477297e-05
7.809505172e-05
-2.881488404e-06
4.76044047e-05
7.240835828e-05
-1.545279737e-05
4.239551647e-05
6.42308822e-05
-2.47163787e-06
3.717827117e-05
5.858577764e-05
-9.590373355e-07
3.275894652e-05
5.497281858e-05
-5.41833007e-07
2.827296867e-05
5.312286747e-05
5.869394518e-07
2.18869859e-05
5.282577264e-05
3.984376211e-06
1.253048465e-05
5.369370278e-05
8.837522972e-06
5.4803889e-05
1.505435936e-05
4.470970922e-05
2.889296712e-05
-6.225394768e-05
7.169987486e-05
2.976492107e-05
-5.824271571e-05
9.180293433e-05
2.870154361e-05
-4.93243339e-05
0.000105087254
2.59902342e-05
-3.924236044e-05
0.0001112507938
2.101771098e-05
-2.792655285e-05
0.0001123044913
1.336792484e-05
-1.789422044e-05
0.0001089784282
4.907395863e-06
-9.043952329e-06
0.0001007073934
-2.259704388e-07
-2.407134943e-06
8.75674151e-05
5.533455525e-08
2.301491223e-06
7.112510867e-05
4.799942482e-06
6.652774705e-06
5.236679723e-05
1.258481878e-05
1.268794673e-05
3.25200095e-05
2.163049095e-05
1.925419044e-05
1.506390702e-05
3.170711679e-05
2.207739172e-05
1.04257084e-05
4.419486876e-05
1.285132847e-05
1.873636211e-05
6.562189672e-05
-2.093101472e-06
2.836037333e-05
7.87791565e-05
-3.528221948e-06
3.476187715e-05
8.117817517e-05
6.718930699e-07
3.533557899e-05
7.786500613e-05
6.50211812e-06
3.448664535e-05
7.352715088e-05
5.418677051e-06
3.559839607e-05
6.94451266e-05
1.853694632e-06
3.401161657e-05
6.444674717e-05
1.37336522e-06
3.210503073e-05
6.04040487e-05
9.044341779e-08
3.016501809e-05
5.751667182e-05
-6.018872783e-07
2.740458379e-05
5.568012141e-05
2.04988865e-07
2.220613677e-05
5.472701077e-05
3.298919818e-06
1.341657825e-05
5.453493262e-05
7.949983053e-06
5.39560134e-05
1.426608595e-05
4.687335285e-05
5.473106507e-05
-5.781653046e-05
7.474172401e-05
5.549180671e-05
-5.359446719e-05
9.50831915e-05
5.295276288e-05
-4.459189483e-05
0.0001070373594
4.820231043e-05
-3.416542901e-05
0.0001091478383
4.158182168e-05
-2.267368682e-05
0.0001019956667
3.328368148e-05
-1.276250465e-05
8.944473925e-05
2.486531972e-05
-7.405777981e-06
7.826381141e-05
1.968048372e-05
-8.72424035e-06
7.092419238e-05
1.900121036e-05
-1.160493333e-05
6.503892562e-05
2.07730287e-05
-1.008647761e-05
5.745358573e-05
2.336806341e-05
-3.196564187e-06
4.583811784e-05
2.63424857e-05
6.904799604e-06
3.089449104e-05
3.079428979e-05
1.585775305e-05
1.997272471e-05
3.813615998e-05
1.69817476e-05
2.045461991e-05
5.530312718e-05
9.83814383e-06
2.516160445e-05
6.656329279e-05
7.510156426e-06
2.818489903e-05
6.876703881e-05
9.389165851e-06
2.786945018e-05
6.712340248e-05
1.105846242e-05
2.765925132e-05
6.585584378e-05
7.883153364e-06
2.84942228e-05
6.441727946e-05
4.194546572e-06
2.853949172e-05
6.231198039e-05
2.091468639e-06
2.825243365e-05
6.011913237e-05
5.738984163e-07
2.763003188e-05
5.827871761e-05
-1.37800088e-07
2.59119827e-05
5.680834049e-05
5.91599771e-07
2.161362031e-05
5.569106966e-05
3.336018822e-06
1.357885721e-05
5.50243189e-05
7.547058893e-06
5.39021428e-05
1.363439659e-05
4.95988286e-05
7.373923485e-05
-4.946985131e-05
7.592733145e-05
7.489558803e-05
-4.573148712e-05
9.458582256e-05
7.167084723e-05
-3.737574138e-05
0.0001043356066
6.57737534e-05
-2.732033265e-05
0.0001039023081
5.848878216e-05
-1.647265979e-05
9.419220806e-05
5.056901936e-05
-7.574085882e-06
8.122164314e-05
4.285389764e-05
-5.016773892e-06
7.268981949e-05
3.742682445e-05
-9.213215032e-06
7.034154212e-05
3.464207017e-05
-1.329123808e-05
7.008669383e-05
3.351621663e-05
-1.248698232e-05
6.732151982e-05
3.314130627e-05
-7.006720658e-06
5.913023629e-05
3.308667344e-05
1.448435796e-06
4.548546245e-05
3.394280526e-05
1.049758863e-05
3.122316218e-05
3.691290999e-05
1.548686868e-05
2.508809122e-05
4.668447302e-05
1.475504584e-05
2.47204256e-05
5.413188577e-05
1.280040869e-05
2.51032777e-05
5.598252705e-05
1.240303301e-05
2.447869748e-05
5.607578738e-05
1.16736363e-05
2.448205485e-05
5.715260509e-05
8.701451799e-06
2.502724685e-05
5.81548298e-05
5.718894897e-06
2.546460578e-05
5.848522799e-05
3.391145284e-06
2.570859983e-05
5.812367728e-05
1.753221258e-06
2.556106244e-05
5.743520997e-05
9.927816676e-07
2.427945971e-05
5.651182686e-05
1.579825218e-06
2.051377798e-05
5.553212684e-05
3.926311355e-06
1.315813841e-05
5.475974185e-05
7.62188842e-06
5.377579047e-05
1.328615605e-05
5.24069871e-05
8.555480048e-05
-3.894041438e-05
7.570554372e-05
8.739322502e-05
-3.579535526e-05
9.182111715e-05
8.414424282e-05
-2.85880624e-05
9.957437717e-05
7.784068602e-05
-1.981920441e-05
9.82610147e-05
7.024216618e-05
-1.043893869e-05
8.959827344e-05
6.248569957e-05
-3.252762074e-06
7.979696248e-05
5.506372014e-05
-2.407325304e-06
7.401094739e-05
5.049259307e-05
-7.278514823e-06
7.308449118e-05
4.716609214e-05
-1.159630017e-05
7.339479089e-05
4.445565542e-05
-1.124846105e-05
7.122567386e-05
4.184940415e-05
-6.537703467e-06
6.422027585e-05
3.923189747e-05
8.614574534e-07
5.229159551e-05
3.737680057e-05
8.495975169e-06
3.874375779e-05
3.729425479e-05
1.316779459e-05
2.994667744e-05
4.146876402e-05
1.401411517e-05
2.650480732e-05
4.557957177e-05
1.199554674e-05
2.548563969e-05
4.706382744e-05
9.939282328e-06
2.500002369e-05
4.799940561e-05
8.563481602e-06
2.497365906e-05
4.999285033e-05
7.187687297e-06
2.497072959e-05
5.222247146e-05
5.936912749e-06
2.487491165e-05
5.3980029e-05
4.602692162e-06
2.469666283e-05
5.494483313e-05
3.358778484e-06
2.424459253e-05
5.522939456e-05
2.659563303e-06
2.282773619e-05
5.48778173e-05
3.052530546e-06
1.921930205e-05
5.418226382e-05
4.959949293e-06
1.23700648e-05
5.35156731e-05
8.094947832e-06
5.297209973e-05
1.317539117e-05
5.543552585e-05
9.11043997e-05
-2.810968753e-05
7.486920103e-05
9.342441787e-05
-2.546393926e-05
8.805153865e-05
9.055421841e-05
-1.959129299e-05
9.406865561e-05
8.430818853e-05
-1.248351298e-05
9.280186416e-05
7.662039392e-05
-5.110278227e-06
8.616263778e-05
6.900444812e-05
1.21631754e-07
8.116841788e-05
6.161410348e-05
-1.555222069e-06
7.714098933e-05
5.843274457e-05
-3.91162401e-06
7.619066194e-05
5.514114598e-05
-7.023599501e-06
7.56442543e-05
5.160022958e-05
-6.597000062e-06
7.260764561e-05
4.755281707e-05
-2.665620397e-06
6.532670777e-05
4.32634341e-05
3.250599444e-06
5.42905596e-05
3.978320212e-05
8.630967192e-06
4.188791978e-05
3.80032959e-05
1.169486195e-05
3.246500088e-05
3.912343032e-05
1.176957979e-05
2.811036782e-05
4.14750101e-05
8.460597166e-06
2.729262776e-05
4.308334463e-05
4.79971262e-06
2.780789971e-05
4.442235561e-05
3.063354636e-06
2.836116881e-05
4.633639064e-05
3.104837492e-06
2.80948297e-05
4.849809474e-05
3.992402299e-06
2.702228582e-05
5.038887134e-05
4.665404438e-06
2.558167124e-05
5.167098184e-05
4.716160047e-06
2.398574927e-05
5.230040105e-05
4.526587692e-06
2.179405363e-05
5.222732813e-05
4.843831519e-06
1.792354952e-05
5.173999447e-05
6.314396475e-06
1.13557695e-05
5.11961746e-05
8.888882482e-06
5.115124283e-05
1.317821796e-05
5.837844463e-05
9.153560172e-05
-1.870874708e-05
7.392137773e-05
9.391568566e-05
-1.603314213e-05
8.417586712e-05
9.166277885e-05
-1.136187932e-05
8.8586711e-05
8.605577814e-05
-6.157162567e-06
8.781460476e-05
7.85470145e-05
-1.153200261e-06
8.400184789e-05
7.136155297e-05
1.456955117e-06
8.29532625e-05
6.078512972e-05
1.878774899e-06
8.028566562e-05
6.093442291e-05
1.670850751e-07
7.87931258e-05
5.830995963e-05
-1.675277474e-06
7.674481353e-05
5.470826778e-05
-1.05865276e-06
7.227294678e-05
5.000270763e-05
2.023080254e-06
6.450606767e-05
4.503764319e-05
5.993791645e-06
5.417498379e-05
4.104344962e-05
9.071999594e-06
4.277628806e-05
3.874947325e-05
1.065376261e-05
3.335342964e-05
3.860349358e-05
9.944153562e-06
2.896285178e-05
4.035454105e-05
5.512533531e-06
2.895418968e-05
4.249026761e-05
6.033600658e-07
3.079519806e-05
4.422064479e-05
-1.637562069e-06
3.246566809e-05
4.583186329e-05
-1.164139231e-06
3.259818352e-05
4.735521262e-05
1.012188771e-06
3.087886149e-05
4.854226168e-05
3.567736437e-06
2.797758426e-05
4.920291061e-05
5.37111017e-06
2.470541846e-05
4.937585938e-05
6.198413763e-06
2.119023002e-05
4.903245239e-05
6.711714459e-06
1.665522697e-05
4.841212166e-05
7.864477161e-06
1.016095087e-05
4.783930013e-05
9.85271471e-06
4.816348554e-05
1.315024898e-05
6.075002849e-05
8.870632749e-05
-1.257014841e-05
7.31549347e-05
9.034242506e-05
-8.830456597e-06
8.092289692e-05
8.882115581e-05
-4.925037891e-06
8.340863988e-05
8.490572303e-05
-1.334301325e-06
8.231941149e-05
8.025483002e-05
-6.173342938e-07
7.581340545e-05
7.509744053e-05
2.77139434e-06
8.783811266e-05
7.369597639e-05
-2.493596933e-05
8.437886327e-05
6.690806543e-05
-2.513544733e-06
8.109871355e-05
6.167766525e-05
-8.729700864e-08
7.683592735e-05
5.607640716e-05
2.895450151e-06
7.097371748e-05
5.038643686e-05
5.479483392e-06
6.308545561e-05
4.527266569e-05
7.654313467e-06
5.366717069e-05
4.144864906e-05
9.014240553e-06
4.345321049e-05
3.926947799e-05
9.695238228e-06
3.445516799e-05
3.875367466e-05
8.849311671e-06
3.003406773e-05
4.038753193e-05
4.389741995e-06
3.039447029e-05
4.308720897e-05
-9.555355155e-07
3.303482918e-05
4.525830877e-05
-3.676085459e-06
3.557706377e-05
4.669112704e-05
-3.399491426e-06
3.630247789e-05
4.755281236e-05
-9.210134519e-07
3.446071327e-05
4.780218299e-05
2.583787785e-06
3.052062189e-05
4.745016359e-05
5.694696622e-06
2.568228901e-05
4.667103163e-05
7.544920216e-06
2.070228762e-05
4.557517971e-05
8.438938556e-06
1.531109982e-05
4.441805041e-05
9.386842865e-06
8.79287624e-06
4.35445795e-05
1.081446832e-05
4.398058922e-05
1.29772605e-05
6.054630515e-05
8.432713346e-05
-1.003710776e-05
7.151871157e-05
8.483529097e-05
-5.463986283e-06
7.830742774e-05
8.363674599e-05
-1.602902334e-06
8.114861252e-05
8.052436939e-05
1.541658495e-06
8.118115696e-05
7.697634527e-05
3.247402246e-06
7.947710602e-05
7.167899039e-05
5.123976735e-06
8.421981031e-05
7.020707404e-05
-1.252632887e-06
8.207293751e-05
6.432771258e-05
4.728655785e-06
7.903124597e-05
5.910854485e-05
5.611913774e-06
7.466796092e-05
5.376621976e-05
6.674565874e-06
6.882074132e-05
4.8630597e-05
7.604163142e-06
6.158692805e-05
4.429758175e-05
8.210042271e-06
5.336220197e-05
4.114274916e-05
8.531874254e-06
4.450474508e-05
3.929499821e-05
8.833351044e-06
3.629358951e-05
3.870588711e-05
8.260565145e-06
3.176853974e-05
4.020980893e-05
4.704611289e-06
3.187198553e-05
4.323033737e-05
-2.445430784e-07
3.454070984e-05
4.575250676e-05
-3.160757564e-06
3.732158814e-05
4.712962852e-05
-3.217168482e-06
3.830186862e-05
4.748772596e-05
-9.13018187e-07
3.644617183e-05
4.690757604e-05
2.752385085e-06
3.197886835e-05
4.559016286e-05
6.329255972e-06
2.613689493e-05
4.383123341e-05
8.683581988e-06
2.002799414e-05
4.183844538e-05
9.84731218e-06
1.387001825e-05
3.990737829e-05
1.067021362e-05
7.351907153e-06
3.844367546e-05
1.162049907e-05
3.869462018e-05
1.263931225e-05
5.81291449e-05
8.088897838e-05
-1.077250425e-05
6.85196723e-05
8.001389868e-05
-5.567803616e-06
7.492968968e-05
7.858049465e-05
-1.352313586e-06
7.848169333e-05
7.487339637e-05
2.100506446e-06
7.867590921e-05
7.233626703e-05
4.447389484e-06
8.013855682e-05
6.295085029e-05
7.267057439e-06
8.239225484e-05
6.276127787e-05
5.193422692e-06
8.023863318e-05
5.872383296e-05
7.758949968e-06
7.681570689e-05
5.434798303e-05
8.184820799e-06
7.232007033e-05
4.998175168e-05
8.281373505e-06
6.681474018e-05
4.600603996e-05
8.131148255e-06
6.041192673e-05
4.275535247e-05
7.946362462e-06
5.329755364e-05
4.034063428e-05
7.917938879e-06
4.567835426e-05
3.878779155e-05
8.128047687e-06
3.838735053e-05
3.811650138e-05
7.882253637e-06
3.382921511e-05
3.924046765e-05
5.52955896e-06
3.331212378e-05
4.206587746e-05
1.683810633e-06
3.540209738e-05
4.467092452e-05
-1.006027644e-06
3.779607099e-05
4.599284867e-05
-1.254816339e-06
3.858835796e-05
4.59820813e-05
7.156655568e-07
3.666929896e-05
4.481282905e-05
4.015983335e-06
3.212255379e-05
4.282921249e-05
7.309707876e-06
2.596534901e-05
4.040392554e-05
9.586351052e-06
1.928626303e-05
3.771824687e-05
1.080096148e-05
1.257455669e-05
3.505340348e-05
1.156722384e-05
6.093434748e-06
3.272456965e-05
1.220167246e-05
3.254461329e-05
1.224483091e-05
5.453153487e-05
7.840361665e-05
-1.143475718e-05
6.45440774e-05
7.628813752e-05
-6.285467704e-06
7.058734004e-05
7.441484526e-05
-1.876192493e-06
7.511507025e-05
6.806012944e-05
2.287038184e-06
7.644736535e-05
6.595097339e-05
5.054500613e-06
7.840986355e-05
5.216920878e-05
8.820723706e-06
7.980854778e-05