/*--------------------------------*- C++ -*----------------------------------*\
  =========                 |
  \\      /  F ield         | OpenFOAM: The Open Source CFD Toolbox
   \\    /   O peration     | Website:  https://openfoam.org
    \\  /    A nd           | Version:  8
     \\/     M anipulation  |
\*---------------------------------------------------------------------------*/
FoamFile
{
    version     2.0;
    format      ascii;
    class       scalarField;
    location    "1.7/lagrangian/reactingCloud1";
    object      age;
}
// * * * * * * * * * * * * * * * * * * * * * * * * * * * * * * * * * * * * * //


272
(
0.2673903193
0.2600977554
0.2501693251
0.2441068322
0.241998139
0.2405923436
0.2388350993
0.2372535794
0.2297852911
0.224959137
0.2238032665
0.2209309252
0.261942862
0.2131388455
0.2596584444
0.2103597517
0.257461889
0.2083531417
0.2067285197
0.2040371118
0.2039200941
0.2038030763
0.2023403547
0.2015797394
0.2013457039
0.2004680709
0.1985333791
0.2060849221
0.197175037
0.1966015739
0.1917870648
0.1909335552
0.190895138
0.1898873677
0.1869213588
0.186134641
0.1854916147
0.1848967172
0.2120685315
0.1841526186
0.1817769128
0.1805933243
0.179903922
0.1794119028
0.1881284343
0.1772488263
0.1771996858
0.1866762884
0.1760200929
0.1753316833
0.1845494477
0.1738563565
0.1738563565
0.1731674898
0.173118285
0.1723308418
0.1718876984
0.1711980933
0.1693240683
0.1686821788
0.168089345
0.1679411099
0.1677928747
0.1672491288
0.1666063063
0.1660125272
0.1658145886
0.1658145886
0.178772583
0.165319518
0.165071908
0.164972864
0.1647747381
0.1643782592
0.163187631
0.1622928758
0.1615456762
0.1610965177
0.160646665
0.1605966265
0.1603463097
0.1601458651
0.159241573
0.1576966487
0.15739536
0.1564370004
0.1564370004
0.1563504725
0.1620937773
0.1550026434
0.1544531545
0.1537407363
0.1537407363
0.1536786083
0.153099318
0.153099318
0.1524820453
0.1508656315
0.1580553354
0.1494836042
0.1489164532
0.2021063192
0.1630386036
0.1560838371
0.1468269195
0.1467317429
0.1459716864
0.1454975573
0.1442722496
0.1620937773
0.1426949396
0.160646665
0.1411523368
0.1584850342
0.1396094849
0.1777893715
0.1380085117
0.1378005311
0.1373822349
0.1372763362
0.1780350739
0.1960970932
0.1686328027
0.1351875751
0.1531655266
0.1318144807
0.1314450025
0.1819744416
0.1305566524
0.130164886
0.1522674325
0.129090755
0.1501432125
0.124818032
0.1321769358
0.1341894675
0.1238636098
0.1452137888
0.121021103
0.1196281384
0.1195006829
0.119244928
0.1473979795
0.1156147558
0.1458767036
0.1137955609
0.1328787312
0.1313202207
0.1124364944
0.1302960377
0.1285398936
0.1278389462
0.1933651251
0.1084484917
0.1235977221
0.1230718799
0.1059889921
0.1222949458
0.1054867454
0.1048123383
0.1182015448
0.1018082726
0.09968725509
0.09776937671
0.09583190399
0.09583190399
0.09561293677
0.09561293677
0.09542535598
0.09533969588
0.09392601932
0.09248244954
0.1296332837
0.09090846955
0.08977340827
0.08970585867
0.08833380151
0.08791521127
0.08612301513
0.08563826983
0.08521476015
0.08266743094
0.08153728931
0.1121457076
0.08079896448
0.0805103749
0.1024110301
0.07916018071
0.1036165452
0.07675163378
0.0739296803
0.07137539763
0.06949854663
0.07609765792
0.06855169994
0.0659305386
0.06359930194
0.07213269628
0.06249822264
0.06229822833
0.06089680952
0.1224238183
0.05979405976
0.06613154634
0.1036165452
0.05859015252
0.05477777958
0.05437647717
0.05377452355
0.0525706163
0.08812469946
0.05116605785
0.04956084819
0.04885856897
0.04865791776
0.04855759216
0.08410879293
0.04785531293
0.04635042888
0.04594912646
0.04514652163
0.03932590347
0.08950259705
0.0386305122
0.1078698279
0.09202539991
0.0373786041
0.03657311441
0.03585936914
0.03514532459
0.03472534873
0.0332378309
0.03251237951
0.09624122717
0.03201480333
0.08206882923
0.02859495506
0.02819502562
0.02742768828
0.02570595018
0.02394410471
0.02366335306
0.02256187533
0.1125845479
0.08612312528
0.02201828181
0.04845726655
0.02000192353
0.05216931389
0.06673456956
0.06712941757
0.01802386955
0.01530128724
0.06760485326
0.1137955609
0.06562841229
0.06864638461
0.02002730669
0.1495780385
0.06471118306
0.008087902947
0.07738548418
0.006315766417
0.005859252817
0.005573000352
0.004680488209
0.06633255408
0.003899367563
0.0180487644
0.04011508508
0.06902512329
0.001513187413
)


// ************************************************************************* //
