/*--------------------------------*- C++ -*----------------------------------*\
  =========                 |
  \\      /  F ield         | OpenFOAM: The Open Source CFD Toolbox
   \\    /   O peration     | Website:  https://openfoam.org
    \\  /    A nd           | Version:  8
     \\/     M anipulation  |
\*---------------------------------------------------------------------------*/
FoamFile
{
    version     2.0;
    format      ascii;
    class       scalarField;
    location    "1.7/lagrangian/reactingCloud1";
    object      nParticle;
}
// * * * * * * * * * * * * * * * * * * * * * * * * * * * * * * * * * * * * * //


272
(
100.1149878
103.8110274
103.018668
100.143202
103.0609077
103.4870208
100.8493606
103.8384855
100.1268849
100.2390813
104.248563
100.0029166
102.2476913
101.1448573
102.0922729
100.0878286
103.3625502
100.6544276
115.3715533
892.8170876
262.3465877
389.3823895
103.395627
100.7972257
100.6180128
100.3016012
100.5556746
4876.910083
313.8955896
104.0107474
100.0031598
100.0180386
100.0346917
100.0891616
100.5839998
101.168172
216.6037184
100.0869163
7552.72673
100.1806802
129.2129622
100.2263059
100.1912325
100.2328578
100.0570255
100.5514813
503.1983853
101.2258856
436.2050676
100.7859483
100.7816291
101.8310042
103.0951847
100.038194
127.6918179
102.6185807
183.8231789
206.4502949
100.0023552
187.6151867
100.8997158
103.5928373
174.1357826
674.5520423
104.287337
100.7255319
148.5047725
110.0344403
278.5425954
108.8350573
116.2365891
100.1192117
113.5136127
107.6418245
100.0654291
101.7038354
103.1515467
106.1684452
107.8055209
100.0200058
115.2441119
102.1042981
100.084733
100.1759917
100.1982878
100.0526983
100.862145
101.9990521
689.8475002
101.4614342
106.2535339
100.0611338
103.200122
100.5663888
102.5680817
100.1270191
100.3417915
100.1055655
1047.895455
100.2822172
104.3593046
1265.41549
100.9425697
588.3150146
100.0733119
102.8221616
102.3203038
100.0884035
100.1911377
100.5389586
100.0504043
101.3665877
101.3020484
101.5836068
100.900144
104.0302382
101.1158072
100.3203019
621.205778
100.0358202
100.8610063
6670.535557
100.5595324
101.8438884
100.4612035
100.3223908
100.9647281
162.1070338
101.2442455
100.0608357
100.4774623
105.8203227
100.3847663
100.3950352
6479.561309
1208.836926
220.2834977
397.1113123
100.3969304
100.844153
112.2281358
100.6116363
100.0730595
103.0818586
101.3635898
101.2570567
100.2291908
102.48145
101.0696292
102.2605991
102.1152792
111.6094783
896.2671067
100.1766175
101.2374711
108.1696755
100.1056562
104.337936
100.0672059
100.0164174
213.0941311
100.9176297
100.2984527
107.9847205
100.7266095
100.1583115
100.9537689
101.4119577
100.717997
243.234069
100.1601855
252.1506577
100.4752167
347.6767621
100.0728028
100.6797961
100.6358939
279.4835476
100.3230658
100.1484759
100.3725553
100.0098903
102.4802307
7889.692242
100.1737939
104.5466829
174.8594198
100.1047765
205.5078321
100.1115655
100.7598659
100.1958017
100.486736
3633.074845
100.1904835
101.1302057
100.1029573
3704.442906
100.4524178
104.3812809
104.9344881
100.0047763
100.4467989
678.7002789
1012.769034
100.4357562
100.0877734
100.0726005
100.1728029
106.371623
5876.68636
101.103304
100.3670956
100.038448
102.7193973
100.1177494
2112.452368
100.3302596
100.0271463
100.5105049
105.8496988
100.383906
121.9196382
100.7208574
100.6341097
101.7374607
101.632826
100.0641573
100.3098382
102.7406461
156.7703699
137.5390274
100.0118678
5053.563493
106.1580043
100.7056876
100.1493304
100.5686354
100.0045189
100.3637587
100.5344889
267.8630827
100.0749064
101.1287495
987.2656671
100.6905383
195.8446577
101.0177214
7150.058186
126.1102391
106.7130124
100.0154977
100.0230484
105.3490416
124.8611838
105.2685393
100.3421077
2929.575706
107.8002892
108.6866898
100.0417072
100.9579454
227.0870695
100.0349794
100.0590936
120.4239107
100.1261235
100.0069981
5428.386346
1108.79816
101.5168916
768.6419695
)


// ************************************************************************* //
