/*--------------------------------*- C++ -*----------------------------------*\
  =========                 |
  \\      /  F ield         | OpenFOAM: The Open Source CFD Toolbox
   \\    /   O peration     | Website:  https://openfoam.org
    \\  /    A nd           | Version:  8
     \\/     M anipulation  |
\*---------------------------------------------------------------------------*/
FoamFile
{
    version     2.0;
    format      ascii;
    class       Cloud<basicReactingMultiphaseParcel>;
    location    "0.4/lagrangian/reactingCloud1";
    object      positions;
}
// * * * * * * * * * * * * * * * * * * * * * * * * * * * * * * * * * * * * * //

103
(
(0.4883329323 0.01037795963 0.08126504015 0.4200240679) 4207 9379 1
(0.4023831321 0.4530285543 0.03172315056 0.1128651631) 4927 14461 2
(0.1893624447 0.2512574416 0.4884429407 0.070937173) 2454 7111 1
(0.8538713988 0.01851581507 0.0724505283 0.05516225781) 3605 10589 1
(0.1630858752 0.5242453339 0.1765390332 0.1361297576) 5950 17461 1
(0.5336678888 0.1202891058 0.2299783778 0.1160646276) 2908 8560 2
(0.6630921289 0.01535627089 0.320879453 0.0006721471657) 2729 8029 1
(0.3145352712 0.2904611197 0.3320182679 0.06298534119) 3861 8381 1
(0.1992207764 0.2017654505 0.4813134055 0.1177003676) 1578 4648 2
(0.2719243241 0.4650606251 0.2449347684 0.01808028234) 5006 14698 1
(0.5968426459 0.1832202465 0.1309030155 0.08903409208) 3995 11750 2
(0.0211323247 0.43453855 0.1602626037 0.3840665216) 8810 22945 2
(0.02744824092 0.09211953757 0.4523022934 0.4281299282) 8809 25830 1
(0.09239608417 0.5091663876 0.01959949327 0.378838035) 7858 22947 1
(0.2532763782 0.09730112682 0.1703109837 0.4791115113) 6873 20159 1
(0.6384606384 0.08359327409 0.1539678832 0.1239782043) 9792 28591 2
(0.3237240193 0.1644664253 0.3962697565 0.1155397989) 12544 36730 2
(0.02068322496 0.2190109023 0.1861480087 0.574157864) 14201 41565 2
(0.3479436203 0.4670430726 0.1065906595 0.07842264759) 7891 20259 2
(0.08902402201 0.253775258 0.4560564197 0.2011443002) 9888 28964 1
(0.1676229313 0.3786428062 0.4291028081 0.02463145443) 16896 49347 2
(0.4101435117 0.03853011525 0.4832763716 0.06805000147) 6907 20257 1
(0.02647336008 0.03270376524 0.6416749285 0.2991479462) 16686 48825 1
(0.1949392554 0.7058246224 0.01712842967 0.08210769255) 847 2414 1
(0.5346639284 0.2967257138 0.004254520207 0.1643558375) 13596 39797 2
(0.222799232 0.4005773527 0.06565980617 0.3109636091) 21582 63145 1
(0.3227924785 0.6530800211 0.009704004435 0.01442349602) 14270 41765 2
(0.5219404193 0.2587181566 0.004593474722 0.2147479494) 22458 65929 1
(0.01860192768 0.1669278166 0.5194781606 0.2949920951) 15487 45335 1
(0.1391537089 0.5343779426 0.09389256708 0.2325757814) 21637 63342 2
(0.1671567475 0.2504749788 0.3358734202 0.2464948534) 20891 61139 2
(0.02131510207 0.6032828429 0.2630525613 0.1123494936) 2974 8650 1
(0.6444454647 0.04108592337 0.08416349837 0.2303051135) 11607 33988 1
(0.2316968596 0.2458784692 0.2118245828 0.3106000884) 20884 61118 2
(0.005596524948 0.1271873426 0.3922583906 0.4749577418) 9827 25938 1
(0.2858305086 0.5483944539 0.0103447917 0.1554302458) 20880 61108 2
(0.04248213044 0.587773035 0.1075418471 0.2622029875) 6941 17467 2
(0.7861013684 0.04865534947 0.1288138133 0.03642946876) 14570 42654 2
(0.4022688636 0.4885541829 0.0686459995 0.04053095393) 21766 61102 1
(0.1489110798 0.3140043991 0.07771662219 0.4593678988) 5986 17565 1
(0.4489784413 0.135381534 0.04796113516 0.3676788896) 11641 34086 2
(0.3149931832 0.2773962165 0.1796535058 0.2279570945) 277 824 2
(0.06519570289 0.2092722183 0.4053569158 0.3201751629) 5952 17466 2
(0.6729227176 0.0005191320561 0.08271819053 0.2438399598) 12608 36915 1
(0.4182676388 0.05594688783 0.2592074661 0.2665780073) 18086 52934 1
(0.5204228471 0.1700015537 0.09243034989 0.2171452494) 21765 61099 1
(0.6710937705 0.1067283094 0.01648294191 0.2056949781) 5946 17348 1
(0.1306919523 0.5033968669 0.2816111833 0.08429999747) 4954 14538 2
(0.1763095406 0.5583773699 0.2477930483 0.01752004128) 18114 53021 2
(0.235709195 0.3163421711 0.3032194347 0.1447291991) 8878 26030 2
(0.05587518109 0.0985657093 0.5017326212 0.3438264884) 29580 89046 2
(0.2621728796 0.04155106965 0.5516484692 0.1446275815) 6733 19745 2
(0.1901107615 0.3647331807 0.2443573772 0.2007986806) 24418 72404 1
(0.05473354624 0.330096471 0.5315455392 0.08362444361) 3943 11590 2
(0.3407390659 0.2648216131 0.3757082442 0.01873107673) 10836 28948 1
(0.1838651844 0.1229198898 0.2518810185 0.4413339073) 10837 31747 2
(0.02326649549 0.2342103031 0.5285440003 0.2139792012) 11821 34604 1
(0.2552864132 0.0003135492613 0.2496826844 0.4947173531) 66579 195246 1
(0.5552221901 0.001010568015 0.1412587085 0.3025085334) 66723 195571 2
(0.1146583326 0.2019736332 0.120963278 0.5624047562) 59113 176912 1
(0.6067844841 0.2589317866 0.06100203704 0.07328169224) 13653 37254 2
(0.1233133829 0.02724114857 0.6065877056 0.242857763) 59676 177048 1
(0.1029207818 0.41333171 0.4735771565 0.0101703517) 39007 119277 2
(0.1363217567 0.5135300879 0.2470117291 0.1031364263) 12754 37334 2
(0.04953324747 0.08783147037 0.7966009377 0.06603434444) 13685 203233 1
(0.2416412415 0.4232207505 0.1273041134 0.2078338946) 8942 26212 2
(0.3924510738 0.238270502 0.1526769829 0.2166014413) 16923 49525 1
(0.3214261409 0.4431672777 0.2122289467 0.02317763476) 37173 113811 2
(0.3976462913 0.02085589492 0.2720003883 0.3094974254) 9886 28958 2
(0.2259943928 0.3443426238 0.3911334994 0.03852948396) 3941 11487 1
(0.3586099988 0.168907693 0.4715355339 0.0009467743036) 40200 119762 2
(0.08182066092 0.06703246175 0.7450242389 0.1061226384) 3941 11584 2
(0.4909259808 0.1030689271 0.403704955 0.002300137097) 6595 19235 2
(0.1835340169 0.4763679207 0.3132586454 0.02683941703) 42191 128620 1
(0.1532077713 0.4617173654 0.04570263266 0.3393722306) 16427 48072 2
(0.1071387034 0.265255786 0.2089047273 0.4187007833) 42223 128714 1
(0.4412495373 0.1522778065 0.03561882101 0.3708538352) 5873 17229 1
(0.1347526443 0.716208494 0.0532151013 0.09582376046) 819 2435 2
(0.1838809858 0.07306997412 0.4343085012 0.3087405389) 43351 128897 2
(0.07621436706 0.2868493022 0.4898367355 0.1470995952) 17120 50110 2
(0.1179963113 0.700817778 0.01571672907 0.1654691816) 1965 5801 2
(0.1133027697 0.6761877102 0.2067418711 0.003767648969) 4020 11818 2
(0.2052908821 0.2037516385 0.1142064677 0.4767510118) 44487 135358 2
(0.02354079192 0.6568851785 0.2522095212 0.06736450839) 13680 40039 1
(0.009761684145 0.07940795704 0.1899499706 0.7208803882) 46624 141621 1
(0.1959440259 0.310612024 0.04898467588 0.4444592742) 21534 63009 1
(0.2223979216 0.1118107128 0.5151307731 0.1506605925) 46686 141809 2
(0.05531938218 0.1306435236 0.2777668308 0.5362702634) 46685 141805 2
(0.1678364173 0.06324597299 0.6458530789 0.1230645308) 7005 20536 2
(0.4000086926 0.1007930531 0.01003947317 0.4891587811) 20002 58463 2
(0.6252525697 0.1725517324 0.1845275396 0.01766815831) 47752 141810 1
(0.5674124115 0.1435263141 0.001073236103 0.2879880382) 18083 52839 2
(0.2164870366 0.668513468 0.03868434585 0.07631514955) 7987 203019 1
(0.1571634683 0.003786259407 0.01466011133 0.8243901609) 48819 148061 1
(0.2882324749 0.5089915592 0.08101223491 0.121763731) 48787 144845 2
(0.3819190674 0.01527660744 0.1906021274 0.4122021978) 7986 23413 2
(0.3553127518 0.0472922287 0.1037022556 0.4936927638) 48817 148058 1
(0.042894022 0.1188947626 0.3692860499 0.4689251655) 18990 55580 1
(0.02265777275 0.4999753634 0.166472619 0.3108942449) 48817 148060 1
(0.1162516119 0.2941935674 0.4057057567 0.183849064) 18991 55580 2
(0.6193397585 0.1589273916 0.005686632941 0.216046217) 45585 138488 1
(0.09371337899 0.146357855 0.1662165338 0.5937122322) 49855 151093 1
(0.0002414655328 0.4581416941 0.5345643013 0.007052539082) 49855 151097 1
)


// ************************************************************************* //
