/*--------------------------------*- C++ -*----------------------------------*\
  =========                 |
  \\      /  F ield         | OpenFOAM: The Open Source CFD Toolbox
   \\    /   O peration     | Website:  https://openfoam.org
    \\  /    A nd           | Version:  8
     \\/     M anipulation  |
\*---------------------------------------------------------------------------*/
FoamFile
{
    version     2.0;
    format      ascii;
    class       scalarField;
    location    "0.4/lagrangian/reactingCloud1";
    object      rho;
}
// * * * * * * * * * * * * * * * * * * * * * * * * * * * * * * * * * * * * * //


103
(
994.5114687
994.5114693
994.5114693
994.5114694
994.5114685
994.5114694
994.5114695
1000
1000
994.5114698
994.51147
994.5114707
994.5114708
994.5114705
994.5114704
994.5114709
994.5114729
1000
994.5114703
994.5114695
994.5114726
994.5114702
994.5114725
1000
994.5114727
1000
994.5114706
1000
994.511471
1000
994.5114697
994.5114695
994.51147
994.5114689
994.5114742
994.5114688
994.5114702
994.5114737
994.5114688
994.51147
994.5114692
1000
994.5114701
994.5114706
994.5114716
994.5114688
994.5114694
994.5114694
994.5114723
994.5114742
1000
994.5114695
994.5114691
994.511469
994.5114701
994.5114697
994.5114694
1000
1000
994.511475
994.5114698
994.5114691
1000
994.5114713
994.5114694
994.511475
994.5114728
1000
994.5114699
994.5114691
1000
994.5114691
1000
1000
994.5114708
1000
994.5114685
994.5114704
1000
994.5114724
1000
994.51147
1000
994.5114694
1000
1000
1000
1000
994.5114692
994.5114717
1000
994.5114725
994.5114692
1000
1000
994.5114692
1000
994.5114734
1000
994.5114734
1000
1000
1000
)


// ************************************************************************* //
