/*--------------------------------*- C++ -*----------------------------------*\
  =========                 |
  \\      /  F ield         | OpenFOAM: The Open Source CFD Toolbox
   \\    /   O peration     | Website:  https://openfoam.org
    \\  /    A nd           | Version:  8
     \\/     M anipulation  |
\*---------------------------------------------------------------------------*/
FoamFile
{
    version     2.0;
    format      ascii;
    class       vectorField;
    location    "0.4/lagrangian/reactingCloud1";
    object      U;
}
// * * * * * * * * * * * * * * * * * * * * * * * * * * * * * * * * * * * * * //


103
(
(-0.01662248739 -0.5436982964 -1.664126927)
(0.2134813729 -0.009950413963 -1.692067786)
(-0.06100802443 -0.4391026229 -1.892893306)
(-0.0364550233 -0.315681898 -1.891451367)
(0.1271430902 0.0128452169 -1.811912767)
(0.3538721459 0.008479598736 -1.963573776)
(-0.0001505921643 -0.2219559289 -1.994282205)
(0.9526780042 -0.2862502634 -3.24249286)
(0.4547834996 -0.6159132869 -3.313283412)
(0.5062508053 0.03832075501 -1.662817143)
(0.5027312278 0.03761822543 -1.699468879)
(0.0406945051 -0.166605591 -1.852958417)
(0.02176597276 -0.1649689714 -1.748992724)
(0.06405511286 -0.1407280551 -1.851701054)
(0.08831731125 -0.1197055806 -1.885840342)
(0.01380703322 -0.1876163715 -1.840505765)
(0.05756862414 -0.274192188 -1.43466837)
(0.603937713 -0.8300484679 -2.942254007)
(0.09600593168 -0.08310358051 -1.780812516)
(0.2894178814 0.005767247908 -1.6466105)
(-0.1096608539 -0.807759095 -1.515767774)
(0.1160746789 -0.07292841222 -1.880232281)
(-0.3908620175 -0.9904738745 -1.368021695)
(0.9723573012 -0.2434717191 -3.255250986)
(0.02488123062 -0.1760231354 -1.721700074)
(1.011370605 -0.7427761387 -2.731690818)
(0.3171072297 -0.6313776534 -1.57055134)
(0.8935093677 -0.7283133567 -2.58807921)
(0.1099545699 -0.0260175025 -1.550190263)
(0.9580507837 -0.6187363211 -2.678248363)
(1.194120659 0.008314674564 -1.097526369)
(0.08639763702 -0.0244458653 -2.067338109)
(0.1765209639 -0.4423837059 -1.623331193)
(0.9182246475 0.006210994498 -1.161040292)
(0.1635958478 -0.1845297483 -1.660805167)
(0.6802354544 0.004087722597 -1.179479044)
(0.127830843 -0.05026631452 -1.870805012)
(0.02769147748 -0.03066289684 -1.580296914)
(0.5247138787 0.003809599418 -1.106589257)
(0.1410740375 -0.001982742555 -1.851175029)
(0.2453684342 -0.4069244684 -1.565545641)
(0.05186539229 -0.8505530304 -3.228139823)
(0.1427113251 -0.02790212981 -1.912993333)
(0.09437301876 -0.3446404565 -1.628107231)
(-0.1953216525 -0.2757208733 -1.41462396)
(0.5187075658 0.009889574592 -1.145817457)
(0.1739048578 0.03707342617 -1.798944796)
(0.1511934798 0.03220460782 -1.836293277)
(-0.254996749 -0.2277195181 -1.330645377)
(0.1488647384 -0.1452105383 -1.695167275)
(0.6235576954 -0.6083399697 -2.549689711)
(0.2136048164 -0.1194936099 -1.635433078)
(0.9012893899 0.07626388763 -0.8724326499)
(0.133959354 0.03233481102 -1.903538334)
(0.1487973432 0.04492768181 -1.63615736)
(0.1792956677 0.05847420284 -1.629970321)
(0.3015429651 0.0564700342 -1.73313585)
(0.2519333177 -0.9952550748 -2.203882641)
(0.5272968796 -0.7731032496 -2.323902085)
(0.09932778127 -0.338759238 -1.011482306)
(0.2381046989 0.03151039471 -1.556698136)
(-0.00919049451 -0.0672147027 -0.9760339214)
(0.07630471648 -1.227447361 -1.977615131)
(0.1001485443 -0.1201000547 -1.647163773)
(0.3027029829 0.08395360086 -1.650671878)
(0.1330563586 -0.09577266564 -1.705576326)
(-0.3942095319 -0.7019644838 -1.461897359)
(0.3507910306 -0.290607375 -2.44735814)
(0.1672169608 -0.2448778662 -1.789707521)
(0.1116181351 0.03317785519 -1.89423341)
(0.5592426386 -0.6446508001 -2.210904635)
(0.1038875322 0.03515527172 -1.842678471)
(-0.01105394301 -0.667589249 -3.224347037)
(0.2141931491 -1.277503225 -1.849600321)
(0.2175746409 0.02825310793 -1.500742411)
(0.3910721723 -1.175868293 -1.910417631)
(-0.1006453876 -0.022273124 -1.870681313)
(0.09489959838 -0.02288576883 -1.81233002)
(-0.3994579185 -0.8628693433 -2.075756635)
(-0.2634844735 -0.3706352536 -1.405811924)
(0.7813634188 -0.09575986165 -3.246988444)
(0.1696193766 0.02224527626 -2.092358651)
(0.3746175537 -0.5309721951 -2.101940632)
(0.1455086175 0.09860569256 -1.657500274)
(0.002650554056 -0.5917079094 -2.069563918)
(0.1791697037 -0.8508466959 -2.790769055)
(0.4414366075 0.5507636937 -2.02324043)
(-0.01669916973 0.2152583861 -2.120115513)
(0.1841212805 0.1011691926 -1.747457367)
(-0.1852907392 -0.07129943001 -1.20267662)
(0.387668928 0.4081947622 -2.031537301)
(-0.2915043896 -0.2567319706 -1.302264483)
(0.2273985953 0.1191047204 -1.853881551)
(0.9646429513 0.8954788476 -1.587734743)
(0.2953420021 -0.7898490134 -1.880718001)
(0.1576723476 0.1008868082 -1.660849101)
(-0.2643440774 1.260144878 -1.57986729)
(0.4009986234 -0.1356053636 -1.247651215)
(-1.121289958 0.772653891 -1.491462241)
(0.4473649175 -0.1926449316 -1.297536141)
(-0.6908728522 -0.3085924755 -2.047924386)
(0.2034019058 -0.9159443671 -1.781439083)
(0.5665407525 -0.01039567357 -1.919034158)
)


// ************************************************************************* //
