/*--------------------------------*- C++ -*----------------------------------*\
  =========                 |
  \\      /  F ield         | OpenFOAM: The Open Source CFD Toolbox
   \\    /   O peration     | Website:  https://openfoam.org
    \\  /    A nd           | Version:  8
     \\/     M anipulation  |
\*---------------------------------------------------------------------------*/
FoamFile
{
    version     2.0;
    format      ascii;
    class       volVectorField;
    location    "0.7/wallFilmRegion";
    object      contactForce:contactAngle;
}
// * * * * * * * * * * * * * * * * * * * * * * * * * * * * * * * * * * * * * //

dimensions      [1 -2 -2 0 0 0 0];

internalField   nonuniform List<vector> 
1369
(
(0 -536.6972386 0)
(0 0 0)
(0 0 0)
(0 0 0)
(0 0 0)
(0 0 0)
(0 0 0)
(0 -465.5570899 -1.37661276e-12)
(0 0 0)
(0 0 0)
(0 0 0)
(0 0 0)
(0 0 0)
(0 0 0)
(0 0 0)
(-983.9634047 901.9664527 0)
(-564.291333 0 0)
(-622.7726607 0 0)
(0 -599.6037405 0)
(0 0 0)
(0 0 0)
(0 0 0)
(0 0 0)
(0 0 0)
(0 0 0)
(0 0 0)
(0 0 0)
(0 0 0)
(0 0 0)
(0 0 0)
(0 0 0)
(0 -474.1779727 1.402103963e-12)
(0 0 0)
(0 0 0)
(0 0 0)
(0 0 0)
(0 0 0)
(0 0 0)
(0 0 0)
(0 0 0)
(0 0 0)
(0 0 0)
(0 0 0)
(0 0 0)
(0 0 0)
(0 0 0)
(0 0 0)
(875.5334304 802.5723141 0)
(0 -547.0045683 1.617446033e-12)
(0 0 0)
(0 0 0)
(0 0 0)
(0 0 0)
(0 0 0)
(0 0 0)
(0 0 0)
(0 0 0)
(913.387814 837.2721613 0)
(495.1730283 0 0)
(421.704745 0 0)
(534.673383 -490.1172668 0)
(0 0 0)
(370.4602458 339.588558 0)
(692.3602049 0 0)
(0 0 0)
(0 -719.8465698 0)
(0 0 0)
(0 -565.9024655 0)
(0 0 0)
(458.285376 420.0949272 0)
(570.6750809 0 0)
(707.7849588 0 0)
(492.4129822 0 0)
(227.0918081 0 0)
(680.5105609 0 0)
(337.8167242 0 -9.156540608e-13)
(0 0 0)
(0 0 0)
(0 0 0)
(0 0 0)
(592.0664614 0 0)
(0 0 0)
(0 0 0)
(0 0 0)
(0 -615.8719403 0)
(0 0 0)
(0 0 0)
(0 0 0)
(0 0 0)
(0 0 0)
(0 0 0)
(592.9986679 0 0)
(0 0 0)
(0 0 0)
(0 0 0)
(0 0 0)
(0 0 0)
(0 0 0)
(0 0 0)
(0 0 0)
(0 0 0)
(0 0 0)
(0 0 0)
(0 0 0)
(0 0 0)
(0 0 0)
(0 0 0)
(0 -778.701463 0)
(0 0 0)
(0 0 0)
(0 0 0)
(0 0 0)
(0 0 0)
(0 0 0)
(0 0 0)
(0 0 0)
(0 0 0)
(-346.6304522 0 0)
(-485.724736 0 0)
(-472.2476972 0 0)
(0 0 0)
(0 0 0)
(0 0 0)
(-496.6960924 0 0)
(-291.8872125 0 0)
(-364.3199344 0 0)
(-722.5351715 0 0)
(-530.7829404 0 0)
(0 0 0)
(0 0 0)
(0 0 0)
(0 0 0)
(0 -719.7134566 0)
(0 0 0)
(0 0 0)
(0 0 0)
(0 0 0)
(-384.1420854 -1646.323223 0)
(0 0 0)
(0 0 0)
(0 -1090.259117 0)
(0 0 0)
(-630.4788731 -577.9389691 0)
(0 0 0)
(0 0 0)
(0 0 0)
(0 720.5220469 0)
(0 0 0)
(0 -607.0016185 0)
(0 0 0)
(0 0 0)
(0 0 0)
(0 0 0)
(0 0 0)
(-1077.443704 987.6567326 0)
(-682.5321152 0 0)
(-402.0816181 0 0)
(-412.9761184 0 0)
(0 -449.0906395 0)
(0 0 0)
(0 0 0)
(0 0 0)
(0 0 0)
(0 0 0)
(1259.14674 1.259146836e-05 0)
(0 0 0)
(-1501.86381 2.289830633e-11 0)
(0 -630.4533566 0)
(0 0 0)
(0 0 0)
(0 0 0)
(0 0 0)
(-894.5489922 820.0032413 0)
(0 0 0)
(0 0 0)
(893.1978393 -818.764689 0)
(0 0 0)
(0 0 0)
(-4.480954916e-06 753.0518332 0)
(-8.93038596e-06 -1500.802484 0)
(0 0 0)
(0 0 0)
(0 0 0)
(0 0 0)
(0 813.9366002 0)
(0 0 0)
(0 0 0)
(0 0 0)
(0 0 0)
(0 0 0)
(0 -1562.859076 0)
(0 0 0)
(0 0 0)
(461.9942187 423.494702 0)
(0 -261.1342171 -7.721516933e-13)
(0 0 0)
(0 0 0)
(0 0 0)
(0 0 0)
(0 0 0)
(-348.990282 319.9077579 0)
(0 0 0)
(0 -483.3465491 0)
(0 0 0)
(0 0 0)
(0 0 0)
(0 0 0)
(0 0 0)
(0 -2032.672639 0)
(0 0 0)
(0 0 0)
(-1004.665288 1.531772289e-11 0)
(0 0 0)
(0 0 0)
(0 0 0)
(0 0 0)
(0 0 0)
(-745.5507553 -7.45550819e-06 0)
(0 0 0)
(0 0 0)
(0 307.996092 -9.107182758e-13)
(0 -279.5157383 0)
(0 0 0)
(0 0 0)
(0 0 0)
(0 0 0)
(0 0 0)
(0 0 0)
(-683.0431269 626.1228686 0)
(0 0 0)
(919.3477276 -842.7354154 0)
(0 0 0)
(0 0 0)
(0 0 0)
(0 0 0)
(0 0 0)
(0 0 0)
(0 0 0)
(0 0 0)
(0 0 0)
(0 0 0)
(0 0 0)
(0 0 0)
(0 0 0)
(0 0 0)
(0 0 0)
(0 0 0)
(-982.2673233 900.4117163 0)
(0 -440.4395879 0)
(0 0 0)
(0 0 0)
(0 0 0)
(0 0 0)
(0 0 0)
(0 0 0)
(0 0 0)
(-472.2692861 432.9135114 0)
(0 0 0)
(722.9319712 -662.6876427 0)
(0 0 0)
(0 0 0)
(0 0 0)
(0 0 0)
(0 0 0)
(0 0 0)
(0 0 0)
(0 0 0)
(0 0 0)
(0 0 0)
(0 0 0)
(0 0 0)
(0 0 0)
(0 0 0)
(979.2095554 -8.160514655e-07 0)
(0 0 0)
(0 0 0)
(0 -677.9636972 0)
(0 0 0)
(0 0 0)
(0 0 0)
(0 0 0)
(0 0 0)
(0 0 0)
(0 0 0)
(0 0 0)
(-556.4533743 510.0822589 1.508269902e-12)
(-313.0395626 0 8.484954392e-13)
(599.9908396 0 274.2815267)
(0 0 807.2996732)
(620.4356358 -568.7326651 1.68169417e-12)
(0 0 0)
(0 0 0)
(0 0 0)
(0 0 0)
(0 0 0)
(0 0 0)
(0 0 0)
(0 0 0)
(0 0 0)
(0 0 0)
(0 0 0)
(0 1021.286662 -0.0003019858839)
(0 0 0)
(0 0 0)
(0 0 0)
(0 -680.7391797 0)
(0 0 0)
(0 0 0)
(0 0 0)
(0 0 0)
(0 0 0)
(0 0 0)
(0 0 0)
(0 0 0)
(0 0 0)
(0 0 0)
(0 0 0)
(0 0 0)
(-791.4848698 725.5278 0)
(639.7246704 -586.4142801 -1.733977184e-12)
(0 0 0)
(0 0 0)
(0 0 0)
(0 0 0)
(0 0 0)
(0 0 0)
(0 0 0)
(0 0 0)
(0 0 0)
(0 0 0)
(-1292.981225 -1.0774848e-05 -3.504632623e-12)
(0 0 0)
(0 0 0)
(0 0 0)
(0 -260.6663908 0)
(0 0 0)
(0 0 0)
(0 0 0)
(0 0 0)
(0 0 0)
(0 0 0)
(0 0 0)
(0 0 0)
(0 0 0)
(0 0 0)
(0 0 0)
(0 0 0)
(0 0 0)
(0 1094.923192 0)
(0 0 0)
(0 0 0)
(0 0 0)
(0 0 0)
(1363.2919 1.40879885e-11 0)
(0 0 0)
(0 0 0)
(0 0 0)
(0 0 0)
(0 0 0)
(0 0 0)
(0 0 0)
(0 0 0)
(0 0 0)
(0 0 0)
(287.3611432 0 0)
(714.5863847 0 0)
(370.9465779 -340.0343625 -1.00545272e-12)
(0 0 0)
(0 0 0)
(0 0 0)
(0 0 0)
(0 0 0)
(0 0 0)
(0 0 0)
(0 0 0)
(0 0 0)
(0 0 0)
(-985.1009299 903.0091841 0)
(0 -1444.125988 0)
(0 0 0)
(0 0 0)
(573.4754082 525.6857899 0)
(-1056.582178 -968.5336615 0)
(0 0 0)
(0 0 0)
(0 0 0)
(0 0 0)
(0 0 0)
(0 0 0)
(0 0 0)
(0 0 0)
(0 0 0)
(0 0 0)
(0 0 0)
(0 0 0)
(0 0 0)
(0 0 0)
(0 0 0)
(0 0 0)
(0 0 0)
(0 0 0)
(774.5161243 -709.9731127 0)
(0 0 0)
(0 0 0)
(0 0 0)
(0 0 0)
(0 0 0)
(0 0 0)
(0 0 0)
(0 0 0)
(0 0 0)
(0 0 0)
(0 0 0)
(0 0 0)
(6.202719262e-06 1042.396686 0)
(-354.9346768 -325.3567883 0)
(0 0 0)
(0 0 0)
(0 0 0)
(0 0 0)
(0 0 0)
(4.369166676e-06 734.2602339 0)
(457.3699364 0 0)
(558.6035055 -512.0532124 1.514097827e-12)
(0 0 0)
(0 0 0)
(0 0 0)
(0 0 0)
(0 0 0)
(0 0 0)
(0 0 0)
(0 0 0)
(0 0 0)
(0 0 0)
(0 0 0)
(0 0 0)
(455.8599018 -417.8715781 -1.23561074e-12)
(0 0 0)
(0 0 0)
(0 0 0)
(0 0 0)
(0 0 0)
(0 0 0)
(0 0 0)
(0 0 0)
(0 0 0)
(0 0 0)
(0 0 0)
(0 0 0)
(0 0 0)
(0 0 0)
(0 0 0)
(0 0 0)
(0 0 0)
(0 0 0)
(0 0 0)
(0 596.8446292 -1.76481884e-12)
(0 0 0)
(-9.967482494e-06 -1675.098113 -4.953122745e-12)
(0 0 0)
(0 0 0)
(-2355.8183 0.008706866381 -0.00117067111)
(0 0 0)
(0 0 0)
(0 0 0)
(0 0 0)
(-547.3233436 0 0)
(0 0 0)
(0 0 0)
(0 0 0)
(0 0 0)
(890.9628794 -816.7159713 0)
(0 0 0)
(0 0 0)
(0 0 0)
(0 0 0)
(0 0 0)
(0 0 0)
(0 0 0)
(0 0 0)
(0 0 0)
(0 0 0)
(1594.789901 2.431511276e-11 0)
(0 0 0)
(0 0 0)
(0 0 0)
(0 0 0)
(0 0 0)
(0 0 0)
(0 0 0)
(-498.0637275 456.5584161 0)
(-542.4971453 -497.2890489 -1.470441467e-12)
(0 0 0)
(0 0 0)
(0 0 0)
(0 0 0)
(0 0 0)
(0 0 0)
(0 -315.0091364 -9.314552421e-13)
(0 0 0)
(-837.3434144 767.5647993 0)
(-659.8742619 0 0)
(-381.6942631 0 0)
(0 0 0)
(0 0 0)
(797.122152 -730.6953047 0)
(0 0 0)
(0 0 0)
(0 0 0)
(0 0 0)
(0 0 0)
(0 0 0)
(0 0 0)
(0 0 0)
(925.1353926 848.040775 0)
(-653.2236939 -598.7883883 0)
(0 0 0)
(0 0 0)
(0 0 0)
(0 0 0)
(0 0 0)
(0 0 0)
(0 0 0)
(0 0 0)
(0 0 0)
(0 0 0)
(0 0 0)
(0 0 0)
(0 0 0)
(0 0 0)
(0 -455.7047649 -1.347480257e-12)
(0 0 0)
(0 0 0)
(0 0 0)
(0 0 0)
(-798.982508 732.400631 0)
(-325.196268 0 0)
(0 0 0)
(958.3862173 -878.5207024 0)
(0 0 0)
(0 0 0)
(0 0 0)
(0 0 0)
(897.9828396 823.1509392 0)
(617.837877 0 0)
(503.5210829 0 0)
(0 -348.5367641 0)
(0 0 0)
(0 0 0)
(0 0 0)
(0 0 0)
(0 0 0)
(-7.557741476e-06 1270.123181 0)
(-1.036021867e-05 -1741.099896 0)
(0 0 0)
(1044.193243 957.1771428 0)
(557.3409927 -510.8959118 -1.510675788e-12)
(0 0 0)
(0 0 0)
(0 0 0)
(0 0 0)
(0 0 0)
(0 -686.9130696 2.031143585e-12)
(0 0 0)
(0 0 0)
(0 0 0)
(0 0 0)
(0 0 0)
(0 0 0)
(-1049.877262 962.3874882 0)
(0 0 0)
(222.3755479 0 0)
(455.6463485 0 0)
(348.4842074 0 0)
(498.6138804 0 0)
(0 0 0)
(0 0 0)
(0 0 0)
(-449.2512799 -411.8136725 0)
(0 0 0)
(0 0 0)
(0 0 0)
(0 0 0)
(0 0 0)
(0 0 0)
(0 0 0)
(0 0 0)
(-1032.779618 946.7146484 0)
(0 -294.2032036 -8.699338769e-13)
(0 0 0)
(1118.455895 5.494740191e-12 0)
(0 0 0)
(0 0 0)
(0 0 0)
(0 -304.0387726 8.990168087e-13)
(0 0 0)
(0 0 0)
(0 0 0)
(0 0 0)
(0 0 0)
(0 0 0)
(0 0 0)
(-650.1127025 595.9366461 -1.762134011e-12)
(-629.3495464 0 0)
(0 0 0)
(0 0 0)
(0 0 0)
(0 0 0)
(0 0 0)
(-966.8587265 -886.2871692 0)
(0 0 0)
(0 0 0)
(0 0 0)
(0 0 0)
(0 0 0)
(1060.700842 0 0)
(0 0 0)
(0 0 0)
(0 0 0)
(0 0 0)
(0 1280.862562 0)
(0 0 0)
(-1106.164957 1013.984547 0)
(374.8678297 0 0)
(309.2254611 0 0)
(0 -638.3798757 0)
(0 0 0)
(0 0 0)
(0 0 0)
(0 0 0)
(0 0 0)
(0 0 0)
(0 0 0)
(0 0 0)
(0 0 0)
(-373.422532 342.303987 0)
(-592.1957692 0 0)
(-474.5981034 0 0)
(0 0 0)
(-692.3914046 -634.6921197 -1.876730652e-12)
(0 0 0)
(0 0 0)
(0 0 0)
(0 0 0)
(0 0 0)
(0 0 0)
(0 277.5988645 0)
(703.5104423 0 0)
(971.7190951 -890.7425071 0)
(0 0 0)
(0 0 0)
(0 523.19905 0)
(986.9514 -904.7054533 0)
(0 0 0)
(0 415.7029791 0)
(-267.5288673 0 0)
(0 -360.7221114 0)
(0 0 0)
(0 0 0)
(0 0 0)
(0 0 0)
(0 0 0)
(0 0 0)
(0 0 0)
(0 0 0)
(0 0 0)
(0 0 0)
(0 0 0)
(0 0 0)
(0 -531.5531995 0)
(0 0 0)
(0 0 0)
(0 0 0)
(0 0 0)
(0 0 0)
(0 0 0)
(0 0 0)
(0 601.8997882 0)
(0 0 0)
(0 0 0)
(708.3001664 0 0)
(307.9315879 0 0)
(-398.5377332 0 -1.080238696e-12)
(-661.2147646 0 0)
(534.2505638 0 0)
(0 -327.5500252 0)
(0 0 0)
(0 -505.0745583 0)
(0 0 0)
(0 0 0)
(0 0 0)
(0 0 0)
(0 0 0)
(0 0 0)
(0 0 0)
(0 0 0)
(0 0 0)
(0 0 0)
(0 0 0)
(5.245368076e-06 881.5151464 0)
(-751.9680578 -689.3040555 0)
(0 0 0)
(0 0 0)
(0 0 0)
(0 0 0)
(0 0 0)
(0 0 0)
(0 0 0)
(0 728.8351858 0)
(0 0 0)
(0 0 0)
(0 0 0)
(0 -695.3364032 0)
(0 0 0)
(0 0 0)
(0 267.0885006 0)
(0 -625.4139364 0)
(0 0 0)
(0 0 0)
(709.6512179 0 0)
(827.1179755 -758.1914803 0)
(0 0 0)
(0 0 0)
(0 0 0)
(0 0 0)
(0 0 0)
(0 0 0)
(0 0 0)
(0 0 0)
(0 0 0)
(0 0 0)
(0 0 0)
(0 0 0)
(0 0 0)
(0 0 0)
(0 0 0)
(0 0 0)
(378.0203858 346.5186882 0)
(493.7444175 0 -1.338296925e-12)
(-585.4154408 0 0)
(0 0 0)
(0 0 0)
(0 0 0)
(0 -536.9113509 0)
(0 0 0)
(0 0 0)
(0 350.1770032 0)
(0 0 0)
(547.6189705 0 0)
(0 0 0)
(0 0 0)
(0 0 0)
(508.2673407 0 0)
(426.5753334 0 0)
(303.3259077 0 0)
(539.4375343 0 0)
(514.8362182 0 0)
(298.5388966 0 0)
(497.2199509 0 0)
(538.6278023 -493.7421513 0)
(0 0 0)
(0 0 0)
(0 0 0)
(0 0 0)
(0 0 0)
(0 0 0)
(0 1821.835743 0)
(790.1081831 0 0)
(-322.7977045 0 0)
(-391.7910747 -359.1418178 0)
(0 0 0)
(-958.604523 878.7208112 0)
(0 0 0)
(0 0 0)
(-583.3935386 0 0)
(242.5184213 0 -6.573475016e-13)
(602.3714149 0 0)
(0 0 0)
(0 0 0)
(0 0 0)
(0 0 0)
(0 0 0)
(-361.2209202 0 0)
(-431.2810428 0 0)
(-418.8774036 0 0)
(-391.8169214 0 0)
(0 0 0)
(0 0 0)
(0 0 0)
(0 0 0)
(0 0 0)
(591.4931272 -542.2020323 0)
(0 0 0)
(0 0 0)
(0 0 0)
(0 0 0)
(0 0 0)
(0 0 0)
(0 0 0)
(0 0 0)
(0 0 0)
(0 0 0)
(0 0 0)
(-588.1334838 539.1223621 0)
(0 -276.0857135 0)
(0 0 0)
(0 436.9756221 0)
(0 0 0)
(0 0 0)
(0 0 0)
(0 0 0)
(0 0 0)
(0 -758.218705 0)
(0 0 0)
(0 0 0)
(0 0 0)
(0 0 0)
(-443.4089709 406.4582226 0)
(0 0 0)
(0 0 0)
(0 0 0)
(0 0 0)
(0 0 0)
(685.7625703 -628.6156917 0)
(0 0 0)
(0 0 0)
(0 0 0)
(0 0 0)
(0 0 0)
(0 0 0)
(0 0 0)
(0 0 0)
(0 0 0)
(0 0 0)
(0 0 0)
(0 538.4274325 0)
(693.1220888 0 0)
(0 0 0)
(0 0 0)
(0 0 0)
(0 0 0)
(0 0 0)
(0 0 0)
(0 -671.1730222 0)
(0 0 0)
(0 0 0)
(0 0 0)
(0 0 0)
(0 0 0)
(0 535.5109116 0)
(0 0 0)
(0 0 0)
(0 0 0)
(0 0 0)
(0 0 0)
(747.0424062 -684.7888711 0)
(0 0 0)
(0 0 0)
(0 0 0)
(0 0 0)
(0 0 0)
(0 0 0)
(0 0 0)
(0 0 0)
(0 0 0)
(0 0 0)
(0 739.0396065 0)
(0 0 0)
(0 0 0)
(0 0 0)
(0 0 0)
(0 0 0)
(0 0 0)
(0 0 0)
(0 0 0)
(692.4296479 -634.7271761 0)
(0 0 0)
(0 0 0)
(0 0 0)
(0 0 0)
(0 642.4326583 0)
(0 0 0)
(0 0 0)
(0 0 0)
(0 0 0)
(0 0 0)
(0 -270.394861 0)
(0 0 0)
(0 0 0)
(0 0 0)
(0 0 0)
(0 0 0)
(0 0 0)
(0 0 0)
(0 0 0)
(0 0 0)
(0 0 0)
(0 411.9738868 0)
(0 0 0)
(0 0 0)
(0 0 0)
(0 0 0)
(0 0 0)
(0 0 0)
(0 0 0)
(0 0 0)
(0 -254.0169445 0)
(0 0 0)
(0 0 0)
(0 0 0)
(580.3557425 531.9927659 0)
(0 0 0)
(0 0 0)
(0 0 0)
(-367.8325023 0 0)
(0 0 0)
(0 0 0)
(0 -727.35881 0)
(0 0 0)
(0 0 0)
(0 0 0)
(0 0 0)
(0 0 0)
(0 0 0)
(0 0 0)
(0 0 0)
(0 0 0)
(0 0 0)
(-441.1232548 404.3629828 0)
(-687.9845433 0 0)
(0 0 0)
(0 0 0)
(0 0 0)
(0 0 0)
(0 0 0)
(0 0 0)
(0 0 0)
(0 0 0)
(221.0336121 0 -5.991128093e-13)
(489.6898811 0 0)
(311.0143874 0 0)
(0 0 0)
(0 0 0)
(0 0 0)
(-836.7701066 -767.039263 0)
(0 0 0)
(-355.4049493 325.7878696 0)
(0 0 0)
(0 0 0)
(899.5858894 -824.6203971 0)
(0 0 0)
(0 0 0)
(0 0 0)
(0 0 0)
(0 0 0)
(0 0 0)
(0 0 0)
(0 0 0)
(0 0 0)
(0 0 0)
(0 0 0)
(0 598.443924 -1.769547838e-12)
(0 0 0)
(0 0 0)
(-375.794776 0 0)
(-304.7408789 0 0)
(0 0 0)
(0 0 0)
(0 0 0)
(0 0 0)
(0 0 0)
(0 0 0)
(-563.1215028 0 0)
(-273.6229644 0 0)
(-520.022461 -476.6872576 0)
(0 0 0)
(0 0 0)
(0 0 0)
(0 758.699589 0)
(0 0 0)
(0 -633.1605786 0)
(0 0 0)
(0 0 0)
(0 0 0)
(0 0 0)
(0 0 0)
(0 0 0)
(0 0 0)
(0 0 0)
(0 0 0)
(0 0 0)
(0 0 0)
(-555.7195628 509.4096011 0)
(0 0 0)
(0 -522.3141529 0)
(0 0 0)
(0 0 0)
(0 0 0)
(0 0 0)
(0 0 0)
(0 0 0)
(0 0 0)
(0 -486.1988001 0)
(0 0 0)
(0 0 0)
(0 0 0)
(0 0 0)
(0 0 0)
(0 0 0)
(0 583.5164049 0)
(0 0 0)
(0 -293.7312222 -8.685382583e-13)
(0 0 0)
(0 0 0)
(0 0 0)
(0 0 0)
(0 0 0)
(0 0 0)
(0 0 0)
(0 0 0)
(0 0 0)
(0 0 0)
(0 0 0)
(0 0 0)
(-478.3091124 438.4500189 0)
(-781.2717501 -716.1657697 0)
(0 0 0)
(0 0 0)
(0 0 0)
(-245.0003799 0 0)
(0 0 0)
(-568.4546821 0 0)
(-390.7578047 0 0)
(-739.1049947 -677.5129106 0)
(0 0 0)
(0 0 0)
(0 0 0)
(0 0 0)
(0 0 0)
(0 0 0)
(0 767.7970865 0)
(0 0 0)
(0 -489.4558722 0)
(0 0 0)
(0 0 0)
(0 0 0)
(1784.858965 1.814201229e-11 0)
(0 0 0)
(0 0 0)
(0 0 0)
(0 0 0)
(0 0 0)
(0 0 0)
(0 0 0)
(0 0 0)
(0 0 0)
(0 0 0)
(0 0 0)
(0 0 0)
(0 -382.0553288 1.129705134e-12)
(0 0 0)
(-2139.033074 2.101724527e-11 0)
(0 0 0)
(0 0 0)
(0 0 0)
(0 0 0)
(0 0 0)
(0 0 0)
(0 0 0)
(0 0 0)
(0 0 0)
(-441.3565557 404.5768442 0)
(0 0 0)
(0 0 0)
(470.5202414 0 0)
(393.2322969 0 0)
(673.6441293 0 0)
(0 0 0)
(564.00296 -517.0027124 0)
(0 0 0)
(0 0 0)
(0 0 0)
(0 0 0)
(0 0 0)
(0 0 0)
(0 0 0)
(0 0 0)
(0 0 0)
(0 0 0)
(0 0 0)
(0 -428.758715 0)
(0 0 0)
(0 0 0)
(0 0 0)
(0 0 0)
(0 0 0)
(0 0 0)
(0 0 0)
(0 0 0)
(0 0 0)
(0 0 0)
(0 0 0)
(0 0 0)
(0 677.0919888 0)
(0 0 0)
(0 0 0)
(0 0 0)
(0 0 0)
(0 0 0)
(-569.4352533 -521.9823145 0)
(0 0 0)
(0 0 0)
(0 0 0)
(0 0 0)
(0 0 0)
(0 0 0)
(0 0 0)
(0 0 0)
(0 0 0)
(0 0 0)
(-1483.403473 0 0)
(0 -359.1989661 0)
(0 0 0)
(0 0 0)
(0 0 0)
(0 0 0)
(0 0 0)
(0 0 0)
(0 0 0)
(0 0 0)
(0 0 0)
(0 0 0)
(0 0 0)
(0 0 0)
(0 402.3706745 0)
(0 0 0)
(0 0 0)
(0 0 0)
(0 0 0)
(0 -421.1783128 0)
(0 0 0)
(0 0 0)
(0 0 0)
(0 0 0)
(0 0 0)
(0 0 0)
(0 0 0)
(0 0 0)
(0 0 0)
(0 0 0)
(0 0 0)
(0 0 0)
(0 -589.4272651 0)
(0 0 0)
(0 0 0)
(0 0 0)
(0 0 0)
(0 0 0)
(0 0 0)
(0 0 0)
(0 0 0)
(0 0 0)
(0 0 0)
(0 0 0)
(0 0 0)
(0 284.8627898 0)
(0 0 0)
(0 0 0)
(0 0 0)
(0 0 0)
(0 -767.9135257 0)
(0 0 0)
(0 0 0)
(0 0 0)
(0 0 0)
(0 0 0)
(0 0 0)
(0 0 0)
(0 0 0)
(0 0 0)
(0 0 0)
(0 0 0)
(0 0 0)
(0 -532.8809732 -1.575683746e-12)
(0 0 0)
(0 0 0)
(0 0 0)
(0 0 0)
(0 0 0)
(0 0 0)
(0 0 0)
(0 0 0)
(0 0 0)
(0 0 0)
(0 0 0)
(0 0 0)
(0 254.8345773 0)
(0 0 0)
(0 0 0)
(0 0 0)
(0 0 0)
(0 -678.409557 0)
(0 0 0)
(0 0 0)
(0 0 0)
(0 0 0)
(0 0 0)
(0 0 0)
(0 0 0)
(0 0 0)
(0 0 0)
(0 0 0)
(0 0 0)
(0 0 0)
(0 -353.5262901 0)
(0 0 0)
(0 0 0)
(0 0 0)
(0 0 0)
(0 0 0)
(0 0 0)
(0 0 0)
(0 0 0)
(0 0 0)
(0 0 0)
(0 0 0)
(0 0 0)
(0 496.5988337 0)
(0 0 0)
(0 0 0)
(0 0 0)
(0 0 0)
(0 0 0)
(617.0802015 -565.6568503 0)
(0 0 0)
(0 0 0)
(0 0 0)
(0 0 0)
(0 0 0)
(0 0 0)
(0 0 0)
(0 0 0)
(0 0 0)
(0 0 0)
(0 0 0)
(0 0 0)
(420.5557988 0 0)
(273.1256849 0 0)
(357.8139838 -327.9961513 -9.698567413e-13)
(0 0 0)
(0 0 0)
(0 0 0)
(0 0 0)
(0 0 0)
(0 0 0)
(0 0 0)
(0 0 0)
(1064.820508 976.085464 0)
(0 0 0)
(0 0 0)
(0 0 0)
(0 0 0)
(0 0 0)
(0 0 0)
(0 0 0)
(435.5200182 0 0)
(504.8973968 -462.8226129 0)
(0 0 0)
(0 0 0)
(0 0 0)
(0 0 0)
(0 0 0)
(0 0 0)
(0 0 0)
(0 0 0)
(0 0 0)
(0 0 0)
(0 0 0)
(0 0 0)
(0 0 0)
(634.3097114 -581.4505709 0)
(0 0 0)
(0 0 0)
(0 0 0)
(0 0 0)
(0 0 0)
(0 0 0)
(-1.245209867e-05 2092.648807 0)
(-390.8933127 0 0)
(-619.8772411 0 0)
(-642.627421 0 -1.741845105e-12)
(-539.0774051 0 0)
(0 0 0)
(0 0 0)
(0 0 0)
(0 0 0)
(0 0 0)
(-377.0696703 -345.6471971 0)
(0 0 0)
(0 0 0)
(0 0 0)
(0 0 0)
(0 0 0)
(0 0 0)
(548.2058342 502.5220165 0)
(497.3029771 -455.861064 0)
(0 0 0)
(0 0 0)
(0 0 0)
(0 0 0)
(0 0 0)
(0 -451.7968217 0)
(0 0 0)
(0 0 0)
(0 0 0)
(0 0 0)
(0 0 0)
(0 0 0)
(0 0 0)
(0 0 0)
(0 0 0)
(0 0 0)
(0 0 0)
(0 732.6776206 0)
(0 0 0)
(0 0 0)
(0 0 0)
(0 -291.0728575 0)
(0 0 0)
(0 0 0)
(0 0 0)
(0 0 0)
(0 0 0)
(0 0 0)
(0 0 0)
(0 592.8953568 0)
(0 0 0)
(437.8073334 -401.3233882 0)
(0 0 0)
(0 0 0)
(0 0 0)
(0 0 0)
(0 0 0)
(481.6048239 0 0)
(435.6677711 0 0)
(531.4961418 0 0)
(471.1990288 0 -1.27718752e-12)
(701.5878414 0 0)
(509.5609137 0 0)
(515.0979191 0 0)
(511.9071679 0 0)
(272.3571223 0 0)
(646.3492263 0 -1.751933079e-12)
(385.6548186 0 0)
(0 0 0)
(0 0 0)
(0 0 0)
(0 0 0)
(0 0 0)
(555.1770864 0 0)
(294.6252587 0 0)
(575.2300992 0 0)
(590.6247158 0 0)
(241.4474417 0 0)
(260.1517711 0 0)
(395.7150068 0 0)
(0 0 0)
(0 0 0)
(0 0 0)
)
;

boundaryField
{
    walls
    {
        type            calculated;
        value           uniform (0 0 0);
    }
    wallFilmFace_top
    {
        type            calculated;
        value           uniform (0 0 0);
    }
    region0_to_wallFilmRegion_wallFilmFace
    {
        type            calculated;
        value           uniform (0 0 0);
    }
    mirrorFace_top
    {
        type            calculated;
        value           nonuniform List<vector> 0();
    }
    region0_to_wallFilmRegion_mirrorFace
    {
        type            calculated;
        value           nonuniform List<vector> 0();
    }
    procBoundary1to0
    {
        type            processor;
        value           uniform (0 0 0);
    }
    procBoundary1to2
    {
        type            processor;
        value           uniform (0 0 0);
    }
}


// ************************************************************************* //
