/*--------------------------------*- C++ -*----------------------------------*\
  =========                 |
  \\      /  F ield         | OpenFOAM: The Open Source CFD Toolbox
   \\    /   O peration     | Website:  https://openfoam.org
    \\  /    A nd           | Version:  8
     \\/     M anipulation  |
\*---------------------------------------------------------------------------*/
FoamFile
{
    version     2.0;
    format      ascii;
    class       volScalarField;
    location    "0.7/wallFilmRegion";
    object      delta;
}
// * * * * * * * * * * * * * * * * * * * * * * * * * * * * * * * * * * * * * //

dimensions      [0 1 0 0 0 0 0];

internalField   nonuniform List<scalar> 
1369
(
0.00174162717
4.208321163e-05
3.360115231e-05
3.235039982e-05
3.602744114e-05
4.178256156e-05
4.973056737e-05
0.001874809555
3.265295163e-05
2.620629442e-05
2.725509224e-05
3.422730068e-05
4.258061951e-05
5.305494959e-05
8.649411321e-05
0.0001749488503
0.0002885458915
0.0004051165039
0.002057571192
2.874931662e-05
2.542872038e-05
3.000427537e-05
4.084681574e-05
4.85625769e-05
4.821710974e-05
4.287691722e-05
4.092969831e-05
5.54699875e-05
8.287717641e-05
4.309511972e-05
5.239273838e-05
0.002326587603
2.962032604e-05
3.17638214e-05
4.177133777e-05
5.692958171e-05
6.293404492e-05
5.828145771e-05
5.095686933e-05
4.934459886e-05
6.01057983e-05
8.427520848e-05
6.32876044e-05
5.880079079e-05
1.995150686e-05
6.009027623e-05
9.515839844e-05
0.0001333518335
0.002759570735
3.746655321e-05
5.017456451e-05
6.723357093e-05
8.512514846e-05
8.78498449e-05
8.322732334e-05
8.349955482e-05
9.354366415e-05
0.0001132463023
0.0001380483554
0.0001553323421
0.0001147705168
6.311269372e-05
0.0001263064896
0.0001626846384
0.0002040676383
0.0002069348666
1.222410087e-05
0.003398003679
7.690885855e-05
0.0001024913255
0.0001194706647
0.0001288598177
0.0001237611645
0.0001244488466
0.0001411729101
0.0001704803438
0.0002026002811
0.0002257578469
0.0002352574293
0.0002344126828
0.0002147157059
0.0002383074249
0.0002851498063
0.0003124926147
0.000286796241
3.341176607e-05
1.022619177e-05
5.40671518e-07
5.080647087e-08
5.155540719e-05
0.004010321965
0.0002783657426
0.0002364514503
0.0001919265853
0.000162387286
0.0001476231686
0.000154606778
0.000176409816
0.0002018052157
0.0002201948649
0.0002287329422
0.0002539771169
0.0003422723691
0.0004338848784
0.0004475583999
0.0005152253226
0.0004499413713
0.0002962670148
4.561963047e-05
4.883490953e-05
3.448271662e-05
1.145513893e-05
6.003333299e-05
7.779518052e-06
3.618435088e-05
0.00356242083
0.0003339337775
0.0002546556011
0.0001758801577
0.0001410246451
0.0001363343395
0.0001439162002
0.0001489274775
0.0001450000557
0.0001331984307
0.0001204214125
0.0001190028171
0.0001475223006
0.0002420010056
0.0005286566453
0.0007811185695
0.0006648411103
0.0002623666238
2.312393298e-05
1.37504864e-07
1.255361832e-06
1.750231969e-06
0.000101756318
3.202861169e-05
2.289570151e-05
0.0001059022076
0.002511216915
0.0001009305321
8.453601776e-05
8.409835177e-05
9.656068743e-05
0.0001137641889
0.0001244866893
0.0001183203395
9.65422006e-05
7.099960754e-05
5.824157237e-05
6.87265507e-05
9.942148754e-05
0.0001175201519
0.0003472365144
0.0003601605174
0.0004241402078
0.0004694118154
1.896267219e-05
2.067603618e-07
1.608067971e-08
1.705570605e-08
7.17220993e-08
0.0001242818301
2.524994708e-05
0.0001097720617
0.002295444622
5.883765593e-05
5.055221948e-05
5.80660901e-05
7.718599392e-05
0.0001015835431
0.0001230832534
0.0001253024616
0.0001042602384
7.424125901e-05
6.467246319e-05
0.0001012813966
0.0001458960687
2.749688652e-05
6.008812842e-05
4.732126226e-05
8.641336384e-05
0.000672214071
2.226116465e-05
4.060549898e-07
3.14335776e-08
1.232184959e-08
2.180566216e-08
0.0002249076301
3.552423861e-05
7.870413076e-05
0.000146532493
0.002346428605
5.516492756e-05
4.249780244e-05
4.706262162e-05
6.247025445e-05
8.451664106e-05
0.0001109171947
0.0001295176626
0.0001209001646
8.470687644e-05
4.175269973e-05
2.071889008e-05
2.849649661e-05
7.085173591e-05
0.0001363707724
9.394395821e-06
1.202779886e-05
0.0001650994905
1.346653675e-05
4.500435859e-08
5.155910052e-09
1.044982669e-08
2.113263117e-08
0.000175276418
2.759245848e-05
4.671325725e-05
0.000248286966
0.002317697279
4.992797091e-05
3.684144989e-05
4.025270302e-05
5.191339617e-05
6.758620957e-05
8.575870539e-05
0.000106632193
0.0001196209743
0.000103212315
5.993218026e-05
2.648910453e-05
1.476419106e-05
1.441636471e-05
2.122884854e-05
6.647097948e-06
4.150858765e-06
4.542902413e-06
3.214007542e-06
7.372388668e-08
9.939035898e-09
1.642361941e-08
2.070030167e-08
1.481394806e-05
2.975026327e-06
5.632351722e-05
0.0002007196529
0.002233250451
4.651923155e-05
3.620889911e-05
4.057450894e-05
5.080746449e-05
6.119664044e-05
7.050004017e-05
8.387314428e-05
0.0001134383229
0.0001475649453
0.0001345190677
7.291819245e-05
2.920495326e-05
1.617204792e-05
3.614780748e-05
7.023716443e-06
3.336801802e-06
3.579199531e-06
5.094473391e-06
2.096719131e-07
2.581179417e-08
3.049435393e-08
2.865944852e-08
2.829929248e-08
6.229091255e-08
0.0001577975418
5.519871066e-05
9.130575469e-05
0.002112594181
4.20337404e-05
3.460640955e-05
3.87130695e-05
4.598106907e-05
5.000755432e-05
5.010348956e-05
5.347066383e-05
7.922009328e-05
0.0001609786029
0.0002889441394
0.0003246743178
0.0002157967246
0.0001098189578
9.142060257e-05
1.1475593e-05
3.389863865e-06
3.382340476e-06
1.04672035e-05
7.818296581e-07
9.587603392e-08
6.884838062e-08
4.22298358e-08
2.967224791e-08
6.213496292e-08
0.0003544671218
6.037600128e-05
3.697712644e-05
1.813169726e-05
0.002105493569
6.06102434e-05
4.430501321e-05
3.63988033e-05
3.806461397e-05
3.79177741e-05
3.20314568e-05
2.296142321e-05
1.545107357e-05
1.105919114e-05
8.83489167e-06
7.619436666e-06
1.599148577e-05
0.000156664204
0.0002099481872
3.551691522e-05
5.666670913e-06
4.451638373e-06
2.155638723e-05
6.327550935e-05
2.175741746e-05
2.158236317e-06
1.422665622e-06
1.075816255e-06
9.966785265e-07
0.0001336709514
1.470756009e-05
5.477868115e-06
1.593499999e-06
0.00239386918
9.779385189e-05
8.213281789e-05
5.793188721e-05
4.718029399e-05
3.719311931e-05
2.598836757e-05
1.519162744e-05
7.885074991e-06
4.091412014e-06
2.17130975e-06
1.035255569e-06
2.288493343e-06
2.161105191e-05
0.0001512548483
8.946958557e-05
1.63510108e-05
9.184057945e-06
6.412095596e-05
0.0002069030831
3.415575117e-05
7.009458485e-06
4.639234049e-06
3.484782937e-06
3.436158663e-06
9.500144201e-05
1.646844129e-05
1.82955766e-05
1.791275252e-05
0.003327796507
0.0002498451348
0.000178327711
0.0001068645143
6.409355553e-05
3.563453192e-05
1.817635021e-05
9.197261027e-06
5.188727173e-06
3.368853858e-06
2.526840215e-06
2.325110671e-06
5.21476135e-06
2.379968136e-05
0.0001138228855
0.0001027251577
4.76655189e-05
3.017222783e-05
0.0002797420576
0.000295989952
2.808115656e-05
5.696820233e-05
6.803256058e-05
6.468397067e-05
1.187146769e-05
7.252684635e-06
3.047807353e-05
1.601509756e-05
1.047892146e-05
2.433002428e-05
1.035224582e-05
3.074027891e-07
2.042988757e-08
6.075606569e-06
0.003688677022
0.0008564944928
0.0007271660007
0.0002317378295
0.0001072791099
4.742448626e-05
2.367260706e-05
1.543247703e-05
1.335971267e-05
1.409823451e-05
1.632101192e-05
2.050998259e-05
2.934349855e-05
4.42067656e-05
6.159890894e-05
8.23016356e-05
8.696740464e-05
0.0001028655503
0.0003980491464
9.927490667e-05
1.203435145e-05
2.992114012e-06
9.534870422e-06
4.756262654e-05
0.0001479000429
0.0001541375985
0.0002992821102
5.940520517e-05
5.741398474e-06
6.060713743e-06
3.100088463e-05
1.029456208e-08
4.494056226e-06
2.435237107e-05
0.002385665085
0.0003480491143
0.0006693518846
0.0004270025974
0.0002458421146
0.0001103863186
4.640692909e-05
2.405878198e-05
1.703711048e-05
1.550597934e-05
1.702138718e-05
2.214046314e-05
3.175843257e-05
4.411431914e-05
5.747837534e-05
7.185641407e-05
8.288593954e-05
8.134722803e-05
4.658365945e-05
1.485328331e-05
4.760316781e-06
3.153325606e-06
2.975830721e-06
3.880465864e-06
4.257524785e-05
0.0001555718913
0.0004244050755
0.0002848477595
3.775342563e-05
5.17441731e-05
0.0001141099241
1.203836304e-06
1.680728523e-05
3.679035126e-05
0.001841560159
0.00016434444
0.0003377907194
0.000436955973
0.0004407439651
0.0003143304964
0.0001622352336
6.921597603e-05
3.014302053e-05
1.66353524e-05
1.170024491e-05
9.384908956e-06
8.30618392e-06
9.404832969e-06
1.473816536e-05
3.062924995e-05
6.776235205e-05
0.00010159918
4.730941282e-05
2.445178064e-05
2.170949268e-05
2.604659423e-05
2.959901558e-05
2.85365922e-05
1.377034374e-05
0.0001165086198
0.000256974223
3.01979815e-05
1.240827647e-05
1.594570171e-05
1.596331336e-05
1.467055753e-06
1.119672628e-06
0.001323635479
8.776795845e-05
0.0001474732907
0.0001930304879
0.0002630881526
0.0003333530699
0.0003025225133
0.0001820857459
7.860695276e-05
3.14515309e-05
1.711203614e-05
1.410472372e-05
1.589015317e-05
2.275778842e-05
4.003665938e-05
7.713045146e-05
0.0001352876292
0.0001034860496
3.128210902e-05
2.9720744e-05
4.787869717e-05
5.986385911e-05
5.234197282e-05
4.595410062e-05
1.41784136e-05
9.775626352e-05
7.206638374e-05
3.331257311e-05
1.762690304e-05
1.935110793e-05
2.976932208e-05
4.323643638e-05
0.0009010972122
8.007118009e-05
7.722223729e-05
6.533175954e-05
7.78413486e-05
0.0001242478861
0.0001931713651
0.00020543729
0.0001407746658
7.393383521e-05
4.655828001e-05
4.834500464e-05
7.027161451e-05
0.0001161275736
0.0001847109426
0.0002002214445
0.0001806079652
5.610510717e-05
1.37164303e-05
2.313815663e-05
5.112250352e-05
6.31648607e-05
0.0001353925297
0.0001159376966
1.704058328e-05
0.0003257668953
0.0001974593103
6.35302793e-05
5.374578162e-05
1.055626469e-05
1.511639961e-05
3.896528143e-05
0.001116100191
6.243195549e-05
4.078095868e-05
2.788230394e-05
3.142604671e-05
5.115468728e-05
9.308111478e-05
0.0001468660578
0.0001651545491
0.0001366161416
0.0001108738216
0.0001259247728
0.0002086511788
0.0004435757262
0.0008357378132
0.0005446958956
0.0001009268925
7.272063133e-06
3.412532739e-06
1.196831846e-05
7.494290145e-05
6.566860975e-05
5.076295198e-05
2.250806165e-05
2.152785158e-06
0.0002666949706
0.001058498756
9.117058855e-05
0.0001221119299
6.780429562e-05
3.183209455e-05
2.298789894e-05
0.001130935378
1.570232074e-05
1.275802666e-05
1.058263321e-05
1.209129483e-05
1.886335807e-05
3.750421042e-05
7.515818814e-05
0.0001199193756
0.0001454334838
0.0001497901422
0.0001716249252
0.0002664393562
0.0004644134131
0.0004832839683
0.0002060689988
2.744849713e-05
1.838441531e-07
6.454140851e-07
4.637101454e-06
1.958744104e-05
0.0001038854208
3.561966441e-05
9.332892126e-06
4.099416889e-06
6.793645726e-05
0.0001308055735
6.700403982e-05
0.0001363026554
0.0006924556059
0.0004869459082
0.001396400173
1.812452566e-05
1.085989441e-05
7.038973935e-06
6.082712744e-06
7.568443794e-06
1.321172425e-05
2.756488426e-05
5.38626047e-05
8.325947317e-05
0.0001004957954
0.00010483687
0.0001134141504
0.0002429422997
0.000168310284
7.268454515e-05
2.185348662e-05
8.361623713e-07
1.273692505e-06
3.168352632e-06
1.328838674e-05
0.0003537997758
0.0003318999186
0.000270136559
5.216503706e-05
4.36034851e-05
0.0001474100846
0.0001074421067
3.011850436e-05
0.0001441255789
0.0002814151397
0.001711240922
3.148099862e-05
1.949350629e-05
1.266438464e-05
9.278729568e-06
7.834074804e-06
8.294760366e-06
1.152798638e-05
1.928373151e-05
3.164420627e-05
4.299570088e-05
4.594499293e-05
4.970182331e-05
0.000408325426
7.266700117e-05
3.552524141e-05
1.823047603e-05
3.432832453e-06
7.376596211e-06
1.277917565e-05
3.143020624e-05
0.0005913961536
0.0008523527017
0.000585977171
0.0004054662334
0.0003334189878
0.0003998957651
0.0005175656745
0.0003426299866
0.0001200137015
5.191910465e-05
0.002028040602
4.815807034e-05
3.101444202e-05
2.044781523e-05
1.459377069e-05
1.119695526e-05
9.677306973e-06
9.606645021e-06
1.100292673e-05
1.416971052e-05
1.826145169e-05
2.627307029e-05
0.0001778726638
0.0002960252287
3.325579943e-05
3.772334418e-05
2.186141694e-05
7.173428309e-06
1.356051941e-05
1.71115809e-05
6.028972492e-05
0.0004310612708
0.00137502744
0.0007587148356
0.0005147591624
0.0003372465137
5.795817812e-05
1.947719983e-05
0.0001342691683
0.0004335543411
5.72376382e-05
0.002391301134
0.0001078916294
0.0001007819341
9.286857638e-05
8.382582455e-05
7.167579468e-05
6.499786356e-05
7.165456156e-05
8.904332813e-05
9.29901547e-05
8.416069922e-05
7.289134344e-05
6.629460468e-05
1.562798584e-05
6.91527846e-06
3.331701413e-05
5.429758546e-05
7.362030993e-05
9.511126248e-05
0.000130995389
0.0002377685779
0.0001670197179
0.0004143176563
0.000401767726
0.0001772624294
0.0001187236854
3.459850413e-05
6.121687998e-05
0.0003295406641
0.0003418035328
0.0002392391126
0.002796694385
0.0002943539475
0.0004423362121
0.0005531300033
0.0005668238295
0.0004240784208
0.0002056696252
0.000127967046
0.0001547910372
0.0001595555279
0.0001364477921
9.93010655e-05
6.215260779e-05
2.653241275e-05
1.066994632e-05
3.860402232e-05
7.61544599e-05
0.0001027273981
0.0001267386164
0.0001906762793
0.0001175446692
3.025202808e-05
0.0001381861059
0.0003787443615
0.0001673551451
0.0001035059429
0.0002259571536
0.0004269970316
0.0005307349723
0.0005366740437
0.000516707336
0.002924831142
0.0001705269408
0.000183288501
0.0001628930001
0.0001620471121
0.000162175166
0.0001691675084
0.0001615850719
0.0001894465644
0.000206169469
0.0001877884996
0.0001400342241
8.622297054e-05
4.495778669e-05
2.404389669e-05
3.661631505e-05
5.072713232e-05
5.876221648e-05
8.033745588e-05
4.944857182e-05
6.354718178e-06
1.916357425e-06
4.713038805e-06
0.0003775979197
0.0002477820703
7.616739097e-05
0.0002473752831
0.0004586421313
0.0002646930367
0.0003185235178
0.0004387128037
0.003241132587
0.0001270013063
8.50379614e-05
5.573867652e-05
5.312313733e-05
7.408616772e-05
0.0001293546598
0.0002349784826
0.0003447458576
0.00027591506
0.0002382032215
0.0001958080076
0.0001310585364
7.374275098e-05
3.960361309e-05
2.769412054e-05
2.707432179e-05
2.781740687e-05
3.152916225e-05
5.30144317e-06
1.531199841e-06
4.514124516e-07
8.170688346e-07
8.217224361e-06
0.0005207348383
0.0002646612534
0.0007679994781
0.0003982816659
0.0001466463293
0.0001695494526
0.0002522739969
0.003527860272
0.000132886498
9.460748431e-05
7.430888416e-05
6.483615003e-05
6.116643173e-05
7.308832325e-05
0.0002534068018
0.0006233374433
0.0003143714068
0.0002579750863
0.000239601391
0.0001814896904
0.0001109317718
5.550275194e-05
2.233849142e-05
1.834911981e-05
1.478961576e-05
1.076247021e-05
1.981813678e-06
3.802073263e-07
1.228596974e-07
1.082850606e-07
1.022511355e-05
0.0003396702613
0.0004393148405
0.0007561468616
0.0004046931153
0.000199501072
0.0002641079709
0.0003317323668
0.003668757397
0.0001386902515
0.000102797836
8.515311953e-05
7.665750249e-05
6.77197424e-05
6.527725382e-05
0.0002667817416
0.0007075663769
0.0002798414615
0.0002238077244
0.0002358459022
0.0002101454881
0.0001461142861
7.319636204e-05
2.240552311e-05
1.715896701e-05
1.108457994e-05
6.222179898e-06
1.619089174e-06
9.184167246e-08
2.200800155e-08
6.795288399e-08
6.549672961e-06
0.0002243828993
0.0003021878025
0.0003289361571
0.0003342459063
0.0003537273039
0.0006975412213
0.000682373133
0.003618292385
0.0001459538468
0.0001144125577
9.414237103e-05
9.042869278e-05
8.653188354e-05
9.998763023e-05
0.0002854564002
0.0005161287337
0.000195469816
0.0001526404597
0.0001828674687
0.0001983382255
0.000164219354
9.092785988e-05
2.866053606e-05
2.066854671e-05
1.173423863e-05
5.764662667e-06
1.802507827e-06
3.187732751e-07
9.0480259e-08
1.969558038e-07
4.814791977e-06
0.00015199123
0.0001862725792
0.0002223332574
0.000246716517
0.0002885312283
0.0004646589241
0.0009180223693
0.003391862558
0.000151591651
0.0001346806633
0.0001038278138
0.0001047709827
0.0001056504667
0.0001244810207
0.000224111362
0.0002870277988
0.0001147363834
9.121594763e-05
0.0001196272486
0.0001571306649
0.000159512584
0.0001049125325
4.108285393e-05
2.685906899e-05
1.43915948e-05
8.073935483e-06
2.28474518e-06
6.764884139e-07
2.103036559e-07
3.54524897e-07
4.492273905e-06
8.997316957e-05
8.633066317e-05
0.00019720513
0.0005532316156
0.0004992487492
0.0002322449123
0.0004798174765
0.003072037094
0.000145741329
0.000157888733
0.0001136288717
0.0001174190836
0.00011604796
0.0001166638873
0.000134826426
0.0001365502172
6.617340544e-05
5.86747041e-05
8.104609404e-05
0.0001193251266
0.0001445362919
0.0001148598526
5.727749521e-05
3.446991674e-05
2.209160353e-05
4.11285559e-05
2.989734495e-06
1.120946328e-06
3.685744125e-07
5.40689296e-07
5.120711432e-06
4.774672022e-05
3.218644765e-05
0.0001598209324
0.0004253290371
0.0003662051466
8.407821007e-05
9.305175356e-05
0.002750041415
0.0001264470854
0.0001623896901
0.0001181402563
0.0001242606466
0.0001158201892
9.394656684e-05
7.276383871e-05
6.536041958e-05
4.310107412e-05
4.613387976e-05
6.798734344e-05
0.000104186467
0.0001372021192
0.0001246472342
7.39707778e-05
4.338843482e-05
3.948301395e-05
9.801503293e-05
3.841105091e-06
1.596785633e-06
5.54827002e-07
8.356777558e-07
6.724245844e-06
2.634195418e-05
1.635338759e-05
9.085263045e-05
0.0001282729471
0.0001414682405
4.795367541e-05
4.367494584e-05
0.002474458007
0.0001012415553
0.0001377511858
0.0001097319032
0.0001173078875
0.000103930224
7.169137576e-05
4.189269651e-05
3.701971561e-05
3.308558418e-05
4.251480168e-05
6.675441092e-05
0.0001041019569
0.0001393259208
0.0001345798742
8.905905596e-05
5.223457641e-05
5.539537292e-05
0.0001599100011
5.121911043e-06
2.426880936e-06
9.502291848e-07
1.480575986e-06
9.750661795e-06
2.106398973e-05
2.605759981e-05
6.334666917e-05
5.560531898e-05
7.301246167e-05
5.060719765e-05
3.940633313e-05
0.002266723421
7.732492769e-05
0.0001005680437
8.842310964e-05
9.507255294e-05
8.225442738e-05
5.290996525e-05
2.859449245e-05
2.621482537e-05
2.833780463e-05
4.038458258e-05
6.588917654e-05
0.0001045954381
0.0001468867554
0.0001751738537
0.0002161028338
0.0003384956888
0.0006129418286
0.001263295819
0.0002143925516
9.839999243e-05
3.30408525e-05
6.484365867e-06
1.695526674e-05
2.435873156e-05
2.457371114e-05
3.706063121e-05
3.253596433e-05
5.162148715e-05
6.652129417e-05
6.192231949e-05
0.002141681268
5.879910034e-05
6.882528813e-05
6.279167501e-05
6.725762267e-05
5.824804058e-05
3.823257999e-05
2.319928742e-05
2.182920112e-05
2.51587173e-05
3.685915782e-05
6.066034736e-05
9.665031299e-05
0.0001360588768
0.0001550878829
0.0001574640028
0.0002038031027
0.0003616338761
0.0007555394753
0.0001096711078
4.787635368e-05
1.600805088e-05
7.294568639e-06
2.905690432e-05
2.425297389e-05
1.79735655e-05
2.17604921e-05
2.07941534e-05
2.850381933e-05
5.416960394e-05
0.0001026742887
0.002105172306
4.782483643e-05
4.922040826e-05
4.34015568e-05
4.523577491e-05
4.008881102e-05
2.928083321e-05
2.122009098e-05
1.996252726e-05
2.276498211e-05
3.262968531e-05
5.29571163e-05
8.443486163e-05
0.0001210711628
0.0001428355773
0.000134897754
0.0001321558929
0.0002052528122
0.0004347238462
5.047797162e-05
2.697481751e-05
1.656636597e-05
1.25897088e-05
4.069612559e-05
1.858251962e-05
1.270255891e-05
1.624736698e-05
1.771241559e-05
2.172442401e-05
3.637747582e-05
8.873471561e-05
0.002156107118
4.436179158e-05
4.105626352e-05
3.409024298e-05
3.402324302e-05
3.113085426e-05
2.573921547e-05
2.127095876e-05
1.993350338e-05
2.196026982e-05
2.996166827e-05
4.70782807e-05
7.485573294e-05
0.0001102890909
0.0001416406576
0.0001455129005
0.000128759274
0.0001431527917
0.0002614994707
4.823235565e-05
3.285020408e-05
2.364370693e-05
1.930779931e-05
4.198154433e-05
1.270534727e-05
1.114438064e-05
1.6561858e-05
2.04493173e-05
2.484092943e-05
3.471993003e-05
6.937943515e-05
0.002271488077
4.777729497e-05
4.084628425e-05
3.224280348e-05
3.091890985e-05
2.894330915e-05
2.605896387e-05
2.341742542e-05
2.241296855e-05
2.430719499e-05
3.154754356e-05
4.724215429e-05
7.394780565e-05
0.0001122524455
0.0001562703734
0.0001753876944
0.0001603091803
0.0001458180424
0.0001755083407
6.947413768e-05
4.600542775e-05
3.080716606e-05
2.389861059e-05
3.50919599e-05
1.057822429e-05
1.444861763e-05
2.24789435e-05
2.841062323e-05
3.409601584e-05
4.266744333e-05
6.540485338e-05
0.003390622371
7.231513273e-05
5.197076084e-05
3.909564208e-05
3.261343603e-05
3.083029952e-05
2.932936589e-05
2.826408002e-05
2.852035175e-05
3.159104577e-05
3.992757839e-05
5.680947394e-05
8.605176135e-05
0.0001334131545
0.000185613026
0.0002106678788
0.000204776605
0.0001897084587
0.0001836636798
0.0001310084311
8.995863423e-05
4.999206756e-05
2.690495774e-05
2.890018075e-05
1.195566959e-05
2.4523358e-05
3.32095265e-05
3.923664473e-05
4.514093085e-05
5.300483251e-05
6.857304375e-05
0.006342716974
0.000586961681
0.0003393990747
0.0001197031296
4.485095751e-05
3.563833098e-05
3.525486517e-05
3.620979531e-05
3.902305917e-05
4.511044221e-05
5.674937141e-05
7.679289525e-05
0.0001099974744
0.0001549479252
0.000194990451
0.0002249373326
0.0002425281222
0.0002559318756
0.0002722565213
0.0002672194286
0.0002150664445
0.0001020185875
3.241737141e-05
2.81318572e-05
1.857886745e-05
3.920023543e-05
4.353658286e-05
4.984548034e-05
6.235783766e-05
7.567513226e-05
7.423005428e-05
0.01689598949
0.001264458587
0.001461891304
0.003636932747
0.0007863608536
5.719423705e-05
4.665011787e-05
4.945614895e-05
5.506784748e-05
6.428112496e-05
7.835911576e-05
0.000101928847
0.0001250252038
0.0001388460067
0.0001600415095
0.0001945308348
0.0002429660585
0.0002869239449
0.0003105470789
0.0003008875197
0.0002356014553
0.0001237282738
4.46814121e-05
3.596273486e-05
3.165097394e-05
5.225401714e-05
5.171407351e-05
6.832130339e-05
0.0001686700081
0.0002537149257
9.779158102e-05
0.008370489003
0.0009698101875
0.0003128857876
0.0001371740122
0.0001289847957
5.976433324e-05
5.211706946e-05
5.404412944e-05
5.89713292e-05
6.625042364e-05
7.476600584e-05
8.287171219e-05
7.985056449e-05
7.270211676e-05
7.729996292e-05
9.578398019e-05
0.0001286160498
0.000158970406
0.0001605355567
0.0001355351234
0.0001083664928
9.259520385e-05
7.449783841e-05
6.183898978e-05
5.13782175e-05
4.366002797e-05
4.043742153e-05
5.115165522e-05
0.0001050466524
0.0001717239695
0.0001220600397
0.01126022324
0.01494517773
0.006111604894
0.002786446127
0.001894558869
0.001694430843
0.00161837638
0.001535293064
0.001446876098
0.001348893027
0.001233451901
0.0011028551
0.0009848379874
0.000986772495
0.001247460257
0.001823496755
0.002497667616
0.002832802664
0.002625461205
0.002118513206
0.001652135723
0.001304265386
0.001170526749
0.00213316384
0.001470948323
0.0007081693216
0.0008212689444
0.001241327665
0.001816599036
0.002280859241
0.002291985338
)
;

boundaryField
{
    walls
    {
        type            zeroGradient;
    }
    wallFilmFace_top
    {
        type            zeroGradient;
    }
    region0_to_wallFilmRegion_wallFilmFace
    {
        type            zeroGradient;
    }
    mirrorFace_top
    {
        type            zeroGradient;
    }
    region0_to_wallFilmRegion_mirrorFace
    {
        type            zeroGradient;
    }
    procBoundary1to0
    {
        type            processor;
        value           nonuniform List<scalar> 
52
(
0.001653174694
5.834885688e-05
4.798046654e-05
4.418478467e-05
4.385440859e-05
4.466899757e-05
4.638582846e-05
7.067725949e-05
7.067725949e-05
0.0001301525647
0.0002174853117
0.0003076904695
0.0005479076971
0.0005479076971
0.0006379051302
1.925496023e-05
1.925496023e-05
3.545305301e-05
4.819639666e-05
8.677920261e-05
0.0001419114352
0.0001419114352
5.757913748e-06
5.023056093e-07
5.023056093e-07
2.279849303e-09
3.541818553e-10
4.245631466e-05
9.716493919e-06
9.716493919e-06
4.552247649e-05
0.0001539673036
0.0001539673036
8.280786312e-05
8.395422493e-05
8.395422493e-05
0.001119311952
0.001287426705
0.0002712766083
0.0002712766083
0.0002644728352
0.0002644728352
1.937589982e-05
2.909963742e-06
2.078158957e-05
2.078158957e-05
2.989710214e-06
2.541814779e-07
9.011052326e-08
6.282488501e-06
1.514035509e-05
0.0002201700578
)
;
    }
    procBoundary1to2
    {
        type            processor;
        value           nonuniform List<scalar> 
33
(
7.600103873e-05
1.644646181e-06
1.644646181e-06
4.262392077e-05
4.262392077e-05
1.32045053e-05
1.932289501e-05
0.0001859285877
0.0001859285877
0.0002631473642
2.799603934e-05
0.0001113009809
0.0002632593009
0.0004562421399
0.0008297144484
0.0004446670606
0.0006316942242
0.0005390672829
0.0004286027448
0.0002630344267
7.289322094e-05
2.875672538e-05
2.389954395e-05
3.59279281e-05
8.487717847e-05
0.0001714416575
0.000195746099
0.0001625036062
0.00012476767
9.142367534e-05
7.082221933e-05
7.782427967e-05
0.002211849762
)
;
    }
}


// ************************************************************************* //
