/*--------------------------------*- C++ -*----------------------------------*\
  =========                 |
  \\      /  F ield         | OpenFOAM: The Open Source CFD Toolbox
   \\    /   O peration     | Website:  https://openfoam.org
    \\  /    A nd           | Version:  8
     \\/     M anipulation  |
\*---------------------------------------------------------------------------*/
FoamFile
{
    version     2.0;
    format      ascii;
    class       volScalarField;
    location    "0.7/wallFilmRegion";
    object      kappa;
}
// * * * * * * * * * * * * * * * * * * * * * * * * * * * * * * * * * * * * * //

dimensions      [1 1 -3 -1 0 0 0];

internalField   nonuniform List<scalar> 
1369
(
0.6088100034
0.6088100033
0.6088100038
0.6088100041
0.6088100042
0.6088100041
0.608810004
0.6088100034
0.6088100039
0.6088100046
0.6088100047
0.6088100045
0.6088100043
0.608810004
0.608810003
0.6088100017
0.6088100009
0.6088100004
0.6088100035
0.6088100044
0.608810005
0.6088100047
0.6088100043
0.608810004
0.6088100039
0.608810004
0.608810004
0.6088100038
0.6088100039
0.6088100016
0.6088100005
0.6088100036
0.6088100045
0.6088100046
0.608810004
0.6088100035
0.6088100033
0.6088100032
0.6088100032
0.6088100031
0.6088100028
0.6088100026
0.608810002
0.6088100006
0.6088100012
0.6088099999
0.6088099995
0.6088099998
0.6088100036
0.6088100041
0.6088100037
0.6088100031
0.6088100028
0.6088100025
0.6088100023
0.6088100021
0.6088100018
0.6088100013
0.6088100006
0.6088099999
0.6088099994
0.6088099989
0.6088099986
0.6088099989
0.6088099996
0.6088100001
0.6088100021
0.6088100037
0.6088100034
0.6088100029
0.6088100024
0.6088100021
0.6088100019
0.6088100016
0.6088100013
0.608810001
0.6088100005
0.6088099998
0.6088099989
0.6088099977
0.6088099972
0.6088099974
0.608809998
0.6088099993
0.6088100001
0.6088100003
0.6088100036
0.6088100448
0.6088103419
0.6088100105
0.6088100036
0.6088100028
0.6088100024
0.6088100021
0.6088100017
0.6088100014
0.6088100011
0.6088100009
0.6088100006
0.6088100002
0.6088099994
0.608809998
0.6088099965
0.6088099957
0.6088099954
0.6088099959
0.6088099983
0.60881
0.6088099998
0.6088100002
0.6088100009
0.6088100034
0.6088100108
0.6088100279
0.6088100025
0.6088100038
0.6088100029
0.6088100024
0.6088100019
0.6088100015
0.6088100012
0.6088100009
0.6088100007
0.6088100005
0.60881
0.6088099993
0.6088099979
0.6088099957
0.608809993
0.6088099911
0.6088099903
0.6088099924
0.6088099986
0.6088100005
0.6088104795
0.6088100567
0.6088101563
0.6088100255
0.6088100139
0.6088100118
0.6088099994
0.6088100039
0.6088100035
0.6088100026
0.6088100019
0.6088100015
0.6088100012
0.608810001
0.6088100009
0.6088100007
0.6088100004
0.6088099998
0.6088099987
0.6088099975
0.6088099949
0.6088099934
0.6088099926
0.608809995
0.6088099978
0.6088100057
0.6088103402
0.6088120658
0.6088131662
0.608812835
0.6088100094
0.6088100165
0.6088100033
0.6088100036
0.6088100037
0.6088100027
0.6088100021
0.6088100017
0.6088100014
0.6088100012
0.6088100011
0.608810001
0.6088100009
0.6088100004
0.6088099996
0.6088099993
0.6088100014
0.60881
0.6088099998
0.6088099991
0.6088099976
0.6088100047
0.6088100991
0.6088107661
0.6088124182
0.6088128943
0.6088100085
0.6088100157
0.6088100059
0.6088100046
0.6088100033
0.6088100037
0.608810003
0.6088100024
0.608810002
0.6088100016
0.6088100013
0.6088100011
0.608810001
0.6088100011
0.6088100016
0.6088100027
0.6088100017
0.60881
0.6088099994
0.6088100081
0.608810007
0.6088099989
0.6088100082
0.6088109367
0.6088131689
0.6088128611
0.6088126452
0.6088100088
0.608810017
0.6088100076
0.6088100023
0.608810003
0.6088100035
0.6088100031
0.6088100026
0.6088100022
0.6088100019
0.6088100016
0.6088100013
0.608810001
0.6088100009
0.608810001
0.608810002
0.6088100038
0.6088100048
0.6088100049
0.6088100126
0.6088100169
0.6088100167
0.6088100179
0.6088105363
0.6088124251
0.6088122565
0.6088122376
0.6088100143
0.6088100562
0.6088100047
0.6088099993
0.6088100028
0.6088100034
0.608810003
0.6088100026
0.6088100023
0.608810002
0.6088100018
0.6088100014
0.608810001
0.6088100007
0.6088100006
0.6088100009
0.6088100018
0.6088100031
0.6088100027
0.6088100114
0.6088100174
0.6088100148
0.608810011
0.6088102919
0.6088115932
0.6088116393
0.6088117804
0.608811904
0.6088116074
0.6088100006
0.6088100016
0.6088100034
0.6088100026
0.6088100035
0.608810003
0.6088100026
0.6088100024
0.6088100022
0.6088100022
0.6088100021
0.6088100016
0.608810001
0.6088100007
0.6088100006
0.6088100007
0.6088100011
0.6088100015
0.6088100069
0.6088100148
0.6088100136
0.608810006
0.6088101397
0.6088106891
0.6088110062
0.6088113324
0.6088116186
0.6088114664
0.6088099998
0.6088100039
0.6088100047
0.6088100009
0.6088100025
0.6088100047
0.6088100036
0.6088100028
0.6088100025
0.6088100026
0.608810003
0.6088100039
0.6088100057
0.6088100078
0.6088100096
0.6088100103
0.6088100057
0.6088100011
0.6088100011
0.6088100025
0.6088100073
0.6088100098
0.608810003
0.6088100031
0.6088100029
0.6088100314
0.6088100516
0.6088100808
0.6088101449
0.6088100035
0.6088100217
0.6088100194
0.6088100227
0.6088100025
0.6088100042
0.6088100033
0.6088100026
0.6088100024
0.6088100026
0.6088100033
0.6088100051
0.6088100089
0.6088100155
0.6088100257
0.6088100417
0.6088100189
0.6088100032
0.608810001
0.6088100008
0.6088100008
0.6088100039
0.6088100001
0.608809999
0.6088100027
0.6088100178
0.6088100359
0.6088100681
0.6088101341
0.6088100104
0.608810021
0.6088100128
0.6088100117
0.6088100026
0.6088100028
0.6088100024
0.6088100021
0.6088100022
0.6088100028
0.6088100045
0.6088100082
0.608810014
0.6088100216
0.6088100282
0.6088100265
0.6088100097
0.6088100024
0.6088100003
0.608809999
0.6088099977
0.6088099989
0.6088099982
0.6088099975
0.6088100064
0.6088100009
0.608810006
0.6088100039
0.6088100238
0.6088100342
0.6088100135
0.6088099977
0.608810009
0.6088100022
0.6088100105
0.6088102962
0.6088118529
0.6088100143
0.6088100023
0.6088100024
0.6088100022
0.6088100018
0.6088100018
0.6088100023
0.6088100035
0.608810005
0.6088100059
0.6088100058
0.6088100047
0.6088100025
0.6088099996
0.6088099977
0.6088099967
0.6088099964
0.6088099964
0.6088099969
0.6088099974
0.6088099981
0.6088100081
0.6088100179
0.6088100058
0.6088099999
0.6088099987
0.6088099995
0.608810001
0.6088099953
0.608810013
0.608810034
0.6088099876
0.6088113914
0.6088100331
0.6088100049
0.6088100018
0.6088100026
0.6088100023
0.6088100017
0.6088100016
0.6088100017
0.6088100022
0.6088100032
0.6088100039
0.6088100033
0.6088100015
0.6088099992
0.6088099974
0.6088099964
0.6088099959
0.6088099957
0.6088099959
0.6088099966
0.6088099996
0.6088100083
0.6088100137
0.6088100123
0.6088100099
0.6088100063
0.6088099992
0.6088099997
0.6088100007
0.6088099995
0.6088100025
0.6088099873
0.6088099852
0.6088100677
0.6088100086
0.6088100021
0.6088100015
0.6088100025
0.608810002
0.6088100015
0.6088100013
0.6088100012
0.6088100013
0.6088100017
0.6088100026
0.6088100032
0.6088100031
0.6088100023
0.6088100014
0.6088100001
0.6088099979
0.6088099963
0.6088099954
0.6088099954
0.6088099981
0.6088100047
0.6088100033
0.6088099988
0.6088099955
0.6088099947
0.6088100015
0.6088100001
0.6088100021
0.6088100061
0.6088099972
0.6088099928
0.6088099962
0.608810099
0.60881008
0.6088100014
0.6088100028
0.6088100024
0.6088100018
0.6088100014
0.6088100011
0.608810001
0.6088100011
0.6088100015
0.6088100021
0.6088100024
0.6088100016
0.60881
0.6088099981
0.6088099963
0.6088099952
0.6088099947
0.6088099952
0.6088099986
0.6088100049
0.6088100081
0.6088100045
0.6088100005
0.6088099989
0.6088100031
0.6088100009
0.6088100119
0.6088100139
0.6088100117
0.6088100055
0.6088100029
0.6088100017
0.6088100015
0.6088100028
0.6088100028
0.6088100027
0.6088100021
0.6088100015
0.6088100011
0.608810001
0.6088100009
0.6088100009
0.6088100004
0.6088099993
0.6088099979
0.6088099966
0.6088099955
0.6088099945
0.6088099941
0.6088099955
0.6088100005
0.6088100027
0.6088100125
0.6088100089
0.6088100031
0.6088100007
0.608810009
0.6088100014
0.608810009
0.6088100025
0.6088100072
0.6088100164
0.6088100051
0.6088100015
0.6088100015
0.6088100027
0.6088100033
0.6088100039
0.6088100035
0.6088100025
0.6088100016
0.6088100011
0.6088100007
0.6088100004
0.6088099999
0.6088099991
0.6088099984
0.6088099982
0.6088099985
0.6088099969
0.6088099947
0.6088100016
0.6088100118
0.608810004
0.6088100012
0.6088100047
0.6088100027
0.6088100037
0.6088100408
0.608810001
0.6088100011
0.6088099982
0.608809995
0.608810004
0.6088100019
0.608810004
0.6088100016
0.6088100053
0.608810006
0.6088100065
0.6088100059
0.6088100044
0.6088100028
0.6088100017
0.608810001
0.6088100005
0.60881
0.6088099995
0.6088099993
0.6088099998
0.60881
0.6088099974
0.6088099965
0.6088101881
0.6088100561
0.6088100098
0.6088100048
0.6088099992
0.6088100021
0.6088100143
0.608810024
0.6088100027
0.6088100017
0.6088099985
0.6088099946
0.6088100005
0.6088100019
0.6088100017
0.6088100046
0.6088100062
0.6088100082
0.6088100091
0.6088100077
0.6088100051
0.6088100031
0.6088100019
0.6088100011
0.6088100006
0.6088100002
0.6088100002
0.6088100007
0.6088100006
0.608809999
0.6088099978
0.6088100478
0.6088100301
0.6088100136
0.6088100066
0.6088099969
0.6088099968
0.6088099974
0.6088100003
0.6088100033
0.6088100002
0.6088099948
0.608809992
0.608809999
0.6088100012
0.6088100018
0.6088100036
0.6088100046
0.608810006
0.6088100075
0.6088100084
0.6088100078
0.608810006
0.608810004
0.6088100026
0.6088100018
0.6088100013
0.6088100013
0.6088100011
0.608810001
0.6088100006
0.6088100003
0.6088100147
0.6088100078
0.608810006
0.608810005
0.6088099963
0.6088099945
0.6088099945
0.6088099944
0.6088099949
0.608809996
0.6088099956
0.6088099945
0.6088099932
0.6088099909
0.6088100018
0.608810003
0.6088100036
0.6088100044
0.6088100054
0.6088100066
0.6088100076
0.6088100079
0.6088100071
0.6088100057
0.6088100043
0.6088100033
0.6088100015
0.608810001
0.608810002
0.6088100023
0.6088100027
0.6088100079
0.6088100053
0.6088100058
0.6088100043
0.6088099968
0.6088099943
0.608809994
0.6088099928
0.6088099931
0.6088099994
0.6088099973
0.6088099867
0.608809994
0.6088099955
0.6088100019
0.6088100026
0.6088100025
0.6088100026
0.6088100026
0.6088100026
0.6088100024
0.608810002
0.6088100016
0.6088100014
0.6088100014
0.6088100014
0.6088100014
0.6088100024
0.6088100044
0.6088100019
0.6088100015
0.6088100013
0.6088100012
0.6088100014
0.6088100017
0.60881
0.6088099956
0.6088099942
0.6088099934
0.6088099923
0.6088099973
0.6088099948
0.6088099813
0.6088099882
0.6088099972
0.608810002
0.6088100021
0.6088100018
0.6088100016
0.6088100015
0.6088100015
0.6088100016
0.6088100016
0.6088100014
0.6088100012
0.6088100011
0.6088100011
0.6088100012
0.6088100017
0.6088100031
0.6088100017
0.6088100014
0.6088100013
0.6088100014
0.6088100019
0.6088100026
0.6088100003
0.6088099959
0.6088099945
0.6088099949
0.6088099926
0.6088099946
0.6088099941
0.608809985
0.6088099921
0.6088099959
0.6088100022
0.6088100025
0.6088100021
0.6088100016
0.6088100015
0.6088100016
0.6088100017
0.6088100017
0.6088100015
0.6088100013
0.6088100012
0.6088100011
0.6088100011
0.6088100013
0.6088100019
0.6088100019
0.6088100018
0.6088100017
0.6088100022
0.6088100044
0.6088100122
0.6088100233
0.6088100189
0.6088099931
0.608809993
0.6088099951
0.6088099944
0.6088099934
0.6088099907
0.6088099942
0.6088099948
0.6088100023
0.6088100018
0.6088100014
0.6088100012
0.6088100013
0.6088100015
0.6088100017
0.6088100018
0.6088100017
0.6088100016
0.6088100014
0.6088100012
0.6088100011
0.6088100012
0.6088100016
0.6088100024
0.6088100027
0.608810003
0.6088100039
0.6088100125
0.6088100264
0.6088100588
0.6088100526
0.6088100147
0.6088099964
0.6088099947
0.6088099932
0.6088099943
0.6088099957
0.6088099959
0.6088099955
0.6088100025
0.6088100016
0.6088100012
0.6088100011
0.6088100011
0.6088100013
0.6088100016
0.6088100018
0.6088100018
0.6088100019
0.6088100017
0.6088100014
0.6088100012
0.6088100012
0.6088100015
0.6088100031
0.6088100038
0.6088100051
0.6088100068
0.6088100175
0.6088100632
0.6088101736
0.6088102187
0.6088100053
0.608809999
0.6088099962
0.6088099954
0.6088099958
0.6088099977
0.608809997
0.6088099952
0.6088100028
0.6088100018
0.6088100014
0.6088100012
0.6088100012
0.6088100013
0.6088100016
0.608810002
0.608810002
0.6088100022
0.608810002
0.6088100017
0.6088100014
0.6088100012
0.6088100014
0.6088100031
0.6088100042
0.6088100065
0.6088100101
0.6088100257
0.6088102668
0.6088107658
0.6088103083
0.6088100079
0.6088100011
0.6088099998
0.6088099977
0.6088099971
0.6088099979
0.608809996
0.608809995
0.6088100031
0.6088100024
0.6088100017
0.6088100014
0.6088100014
0.6088100016
0.608810002
0.6088100023
0.6088100022
0.6088100026
0.6088100024
0.608810002
0.6088100016
0.6088100013
0.6088100013
0.6088100023
0.6088100035
0.6088100064
0.6088100118
0.6088100298
0.6088101269
0.6088103034
0.6088101557
0.6088100113
0.6088100013
0.608810001
0.6088100006
0.6088099994
0.608809999
0.6088099969
0.6088099953
0.6088100034
0.6088100033
0.6088100024
0.6088100017
0.6088100017
0.6088100019
0.6088100024
0.6088100028
0.6088100026
0.6088100032
0.608810003
0.6088100023
0.6088100016
0.6088100012
0.608810001
0.6088100012
0.6088100025
0.6088100055
0.6088100111
0.6088100267
0.6088100749
0.608810158
0.6088100896
0.6088100135
0.6088100017
0.6088100013
0.608810001
0.6088100005
0.60881
0.6088099985
0.608809996
0.6088100036
0.6088100044
0.6088100033
0.6088100022
0.6088100021
0.6088100023
0.6088100029
0.6088100035
0.6088100034
0.6088100039
0.6088100033
0.6088100022
0.6088100013
0.6088100008
0.6088100005
0.6088100005
0.6088100017
0.6088100039
0.6088100025
0.6088100219
0.6088100501
0.6088100951
0.6088100579
0.6088100132
0.6088100024
0.6088100021
0.6088100017
0.6088100012
0.6088100003
0.6088099996
0.6088099972
0.6088100038
0.6088100055
0.6088100043
0.6088100029
0.6088100027
0.6088100029
0.6088100036
0.6088100047
0.6088100045
0.6088100045
0.6088100032
0.6088100016
0.6088100006
0.6088100001
0.6088099998
0.6088099999
0.6088100011
0.608810002
0.6088100004
0.6088100185
0.608810037
0.6088100651
0.6088100408
0.6088100115
0.6088100036
0.6088100035
0.6088100025
0.6088100023
0.6088100006
0.6088100006
0.60881
0.6088100039
0.6088100065
0.6088100052
0.6088100038
0.6088100035
0.6088100037
0.6088100047
0.6088100064
0.6088100059
0.6088100049
0.6088100028
0.608810001
0.60881
0.6088099995
0.6088099993
0.6088099996
0.6088100006
0.6088100009
0.6088100002
0.6088100144
0.6088100273
0.6088100449
0.6088100291
0.6088100093
0.608810005
0.6088100037
0.6088100037
0.6088100035
0.6088100013
0.6088100016
0.6088100017
0.608810004
0.6088100073
0.6088100062
0.608810005
0.6088100046
0.6088100048
0.608810006
0.608810008
0.6088100071
0.6088100051
0.6088100025
0.6088100007
0.6088099996
0.6088099992
0.6088099992
0.6088099998
0.6088100001
0.6088100001
0.60881
0.6088099999
0.6088100002
0.608810002
0.6088100101
0.6088100065
0.6088100051
0.6088100043
0.6088100043
0.6088100051
0.6088100027
0.6088100023
0.6088100022
0.6088100041
0.6088100079
0.6088100072
0.6088100063
0.608810006
0.6088100062
0.6088100075
0.6088100091
0.608810008
0.6088100055
0.6088100027
0.6088100007
0.6088099996
0.6088099991
0.6088099991
0.6088099996
0.6088100002
0.6088100001
0.60881
0.6088100003
0.6088100018
0.6088100063
0.6088100099
0.6088100047
0.6088100053
0.6088100052
0.608810005
0.6088100057
0.6088100044
0.6088100031
0.6088100026
0.6088100042
0.6088100081
0.608810008
0.6088100076
0.6088100074
0.6088100077
0.6088100088
0.6088100097
0.6088100088
0.6088100063
0.6088100034
0.6088100011
0.6088099999
0.6088099993
0.6088099992
0.6088099995
0.6088100002
0.6088100004
0.6088100002
0.6088100022
0.6088100043
0.6088100064
0.6088100065
0.6088100039
0.6088100061
0.608810006
0.6088100054
0.6088100054
0.6088100049
0.6088100039
0.608810003
0.6088100042
0.6088100079
0.6088100082
0.6088100083
0.6088100083
0.6088100086
0.6088100093
0.6088100098
0.6088100093
0.6088100074
0.6088100046
0.6088100023
0.6088100008
0.60881
0.6088099998
0.6088099999
0.6088100004
0.6088100008
0.6088100005
0.6088100032
0.6088100038
0.6088100046
0.6088100047
0.6088100037
0.6088100073
0.6088100061
0.6088100051
0.6088100046
0.6088100043
0.6088100038
0.6088100033
0.6088100042
0.6088100073
0.6088100078
0.6088100082
0.6088100084
0.6088100087
0.6088100092
0.6088100095
0.6088100093
0.6088100081
0.608810006
0.608810004
0.6088100025
0.6088100016
0.6088100011
0.6088100009
0.6088100009
0.6088100012
0.6088100012
0.6088100025
0.6088100029
0.6088100036
0.6088100039
0.6088100038
0.6088100076
0.6088100051
0.6088100042
0.6088100039
0.6088100037
0.6088100036
0.6088100036
0.6088100041
0.6088100064
0.6088100071
0.6088100077
0.6088100081
0.6088100084
0.6088100086
0.6088100088
0.6088100086
0.6088100079
0.6088100067
0.6088100054
0.6088100043
0.6088100035
0.6088100028
0.6088100022
0.6088100017
0.6088100015
0.6088100017
0.608810002
0.6088100022
0.6088100026
0.6088100033
0.6088100038
0.6088100066
0.6088100041
0.6088100038
0.6088100037
0.6088100038
0.6088100039
0.6088100041
0.6088100039
0.6088100048
0.6088100053
0.608810006
0.6088100075
0.6088100078
0.6088100079
0.6088100079
0.6088100077
0.6088100073
0.6088100066
0.608810006
0.6088100053
0.6088100048
0.6088100041
0.6088100033
0.6088100025
0.608810002
0.6088100018
0.6088100018
0.6088100018
0.608810002
0.6088100028
0.6088100035
0.6088100048
0.6088100039
0.608810004
0.6088100042
0.6088100045
0.6088100047
0.6088100048
0.6088100029
0.6088100028
0.6088100029
0.6088100036
0.6088100039
0.608810007
0.6088100072
0.6088100071
0.6088100069
0.6088100066
0.6088100063
0.608810006
0.6088100058
0.6088100055
0.608810005
0.6088100042
0.6088100033
0.6088100025
0.6088100021
0.6088100019
0.6088100018
0.6088100019
0.6088100026
0.6088100031
0.6088100038
0.6088100044
0.6088100048
0.6088100053
0.6088100056
0.6088100051
0.6088100048
0.6088100026
0.6088100026
0.6088100027
0.6088100048
0.6088100053
0.6088100066
0.6088100067
0.6088100067
0.6088100066
0.6088100064
0.6088100062
0.6088100061
0.608810006
0.6088100059
0.6088100054
0.6088100047
0.6088100038
0.608810003
0.6088100024
0.6088100021
0.608810002
0.608810002
0.6088100024
0.6088100027
0.6088100035
0.6088100053
0.6088100059
0.6088100063
0.6088100057
0.6088100048
0.6088100044
0.6088100026
0.6088100025
0.6088100032
0.6088100037
0.6088100039
0.6088100039
0.6088100039
0.608810004
0.6088100041
0.6088100043
0.6088100044
0.6088100046
0.6088100047
0.6088100048
0.6088100047
0.6088100045
0.6088100042
0.6088100036
0.608810003
0.6088100022
0.6088100016
0.6088100014
0.608810002
0.6088100022
0.6088100027
0.6088100034
0.6088100031
0.6088100026
0.6088100023
0.608810002
0.6088100021
)
;

boundaryField
{
    walls
    {
        type            zeroGradient;
    }
    wallFilmFace_top
    {
        type            zeroGradient;
    }
    region0_to_wallFilmRegion_wallFilmFace
    {
        type            zeroGradient;
    }
    mirrorFace_top
    {
        type            zeroGradient;
    }
    region0_to_wallFilmRegion_mirrorFace
    {
        type            zeroGradient;
    }
    procBoundary1to0
    {
        type            processor;
        value           nonuniform List<scalar> 
52
(
0.6088100034
0.6088100028
0.6088100032
0.6088100035
0.6088100037
0.6088100039
0.6088100041
0.6088100035
0.6088100035
0.6088100024
0.6088100012
0.6088100004
0.60881
0.60881
0.60881
0.6088100016
0.6088100016
0.6088100007
0.6088100003
0.6088100002
0.6088100001
0.6088100001
0.6088100099
0.6088100462
0.6088100462
0.6088119029
0.6088136737
0.6088100103
0.6088100205
0.6088100205
0.6088100013
0.6088099954
0.6088099954
0.6088099952
0.608810003
0.608810003
0.608809996
0.6088099954
0.6088099982
0.6088099982
0.6088100003
0.6088100003
0.6088100036
0.608810017
0.6088100148
0.6088100148
0.6088100441
0.6088102629
0.6088105555
0.6088100083
0.6088100001
0.6088099925
)
;
    }
    procBoundary1to2
    {
        type            processor;
        value           nonuniform List<scalar> 
33
(
0.6088100001
0.6088100511
0.6088100511
0.6088100002
0.6088100002
0.6088100097
0.6088100057
0.6088100043
0.6088100043
0.6088100014
0.608809992
0.6088099979
0.6088099981
0.6088099964
0.6088099945
0.6088099951
0.6088099957
0.6088099958
0.6088099966
0.6088099978
0.608809999
0.6088100017
0.6088100032
0.608810003
0.6088100027
0.6088100029
0.6088100032
0.6088100037
0.6088100043
0.6088100049
0.6088100052
0.6088100048
0.6088100025
)
;
    }
}


// ************************************************************************* //
