/*--------------------------------*- C++ -*----------------------------------*\
  =========                 |
  \\      /  F ield         | OpenFOAM: The Open Source CFD Toolbox
   \\    /   O peration     | Website:  https://openfoam.org
    \\  /    A nd           | Version:  8
     \\/     M anipulation  |
\*---------------------------------------------------------------------------*/
FoamFile
{
    version     2.0;
    format      ascii;
    class       surfaceScalarField;
    location    "0.7/wallFilmRegion";
    object      phi;
}
// * * * * * * * * * * * * * * * * * * * * * * * * * * * * * * * * * * * * * //

dimensions      [1 0 -1 0 0 0 0];

internalField   nonuniform List<scalar> 
2656
(
-0.0003978368435
-0.007901916016
-0.000316213084
-0.0002440513766
-0.000292907759
-0.0002019566128
-0.0002874314731
-0.0002112587496
-0.0002922718831
-0.0002659544067
-0.0003066938602
-0.0003338806619
-0.0004128590561
-0.0002927427405
-0.007498170485
-0.0002366698274
-0.000178316499
-0.0002438054895
-0.0001676589028
-0.0002699668067
-0.0002072214377
-0.0003019390956
-0.0002971902662
-0.0003518224755
-0.00037342649
-0.0006834644469
-0.0003794311378
-0.002032112799
-0.0003186902656
-0.004285756909
-0.0002765306867
-0.006042374727
-0.0003404976841
-0.0004480325442
-0.0002390946153
-0.007253996842
-0.0002173075163
-0.0001425503853
-0.0002710342739
-0.0001731730297
-0.0003379512347
-0.0002553165232
-0.0003789907272
-0.0003863677467
-0.000350118782
-0.000465180736
-0.0002716450415
-0.0004451088404
-0.0001974291835
-0.0003709183749
-0.0001618420892
-0.0003191522251
-0.0001747261696
-0.0003354958454
-0.0002091811193
-0.0003610487804
-0.000381366595
0.0002224315452
0.0004261018824
-0.0002221725436
-0.007403356303
-0.0002516363687
-0.0001248042001
-0.0003848464649
-0.0002182127548
-0.0005041138228
-0.0003616660753
-0.0005453843464
-0.0005349369054
-0.0004845789866
-0.0006100040917
-0.0003875023705
-0.0005844845198
-0.0003204370586
-0.0005410340556
-0.0003104210524
-0.0005433578586
-0.0003614449626
-0.000607008814
-0.0003506103577
-0.0006674716901
-0.0004180099211
-0.0001047634423
-0.0001538625483
0.0002104180869
-0.0004989009013
-0.0001954347937
-0.0008413093849
-0.0005662488738
-0.001105026487
-0.001546168128
-0.002176008456
-0.0002519504641
-0.008121254213
-0.0003691237098
-0.0001382964686
-0.0006339309644
-0.0003396545944
-0.0007980915517
-0.0005636797155
-0.0008186761388
-0.0007583895244
-0.0007499185021
-0.0008121040453
-0.0006980989536
-0.0008085079704
-0.0007038360113
-0.0008457548886
-0.0007574203423
-0.0009542711855
-0.0008437917785
-0.001112758271
-0.0009395933025
-0.001266802644
-0.0007504903637
-0.001279335569
-0.0005726713303
-0.0009106607929
-0.0014352142
-0.0009812573348
-0.001751712271
-0.001455498551
-0.001823056444
-0.00206223923
-0.001348827613
-0.002501857567
-1.876284917e-05
-0.002484351837
-0.0001733920139
-0.0005236471341
-0.009083337397
-0.0007744151484
-0.0003167227169
-0.001149450299
-0.0006645007969
-0.001255349576
-0.0008939744504
-0.001209879255
-0.0009864145241
-0.001175801895
-0.0009828873833
-0.001239041469
-0.001005447641
-0.00136268683
-0.001087659332
-0.001471225702
-0.001209387308
-0.001498151631
-0.001333630938
-0.001480589193
-0.001418057464
-0.001669794699
-0.001529514073
-0.002136169928
-0.001762888182
-0.002857314308
-0.001915004788
-0.003167665895
-0.002056905971
-0.002833491008
-0.002584653655
-0.001891064298
-0.00234886607
-7.923031474e-06
-0.001757512979
9.951381822e-05
-0.0002235937973
1.928610183e-05
-8.031377017e-05
2.089603278e-06
9.207009466e-07
1.549878412e-07
2.024144389e-07
0.0002316247322
-0.002293531736
-0.008998609688
-0.0021322741
-0.0008931092848
-0.001931895395
-0.0009984543122
-0.001663044672
-0.0009884330734
-0.001507363928
-0.0009584587638
-0.0015244039
-0.0009544952291
-0.001630091816
-0.0009755322532
-0.001712569796
-0.0009785730891
-0.001692694364
-0.0009445378766
-0.001578111549
-0.0008798639831
-0.00162417059
-0.0007968338336
-0.002402897316
-0.0007335671591
-0.003875740065
-0.0007344693949
-0.004571235813
-0.0009273287666
-0.004826020966
-0.001703898708
-0.003630692075
-0.002857801326
-0.001903641525
-0.001092793337
-3.638842642e-05
0.0004864137358
0.0002453924079
-0.000126661388
0.0003656408161
-3.238176407e-08
0.0002266689151
-2.78304679e-07
3.55241274e-05
2.180785112e-05
-1.748634387e-06
0.0002501970747
-4.865383007e-05
5.699759006e-05
0.0001620116594
-0.003022010898
-0.007771162448
-0.002515411798
-0.0005871658969
-0.001838175751
-0.000532072476
-0.001485454978
-0.0005776097773
-0.001427118612
-0.0006919125863
-0.001472245046
-0.0007947037177
-0.001465204848
-0.0008318161215
-0.001342872793
-0.0007655713132
-0.001126122996
-0.0006122491249
-0.0008880051099
-0.000445085684
-0.0007165505102
-0.000348098465
-0.0006625886328
-0.0003606400015
-0.0007236912604
-0.0004300181618
-0.001016405872
-0.0004734348263
-0.00113015122
-0.001046503958
-0.001232577541
-0.001485663285
-0.0009515556885
-0.0003962475218
-9.159376635e-05
0.002635433954
-5.274154798e-07
-0.0001311119548
-8.339877354e-07
-7.022156269e-07
4.287133797e-06
-5.331016491e-08
4.023360241e-06
-5.480034926e-08
5.829179247e-06
-9.90925304e-08
-8.572754585e-06
0.0002485257419
-8.097119031e-05
8.417233169e-05
0.0007386266946
-0.000937015388
-0.007482754255
-0.0008926779132
-0.0003878627397
-0.0009096944172
-0.0003462690679
-0.001006550249
-0.0003988624972
-0.001146940777
-0.0005234864485
-0.001237130695
-0.0006789364697
-0.001175751718
-0.0007732121447
-0.000947928955
-0.0007371151613
-0.000659825969
-0.0005610196406
-0.0004694637578
-0.0003545060991
-0.0004327756898
-0.0002503251256
-0.0004539124867
-0.0002981623532
-0.0003155157575
-0.0003832749267
-0.0003573292262
-0.0001165545509
3.187742178e-05
-0.0002120372785
0.0002208345774
-0.0002910504796
-0.000865621386
-0.0004426430249
-3.807386359e-05
0.005191041405
-4.155373049e-07
-0.0001641781829
-1.75014303e-09
-3.672876924e-06
7.072912149e-08
-2.653241753e-07
8.641950262e-08
-8.682654537e-08
1.510719459e-07
-1.3398156e-07
-4.665852708e-07
0.0008557598234
1.517092112e-05
7.723836315e-05
0.0007355162091
-0.0005174147666
-0.006994562584
-0.0005095323757
-0.0002866426317
-0.0005981781883
-0.0002431029937
-0.0007441408969
-0.0002817862665
-0.0009244507275
-0.0003844774896
-0.001087796743
-0.0005320769984
-0.001113453779
-0.0006771516739
-0.000939834283
-0.0007028153059
-0.0006567912262
-0.0005497889294
-0.00051053173
-0.0002928710754
-0.0006370420272
-0.0001017723206
-0.0007865856696
-3.734101212e-05
-0.0001167068474
-4.351763178e-05
-0.0001589849314
-0.0001952606235
3.831518986e-05
-0.0003243872703
0.0001762211819
-7.456776064e-05
6.080318115e-05
-9.591033349e-05
-1.169576088e-05
0.005413559916
7.112988661e-06
-0.0001019204528
6.859765388e-07
-2.78957868e-07
1.482937192e-07
-3.602135543e-08
6.855165439e-08
-6.114856162e-08
4.836952394e-08
-1.09844053e-07
-9.604956747e-07
0.001172972695
3.89010918e-05
8.518695848e-05
0.0001319325211
0.0005026446862
0.0006087434532
-0.000483192223
-0.006084880956
-0.0004245053366
-0.0002132758249
-0.0004674378738
-0.0001755016605
-0.0005614659982
-0.0002065989454
-0.000701245227
-0.0002831269018
-0.0008625007742
-0.0003869103817
-0.0009896803776
-0.0005002492383
-0.0009504971038
-0.0005625472931
-0.0006868036717
-0.0004721446078
-0.0003426135945
-0.0002455109312
-0.0001598662921
-7.006275606e-05
-0.0001815711844
-8.853434949e-06
-0.0003739834615
-1.429806738e-05
-0.0007045027737
-3.751765619e-05
-1.972344077e-05
-6.867961855e-05
1.49723275e-05
-5.733463302e-05
4.732850643e-06
-3.423013187e-05
1.013005737e-05
-5.896667462e-06
-5.618534602e-08
-2.86115172e-05
-4.71542505e-10
-3.157364857e-07
2.205526238e-08
-4.58257377e-08
5.53196503e-08
-7.010227205e-08
5.121302517e-08
-8.455420717e-08
9.277285814e-05
0.000450135542
4.36629147e-05
-1.84234493e-06
8.482422123e-05
0.0003460763144
0.0002278351227
-0.0004448762126
-0.004912747617
-0.0003719549508
-0.0001564475466
-0.0003975606568
-0.0001366192667
-0.000458356076
-0.000169938136
-0.0005458621005
-0.0002340632924
-0.0006416910205
-0.0003050078665
-0.0007407550647
-0.0003611704848
-0.0008116885073
-0.0003909866723
-0.0007269603863
-0.0003453015499
-0.0004318777357
-0.0001154572141
-0.0001892983417
7.109309592e-05
-9.904743852e-05
6.990731164e-05
-8.06186696e-05
2.336165152e-05
-7.643127916e-05
-3.221313601e-05
-2.279033825e-05
-0.0001798353385
-1.733187884e-05
-5.800522683e-05
-1.696154866e-05
-2.650498187e-05
-1.154226373e-05
-2.894382241e-05
-2.487122213e-07
-4.14226446e-05
-4.626067473e-09
-5.206112913e-07
2.983948575e-08
-5.453596103e-08
7.320609017e-08
-7.417353633e-08
8.286901628e-08
-7.685284551e-08
7.39971316e-05
-2.239786106e-08
1.23661044e-05
-1.662222776e-07
3.727142937e-05
0.0005024413602
-3.836650074e-05
-0.0004204415115
-0.003635516895
-0.0003690063971
-9.974436718e-05
-0.0004063945533
-9.505951867e-05
-0.0004637883241
-0.0001249420044
-0.0005221396463
-0.000171195862
-0.0005662344688
-0.000208708849
-0.0006265904106
-0.0002198215848
-0.0007772668418
-0.000206987208
-0.000983653859
-0.0001811296117
-0.0009333947945
-9.860244702e-06
-0.0005226545391
0.0002698223464
-0.0002012470253
0.0002563965305
-8.683099591e-05
0.0001031578688
-7.516321085e-05
8.773049487e-06
-1.472657435e-05
-0.0003764410791
-1.265298387e-05
-7.765653839e-05
-1.059531165e-05
-2.352063079e-05
-9.664151784e-06
-2.209685298e-05
-3.625502897e-07
-5.301026981e-05
-1.954140767e-08
-7.933404502e-07
3.986296359e-08
-4.205733202e-08
9.877535536e-08
-5.704149395e-08
1.425744679e-07
-5.289238388e-08
1.85503026e-07
-4.687095154e-08
2.367090009e-07
-1.066427093e-07
3.261423895e-05
0.001043807115
-2.899387309e-05
-5.735787493e-05
-0.0001180705533
-0.0003724657207
-0.002517769585
-0.0003490023963
-3.794196619e-05
-0.0003941167171
-4.822517826e-05
-0.000437925069
-7.034513488e-05
-0.0004556505729
-9.815374161e-05
-0.0004370048483
-0.0001169390516
-0.0004319511406
-0.0001128669824
-0.0005610292208
-8.428415891e-05
-0.0009934656298
-5.018871923e-05
-0.001718570044
-2.915898042e-05
-0.001986955148
-1.616389014e-05
-0.001293977456
-7.430656323e-06
-0.0005098867677
-3.121503075e-06
-8.660269328e-05
-0.0002725424802
-7.548160962e-06
-0.0007484262595
-9.155320485e-06
-0.0001676971307
-5.968804121e-06
-3.095858557e-05
9.175326024e-07
-2.096317357e-05
1.520950425e-06
-6.040533768e-05
-5.595467773e-08
6.854236393e-08
5.987267138e-08
1.57992792e-07
1.381405292e-07
5.175449931e-08
1.679046839e-07
2.268748052e-08
1.795901723e-07
1.176017925e-08
1.954991709e-07
1.392464073e-08
-4.986797044e-05
0.001051814045
-3.840175771e-05
-1.238036133e-05
-1.973824623e-05
-7.239836356e-06
-1.022809308e-06
-0.0004854352071
-0.002019635285
-0.0004137492355
9.204754775e-05
-0.0003726976333
5.226758768e-05
-0.0003797983044
9.825847879e-06
-0.0003700723463
-2.510023329e-05
-0.000307550572
-4.804984165e-05
-0.0002147123628
-5.362057028e-05
-0.0001362609023
-4.272504787e-05
-8.655722553e-05
-2.766024506e-05
-5.576976494e-05
-1.661899489e-05
-3.223038745e-05
-9.460223685e-06
-9.15962912e-06
-4.510490742e-06
4.598032374e-05
-6.932144555e-06
0.0005062617893
-8.05284404e-05
0.0003108279405
-0.0004932234078
-2.728564362e-06
-0.0002972197844
-8.114501138e-07
-5.834455612e-05
8.832975401e-06
-2.552691209e-05
2.658438647e-05
-0.0001009423823
-1.768633079e-05
2.511924611e-05
1.968726428e-06
6.562689121e-05
5.201187484e-06
4.176890719e-06
5.795298039e-06
2.771021513e-06
4.845081868e-06
2.093540048e-06
1.934180057e-06
1.742976625e-06
-1.388071424e-05
6.699201541e-05
-7.75094658e-06
9.978569785e-06
-1.287682046e-06
2.749709228e-06
4.077626992e-06
-0.0008384065685
-0.001811860542
-0.0007834854693
0.000244478935
-0.0006089763512
0.0002095144054
-0.0004963509858
0.0001340705239
-0.0003868084234
7.263566988e-05
-0.0002659630545
2.436183432e-05
-0.0001521137821
-2.550991156e-06
-7.58439915e-05
-7.531605024e-06
-3.64517254e-05
-7.153881428e-06
-1.703829462e-05
-6.073505926e-06
-6.620126801e-06
-5.182861091e-06
-5.64173473e-07
-5.046749316e-06
1.242940335e-05
-8.27692528e-06
0.0001103782417
-5.224320855e-05
0.0004682189908
-0.0004081644452
1.279981503e-05
-0.0003029560247
4.593969902e-07
-0.0001170557235
2.171295581e-05
-4.70394248e-05
7.229382728e-05
-0.000300213953
-3.04767041e-05
-0.000244852318
8.775723275e-06
9.064510326e-05
1.593970337e-05
7.099182569e-06
1.627348797e-05
3.922133152e-06
1.312703535e-05
2.296285121e-06
5.249351781e-06
2.667771438e-06
-1.338704369e-05
-1.191742401e-05
-2.332641673e-05
2.37527778e-05
-2.275782196e-05
9.933945033e-06
1.64832895e-05
-0.00257730903
-0.00170753397
-0.002016775248
0.0004294008485
-0.00130956387
0.0003518560172
-0.0008013577889
0.0002851940444
-0.0004420053762
0.0001638136835
-0.0002212323386
7.382049112e-05
-0.0001073904695
2.96797285e-05
-5.608574574e-05
1.136678074e-05
-3.253740019e-05
4.118450013e-06
-2.114270314e-05
8.948622454e-07
-1.5835284e-05
-4.341390005e-06
-8.864549328e-06
-1.488321796e-05
1.446591719e-05
-3.785838381e-05
7.120473004e-05
-8.762087554e-05
0.0001274238121
-0.0002043141726
-8.055663835e-05
-0.0002325128162
-4.014283413e-05
-0.0002124882914
3.566644721e-05
-0.0001526688227
-8.921886628e-05
-0.0006828521574
-4.259717307e-05
-0.000267651734
1.060038804e-05
3.340656023e-05
3.541827494e-05
-3.161174713e-07
4.289931269e-06
-5.656224312e-07
1.645726265e-05
-2.055504346e-06
1.540986061e-05
5.248882223e-06
5.836930139e-06
6.851730643e-06
-1.526516762e-05
9.054527209e-05
-7.32902539e-06
2.276510822e-05
5.031735927e-06
3.253077916e-06
1.007102733e-05
1.649154842e-06
9.659348584e-07
-2.499556877e-05
-4.02524312e-10
-6.4127732e-13
1.874439571e-08
-2.333316906e-07
-3.695934306e-05
-0.009541659883
-0.002032005124
-0.008343429848
0.0002330179099
-0.00283685804
0.0004499829874
-0.001388381039
0.0004325270529
-0.0006149713033
0.0002787122877
-0.000291684166
0.0001472450895
-0.0001749173328
7.528070855e-05
-0.0001367547642
4.628832081e-05
-0.0001302309691
3.337574741e-05
-0.0001356313166
2.271891516e-05
-0.0001483468541
7.17607871e-06
-0.000177007597
-1.652768224e-05
-0.0002243987499
-5.271035738e-05
-0.0002770287058
-0.0001008352363
-0.0003370313165
-0.0001570548451
-0.0003097517474
-0.0002127626095
-0.0001886918915
-0.0002368241621
-0.0001303731116
-0.0001852153511
-0.0002579737861
-0.0001398945144
-4.694901158e-05
-4.512942878e-05
-1.194528532e-06
-3.65806756e-06
1.104665104e-05
-2.059952076e-06
5.864914987e-05
-5.951842937e-07
0.000310761766
1.66625751e-05
0.0007251701992
0.0001799937317
0.0003457617795
0.0007110127392
-9.354356878e-05
0.001043746446
-9.998326148e-06
6.46527765e-05
1.438922063e-06
-8.152087533e-06
-9.734419688e-06
-1.363231555e-05
-3.242929381e-09
-0.0002596449988
-1.751735419e-07
-6.234024883e-09
-1.228268251e-05
-1.190064174e-05
-6.923990304e-05
-0.003570756711
-0.00215111541
-0.006174164788
-0.0002063803883
-0.004436016214
-0.0002389994572
-0.002791033762
0.0002011046445
-0.001316144564
0.0003988895534
-0.0005542102884
0.0003253728751
-0.0002695568337
0.0001821415739
-0.0001730637832
0.0001056299186
-0.0001404263368
7.046265434e-05
-0.000134577956
5.055660124e-05
-0.0001491570896
3.45591839e-05
-0.0001839175408
1.86177836e-05
-0.0002294213304
1.705363304e-06
-0.0002774552067
-5.092944605e-06
-0.0003281368208
-2.012081769e-05
-0.0003630099477
-6.266136464e-05
-0.0003400608134
-0.0001529617399
-0.0001935460935
-0.0002130195188
-8.182511862e-05
-0.0001787422588
-4.834838031e-05
-5.918643265e-05
-4.162660572e-05
-1.938224012e-06
-3.359340538e-05
-2.592915603e-06
-2.344492904e-05
-2.522123004e-06
4.731536621e-06
6.907626123e-07
0.0001651140165
5.761961541e-05
0.0003543768945
0.0008020222568
0.0001885128306
0.0009670333474
-6.400891984e-06
9.525379344e-05
-1.111691329e-05
6.266316155e-06
-9.616933593e-05
8.92391077e-06
-5.260831614e-07
-1.629814526e-05
-6.6585512e-06
4.207232674e-07
-3.432393256e-05
-4.543780803e-07
-0.001573128581
-0.001549317898
-0.002747058849
-0.0002255635697
-0.003970107557
-0.0003563208229
-0.004288821774
-0.0002996131445
-0.003200025714
-4.876234693e-05
-0.001706442057
0.0004376548681
-0.000735699986
0.0004816215207
-0.0003091079836
0.0002986000237
-0.0001573516415
0.0001535612997
-9.956148692e-05
8.276311151e-05
-7.043834796e-05
4.981285655e-05
-5.360926897e-05
3.215451262e-05
-4.994611659e-05
2.284019408e-05
-6.004443794e-05
1.819163112e-05
-9.299984718e-05
1.062439971e-05
-0.0001690582723
-2.553794957e-05
-0.0002480168383
-0.0001273643517
-0.0001179210368
-0.0002424992095
-4.397950639e-05
-0.0001294589498
-3.707601492e-05
-6.928002614e-05
-5.965539995e-05
2.829556796e-05
-6.288148326e-05
3.037433308e-05
-5.27668518e-05
2.647720254e-05
4.641572958e-06
1.444480977e-05
3.239109775e-05
2.346641482e-05
0.0002242161903
0.0006008738515
-2.611384016e-05
0.0002621297311
-4.160113175e-05
5.227481346e-06
-5.020455478e-05
6.642623716e-06
-3.653902506e-05
8.603629223e-06
-5.654899058e-06
7.508236372e-06
-5.42486677e-06
3.762079185e-07
-0.0007927026716
-0.0009185120877
-0.001120254477
-0.0002074582439
-0.001621240134
-0.0002362645643
-0.002341448982
-0.0001825495774
-0.003041799253
-0.0001261883235
-0.002822652134
-8.481580371e-06
-0.001739602636
0.0004796288139
-0.0007634995912
0.0005971310424
-0.0002957641721
0.0003848359965
-0.0001455084926
0.0001817460011
-0.0001031726518
9.666147824e-05
-9.609937968e-05
7.026576727e-05
-0.0001101746353
6.652913682e-05
-0.0001520686143
7.370214582e-05
-0.0002333096895
7.267364345e-05
-0.0003424090628
3.771802181e-05
-0.0003056676337
-0.0001525996581
-8.500901542e-05
-0.0001880961302
-3.079975577e-05
-6.218355409e-05
-5.346975678e-05
-6.609938236e-05
-0.0001256701068
6.004314501e-05
-0.0001084927874
3.964211266e-05
-8.454652994e-05
9.673474028e-06
-1.348701895e-05
-5.984635038e-05
9.536990066e-06
2.360251196e-05
2.277481061e-05
0.0004066914016
-6.49335914e-05
7.16059285e-05
-5.673698394e-05
-4.512838932e-05
-6.545448018e-05
-1.261983295e-05
-8.270845142e-05
-2.105570914e-09
-9.351939727e-05
-4.378019775e-06
-1.785966097e-05
-0.0007541401847
-0.0007082339601
-0.0006689366722
-0.0001382425291
-0.0005840264875
-0.0001069399587
-0.0006785679566
-7.642574545e-05
-0.00102379874
-5.94772183e-05
-0.001578187725
-2.293209965e-05
-0.00174236274
0.000217181241
-0.001229789922
0.0005332781868
-0.0006333155753
0.0006020188799
-0.000353141235
0.0004179913476
-0.0002969959879
0.0002795163228
-0.000345946889
0.0002602598423
-0.0004680384404
0.0003005436099
-0.0006712980558
0.0003143272297
-0.0006937291863
5.368874819e-05
-0.0005902654641
0.0001649628247
-0.0001726509064
-0.0001459617831
-2.735551316e-05
-2.590409377e-05
6.453280303e-07
-1.585606873e-05
-3.626184756e-06
-3.790020991e-05
-7.720955465e-05
-5.219947684e-06
-7.59281746e-05
-4.617371662e-05
-0.0001813138187
-7.290858766e-05
-3.726100931e-05
-5.084669843e-05
-7.568910486e-06
9.329915689e-06
-0.0001950325911
0.0007436612271
-0.00011244463
9.212583769e-05
-2.878093309e-05
-9.625356912e-05
-1.482789676e-05
3.631215935e-05
-2.43713527e-05
9.824973187e-06
-3.39342023e-05
9.611134498e-06
1.090431433e-05
-0.0006724912581
0.0002703156093
-0.0004290671081
-2.609040343e-05
-0.0002864857264
-2.702381809e-05
-0.0002933288865
-2.588614792e-05
-0.0004256417662
-2.398986766e-05
-0.000714678288
-1.089385998e-05
-0.001086416199
9.441969877e-05
-0.001221422483
0.0003301712594
-0.0009922087301
0.0005778463164
-0.0007202548967
0.0006425538665
-0.0006649484579
0.0005739161871
-0.0008557568588
0.0005551158747
-0.001412366992
0.0004865435514
-0.002140785966
-0.0005273321652
-0.001010786884
-0.002307735492
-0.0002591667647
0.0003502713609
-1.903743253e-05
-1.10359561e-05
-1.647908492e-06
-1.943135403e-07
4.304326026e-06
-2.139391891e-06
1.980820152e-05
-1.111740048e-05
2.524496151e-05
-2.61702126e-05
-6.384783353e-05
-0.0001889299058
-4.393607314e-05
-5.150078831e-05
-2.351843932e-06
-7.867882108e-06
1.702425229e-06
2.349178647e-06
0.0001629625317
0.0003190436694
0.000200716253
0.0002720031075
8.942985905e-05
-2.996907971e-05
-2.5483538e-05
8.876041071e-05
-6.651653027e-05
9.927410133e-05
-5.618376157e-05
5.020230602e-05
-0.0001748894933
0.001456761272
-0.0001342687601
1.142163576e-05
-0.0001134349321
5.827847376e-06
-0.0001193761067
2.820088385e-06
-0.0001649745922
4.39179298e-06
-0.0002873012643
1.641742301e-05
-0.0005235600157
5.827152143e-05
-0.0007840079602
0.0001745071202
-0.0009009446174
0.0003694852152
-0.0008535759341
0.0005622771217
-0.0008237831743
0.000626044162
-0.0009989133244
0.0005598691845
-0.001347217804
9.900401791e-05
-0.001391945116
-0.0009644447726
-0.0005097609478
-0.001433695448
-6.285788367e-05
0.0001452060415
-2.424279207e-07
3.112839644e-05
2.875509285e-07
3.978097189e-07
2.049925395e-06
1.111943011e-07
1.497070172e-05
-4.26802092e-07
4.870308251e-05
-2.803067947e-06
0.0001833040934
-0.0009145686658
5.485381797e-05
-0.0003214932376
1.014288194e-05
3.086572917e-06
4.84227421e-06
1.101809784e-05
0.0001139329465
7.59908985e-05
0.000179785562
0.0001272573484
3.728231264e-05
6.960648318e-05
-0.0004548400786
-2.069152884e-05
-0.001131326788
0.0003693325078
0.0002585688428
-0.000225216371
0.002937953115
-0.0001417159947
5.84771322e-05
-9.599111969e-05
3.64239189e-05
-7.947205074e-05
2.469623976e-05
-8.974638833e-05
2.175053715e-05
-0.0001294328703
2.587823713e-05
-0.0002111780562
4.121213323e-05
-0.0003443907006
8.409467867e-05
-0.0004801936578
0.0001763614574
-0.0005204248362
0.0003065519908
-0.0004442681857
0.0003932741916
-0.000325976095
0.000345296281
-0.0004042784387
0.0001410532179
-0.0004688002046
-0.001040430003
-0.0001704590345
-0.0006062955297
-3.082438679e-05
0.0001062753489
3.870564043e-07
3.934768171e-05
3.215016505e-06
2.488477279e-06
7.044636381e-06
3.304756212e-06
1.847197545e-05
5.844791499e-06
4.859269134e-05
1.664242244e-05
0.0004852787951
-0.002099247166
0.0002121705181
-0.001084988197
4.79446526e-05
-0.0006084401026
2.880159418e-05
7.066880127e-05
5.54900745e-05
3.323056318e-05
4.952527902e-05
9.322038141e-05
-7.310178203e-06
0.0001121175503
-2.980241715e-05
-1.73346395e-05
-0.0003965440625
8.282164229e-06
3.522155177e-05
-0.0003903256383
0.004669968636
-0.0002534641227
0.0001401490673
-0.0001685307987
9.049130444e-05
-0.0001173855532
6.114200133e-05
-9.207464285e-05
4.614913028e-05
-8.699925289e-05
3.947235711e-05
-0.0001012233082
4.106081792e-05
-0.0001346674869
5.393075361e-05
-0.0001786158915
8.458706105e-05
-0.0002025525727
0.0001343076549
-0.0001671628067
0.0001794905836
-9.008710841e-05
0.0001716663888
-9.48761255e-05
7.492543536e-05
-0.0001703939771
-0.0008730586653
-9.425502981e-05
-0.0001628897321
-2.290479789e-05
7.913586741e-05
-6.452334343e-07
4.356431421e-05
8.095049349e-06
1.036901885e-05
2.442109889e-05
1.948302077e-05
4.579108594e-05
2.842826423e-05
6.596644829e-05
2.315012543e-05
0.0001131430792
-0.001831537866
-0.000263793721
-0.001641227024
-8.112365439e-05
-0.001230552703
0.000308491206
-0.0005428091276
0.0005740104884
-0.0002049021537
0.0009375844974
-2.001010875e-05
0.001145429328
-1.394096116e-05
0.0005508107122
0.0003258186784
0.0001062906504
3.369261655e-05
4.100038877e-05
-0.0005755271756
0.006547256072
-0.0003870305653
0.0002767338113
-0.0002592800627
0.000191232245
-0.0001750533336
0.0001313467037
-0.0001246965146
9.508457705e-05
-9.751037935e-05
7.118778319e-05
-8.439386419e-05
5.733077241e-05
-7.986285732e-05
5.267368497e-05
-7.983457801e-05
5.651546105e-05
-7.408563277e-05
6.740365196e-05
-5.755264148e-05
7.975773315e-05
-9.918471561e-05
0.0001012947069
-0.0005879312293
0.0003000129217
-0.0001405148596
-9.747863498e-06
-0.0001358959816
1.714798975e-05
-6.072130051e-05
0.0001110872705
-1.102479944e-05
6.575700076e-05
6.873267791e-06
2.27505712e-05
3.034973035e-05
4.158154788e-05
4.129781488e-05
4.772676286e-05
8.02205371e-05
2.266705792e-06
-0.0003098810626
-0.0006949558957
-0.0005706924886
-0.0005030886925
-0.0004908415158
-0.0006120285891
-0.0004374444688
-0.0002653113852
-0.000117559081
-0.0001700724109
-2.976533926e-05
-9.742519103e-06
1.517750486e-05
-0.0001028742186
0.0001323269132
0.0001897275931
0.0001389533314
0.0007228293821
9.820965321e-05
-0.001213659059
0.008357294817
-0.001157174281
0.000479269391
-0.001078324811
0.0004023008247
-0.0009384999772
0.0003161034975
-0.0007795782598
0.0002518240256
-0.0007059863658
0.0002161493012
-0.0008028800081
0.0002688532475
-0.001023697253
0.0004040838505
-0.001065455026
0.0004657167845
-0.000914291387
0.000464560231
-0.0006840145434
0.0004053946559
-0.000472765728
0.0003423151468
-0.0001128438269
0.0002802394108
-4.664889932e-05
7.91128341e-05
-2.493315738e-05
3.550086113e-05
0.0001613684268
0.0001017559843
0.000404328808
0.000166828172
0.0006782250501
0.0002258197858
0.0009454538045
0.0002889536037
0.001117514829
0.0003370140007
0.001088343307
-7.671765424e-05
0.0001117989568
-0.0001226624851
-0.0004400019473
-0.0002642593598
-0.0002404143141
-0.0004164398048
-0.0001809036576
-0.0001129948642
-4.677240973e-05
-7.427499394e-05
-6.254812675e-05
4.674867921e-05
2.181204341e-05
-5.197364698e-05
0.0001334464874
0.0004389833735
-0.0003594984545
0.0007516547644
0.0005141948364
-0.002966102643
0.009965940862
-0.004157285635
0.0004727996845
-0.005071634249
-6.06963096e-05
-0.004973053821
-0.0003226563348
-0.003640771427
-0.0003259692821
-0.001824972624
-4.670446323e-05
-0.001281771297
0.0006608095921
-0.001704944987
0.0008140577238
-0.001789857776
0.0009044065669
-0.001509223204
0.0009129369319
-0.001043029861
0.0008059444047
-0.0005848135729
0.0006256734164
-0.0002222884084
0.0004156341091
-7.311406573e-05
0.0001977445901
-2.960187458e-06
8.039675444e-05
0.0002421223784
0.0001001985131
0.00058998526
0.0001971741271
0.0008781918421
0.0002649359556
0.00101556611
0.0003230147905
0.001041163755
9.464061148e-05
0.0001767504527
-2.827589095e-05
-5.494983419e-05
-1.206817284e-05
-0.0003070631781
-1.254433802e-05
-0.0002492750583
-0.0003232171472
-0.0001219605587
2.043043063e-05
-0.0002904230561
5.07733666e-05
-0.0006540444477
0.0004579812318
-6.679690706e-05
0.0008324365067
-0.0003755932208
0.0005443869561
-0.001492910145
0.0008810795242
0.0009557792543
-0.001553439032
0.01075560044
-0.001515574288
0.0003458829665
-0.001375964254
0.000142814684
-0.001326110126
2.097961507e-05
-0.00131222161
7.004622835e-05
-0.001402294118
0.00030011006
-0.001448762204
0.0007580807098
-0.001824145376
0.001121532848
-0.002043316028
0.001241408411
-0.001868457771
0.001321358018
-0.001362885723
0.001270546502
-0.0007903135276
0.001051250997
-0.0003604380163
0.000736894921
-0.0001409010983
0.000421115002
-3.815427388e-05
0.0002122676593
0.0001282733553
9.504099631e-05
0.0002688471638
0.0001459067161
0.0003599329007
0.0001756937908
0.0003051223012
0.0002216665585
-2.891495311e-06
-7.042890333e-06
-4.54681962e-06
-1.084986039e-05
-2.204568764e-06
-3.627190606e-06
1.744195407e-06
-3.169277361e-06
-0.0003774300691
-6.263834769e-06
-0.0001207745365
0.0001987868338
-0.0001115118458
0.0001045160199
-0.0001486893869
0.0003526100472
-0.0001793762031
0.0009493167912
-0.0004906448267
0.0003260621927
-0.001261970106
0.0005347528519
0.0008605319994
-0.001357206762
0.01248191589
-0.0009850894486
0.0005281378826
-0.0006367706769
0.0003606984353
-0.0005107514145
0.000260051915
-0.0005456185149
0.0002462714606
-0.000717059737
0.0003300595627
-0.001064110043
0.0006735903755
-0.001690821172
0.00166361851
-0.001918920403
0.002422994329
-0.002010657531
0.001856132341
-0.001656783165
0.001701851155
-0.001073402652
0.00159542916
-0.0005476838109
0.001247472949
-0.0002278299029
0.0007899118742
-7.488144345e-05
0.0004004161352
1.497652444e-05
9.391137001e-05
6.736068706e-05
0.0001065348489
8.438796818e-05
0.0001142850045
9.672680366e-06
0.0001117296972
-3.542252777e-06
-6.107275427e-08
-1.140733497e-06
-2.418737235e-06
1.699599626e-08
-8.556761112e-07
1.555357494e-06
-5.73099154e-07
8.076920038e-07
2.707236574e-06
-0.000109297655
-4.364644788e-05
1.692275441e-05
0.0003670094218
-0.0001161939728
0.0006441797435
-0.0001366254446
0.0006613229633
-0.0002138626459
0.0002722011536
-0.0004569040806
0.0003428141017
0.0005588345843
-0.001432964447
0.01408596718
-0.0011451874
0.0007818984078
-0.0008640650099
0.0005936602979
-0.0006379753245
0.0004914794443
-0.0004677276867
0.0004373936794
-0.0003619864397
0.0004028343293
-0.0003683181354
0.0004707149333
-0.0007948990278
0.001740268358
-0.001615529522
0.004447843133
-0.00187209697
0.002094806508
-0.001760498715
0.00181587514
-0.001312556068
0.001979154187
-0.0007603163355
0.001790360288
-0.0003232002038
0.001257242169
-8.480163973e-05
0.0006202325057
-3.470070316e-05
0.0001061850431
-1.312059666e-05
9.975206891e-05
-9.517894038e-06
8.332212599e-05
-3.846506523e-06
5.397736756e-05
-9.568160785e-07
6.256368618e-06
-3.185442452e-07
-6.383273625e-09
7.219160934e-09
-5.956952725e-09
1.965248644e-07
3.904824156e-09
9.092879333e-06
1.923662793e-05
0.0003113548328
-0.0008661202677
0.0001385045282
-0.0002684336532
-0.0002416393561
0.0002959554166
-0.000210896568
0.00056214791
-0.0001879381949
0.0003605939191
-0.000163858366
0.0005018175355
0.0006771580356
-0.001397903971
0.01499323559
-0.00119755431
0.001020652243
-0.0009594105899
0.0008170628717
-0.0007320559147
0.000713068448
-0.0005094629921
0.0006580638874
-0.0003142439107
0.0005722826147
-0.0001580863614
0.0005135397468
-0.0003299454062
0.001797769559
-0.00133337983
0.00499471443
-0.00146281554
0.00177048886
-0.001544819097
0.001475742028
-0.001370812469
0.001889202385
-0.0009254700794
0.002060720138
-0.0004224400044
0.001658326559
-0.0001008882351
0.0008499699647
-6.034057804e-05
0.000139627962
-3.7501175e-05
0.000116403745
-2.281491073e-05
7.594011802e-05
-7.059141371e-06
3.91027148e-05
-4.925474471e-07
8.65050871e-06
-1.040830168e-07
5.808658251e-07
1.145988332e-08
1.406878275e-07
2.252008122e-07
4.276653063e-07
1.340556943e-05
2.147288961e-05
0.0005081229718
-0.001067897593
0.0006788234786
-0.0007981894429
0.0004975873991
-0.0002518169315
0.0002760550393
0.0002557119361
0.0001561216547
0.0004919416079
-8.562055232e-06
0.0009963352045
0.001156966822
-0.001320541176
0.01511004882
-0.00122574829
0.001238330886
-0.00100695938
0.001068426668
-0.0008200562033
0.0009322651772
-0.0006171550575
0.000912267024
-0.0004508713705
0.000844528776
-0.000468589386
0.0008530281979
-0.001002896551