/*--------------------------------*- C++ -*----------------------------------*\
  =========                 |
  \\      /  F ield         | OpenFOAM: The Open Source CFD Toolbox
   \\    /   O peration     | Website:  https://openfoam.org
    \\  /    A nd           | Version:  8
     \\/     M anipulation  |
\*---------------------------------------------------------------------------*/
FoamFile
{
    version     2.0;
    format      ascii;
    class       volScalarField;
    location    "0.9";
    object      epsilon;
}
// * * * * * * * * * * * * * * * * * * * * * * * * * * * * * * * * * * * * * //

dimensions      [0 2 -3 0 0 0 0];

internalField   nonuniform List<scalar> 
67286
(
0.9163472954
0.7573730783
0.5634493202
0.4255394393
0.4027179349
0.4194613166
0.4319323335
0.4169542462
0.3840706295
0.3343126931
0.2844731398
0.2390138445
0.2000928333
0.2018016855
0.2226547491
0.2117369499
0.1650150598
0.1019658938
0.08294009646
0.1106407103
0.1443519456
0.1878393938
0.3491444214
0.1381111662
0.09074491286
0.05937275257
0.02945735817
0.0241985696
0.9851531665
0.9014917565
0.6810081444
0.4886507422
0.4451383253
0.4752013931
0.4924210949
0.4680482476
0.4308053843
0.3773545512
0.3319840133
0.2861533519
0.2406575569
0.2684941842
0.318214536
0.2795174102
0.217342918
0.1523332889
0.1010021476
0.1198761461
0.14895339
0.1251098995
0.1316517453
0.0909034107
0.05918264409
0.03556281931
0.0278264116
0.02874694895
0.04123517741
0.03341245483
0.03350742522
0.04002284118
1.017682953
1.021836155
0.7971520756
0.5449004416
0.4725968168
0.483194395
0.4939134563
0.480821939
0.4507022989
0.4137455021
0.4032071298
0.374752392
0.2662855587
0.298138204
0.3394431654
0.3109124958
0.2445828648
0.1732918061
0.1132102226
0.0836753561
0.07282026172
0.08936513104
0.1784713992
0.08646534361
0.04086448474
0.02314335671
0.03577090816
0.03508702788
0.05121139215
0.03784274419
0.03547338075
0.04535757033
0.9795006223
1.048127167
0.8378404546
0.5644870186
0.4632454837
0.4549761764
0.458764108
0.4492438006
0.4368028754
0.4221349774
0.3556450696
0.3130061581
0.2568342896
0.2378389394
0.2374449671
0.2235780521
0.1682265279
0.1112459147
0.07697391349
0.07225881266
0.1012747811
0.1855038034
0.4299315477
0.1673875319
0.06416185887
0.02893152457
0.04893493852
0.0427744757
0.05867791614
0.04149011523
0.04103545289
0.05857103914
0.09759185236
0.7680583688
0.7031499867
0.5200693195
0.4329920066
0.4145311458
0.4091782071
0.4131684058
0.4180784421
0.4246327413
0.4681123321
0.3815249697
0.2976452026
0.2336912261
0.1931839375
0.1645426382
0.1269912873
0.09226258571
0.07585832819
0.07749717523
0.09902264666
0.190312775
0.445540886
0.8469649424
0.303891308
0.1226271884
0.03663599832
0.05708008128
0.03497992204
0.02884739143
0.03682281627
0.05962023112
0.09499352432
0.1690197445
0.6525238333
0.625831848
0.3974572921
0.3848142545
0.4411576968
0.43412125
0.4384590372
0.4605024464
0.4636579882
0.555975484
0.5035604156
0.3503720317
0.2332621658
0.1404765917
0.0970887081
0.08247757803
0.08085031092
0.08882872872
0.09224114792
0.09902409689
0.1128354601
0.1492062768
0.2669925755
0.2541134343
0.09980584814
0.04672543458
0.02748323036
0.03140088358
0.04534665059
0.06764886779
0.1108568416
0.1818126211
0.3086736822
0.5675040348
0.4367444325
0.3437447797
0.356829891
0.3941132032
0.4398479122
0.5316681196
0.6659696304
0.7959463744
0.8103624069
0.7471840647
0.5397627546
0.3498681852
0.1914134581
0.0810017978
0.08464555467
0.1083885165
0.1238648073
0.1259194969
0.1371592557
0.1627854441
0.2745563474
0.38034252
0.3569072216
0.2681755921
0.1053324259
0.0451891853
0.05667155764
0.08843892367
0.1489607996
0.2359621998
0.3674041595
0.5773512458
0.4729625595
0.3647212872
0.4038865132
0.4978525462
0.5440010714
0.5253086211
0.559611418
0.6547763333
0.7365405508
0.7347707218
0.6648961821
0.5333654108
0.3689079705
0.1722888638
0.09018415836
0.1245052774
0.1690943949
0.2029135778
0.2179883615
0.2395384978
0.3012831608
0.4728405262
0.6223664247
0.6358791977
0.426726042
0.154031581
0.07625869401
0.0872673586
0.1202488295
0.2417908796
0.3996149706
0.6576633322
1.06350502
0.430806224
0.5258423792
0.7442252397
0.942217465
1.016960438
0.8622299908
0.6063102858
0.591497999
0.6432861611
0.6141085723
0.5411176018
0.4529398439
0.2995743738
0.1114789796
0.1249301899
0.1903780633
0.2549809193
0.3064804746
0.3473905989
0.4118711195
0.5492093341
0.7862440909
1.074263621
1.112130663
0.8386310488
0.4274925106
0.1457302242
0.1655208825
0.2529101514
0.4101207805
0.6820503153
1.181452952
1.942902639
0.4461425407
0.619682919
0.8160229912
0.9444871969
0.970491453
0.8404604292
0.571641559
0.5114264316
0.5364739217
0.5303417674
0.4454060084
0.3417625198
0.1769351727
0.1030715562
0.1671378933
0.2511116627
0.3347602705
0.4226304243
0.5251895619
0.7057886449
1.076526871
1.586661105
1.936349351
1.909015288
1.481961768
0.8692302453
0.3068442609
0.20995395
0.3449249939
0.610158141
1.106102611
1.998110563
3.246402527
0.4240420533
0.5856711013
0.7529777252
0.8790919561
0.9779666094
1.021521963
0.8288372512
0.5557077245
0.7234164111
0.6163279427
0.4111889332
0.2692847754
0.1338850252
0.1247544767
0.2032495893
0.3025782957
0.4226644292
0.5543679227
0.6762275815
0.8194860547
1.096560677
1.478961633
1.817712815
1.886462541
1.544500423
0.7347547355
0.2393960317
0.2623177596
0.5300773276
1.023758397
1.807946598
2.979073708
4.410522234
0.4268112993
0.6462431588
0.9443316823
1.310827502
1.726681537
1.991315622
1.822983203
1.268605875
1.666378379
1.318935621
0.6471955563
0.2601685798
0.1283887284
0.1864224277
0.2572764286
0.3411256761
0.4453806191
0.5581402501
0.6504957436
0.7163521963
0.8645168644
1.165738862
1.401781371
1.393602517
1.042588957
0.5497274965
0.3312500755
0.2330369838
0.3872969273
0.6989740659
1.257599596
2.147327768
3.278952507
0.3805871598
0.5963920633
0.8947481997
1.225853909
1.56775245
1.794532064
1.793083959
1.76529181
1.859449488
1.286480955
0.6756550142
0.2620865284
0.1352577151
0.19764276
0.2619813354
0.3295480146
0.4116020222
0.5022096017
0.5742513565
0.6042210228
0.628286134
0.7966873204
0.9763605108
0.9273174472
0.6752574623
0.3843702345
0.2189179857
0.228544371
0.3414776183
0.5180712519
0.812633222
1.318501849
2.020309258
0.2919947566
0.4494472002
0.6860989031
0.9316415114
1.15051941
1.294902112
1.340447861
1.377667732
1.418730438
0.847502104
0.4532079352
0.1707961394
0.1330930471
0.1952029179
0.2551793958
0.3109888566
0.3761248203
0.4475140737
0.503689319
0.5226847573
0.488207584
0.5417020886
0.6760281534
0.6378104235
0.4733934874
0.2391397455
0.1933204905
0.2519289265
0.3460198198
0.4551675511
0.5962751559
0.8167028343
1.171462137
0.2032587655
0.2846056742
0.4393836055
0.6144524082
0.7667307336
0.8563685174
0.8929415505
0.9243676582
0.9160872367
0.436112389
0.2478320884
0.1161922444
0.1259581558
0.1809385614
0.2345357292
0.2816451105
0.3352442655
0.3929073868
0.4363835233
0.4470701747
0.3870616054
0.3896058005
0.4844346864
0.4337563465
0.3206994285
0.1908319785
0.2365120853
0.3360171064
0.4489538858
0.5569047146
0.6497982706
0.7259869258
0.8240269712
0.1419598003
0.1700338278
0.2503771565
0.3538575895
0.4523190753
0.5192167194
0.5586631251
0.5933629881
0.572894892
0.285088545
0.1958374894
0.1169496685
0.1161708917
0.1579991976
0.2034648158
0.2424614461
0.2843912601
0.3289829902
0.3602343475
0.3610267813
0.2926912311
0.2797840859
0.3367263353
0.2603323405
0.2109629612
0.1979770767
0.2909911966
0.4142703412
0.5546210356
0.7121928306
0.8581824122
0.8893608644
0.902021725
0.1098774928
0.1229392436
0.1644065759
0.2163658372
0.2694778304
0.3129440617
0.3479985043
0.3823642825
0.3778032086
0.2545520611
0.2040262497
0.1349676973
0.1095275784
0.1328117435
0.1688780027
0.2007060852
0.2302658406
0.2596214939
0.2770646203
0.2665315269
0.2135999024
0.1957400148
0.2034798419
0.1627986501
0.1726749487
0.2267887455
0.3280015801
0.4589565175
0.647365569
1.009612409
1.537344905
1.043020615
1.025184788
0.09695526445
0.1120067075
0.1407540462
0.1704875356
0.200076712
0.2273748588
0.2529254378
0.2772935814
0.2819556536
0.2376673127
0.2063328309
0.1502815412
0.1074033159
0.1104106026
0.1357721676
0.160968373
0.1823048536
0.1997317275
0.20737116
0.1971437637
0.1773163459
0.2070052787
0.2257990331
0.2130065978
0.2097296294
0.2527172669
0.3570080407
0.5778241723
1.180405675
2.842692212
5.005008868
1.641994056
1.065913479
0.09282266288
0.1099176193
0.134833671
0.1572739942
0.1777177114
0.1963473156
0.2135671543
0.2283383079
0.2326890922
0.2148246037
0.1939426666
0.1514977059
0.1039167852
0.09316939579
0.1092524981
0.1294330011
0.1483887321
0.1667650499
0.1878298735
0.2274175245
0.2974615502
0.3368293773
0.3338440646
0.3031498671
0.273175492
0.2991497254
0.5000086412
1.253232065
3.502432721
8.189538976
12.01897558
5.319362877
1.622487591
0.09044531191
0.1067681523
0.1298108089
0.1497131192
0.1661885014
0.1795808784
0.1904290961
0.1980565665
0.1991220359
0.188632441
0.1719994982
0.1366450402
0.09720330127
0.08937283163
0.1101451601
0.1433332287
0.1871891547
0.2482123979
0.3233550016
0.3977876267
0.4507293992
0.4763102879
0.4665677312
0.4231340042
0.3640961406
0.3638119316
0.6695683752
1.86022505
4.602593109
10.07136477
16.48889953
8.804431938
3.659547214
0.0873569383
0.1009508876
0.1221182696
0.1409412026
0.1557872776
0.1658846697
0.1720813469
0.1744380731
0.1719226269
0.1621168592
0.1444351437
0.1171606119
0.101323867
0.1193376645
0.1696128889
0.2399248144
0.3249473878
0.405253639
0.4833570383
0.5609891719
0.6192622345
0.6451279712
0.6327376112
0.5790071519
0.4878590667
0.3998029803
0.4281905589
0.9586365443
2.70875728
6.118021164
11.9346611
5.446287767
2.160279562
0.08345724475
0.09305357201
0.111442728
0.1291810251
0.1435292476
0.1523917168
0.1555939864
0.1541987547
0.1482314543
0.1360654803
0.1219044494
0.1170378745
0.1387713692
0.194197225
0.2725031057
0.3602938543
0.4509324828
0.5490487686
0.6442738664
0.7243407731
0.7785271497
0.7993617247
0.7838150469
0.7309689225
0.6396484591
0.5146382846
0.4126540499
0.4745715255
1.122462479
2.947157736
6.427803512
2.248198914
0.9705400102
0.07910460655
0.08401369202
0.09829298613
0.1137851433
0.1272926487
0.1355834418
0.1375202495
0.1338024399
0.1262366577
0.1193881378
0.124465867
0.1529752382
0.2082211061
0.2837538013
0.3702424181
0.4668018986
0.5715525525
0.6794788458
0.7775449967
0.8547451592
0.9036402318
0.9201191659
0.9029854006
0.8526423374
0.7702622782
0.6569800392
0.5137674791
0.405708455
0.4904161514
1.138466201
2.917567005
0.8623112674
0.7096840154
0.07429771043
0.07440923345
0.083553925
0.09517332644
0.106663307
0.1142744052
0.1162709679
0.1141936944
0.1137204938
0.124835355
0.1567052349
0.2092685707
0.2769856017
0.3570057709
0.4517554886
0.5605388259
0.6758407663
0.7858837448
0.8809479415
0.9534103745
0.9980818621
1.012393299
0.9959687131
0.9492272924
0.8693170388
0.7574161769
0.6189797618
0.470562492
0.3761908485
0.467230324
1.029804193
0.5030938224
0.7654576814
0.06817041287
0.063837455
0.06793815534
0.07492845056
0.08340346312
0.09048379996
0.09529806374
0.1014272307
0.1170045415
0.1493468711
0.1976561157
0.2564746891
0.3247510714
0.4067521327
0.5046529331
0.6146520981
0.7284844352
0.8361257331
0.9284444182
0.9984844456
1.041699782
1.05580907
1.040409047
0.9958321349
0.9186633699
0.8106767556
0.6836068506
0.5423469169
0.4098331029
0.339466799
0.4202617117
0.3636197316
0.5813955335
0.05923638403
0.05111716665
0.05211507567
0.05595590485
0.06197694426
0.06967619773
0.08078878412
0.0999968938
0.1322133101
0.1767102077
0.2286231291
0.2865349652
0.3542142294
0.4363164281
0.5326842675
0.6389680477
0.7477413809
0.8502977099
0.9385846717
1.006313526
1.049235497
1.065011459
1.052884723
1.012569107
0.9366968513
0.8310127043
0.7113537418
0.5790830685
0.447274628
0.350354049
0.3036120375
0.2898602388
0.378408808
0.04491669338
0.03771717233
0.03905580641
0.04239024774
0.04752893313
0.05768953924
0.0768432874
0.1078388383
0.1495066441
0.1971406407
0.2481101236
0.3042548346
0.3701392691
0.4485606815
0.5384618244
0.6361470217
0.7356588756
0.8298841221
0.9119729083
0.9762842264
1.018719749
1.036696191
1.028886532
0.9941389283
0.9193737527
0.8183175095
0.7031066062
0.5774974027
0.4559523971
0.3614658003
0.2986882601
0.2924540944
0.3518800029
0.01881638343
0.02814744619
0.03220630008
0.03578211871
0.04187808738
0.05620398556
0.08234457945
0.1197517781
0.1640303716
0.2109837328
0.259859669
0.3126778292
0.3722639725
0.4412721353
0.5187155459
0.6015068128
0.6854900393
0.7655319669
0.8363920894
0.8934255281
0.9329203099
0.9522090933
0.9493600596
0.9219121975
0.8501119696
0.7551305035
0.6469637674
0.5337058148
0.4342479194
0.3486737817
0.3058312893
0.3547028621
0.457004696
0.01371926781
0.02434072531
0.02924997483
0.03355183919
0.04269665791
0.06197782401
0.09285190613
0.1322678598
0.1754895308
0.2195895615
0.2642850317
0.3107649652
0.3602845012
0.4133616751
0.4692660012
0.5262578641
0.582120981
0.6346425508
0.6829956939
0.7252560896
0.7564401719
0.7739795291
0.7757073638
0.7572317167
0.692612442
0.6166479135
0.542422191
0.4637531236
0.3862381931
0.3154710338
0.2984072972
0.3912460354
0.5295575982
0.01048772216
0.02433580772
0.02950502898
0.03691880971
0.05325859326
0.08259789129
0.1222846504
0.1658833736
0.2088858485
0.2498618999
0.2889732558
0.3267530529
0.3635385218
0.3992559507
0.4334004198
0.4651785149
0.493724052
0.5182775815
0.5383614357
0.5535246427
0.5627342336
0.5654627218
0.5614875416
0.5472917206
0.5101600329
0.4706855269
0.4283653632
0.3810298591
0.3298320533
0.2788073482
0.2738201139
0.3837998374
0.516295487
0.8505837845
0.4923581221
0.3788846184
0.3002643603
0.2559555986
0.2629369217
0.2792847727
0.2706402467
0.2523400736
0.2245552273
0.186332831
0.1589689258
0.1278183215
0.1325445674
0.1401100732
0.1174700713
0.07893110281
0.06358302395
0.07533750049
0.1051186142
0.1381436472
0.2320985879
0.548879182
0.1455449599
0.07471809783
0.04615798713
0.02415847592
0.0220452687
0.995088957
0.6278822744
0.4906867997
0.3987375377
0.3174737702
0.3242002532
0.3465490113
0.3296024045
0.3053748213
0.2786447858
0.2407073182
0.2149973122
0.1918667647
0.2214779953
0.2446391214
0.238803937
0.1337180782
0.09118902258
0.08231304366
0.1716695595
0.1431803014
0.1500318453
0.142203021
0.08171934755
0.0516002133
0.03343435835
0.02318731367
0.02445228406
0.03273340214
0.02580700379
0.02626226007
0.03203824225
1.059148013
0.7206618781
0.5802216239
0.4667604652
0.3632447603
0.3449562557
0.3462135343
0.3401234994
0.3311765532
0.3271782574
0.3002415142
0.275228982
0.2497510072
0.2405578899
0.2778900357
0.2395978557
0.1935693601
0.1271833814
0.08209278437
0.07378766611
0.08380791774
0.0807653777
0.09577433699
0.06204705819
0.03179981893
0.02478410762
0.02786188936
0.02920805966
0.04292022729
0.03127929356
0.02741837169
0.03285547269
1.012344582
0.7147435873
0.5809473775
0.4691295489
0.3621303688
0.3288995522
0.3190118922
0.3260039752
0.3189913742
0.3211303036
0.3162465335
0.287373119
0.2227227958
0.2001198985
0.2021877476
0.1906346164
0.1321240014
0.08657380477
0.06309108859
0.0543692591
0.07597582668
0.1571374585
0.3159794254
0.1132007682
0.03604362594
0.03161607575
0.04958153467
0.03830231347
0.05035828369
0.04839144274
0.03179886937
0.03785552858
0.05577258414
0.8418974036
0.6327719863
0.5396641624
0.4095768195
0.3381642103
0.3056680146
0.3256903655
0.3351142909
0.3286838706
0.3412484021
0.3252146091
0.2644846451
0.1975630497
0.1565486518
0.1362704124
0.1112843275
0.07834917103
0.05815050794
0.05541237069
0.06373763471
0.1234405416
0.4031544252
0.4962742284
0.2347013705
0.05456469481
0.03940571932
0.04825833052
0.04030478118
0.03091620605
0.03309769865
0.03755404764
0.05081149694
0.08270063519
0.7650110771
0.589818236
0.4797529857
0.3993116889
0.3392749742
0.2993799166
0.4101622929
0.3657510267
0.3788404494
0.4050411448
0.384258905
0.2490246475
0.1700349531
0.1173416326
0.08397651742
0.07313992569
0.06493660585
0.05646032726
0.06333734232
0.07039792491
0.09484369238
0.1547503466
0.2659385973
0.1623929944
0.05232193988
0.03597452008
0.0303594806
0.02423574453
0.02936719865
0.03923057499
0.05437794919
0.08271580446
0.1364697638
0.5241331212
0.3832901326
0.3260037457
0.3254938642
0.3572932485
0.3579973143
0.4174392774
0.536234127
0.5884991147
0.5626123193
0.5395949091
0.3785153825
0.2154444371
0.1332299883
0.07180787242
0.068429501
0.06586725005
0.06479280494
0.07008044327
0.07901555489
0.1054598374
0.1496910576
0.2832636744
0.2813541114
0.1570143319
0.06247053163
0.03690586751
0.03486091775
0.04739565122
0.074358634
0.108109108
0.156287385
0.2429244186
0.4164456848
0.2962498914
0.316653649
0.3982741747
0.5143738811
0.575909807
0.488475552
0.4988767859
0.5447761337
0.5145181837
0.4655070821
0.3383795456
0.2104685304
0.10900625
0.06894978483
0.07652647534
0.08691537292
0.09424682517
0.08867960567
0.08237584585
0.09974689624
0.1559636527
0.3352318503
0.379241885
0.2179681219
0.1013189358
0.06610563117
0.05291825883
0.0707450615
0.1319661485
0.1780452955
0.2722047267
0.4629816442
0.3740106811
0.3223518006
0.4262749381
0.6115177141
0.7505890832
0.8081160886
0.7230119905
0.5274939725
0.4935763426
0.3807461012
0.2566789631
0.2146064873
0.1547326105
0.07964680275
0.07735057912
0.09539988701
0.1127786172
0.1302308223
0.148326348
0.1823928642
0.2926123204
0.6147628093
0.876539098
0.8084762741
0.5392319647
0.2279751865
0.1144169062
0.1149226042
0.1402174234
0.1896660351
0.2904680518
0.5230149892
0.9257912936
0.3598449797
0.3415844045
0.5045750252
0.6985365305
0.8181250514
0.8652376443
0.7996061535
0.5894216588
0.5283976935
0.4753990127
0.2476701996
0.1720523762
0.105173576
0.07593409557
0.08982025253
0.1161043726
0.1670991522
0.2481315616
0.349162578
0.5279987585
0.9095094462
1.408354115
1.584287801
1.368769627
1.158311834
0.562671687
0.2028942823
0.1288872445
0.1702223226
0.2544773141
0.4715323716
0.9370653638
1.595372081
0.3342669622
0.3341223392
0.5648318103
0.8613396371
1.187377769
1.547440509
1.786721098
1.513713395
1.049773449
0.8696108304
0.359390038
0.1608019311
0.1000758802
0.08660488174
0.1066051505
0.1703719031
0.2826281458
0.4483231745
0.6580413446
0.9215950268
1.33341534
1.691455747
1.83273934
1.604050776
1.193811166
0.7022844085
0.1757778277
0.1267347958
0.2028874632
0.3262242127
0.6103259553
1.164345745
1.850703733
0.3124707312
0.3333166074
0.6186217858
0.9883940443
1.32414643
1.571273251
1.693269079
1.66976087
1.421152556
1.109094083
0.6316733171
0.162605702
0.08603481015
0.08358972547
0.1126755727
0.1718941485
0.2620484212
0.383343407
0.538699558
0.7456081644
1.074646855
1.470781229
1.477903477
1.144795474
0.7174672576
0.3656497748
0.180456421
0.1643746955
0.2259744347
0.3353506619
0.5335007527
0.8926849258
1.392084455
0.2755329787
0.3073363937
0.5366430817
0.8689737384
1.134027878
1.31614616
1.360992824
1.290654288
1.158251091
0.9182299067
0.390808705
0.1335117507
0.08304845592
0.0874182334
0.110582588
0.1565070082
0.2236649734
0.3063024635
0.3870881438
0.4682800455
0.5761289974
0.786311441
0.9577684485
0.6774570296
0.3681554142
0.1967660536
0.1565574479
0.1817615828
0.250365498
0.3411649534
0.4582346543
0.6205019039
0.841712363
0.2247865773
0.2412195544
0.3586712956
0.5271336358
0.7167644133
0.8402370927
0.8973259733
0.8725490191
0.7869646856
0.5584079669
0.2253175086
0.1063126878
0.08207437749
0.09168438642
0.1102992718
0.1443852949
0.1936765687
0.2507768517
0.2970749544
0.3268591911
0.3517422356
0.3700941172
0.4383638609
0.3724552869
0.2492895143
0.1736699027
0.168038297
0.2208382951
0.2995650906
0.3882186083
0.4780732257
0.5666115118
0.6573167092
0.1767461282
0.1700486819
0.2259399881
0.2930550686
0.3636014199
0.4245006548
0.460819144
0.4521217378
0.4112901094
0.2872226105
0.1699671483
0.1015433599
0.0823817737
0.08991212324
0.1038943257
0.1291478256
0.1666858984
0.2081786324
0.2392822933
0.2544019581
0.2512599869
0.2466254489
0.265401707
0.231390354
0.1900265097
0.1574288579
0.1943237758
0.2608708793
0.3437467998
0.4332486913
0.5158274348
0.5809832207
0.6290535482
0.1415131343
0.1206673914
0.1481319956
0.1843143394
0.2177321436
0.2384211662
0.2517459485
0.2605616448
0.2507191792
0.2033948297
0.154631665
0.1061851939
0.08191049013
0.08376589006
0.09314244213
0.109472676
0.1364168041
0.1673763402
0.1903666928
0.198685391
0.186661585
0.1901461318
0.1914376937
0.1539057576
0.1434834022
0.1535039652
0.2051411319
0.2731882317
0.3630188227
0.4836729182
0.592112929
0.6165934526
0.6321085521
0.119656767
0.09824751989
0.1120300033
0.1313825557
0.1518066562
0.1686007455
0.1828133912
0.1980918493
0.1980920245
0.17237255
0.1417428387
0.1057544852
0.08096705659
0.07768145462
0.08389905174
0.09215166942
0.1080995985
0.1282903895
0.1443537621
0.1481025773
0.1458364675
0.1456387758
0.1443623511
0.1285079826
0.134948623
0.1634037207
0.2136117679
0.2891828975
0.446139585
0.8022411399
1.102127187
0.8175337645
0.675281067
0.1078877563
0.08856524167
0.09462612098
0.1039124143
0.116654079
0.1305648437
0.1469868236
0.1611708214
0.1639793709
0.1483576462
0.1259621883
0.09930067546
0.07938747664
0.07290191178
0.07781701278
0.08430327096
0.09247642454
0.1052582019
0.1211219347
0.1331744963
0.1433038111
0.166784258
0.1767649455
0.1684465667
0.1667740337
0.183712483
0.2303287761
0.3751818345
0.9593150874
2.556812731
3.511476808
2.022745177
0.9390165037
0.1020420964
0.08226448852
0.08409778111
0.08842789765
0.09767972836
0.1092087994
0.1218882094
0.1320136316
0.1339724172
0.1238496989
0.1075319395
0.08944018158
0.07528804777
0.06839985211
0.07405509783
0.08481013301
0.09897564325
0.1179903104
0.1432350097
0.1767549313
0.2162205995
0.2367867436
0.2351533661
0.2236761045
0.2160617186
0.2292995188
0.3189449774
0.7186097595
2.114940898
4.968542425
5.928395043
4.265927995
1.614714619
0.09828537114
0.07692079217
0.07696020864
0.07924418819
0.08647850097
0.09480515729
0.102582088
0.107762988
0.1074244587
0.1000965155
0.08910518303
0.07936544958
0.07073902731
0.0694794802
0.08277732048
0.1060322184
0.1374666659
0.1764242299
0.2191793617
0.2589218126
0.2850821836
0.2946909139
0.2921250156
0.2842962594
0.2773647155
0.2816815379
0.3303890039
0.5022055291
1.54485108
5.398748134
7.515062431
4.580946767
1.454264697
0.09478581191
0.07218269117
0.07169830239
0.0733206514
0.07798357615
0.08380851358
0.08757025205
0.08814567917
0.08553221458
0.08026061758
0.0758006433
0.07353084368
0.07398697482
0.08589918876
0.1131016956
0.1504741828
0.1934206221
0.2378077052
0.280906997
0.321794514
0.3495771476
0.3611975973
0.3587044879
0.3459462903
0.3300957712
0.3222598862
0.331112319
0.4000155436
0.6414291763
2.628468994
5.650061412
2.569208025
0.854985985
0.09108267843
0.06786050643
0.06711791465
0.06881611703
0.07178019356
0.07392090552
0.07442768731
0.07236753151
0.06952484274
0.06931970632
0.0717281108
0.07782646545
0.09159671277
0.1170104807
0.1524097692
0.1942536422
0.2434659627
0.2959017792
0.3450840853
0.3859612435
0.413011822
0.4237504479
0.4188502852
0.4014384101
0.3768010808
0.3532235519
0.3448770839
0.3572062743
0.4231324789
0.6964964015
2.072510889
0.9065684462
0.524548308
0.0869595421
0.06368489676
0.06233617752
0.06397555679
0.06653666142
0.06721711775
0.06583292157
0.06397261805
0.064269636
0.06857426457
0.07795557363
0.09409168564
0.1177271316
0.148832858
0.1889004732
0.2391168697
0.2943398476
0.3493294815
0.3980775829
0.4359221723
0.4596435871
0.4680180778
0.4617186598
0.4429367716
0.4150367333
0.3825957822
0.3539761232
0.3418726453
0.3459911936
0.4143490187
0.6921204961
0.446582293
0.4150277019
0.08211651941
0.05931429996
0.05701271766
0.05773322414
0.05977176395
0.06071581203
0.06045918406
0.0610232834
0.06529460358
0.07542272088
0.09212003804
0.1143358324
0.1416869209
0.1778660106
0.2245627116
0.278859034
0.3359226858
0.3900628505
0.4363054541
0.4711235926
0.4924017897
0.4994153883
0.4927044375
0.4738865312
0.4454003264
0.4098759604
0.3716042475
0.3392908358
0.3207440321
0.3223292845
0.4038354458
0.321939146
0.3824617053
0.07601328951
0.05472331742
0.05146979679
0.05030331286
0.05100170508
0.05250376748
0.05487798155
0.05988335158
0.07000238512
0.08608920824
0.1066428589
0.1307291393
0.1616258296
0.2033355793
0.2529539406
0.3085424499
0.3651988096
0.4177275114
0.4618988035
0.494835204
0.514879292
0.521441484
0.514864796
0.4963275974
0.46771449
0.4307129785
0.3879196198
0.3441276155
0.3109491827
0.2882798628
0.2945338962
0.2788774852
0.3349833091
0.06603195185
0.05015469
0.04719989383
0.04326958022
0.04223534881
0.04447315018
0.05045745278
0.06112477818
0.07703628838
0.09675425251
0.1188370694
0.145083172
0.1809155718
0.2236558281
0.2735306426
0.3280038592
0.3827774628
0.4333324911
0.4759326599
0.5079580802
0.527818776
0.5348068947
0.5289862165
0.51117204
0.4828651274
0.4453541461
0.400526212
0.3524293433
0.3108042762
0.2805279727
0.2667592584
0.2687425007
0.3080343917
0.04577754871
0.04146022276
0.04410424771
0.03851588584
0.03637471775
0.04020767545
0.05010627925
0.06590149739
0.08608446249
0.108513202
0.1330353837
0.162204929
0.200098452
0.2429176198
0.291087991
0.3427949955
0.3946218385
0.4427627188
0.4838737067
0.5154239142
0.5356938873
0.5436960909
0.5391249179
0.5224440236
0.4947308895
0.4568763871
0.4105406404
0.3607731238
0.3176243561
0.2859215489
0.2737915426
0.2973242454
0.3438701421
0.008235588808
0.03261854412
0.03755128076
0.03448710826
0.03524289038
0.04244924174
0.05680075694
0.0774911621
0.1023997006
0.1295727231
0.1586323223
0.1905591205
0.2269535349
0.2691184109
0.3151027072
0.363016728
0.4109245637
0.4558243575
0.4948499606
0.525599895
0.5461688378
0.5552041558
0.5519266357
0.5364150412
0.5090850743
0.4697974608
0.4209375812
0.3716064213
0.3298466664
0.294858407
0.2904083093
0.3382823136
0.3893873344
0.007222326151
0.02802133117
0.0321400757
0.03355678298
0.03929937299
0.05235004048
0.07352507801
0.1011989044
0.1325005906
0.1653094162
0.1991738
0.2349088665
0.2735216288
0.3153595406
0.3596556389
0.4048651478
0.4490959416
0.4901861419
0.5264136294
0.5559994681
0.5763549439
0.5856637889
0.5826517752
0.5669557491
0.5369839084
0.4911757089
0.4413988389
0.3893390688
0.339229806
0.2950487945
0.2914892546
0.3583240718
0.4240284357
0.006271552333
0.02720189323
0.03357320505
0.04097621262
0.05694539616
0.08594746113
0.1265524823
0.1732052363
0.2218398361
0.2717764862
0.3240507414
0.3798250682
0.439508413
0.5024800094
0.5672362521
0.6315652921
0.6926002191
0.7470772842
0.7917561398
0.824115552
0.842701782
0.8466596862
0.8358556314
0.8092057123
0.7470327654
0.6726466508
0.5909014008
0.505816067
0.4220270377
0.3496171504
0.3236645261
0.4091803844
0.5313419095
0.6900768001
0.456736196
0.3583504017
0.2740699794
0.2248290662
0.2450328413
0.2731161475
0.2633324765
0.2401905502
0.200351551
0.1574970628
0.1300526319
0.1154974228
0.1223818768
0.1443644971
0.1129156457
0.06842126161
0.05696781167
0.07669211732
0.1111521862
0.1659818296
0.3110811276
0.8125886094
0.1829402002
0.06162876951
0.03416261917
0.02118660415
0.02141724159
0.02499433601
0.8293513337
0.5905140189
0.4779023095
0.3789316317
0.3058762487
0.3102354817
0.3156607954
0.3173677468
0.2968266801
0.2732432367
0.2491110814
0.2341989519
0.2147016952
0.2427497194
0.2797950637
0.3230302743
0.1730213604
0.08166234398
0.07207656428
0.1233076529
0.1420167256
0.1439202507
0.1502805181
0.07633692906
0.04461375971
0.03396191473
0.03427638542
0.02739720631
0.03576925222
0.02848374195
0.02786347154
0.03349415882
0.9216758015
0.6735742896
0.552629809
0.4652939657
0.3475298393
0.3113349885
0.3117406674
0.305653572
0.3025182051
0.2992855572
0.2875726132
0.2745660285
0.2601582773
0.2471875267
0.2682307994
0.2613780599
0.2436809824
0.1163534734
0.07068739837
0.0667998919
0.08376070638
0.09182488443
0.1207736658
0.07453953195
0.03110304677
0.03695288693
0.03594325154
0.03875669166
0.05128373394
0.04133276256
0.02967543398
0.03431136011
0.8877850296
0.6570430551
0.5398915579
0.4398044285
0.339121081
0.2935977158
0.2905995182
0.2915372592
0.2911884628
0.2904646342
0.2896822292
0.2798474865
0.2320742089
0.2127527209
0.2292984439
0.2210775232
0.1682641147
0.08265169822
0.05922805153
0.05321461777
0.08502374109
0.2587137755
0.4985153778
0.2069637486
0.037119674
0.04184835398
0.068483916
0.04912617598
0.05656111984
0.05526886384
0.03857272766
0.038882659
0.04723749673
0.6838209246
0.5986590357
0.5175816342
0.4048591645
0.3048768321
0.2689443313
0.2921900103
0.2891008518
0.3057708189
0.3120618329
0.3039867417
0.2501072882
0.1899347622
0.1613433524
0.1463012214
0.1147806469
0.07299672636
0.05530147167
0.06801145416
0.08178717378
0.1848418726
0.6124602373
0.5455683385
0.4379476575
0.06799751458
0.0499599119
0.05482748153
0.06016096016
0.03848311754
0.03392812219
0.03607898307
0.0465506916
0.06445915905
0.6743322855
0.5306503713
0.5828258594
0.4151073163
0.2868918354
0.2759583768
0.3043081948
0.3589387796
0.3733991407
0.3979165478
0.3719252633
0.3008483171
0.1479098421
0.1130490019
0.09504555953
0.07252974785
0.06508047619
0.05873105636
0.08145616771
0.09693372363
0.1332888166
0.2341258702
0.3834904913
0.1694936229
0.06761265877
0.04036927636
0.04644721022
0.02352556852
0.02310527563
0.027821768
0.0391020952
0.06241165885
0.1015430764
0.4624999568
0.405546395
0.3298734321
0.2773822194
0.3015028853
0.3455456141
0.418245606
0.5014387403
0.5348209643
0.5310438571
0.5466050543
0.4869545097
0.2050210818
0.09816500573
0.06881750489
0.0694529932
0.05666108812
0.05434442052
0.07039467877
0.08613910468
0.1195573763
0.1561013046
0.2713546431
0.2690046724
0.1958686884
0.05532333039
0.04752284659
0.03078392614
0.04273185813
0.04103364245
0.06063332537
0.1019789176
0.1933189584
0.343599944
0.2688796428
0.2569784889
0.3529660307
0.5411270775
0.6486638379
0.5737499628
0.4911284865
0.5288058965
0.4875963427
0.4228615492
0.2688116482
0.1356306626
0.07522644036
0.06066026525
0.06184963018
0.06103504533
0.06775018828
0.07503307022
0.08900310026
0.1421691897
0.2271235918
0.3396688301
0.3668963408
0.2198966124
0.1110034383
0.08117129399
0.0419720372
0.04664100168
0.08975944715
0.1199556507
0.2268108403
0.4457394758
0.2980291223
0.246279224
0.3437263044
0.567507571
0.7313493066
0.8080480415
0.8121632772
0.5663145745
0.420162019
0.3436222037
0.2554066418
0.1533864443
0.0949100176
0.06433173218
0.06328695761
0.07321349183
0.09281018277
0.1295461767
0.1839404198
0.2965549323
0.4709299025
0.7517801915
0.9416487672
0.969373964