/*--------------------------------*- C++ -*----------------------------------*\
  =========                 |
  \\      /  F ield         | OpenFOAM: The Open Source CFD Toolbox
   \\    /   O peration     | Website:  https://openfoam.org
    \\  /    A nd           | Version:  8
     \\/     M anipulation  |
\*---------------------------------------------------------------------------*/
FoamFile
{
    version     2.0;
    format      ascii;
    class       volScalarField;
    location    "0.9";
    object      htcConv;
}
// * * * * * * * * * * * * * * * * * * * * * * * * * * * * * * * * * * * * * //

dimensions      [1 0 -1 1 0 0 0];

internalField   uniform 0;

boundaryField
{
    walls
    {
        type            calculated;
        value           uniform 0;
    }
    region0_to_wallFilmRegion_wallFilmFace
    {
        type            convectiveHeatTransfer;
        L               1;
        value           nonuniform List<scalar> 
983
(
3.370528587
3.050493775
2.56184977
1.702954993
1.611343329
2.854278886
2.994572129
2.89096761
2.753598636
2.752720972
2.790451883
2.939413146
3.15326883
3.252920646
3.179226642
2.9574286
2.667805312
2.43178284
2.323738737
2.302575689
2.306856119
2.305413799
2.288632972
2.259571511
2.209680892
2.081567801
1.77064123
1.372220925
0.7437791215
1.392079249
3.205817039
2.938398147
2.530702382
2.042041728
1.814605557
2.08361335
2.369460134
2.360828106
2.428206101
2.74741954
2.839167258
3.121855309
3.332916967
3.360157183
3.209067016
2.900499114
2.59982325
2.467094877
2.456181856
2.473770998
2.480069448
2.46264032
2.415341633
2.330708131
2.183669774
1.874807643
1.471178184
1.335326164
1.250961949
1.691424202
3.158375778
2.88007832
2.393459388
1.859765812
1.995139003
2.091381401
2.569918894
2.465265174
2.684447251
2.974432407
3.037379194
3.446861329
3.679985279
3.664390601
3.454061336
3.126619063
2.819173821
2.673186925
2.648903326
2.656605077
2.655005262
2.627385915
2.562384591
2.446820219
2.253303371
1.918219152
1.535836047
1.552053302
1.641132091
1.901142313
3.167027168
2.839227807
2.248920859
1.697878103
2.108802113
1.943746323
2.44479797
2.443060257
2.702800328
2.851094575
2.914518185
3.478828863
3.739839598
3.809729575
3.622856859
3.30319865
2.988841184
2.800732031
2.748777053
2.750292769
2.752242877
2.729294262
2.665334653
2.545366483
2.34946669
2.065603068
1.813394042
1.804842877
1.855392987
2.028693284
3.10493816
2.860223592
2.348175541
2.007839467
2.109631003
2.13404789
2.4467703
2.423792923
2.555681714
2.556181085
2.705889293
3.400543483
3.654000642
3.788210414
3.68742472
3.379425034
3.063255448
2.856049071
2.788141399
2.789884182
2.80324258
2.79250313
2.737513344
2.62714183
2.450841814
2.227426774
2.031129878
1.991878457
2.040553085
2.227139108
3.119531568
3.219242638
2.248721602
1.987923897
2.03331287
2.017251599
2.44444566
2.375238075
2.249273901
2.158268951
2.378967705
3.151551617
3.414684805
3.62835725
3.602941843
3.336368688
3.033837707
2.836683779
2.772226207
2.782995846
2.80332416
2.804762977
2.7593669
2.659163487
2.502319777
2.318504846
2.169538505
2.164397528
2.247227339
2.471806631
2.933429143
2.610464166
2.250334089
1.935390525
1.985541648
1.717650664
2.553803463
2.581818954
2.279766643
2.073586653
1.95253517
2.463396238
3.026698711
3.364737993
3.421719489
3.211727039
2.934793259
2.756528911
2.714949503
2.738084004
2.764729879
2.769985673
2.731401617
2.63895854
2.505231024
2.37625925
2.304260751
2.358230817
2.471068326
2.713534213
2.814755619
2.580487021
2.273908034
1.850586273
2.012803829
2.804345397
2.606013216
2.670055739
2.484739332
2.190396378
1.752402281
1.353630082
2.84984966
3.107497287
3.194997256
3.025550549
2.785691895
2.644380795
2.628080884
2.662118437
2.692138388
2.697455182
2.656748489
2.574002499
2.48320193
2.43926449
2.456791427
2.557644189
2.681380782
2.914744953
2.763729154
2.565674216
2.226166502
1.804490322
1.836041365
2.33586074
2.624050416
2.596056902
2.426593053
1.95990759
1.320167159
1.91860107
2.934912716
3.004980842
2.961131838
2.703314175
2.503808884
2.453999358
2.498012269
2.555551508
2.590172432
2.591347571
2.547589498
2.498684758
2.489407294
2.542203296
2.623552594
2.741558787
2.858014382
3.066376079
2.742117962
2.583508624
2.181669985
1.631258106
1.854710161
2.241898142
2.679342931
2.526522505
2.389757513
2.057450519
1.669941905
2.108909924
2.531855578
2.49216434
2.060988463
1.744759498
1.923994373
2.150010316
2.317214227
2.417127977
2.459892085
2.457335345
2.445722862
2.475484819
2.558891679
2.671627239
2.774355603
2.889816739
2.992351928
3.172196863
2.692562563
2.57655457
2.361629516
1.062774534
1.838716346
2.1147058
2.543796548
2.443626415
2.370070442
2.160673405
2.037284678
2.034189162
2.279314792
2.165979407
1.993646996
1.980872693
2.064106095
2.194316311
2.293810011
2.344019881
2.356854861
2.371579859
2.423644177
2.527372405
2.660812003
2.786184091
2.886310328
2.994962545
3.084703842
3.238947756
2.631415543
2.459602757
2.210748428
1.128391637
1.938235083
1.848337435
2.291415684
2.367399799
2.171390134
1.96574387
1.972414374
1.807566431
1.963358406
2.154256911
2.264804794
2.240597372
2.211598126
2.232597863
2.268342975
2.292732806
2.323020802
2.374286537
2.460892047
2.600253496
2.744601776
2.861090769
2.95436429
3.059582243
3.138919962
3.271418975
2.546834719
2.348752987
1.258873165
0.5765165354
1.578114352
1.746247533
1.986882962
1.991038068
1.879971511
1.908113268
1.786248869
1.827976945
2.151493676
2.378420101
2.510303788
2.522998842
2.472573416
2.416560304
2.386569346
2.37799221
2.374311228
2.396431116
2.496317058
2.655009702
2.78919729
2.890654463
2.980593251
3.088457085
3.159036599
3.272100915
2.527219977
2.438173943
2.072262058
1.390294321
1.16954065
1.506141729
1.683107227
1.837117032
1.92934699
1.875466424
1.729266759
2.134586434
2.380564832
2.56782194
2.672445452
2.685630051
2.637608101
2.567422334
2.501685914
2.436718243
2.37033112
2.391238063
2.525772691
2.680036603
2.793961913
2.890623613
2.980498245
3.085120603
3.147895395
3.242404363
2.599192369
2.734684119
1.760459203
1.442614517
1.183372525
1.563178289
1.812003786
1.981944257
2.078133284
2.116966554
2.114275819
2.387582564
2.577607143
2.73537351
2.805685788
2.804789547
2.75074218
2.663696444
2.567024825
2.450804139
2.346337123
2.401693447
2.544631847
2.670001722
2.772096214
2.866273121
2.955812664
3.054978347
3.107681689
3.183097912
2.294107298
2.454802844
2.363859145
1.896844678
1.132135969
1.544312295
1.88095002
2.106316789
2.33703904
2.393731059
2.348613201
2.472435635
2.606581884
2.73431659
2.786694768
2.790687758
2.756157002
2.67602278
2.565774638
2.415676529
2.315169732
2.416233919
2.526512485
2.629617638
2.721993795
2.816179518
2.906085797
2.999823119
3.039720342
3.094628988
1.985506127
2.226615318
2.501022191
1.813722668
1.812758025
1.955375799
2.099294426
2.23622863
2.48598723
2.488997767
2.393504748
2.422527965
2.516226323
2.623948476
2.67314617
2.690687686
2.673377294
2.61917506
2.495894366
2.323941579
2.283772938
2.396879009
2.477649739
2.558839925
2.643886909
2.740283495
2.831772014
2.920777686
2.945030767
2.977293831
1.608523762
1.679669783
1.760527973
1.915272641
2.171684987
2.171148069
2.217022448
2.308739401
2.519593311
2.444177532
2.283470006
2.246956762
2.319196152
2.427692776
2.496566734
2.541457721
2.547998633
2.507017299
2.354593205
2.188789875
2.247822462
2.348487568
2.400486507
2.46109852
2.540201034
2.640136582
2.734407765
2.819601075
2.824699556
2.831257157
1.556449195
1.645521845
1.572511287
2.033457543
2.21102012
2.112678022
2.109836472
2.191602221
2.412564672
2.288899112
2.065659664
1.951849133
2.059921643
2.21185994
2.318757296
2.38488153
2.39896295
2.335457155
2.135742994
2.067924434
2.209875987
2.280228404
2.300776763
2.340692526
2.414483135
2.51868811
2.616649206
2.69889077
2.679997025
2.656602363
1.409823408
1.889266695
1.730515943
2.303397071
2.328185277
2.117686734
2.013170024
2.028481239
2.264116291
2.159515126
1.972373782
1.644364492
1.79876029
2.057207711
2.217264475
2.274292798
2.234648404
2.100325038
1.897569459
2.017015702
2.172579769
2.199193299
2.185357212
2.201821236
2.27045819
2.379857819
2.482364041
2.562215545
2.51356639
2.453640186
1.098487325
1.00279111
1.721527048
2.257271663
2.472437734
1.904942087
1.824548385
1.758479917
2.210654008
2.262332564
2.293307719
1.957414443
1.870830295
2.095306122
2.239233746
2.233388599
2.036831454
1.898788813
1.87707388
2.048189371
2.144955453
2.110157357
2.057995976
2.048515293
2.112315714
2.229029884
2.337411928
2.415460603
2.331122791
2.223566169
1.827703193
1.143422138
1.359003174
2.374660365
2.803478401
1.74134545
2.275993048
1.987824433
2.325287328
2.46473006
2.594205054
2.408009471
2.169703968
2.25600647
2.352905522
2.239065844
2.004024841
1.896201929
1.946858496
2.105589486
2.100972678
2.01213692
1.919678746
1.884215082
1.945858573
2.074552913
2.191092497
2.268661009
2.143145863
1.972283653
3.011029697
1.768501486
2.022974372
3.093382301
3.770377596
1.960762253
2.756506
1.9175532
2.342328937
2.48066922
2.596339858
2.55616042
2.347050416
2.34076266
2.376367812
2.234271574
1.939393792
1.969569182
2.039143267
2.121603151
2.040526951
1.899117943
1.769686953
1.713278095
1.781467849
1.930462705
2.058066365
2.137443341
1.971846001
1.72842137
1.864800241
2.173974649
2.096219335
2.604079552
2.670730908
3.060844259
4.444632048
1.852924702
1.953771502
2.338618227
2.353593087
2.423634942
2.297220409
2.319110426
2.20234652
1.988106909
1.970863883
2.111739179
2.161025135
2.14763199
1.978461815
1.773352549
1.607855081
1.545371831
1.640424864
1.821336392
1.962327832
2.045043454
1.851332733
1.562427185
1.606874648
2.044250365
2.178315616
2.36394271
2.353572395
1.735110941
2.806197729
1.730162472
1.899247396
2.064848606
2.211207466
2.265583527
2.201071688
2.133949737
1.936046587
2.00446621
2.145503441
2.295023013
2.299697233
2.26664733
1.968096883
1.660482623
1.429703986
1.379556155
1.533115223
1.749336528
1.899988576
1.985933974
1.802843904
1.609245638
1.541788604
1.665282299
1.738818756
1.876758106
1.643976705
1.938467275
2.172757357
2.216054513
1.634885471
1.578414999
1.639449069
1.931505086
1.667966536
1.804989032
2.184544735
2.322983706
2.403254497
2.491113906
2.48018915
2.561368129
2.1478309
1.689975294
1.306791061
1.263030818
1.488667337
1.728047993
1.883138632
1.975142995
1.830570534
1.742260298
1.811943406
2.231987058
2.405982899
1.875520269
2.192722782
1.800958189
2.245301978
2.464974822
2.098523982
1.808220504
1.596260312
1.410991126
2.011185696
2.497129154
2.608717797
2.601114668
2.633344061
2.70444112
2.682688522
2.972879588
2.592070105
2.045215851
1.487194572
1.307944786
1.529195928
1.761054879
1.90217341
1.988238676
1.867622321
1.857036277
1.934154444
1.972384629
1.878173869
1.720338992
1.802999704
1.732477658
2.034802883
2.048171486
1.828648051
2.254140701
2.21344147
2.139180805
2.558667427
2.759435355
2.772195009
2.753173563
2.797956391
2.872812732
2.915838242
3.450025229
3.116863079
2.631557283
2.090242793
1.677856225
1.641104446
1.794773009
1.906634104
1.981542894
1.870342989
1.903937376
2.133987638
1.951124888
1.776758136
0.7344287008
1.901242102
2.265411942
1.977102555
2.350999075
2.486743302
2.748659625
2.683682327
2.840697687
2.907861955
2.857360319
2.819409512
2.874580923
2.985452243
3.176784822
3.993513586
3.738610282
3.164938819
2.691831472
2.236550729
1.948200291
1.919850779
1.931529471
1.941128383
1.82250764
1.885041955
2.189386865
2.340858693
1.726848209
1.168297908
1.710576813
2.256150964
2.074359367
2.505291779
2.726177619
3.107012872
2.986849323
2.991922904
2.955326102
2.831991585
2.755880884
2.797908078
2.954204835
3.396116794
4.341818769
4.255031298
3.865280445
3.261715971
2.771218595
2.292184035
2.009360855
1.881659814
1.828729172
1.717802657
1.808850681
2.187973467
2.139382488
2.006717063
1.911220346
1.944088419
2.423585962
2.462852973
2.77908605
2.92261453
3.285659366
3.160657914
3.055431098
2.907747542
2.676964568
2.488219539
2.465122103
2.694070966
3.677074089
4.725579775
4.723323564
4.565475759
4.014391868
3.39803905
2.907510447
2.420208924
2.023339815
1.807641705
1.644437235
1.801682679
2.181976457
2.209041428
2.096058792
2.049466961
2.140037231
2.554211122
2.757863866
2.943306885
3.051958573
3.354064651
3.218361284
3.053888414
2.811027394
2.470603593
2.134270987
1.830485325
1.089049781
2.395071351
4.06518193
4.004241258
3.571784498
3.056040622
2.879503236
2.729034272
2.42605977
2.09558104
1.936334301
1.711527563
1.741714397
2.337881768
2.423340879
2.552909439
2.809970021
2.966113483
3.044923138
3.103807605
3.337365148
3.198798086
3.034995691
2.732943687
2.295070227
1.849232014
1.566042282
1.226367645
1.292859422
3.338301796
3.260005475
3.05287226
2.911917842
3.086654662
3.05978986
2.753350812
2.282865647
2.102022222
1.920437594
1.649217273
)
;
    }
    region0_to_wallFilmRegion_mirrorFace
    {
        type            convectiveHeatTransfer;
        L               1;
        value           nonuniform List<scalar> 
428
(
3.111633743
3.655076341
3.798382896
3.901356772
3.860842345
3.819122775
3.796762332
3.791239176
3.80517725
3.733376164
4.042781632
4.285994976
4.703478201
4.368196434
4.28719794
4.28083832
4.280898579
4.294836884
3.880138751
4.151708096
4.426461289
5.587120767
4.631093864
4.433057075
4.485834246
4.50639374
4.526493068
3.796609081
3.557524041
3.609784522
3.603241073
3.535225278
3.473962265
3.511024927
3.603652956
3.671326663
2.51558381
2.235073156
2.229677871
2.423587155
2.206912084
2.1890566
2.261233114
2.156950037
2.147395908
2.1458946
2.331599158
2.635182323
2.821882177
2.614358649
3.045026954
3.490023186
3.112888046
2.935710156
2.927712551
3.357490946
3.067933004
3.380036926
3.645658506
3.822078975
1.176174946
1.884824345
1.219699572
1.251862235
1.366298622
1.330516294
1.642795408
1.096224799
0.7639861572
1.756479217
1.13006578
1.857689968
1.835702187
2.157183919
1.88938383
1.668536058
1.820842248
1.687295578
1.57543397
1.631316531
1.578298844
1.160183314
1.731746575
1.218571805
1.092178053
1.081532889
1.245299031
1.276272222
1.45192789
1.663771002
1.921584611
1.802005897
1.944803073
1.856693793
1.947488837
1.806650487
1.688090946
1.739341288
1.644431224
1.586571171
1.584645464
1.541149455
1.467904159
1.638452707
1.589889648
1.65810324
1.654714645
1.819782048
1.865173639
1.853425965
1.888911774
1.947282146
1.887709261
1.861711377
1.826589094
1.802025061
1.719634006
1.69742227
1.645075559
1.568160448
1.616835508
1.50143184
1.45185627
2.047684982
1.854590717
1.859925991
2.040310264
1.867459272
1.896180382
2.113423335
1.942640443
2.17599995
1.681096906
1.518264144
1.511437892
1.762786852
1.544766352
1.678533246
2.312432949
2.035045389
2.538807384
1.375081877
1.323420265
1.568440671
1.914433224
1.934646173
2.465433051
2.179854191
3.035012546
2.539767685
2.030902385
1.352687439
1.376435699
2.035007853
1.99340461
1.76248767
1.621985832
2.468393445
1.801871913
1.190373457
1.01454366
1.510142807
2.048271507
1.799518881
1.632974863
2.357479294
1.500016406
1.35053096
1.750434838
1.917373561
1.915782277
1.766093949
1.647982894
2.351744085
1.604797434
2.084190535
2.08235655
2.045700052
1.976014394
1.894009164
1.827063353
2.045444671
2.038816278
2.035687486
2.416075099
1.68060743
1.703752245
1.899159028
2.849201791
1.387783007
1.496711049
2.429382089
3.406442032
3.887964484
3.841716261
4.107975236
4.295623605
4.305642245
5.485247523
5.353628139
4.982152833
4.634076487
4.591221856
4.517687408
4.587683407
4.600883949
4.511815034
2.537503133
3.425480496
3.797002778
3.969374502
3.985407484
4.443052214
4.142160188
4.180927569
4.205577521
3.346746888
3.282510692
3.181611358
3.002937744
2.813348712
2.730425559
2.779413335
2.875280923
2.51782783
4.399744937
2.024608236
3.644017301
3.534047616
3.766939443
2.122928586
2.501805773
2.160153309
3.741794268
3.853371677
3.946926502
2.07029644
2.153350019
2.108781235
3.854524734
4.035529185
4.130179741
2.01441672
2.073538108
2.029646276
3.957249824
4.227578513
4.395126451
1.933005062
1.980846608
1.93302443
3.854372634
4.10853036
4.130065516
1.857327274
1.885457302
1.842446209
3.807877414
4.057125334
4.053142374
1.80722474
1.804406639
1.772620284
3.791943158
4.037783284
4.034201848
3.795863647
4.032928224
4.036721347
4.04493961
3.920911887
3.850019867
4.020969144
4.15780266
4.153621497
4.281123848
4.45130882
4.445903864
4.726126096
5.154065461
5.360449748
6.20549977
4.416047974
4.537592938
4.552723574
4.303973971
4.414634261
4.454185685
4.281886948
4.43580311
4.445075976
4.285895058
4.446493327
4.453849066
4.307624799
4.46453663
4.478250027
3.858809929
3.953674706
4.029671337
4.116041193
4.266640192
4.047582043
4.206799777
4.793924088
4.566926934
6.077957332
8.779635058
7.265028771
4.434373164
5.06192366
4.344691083
4.460902346
4.453066393
4.475203813
4.49292354
4.496886912
4.499792547
4.514778963
4.505925205
4.512724899
4.522831564
4.536750874
4.541284814
3.83025462
3.918634347
3.86397149
4.030987693
4.140559849
4.173997817
4.311720021
4.914465466
4.453004092
4.556896237
4.712926166
4.480451592
4.599312151
4.539088728
4.405594304
4.398358964
4.500028534
4.395367878
4.40721907
4.523125751
4.417402415
4.000230967
4.190497875
4.633738916
4.601153306
6.549257021
5.395339499
4.667478451
4.580930882
4.583865856
4.502782201
4.592230112
4.503700558
4.61333137
3.511233622
3.804191494
3.670032488
3.58487442
3.849721251
3.71624409
3.917291506
3.751871201
3.789147741
3.817274914
4.104596113
3.834690254
3.842594729
4.155616253
3.836962797
4.143544993
3.826687225
3.821188161
3.824028836
3.55747394
4.15686287
3.844901498
3.871298047
3.898734086
4.193551057
3.924269892
3.692048531
3.945888505
3.963457945
3.759747831
4.062320403
4.048294869
4.621681995
4.154978095
4.427974847
4.149298135
4.169632768
4.399230166
4.216440403
3.681313009
3.444362443
3.307723439
3.41915096
3.407033547
3.243523567
3.403882747
3.389555637
3.616506594
3.09883835
3.358176178
3.311474056
3.573919214
2.9026015
3.254674731
3.196014181
3.498101974
2.751142915
3.146690157
3.118129477
3.472710826
2.743116848
3.125616371
3.152926473
2.825783831
3.192289655
3.234217819
3.641883698
2.925161622
3.275110546
3.312669005
)
;
    }
    procBoundary0to1
    {
        type            processor;
        value           uniform 0;
    }
    procBoundary0to2
    {
        type            processor;
        value           uniform 0;
    }
    procBoundary0to3
    {
        type            processor;
        value           uniform 0;
    }
}


// ************************************************************************* //
