/*--------------------------------*- C++ -*----------------------------------*\
  =========                 |
  \\      /  F ield         | OpenFOAM: The Open Source CFD Toolbox
   \\    /   O peration     | Website:  https://openfoam.org
    \\  /    A nd           | Version:  8
     \\/     M anipulation  |
\*---------------------------------------------------------------------------*/
FoamFile
{
    version     2.0;
    format      ascii;
    class       volScalarField;
    location    "0.9";
    object      k;
}
// * * * * * * * * * * * * * * * * * * * * * * * * * * * * * * * * * * * * * //

dimensions      [0 2 -2 0 0 0 0];

internalField   nonuniform List<scalar> 
67286
(
0.0502426442
0.0466346641
0.03829324674
0.0317616516
0.03061495848
0.03145868665
0.03207808908
0.03133053859
0.02966075881
0.02704093499
0.02428320142
0.02162270406
0.01920793542
0.01931986317
0.02062826522
0.01994534359
0.01689261439
0.01225667067
0.01067898699
0.01293934105
0.01544901222
0.01843491985
0.02794385458
0.01501778992
0.01133874957
0.008544690148
0.005356414781
0.004698522226
0.0527198
0.05236831724
0.04344290219
0.03483027038
0.03272845948
0.03418903819
0.03500504516
0.0338380796
0.03201851026
0.02931459659
0.02691892549
0.02438191682
0.02172468116
0.02337232851
0.02617209686
0.02400177147
0.02029489466
0.01601409377
0.01217711399
0.01364902483
0.01577278531
0.01404395511
0.0145478767
0.01135342483
0.008527435202
0.006072096492
0.005157696758
0.005270434981
0.006702530198
0.00582587867
0.005836274415
0.006570690345
0.05386799644
0.05692413362
0.04824493293
0.03744747636
0.03405768442
0.03456317941
0.0350716198
0.03444865248
0.03299609198
0.03117121807
0.03064291037
0.0291820662
0.023238753
0.02505899353
0.027323338
0.02576602012
0.02195413609
0.01744727773
0.01313628277
0.01073999752
0.009793306273
0.0112289428
0.01781668408
0.01099193001
0.006667138584
0.004561568442
0.006098582515
0.006018885022
0.007743190341
0.006330343937
0.006062933943
0.00714327853
0.05250746609
0.05789288281
0.04986682819
0.03833380267
0.03360508678
0.03320265342
0.03338589489
0.03292306201
0.03231397419
0.03158926439
0.02817955133
0.02587943346
0.02268056551
0.02154927395
0.02152640113
0.02067858236
0.01710579873
0.0129846034
0.01015983859
0.009745402691
0.01221218284
0.01828592694
0.03200747552
0.01707554462
0.009012463135
0.005294092529
0.007513785077
0.006868422185
0.008477857959
0.00673426227
0.006682250619
0.008472209932
0.01191148885
0.04465330038
0.04437516767
0.03629988407
0.03212981193
0.03120872592
0.03093764547
0.03113917976
0.03138625115
0.03171186553
0.03384011431
0.02953002969
0.02502698738
0.02129888858
0.0187591433
0.01685685722
0.01418207104
0.01146241193
0.0100623478
0.01020851347
0.0120264037
0.01859343334
0.0327694042
0.05025984681
0.02538388955
0.01387187417
0.006199119743
0.008324326718
0.0060070344
0.005281789147
0.00621630785
0.008574366572
0.01169932235
0.0171808725
0.04006876197
0.04106758437
0.03034717274
0.02970351527
0.03253471709
0.03218493644
0.03240517016
0.03348407953
0.03362624541
0.03794412312
0.03552446876
0.02790184354
0.02127464695
0.01516919495
0.01185828735
0.01063732118
0.01049999054
0.01118002876
0.01146470149
0.01202113639
0.01311580309
0.0158055157
0.02328742125
0.02252660177
0.01209363158
0.00729045426
0.00511563125
0.005591707105
0.007145003401
0.009329337156
0.01296858047
0.01803813136
0.0256717672
0.03650787753
0.03231614849
0.02754813989
0.02824237442
0.03017695732
0.03246809822
0.03684077925
0.04280289024
0.04819650446
0.04877353478
0.04620362587
0.03720321994
0.0278683773
0.01864242886
0.01051135919
0.01082751495
0.01276771386
0.01395496066
0.01410920765
0.01493752158
0.01674937238
0.02373038018
0.02946778969
0.02823883745
0.02335553956
0.01253551712
0.007128115438
0.008288741308
0.01115211292
0.01578929379
0.02145734227
0.02883106598
0.03897194584
0.0323381316
0.02866058032
0.03067351087
0.03525457026
0.03739400166
0.03653837443
0.03811871059
0.04232209878
0.04577046499
0.04569350006
0.04274849343
0.03691089107
0.02887299322
0.01738396342
0.01129540137
0.01400557725
0.01717396158
0.01939101635
0.0203399643
0.02166067079
0.0252411383
0.0340761021
0.0409121735
0.04148249179
0.0318127009
0.01613124266
0.0101002104
0.01104845432
0.0136879866
0.02180163667
0.03048758601
0.04250662821
0.05855381459
0.0303921083
0.03656865868
0.04608580629
0.05392348297
0.05672719547
0.05081343523
0.0402014694
0.03955104109
0.04182384182
0.04054744932
0.03726758706
0.03310439344
0.02513593143
0.01300734649
0.01403741872
0.01858624943
0.02257935987
0.02552278624
0.0277465472
0.03108284533
0.03765486292
0.04782394618
0.05886845857
0.0602305673
0.04990792288
0.03184342856
0.01554815219
0.01693118093
0.02246614261
0.03101720794
0.04354942907
0.06280809915
0.08747003605
0.0311112545
0.04080118515
0.04900768265
0.05401733526
0.05499931512
0.04996743807
0.03865839236
0.03589832594
0.03705991547
0.0367764797
0.03273856111
0.0274440054
0.01770072779
0.01234736323
0.01704166054
0.02235094434
0.02706982007
0.03161909401
0.03654693271
0.04450693923
0.05896620484
0.07634621958
0.08717131101
0.08634425123
0.0729364426
0.05111102493
0.02552897149
0.01984543928
0.02763864136
0.04043332498
0.06010893983
0.08912075487
0.1230935245
0.0300807847
0.0393039366
0.04646378519
0.0515166307
0.05531474093
0.0569422342
0.04953373827
0.03795287218
0.04524308728
0.04066157222
0.03104821474
0.02341664145
0.01469749294
0.01402287542
0.01941361455
0.02530767902
0.03162116963
0.03788519078
0.04324786651
0.04915775927
0.05969224949
0.07286115513
0.08359017131
0.08567085618
0.07497399578
0.04569982691
0.02164585184
0.02303248122
0.03681890548
0.05708112596
0.08335437759
0.1162276855
0.1508989321
0.03021897509
0.04197857342
0.05404167684
0.06723097288
0.08076526448
0.08880351767
0.0837403158
0.06582582822
0.07889325421
0.06749366396
0.04200890089
0.02289150307
0.01429245488
0.01832415598
0.02271199545
0.02741015361
0.03274203874
0.03805604334
0.0421439926
0.04494144217
0.05094623778
0.06217425536
0.07029964098
0.07001393871
0.05769986162
0.03766304336
0.02686325231
0.02127452481
0.0298653608
0.04427501021
0.06547892095
0.09349084595
0.1238971721
0.02800669705
0.03980875876
0.05215274252
0.06431550286
0.07575549729
0.08288001019
0.08283825196
0.08197712982
0.08484240069
0.06638275462
0.04322904087
0.02300225046
0.01479857123
0.01905248913
0.02298749708
0.02678608572
0.0310653119
0.03547021447
0.0387839588
0.04012107717
0.04118254574
0.04824802285
0.05524322183
0.05337032305
0.04319764126
0.02966962343
0.02039525198
0.02099942417
0.02745083692
0.0362518618
0.04894636114
0.06757205735
0.08976374726
0.02347868466
0.03298383278
0.04371387829
0.0535829905
0.06166003381
0.06670442501
0.06825432543
0.06949948721
0.07085386512
0.05028102302
0.0331408116
0.01729529396
0.01464116372
0.01889651387
0.02258853571
0.02577121049
0.02925430653
0.03284686511
0.035539409
0.03642619886
0.03480938405
0.03731093843
0.04324022289
0.04159101633
0.03408968114
0.02162850102
0.01877815218
0.02240549513
0.02768406323
0.03323785571
0.03980080357
0.04909759407
0.06244234341
0.01844146371
0.0243326046
0.03249726699
0.04062299162
0.0470661845
0.05065323612
0.05207735604
0.05327874825
0.0529470578
0.03230366185
0.02216410657
0.01337464399
0.01411369015
0.01796591795
0.02135485772
0.02412483655
0.02709549156
0.03011861686
0.03229984034
0.03282376782
0.02981932648
0.02995235332
0.0346288458
0.03216952344
0.02629792581
0.01861443761
0.02147989173
0.0271430607
0.03292296648
0.03800507269
0.04211894231
0.04535600883
0.04936659444
0.01451213228
0.01725752219
0.02234094866
0.02813111922
0.03312298392
0.03630277516
0.0381090102
0.03965726321
0.03872857338
0.02432373918
0.01893155292
0.01342571416
0.01337226037
0.01641481887
0.0194263843
0.02183342737
0.02428254037
0.02675766032
0.02842494738
0.02846542948
0.02475165365
0.02402070799
0.02717538834
0.02289496999
0.01989766614
0.01907859512
0.02466208107
0.03120738182
0.0379051297
0.04478037919
0.0507058168
0.05191415835
0.05240625583
0.01222874082
0.01389185454
0.01686655624
0.02025824317
0.02344976367
0.02590397503
0.02779843874
0.0295909486
0.02934595608
0.02254684758
0.01945033239
0.01476688212
0.01285505198
0.01462097955
0.01715869401
0.01924986107
0.02109548179
0.02285135304
0.02386229507
0.02325253229
0.020063534
0.01893032449
0.01942598798
0.01674221055
0.01741400823
0.02088610768
0.02671105151
0.03341877801
0.04204494531
0.05657197265
0.07483212887
0.05774938095
0.05707478469
0.01124695975
0.01304904283
0.01519712035
0.01727013069
0.01921555114
0.02092526579
0.02246326791
0.02388099086
0.02414301762
0.02153725696
0.01959733672
0.01586289894
0.01268536074
0.01292660512
0.01483675427
0.01661805324
0.01805457662
0.0191864261
0.01967133398
0.01901831467
0.01772130267
0.01964599697
0.02081551955
0.02002250718
0.01982030396
0.022449882
0.02827607602
0.0390112898
0.0628488209
0.1128406875
0.1642182619
0.07821147502
0.05858928203
0.01092380613
0.01288457209
0.01476457698
0.01636047306
0.01774928797
0.01896880887
0.02006184271
0.0209757643
0.02123938455
0.02013474851
0.01880637289
0.01594958585
0.01240812693
0.0115425119
0.01283598818
0.01437040724
0.01573990624
0.01701260507
0.01841529292
0.02091806366
0.02501640168
0.02717558994
0.02701352622
0.0253314681
0.02363785499
0.0251329959
0.03544270054
0.06542667711
0.1296665021
0.2280514863
0.2941529135
0.1711200053
0.077611839
0.01073622215
0.01263729403
0.01439523645
0.01583069652
0.01697126738
0.01787083291
0.01858321777
0.01907589668
0.01914348831
0.01846385085
0.01736116369
0.0148913461
0.01186859989
0.01122596944
0.01290437248
0.01537956262
0.01837316078
0.0221738173
0.02644801727
0.03036420071
0.03300063903
0.0342363059
0.0337663255
0.031635665
0.02862453095
0.02864687929
0.04310773155
0.08513348618
0.1554620529
0.2616767076
0.3628464413
0.2391666727
0.1333759485
0.01049036281
0.01217437215
0.01382124601
0.01520636807
0.01625536046
0.01694978214
0.01736900814
0.01752710083
0.01735799262
0.01669117087
0.01545426142
0.01344214047
0.01220336928
0.01361142249
0.01720532645
0.0216787909
0.02653588453
0.03074414147
0.03457608456
0.0381844782
0.04078360032
0.04190993138
0.04136966413
0.03899045316
0.03478103688
0.03046819186
0.03195826169
0.05479244754
0.1093576773
0.1879298393
0.2928186565
0.1739099311
0.0940255936
0.01017568509
0.01153116928
0.01300421934
0.01434904845
0.01539167632
0.01601800605
0.01624118621
0.01614388288
0.01572475782
0.01485236847
0.01380380358
0.01343477317
0.01505080431
0.01882972517
0.02359959441
0.02842780938
0.03301405002
0.03764303542
0.04187701658
0.04527678201
0.04750600146
0.04834831408
0.04771780883
0.04554607872
0.04166558378
0.03603977615
0.03111982383
0.03424193088
0.06087439616
0.1156688968
0.1940906599
0.09661427452
0.05517000617
0.009818549013
0.01077180391
0.0119606168
0.01318603928
0.01420892802
0.01481836083
0.01495851877
0.01468755819
0.01412883955
0.01361377708
0.01399781536
0.01606099532
0.01972543819
0.02424495795
0.02894929691
0.03378504617
0.038665869
0.0433903207
0.04746897395
0.0505594572
0.05246807482
0.05310258386
0.05243992731
0.05047078771
0.04716320647
0.04241423003
0.03599804415
0.03077329926
0.03501031852
0.06145368642
0.1148525725
0.05101233438
0.04470865505
0.009416478546
0.009934262239
0.01073322468
0.01170673505
0.0126303197
0.01322329559
0.01337617185
0.0132162104
0.01318005429
0.01402590546
0.0163213126
0.01979176697
0.02385837142
0.02825608468
0.03305648398
0.03816911055
0.04323688822
0.04780930616
0.051589088
0.05437887286
0.0560628844
0.05659613045
0.05598106941
0.05421434006
0.05112599218
0.04663680699
0.04076120326
0.03395194817
0.02926684731
0.0338993606
0.05745247891
0.03556735698
0.04703448449
0.008891350826
0.008969415403
0.009350424574
0.009981955424
0.01072111963
0.01131905764
0.01171649037
0.0122133982
0.01343384844
0.01580695193
0.01905321009
0.02266605413
0.02652813998
0.03082397353
0.03558942499
0.04058798752
0.04545425113
0.04982625989
0.05342755736
0.0560800126
0.05768504522
0.05820331147
0.05763469725
0.05597531454
0.05304413681
0.04880070163
0.04355529287
0.03732378888
0.030966187
0.02733105154
0.03157391169
0.02862574327
0.03917008373
0.008096690081
0.007734487416
0.007835364049
0.0082164516
0.008796247258
0.009510453813
0.01049620573
0.012099588
0.01457476052
0.01768315108
0.02099465701
0.02440448214
0.02810983001
0.03230050227
0.03689581378
0.04165192206
0.04625227542
0.0503882489
0.05381645264
0.05637337875
0.05796350973
0.05854161852
0.05809513039
0.05660143067
0.05373729559
0.04961424689
0.04472824081
0.03899433937
0.03282609538
0.02789537563
0.0253700339
0.0245959354
0.02940453321
0.006733416185
0.006315620052
0.006464250218
0.006827609821
0.007369600609
0.008386244102
0.01015245842
0.01272484797
0.01581972252
0.019021263
0.02217158195
0.02540088001
0.02894652836
0.0329023197
0.03716244994
0.04152965698
0.04575321046
0.04957915713
0.05279503806
0.05524695087
0.05683482796
0.05750002369
0.0572096463
0.05591320698
0.05307346077
0.04910864203
0.04438337036
0.03892526125
0.03325164546
0.02848254779
0.02508228061
0.02473129972
0.02797919409
0.005357881646
0.005196027251
0.005684103802
0.006097908911
0.006773231654
0.008242004202
0.01063187174
0.01364586503
0.016828614
0.01990191883
0.02286646961
0.02586773366
0.02905711758
0.03254487014
0.03624822611
0.04000808183
0.04364890737
0.04698214135
0.0498366448
0.05207551879
0.05359755053
0.05433240493
0.05422278908
0.05317164539
0.05037373728
0.04654773637
0.0419890401
0.03693357271
0.03218956417
0.02780808312
0.0254788883
0.02811999285
0.03328837282
0.004265842902
0.004716093968
0.005330767882
0.005842139335
0.006861791988
0.008797839419
0.01151849883
0.01458112478
0.01760384634
0.02043985536
0.02312561882
0.02576216713
0.02843006413
0.03115696082
0.03390533092
0.03659661095
0.0391414744
0.04146057
0.04353962224
0.04531629996
0.0466048209
0.04732125637
0.04739061364
0.04663444212
0.04394201324
0.04066758898
0.03733523611
0.03363226983
0.02977187237
0.02601418196
0.02506547263
0.03002075465
0.03672696949
0.004025654971
0.004613837257
0.005246407105
0.006093220632
0.007780738696
0.01042503258
0.01354028303
0.01659036016
0.0193439901
0.02179576338
0.02401326661
0.02606185349
0.02798174673
0.02978466395
0.03145836775
0.03297682141
0.03431141384
0.03543877329
0.03634760066
0.03702607564
0.03743481924
0.03755500031
0.03737817671
0.03674513211
0.03506382382
0.03323129602
0.03120874316
0.02886555393
0.02621852974
0.02343966411
0.02315947437
0.02900168708
0.03533450985
0.04555513964
0.04784423596
0.04157602622
0.0358119848
0.03261842346
0.03361342917
0.03551502584
0.03493460966
0.03329650882
0.03057591437
0.02657765218
0.0231124125
0.01976765003
0.01974713817
0.02004719331
0.01679857528
0.01255621074
0.01128770437
0.01402871307
0.02000415757
0.02559062947
0.03598728802
0.06188596748
0.02280703147
0.01233175976
0.007955939081
0.005231418374
0.005390987476
0.05056694826
0.05914516343
0.05208212302
0.04536340108
0.03912812714
0.04026529474
0.04279005228
0.04156602934
0.03949612609
0.03703354234
0.03342338402
0.03057435023
0.027904321
0.03043349653
0.03203524705
0.02927430363
0.01813702038
0.01309319056
0.01288358889
0.02474332371
0.0245234985
0.0247080057
0.02204926267
0.01380971778
0.0089997041
0.006568271507
0.00551396588
0.006256222198
0.007841472692
0.006732523852
0.006962434924
0.008290684183
0.05270576628
0.06680522248
0.06014809176
0.05169481492
0.0438032783
0.04268754313
0.04337228829
0.04324803018
0.04268018376
0.0425238466
0.04043907357
0.03802597123
0.03495861964
0.03359534455
0.03606614406
0.0308228529
0.02365859951
0.01615433895
0.01198445134
0.01126793529
0.01309868048
0.01390601837
0.01566931848
0.01049907648
0.006253682561
0.005984029815
0.007404474529
0.00762320722
0.009759945869
0.007717335336
0.00719782424
0.008390038703
0.05114004621
0.0673669705
0.06118031389
0.05257984201
0.04408737207
0.0411979354
0.04045728936
0.0412290059
0.04073542035
0.04123591455
0.04107510239
0.03858301947
0.03241613812
0.02957682355
0.02860737999
0.02511842573
0.01746310514
0.01212109677
0.009998627307
0.009477403311
0.01305132947
0.02487709438
0.04130913343
0.01612568146
0.006695780456
0.007043784779
0.01094688186
0.009282317358
0.01094880556
0.01044737992
0.008021081413
0.009231504856
0.01123324849
0.04523713655
0.063233921
0.05925081208
0.04971831586
0.04308466667
0.03901358313
0.03981505171
0.03968758133
0.03851924747
0.03929061319
0.0376000408
0.03228923315
0.02744884938
0.02350863268
0.02025128211
0.01578571328
0.01171258085
0.009723775923
0.01027106061
0.0121708838
0.02079451523
0.05088717593
0.06095052522
0.02738975639
0.008819851903
0.007757720059
0.01017569252
0.008647372626
0.007111026797
0.007823060561
0.009100048611
0.0112877057
0.01484349404
0.04244801795
0.06107575556
0.05351010529
0.05032580383
0.04481995103
0.0397771512
0.04644950471
0.04124090304
0.04019388359
0.04072597658
0.03834983272
0.02868877621
0.02166357342
0.01649960806
0.01343406557
0.01262737987
0.01124277617
0.0104850399
0.01270416903
0.01475174209
0.01838085617
0.02381930007
0.03040860317
0.01688266383
0.008395627919
0.006662255698
0.0064078007
0.005514334289
0.006427830342
0.008661020671
0.01151722391
0.01577965029
0.0222090631
0.03299855162
0.04095685785
0.03767063762
0.03866040511
0.04122577829
0.04039454133
0.04375690068
0.04911249367
0.05221813811
0.05083010363
0.04776455312
0.0354525057
0.02293818321
0.01590072552
0.01134614036
0.01198524353
0.0121144455
0.01167303862
0.01337875894
0.0158615925
0.01860511734
0.01803177384
0.02493063119
0.02700361422
0.01632058673
0.009145161326
0.007003325685
0.006932832752
0.008784130283
0.01220234927
0.01701709841
0.02452904502
0.03712015574
0.02830780056
0.03164090279
0.034854965
0.04239460332
0.05168450839
0.05502962232
0.0487106369
0.04718228517
0.04913021949
0.04666087132
0.04159337985
0.03191207811
0.02148499593
0.01393681216
0.01119468237
0.01242928607
0.01373961435
0.01407368551
0.01347011987
0.01300519384
0.01418798477
0.01669372614
0.02966971132
0.03246402324
0.02039158803
0.01262083198
0.01073867446
0.009597286314
0.01207451265
0.01896342938
0.02600350221
0.04087040916
0.06419856989
0.02635285045
0.03211077371
0.04252501812
0.0556735723
0.06530140916
0.06848903754
0.06173820943
0.04897865731
0.04596900338
0.03886817081
0.02772835271
0.02234568607
0.01727168852
0.01191768039
0.01216428726
0.01426669519
0.01650162699
0.01862344218
0.01984550929
0.02153873169
0.02824582855
0.05092558963
0.07063372779
0.06623680696
0.04469094658
0.02157037706
0.01470377135
0.01557132812
0.01974080375
0.02790265751
0.04307129652
0.07013759633
0.109155335
0.02568574608
0.0328640249
0.04715726341
0.06001224178
0.0680726574
0.070656028
0.06462398152
0.05261670592
0.0508783907
0.04839137124
0.02875850228
0.01948073334
0.01434013644
0.01261427836
0.01457515157
0.01806019294
0.0236711465
0.03081928969
0.03726931366
0.0463934829
0.0668962352
0.09625288243
0.1108141947
0.1035150292
0.08774371101
0.04537716132
0.02063328454
0.0174278801
0.02430506776
0.03786276681
0.06326413817
0.1074237882
0.1600951187
0.02445705105
0.03206816377
0.05024174473
0.06817600451
0.08726964468
0.1071350134
0.1191855252
0.1079805841
0.08833431248
0.07771519599
0.03909212868
0.01973610213
0.01525445411
0.01544411215
0.01850016596
0.0249672792
0.03496363595
0.0462033602
0.05685509793
0.06902731344
0.08920555298
0.1098318849
0.120649657
0.1125835494
0.09022524895
0.05470141392
0.01960333008
0.01869014673
0.02875121464
0.04614549819
0.07643420516
0.1254773253
0.1777671583
0.02338558048
0.03116094191
0.05191160684
0.07412534159
0.09544377989
0.1125360561
0.1222853679
0.1241324793
0.1128483077
0.09347511708
0.05870576768
0.02069388309
0.01477825141
0.01608628557
0.01963532848
0.02641497028
0.03603314485
0.04637098356
0.05584428504
0.06577055608
0.07986220825
0.09724750701
0.09948829497
0.0835992685
0.05780940517
0.0330787455
0.02125068123
0.02268967352
0.03285233402
0.04972440539
0.07425017277
0.109634119
0.1512535211
0.02150793054
0.02864641077
0.04529948439
0.06625570211
0.08459072701
0.0992094128
0.1059036228
0.1050549537
0.09772485379
0.08022216629
0.04059096244
0.01775514851
0.01397718472
0.01567824398
0.01931498368
0.02531483173
0.03381964346
0.04281833282
0.0494431822
0.05399892874
0.0578936367
0.063822282
0.06972668603
0.053651227
0.03396233886
0.02268928279
0.02061015187
0.02588937132
0.03688229017
0.05127448029
0.06903037556
0.08958665024
0.1119430303
0.01877924176
0.02382805485
0.03259336772
0.04466177923
0.05833914027
0.06917620672
0.07640895985
0.07771070416
0.07204239286
0.05433967537
0.02630074964
0.01552831552
0.01342408234
0.01528964147
0.01893506525
0.02442476159
0.03183430782
0.03932278839
0.0442514152
0.04633677795
0.04680229501
0.04373623276
0.04218192664
0.03464804183
0.02629928972
0.02127413899
0.02298887329
0.03149335701
0.04397751127
0.05811014896
0.07242396832
0.08592024024
0.09716556479
0.01599559315
0.01905738502
0.02369727949
0.02923241864
0.03540413555
0.04125824046
0.04606430555
0.04785701194
0.04509000009
0.03479570165
0.02288550497
0.01555957542
0.01321432446
0.01456068251
0.01791450684
0.02303122249
0.02963897568
0.03594277175
0.03983317739
0.04084278151
0.03896746976
0.03368909602
0.03033628603
0.02428248177
0.02109645102
0.02008234627
0.02607494857
0.03680893832
0.05066242465
0.06537475479
0.07809767618
0.08794425053
0.09482325276
0.01378886168
0.01587002675
0.0190649791
0.0226724749
0.026086545
0.02898878374
0.03193994409
0.0343452988
0.033710879
0.02914752695
0.02299099801
0.01639157386
0.01301433129
0.01351202441
0.01615664292
0.0203970686
0.02590025162
0.03115953337
0.03414252994
0.03389690804
0.02971063186
0.02522009187
0.02164641747
0.0178369131
0.01734283791
0.0196310258
0.02711482867
0.03864526853
0.05372931813
0.07073901579
0.08506225722
0.09133482866
0.094703348
0.01232734119
0.01469014632
0.01728261309
0.01980361415
0.02223208731
0.02460997702
0.02723132146
0.02939577341
0.02944323419
0.02645829392
0.02206139036
0.0164741389
0.01280289153
0.01259636539
0.01440495132
0.01730188771
0.02111743665
0.02479494313
0.02648279489
0.02482667296
0.02095735902
0.01871757429
0.01787478356
0.01671977881
0.01732917628
0.02055620897
0.02742029949
0.03919232011
0.05944702647
0.09330712665
0.1183557826
0.1068330632
0.09790386657
0.01150364035
0.01433440331
0.0164450615
0.01814166421
0.01976052019
0.02149305214
0.02352500994
0.02526764753
0.02553162119
0.02345118037
0.02002419699
0.01571227761
0.01262501468
0.01206004031
0.0132437228
0.0150320995
0.01708867036
0.01900620115
0.01987854207
0.01933392739
0.01916130968
0.02149208618
0.02319536931
0.02286493282
0.0223625122
0.02354210092
0.02826795438
0.0427268149
0.08912949538
0.1895967222
0.2393706567
0.1778509484
0.1160667252
0.01108344516
0.01392833334
0.01558854134
0.01674905683
0.01774464082
0.01881584093
0.02016756162
0.02132996051
0.02147926249
0.02002698223
0.01749587843
0.01449559128
0.01231168897
0.01172733733
0.01261232038
0.01401246943
0.01564831135
0.01755343068
0.01989049203
0.02329443711
0.02851880273
0.03318463719
0.03481599243
0.03378263046
0.03174362773
0.03096657682
0.03579867217
0.06150164357
0.1462228539
0.2946992563
0.343164977
0.2752563752
0.1487695784
0.01080934516
0.01331336111
0.01456308041
0.01539664995
0.01605420947
0.01663890287
0.01731387438
0.01783804411
0.01773494956
0.0166879273
0.01497502008
0.01317440451
0.01192108265
0.0119055214
0.01339007341
0.01589117134
0.01943317603
0.0242631576
0.03045418146
0.0377250125
0.04444639973
0.04859984052
0.04968131682
0.04816570639
0.04504940502
0.04202140411
0.04215850473
0.05151052812
0.1147025972
0.3049009357
0.3844643276
0.2787022621
0.1305914268
0.01055099313
0.01258219811
0.01344104304
0.01403647277
0.01453565433
0.01487482408
0.01506530856
0.01502748723
0.0146577272
0.01387307361
0.01294130892
0.01225190901
0.01225754089
0.0137563406
0.01708414107
0.02217363198
0.02914698724
0.03760443363
0.04644936358
0.05395451159
0.05936342515
0.06220567582
0.06273218267
0.0612771826
0.05825788826
0.05365880156
0.04957373706
0.04958652225
0.06194069603
0.1705492231
0.2930087052
0.1742572023
0.08459400027
0.01027419398
0.01181718699
0.01229202802
0.01266713001
0.01305698415
0.01323265633
0.01315099946
0.01280549348
0.01233501292
0.01197924199
0.01192525992
0.01251217354
0.01432837895
0.01799931137
0.02382958077
0.03177183836
0.04107770969
0.05043891442
0.05891455962
0.0657468203
0.07039691406
0.07261821483
0.07252055356
0.0704578544
0.06695529186
0.06252965771
0.05707688333
0.052397624
0.05050247344
0.06503214955
0.1281341778
0.07810275788
0.05632720872
0.009961635408
0.01103721116
0.01115464457
0.01131401147
0.01159481376
0.01169574166
0.01152813169
0.01120955874
0.01103567067
0.01130835916
0.01232389325
0.01447767349
0.0182353793
0.02406279589
0.03198155711
0.0412543954
0.05101756943
0.0602623286
0.06819117645
0.07426868526
0.07817983852
0.07983073751
0.07933160599
0.07694653137
0.07304401872
0.0680510867
0.06238832742
0.05574894538
0.04935153564
0.0480387278
0.05821261647
0.04597773373
0.04443171877
0.009588225329
0.01023208171
0.01007099109
0.01002241672
0.01016624758
0.01025940782
0.01022969491
0.01023911444
0.0106411845
0.01180866046
0.01405730913
0.01768224826
0.02305985588
0.03034174528
0.03902930932
0.04863883549
0.05830083932
0.06713331489
0.07449493846
0.07998881137
0.08341166735
0.08472089544
0.08400881184
0.08147929385
0.07742355057
0.07212254186
0.06592902069
0.05896182385
0.05078599757
0.04434409726
0.04254837493
0.03626320563
0.03924136631
0.009107104987
0.009457222837
0.009142480678
0.008865432367
0.00882019659
0.00894034033
0.009196733299
0.009756954281
0.01095517625
0.01308766035
0.01637910288
0.02111908244
0.02750073063
0.03523831781
0.04412037006
0.05366043158
0.06302783532
0.07145332869
0.07839154945
0.08351674825
0.08666981798
0.08781737593
0.08702506488
0.08444592382
0.08031312626
0.074810375
0.06818270747
0.06077517208
0.05225779588
0.04387183727
0.0377065
0.03358178294
0.03529323723
0.008291728566
0.008760626786
0.00857500439
0.00797999358
0.007695859938
0.007887179691
0.008550073202
0.009777341119
0.01174957141
0.01462765266
0.01866851081
0.02413091698
0.03089979552
0.03861404085
0.04731253152
0.05648464787
0.06540940389
0.07341878307
0.0800263406
0.08493118745
0.08797589269
0.08910844611
0.08835875073
0.08583646825
0.08173444879
0.07617088984
0.06933279584
0.06159236587
0.0531438615
0.044270431
0.03720803545
0.03419251285
0.03465870297
0.006495984749
0.007518154975
0.008245235449
0.00742273224
0.006985517082
0.007372184985
0.008488400193
0.01031316676
0.01286810644
0.01629601417
0.02088804894
0.02675202837
0.03357001264
0.04104896191
0.04924683592
0.05777729054
0.06606638365
0.07355135352
0.07979444786
0.08450199037
0.08749934866
0.08870091622
0.08809262541
0.08574032161
0.08178712467
0.07627014769
0.06933561539
0.06141201143
0.05281998127
0.04411126233
0.03803799554
0.03770461837
0.0397244229
0.005404362871
0.006863533757
0.007402179087
0.006880032807
0.006859950874
0.007658111627
0.009267726762
0.01162333362
0.01469911714
0.01860691683
0.02351099514
0.02938947185
0.03599436552
0.04303036943
0.05041618711
0.05798345909
0.06533479383
0.07203105036
0.07769519864
0.08204887114
0.08490946659
0.08615779563
0.08572986867
0.08364110096
0.07994583162
0.07450439878
0.06742905618
0.05949986301
0.05055117805
0.0421454245
0.03805949551
0.04148919309
0.04475918406
0.00473916615
0.006074281067
0.006536180066
0.006649761183
0.007273166214
0.008700720304
0.01095071874
0.01386516183
0.01728804959
0.02119310346
0.02565377516
0.03071864503
0.0363355558
0.04237165727
0.04867235235
0.05503451868
0.06117361236
0.06676683384
0.07146923833
0.07510018484
0.07754090938
0.07866003454
0.0783583861
0.07660168079
0.07324232851
0.0676778332
0.06063586282
0.05288979809
0.04472138696
0.03735408693
0.03480122068
0.04093272869
0.04607374517
0.004115636036
0.004865498753
0.005598563238
0.006394996202
0.007965312786
0.01048100933
0.01356404549
0.01671852035
0.01971557037
0.02257162241
0.02537912956
0.02821243119
0.03109426289
0.03399628886
0.03685625494
0.03959100552
0.04210061695
0.04427851593
0.04602500704
0.04726907747
0.04797575451
0.04812471949
0.04771358022
0.04669342393
0.04427033807
0.04128082489
0.03786503671
0.03413706111
0.03025444574
0.02668593724
0.02534817643
0.0296357338
0.03527072614
0.03963508982
0.04744942908
0.042010952
0.0353181683
0.03125868585
0.03329407037
0.03618540374
0.03548225471
0.03332606809
0.02943873037
0.02479508354
0.02128544736
0.0192039581
0.01926934792
0.02110192519
0.0170285425
0.01289881686
0.01305676014
0.01741228927
0.02404516047
0.03219401086
0.04753936245
0.08560206188
0.02892809858
0.01172194981
0.006859749237
0.005371919722
0.0058099684
0.006636300719
0.04479226506
0.05923869201
0.05354545808
0.04577762552
0.03977007259
0.04058875018
0.04178951091
0.04225478386
0.04045380938
0.03813323126
0.03561997167
0.03371293977
0.03136591998
0.03356580242
0.03611504018
0.0371040598
0.022311924
0.01342514822
0.01355420529
0.0217109332
0.02572639179
0.02642781249
0.02558357699
0.01471994791
0.008888200692
0.007345646266
0.008294820994
0.007307408908
0.008740824348
0.007688740529
0.00812977416
0.009667907373
0.048049308
0.0667405639
0.06114227239
0.05427988852
0.04458479974
0.04185464537
0.04249224011
0.04244603232
0.04247648273
0.04239862093
0.04138598537
0.03992364473
0.037811719
0.03585916075
0.03666241437
0.0338106035
0.0286914412
0.01576732117
0.01140032287
0.01153963569
0.01488646912
0.01729344732
0.02082618843
0.01343942605
0.006896799125
0.009000636913
0.009630818707
0.009999400032
0.01159940871
0.009798345211
0.008351363402
0.009583002149
0.0468596863
0.06672621575
0.06150151432
0.05322922571
0.04435087884
0.04011198972
0.03973944454
0.03997636215
0.04025464175
0.04070597278
0.04080474916
0.03967703681
0.03494171163
0.03230626148
0.03255619512
0.02910938641
0.0216884893
0.01251532056
0.01032440587
0.01038931522
0.01600257396
0.03791037939
0.06029604642
0.02794275457
0.007678892119
0.009501548793
0.01432393368
0.01157294861
0.01239100446
0.01187431237
0.009844992746
0.01029757327
0.01167318998
0.03938554615
0.06397134234
0.06104435269
0.05202422373
0.04254975222
0.03780533131
0.03827822895
0.03692036365
0.03784657058
0.03869824715
0.037991588
0.0328417503