/*--------------------------------*- C++ -*----------------------------------*\
  =========                 |
  \\      /  F ield         | OpenFOAM: The Open Source CFD Toolbox
   \\    /   O peration     | Website:  https://openfoam.org
    \\  /    A nd           | Version:  8
     \\/     M anipulation  |
\*---------------------------------------------------------------------------*/
FoamFile
{
    version     2.0;
    format      ascii;
    class       volScalarField;
    location    "0.9";
    object      O2;
}
// * * * * * * * * * * * * * * * * * * * * * * * * * * * * * * * * * * * * * //

dimensions      [0 0 0 0 0 0 0];

internalField   nonuniform List<scalar> 
67286
(
0.2100021147
0.2100028932
0.2100031938
0.2100033794
0.210003431
0.2100035265
0.2100035239
0.2100036543
0.2100038567
0.2100041096
0.2100043431
0.2100044279
0.2100043807
0.2100043699
0.210004346
0.2100043784
0.2100043327
0.2100045134
0.2100050561
0.2100054277
0.2100057128
0.2100059423
0.2100063
0.2100060605
0.2100060521
0.210006045
0.2100058472
0.2100058187
0.2100019384
0.2100028484
0.2100032636
0.2100034226
0.2100034371
0.2100035914
0.2100034476
0.2100036953
0.2100038975
0.2100041645
0.2100044118
0.2100044862
0.2100043985
0.2100044154
0.2100042764
0.210004588
0.210004473
0.2100043838
0.210004741
0.2100051086
0.2100053789
0.2100057961
0.2100059326
0.2100059694
0.2100058961
0.2100059651
0.2100058039
0.2100063323
0.2100058103
0.210005764
0.2100054415
0.2100052849
0.2100017974
0.2100026884
0.2100030075
0.2100032075
0.2100033479
0.2100034487
0.2100035837
0.2100037822
0.2100039893
0.2100042048
0.2100043271
0.2100043898
0.2100045764
0.2100045244
0.2100047467
0.2100048992
0.2100046995
0.2100045565
0.2100045745
0.2100049065
0.2100051775
0.2100054911
0.2100056817
0.2100057434
0.2100056886
0.2100056928
0.2100057253
0.210005923
0.2100057941
0.2100057109
0.2100053759
0.2100051928
0.2100014659
0.2100025014
0.2100028096
0.2100030974
0.2100033997
0.2100036012
0.2100037739
0.2100039501
0.2100041163
0.2100042383
0.2100044612
0.2100045974
0.2100046812
0.2100046712
0.2100045767
0.2100046183
0.2100045606
0.2100047381
0.2100050633
0.2100053749
0.2100055778
0.2100056576
0.2100054566
0.2100057856
0.2100056783
0.2100057164
0.2100056362
0.2100059832
0.2100057354
0.2100061334
0.2100052653
0.2100050824
0.2100047429
0.2100019117
0.21000294
0.2100032866
0.2100034704
0.2100035956
0.2100037192
0.2100038663
0.2100039899
0.2100040516
0.2100040908
0.2100041639
0.2100042915
0.2100044241
0.2100045415
0.2100044928
0.2100045096
0.2100047362
0.210005118
0.2100053248
0.210005545
0.2100055771
0.2100053808
0.2100045137
0.2100054959
0.2100055209
0.2100056254
0.2100052424
0.2100056063
0.2100055926
0.2100052863
0.2100049575
0.2100047194
0.2100044256
0.2100021216
0.2100028451
0.2100031827
0.2100033404
0.2100034875
0.2100034355
0.2100037814
0.2100039016
0.2100039927
0.2100040147
0.210004158
0.2100042292
0.2100043774
0.2100044518
0.2100044556
0.2100046368
0.2100050371
0.2100051929
0.210005338
0.2100055306
0.2100055944
0.2100055937
0.2100054491
0.2100059112
0.2100053993
0.2100055501
0.2100054646
0.2100054129
0.2100051351
0.2100049796
0.2100045878
0.2100043046
0.2100040411
0.2100028433
0.2100031677
0.21000341
0.2100034031
0.2100034529
0.2100035558
0.2100037127
0.2100038059
0.2100037811
0.2100038509
0.2100040431
0.2100039782
0.2100040979
0.2100042767
0.2100046559
0.2100048984
0.2100050346
0.2100051757
0.2100052928
0.2100054645
0.21000546
0.2100055246
0.2100055162
0.2100052736
0.2100056043
0.2100055139
0.2100052621
0.2100050397
0.2100047165
0.2100044377
0.2100041163
0.2100038627
0.2100036207
0.2100031889
0.2100034208
0.210003443
0.2100032817
0.210003202
0.2100033256
0.2100035635
0.2100037362
0.2100038115
0.2100038477
0.2100039661
0.2100039285
0.2100039895
0.2100042469
0.2100047016
0.2100048711
0.2100049995
0.2100051497
0.2100052837
0.210005393
0.2100053624
0.2100052501
0.2100050774
0.2100050966
0.2100051566
0.2100051592
0.2100047051
0.2100047608
0.2100043258
0.2100044532
0.2100037598
0.2100034764
0.2100031605
0.2100034129
0.2100032933
0.2100031414
0.2100031996
0.2100032617
0.2100032543
0.2100031342
0.2100032147
0.2100034946
0.210003652
0.2100037647
0.2100037914
0.2100039168
0.2100043516
0.2100046522
0.2100047935
0.2100049072
0.2100050335
0.2100051395
0.2100052016
0.2100051596
0.2100050511
0.2100047993
0.2100047041
0.2100049591
0.210005079
0.2100047337
0.2100043056
0.2100040516
0.2100037227
0.2100033964
0.2100030643
0.2100026368
0.2100035662
0.2100032823
0.2100030811
0.2100030498
0.2100029943
0.2100030008
0.2100031092
0.2100029569
0.2100031256
0.2100034288
0.2100035873
0.2100037282
0.2100040214
0.2100043439
0.2100045143
0.2100046131
0.2100046788
0.2100047398
0.2100047648
0.2100046718
0.2100043735
0.2100040729
0.2100039367
0.2100039695
0.2100044033
0.2100047155
0.2100047162
0.2100042042
0.2100038455
0.2100035382
0.2100031626
0.210002698
0.2100020666
0.2100037767
0.210003526
0.21000341
0.2100034967
0.2100035909
0.2100036049
0.2100034715
0.2100033303
0.2100035392
0.2100036293
0.2100036794
0.2100038023
0.2100040004
0.2100042166
0.2100043328
0.2100043439
0.2100043116
0.2100042875
0.2100043146
0.2100043332
0.2100042848
0.21000429
0.2100043489
0.2100044253
0.2100045874
0.2100049957
0.2100048369
0.2100041579
0.2100037491
0.2100032864
0.2100027771
0.2100020964
0.2100012584
0.2100039518
0.2100036559
0.2100033699
0.2100032477
0.2100032107
0.2100033267
0.2100035473
0.210003777
0.2100035295
0.2100034588
0.2100036405
0.21000381
0.2100039479
0.2100039898
0.210003994
0.2100039828
0.2100039352
0.2100038839
0.2100039167
0.2100040528
0.2100040364
0.2100039936
0.2100042537
0.2100045487
0.2100047226
0.2100048635
0.210004659
0.2100043795
0.2100039475
0.2100035623
0.2100031172
0.2100024999
0.2100016843
0.2100042099
0.2100040259
0.2100037176
0.2100034596
0.2100032924
0.2100032529
0.2100032467
0.2100030505
0.2100030419
0.2100034397
0.2100036193
0.2100037975
0.2100039801
0.2100040405
0.2100040433
0.2100040132
0.2100039265
0.2100038144
0.2100037828
0.2100039453
0.2100041977
0.2100041245
0.210004246
0.2100045489
0.2100045143
0.210004638
0.2100047427
0.2100044684
0.2100041067
0.2100037756
0.2100034319
0.2100030076
0.2100024316
0.2100043233
0.2100043069
0.2100041302
0.210003841
0.210003598
0.2100034515
0.2100032873
0.2100029728
0.2100029311
0.2100035145
0.2100036433
0.210003857
0.2100040593
0.2100041415
0.210004143
0.2100040993
0.2100039879
0.2100038364
0.2100037512
0.2100038621
0.2100042738
0.2100043793
0.2100043325
0.2100046387
0.2100043344
0.210004732
0.2100047645
0.2100045296
0.2100042542
0.2100039878
0.2100037101
0.2100034105
0.2100030497
0.2100042634
0.210004352
0.2100043415
0.2100041694
0.2100039136
0.2100036931
0.2100034788
0.2100031736
0.2100030774
0.2100035906
0.2100036725
0.2100039112
0.2100041257
0.2100042436
0.2100042535
0.2100042064
0.210004089
0.2100039267
0.2100038217
0.2100039042
0.2100043042
0.2100045522
0.2100044946
0.2100048058
0.2100044007
0.210004762
0.2100046687
0.2100044451
0.2100041969
0.2100039548
0.2100037231
0.2100035413
0.2100033772
0.210004124
0.2100042339
0.2100042851
0.2100042505
0.2100041174
0.2100039304
0.2100037216
0.2100034549
0.2100032869
0.2100034969
0.210003623
0.2100038904
0.2100041444
0.2100043192
0.2100043656
0.2100043358
0.2100042413
0.2100041003
0.2100040022
0.2100040574
0.2100043767
0.2100046615
0.2100046645
0.210004808
0.2100045172
0.2100046579
0.2100045303
0.2100043199
0.2100040737
0.2100038121
0.2100035282
0.2100033716
0.2100033033
0.2100040121
0.2100040818
0.2100040902
0.2100040825
0.2100040368
0.210003937
0.2100038051
0.2100036351
0.2100034648
0.2100034662
0.210003604
0.2100038561
0.2100041069
0.2100043427
0.2100044444
0.2100044473
0.2100043926
0.2100042951
0.2100042167
0.210004245
0.2100044541
0.2100045494
0.2100043717
0.2100041634
0.2100043253
0.2100044363
0.2100043986
0.2100042641
0.2100040876
0.2100038402
0.2100033867
0.210003313
0.2100031622
0.2100039826
0.2100039859
0.2100039374
0.2100039017
0.2100038689
0.2100038173
0.21000375
0.2100036695
0.2100035693
0.2100035459
0.2100036568
0.2100038391
0.2100040457
0.2100043286
0.2100044762
0.2100045081
0.2100044808
0.2100044133
0.2100043399
0.2100042834
0.2100041159
0.2100034908
0.2100031276
0.2100032842
0.2100036812
0.2100040756
0.2100042603
0.210004243
0.2100040644
0.210003598
0.2100026022
0.2100033927
0.2100032469
0.2100040126
0.2100039703
0.2100038935
0.2100038422
0.2100038136
0.2100037885
0.2100037595
0.2100037253
0.2100036821
0.2100036774
0.2100037452
0.2100038484
0.2100040234
0.2100043178
0.2100044548
0.2100044601
0.2100043892
0.2100042454
0.2100039924
0.2100035168
0.2100028859
0.2100026353
0.2100026383
0.2100028052
0.210003127
0.2100035727
0.2100039968
0.2100041495
0.2100039176
0.2100030859
0.2100019857
0.2100032781
0.2100035461
0.210004069
0.2100040181
0.2100039339
0.2100038767
0.2100038558
0.2100038509
0.210003845
0.2100038309
0.2100038095
0.2100038041
0.2100038321
0.2100039005
0.2100040622
0.2100042641
0.2100042473
0.2100040572
0.2100037522
0.2100033485
0.2100029259
0.2100026005
0.2100024214
0.2100023341
0.210002343
0.2100024588
0.2100027253
0.2100032265
0.2100039184
0.2100042993
0.2100037237
0.2100021359
0.2099997014
0.2100014873
0.2100032203
0.2100041352
0.2100041055
0.210004026
0.2100039593
0.2100039306
0.210003934
0.2100039401
0.2100039345
0.2100039171
0.2100039044
0.2100039256
0.2100039847
0.2100040538
0.2100040096
0.2100037349
0.2100033538
0.210002983
0.2100027186
0.2100025048
0.2100023292
0.210002193
0.2100021138
0.210002101
0.2100021632
0.2100023267
0.2100026716
0.2100033256
0.2100041643
0.2100043263
0.2100030694
0.2100001562
0.2100027866
0.2100041598
0.2100042007
0.2100042104
0.2100041505
0.2100040757
0.2100040234
0.2100040082
0.2100040123
0.2100040095
0.2100039973
0.2100039982
0.2100040094
0.2100039799
0.2100038474
0.2100035761
0.2100032331
0.2100029385
0.2100027193
0.2100025008
0.2100022857
0.2100020987
0.2100019592
0.2100018789
0.2100018626
0.210001912
0.2100020337
0.2100022564
0.210002663
0.2100034225
0.2100042496
0.2100043131
0.2100020671
0.2100043669
0.2100045476
0.2100042606
0.2100043134
0.2100042893
0.2100042233
0.2100041517
0.2100041079
0.2100040924
0.2100040875
0.2100040802
0.2100040562
0.2100039722
0.2100037875
0.2100035203
0.210003229
0.2100029771
0.2100027625
0.2100025334
0.2100022943
0.2100020718
0.2100018877
0.2100017561
0.2100016846
0.2100016749
0.2100017245
0.2100018288
0.2100019945
0.2100022627
0.2100027528
0.2100035382
0.2100043909
0.2100038671
0.2100046381
0.2100044846
0.2100043229
0.2100044065
0.2100044247
0.2100043909
0.2100043214
0.2100042564
0.2100042143
0.2100041819
0.2100041242
0.2100039976
0.2100037856
0.2100035246
0.2100032642
0.2100030314
0.2100028123
0.2100025746
0.210002326
0.2100020887
0.2100018801
0.2100017137
0.2100015992
0.2100015418
0.2100015423
0.2100015986
0.2100017071
0.2100018677
0.2100020861
0.2100023949
0.2100029092
0.2100037224
0.2100043488
0.2100044608
0.2100045488
0.2100044236
0.2100045221
0.2100045677
0.2100045709
0.2100045209
0.2100044437
0.2100043583
0.2100042499
0.2100040807
0.2100038441
0.2100035856
0.2100033474
0.2100031374
0.2100029386
0.2100027189
0.2100024808
0.2100022396
0.2100020128
0.2100018166
0.2100016632
0.2100015606
0.2100015132
0.2100015213
0.2100015828
0.2100016918
0.2100018445
0.2100020372
0.2100022624
0.2100025816
0.2100030935
0.2100038441
0.2100041556
0.2100045498
0.2100046264
0.2100047725
0.2100047915
0.2100047853
0.2100047319
0.2100046292
0.2100044699
0.2100042492
0.2100039775
0.2100037025
0.2100034655
0.2100032668
0.2100030877
0.2100028947
0.2100026796
0.2100024526
0.2100022274
0.2100020184
0.2100018387
0.210001699
0.2100016066
0.2100015657
0.2100015769
0.2100016388
0.2100017466
0.2100018888
0.2100020586
0.2100022426
0.2100024664
0.2100027745
0.21000327
0.2100037408
0.2100041985
0.2100050682
0.2100052666
0.2100051996
0.2100050462
0.2100049303
0.2100047619
0.210004507
0.2100041951
0.2100038834
0.2100036191
0.2100034082
0.2100032296
0.2100030614
0.2100028765
0.2100026749
0.2100024672
0.2100022645
0.210002078
0.2100019183
0.2100017944
0.2100017127
0.2100016772
0.2100016891
0.2100017473
0.2100018496
0.2100019724
0.2100021171
0.2100022674
0.2100024371
0.2100026595
0.2100029583
0.2100034492
0.2100038714
0.2100056497
0.2100057237
0.210005515
0.210005256
0.2100050646
0.2100048096
0.2100044796
0.2100041334
0.2100038255
0.2100035756
0.210003372
0.2100031922
0.2100030185
0.210002843
0.2100026616
0.2100024792
0.2100023041
0.2100021446
0.2100020086
0.2100019031
0.2100018337
0.2100018038
0.2100018152
0.2100018666
0.210001956
0.2100020536
0.2100021666
0.210002285
0.2100024343
0.2100026259
0.2100028316
0.2100033052
0.2100037816
0.2100059287
0.2100057941
0.2100055798
0.2100053511
0.2100051118
0.2100047966
0.2100044387
0.2100040992
0.2100038088
0.2100035675
0.2100033612
0.2100031737
0.2100029936
0.2100028161
0.2100026413
0.2100024727
0.2100023156
0.2100021758
0.21000206
0.2100019732
0.2100019166
0.2100018926
0.2100019029
0.2100019463
0.2100020159
0.2100020895
0.2100021905
0.2100023116
0.210002463
0.2100026662
0.2100028221
0.2100030929
0.210003615
0.2100059139
0.2100056931
0.2100055319
0.2100053443
0.2100050783
0.210004733
0.2100043768
0.2100040621
0.2100037945
0.2100035602
0.2100033464
0.2100031449
0.2100029517
0.2100027658
0.2100025886
0.2100024226
0.2100022708
0.2100021368
0.2100020242
0.2100019365
0.2100018755
0.210001843
0.2100018415
0.2100018743
0.2100019421
0.2100020199
0.2100021256
0.210002262
0.21000243
0.2100026571
0.2100027821
0.2100027741
0.2100028139
0.2100035828
0.2100034877
0.2100034449
0.210003495
0.2100034674
0.2100034484
0.2100035456
0.2100036703
0.2100038517
0.2100040524
0.210004221
0.2100043047
0.2100043329
0.2100043839
0.2100044646
0.2100046508
0.2100048122
0.2100049355
0.2100051946
0.2100054448
0.210005604
0.2100059527
0.2100057387
0.2100060374
0.2100060296
0.210006086
0.2100058644
0.21000573
0.2100035664
0.2100034568
0.210003461
0.2100034122
0.2100034425
0.2100034168
0.210003524
0.2100037598
0.2100039527
0.2100041597
0.210004332
0.2100044326
0.2100045614
0.2100045021
0.2100046066
0.2100047261
0.2100047486
0.2100047408
0.2100048718
0.2100052914
0.2100052663
0.2100057098
0.2100056569
0.2100058637
0.2100058447
0.2100059789
0.2100058345
0.2100059291
0.210005757
0.2100055998
0.2100054313
0.2100053072
0.2100034031
0.2100033536
0.2100035202
0.2100035047
0.2100035537
0.2100036725
0.2100038106
0.2100039835
0.2100041414
0.21000427
0.2100043608
0.2100044827
0.210004607
0.2100046785
0.2100045878
0.2100048388
0.2100046268
0.2100046963
0.2100047313
0.2100049378
0.2100051232
0.210005405
0.21000553
0.2100056417
0.2100056548
0.2100057811
0.2100058713
0.2100059599
0.2100058504
0.2100055945
0.2100053768
0.2100052472
0.2100032379
0.2100032124
0.2100032752
0.2100033973
0.2100036145
0.2100038546
0.2100040776
0.2100042708
0.210004393
0.210004487
0.2100046028
0.2100047138
0.2100047904
0.210004788
0.2100047582
0.2100046143
0.2100046598
0.2100048057
0.2100050128
0.2100052585
0.2100053958
0.2100055305
0.2100056428
0.2100055778
0.2100056065
0.2100056744
0.2100058106
0.21000595
0.2100058327
0.2100056399
0.210005353
0.2100051521
0.2100049721
0.210003676
0.2100034243
0.2100034554
0.210003585
0.210003759
0.2100040041
0.2100042653
0.2100044618
0.2100045382
0.2100045845
0.2100046149
0.2100046681
0.2100047677
0.2100048109
0.2100047518
0.2100047228
0.2100048481
0.2100051404
0.2100053351
0.2100055246
0.2100056453
0.2100056896
0.2100058194
0.210005486
0.2100055362
0.2100055773
0.2100055355
0.2100056434
0.2100055805
0.210005417
0.2100050824
0.2100049355
0.2100047755
0.2100035262
0.2100033829
0.2100035165
0.2100035909
0.2100036141
0.2100039817
0.2100041593
0.2100044528
0.2100044505
0.2100046646
0.210004656
0.2100046111
0.2100046447
0.2100046746
0.2100047526
0.210004966
0.2100051548
0.2100053718
0.2100055451
0.2100057064
0.2100057812
0.2100058007
0.2100056786
0.2100054928
0.2100055204
0.2100055081
0.2100055543
0.2100055198
0.2100053475
0.2100051969
0.2100048502
0.2100046859
0.2100044738
0.2100036788
0.2100036165
0.210003704
0.2100037387
0.210003798
0.2100040028
0.2100042612
0.2100044103
0.2100045083
0.2100046825
0.2100047048
0.210004553
0.2100044523
0.2100044789
0.210004781
0.2100051184
0.2100053007
0.210005453
0.2100056033
0.2100057038
0.2100057578
0.2100055787
0.210005488
0.2100046085
0.2100053075
0.2100053026
0.2100052702
0.2100052251
0.2100050846
0.2100048309
0.2100045986
0.2100043206
0.2100039966
0.2100036081
0.2100037291
0.2100038304
0.2100039268
0.210004038
0.2100041325
0.21000425
0.2100043829
0.2100044297
0.2100045159
0.2100044989
0.2100044285
0.2100043117
0.2100044779
0.2100048128
0.2100050319
0.2100051864
0.2100053149
0.2100054743
0.210005636
0.2100056675
0.2100056082
0.2100054264
0.2100052791
0.2100053136
0.2100051859
0.2100050795
0.2100050379
0.210004811
0.210004515
0.2100042174
0.2100037989
0.2100033332
0.2100037099
0.2100038255
0.2100040156
0.210004139
0.2100042208
0.2100042322
0.2100041417
0.2100042217
0.2100042595
0.2100042789
0.2100042336
0.2100042053
0.2100042171
0.2100044809
0.2100046761
0.2100048414
0.2100050141
0.2100052269
0.2100053665
0.2100054639
0.2100054801
0.2100051896
0.2100048126
0.2100047523
0.2100051137
0.2100050539
0.2100046032
0.2100045499
0.210004328
0.2100040716
0.2100036591
0.2100031862
0.2100026496
0.21000386
0.2100039513
0.2100041655
0.2100042514
0.2100042649
0.2100042317
0.210004017
0.2100040098
0.2100041652
0.2100042404
0.2100041577
0.2100040707
0.210004198
0.2100043445
0.2100044514
0.210004596
0.2100047427
0.2100048648
0.2100049519
0.2100050305
0.2100049547
0.2100046618
0.2100043702
0.2100043524
0.2100046798
0.2100050222
0.2100048258
0.2100044566
0.2100041557
0.2100037989
0.2100033124
0.2100027219
0.210002075
0.2100039667
0.2100040314
0.2100042362
0.2100042715
0.2100041455
0.2100039934
0.2100039205
0.2100040037
0.2100041682
0.2100041355
0.2100040839
0.210004003
0.2100040541
0.2100040729
0.2100041112
0.2100041956
0.2100042276
0.2100042716
0.2100044178
0.210004692
0.2100048729
0.2100048637
0.2100046852
0.2100044902
0.2100046618
0.2100049409
0.2100049309
0.2100045656
0.2100041917
0.2100037672
0.2100032522
0.210002649
0.2100019672
0.2100040253
0.2100040635
0.2100042925
0.2100043829
0.2100043017
0.2100041505
0.2100039899
0.2100038219
0.2100037146
0.210003716
0.2100037839
0.2100038597
0.2100038646
0.2100038311
0.2100039279
0.2100039914
0.2100039559
0.2100039184
0.2100040166
0.2100043209
0.2100046875
0.2100048928
0.210005017
0.2100049662
0.210005149
0.2100051882
0.2100049853
0.2100045944
0.2100041848
0.2100037382
0.210003212
0.210002615
0.2100019762
0.2100040519
0.2100040324
0.2100042214
0.210004367
0.2100043377
0.2100042165
0.2100040297
0.2100038134
0.210003621
0.2100036087
0.2100038439
0.2100038628
0.2100038997
0.2100039356
0.2100040693
0.2100041185
0.2100039919
0.2100038215
0.2100038055
0.2100040362
0.2100044111
0.2100047896
0.2100050345
0.2100050344
0.2100050865
0.2100050714
0.210004899
0.2100045995
0.2100042276
0.2100038026
0.2100033357
0.2100028599
0.210002404
0.2100040309
0.210004005
0.2100041032
0.2100042668
0.210004357
0.210004278
0.2100040692
0.2100038346
0.2100036432
0.2100036307
0.2100037956
0.2100038736
0.2100039808
0.2100040935
0.2100042432
0.2100042647
0.2100040791
0.2100038311
0.2100037445
0.2100039266
0.2100042874
0.2100046563
0.2100049821
0.2100050894
0.2100051083
0.2100049589
0.2100048245
0.2100045568
0.2100042032
0.2100037918
0.2100033521
0.2100029551
0.2100026491
0.210003993
0.210004018
0.2100040207
0.2100040311
0.2100040708
0.2100040747
0.2100039692
0.2100038071
0.2100036646
0.2100036366
0.2100037712
0.2100039086
0.2100040608
0.2100042201
0.2100043666
0.2100043772
0.2100041859
0.2100039355
0.2100038394
0.2100040035
0.2100043296
0.2100046583
0.2100048768
0.2100049525
0.2100048292
0.2100048328
0.2100047147
0.2100044656
0.2100041092
0.2100036826
0.210003266
0.2100029398
0.2100027404
0.2100039569
0.2100040405
0.2100040061
0.2100039167
0.2100038405
0.2100037797
0.2100036981
0.2100036023
0.2100035459
0.2100035953
0.2100037654
0.2100039512
0.2100041164
0.2100042935
0.2100044445
0.2100044791
0.2100043452
0.2100041598
0.2100041061
0.2100042685
0.2100045128
0.2100046854
0.2100047279
0.2100046718
0.2100046338
0.2100046836
0.2100046098
0.2100044088
0.2100040759
0.2100036427
0.2100032231
0.2100029018
0.2100027471
0.2100039469
0.2100040393
0.2100039837
0.2100038717
0.2100037723
0.2100036881
0.2100036122
0.2100035618
0.2100035604
0.2100036572
0.2100038446
0.2100040237
0.2100041539
0.2100043225
0.2100044728
0.2100045417
0.2100044998
0.2100044158
0.2100044095
0.2100044968
0.2100045018
0.210004394
0.2100041408
0.2100040467
0.2100042447
0.2100043998
0.2100044444
0.2100043486
0.2100040945
0.2100036705
0.2100032184
0.2100029398
0.2100028026
0.210003987
0.2100040477
0.2100039872
0.2100038988
0.2100038282
0.2100037748
0.2100037284
0.2100036998
0.2100037194
0.2100038215
0.2100039806
0.2100041113
0.2100041909
0.2100043401
0.2100044683
0.2100045318
0.210004544
0.21000452
0.2100044722
0.2100043651
0.2100040928
0.2100036041
0.210003381
0.2100034741
0.2100036781
0.2100039266
0.2100041358
0.210004217
0.2100041087
0.2100034975
0.2100030526
0.2100030058
0.2100030731
0.2100040599
0.2100040908
0.2100040437
0.2100039949
0.2100039673
0.210003958
0.2100039454
0.2100039353
0.2100039556
0.2100040291
0.2100041282
0.2100041992
0.2100042484
0.210004378
0.2100044586
0.210004456
0.2100043897
0.210004255
0.2100040286
0.2100036742
0.210003269
0.2100030722
0.2100030441
0.2100031073
0.210003237
0.2100034321
0.2100036747
0.2100038591
0.2100038188
0.2100031676
0.2100030944
0.2100028057
0.2100033041
0.2100041394
0.2100041667
0.2100041434
0.2100041329
0.2100041418
0.2100041636
0.2100041753
0.2100041749
0.2100041818
0.2100042117
0.210004249
0.210004266
0.2100042994
0.2100043698
0.2100043369
0.210004187
0.210003956
0.2100036756
0.2100033821
0.2100031145
0.2100029223
0.2100028088
0.2100027658
0.2100027836
0.2100028618
0.2100030068
0.2100032134
0.2100034921
0.2100040448
0.2100036159
0.2100036799
0.210003401
0.2100039188
0.2100042146
0.2100042642
0.2100042656
0.2100042799
0.2100043147
0.2100043484
0.2100043661
0.2100043624
0.2100043479
0.2100043337
0.2100043123
0.2100042854
0.2100042746
0.2100042302
0.2100040688
0.2100038278
0.2100035599
0.2100032875
0.2100030196
0.2100027726
0.2100025854
0.2100024691
0.210002418
0.2100024301
0.2100025037
0.210002638
0.2100028314
0.2100030908
0.2100034605
0.2100038264
0.2100038373
0.2100038519
0.2100041338
0.2100042849
0.2100043704
0.2100043935
0.2100044142
0.2100044524
0.2100044925
0.2100045041
0.210004485
0.2100044418
0.2100043759
0.2100043039
0.2100042301
0.2100041415
0.2100040011
0.2100037928
0.2100035377
0.21000324
0.2100029322
0.2100026478
0.2100024085
0.2100022332
0.210002129
0.2100020946
0.2100021252
0.2100022154
0.210002361
0.2100025518
0.2100028237
0.2100031277
0.210003537
0.2100041488
0.2100041248
0.2100043208
0.2100043535
0.2100044745
0.210004517
0.2100045348
0.2100045516
0.2100045697
0.2100045652
0.2100045224
0.2100044447
0.2100043443
0.2100042306
0.2100041043
0.2100039625
0.210003785
0.210003546
0.2100032477
0.2100029249
0.2100026102
0.210002332
0.2100021095
0.2100019543
0.2100018705
0.2100018562
0.2100019063
0.2100020139
0.2100021726
0.2100023767
0.2100026357
0.2100028959
0.2100032672
0.2100037151
0.2100040898
0.2100043141
0.2100044269
0.2100045734
0.2100046353
0.2100046564
0.2100046505
0.21000463
0.2100045884
0.2100045137
0.2100044045
0.2100042678
0.2100041177
0.2100039661
0.2100038013
0.2100035868
0.2100033147
0.210003004
0.2100026821
0.2100023787
0.2100021177
0.2100019153
0.2100017801
0.2100017151
0.2100017184
0.210001785
0.2100019075
0.2100020787
0.2100022921
0.2100025457
0.2100028126
0.2100031737
0.2100035499
0.2100039933
0.2100042288
0.2100045314
0.2100046998
0.2100047811
0.210004809
0.2100047834
0.2100047253
0.2100046339
0.2100045082
0.2100043512
0.2100041812
0.2100040208
0.2100038646
0.2100036767
0.2100034368
0.2100031609
0.210002859
0.2100025539
0.2100022708
0.2100020304
0.2100018469
0.2100017282
0.2100016772
0.2100016927
0.2100017699
0.2100019009
0.2100020777
0.2100022927
0.210002537
0.2100027937
0.2100030947
0.2100034027
0.2100038099
0.2100040786
0.2100047342
0.2100049524
0.2100050193
0.2100050165
0.2100049487
0.2100048472
0.2100046943
0.2100045038
0.210004302
0.2100041206
0.2100039659
0.2100038043
0.2100035969
0.2100033595
0.2100030961
0.2100028159
0.2100025372
0.2100022804
0.2100020631
0.2100018979
0.2100017928
0.2100017511
0.2100017723
0.2100018522
0.2100019825
0.2100021548
0.2100023607
0.210002587
0.2100028206
0.2100030695
0.2100033012
0.210003722
0.2100039173
0.2100053593
0.2100054923
0.2100054073
0.2100052419
0.2100051068
0.2100049472
0.2100047302
0.210004488
0.2100042656
0.210004088
0.2100039383
0.2100037733
0.2100035646
0.2100033378
0.2100030965
0.2100028468
0.2100026018
0.2100023769
0.2100021864
0.2100020411
0.2100019485
0.2100019124
0.2100019331
0.2100020069
0.2100021257
0.2100022809
0.2100024648
0.2100026613
0.2100028559
0.2100030589
0.2100032492
0.2100037665
0.2100040383
0.210005948
0.2100058432
0.2100055977
0.2100053808
0.2100052
0.2100049816
0.2100047157
0.2100044482
0.21000422
0.2100040406
0.2100038869
0.2100037244
0.210003535
0.210003323
0.2100031067
0.2100028934
0.2100026879
0.2100025002
0.2100023407
0.210002218
0.2100021388
0.2100021066
0.2100021221
0.2100021824
0.2100022796
0.2100024071
0.2100025582
0.2100027141
0.2100028604
0.2100030167
0.2100032123
0.2100037349
0.2100041417
0.2100059714
0.2100057839
0.2100056018
0.2100054181
0.2100052124
0.2100049485
0.2100046499
0.210004367
0.2100041304
0.2100039397
0.2100037754
0.2100036142
0.2100034435
0.2100032633
0.2100030807
0.2100029024
0.2100027339
0.2100025818
0.2100024523
0.2100023522
0.2100022862
0.210002257
0.2100022652
0.210002308
0.2100023781
0.2100024778
0.2100025882
0.2100027062
0.2100028273
0.2100029725
0.2100031467
0.2100035906
0.2100040444
0.2100059342
0.2100056875
0.210005534
0.2100053722
0.2100051352
0.2100048212
0.2100044907
0.2100042003
0.2100039623
0.2100037612
0.2100035788
0.2100034032
0.2100032297
0.2100030583
0.2100028919
0.2100027344
0.2100025894
0.2100024606
0.2100023519
0.2100022669
0.2100022086
0.2100021793
0.2100021802
0.2100022096
0.2100022622
0.2100023301
0.2100024202
0.2100025337
0.210002665
0.2100028384
0.2100029668
0.2100032211
0.2100036418
0.2100034553
0.2100032426
0.2100032157
0.2100032539
0.2100032836
0.2100033257
0.2100033854
0.2100034949
0.2100036349
0.2100037959
0.2100039472
0.2100040665
0.2100042158
0.2100043445
0.2100045603
0.2100047904
0.2100050337
0.2100051762
0.210005341
0.210005561
0.2100057648
0.2100060382
0.2100060607
0.210006171
0.2100061541
0.210006157
0.2100059687
0.2100057471
0.2100056421
0.2100033806
0.2100032271
0.2100031143
0.2100031982
0.2100033375
0.2100034177
0.2100034502
0.2100036292
0.2100037917
0.2100039758
0.2100041539
0.2100042938
0.2100044358
0.2100045349
0.2100046897
0.210004825
0.2100048691
0.2100049213
0.2100050577
0.2100052885
0.2100055478
0.2100057993
0.2100059222
0.210005973
0.2100059572
0.2100060193
0.2100059646
0.2100054864
0.2100058004
0.2100055295
0.2100054395
0.2100053206
0.2100033299
0.2100033041
0.210003447
0.2100034769
0.2100034455
0.2100036009
0.2100037358
0.2100038716
0.2100039785
0.2100040747
0.2100041766
0.2100042747
0.2100044093
0.2100045752
0.2100045689
0.2100047477
0.2100047709
0.2100047439
0.2100047986
0.2100049811
0.2100051936
0.2100054861
0.210005682
0.2100057716
0.2100057831
0.2100059041
0.2100061195
0.2100060471
0.2100060375
0.2100059196
0.2100054301
0.2100052587
0.2100031642
0.2100030654
0.2100031068
0.2100032295
0.210003466
0.2100037838
0.2100040395
0.2100042139
0.2100042821
0.2100043327
0.2100044208
0.2100045467
0.2100046638
0.2100047673
0.2100048171
0.2100048505
0.2100050141
0.2100048497
0.2100050185
0.2100052069
0.2100053939
0.2100056142
0.2100057453
0.2100057552
0.2100056931
0.2100057159
0.2100059288
0.2100058918
0.2100059512
0.2100051376
0.2100052943
0.2100050634
0.2100049697
0.2100034483
0.2100032142
0.2100032297
0.2100033773
0.2100036229
0.2100039604
0.2100042786
0.2100044931
0.2100045656
0.2100045931
0.2100046168
0.2100046964
0.2100047588
0.2100048393
0.2100048583
0.2100048419
0.2100049713
0.2100051684
0.2100053743
0.2100055563
0.2100057148
0.210005791
0.2100059538
0.2100057124
0.2100056672
0.2100056008
0.2100056632
0.2100056744
0.2100056957
0.2100055127
0.2100050475
0.2100048614
0.2100047651
0.2100033575
0.2100032345
0.2100032503
0.2100033722
0.2100035788
0.210003954
0.210004226
0.2100046293
0.2100046763
0.2100047923
0.2100047804
0.210004653
0.2100046341
0.2100047113
0.2100048663
0.2100050909
0.2100052746
0.2100054634
0.2100056495
0.2100058073
0.2100058786
0.2100059311
0.2100058454
0.2100057769
0.2100056497
0.21000556
0.210005587
0.2100055648
0.2100054638
0.2100050575
0.2100047127
0.2100045384
0.2100044379
0.2100035811
0.2100035507
0.2100036561
0.2100038024
0.2100039936
0.2100041925
0.2100043371
0.2100045236
0.2100047165
0.2100048125
0.2100047645
0.2100045782
0.2100044699
0.21000458
0.2100048803
0.2100052067
0.2100054721
0.2100055802
0.210005691
0.2100057793
0.2100058266
0.2100058182
0.2100058314
0.2100054849
0.210005645
0.210005447
0.2100054723
0.2100054042
0.2100053158
0.2100050101
0.2100046508
0.2100042814
0.2100039017
0.210003654
0.2100037273
0.2100038742
0.2100040702
0.2100042568
0.2100043611
0.2100043556
0.2100044556
0.2100045653
0.210004604
0.210004526
0.2100043768
0.2100044115
0.2100046384
0.2100049372
0.2100051875
0.2100053734
0.2100054661
0.2100055729
0.2100056846
0.2100056681
0.2100056364
0.2100055151
0.210005409
0.2100054097
0.2100052593
0.2100050937
0.2100051893
0.2100050057
0.2100042563
0.2100042416
0.2100036679
0.2100031232
0.2100037445
0.2100038354
0.2100040221
0.2100042123
0.2100043198
0.2100043282
0.2100042678
0.2100041843
0.2100042031
0.2100042955
0.210004249
0.2100042472
0.2100043601
0.210004575
0.210004746
0.210004915
0.2100051035
0.2100053497
0.2100053222
0.2100052999
0.2100052601
0.2100050363
0.2100046826
0.2100047152
0.2100053346
0.2100051156
0.2100050654
0.2100047715
0.2100046002
0.2100042157
0.2100037008
0.2100030669
0.2100023926
0.2100038278
0.2100039088
0.2100040893
0.2100042105
0.2100042526
0.2100042279
0.2100041755
0.2100041648
0.2100042359
0.2100042849
0.2100042263
0.2100041723
0.2100042456
0.2100043134
0.2100044004
0.2100045286