/*--------------------------------*- C++ -*----------------------------------*\
  =========                 |
  \\      /  F ield         | OpenFOAM: The Open Source CFD Toolbox
   \\    /   O peration     | Website:  https://openfoam.org
    \\  /    A nd           | Version:  8
     \\/     M anipulation  |
\*---------------------------------------------------------------------------*/
FoamFile
{
    version     2.0;
    format      ascii;
    class       volScalarField;
    location    "0.9";
    object      p;
}
// * * * * * * * * * * * * * * * * * * * * * * * * * * * * * * * * * * * * * //

dimensions      [1 -1 -2 0 0 0 0];

internalField   nonuniform List<scalar> 
67286
(
100003.9771
100003.9335
100003.9262
100003.8758
100003.8238
100003.7989
100003.768
100003.7531
100003.7294
100003.7093
100003.7059
100003.6958
100003.7012
100003.6971
100003.7171
100003.7092
100003.7323
100003.7403
100003.7637
100003.7612
100003.8239
100003.7742
100003.8855
100003.7856
100003.8089
100003.8005
100003.801
100003.8193
100004.0773
100004.0631
100004.1311
100004.0734
100003.9432
100004.0386
100003.8487
100003.8357
100003.7884
100003.7552
100003.7495
100003.7436
100003.7551
100003.7684
100003.7952
100003.7349
100003.7327
100003.7448
100003.7788
100003.791
100003.8238
100003.8433
100003.9404
100003.8246
100003.837
100003.8464
100003.7774
100004.1219
100003.8084
100003.887
100003.7997
100003.8019
100004.1267
100004.1156
100004.122
100004.0509
100003.9688
100003.9319
100003.8922
100003.8607
100003.8334
100003.8214
100003.8275
100003.8028
100003.8059
100003.8504
100003.9614
100003.9256
100003.8108
100003.7452
100003.7831
100003.7629
100003.7717
100003.775
100003.8084
100003.7913
100003.8054
100003.7982
100003.8224
100003.832
100003.8256
100003.8415
100003.8031
100003.8134
100004.1222
100004.0881
100004.0722
100004.0219
100003.9785
100003.9583
100003.9052
100003.8832
100003.8503
100003.824
100003.8028
100003.7747
100003.7691
100003.7579
100003.7753
100003.8116
100003.8094
100003.7577
100003.7856
100003.7599
100003.7609
100003.76
100003.7913
100003.7895
100003.8088
100003.822
100003.8353
100003.9391
100003.8512
100004.3058
100003.8414
100003.8847
100003.8071
100004.0698
100004.0265
100004.011
100003.972
100003.9386
100003.9079
100003.8712
100003.8495
100003.8407
100003.8184
100003.7904
100003.7668
100003.7612
100003.7737
100003.7837
100003.7948
100003.7914
100003.7827
100003.7823
100003.7777
100003.7798
100003.8248
100003.8922
100003.8579
100003.796
100003.8251
100003.8427
100003.8244
100003.8437
100003.8574
100003.8301
100003.8276
100003.8123
100004.0766
100003.988
100003.9869
100003.9265
100003.9005
100003.9408
100003.8716
100003.9039
100003.8702
100003.835
100003.7799
100003.7424
100003.7657
100003.7692
100003.7811
100003.7878
100003.789
100003.7649
100003.7755
100003.775
100003.7914
100003.7601
100003.7989
100003.8068
100003.7963
100003.7992
100003.8243
100003.8343
100003.8533
100003.9229
100003.8576
100003.8418
100003.8146
100003.9868
100003.9272
100003.9322
100003.886
100003.8653
100003.8561
100003.8564
100003.893
100003.9142
100003.8797
100003.7909
100003.7219
100003.7468
100003.7702
100003.7832
100003.784
100003.7878
100003.7838
100003.8019
100003.8243
100003.8606
100003.9008
100003.9848
100004.3791
100003.834
100003.9174
100003.8903
100003.8221
100003.8235
100003.8191
100003.8157
100003.8118
100003.7996
100003.9796
100003.9095
100003.8965
100003.8593
100003.8541
100003.8537
100003.8349
100003.8442
100003.8619
100003.8343
100003.7711
100003.7359
100003.7668
100003.8044
100003.7982
100003.7904
100003.7885
100003.7853
100003.7877
100003.7961
100003.8072
100003.8076
100003.8304
100003.8841
100003.85
100003.8525
100003.878
100003.88
100003.9049
100004.1369
100003.8726
100003.8289
100003.8171
100003.9818
100003.8948
100003.8631
100003.8489
100003.8671
100003.8691
100003.8464
100003.8208
100003.7927
100003.7658
100003.7324
100003.7447
100003.7935
100003.8179
100003.8051
100003.7985
100003.7976
100003.806
100003.8149
100003.8288
100003.843
100003.8799
100003.9308
100003.993
100003.932
100003.8801
100003.981
100003.8323
100003.8681
100003.8253
100003.8053
100003.818
100003.8753
100003.9965
100003.8831
100003.8577
100003.8586
100003.8712
100003.8649
100003.8604
100003.8504
100003.8399
100003.8034
100003.7765
100003.7821
100003.8194
100003.824
100003.8086
100003.8038
100003.8099
100003.8271
100003.8403
100003.8473
100003.852
100003.8761
100003.9208
100003.9354
100003.8856
100003.8544
100003.8834
100003.8478
100003.8409
100003.8271
100003.8127
100003.8668
100003.9871
100004.002
100003.8759
100003.8442
100003.8423
100003.8693
100003.8876
100003.8969
100003.8917
100003.86
100003.8232
100003.7818
100003.7951
100003.8254
100003.8242
100003.8149
100003.825
100003.8494
100003.8704
100003.8754
100003.8764
100003.8778
100003.891
100003.9249
100003.9711
100003.9312
100003.8856
100003.9115
100003.8586
100003.8229
100003.7894
100003.8073
100003.9136
100004.0928
100004.0299
100003.8713
100003.8223
100003.8336
100003.9013
100003.9487
100003.9459
100003.934
100003.9097
100003.8361
100003.7881
100003.8156
100003.8389
100003.8159
100003.8178
100003.8379
100003.8697
100003.894
100003.8968
100003.8926
100003.8849
100003.8768
100003.8743
100003.888
100003.8615
100003.8342
100003.8732
100003.857
100003.8303
100003.8059
100003.8146
100003.8875
100004.0187
100004.0389
100003.873
100003.8091
100003.81
100003.8824
100003.9469
100003.9757
100003.9654
100003.9252
100003.8158
100003.7795
100003.8205
100003.8376
100003.8173
100003.8214
100003.8421
100003.876
100003.9053
100003.9109
100003.8991
100003.879
100003.8663
100003.8467
100003.8448
100003.828
100003.8514
100003.8698
100003.8515
100003.827
100003.8171
100003.8303
100003.869
100003.9353
100004.0167
100003.8754
100003.8063
100003.7596
100003.7744
100003.8226
100003.8768
100003.932
100003.8858
100003.7856
100003.7913
100003.8209
100003.8298
100003.8105
100003.8113
100003.8302
100003.8644
100003.8954
100003.9043
100003.8909
100003.8702
100003.8619
100003.8397
100003.8319
100003.8442
100003.8554
100003.859
100003.8413
100003.8289
100003.8356
100003.8629
100003.8969
100003.9306
100003.9785
100003.8786
100003.8247
100003.7705
100003.7436
100003.7497
100003.7809
100003.829
100003.8029
100003.7705
100003.7934
100003.8085
100003.815
100003.8044
100003.8045
100003.82
100003.8502
100003.8769
100003.8836
100003.8672
100003.8474
100003.8483
100003.844
100003.8478
100003.8657
100003.8641
100003.8522
100003.8336
100003.8302
100003.8505
100003.8911
100003.9258
100003.9542
100003.9414
100003.8783
100003.8414
100003.8004
100003.7749
100003.7647
100003.7706
100003.7938
100003.7908
100003.7733
100003.7861
100003.799
100003.8075
100003.8014
100003.8008
100003.81
100003.8325
100003.852
100003.857
100003.8435
100003.8407
100003.853
100003.861
100003.8718
100003.8773
100003.869
100003.8492
100003.8339
100003.8369
100003.8691
100003.9227
100003.9504
100003.9744
100003.9161
100003.872
100003.8461
100003.8163
100003.7967
100003.7871
100003.7871
100003.7925
100003.7918
100003.7767
100003.7829
100003.7949
100003.8053
100003.8023
100003.8011
100003.8049
100003.8171
100003.8298
100003.837
100003.8396
100003.8545
100003.8745
100003.8895
100003.888
100003.881
100003.8645
100003.843
100003.8319
100003.848
100003.889
100003.9491
100003.9759
100003.9772
100003.9015
100003.8636
100003.842
100003.8191
100003.8043
100003.7966
100003.7951
100003.7946
100003.7926
100003.7815
100003.7818
100003.7932
100003.8055
100003.8062
100003.8066
100003.8096
100003.8173
100003.8274
100003.8408
100003.8589
100003.8778
100003.8889
100003.8938
100003.8834
100003.8789
100003.8662
100003.8446
100003.8228
100003.8165
100003.8943
100004.0082
100003.9958
100003.9885
100003.8937
100003.8584
100003.8393
100003.8196
100003.807
100003.7994
100003.7966
100003.7945
100003.7914
100003.7836
100003.7826
100003.7945
100003.8074
100003.8116
100003.8147
100003.8203
100003.83
100003.8427
100003.8555
100003.8639
100003.8663
100003.8598
100003.8575
100003.8584
100003.8618
100003.855
100003.837
100003.8145
100003.8391
100004.065
100004.2453
100004.0929
100004.0059
100003.8912
100003.8584
100003.8411
100003.8227
100003.8102
100003.8021
100003.7978
100003.7944
100003.7908
100003.7854
100003.7878
100003.7997
100003.8111
100003.8164
100003.8203
100003.8261
100003.8338
100003.842
100003.8476
100003.8455
100003.8381
100003.8391
100003.845
100003.8564
100003.8736
100003.8848
100003.8642
100003.8231
100003.8186
100004.1685
100004.5179
100004.1221
100003.9519
100003.893
100003.8631
100003.8473
100003.8295
100003.8165
100003.8071
100003.8013
100003.7968
100003.7935
100003.7921
100003.7975
100003.8076
100003.8156
100003.8181
100003.8192
100003.8213
100003.8232
100003.8235
100003.8239
100003.8262
100003.8314
100003.8378
100003.8463
100003.8585
100003.878
100003.9048
100003.9285
100003.9161
100003.846
100003.9928
100004.2721
100004.0076
100003.9648
100003.8978
100003.8712
100003.857
100003.84
100003.8269
100003.8163
100003.8091
100003.8044
100003.8027
100003.8043
100003.8096
100003.8154
100003.8178
100003.8156
100003.8122
100003.8092
100003.8103
100003.8175
100003.8277
100003.8388
100003.8487
100003.8574
100003.865
100003.8735
100003.8869
100003.9099
100003.94
100003.9546
100003.9057
100003.8549
100003.8318
100003.9085
100003.9819
100003.9049
100003.8819
100003.8699
100003.854
100003.8414
100003.8306
100003.8228
100003.8183
100003.8172
100003.818
100003.8192
100003.8186
100003.8147
100003.8085
100003.8043
100003.807
100003.8174
100003.8322
100003.8476
100003.8616
100003.8731
100003.8815
100003.8874
100003.8918
100003.8988
100003.9127
100003.9402
100003.9677
100003.966
100003.9324
100003.855
100003.9604
100004.0009
100003.9139
100003.8946
100003.8855
100003.8712
100003.8593
100003.8486
100003.8406
100003.8355
100003.8325
100003.8292
100003.8243
100003.8175
100003.8104
100003.8061
100003.809
100003.8199
100003.8359
100003.8538
100003.8714
100003.8867
100003.8985
100003.9065
100003.911
100003.913
100003.9159
100003.922
100003.9396
100003.9644
100003.99
100004.0017
100003.9942
100004.0191
100004.0214
100003.9226
100003.908
100003.903
100003.8907
100003.8798
100003.869
100003.8601
100003.8527
100003.8454
100003.8363
100003.8261
100003.8165
100003.8104
100003.811
100003.8197
100003.8347
100003.8534
100003.8731
100003.8916
100003.9073
100003.9192
100003.927
100003.9308
100003.9312
100003.9306
100003.9312
100003.9426
100003.9599
100003.9948
100004.0278
100004.0529
100004.0624
100004.0587
100003.9294
100003.9209
100003.9201
100003.9104
100003.9011
100003.8903
100003.8798
100003.8687
100003.8563
100003.8427
100003.83
100003.8204
100003.8164
100003.82
100003.8303
100003.8458
100003.8644
100003.884
100003.9025
100003.9184
100003.9304
100003.9383
100003.9419
100003.9415
100003.9397
100003.9397
100003.9479
100003.9622
100003.9971
100004.0369
100004.0841
100004.1361
100004.1223
100003.9367
100003.9323
100003.9353
100003.9284
100003.9197
100003.9084
100003.8956
100003.8807
100003.8644
100003.8486
100003.8354
100003.8264
100003.8231
100003.827
100003.8369
100003.8514
100003.8688
100003.8871
100003.9048
100003.9203
100003.9324
100003.9406
100003.9448
100003.9448
100003.944
100003.9458
100003.954
100003.9697
100004.0034
100004.0442
100004.097
100004.1864
100004.1641
100003.9462
100003.9431
100003.9467
100003.9428
100003.9358
100003.925
100003.9111
100003.8947
100003.8774
100003.8615
100003.8487
100003.8404
100003.8376
100003.8404
100003.8488
100003.8615
100003.877
100003.8936
100003.9099
100003.9244
100003.9362
100003.9446
100003.9494
100003.95
100003.9511
100003.9561
100003.9664
100003.9856
100004.0188
100004.061
100004.1106
100004.1909
100004.1774
100003.9518
100003.9483
100003.952
100003.9507
100003.9446
100003.9333
100003.9182
100003.9009
100003.8836
100003.8679
100003.8557
100003.8482
100003.846
100003.8493
100003.8574
100003.8694
100003.8839
100003.8994
100003.9143
100003.9278
100003.9389
100003.9471
100003.9524
100003.9537
100003.9576
100003.9663
100003.9788
100003.9997
100004.0321
100004.0741
100004.1204
100004.1708
100004.1845
100003.9723
100003.9631
100003.9687
100003.9671
100003.9607
100003.9494
100003.9351
100003.9201
100003.9062
100003.895
100003.8874
100003.8845
100003.8867
100003.8938
100003.9054
100003.9201
100003.9365
100003.9533
100003.969
100003.9826
100003.9934
100004.0009
100004.0047
100004.005
100004.0072
100004.0137
100004.0233
100004.041
100004.0695
100004.1104
100004.1545
100004.2051
100004.2453
100003.7851
100003.7387
100003.7077
100003.6759
100003.6382
100003.5889
100003.5865
100003.5683
100003.553
100003.5388
100003.5236
100003.5147
100003.5153
100003.515
100003.5136
100003.5224
100003.525
100003.5675
100003.5854
100003.5774
100003.5684
100003.61
100003.4143
100003.5833
100003.5794
100003.6299
100003.6102
100003.6293
100003.8858
100003.8496
100003.8298
100003.768
100003.6937
100003.5831
100003.6446
100003.6106
100003.5918
100003.573
100003.5498
100003.5421
100003.5426
100003.5409
100003.5179
100003.5158
100003.5256
100003.5626
100003.5648
100003.577
100003.5246
100003.5501
100003.4437
100003.5756
100003.5979
100003.6417
100003.5914
100003.6954
100003.6527
100003.6726
100003.6561
100003.653
100003.9565
100003.9217
100004.0046
100003.9025
100003.7983
100003.7469
100003.6986
100003.6597
100003.6316
100003.6134
100003.5796
100003.5643
100003.5868
100003.57
100003.5242
100003.5466
100003.4827
100003.5588
100003.571
100003.5936
100003.5776
100003.5704
100003.5025
100003.5713
100003.5816
100003.6049
100003.5786
100003.6431
100003.6237
100003.6206
100003.65
100003.6514
100003.9248
100003.8711
100003.8702
100003.8295
100003.7761
100003.7239
100003.6995
100003.6634
100003.6441
100003.6246
100003.6088
100003.5828
100003.5757
100003.5572
100003.549
100003.4783
100003.542
100003.5718
100003.5932
100003.5868
100003.5601
100003.5457
100003.54
100003.5375
100003.5903
100003.6214
100003.6216
100003.687
100003.6083
100003.7317
100003.7188
100003.6884
100003.6566
100003.89
100003.8516
100003.8542
100003.817
100003.7736
100003.7333
100003.7014
100003.6625
100003.637
100003.6104
100003.5844
100003.5743
100003.5916
100003.5838
100003.5948
100003.5928
100003.6055
100003.6018
100003.5879
100003.5779
100003.5397
100003.533
100003.5313
100003.4837
100003.5381
100003.6017
100003.5845
100003.6283
100003.6319
100003.7015
100003.6637
100003.6605
100003.6514
100003.8511
100003.7937
100003.8098
100003.7486
100003.722
100003.6859
100003.6926
100003.6236
100003.6199
100003.6106
100003.5852
100003.5661
100003.5852
100003.5909
100003.5974
100003.5947
100003.6094
100003.6042
100003.6113
100003.6132
100003.6056
100003.5966
100003.5878
100003.5137
100003.6085
100003.6089
100003.6582
100003.6689
100003.6583
100003.7224
100003.6873
100003.6816
100003.6505
100003.7667
100003.7505
100003.7625
100003.719
100003.6891
100003.6599
100003.6553
100003.6482
100003.6366
100003.598
100003.5568
100003.5429
100003.5646
100003.6038
100003.6253
100003.6182
100003.6264
100003.6297
100003.635
100003.6331
100003.62
100003.54
100003.5502
100003.1605
100003.4753
100003.5492
100003.5868
100003.6173
100003.6272
100003.6221
100003.6391
100003.6312
100003.6207
100003.7417
100003.7286
100003.7174
100003.6909
100003.6846
100003.6666
100003.6462
100003.6155
100003.6056
100003.586
100003.5632
100003.552
100003.5741
100003.6358
100003.6434
100003.6361
100003.6376
100003.6366
100003.6353
100003.6362
100003.6322
100003.6211
100003.624
100003.602
100003.6334
100003.6098
100003.6653
100003.6576
100003.6317
100003.7067
100003.6867
100003.6383
100003.6184
100003.7413
100003.6733
100003.6564
100003.6577
100003.6694
100003.6703
100003.6572
100003.6173
100003.596
100003.5785
100003.5639
100003.5552
100003.5989
100003.6575
100003.6498
100003.6461
100003.6505
100003.6691
100003.6632
100003.6635
100003.6606
100003.6621
100003.6605
100003.6036
100003.6565
100003.6571
100003.6006
100003.677
100003.6484
100003.6429
100003.6051
100003.5963
100003.606
100003.7301
100003.6369
100003.6452
100003.653
100003.6622
100003.6645
100003.6719
100003.6433
100003.6132
100003.5896
100003.5715
100003.5783
100003.6456
100003.6585
100003.6475
100003.6474
100003.6555
100003.6649
100003.6674
100003.6701
100003.6761
100003.6814
100003.685
100003.6733
100003.6653
100003.6457
100003.6742
100003.6636
100003.6379
100003.6179
100003.6028
100003.5996
100003.6228
100003.7142
100003.6186
100003.6326
100003.6417
100003.6666
100003.7006
100003.7246
100003.7119
100003.661
100003.6274
100003.5911
100003.6227
100003.6678
100003.663
100003.6627
100003.6706
100003.6813
100003.6897
100003.6884
100003.6924
100003.6968
100003.6958
100003.6975
100003.6987
100003.6824
100003.6712
100003.6679
100003.6588
100003.6223
100003.5899
100003.5748
100003.5826
100003.618
100003.6927
100003.5769
100003.5924
100003.5942
100003.6073
100003.6358
100003.6715
100003.7066
100003.6448
100003.6118
100003.5906
100003.628
100003.6589
100003.6504
100003.6636
100003.6745
100003.6899
100003.7017
100003.6996
100003.7003
100003.704
100003.6991
100003.6831
100003.6749
100003.6616
100003.6512
100003.659
100003.6712
100003.6409
100003.608
100003.5954
100003.604
100003.6351
100003.6994
100003.5673
100003.5723
100003.5731
100003.5829
100003.6102
100003.6399
100003.6477
100003.6201
100003.6035
100003.5862
100003.6354
100003.6597
100003.6517
100003.6653
100003.6801
100003.6981
100003.7134
100003.7134
100003.7075
100003.6994
100003.6911
100003.6758
100003.6661
100003.6605
100003.6518
100003.6799
100003.6835
100003.6573
100003.6338
100003.6257
100003.6365
100003.6565
100003.7316
100003.5971
100003.555
100003.5454
100003.5555
100003.5721
100003.5986
100003.6187
100003.5976
100003.587
100003.5916
100003.6512
100003.6608
100003.6515
100003.661
100003.6756
100003.6937
100003.7101
100003.7141
100003.7088
100003.703
100003.6888
100003.6758
100003.6774
100003.6712
100003.6852
100003.6991
100003.6898
100003.6746
100003.6694
100003.6756
100003.6915
100003.708
100003.7637
100003.6611
100003.5895
100003.5409
100003.5384
100003.5529
100003.5759
100003.597
100003.5881
100003.6004
100003.6216
100003.6615
100003.6636
100003.6538
100003.6579
100003.6715
100003.6875
100003.7014
100003.7047
100003.6978
100003.6914
100003.6837
100003.6822
100003.6869
100003.6879
100003.7115
100003.703
100003.683
100003.6726
100003.6809
100003.7034
100003.7312
100003.7524
100003.7738
100003.7098
100003.6563
100003.5985
100003.5683
100003.5666
100003.5834
100003.5983
100003.5989
100003.6167
100003.6354
100003.6618
100003.6669
100003.6576
100003.658
100003.6683
100003.6806
100003.6913
100003.6954
100003.6921
100003.6945
100003.7028
100003.7045
100003.716
100003.7227
100003.7259
100003.6997
100003.6787
100003.6731
100003.6933
100003.7225
100003.7508
100003.7715
100003.7678
100003.7241
100003.6929
100003.6537
100003.627
100003.6128
100003.6136
100003.619
100003.6208
100003.6291
100003.6383
100003.6583
100003.6699
100003.6646
100003.6618
100003.6678
100003.6772
100003.6854
100003.6908
100003.692
100003.7079
100003.7279
100003.7422
100003.7496
100003.7424
100003.7238
100003.6929
100003.6706
100003.6672
100003.6956
100003.7259
100003.7558
100003.7706
100003.7576
100003.7223
100003.7002
100003.6753
100003.6576
100003.646
100003.641
100003.6395
100003.6378
100003.6375
100003.6408
100003.6558
100003.6734
100003.6745
100003.67
100003.6702
100003.6749
100003.683
100003.6926
100003.7051
100003.7289
100003.7424
100003.7457
100003.7431
100003.7398
100003.722
100003.6879
100003.6581
100003.655
100003.6901
100003.717
100003.7855
100003.7869
100003.7508
100003.7196
100003.7012
100003.6822
100003.6689
100003.6601
100003.6545
100003.6504
100003.6466
100003.6433
100003.644
100003.6566
100003.6778
100003.6853
100003.6844
100003.684
100003.687
100003.6939
100003.7035
100003.713
100003.7172
100003.7138
100003.7149
100003.7194
100003.7223
100003.7089
100003.664
100003.6126
100003.5842
100003.6056
100003.6255
100003.7157
100003.7555
100003.7494
100003.721
100003.7042
100003.6874
100003.6767
100003.6683
100003.662
100003.6569
100003.6526
100003.649
100003.649
100003.6614
100003.6825
100003.6918
100003.6939
100003.6947
100003.6956
100003.696
100003.6948
100003.691
100003.6884
100003.6912
100003.6968
100003.7041
100003.7114
100003.7066
100003.6216
100003.525
100003.5459
100003.5839
100003.5977
100003.598
100003.6243
100003.7535
100003.7274
100003.7112
100003.6942
100003.684
100003.6757
100003.6691
100003.6636
100003.6589
100003.6551
100003.6573
100003.6705
100003.6857
100003.6897
100003.6869
100003.6812
100003.675
100003.6711
100003.6703
100003.6739
100003.6795
100003.686
100003.6928
100003.6999
100003.7079
100003.7145
100003.6827
100003.5834
100003.4677
100003.558
100003.5699
100003.5655
100003.6003
100003.7618
100003.738
100003.7226
100003.7046
100003.6928
100003.6841
100003.6772
100003.6711
100003.666
100003.6646
100003.6698
100003.6795
100003.6834
100003.6785
100003.671
100003.6658
100003.6657
100003.6693
100003.6752
100003.6818
100003.6888
100003.6959
100003.7027
100003.7089
100003.7148
100003.72
100003.71
100003.6896
100003.5131
100003.5152
100003.5383
100003.5686
100003.6311
100003.7728
100003.7515
100003.7378
100003.7198
100003.7062
100003.6956
100003.6877
100003.6816
100003.6782
100003.6788
100003.6816
100003.6813
100003.6755
100003.6683
100003.6644
100003.6654
100003.67
100003.677
100003.6857
100003.6946
100003.7031
100003.7106
100003.7168
100003.7221
100003.727
100003.7317
100003.7352
100003.741
100003.6732
100003.591
100003.4743
100003.6645
100003.6663
100003.7853
100003.7665
100003.756
100003.7395
100003.7257
100003.7135
100003.7045
100003.6984
100003.6951
100003.6925
100003.6873
100003.6792
100003.6718
100003.6676
100003.6683
100003.6727
100003.6805
100003.6905
100003.7012
100003.7114
100003.7202
100003.7274
100003.7329
100003.7371
100003.7412
100003.746
100003.7523
100003.7618
100003.7558
100003.7529
100003.6265
100003.7853
100003.6813
100003.7969
100003.7816
100003.7752
100003.7618
100003.7493
100003.7369
100003.7268
100003.7187
100003.7109
100003.7013
100003.6901
100003.6806
100003.6749
100003.6735
100003.6764
100003.6835
100003.6936
100003.7053
100003.7172
100003.728
100003.7371
100003.7441
100003.7491
100003.7526
100003.7563
100003.7615
100003.7699
100003.7812
100003.8016
100003.8305
100003.7999
100003.8717
100003.7808
100003.8073
100003.7956
100003.794
100003.7839
100003.7738
100003.7618
100003.75
100003.7378
100003.724
100003.7091
100003.6959
100003.6871
100003.6826
100003.6821
100003.6862
100003.6944
100003.7054
100003.7177
100003.73
100003.7411
100003.7503
100003.7572
100003.7621
100003.7654
100003.7693
100003.7757
100003.7861
100003.8008
100003.8283
100003.8726
100003.8853
100004.0014
100003.8961
100003.8171
100003.8076
100003.8099
100003.8038
100003.7946
100003.7822
100003.7678
100003.7513
100003.7335
100003.7164
100003.7027
100003.6941
100003.69
100003.6903
100003.695
100003.7036
100003.7148
100003.7272
100003.7396
100003.7508
100003.7602
100003.7673
100003.7723
100003.7758
100003.7805
100003.7883
100003.8006
100003.8189
100003.8505
100003.9014
100003.9319
100004.0838
100003.9972
100003.8228
100003.8164
100003.8204
100003.8181
100003.8118
100003.8005
100003.7855
100003.7673
100003.7483
100003.7306
100003.7164
100003.7072
100003.7034
100003.7044
100003.7096
100003.7183
100003.7295
100003.7419
100003.7541
100003.7652
100003.7745
100003.7816
100003.7867
100003.7903
100003.7961
100003.8054
100003.8197
100003.8415
100003.8757
100003.9241
100003.9652
100004.0625
100004.0106
100003.8321
100003.8232
100003.8288
100003.8281
100003.8224
100003.8108
100003.7949
100003.7758
100003.7559
100003.7377
100003.7232
100003.714
100003.7106
100003.7126
100003.719
100003.7288
100003.7406
100003.7533
100003.766
100003.7775
100003.7871
100003.7945
100003.7998
100003.8034
100003.8099
100003.8207
100003.837
100003.861
100003.896
100003.9419
100003.9817
100004.0263
100004.016
100003.8581
100003.8442
100003.8479
100003.8457
100003.84
100003.8293
100003.8145
100003.7973
100003.78
100003.7651
100003.7546
100003.7495
100003.7501
100003.7558
100003.7658
100003.7786
100003.793
100003.8077
100003.8215
100003.8333
100003.8427
100003.8494
100003.8535
100003.8548
100003.8596
100003.8689
100003.8825
100003.9041
100003.9361
100003.9787
100004.0188
100004.0492
100004.0562
100003.6422
100003.6058
100003.5844
100003.5637
100003.5408
100003.5088
100003.4732
100003.4521
100003.4321
100003.4183
100003.4111
100003.4071
100003.4083
100003.4104
100003.4052
100003.4317
100003.4443
100003.4604
100003.4686
100003.49
100003.486
100003.5166
100003.4694
100003.5154
100003.4866
100003.5095
100003.5023
100003.4994
100003.5214
100003.7265
100003.6762
100003.5827
100003.5861
100003.5934
100003.5616
100003.5134
100003.4859
100003.4609
100003.4441
100003.4333
100003.4286
100003.4273
100003.4289
100003.4275
100003.433
100003.473
100003.4694
100003.4691
100003.493
100003.4654
100003.4817
100003.4624
100003.493
100003.4864
100003.4852
100003.5068
100003.2161
100003.5424
100003.4807
100003.5225
100003.5188
100003.8481
100003.8505
100003.8984
100003.8654
100003.6995
100003.638
100003.5714
100003.5271
100003.497
100003.4764
100003.4585
100003.4457
100003.439
100003.4392
100003.3709
100003.3659
100003.4381
100003.4695
100003.4808
100003.4914
100003.4941
100003.5068
100003.5173
100003.5133
100003.5064
100003.5132
100003.5262
100003.5248
100003.57
100003.6981
100003.5463
100003.5241
100003.7959
100003.7519
100003.7467
100003.6988
100003.6442
100003.6013
100003.5632
100003.5348
100003.5145
100003.4932
100003.4754
100003.461
100003.4531
100003.4548
100003.4705
100003.4903
100003.6436
100003.484
100003.4953
100003.4921
100003.4952
100003.5041
100003.5134
100003.5217
100003.5241
100003.5122
100003.5167
100003.4731
100003.5131
100003.1538
100003.5393
100003.5025
100003.5125
100003.7696
100003.7452
100003.7381
100003.7091
100003.6513
100003.609
100003.5725
100003.5439
100003.5217
100003.4972
100003.4794
100003.4699
100003.4564
100003.4619
100003.4669
100003.4847
100003.507
100003.4941
100003.4956
100003.5015
100003.5146
100003.5074
100003.5436
100003.5165
100003.5396
100003.5166
100003.5298
100003.532
100003.5422
100003.5453
100003.5356
100003.5194
100003.5122
100003.7181
100003.668
100003.6825
100003.6341
100003.5914
100003.5734
100003.5458
100003.5375
100003.5393
100003.5151
100003.4834
100003.476
100003.4658
100003.4738
100003.4828
100003.4992
100003.5057
100003.5107
100003.5117
100003.5395
100003.5329
100003.5382
100003.5665
100003.5437
100003.5718
100003.532
100003.5453
100003.5338
100003.517
100003.4611
100003.5357
100003.5272
100003.515
100003.6594
100003.6267
100003.6321
100003.609
100003.5862
100003.5674
100003.546
100003.5357
100003.52
100003.501
100003.4824
100003.4749
100003.478
100003.4886
100003.4962
100003.5069
100003.5174
100003.533
100003.5296
100003.5383
100003.5562
100003.5495
100003.6218
100003.5564
100003.6116
100003.5282
100003.547
100003.5289
100003.5538
100003.5255
100003.5292
100003.5127
100003.5073
100003.6117
100003.5848
100003.5917
100003.5783
100003.5756
100003.5675
100003.5548
100003.5328
100003.5323
100003.5069
100003.4901
100003.4887
100003.4989
100003.5081
100003.5135
100003.522
100003.5301
100003.5397
100003.5349
100003.5427
100003.5544
100003.5707
100003.5918
100003.5858
100003.6047
100003.5243
100003.5391
100003.5162
100003.5379
100003.2298
100003.5191
100003.4776
100003.5015
100003.5868
100003.5607
100003.5693
100003.5629
100003.5652
100003.5621
100003.5518
100003.5315
100003.5159
100003.5056
100003.5008
100003.5044
100003.5137
100003.5254
100003.5329
100003.5498
100003.5668
100003.6285
100003.5646
100003.5616
100003.5645
100003.576
100003.6168
100003.6011
100003.8989
100003.6093
100003.6383
100003.5854
100003.5576
100003.5326
100003.5131
100003.5016
100003.5075
100003.5722
100003.5454
100003.5527
100003.5455
100003.5541
100003.5619
100003.5692
100003.5621
100003.5461
100003.5189
100003.5119
100003.5153
100003.5291
100003.5363
100003.5411
100003.5456
100003.5488
100003.5553
100003.5503
100003.5609
100003.5821
100003.5855
100003.5937
100003.594
100003.6092
100003.6082
100003.5783
100003.5477
100003.5271
100003.4875
100003.4992
100003.4971
100003.5145
100003.5673
100003.5432
100003.5447
100003.5288
100003.5321
100003.5412
100003.5526
100003.5554
100003.5401
100003.5107
100003.5107
100003.5211
100003.5397
100003.5482
100003.5545
100003.5621
100003.5683
100003.5732
100003.5578
100003.5672
100003.5712
100003.5738
100003.5785
100003.5894
100003.6089
100003.6033
100003.5832
100003.5737
100003.5438
100003.5237
100003.5105
100003.5133
100003.5349
100003.5662
100003.5408
100003.5378
100003.5161
100003.5205
100003.5272
100003.5386
100003.546
100003.5298
100003.5082
100003.5076
100003.5298
100003.5443
100003.5508
100003.558
100003.5659
100003.575
100003.5815
100003.573
100003.5837
100003.5868
100003.5867
100003.5758
100003.5796
100003.5912
100003.5894
100003.579
100003.5563
100003.5336
100003.5188
100003.5139
100003.5224
100003.5451
100003.5709
100003.5423
100003.5343
100003.5009
100003.4952
100003.5006
100003.5156
100003.5272
100003.5207
100003.5055
100003.5188
100003.5337
100003.5469
100003.5537
100003.5634
100003.5741
100003.5853
100003.5922
100003.5729
100003.5633
100003.5537
100003.589
100003.5655
100003.5677
100003.5864
100003.5832
100003.5689
100003.5523
100003.5355
100003.5297
100003.5331
100003.5475
100003.5687
100003.5783
100003.5465
100003.5358
100003.5031
100003.4847
100003.4797
100003.4924
100003.511
100003.5109
100003.5048
100003.5246
100003.5377
100003.5477
100003.553
100003.5621
100003.572
100003.583
100003.5909
100003.5874
100003.5817
100003.5739
100003.5829
100003.5819
100003.5824
100003.6025
100003.5857
100003.568
100003.551
100003.5408
100003.5436
100003.5555
100003.5737
100003.5941
100003.5865
100003.5555
100003.5405
100003.517
100003.5029
100003.4968
100003.498
100003.5098
100003.5114
100003.5141
100003.5292
100003.5412
100003.5494
100003.5544
100003.563
100003.5707
100003.5803
100003.5878
100003.5878
100003.584
100003.5792
100003.583
100003.5847
100003.5908
100003.5972
100003.5844
100003.5666
100003.5522
100003.5483
100003.5567
100003.574
100003.5942
100003.6136
100003.593
100003.5661
100003.5499
100003.53
100003.5187
100003.5142
100003.514
100003.5175
100003.517
100003.5184
100003.5289
100003.5407
100003.55