/*--------------------------------*- C++ -*----------------------------------*\
  =========                 |
  \\      /  F ield         | OpenFOAM: The Open Source CFD Toolbox
   \\    /   O peration     | Website:  https://openfoam.org
    \\  /    A nd           | Version:  8
     \\/     M anipulation  |
\*---------------------------------------------------------------------------*/
FoamFile
{
    version     2.0;
    format      ascii;
    class       volScalarField;
    location    "0.9";
    object      p_rgh;
}
// * * * * * * * * * * * * * * * * * * * * * * * * * * * * * * * * * * * * * //

dimensions      [1 -1 -2 0 0 0 0];

internalField   nonuniform List<scalar> 
67286
(
100004.0374
100003.9939
100003.9866
100003.9362
100003.8842
100003.8592
100003.8284
100003.8134
100003.7898
100003.7697
100003.7662
100003.7562
100003.7616
100003.7574
100003.7775
100003.7696
100003.7926
100003.8006
100003.8241
100003.8215
100003.8843
100003.8345
100003.9458
100003.846
100003.8693
100003.8608
100003.8613
100003.8797
100004.1377
100004.1235
100004.1914
100004.1338
100004.0035
100004.099
100003.9091
100003.896
100003.8487
100003.8156
100003.8099
100003.8039
100003.8155
100003.8288
100003.8555
100003.7952
100003.793
100003.8052
100003.8392
100003.8514
100003.8841
100003.9036
100004.0008
100003.8849
100003.8974
100003.9068
100003.8377
100004.1822
100003.8688
100003.9473
100003.8601
100003.8622
100004.1871
100004.1759
100004.1823
100004.1112
100004.0292
100003.9923
100003.9525
100003.9211
100003.8937
100003.8817
100003.8878
100003.8632
100003.8662
100003.9108
100004.0218
100003.9859
100003.8711
100003.8055
100003.8435
100003.8232
100003.8321
100003.8353
100003.8687
100003.8516
100003.8657
100003.8586
100003.8827
100003.8924
100003.886
100003.9019
100003.8635
100003.8737
100004.1825
100004.1485
100004.1326
100004.0823
100004.0388
100004.0187
100003.9655
100003.9436
100003.9106
100003.8843
100003.8631
100003.8351
100003.8294
100003.8182
100003.8357
100003.8719
100003.8697
100003.818
100003.8459
100003.8203
100003.8212
100003.8204
100003.8516
100003.8498
100003.8691
100003.8824
100003.8956
100003.9995
100003.9115
100004.3661
100003.9018
100003.945
100003.8674
100004.1301
100004.0868
100004.0713
100004.0323
100003.999
100003.9682
100003.9316
100003.9098
100003.9011
100003.8787
100003.8508
100003.8271
100003.8216
100003.834
100003.8441
100003.8552
100003.8517
100003.843
100003.8426
100003.838
100003.8401
100003.8851
100003.9525
100003.9182
100003.8564
100003.8854
100003.903
100003.8848
100003.904
100003.9177
100003.8904
100003.8879
100003.8727
100004.1369
100004.0484
100004.0472
100003.9869
100003.9609
100004.0012
100003.932
100003.9643
100003.9305
100003.8954
100003.8402
100003.8028
100003.8261
100003.8295
100003.8415
100003.8481
100003.8494
100003.8252
100003.8359
100003.8353
100003.8517
100003.8204
100003.8592
100003.8672
100003.8567
100003.8596
100003.8847
100003.8946
100003.9137
100003.9833
100003.9179
100003.9021
100003.8749
100004.0471
100003.9875
100003.9926
100003.9464
100003.9257
100003.9165
100003.9167
100003.9534
100003.9745
100003.94
100003.8512
100003.7823
100003.8071
100003.8305
100003.8436
100003.8443
100003.8481
100003.8441
100003.8622
100003.8847
100003.9209
100003.9611
100004.0451
100004.4394
100003.8943
100003.9777
100003.9507
100003.8825
100003.8839
100003.8794
100003.876
100003.8721
100003.8599
100004.04
100003.9698
100003.9568
100003.9196
100003.9145
100003.914
100003.8953
100003.9046
100003.9222
100003.8946
100003.8314
100003.7963
100003.8271
100003.8647
100003.8586
100003.8508
100003.8489
100003.8456
100003.848
100003.8564
100003.8675
100003.8679
100003.8907
100003.9444
100003.9103
100003.9128
100003.9383
100003.9403
100003.9652
100004.1972
100003.9329
100003.8893
100003.8775
100004.0422
100003.9552
100003.9234
100003.9092
100003.9274
100003.9294
100003.9068
100003.8811
100003.8531
100003.8261
100003.7927
100003.805
100003.8538
100003.8783
100003.8654
100003.8588
100003.858
100003.8663
100003.8752
100003.8891
100003.9034
100003.9402
100003.9911
100004.0533
100003.9923
100003.9404
100004.0414
100003.8927
100003.9285
100003.8856
100003.8656
100003.8784
100003.9356
100004.0568
100003.9434
100003.918
100003.919
100003.9316
100003.9252
100003.9208
100003.9107
100003.9002
100003.8638
100003.8369
100003.8424
100003.8797
100003.8843
100003.8689
100003.8641
100003.8703
100003.8874
100003.9006
100003.9076
100003.9124
100003.9364
100003.9812
100003.9958
100003.9459
100003.9148
100003.9437
100003.9081
100003.9012
100003.8875
100003.873
100003.9272
100004.0474
100004.0624
100003.9362
100003.9045
100003.9027
100003.9296
100003.948
100003.9572
100003.9521
100003.9203
100003.8835
100003.8421
100003.8555
100003.8857
100003.8845
100003.8753
100003.8853
100003.9098
100003.9308
100003.9357
100003.9367
100003.9382
100003.9513
100003.9853
100004.0314
100003.9915
100003.946
100003.9718
100003.9189
100003.8832
100003.8497
100003.8677
100003.9739
100004.1531
100004.0902
100003.9317
100003.8827
100003.894
100003.9616
100004.009
100004.0063
100003.9944
100003.97
100003.8965
100003.8484
100003.876
100003.8992
100003.8763
100003.8781
100003.8982
100003.9301
100003.9543
100003.9572
100003.9529
100003.9452
100003.9372
100003.9347
100003.9483
100003.9218
100003.8946
100003.9335
100003.9173
100003.8906
100003.8663
100003.8749
100003.9479
100004.0791
100004.0993
100003.9334
100003.8694
100003.8703
100003.9427
100004.0072
100004.0361
100004.0257
100003.9855
100003.8761
100003.8399
100003.8809
100003.8979
100003.8777
100003.8817
100003.9024
100003.9364
100003.9657
100003.9712
100003.9594
100003.9393
100003.9267
100003.9071
100003.9051
100003.8883
100003.9118
100003.9302
100003.9118
100003.8874
100003.8774
100003.8907
100003.9293
100003.9956
100004.0771
100003.9357
100003.8666
100003.8199
100003.8347
100003.883
100003.9372
100003.9923
100003.9462
100003.846
100003.8517
100003.8813
100003.8901
100003.8708
100003.8717
100003.8906
100003.9247
100003.9558
100003.9647
100003.9513
100003.9305
100003.9222
100003.9
100003.8923
100003.9045
100003.9157
100003.9194
100003.9016
100003.8892
100003.896
100003.9232
100003.9572
100003.9909
100004.0388
100003.939
100003.8851
100003.8309
100003.8039
100003.81
100003.8412
100003.8893
100003.8632
100003.8309
100003.8538
100003.8688
100003.8754
100003.8648
100003.8649
100003.8804
100003.9106
100003.9373
100003.9439
100003.9275
100003.9077
100003.9087
100003.9044
100003.9081
100003.926
100003.9245
100003.9126
100003.894
100003.8906
100003.9108
100003.9514
100003.9862
100004.0145
100004.0017
100003.9386
100003.9018
100003.8608
100003.8352
100003.8251
100003.831
100003.8541
100003.8512
100003.8336
100003.8464
100003.8594
100003.8678
100003.8617
100003.8611
100003.8704
100003.8928
100003.9124
100003.9173
100003.9038
100003.901
100003.9133
100003.9213
100003.9322
100003.9376
100003.9294
100003.9095
100003.8942
100003.8973
100003.9294
100003.983
100004.0107
100004.0348
100003.9764
100003.9323
100003.9064
100003.8766
100003.8571
100003.8474
100003.8475
100003.8529
100003.8521
100003.837
100003.8432
100003.8553
100003.8656
100003.8626
100003.8615
100003.8652
100003.8775
100003.8902
100003.8974
100003.8999
100003.9149
100003.9348
100003.9498
100003.9484
100003.9414
100003.9248
100003.9034
100003.8922
100003.9083
100003.9494
100004.0094
100004.0362
100004.0376
100003.9619
100003.9239
100003.9023
100003.8794
100003.8646
100003.8569
100003.8554
100003.855
100003.8529
100003.8419
100003.8421
100003.8535
100003.8658
100003.8666
100003.867
100003.87
100003.8776
100003.8877
100003.9012
100003.9193
100003.9382
100003.9493
100003.9542
100003.9438
100003.9393
100003.9265
100003.905
100003.8831
100003.8768
100003.9546
100004.0685
100004.0561
100004.0488
100003.954
100003.9188
100003.8996
100003.8799
100003.8673
100003.8597
100003.8569
100003.8549
100003.8518
100003.8439
100003.843
100003.8549
100003.8677
100003.8719
100003.875
100003.8807
100003.8903
100003.9031
100003.9158
100003.9243
100003.9266
100003.9202
100003.9178
100003.9188
100003.9221
100003.9153
100003.8973
100003.8748
100003.8994
100004.1253
100004.3057
100004.1532
100004.0663
100003.9515
100003.9188
100003.9015
100003.883
100003.8705
100003.8624
100003.8582
100003.8548
100003.8511
100003.8457
100003.8481
100003.86
100003.8715
100003.8767
100003.8807
100003.8864
100003.8942
100003.9023
100003.9079
100003.9058
100003.8984
100003.8994
100003.9054
100003.9167
100003.9339
100003.9452
100003.9245
100003.8834
100003.8789
100004.2288
100004.5782
100004.1824
100004.0122
100003.9533
100003.9234
100003.9076
100003.8898
100003.8768
100003.8674
100003.8616
100003.8572
100003.8538
100003.8524
100003.8578
100003.868
100003.876
100003.8784
100003.8795
100003.8816
100003.8835
100003.8838
100003.8842
100003.8865
100003.8917
100003.8981
100003.9066
100003.9189
100003.9383
100003.9651
100003.9889
100003.9765
100003.9063
100004.0532
100004.3325
100004.068
100004.0252
100003.9581
100003.9315
100003.9174
100003.9004
100003.8872
100003.8767
100003.8694
100003.8648
100003.8631
100003.8646
100003.87
100003.8758
100003.8781
100003.8759
100003.8725
100003.8695
100003.8707
100003.8778
100003.8881
100003.8992
100003.9091
100003.9177
100003.9254
100003.9338
100003.9472
100003.9703
100004.0004
100004.015
100003.966
100003.9152
100003.8921
100003.9689
100004.0422
100003.9653
100003.9422
100003.9303
100003.9143
100003.9017
100003.8909
100003.8831
100003.8786
100003.8775
100003.8784
100003.8796
100003.8789
100003.875
100003.8688
100003.8647
100003.8673
100003.8777
100003.8925
100003.9079
100003.9219
100003.9334
100003.9419
100003.9477
100003.9522
100003.9591
100003.973
100004.0005
100004.0281
100004.0264
100003.9928
100003.9154
100004.0208
100004.0612
100003.9742
100003.9549
100003.9459
100003.9316
100003.9197
100003.909
100003.901
100003.8958
100003.8928
100003.8895
100003.8846
100003.8779
100003.8707
100003.8664
100003.8693
100003.8803
100003.8962
100003.9142
100003.9318
100003.9471
100003.9588
100003.9668
100003.9713
100003.9734
100003.9762
100003.9823
100004
100004.0247
100004.0504
100004.062
100004.0546
100004.0795
100004.0818
100003.9829
100003.9684
100003.9633
100003.951
100003.9401
100003.9294
100003.9205
100003.9131
100003.9057
100003.8967
100003.8864
100003.8769
100003.8708
100003.8714
100003.88
100003.895
100003.9137
100003.9334
100003.9519
100003.9676
100003.9796
100003.9874
100003.9912
100003.9915
100003.991
100003.9915
100004.0029
100004.0202
100004.0552
100004.0881
100004.1132
100004.1227
100004.1191
100003.9897
100003.9813
100003.9805
100003.9707
100003.9614
100003.9506
100003.9401
100003.9291
100003.9166
100003.9031
100003.8904
100003.8808
100003.8768
100003.8803
100003.8906
100003.9061
100003.9248
100003.9444
100003.9629
100003.9787
100003.9908
100003.9986
100004.0022
100004.0018
100004.0001
100004.0001
100004.0083
100004.0225
100004.0575
100004.0972
100004.1444
100004.1964
100004.1826
100003.997
100003.9926
100003.9957
100003.9888
100003.98
100003.9687
100003.9559
100003.941
100003.9247
100003.9089
100003.8957
100003.8867
100003.8835
100003.8874
100003.8973
100003.9117
100003.9291
100003.9475
100003.9651
100003.9806
100003.9927
100004.001
100004.0052
100004.0052
100004.0044
100004.0062
100004.0143
100004.03
100004.0637
100004.1045
100004.1574
100004.2467
100004.2245
100004.0066
100004.0035
100004.0071
100004.0032
100003.9961
100003.9853
100003.9714
100003.955
100003.9378
100003.9219
100003.9091
100003.9008
100003.8979
100003.9007
100003.9092
100003.9219
100003.9373
100003.954
100003.9702
100003.9848
100003.9966
100004.005
100004.0098
100004.0104
100004.0115
100004.0165
100004.0267
100004.046
100004.0792
100004.1213
100004.171
100004.2512
100004.2377
100004.0122
100004.0087
100004.0124
100004.011
100004.005
100003.9936
100003.9785
100003.9613
100003.9439
100003.9282
100003.916
100003.9085
100003.9064
100003.9096
100003.9178
100003.9298
100003.9442
100003.9597
100003.9746
100003.9881
100003.9993
100004.0075
100004.0127
100004.0141
100004.0179
100004.0267
100004.0391
100004.06
100004.0924
100004.1344
100004.1808
100004.2311
100004.2448
100004.0326
100004.0235
100004.0291
100004.0274
100004.021
100004.0097
100003.9955
100003.9804
100003.9666
100003.9554
100003.9478
100003.9448
100003.947
100003.9542
100003.9657
100003.9804
100003.9969
100004.0136
100004.0293
100004.0429
100004.0537
100004.0613
100004.065
100004.0654
100004.0676
100004.0741
100004.0836
100004.1013
100004.1299
100004.1707
100004.2149
100004.2654
100004.3056
100003.9661
100003.9198
100003.8887
100003.8569
100003.8192
100003.7699
100003.7675
100003.7493
100003.7341
100003.7198
100003.7046
100003.6957
100003.6963
100003.696
100003.6946
100003.7035
100003.706
100003.7485
100003.7664
100003.7584
100003.7494
100003.7911
100003.5953
100003.7643
100003.7604
100003.8109
100003.7913
100003.8103
100004.0668
100004.0306
100004.0108
100003.949
100003.8747
100003.7641
100003.8256
100003.7916
100003.7728
100003.754
100003.7308
100003.7231
100003.7236
100003.7219
100003.6989
100003.6969
100003.7066
100003.7437
100003.7458
100003.758
100003.7057
100003.7311
100003.6247
100003.7566
100003.7789
100003.8227
100003.7724
100003.8764
100003.8337
100003.8536
100003.8371
100003.834
100004.1375
100004.1027
100004.1856
100004.0835
100003.9793
100003.9279
100003.8796
100003.8407
100003.8126
100003.7944
100003.7606
100003.7453
100003.7678
100003.7511
100003.7052
100003.7276
100003.6637
100003.7398
100003.752
100003.7746
100003.7586
100003.7514
100003.6835
100003.7523
100003.7626
100003.7859
100003.7596
100003.8241
100003.8047
100003.8016
100003.831
100003.8325
100004.1058
100004.0521
100004.0512
100004.0105
100003.9571
100003.905
100003.8805
100003.8444
100003.8251
100003.8056
100003.7898
100003.7638
100003.7567
100003.7382
100003.73
100003.6594
100003.723
100003.7528
100003.7743
100003.7678
100003.7411
100003.7267
100003.721
100003.7185
100003.7714
100003.8025
100003.8027
100003.868
100003.7893
100003.9127
100003.8998
100003.8694
100003.8376
100004.0711
100004.0327
100004.0352
100003.9981
100003.9547
100003.9143
100003.8824
100003.8435
100003.818
100003.7914
100003.7654
100003.7553
100003.7726
100003.7648
100003.7759
100003.7738
100003.7865
100003.7828
100003.7689
100003.759
100003.7207
100003.714
100003.7123
100003.6647
100003.7191
100003.7827
100003.7655
100003.8093
100003.8129
100003.8826
100003.8447
100003.8416
100003.8325
100004.0321
100003.9747
100003.9908
100003.9296
100003.903
100003.867
100003.8736
100003.8046
100003.8009
100003.7916
100003.7663
100003.7471
100003.7662
100003.7719
100003.7785
100003.7757
100003.7904
100003.7852
100003.7924
100003.7942
100003.7866
100003.7776
100003.7688
100003.6947
100003.7895
100003.7899
100003.8392
100003.8499
100003.8393
100003.9034
100003.8683
100003.8627
100003.8315
100003.9477
100003.9316
100003.9435
100003.9
100003.8702
100003.8409
100003.8363
100003.8292
100003.8176
100003.779
100003.7378
100003.7239
100003.7456
100003.7848
100003.8063
100003.7992
100003.8074
100003.8107
100003.816
100003.8141
100003.801
100003.721
100003.7312
100003.3415
100003.6563
100003.7303
100003.7678
100003.7983
100003.8082
100003.8031
100003.8201
100003.8122
100003.8017
100003.9227
100003.9096
100003.8985
100003.872
100003.8656
100003.8476
100003.8273
100003.7966
100003.7866
100003.7671
100003.7442
100003.733
100003.7551
100003.8169
100003.8244
100003.8171
100003.8186
100003.8177
100003.8163
100003.8172
100003.8132
100003.8021
100003.805
100003.783
100003.8144
100003.7908
100003.8464
100003.8386
100003.8127
100003.8877
100003.8677
100003.8193
100003.7995
100003.9223
100003.8543
100003.8375
100003.8387
100003.8505
100003.8513
100003.8382
100003.7983
100003.777
100003.7595
100003.7449
100003.7362
100003.78
100003.8386
100003.8308
100003.8271
100003.8315
100003.8501
100003.8442
100003.8445
100003.8416
100003.8431
100003.8415
100003.7847
100003.8375
100003.8381
100003.7816
100003.8581
100003.8295
100003.8239
100003.7861
100003.7773
100003.787
100003.9112
100003.8179
100003.8262
100003.834
100003.8432
100003.8455
100003.8529
100003.8243
100003.7942
100003.7706
100003.7525
100003.7593
100003.8266
100003.8395
100003.8285
100003.8285
100003.8365
100003.8459
100003.8484
100003.8512
100003.8572
100003.8624
100003.866
100003.8543
100003.8463
100003.8268
100003.8553
100003.8446
100003.8189
100003.7989
100003.7838
100003.7806
100003.8039
100003.8952
100003.7996
100003.8136
100003.8227
100003.8476
100003.8816
100003.9057
100003.8929
100003.842
100003.8084
100003.7722
100003.8037
100003.8488
100003.8441
100003.8438
100003.8517
100003.8623
100003.8708
100003.8694
100003.8734
100003.8778
100003.8768
100003.8786
100003.8797
100003.8634
100003.8522
100003.8489
100003.8398
100003.8033
100003.7709
100003.7558
100003.7636
100003.799
100003.8737
100003.7579
100003.7735
100003.7752
100003.7883
100003.8168
100003.8525
100003.8877
100003.8259
100003.7929
100003.7716
100003.809
100003.8399
100003.8314
100003.8446
100003.8555
100003.8709
100003.8828
100003.8806
100003.8813
100003.885
100003.8801
100003.8641
100003.856
100003.8426
100003.8322
100003.84
100003.8522
100003.8219
100003.789
100003.7765
100003.785
100003.8161
100003.8804
100003.7483
100003.7534
100003.7542
100003.7639
100003.7912
100003.8209
100003.8287
100003.8011
100003.7845
100003.7673
100003.8164
100003.8407
100003.8327
100003.8463
100003.8611
100003.8791
100003.8945
100003.8944
100003.8885
100003.8804
100003.8721
100003.8568
100003.8471
100003.8415
100003.8328
100003.861
100003.8645
100003.8383
100003.8148
100003.8067
100003.8175
100003.8375
100003.9126
100003.7781
100003.736
100003.7264
100003.7365
100003.7531
100003.7797
100003.7997
100003.7786
100003.7681
100003.7727
100003.8322
100003.8418
100003.8325
100003.842
100003.8566
100003.8747
100003.8911
100003.8952
100003.8898
100003.8841
100003.8698
100003.8568
100003.8584
100003.8522
100003.8662
100003.8802
100003.8708
100003.8556
100003.8504
100003.8566
100003.8726
100003.889
100003.9447
100003.8421
100003.7705
100003.7219
100003.7194
100003.7339
100003.757
100003.778
100003.7691
100003.7815
100003.8026
100003.8426
100003.8446
100003.8348
100003.839
100003.8525
100003.8685
100003.8824
100003.8857
100003.8788
100003.8724
100003.8647
100003.8633
100003.8679
100003.8689
100003.8926
100003.884
100003.864
100003.8537
100003.862
100003.8844
100003.9122
100003.9334
100003.9548
100003.8908
100003.8373
100003.7796
100003.7494
100003.7477
100003.7645
100003.7793
100003.7799
100003.7977
100003.8165
100003.8428
100003.8479
100003.8386
100003.839
100003.8493
100003.8616
100003.8723
100003.8764
100003.8731
100003.8755
100003.8838
100003.8855
100003.897
100003.9037
100003.9069
100003.8807
100003.8597
100003.8541
100003.8743
100003.9035
100003.9319
100003.9525
100003.9488
100003.9051
100003.8739
100003.8347
100003.808
100003.7939
100003.7947
100003.8
100003.8018
100003.8101
100003.8194
100003.8393
100003.8509
100003.8456
100003.8428
100003.8488
100003.8582
100003.8664
100003.8718
100003.873
100003.8889
100003.9089
100003.9232
100003.9306
100003.9234
100003.9049
100003.8739
100003.8516
100003.8482
100003.8766
100003.9069
100003.9368
100003.9516
100003.9387
100003.9033
100003.8812
100003.8563
100003.8386
100003.827
100003.822
100003.8205
100003.8188
100003.8185
100003.8218
100003.8368
100003.8544
100003.8555
100003.851
100003.8512
100003.8559
100003.864
100003.8736
100003.8862
100003.9099
100003.9234
100003.9267
100003.9241
100003.9208
100003.903
100003.8689
100003.8392
100003.836
100003.8711
100003.898
100003.9665
100003.9679
100003.9318
100003.9006
100003.8822
100003.8632
100003.8499
100003.8411
100003.8355
100003.8315
100003.8276
100003.8244
100003.825
100003.8376
100003.8588
100003.8663
100003.8654
100003.865
100003.868
100003.875
100003.8845
100003.894
100003.8982
100003.8948
100003.8959
100003.9004
100003.9033
100003.8899
100003.845
100003.7936
100003.7652
100003.7866
100003.8066
100003.8967
100003.9365
100003.9304
100003.902
100003.8852
100003.8684
100003.8577
100003.8493
100003.843
100003.8379
100003.8336
100003.8301
100003.83
100003.8425
100003.8635
100003.8729
100003.875
100003.8757
100003.8766
100003.877
100003.8758
100003.872
100003.8694
100003.8722
100003.8778
100003.8852
100003.8924
100003.8876
100003.8026
100003.706
100003.727
100003.7649
100003.7787
100003.779
100003.8054
100003.9345
100003.9084
100003.8922
100003.8752
100003.865
100003.8567
100003.8502
100003.8446
100003.8399
100003.8361
100003.8383
100003.8516
100003.8667
100003.8707
100003.8679
100003.8622
100003.856
100003.8521
100003.8513
100003.8549
100003.8606
100003.867
100003.8739
100003.8809
100003.8889
100003.8955
100003.8637
100003.7644
100003.6487
100003.739
100003.7509
100003.7465
100003.7813
100003.9428
100003.919
100003.9036
100003.8857
100003.8738
100003.8651
100003.8582
100003.8521
100003.8471
100003.8457
100003.8508
100003.8605
100003.8644
100003.8596
100003.852
100003.8468
100003.8468
100003.8503
100003.8562
100003.8628
100003.8698
100003.8769
100003.8837
100003.8899
100003.8958
100003.901
100003.891
100003.8706
100003.6941
100003.6962
100003.7193
100003.7496
100003.8121
100003.9538
100003.9326
100003.9189
100003.9008
100003.8873
100003.8766
100003.8687
100003.8626
100003.8592
100003.8598
100003.8626
100003.8623
100003.8565
100003.8493
100003.8454
100003.8464
100003.851
100003.8581
100003.8667
100003.8756
100003.8841
100003.8916
100003.8978
100003.9031
100003.908
100003.9128
100003.9162
100003.922
100003.8542
100003.7721
100003.6554
100003.8456
100003.8473
100003.9663
100003.9475
100003.937
100003.9206
100003.9067
100003.8945
100003.8855
100003.8794
100003.8762
100003.8735
100003.8683
100003.8603
100003.8529
100003.8486
100003.8493
100003.8537
100003.8615
100003.8715
100003.8822
100003.8924
100003.9013
100003.9084
100003.9139
100003.9181
100003.9222
100003.927
100003.9333
100003.9428
100003.9368
100003.9339
100003.8075
100003.9663
100003.8623
100003.9779
100003.9627
100003.9562
100003.9428
100003.9303
100003.9179
100003.9078
100003.8997
100003.892
100003.8823
100003.8711
100003.8616
100003.8559
100003.8546
100003.8574
100003.8645
100003.8746
100003.8864
100003.8982
100003.909
100003.9181
100003.9251
100003.9301
100003.9337
100003.9373
100003.9425
100003.9509
100003.9622
100003.9827
100004.0115
100003.981
100004.0528
100003.9618
100003.9883
100003.9766
100003.975
100003.9649
100003.9549
100003.9428
100003.9311
100003.9188
100003.905
100003.8902
100003.877
100003.8681
100003.8636
100003.8631
100003.8672
100003.8754
100003.8864
100003.8987
100003.911
100003.9221
100003.9313
100003.9383
100003.9431
100003.9464
100003.9503
100003.9567
100003.9671
100003.9818
100004.0093
100004.0536
100004.0663
100004.1824
100004.0771
100003.9981
100003.9886
100003.9909
100003.9848
100003.9756
100003.9632
100003.9489
100003.9323
100003.9145
100003.8974
100003.8837
100003.8751
100003.871
100003.8713
100003.8761
100003.8846
100003.8958
100003.9082
100003.9206
100003.9318
100003.9412
100003.9483
100003.9533
100003.9568
100003.9616
100003.9693
100003.9817
100003.9999
100004.0315
100004.0825
100004.113
100004.2648
100004.1782
100004.0038
100003.9974
100004.0014
100003.9992
100003.9928
100003.9815
100003.9665
100003.9483
100003.9293
100003.9116
100003.8974
100003.8882
100003.8844
100003.8854
100003.8906
100003.8993
100003.9105
100003.9229
100003.9351
100003.9462
100003.9555
100003.9626
100003.9677
100003.9713
100003.9771
100003.9864
100004.0007
100004.0225
100004.0567
100004.1051
100004.1463
100004.2436
100004.1916
100004.0131
100004.0042
100004.0098
100004.0091
100004.0035
100003.9919
100003.9759
100003.9568
100003.9369
100003.9187
100003.9043
100003.895
100003.8916
100003.8936
100003.9
100003.9098
100003.9217
100003.9343
100003.947
100003.9585
100003.9681
100003.9755
100003.9808
100003.9845
100003.9909
100004.0017
100004.018
100004.0421
100004.077
100004.1229
100004.1627
100004.2074
100004.197
100004.0391
100004.0253
100004.0289
100004.0267
100004.0211
100004.0103
100003.9956
100003.9783
100003.961
100003.9461
100003.9356
100003.9305
100003.9311
100003.9369
100003.9468
100003.9596
100003.974
100003.9887
100004.0025
100004.0143
100004.0237
100004.0304
100004.0345
100004.0359
100004.0406
100004.0499
100004.0636
100004.0851
100004.1171
100004.1597
100004.1998
100004.2303
100004.2372
100003.9439
100003.9075
100003.8861
100003.8654
100003.8425
100003.8105
100003.7749
100003.7538
100003.7338
100003.72
100003.7128
100003.7088
100003.71
100003.7121
100003.7069
100003.7334
100003.746
100003.7621
100003.7702
100003.7917
100003.7877
100003.8182
100003.7711
100003.8171
100003.7883
100003.8112
100003.804
100003.8011
100003.8231
100004.0282
100003.9779
100003.8844
100003.8877
100003.8951
100003.8633
100003.8151
100003.7875
100003.7626
100003.7458
100003.735
100003.7303
100003.729
100003.7306
100003.7292
100003.7347
100003.7747
100003.7711
100003.7708
100003.7947
100003.7671
100003.7834
100003.7641
100003.7947
100003.7881
100003.7869
100003.8085
100003.5178
100003.8441
100003.7824
100003.8242
100003.8205
100004.1498
100004.1522
100004.2001
100004.1671
100004.0012
100003.9397
100003.8731
100003.8288
100003.7987
100003.7781
100003.7602
100003.7474
100003.7407
100003.7409
100003.6726
100003.6676
100003.7398
100003.7712
100003.7825
100003.793
100003.7957
100003.8085
100003.819
100003.815
100003.8081
100003.8149
100003.8279
100003.8265
100003.8717
100003.9998
100003.848
100003.8258
100004.0976
100004.0536
100004.0484
100004.0005
100003.9459
100003.903
100003.8649
100003.8365
100003.8162
100003.7949
100003.7771
100003.7627
100003.7548
100003.7565
100003.7722
100003.792
100003.9453
100003.7857
100003.797
100003.7938
100003.7969
100003.8058
100003.8151
100003.8234
100003.8258
100003.8139
100003.8184
100003.7748
100003.8148
100003.4555
100003.841
100003.8042
100003.8142
100004.0713
100004.0469
100004.0398
100004.0108
100003.953
100003.9107
100003.8742
100003.8456
100003.8234
100003.7989
100003.7811
100003.7716
100003.7581
100003.7636
100003.7686
100003.7864
100003.8087
100003.7958
100003.7973
100003.8032
100003.8163
100003.8091
100003.8453
100003.8182
100003.8413
100003.8183
100003.8315
100003.8337
100003.8439
100003.847
100003.8373
100003.8211
100003.8139
100004.0198
100003.9697
100003.9842
100003.9358
100003.8931
100003.8751
100003.8475
100003.8392
100003.841
100003.8168
100003.7851
100003.7777
100003.7675
100003.7755
100003.7845
100003.8009
100003.8074
100003.8124
100003.8134
100003.8412
100003.8346
100003.8399
100003.8682
100003.8454
100003.8735
100003.8337
100003.847
100003.8355
100003.8187
100003.7628
100003.8374
100003.8289
100003.8167
100003.9611
100003.9284
100003.9338
100003.9106
100003.8879
100003.8691
100003.8477
100003.8374
100003.8217
100003.8027
100003.7841
100003.7766
100003.7797
100003.7903
100003.7979
100003.8086
100003.8191
100003.8347
100003.8312
100003.84
100003.8579
100003.8512
100003.9235
100003.8581
100003.9132
100003.8299
100003.8487
100003.8306
100003.8555
100003.8272
100003.8309
100003.8144
100003.809
100003.9134
100003.8865
100003.8934
100003.88
100003.8773
100003.8692
100003.8565
100003.8345
100003.834
100003.8086
100003.7918
100003.7904
100003.8006
100003.8098
100003.8152
100003.8237
100003.8318
100003.8414
100003.8366
100003.8444
100003.8561
100003.8724
100003.8935
100003.8875
100003.9064
100003.826
100003.8408
100003.8179
100003.8396
100003.5315
100003.8208
100003.7793
100003.8032
100003.8885
100003.8624
100003.871
100003.8646
100003.8669
100003.8638
100003.8535
100003.8332
100003.8176
100003.8073
100003.8025
100003.8061
100003.8153
100003.8271
100003.8345
100003.8515
100003.8685
100003.9302
100003.8663
100003.8633
100003.8662
100003.8777
100003.9185
100003.9028
100004.2006
100003.911
100003.94
100003.8871
100003.8593
100003.8343
100003.8147
100003.8033
100003.8092
100003.8739
100003.8471
100003.8544
100003.8472
100003.8558
100003.8636
100003.8709
100003.8638
100003.8478
100003.8206
100003.8136
100003.817
100003.8308
100003.838
100003.8428
100003.8473
100003.8505
100003.857
100003.852
100003.8626
100003.8838
100003.8872
100003.8954
100003.8957
100003.9109
100003.9099
100003.88
100003.8494
100003.8288
100003.7892
100003.8009
100003.7988
100003.8162
100003.869
100003.8449
100003.8464
100003.8305
100003.8338
100003.8429
100003.8543
100003.8571
100003.8418
100003.8124
100003.8124
100003.8228
100003.8414
100003.8498
100003.8562
100003.8638
100003.87
100003.8749
100003.8594
100003.8689
100003.8729
100003.8754
100003.8802
100003.8911
100003.9106
100003.905
100003.8849
100003.8754
100003.8455
100003.8254
100003.8122
100003.815
100003.8366
100003.8679
100003.8425
100003.8395
100003.8178
100003.8222
100003.8289
100003.8403
100003.8477
100003.8315
100003.8099
100003.8093
100003.8315
100003.846
100003.8525
100003.8597
100003.8676
100003.8767
100003.8832
100003.8747
100003.8854
100003.8885
100003.8884
100003.8774
100003.8812
100003.8929
100003.8911
100003.8807
100003.858
100003.8353
100003.8205
100003.8155
100003.8241
100003.8468
100003.8726
100003.844
100003.836
100003.8026
100003.7968
100003.8023
100003.8173
100003.8289
100003.8224
100003.8072
100003.8205
100003.8354
100003.8486
100003.8554
100003.8651
100003.8758
100003.887
100003.8939
100003.8746
100003.865
100003.8554
100003.8907
100003.8672
100003.8694
100003.8881
100003.8849
100003.8706
100003.854
100003.8372
100003.8314
100003.8348
100003.8492
100003.8704
100003.88
100003.8482
100003.8375
100003.8048
100003.7864
100003.7814
100003.7941
100003.8127
100003.8126
100003.8065
100003.8263
100003.8394
100003.8494
100003.8547
100003.8638
100003.8737
100003.8847
100003.8926
100003.8891
100003.8834
100003.8756
100003.8845
100003.8836
100003.8841
100003.9042
100003.8874
100003.8697
100003.8527
100003.8425
100003.8453
100003.8572
100003.8754
100003.8958
100003.8882
100003.8572
100003.8422
100003.8187
100003.8046
100003.7985
100003.7997
100003.8115
100003.8131
100003.8157
100003.8309
100003.8429
100003.8511
100003.8561
100003.8647
100003.8724
100003.882
100003.8895
100003.8895
100003.8857
100003.8809
100003.8847
100003.8864
100003.8925
100003.8989
100003.8861
100003.8683
100003.8539
100003.85
100003.8584
100003.8757
100003.8959
100003.9153
100003.8947
100003.8678
100003.8516
100003.8317
100003.8204
100003.8159
100003.8157
100003.8192
100003.8187
100003.8201