/*--------------------------------*- C++ -*----------------------------------*\
  =========                 |
  \\      /  F ield         | OpenFOAM: The Open Source CFD Toolbox
   \\    /   O peration     | Website:  https://openfoam.org
    \\  /    A nd           | Version:  8
     \\/     M anipulation  |
\*---------------------------------------------------------------------------*/
FoamFile
{
    version     2.0;
    format      ascii;
    class       surfaceScalarField;
    location    "0.9";
    object      phi;
}
// * * * * * * * * * * * * * * * * * * * * * * * * * * * * * * * * * * * * * //

dimensions      [1 0 -1 0 0 0 0];

internalField   nonuniform List<scalar> 
197358
(
-1.415884302e-05
-7.192504842e-05
2.289769816e-06
-1.78356925e-05
-6.498206199e-05
-5.235594988e-06
-2.323056732e-05
-6.305005612e-05
-1.240083835e-06
-2.731289566e-05
-6.188444338e-05
-1.337423026e-06
-2.847443643e-05
-5.695501398e-05
-5.143584378e-06
-2.232111744e-05
-5.430814798e-05
-1.340266711e-05
-1.50011074e-05
-5.078291892e-05
-1.4927891e-05
-9.432309465e-06
-5.027053265e-05
-1.090707242e-05
-6.111684182e-06
-4.995079589e-05
-7.449797065e-06
-5.628843232e-06
-5.00585688e-05
-3.137003247e-06
-6.905103111e-06
-4.794525308e-05
-7.597998121e-07
-1.024429458e-05
-4.460523482e-05
8.198826644e-07
-1.110068757e-05
-3.805531797e-05
-4.4954469e-06
-5.002291295e-06
-3.679321329e-05
-1.034123707e-05
7.126322762e-06
-3.32965419e-05
-1.665640293e-05
1.133309135e-05
-3.179926239e-05
-3.322083215e-06
7.968715794e-06
-2.700673768e-05
6.687080487e-06
-1.120881799e-06
-1.5570339e-05
1.457247106e-05
-9.131258257e-06
-1.395383938e-05
1.570079228e-05
-1.06782438e-05
-8.202757397e-06
5.784580205e-06
-9.598759354e-06
-4.616698257e-06
4.089414111e-06
6.525462299e-08
8.663728166e-06
2.687092597e-07
1.985320211e-05
2.587079203e-05
-1.198251787e-05
2.057257891e-05
-2.716175376e-06
6.89692461e-06
1.525742414e-05
-8.707790548e-06
1.497229776e-05
7.933082153e-06
-9.032400021e-06
1.685265955e-05
2.773557382e-06
-2.704474263e-05
1.803303409e-05
-2.82729849e-05
9.160170914e-06
-1.523527237e-05
-5.231229179e-05
-4.378844764e-06
-1.833058093e-05
-4.732016606e-05
-1.45679543e-05
-2.390069027e-05
-4.485895804e-05
-1.262237994e-05
-2.829530736e-05
-4.006774423e-05
-1.742280018e-05
-3.656613355e-05
-3.74479111e-05
-1.123702185e-05
-2.30041546e-05
-3.024524645e-05
-3.762479749e-05
-1.238671554e-05
-3.374992749e-05
-2.765103098e-05
-8.860805017e-06
-3.702874199e-05
-1.676800628e-05
-7.259674964e-06
-3.839219534e-05
-1.315995393e-05
-8.350577703e-06
-3.92253152e-05
-9.742527444e-06
-1.023781679e-05
-3.387596803e-05
-1.218218366e-05
-1.442505191e-05
-2.878891667e-05
-1.162920162e-05
-1.680185194e-05
-2.057216143e-05
-1.510646428e-05
-8.367249243e-06
-1.769375573e-05
-2.753422799e-05
1.073478244e-05
-1.27443095e-05
-3.965442439e-05
1.875117882e-05
-2.410341297e-05
-1.57124957e-05
1.534623147e-05
-2.345073389e-05
-1.51202859e-07
3.32139095e-06
-1.494618947e-05
1.140057857e-05
-8.935218872e-06
-1.654008546e-05
1.48427843e-05
-5.897685037e-06
-8.982327269e-06
-2.258063965e-06
7.284213969e-07
-5.935775284e-06
-5.307151229e-06
5.68670215e-06
-5.100635756e-06
8.805898235e-06
2.314909473e-05
-1.553179244e-05
2.394006126e-05
2.228013914e-05
-1.870910037e-05
1.686156815e-05
1.192659572e-05
-2.095070711e-05
2.259617921e-05
3.391985541e-06
-1.504736046e-05
1.454917147e-05
6.996528678e-07
-2.816042917e-05
3.807760141e-06
4.777809622e-06
-2.133459439e-05
-1.101708046e-05
4.92878538e-06
-2.667136174e-05
-4.247932269e-06
4.305043777e-06
-3.383328502e-05
5.456588215e-07
-9.784231559e-07
-3.298855702e-05
4.348080423e-06
-3.409782402e-05
2.825309179e-06
-1.518080937e-05
-2.672537948e-05
-1.040751254e-05
-1.597243124e-05
-2.378316962e-05
-2.274676062e-05
-1.807356177e-05
-2.270940808e-05
-2.004979148e-05
-2.336713471e-05
-2.027515981e-05
-1.45001527e-05
-2.749430214e-05
-1.915628887e-05
-1.416538509e-05
-2.328932985e-05
-1.634294072e-05
-1.810798616e-05
-1.889473218e-05
-1.768318502e-05
-2.046189375e-05
-1.49568398e-05
-2.239734538e-05
-1.856965578e-05
-1.296112908e-05
-2.412648611e-05
-1.62616727e-05
-1.372288879e-05
-2.306083511e-05
-1.540290115e-05
-8.40714291e-06
-9.592159976e-06
-2.959964952e-05
-4.096169952e-06
-4.039030807e-06
-2.906096247e-05
-1.087518828e-05
-3.656899816e-06
-1.013640979e-05
-9.165336498e-06
4.462655943e-06
-2.386652383e-05
2.797382409e-06
9.028608281e-06
-3.373604208e-05
1.336138905e-05
-8.233805487e-07
-3.384445221e-05
2.086506287e-05
-6.670523295e-06
-2.428388746e-05
1.377487986e-05
-1.538286031e-05
7.526719385e-06
1.154253009e-05
-2.001946327e-05
5.711696185e-06
7.434225236e-06
-2.293198577e-05
1.805786139e-05
-1.395496942e-06
-1.910436272e-05
2.199816581e-05
4.171715642e-07
-2.011784502e-05
1.32043568e-05
1.326684535e-05
-3.562382765e-05
7.242101402e-06
1.235227515e-05
-3.260653715e-05
1.481172224e-05
-4.813872467e-06
-3.005265363e-05
2.626781496e-05
-8.816832802e-06
-1.791482837e-05
6.87011698e-06
5.211638227e-06
-1.718764315e-05
-2.500141887e-05
6.658767849e-06
-1.633179792e-05
-6.450089569e-06
6.290120961e-06
-1.679137764e-05
-9.511552853e-06
7.241976502e-06
-3.059463913e-05
-4.190853854e-06
1.120610248e-06
-3.026519005e-05
3.397683905e-06
-3.398148416e-05
2.218237886e-06
-1.100870918e-05
-7.394475991e-06
-8.323524466e-06
-1.277242693e-05
1.472354591e-06
-2.349311047e-05
-1.541817449e-05
-2.367503763e-07
-1.982812813e-05
-2.300850846e-05
3.357941227e-07
-1.302166505e-05
-2.792389662e-05
-2.230863117e-06
-1.201088083e-05
-2.413310131e-05
-6.671158003e-06
-1.34632068e-05
-2.044263352e-05
-5.430634001e-06
-1.594350768e-05
-1.362153766e-05
-1.415902884e-05
-1.505975697e-05
-4.882182652e-06
-1.679985e-05
-1.606622947e-05
3.913079539e-06
-1.792097573e-05
-1.393528609e-05
6.376098364e-06
-2.687246954e-06
-9.368057672e-06
1.800816527e-06
8.19045011e-06
-7.654309933e-06
-3.486347814e-06
7.085802781e-06
-5.455653535e-06
-3.410966716e-06
1.028164537e-05
-5.894528117e-06
4.181736309e-07
1.022663623e-05
-5.027229859e-06
9.060024815e-06
3.336574197e-06
-1.280126496e-05
1.654943607e-05
-3.975500428e-06
-1.018431021e-05
6.653068476e-06
-2.424778425e-05
1.876120706e-05
-5.157282657e-06
-2.815258385e-05
1.994344881e-05
-1.36548539e-05
-3.247546727e-05
1.804095259e-05
-1.90922866e-05
-2.798394936e-05
1.431687151e-05
-1.077913519e-05
-2.412000141e-05
-4.311205216e-06
1.317532136e-05
-2.760987704e-05
-3.196862691e-05
1.779134662e-05
-3.810918882e-05
8.863140485e-07
-2.770244541e-06
-3.152180277e-05
2.203043144e-05
-1.239350169e-05
-1.76582673e-05
9.366359473e-06
-2.872365979e-06
-1.358952573e-05
-1.311950215e-05
-2.361817963e-06
-4.528726108e-06
-1.23138468e-05
-6.783039431e-07
-4.80214926e-06
-1.367286754e-05
1.084152127e-05
-1.107090021e-05
-3.104429852e-05
4.225015588e-06
-2.515869878e-05
1.50955601e-06
-1.700323533e-06
-2.951325928e-05
1.456815433e-06
-3.961937243e-05
6.032992437e-06
-1.663246178e-05
9.677716064e-06
-4.409881507e-07
-2.382601866e-05
2.036452343e-05
-1.169983846e-05
-3.021399872e-05
1.418848975e-05
-8.038373059e-06
-3.300914902e-05
1.223951562e-05
-9.109515907e-06
-3.169311352e-05
7.914553885e-06
-1.14622048e-05
-2.85074911e-05
2.522228496e-06
-1.237957848e-05
-2.439997451e-05
4.159355059e-06
-1.369793427e-05
-1.531310685e-05
-8.331610209e-06
-1.491459301e-05
-1.505744198e-06
-1.712035347e-05
-1.348705961e-05
1.590893383e-05
-2.150263136e-05
-1.383313994e-05
2.55820258e-05
-1.041596672e-05
-1.944447986e-06
1.874041595e-05
7.177668659e-06
7.854330922e-06
6.083240982e-06
1.516109783e-05
4.581805312e-06
3.173538498e-06
1.069386326e-05
2.497382434e-06
4.831870862e-06
3.167073738e-06
5.401118309e-06
5.805286859e-06
-8.345402391e-06
1.070854875e-05
-1.789320663e-06
-1.823094586e-05
2.18500193e-05
-1.395059538e-05
-2.820761853e-05
1.612105862e-05
-2.12178242e-05
-2.837948503e-05
7.494087449e-06
-3.250304488e-05
-2.802237839e-05
6.832037725e-06
-3.959221222e-05
-2.207572743e-05
1.180810627e-06
-2.270234209e-05
-1.46506125e-05
-2.635938486e-05
1.513642761e-05
8.104968574e-06
-7.355358443e-05
3.263683606e-05
-4.654994522e-05
-9.059850753e-06
1.039213419e-05
-2.288868151e-05
1.36112781e-05
-3.716793548e-06
-1.718501862e-05
1.363535741e-05
9.958147889e-06
-3.328369775e-06
-2.393631946e-05
1.056823138e-05
-1.38400753e-06
-3.755010923e-06
1.221620653e-06
-2.964340361e-06
7.508549012e-06
-5.193321671e-06
-9.976185822e-06
5.319845569e-06
-8.824083675e-06
-2.24347605e-05
9.064884873e-07
-9.000230371e-06
-2.964262748e-05
3.052884714e-07
-4.202604042e-05
6.168010541e-06
-1.245506774e-06
4.225024456e-05
-3.132801067e-05
-4.17439116e-06
3.324515839e-05
-9.952802516e-06
-2.325454076e-05
2.443811884e-05
8.829584819e-06
-2.631351441e-05
1.851103508e-05
-3.213342439e-06
-1.420214731e-05
1.696621236e-05
-2.116366529e-05
-7.345503717e-06
2.023845754e-05
-2.457328693e-05
2.06055359e-06
1.595575859e-05
-2.120282344e-05
2.338553245e-05
1.167161491e-05
-4.132832507e-05
2.065842342e-05
-6.56834231e-07
-1.3736511e-05
2.174645286e-05
-7.584629429e-06
-1.500607308e-05
2.616246855e-05
-1.389026015e-06
-1.344295909e-05
1.75700029e-05
1.166682715e-05
4.103315243e-06
3.660158867e-07
2.033712426e-05
1.202796097e-05
-1.425973506e-05
1.272718967e-05
1.259240537e-05
-1.462366012e-05
-4.660310099e-06
8.191285946e-06
-8.988033618e-06
-1.245000779e-05
-1.531016465e-06
-1.378570508e-05
-2.339621571e-05
9.962945621e-06
-1.979656434e-05
-2.534586761e-05
3.149083899e-06
-1.742817433e-05
-2.270732795e-05
-8.040593954e-06
-1.583735335e-05
-2.269359178e-05
-6.919711025e-06
-1.398579781e-05
-1.896692965e-05
-4.960513233e-06
-6.772755377e-06
-2.181191009e-05
-5.198174038e-08
3.750984388e-06
1.174941818e-06
-3.59399337e-06
7.735842334e-06
-3.918551852e-05
-1.134986362e-05
6.356013118e-06
-1.878383453e-05
-2.72539881e-06
-8.047019367e-06
-2.330055952e-05
2.051817329e-05
-1.70897839e-05
-1.380289573e-05
1.951696094e-05
-2.091543737e-05
-1.263425714e-05
1.507557913e-05
-2.126816455e-05
-1.639417855e-05
1.378227955e-05
-1.81053814e-05
-1.697266398e-05
3.833302386e-06
-1.862490987e-05
-2.271612852e-05
8.006401737e-07
-1.811677984e-05
-3.159133715e-05
1.440381264e-06
-4.499792805e-05
5.098425787e-06
-9.845266103e-06
5.754222591e-05
-5.44763689e-06
-2.063450086e-05
3.301722199e-05
1.101628272e-05
-3.439219944e-05
2.098921853e-05
1.720581619e-05
-3.791656029e-05
1.102463551e-05
1.101012177e-05
-3.702662137e-05
1.199386248e-05
4.081922227e-06
-3.822948621e-05
2.245648786e-05
-1.015509547e-06
-3.853272108e-05
2.504560267e-05
-8.786837548e-06
-2.912777531e-05
2.8041218e-05
-2.577464873e-05
-1.497722887e-05
2.296247788e-05
-3.776984855e-05
5.045754757e-06
1.695081742e-05
-4.455835451e-05
2.165863602e-05
1.743871278e-05
-3.544053286e-05
2.275499689e-05
2.089902638e-05
-1.032846918e-05
1.160739906e-05
2.18863137e-05
9.598488888e-06
-6.216857491e-06
9.51837558e-06
2.103313497e-05
-1.961566121e-05
-1.084746927e-05
1.958601799e-05
-2.395434959e-05
-1.554658572e-05
7.435317014e-06
-2.6549168e-05
-2.201223819e-05
1.210888261e-06
-2.870285745e-05
-2.295321178e-05
-2.38953622e-07
-2.555510834e-05
-1.878530019e-05
-7.069789014e-06
-2.208111396e-05
-1.636191967e-05
-9.805727643e-06
-2.396831236e-05
-1.241478358e-05
-4.665046563e-06
-3.975340046e-05
-2.051709521e-05
1.449015326e-05
-2.973700344e-05
-1.547132228e-05
6.629468479e-06
3.162712008e-05
7.087545781e-06
-0.0001076370069
2.601271853e-05
-1.864695856e-05
5.477047395e-06
-7.872607451e-06
-1.723332601e-05
2.78178513e-05
-1.613932133e-05
-2.367801805e-05
1.814156157e-05
-2.367198894e-05
-1.603278425e-05
1.093088192e-05
-2.728645852e-05
-1.906984476e-05
6.289860883e-06
-3.093295998e-05
-2.430723605e-05
1.09808397e-05
-3.343046334e-05
-2.871867294e-05
8.499831017e-06
-3.258366135e-05
-3.755607176e-05
5.117758766e-06
-4.876587881e-05
1.251659087e-06
-1.453797681e-05
5.176057485e-05
2.031894019e-05
-3.105058796e-05
2.7265721e-05
2.226345124e-05
-4.315385981e-05
1.584459093e-05
1.724733212e-05
-4.624743175e-05
6.613261048e-06
7.504498294e-06
-4.30865718e-05
6.902269615e-06
1.930412943e-06
-3.966227077e-05
1.786314055e-05
1.168853178e-06
-3.865420372e-05
2.799327346e-05
-3.955834236e-06
-2.96121669e-05
3.413914061e-05
-1.513995061e-05
-1.219833758e-05
3.28543822e-05
-2.730563006e-05
7.446454546e-06
2.802128952e-05
-3.071510523e-05
2.158478252e-05
2.560654174e-05
-2.230599048e-05
2.184853131e-05
2.545630475e-05
-4.820857847e-06
1.05878922e-05
2.048970217e-05
1.265741879e-05
-7.180173925e-06
8.151800387e-07
2.647141418e-05
-2.191564301e-05
-1.528516814e-05
1.91733022e-05
-2.830374409e-05
-2.032737123e-05
1.116900618e-05
-3.090568306e-05
-2.46987147e-05
5.288512634e-06
-3.131301004e-05
-2.650594721e-05
3.960119651e-06
-2.83935474e-05
-2.340003868e-05
1.69528922e-06
-2.384769168e-05
-1.97433616e-05
-1.164459651e-06
-2.079381302e-05
-1.546422375e-05
-4.557369955e-09
-2.12207548e-05
-1.831973644e-05
-1.770599351e-06
-1.574296026e-05
-1.476843806e-05
-6.180952707e-06
-2.728695043e-06
1.26603827e-06
-7.19310798e-06
-1.595122297e-05
-1.936365474e-05
1.393887598e-05
-3.33929194e-05
-1.155898994e-05
1.176696804e-05
-2.582289099e-05
-4.707340416e-06
-2.654106515e-05
-2.220989355e-05
-5.047719044e-06
-1.459843975e-05
-2.520172931e-05
-4.944499522e-06
-1.113372396e-05
-2.745530841e-05
-1.560162959e-05
-6.452459965e-06
-3.916420591e-05
-2.568153186e-05
8.671522033e-06
-4.119431951e-05
-3.637204468e-05
8.458674213e-07
-4.689290549e-05
-6.751658156e-06
-2.45038103e-05
4.202679568e-05
3.423716698e-05
-4.341720435e-05
2.921099123e-05
1.696772945e-05
-4.949554274e-05
2.361602169e-05
-1.693417786e-06
-4.5397628e-05
1.931397344e-05
-1.679886894e-05
-3.589781638e-05
1.780155891e-05
-2.039924908e-05
-2.730979593e-05
2.166137294e-05
-1.238630949e-05
-2.565265973e-05
2.829776705e-05
-1.961576814e-06
-2.001889672e-05
3.077276944e-05
-2.267263548e-06
-5.157458819e-06
2.907332188e-05
-1.108019947e-05
1.072643585e-05
2.649921316e-05
-1.436160325e-05
1.830693851e-05
2.531391382e-05
-7.287643311e-06
1.615462387e-05
2.266282693e-05
4.946042073e-06
4.038453084e-06
1.269586777e-05
1.991025288e-05
-1.389871606e-05
-7.351500188e-06
2.610407662e-05
-2.885327657e-05
-1.632766869e-05
1.599727115e-05
-3.603351223e-05
-2.165649067e-05
8.509541954e-06
-3.798105865e-05
-2.499722119e-05
2.246204582e-06
-3.637934591e-05
-2.535239534e-05
-2.755164944e-06
-3.273544368e-05
-2.153646661e-05
-5.507416567e-06
-3.006535199e-05
-1.515420745e-05
-7.25924903e-06
-3.044466396e-05
-8.012923932e-06
-7.072063476e-06
-2.899690793e-05
-2.891618525e-06
-1.687601699e-05
-1.756159402e-05
-1.10699226e-06
-2.509695905e-05
5.406314509e-06
-2.977441711e-06
-1.872457783e-05
1.486808727e-06
-9.621186541e-06
-5.823199705e-06
-1.606411336e-05
-8.625103332e-06
1.461663899e-05
-1.651245299e-05
7.518287521e-06
-1.177714005e-05
-3.190065615e-05
-8.579239242e-06
1.891934384e-05
-4.348235312e-05
-6.09564938e-06
1.273259935e-05
-5.048408718e-05
-1.547719061e-05
6.876984166e-06
-5.372589417e-05
-2.239077436e-05
-4.945711951e-08
-5.092892195e-05
-2.99640509e-05
-9.205207893e-06
-3.680431048e-05
-2.071858478e-05
-3.505988315e-05
4.002948292e-05
3.705703605e-05
-5.361376237e-05
3.410070012e-05
1.366403156e-05
-5.697549211e-05
2.888500885e-05
-1.907345537e-06
-4.847916566e-05
2.122746542e-05
-1.040983655e-05
-3.316194274e-05
1.283086789e-05
-1.034647223e-05
-1.940912525e-05
1.120705573e-05
-3.298389141e-06
-1.820367041e-05
1.88188974e-05
8.27359034e-06
-1.561147877e-05
1.836134218e-05
9.819468469e-06
1.852159474e-06
7.274500303e-06
4.335454434e-06
1.709537132e-05
1.559894944e-05
-4.342654871e-06
2.072055594e-05
1.985257514e-05
1.836461782e-06
1.282138204e-05
1.632010237e-05
1.424221693e-05
-4.353651664e-06
4.855375992e-06
2.501583117e-05
-2.229309541e-05
-7.288768465e-06
1.787700443e-05
-3.395141388e-05
-1.249438887e-05
7.825317255e-06
-3.893576541e-05
-1.645613317e-05
-2.157519669e-07
-3.881646307e-05
-1.848065989e-05
-6.635644327e-06
-3.591121465e-05
-1.768752769e-05
-1.056993999e-05
-3.349507724e-05
-1.346895817e-05
-1.048351342e-05
-3.458154104e-05
-5.509615836e-06
-8.558051094e-06
-3.854631989e-05
5.498542692e-06
-9.54668389e-06
-3.766924063e-05
1.393001984e-05
-1.769879912e-05
-2.533984111e-05
1.622403013e-05
-2.966057868e-05
-3.02577687e-06
1.161906198e-05
-3.691078776e-05
1.281528413e-05
3.479590318e-06
-2.894209413e-05
3.537136133e-06
8.879402279e-07
-2.35241806e-07
-1.920543849e-05
3.352595576e-06
2.690793527e-05
-3.929837463e-05
-8.931598752e-06
2.044492398e-05
-5.003323425e-05
-7.291988324e-06
1.193088157e-05
-5.758247991e-05
-9.180806208e-06
1.252530668e-06
-6.014238176e-05
-9.932559892e-06
-9.898613324e-06
-5.452043245e-05
-1.114068841e-05
-2.444554167e-05
-1.147703241e-05
-4.10480887e-05
-3.871993138e-05
4.151512589e-05
3.723435048e-05
-5.703981299e-05
3.901399714e-05
1.34066656e-05
-6.263484144e-05
3.47020971e-05
-2.219534129e-07
-5.955424013e-05
2.61622019e-05
-8.01519569e-06
-4.977084504e-05
1.618115359e-05
-1.313348199e-05
-3.512873021e-05
1.156968508e-05
-1.500449724e-05
-2.159253404e-05
1.346121119e-05
-8.178225913e-06
-5.492423165e-06
-4.150264889e-07
2.676580078e-06
1.253693778e-05
-1.022636925e-05
-5.281544513e-07
2.451029112e-05
1.074772138e-05
-7.121782976e-06
2.434530472e-05
1.496326083e-05
5.054652152e-06
1.265796945e-05
1.042483044e-05
1.758296275e-05
-7.957100038e-06
5.267414782e-06
2.020337613e-05
-2.667263543e-05
3.401558745e-06
8.02554998e-06
-3.624491825e-05
3.755723095e-07
-3.297349269e-06
-3.878563576e-05
-2.084485901e-06
-1.183062378e-05
-3.56227951e-05
-3.547960518e-06
-1.809526257e-05
-3.010008754e-05
-3.61965219e-06
-1.95903393e-05
-2.828365649e-05
-2.014643332e-06
-1.32705449e-05
-3.410578849e-05
2.952358756e-06
-2.639698517e-06
-4.355423565e-05
1.265339109e-05
2.293672456e-06
-4.644547019e-05
2.073301676e-05
-3.911776546e-06
-3.657393929e-05
2.360654006e-05
-1.725413514e-05
-1.554736969e-05
2.063024515e-05
-3.003789441e-05
4.078651607e-06
1.623405506e-05
-3.238069466e-05
-4.840134848e-07
1.374338483e-05
-8.293059991e-06
-2.473889751e-05
9.183235322e-06
1.842399359e-05
-4.835015782e-05
4.384097142e-06
1.029523914e-05
-6.590564082e-05
3.286032874e-06
6.97714361e-06
-7.518951245e-05
4.050121072e-06
-3.947343447e-06
-7.375717204e-05
7.074028507e-06
-1.843919864e-05
-6.129661778e-05
1.246443634e-05
-3.60658875e-05
1.871273172e-05
-5.415913047e-05
-4.653408268e-05
4.951824328e-05
3.853121801e-05
-6.805214298e-05
4.821242604e-05
1.231990613e-05
-7.518280545e-05
4.73141928e-05
-5.481139319e-06
-7.176390614e-05
4.482778237e-05
-2.208415665e-05
-5.930886423e-05
4.075308452e-05
-3.702659918e-05
-3.914584171e-05
3.543866352e-05
-4.403161384e-05
-1.667804747e-05
2.720638835e-05
-3.621259224e-05
-6.015366681e-06
9.940112782e-06
-2.101744191e-05
4.217546154e-06
1.016330958e-05
-3.062218039e-05
2.128570284e-05
2.239272997e-05
-2.871277462e-05
1.937180449e-05
2.050612159e-05
-3.628581068e-06
-3.494283576e-06
1.466905975e-05
1.862223045e-05
-2.572731469e-05
1.379719533e-05
1.370362547e-05
-3.759866696e-05
1.510395568e-05
1.693313849e-07
-4.251075287e-05
1.41723275e-05
-8.884304698e-06
-4.179658133e-05
1.270007087e-05
-1.549838193e-05
-3.581996503e-05
1.129580904e-05
-2.082006135e-05
-2.657505581e-05
1.044435543e-05
-2.330862024e-05
-1.939596315e-05
1.042820277e-05
-1.962168232e-05
-2.061489562e-05
1.272375198e-05
-8.552263436e-06
-3.037327209e-05
2.022183923e-05
2.190077285e-06
-3.779466191e-05
2.661003256e-05
1.544453551e-06
-3.28937068e-05
2.884016188e-05
-1.013459142e-05
-1.584123894e-05
2.670028355e-05
-2.312260549e-05
7.546980167e-07
2.215188081e-05
-2.251393292e-05
4.743513015e-06
1.543312993e-05
-5.678820018e-06
-1.268480584e-05
1.560862721e-05
1.100265442e-05
-4.104753655e-05
1.405359531e-05
1.869292739e-05
-6.095965132e-05
1.149191362e-05
1.170592012e-05
-7.117571443e-05
1.224797992e-05
2.017896682e-06
-7.223344544e-05
1.693831175e-05
-8.806837096e-06
-6.231579693e-05
2.551105597e-05
-2.296451397e-05
3.544306116e-05
-3.850129927e-05
-4.892486492e-05
5.835360421e-05
4.00898509e-05
-7.340867593e-05
5.704495524e-05
1.565165853e-05
-8.21987296e-05
5.884481634e-05
-2.740179433e-06
-7.934677744e-05
6.040866085e-05
-1.843243221e-05
-6.703144577e-05
5.980205012e-05
-3.136386282e-05
-4.913478134e-05
5.583283632e-05
-3.829038188e-05
-3.248542729e-05
4.849607834e-05
-3.793858842e-05
-2.083458242e-05
3.900191987e-05
-4.071221989e-05
5.905148889e-07
3.517621366e-05
-4.643759229e-05
2.24901731e-05
3.122566548e-05
-3.073220673e-05
1.918417103e-05
2.520020539e-05
-1.38770488e-06
-7.472804987e-06
2.296307898e-05
1.836333339e-05
-3.150329013e-05
2.338663614e-05
1.444142608e-05
-4.272661398e-05
2.372147171e-05
2.606193576e-06
-4.668794184e-05
2.345003599e-05
-5.316001174e-06
-4.470829781e-05
2.233741659e-05
-1.161662292e-05
-3.718623654e-05
2.112721245e-05
-1.735311482e-05
-2.553037932e-05
2.045248606e-05
-2.166366128e-05
-1.352945446e-05
2.032825725e-05
-2.190068815e-05
-7.004021382e-06
2.158660509e-05
-1.538805478e-05
-1.159218906e-05
2.741479837e-05
-2.604628329e-06
-1.962624776e-05
3.265424541e-05
1.989976386e-06
-1.926076033e-05
3.412295039e-05
-5.648235497e-06
-1.043567874e-05
3.181666385e-05
-1.394151979e-05
-2.610631202e-06
2.416500493e-05
-9.838318704e-06
-8.860261499e-06
1.650084151e-05
5.181703216e-06
-3.079250574e-05
1.766484391e-05
1.987576627e-05
-5.125997155e-05
1.487426134e-05
1.964650471e-05
-6.359703852e-05
1.059142124e-05
1.323724837e-05
-6.887027746e-05
1.005445809e-05
7.466449172e-06
-6.74128324e-05
1.46762622e-05
8.043035864e-07
-5.821734756e-05
2.452706615e-05
-8.211774818e-06
3.669688608e-05
-1.918644836e-05
-4.333866368e-05
6.143009571e-05
4.02625415e-05
-6.784258804e-05
5.866338386e-05
2.288589826e-05
-7.859557074e-05
6.224439743e-05
7.353814396e-06
-7.867415973e-05
6.627132898e-05
-5.783669208e-06
-7.093598701e-05
6.813275755e-05
-1.606848884e-05
-5.829804038e-05
6.601137091e-05
-2.281609506e-05
-4.362678581e-05
6.035459218e-05
-2.652937965e-05
-2.535221607e-05
5.23501893e-05
-3.162242607e-05
2.192497006e-06
4.447650381e-05
-3.684461567e-05
2.131563917e-05
2.974191816e-05
-1.763904152e-05
1.242791008e-05
2.588611211e-05
8.202175497e-06
-1.289877641e-05
2.878386465e-05
1.950624614e-05
-3.451884482e-05
3.033238211e-05
1.467468263e-05
-4.566000765e-05
3.005404457e-05
4.808962118e-06
-4.936684913e-05
2.982300813e-05
-2.665757863e-06
-4.654389473e-05
2.867715988e-05
-9.162332798e-06
-3.798212768e-05
2.763959186e-05
-1.507379341e-05
-2.512483209e-05
2.738575988e-05
-1.979023513e-05
-1.103866022e-05
2.7677729e-05
-2.14353413e-05
-3.60630611e-07
2.878999665e-05
-1.788117054e-05
8.796321607e-07
3.339824463e-05
-7.223513224e-06
-4.63577208e-06
3.81749991e-05
-5.135602826e-09
-7.832335329e-06
3.886871358e-05
-1.549130578e-06
-7.393445171e-06
3.419245671e-05
-2.814724053e-06
-1.040478146e-05
2.584941552e-05
1.326797912e-06
-2.665555489e-05
1.68244237e-05
1.592699376e-05
-4.644633521e-05
1.541712489e-05
2.203824538e-05
-5.911456743e-05
1.073850119e-05
1.680369878e-05
-6.531929028e-05
5.616602744e-06
1.117922563e-05
-6.584308566e-05
3.472357716e-06
7.105570981e-06
-6.088411965e-05
5.914441725e-06
3.802533614e-06
-5.100199111e-05
1.515966171e-05
-5.150323865e-07
2.689285996e-05
-6.056490581e-06
-3.345491644e-05
5.780975349e-05
3.707560724e-05
-5.508388641e-05
5.255408066e-05
2.773864582e-05
-6.733321332e-05
5.637176097e-05
1.812234011e-05
-7.066400118e-05
6.185604888e-05
7.746447826e-06
-6.667819325e-05
6.513776168e-05
-9.904464744e-07
-5.78411794e-05
6.415084413e-05
-6.976145803e-06
-4.499866328e-05
6.019592098e-05
-1.268352376e-05
-2.762874367e-05
5.473929159e-05
-1.975870062e-05
-2.863306761e-06
4.464073822e-05
-2.492936118e-05
9.677487797e-06
2.357447998e-05
-6.373071153e-06
-1.260847012e-06
2.621194606e-05
1.061278335e-05
-1.981971553e-05
3.103798092e-05
1.630504179e-05
-3.657065971e-05
3.329823945e-05
1.378540289e-05
-4.635529946e-05
3.367437763e-05
6.164641035e-06
-4.92981564e-05
3.394011662e-05
-1.173909474e-06
-4.578593732e-05
3.31422884e-05
-7.977008593e-06
-3.670655819e-05
3.248751947e-05
-1.392697562e-05
-2.361795317e-05
3.254205812e-05
-1.824458833e-05
-9.233182268e-06
3.278972737e-05
-1.949648478e-05
2.383252209e-06
3.322058127e-05
-1.604678623e-05
5.052497084e-06
3.541069461e-05
-4.681525572e-06
1.30584055e-06
3.710245095e-05
4.819317567e-06
-3.034096668e-06
3.755647307e-05
5.652217679e-06
-6.715117518e-06
2.925297232e-05
8.620453685e-06
-1.683127682e-05
2.35676917e-05
1.239775972e-05
-3.68361039e-05
1.509731499e-05
2.173173755e-05
-5.254246117e-05
1.266019895e-05
1.846302286e-05
-6.052556123e-05
7.471918103e-06
1.124937529e-05
-6.276028456e-05
2.329668152e-06
5.521317116e-06
-5.943612787e-05
-1.569588141e-06
1.717428542e-06
-5.092949828e-05
-2.415463762e-06
-1.770936081e-07
-4.076462126e-05
6.58564339e-06
-1.591228626e-06
1.50952777e-05
-2.637249473e-06
-2.321394539e-05
4.968971827e-05
3.133428091e-05
-4.028591344e-05
4.396596038e-05
2.56603924e-05
-5.226034502e-05
4.725361372e-05
2.10928748e-05
-5.794577665e-05
5.22948308e-05
1.524694073e-05
-5.708891525e-05
5.556648033e-05
8.714701884e-06
-5.110180208e-05
5.568784263e-05
2.47615538e-06
-4.065068884e-05
5.367041125e-05
-3.925352203e-06
-2.532532621e-05
5.072704168e-05
-1.131287183e-05
-7.475734848e-06
4.229259394e-05
-1.550120899e-05
-1.245762923e-06
2.307353174e-05
-5.728818093e-06
-7.902011415e-06
2.82298022e-05
4.638597702e-06
-2.064417635e-05
3.223619645e-05
1.154416987e-05
-3.508974977e-05
3.452310835e-05
1.322095681e-05
-4.41991027e-05
3.526926573e-05
7.514739343e-06
-4.678531552e-05
3.603323233e-05
4.933835391e-07
-4.334418591e-05
3.582475542e-05
-6.123308907e-06
-3.472976378e-05
3.552743549e-05
-1.165405688e-05
-2.266661076e-05
3.559938534e-05
-1.512021363e-05
-1.007095606e-05
3.543150885e-05
-1.523719853e-05
-1.139558454e-07
3.412347001e-05
-1.085970019e-05
2.053753583e-06
3.162026029e-05
1.622850231e-06
-1.906013556e-07
2.830492367e-05
1.104193784e-05
-2.829266603e-06
2.521229146e-05
1.498283968e-05
-9.092081206e-06
1.54841109e-05
2.003159039e-05
-2.338364435e-05
1.619338858e-05
2.166571743e-05
-4.172005616e-05
1.261334147e-05
2.082016289e-05
-5.390250461e-05
1.101093548e-05
1.383142634e-05
-5.998130719e-05
6.961331542e-06
6.589052057e-06
-6.044333677e-05
1.759667267e-06
1.031654346e-06
-5.415396981e-05
-5.369346332e-06
-2.490020375e-06
-4.114998365e-05
-1.157024661e-05
-3.849632323e-06
-2.993042835e-05
2.171496054e-06
-6.80588243e-06
8.536411671e-06
-6.785199095e-06
-1.725106888e-05
4.134332448e-05
2.559769085e-05
-3.118914702e-05
3.847451207e-05
1.942974572e-05
-4.122419685e-05
4.142818744e-05
1.58606794e-05
-4.661439027e-05
4.495345556e-05
1.273175769e-05
-4.703548906e-05
4.713755249e-05
8.850200087e-06
-4.30655689e-05
4.757295794e-05
4.145123081e-06
-3.465723539e-05
4.684430288e-05
-1.582078267e-06
-2.204556612e-05
4.553269875e-05
-7.417187061e-06
-9.597623329e-06
4.048631037e-05
-1.064151856e-05
-6.077218238e-06
2.778594294e-05
-8.23269031e-06
-8.269600447e-06
3.156003326e-05
-1.137724898e-06
-1.750325176e-05
3.391137273e-05
7.558610467e-06
-3.094267663e-05
3.508259172e-05
1.288011172e-05
-4.018336717e-05
3.520919838e-05
9.3009552e-06
-4.319620432e-05
3.581366114e-05
3.232620309e-06
-4.054718954e-05
3.574858768e-05
-2.572631577e-06
-3.345950888e-05
3.548433922e-05
-7.044375762e-06
-2.384143176e-05
3.51516742e-05
-9.170172867e-06
-1.453693075e-05
3.365386249e-05
-7.526689263e-06
-8.721141354e-06
2.939726523e-05
-1.08946405e-06
-8.797742667e-06
2.068997035e-05
1.100695212e-05
-9.783452154e-06
9.817461467e-06
1.947316532e-05
-1.231527491e-05
3.52838584e-06
2.42156647e-05
-2.124165644e-05
-7.729340845e-07
2.5183294e-05
-3.318987588e-05
4.885129396e-06
2.325628054e-05
-4.638579101e-05
7.825822048e-06
1.798316379e-05
-5.621845401e-05
9.224952949e-06
1.161830385e-05
-6.235459916e-05
7.318827914e-06
5.778242286e-06
-6.250870112e-05
1.088665877e-06
8.246290159e-07
-5.217437647e-05
-1.148750592e-05
-4.216672737e-06
-3.372787926e-05
-2.231458426e-05
-7.70270926e-06
-2.075175883e-05
-5.377865375e-07
-1.026757435e-05
7.356810888e-06
-1.048464752e-05
-1.609001012e-05
3.610491939e-05
2.132855295e-05
-2.861240837e-05
3.693123668e-05
1.406580285e-05
-3.662287167e-05
3.980333225e-05
9.635433243e-06
-4.050274574e-05
4.230650253e-05
6.526924559e-06
-4.069008226e-05
4.368230547e-05
3.642661682e-06
-3.745279655e-05
4.403526414e-05
3.004680643e-07
-3.083936074e-05
4.363574315e-05
-3.404828668e-06
-2.113354245e-05
4.295966259e-05
-7.132742076e-06
-1.17652997e-05
4.035934728e-05
-9.241239526e-06
-8.075310463e-06
3.32038269e-05
-9.107834026e-06
-7.75050585e-06
3.475289109e-05
-3.517624698e-06
-1.437343913e-05
3.537158013e-05
5.1627702e-06
-2.671954043e-05
3.498095719e-05
1.244781211e-05
-3.62826034e-05
3.353594758e-05
1.123641961e-05
-4.014658394e-05
3.281437797e-05
6.86338535e-06
-3.904006226e-05
3.185970622e-05
2.782486419e-06
-3.435134556e-05
3.066031587e-05
1.354259509e-07
-2.780307788e-05
2.864919941e-05
-4.569258332e-08
-2.177345059e-05
2.427561962e-05
3.348690124e-06
-1.795725781e-05
1.511421597e-05
1.046688868e-05
-1.799195192e-05
2.039900077e-06
1.868474168e-05
-2.072106871e-05
-8.533585871e-06
2.108008539e-05
-2.485800686e-05
-1.238994653e-05
2.005513328e-05
-3.295556584e-05
-1.160788686e-05
1.89323089e-05
-4.116761216e-05
-6.168703058e-06
1.926561794e-05
-5.027964882e-05
-2.590388181e-07
1.719656698e-05
-5.903611655e-05
4.478799486e-06
1.350221099e-05
-6.582423323e-05
5.493804714e-06
8.612646695e-06
-6.671219667e-05
2.443498756e-06
-4.674183391e-07
-5.073382074e-05
-8.140988104e-06
-1.932547041e-05
-2.116840724e-05
-1.993450007e-05
-3.19460598e-05
-7.625920969e-06
2.965983769e-08
-1.411142039e-05
6.781230106e-06
-7.06751937e-06
-1.670860344e-05
3.431029914e-05
1.850326612e-05
-2.82625815e-05
3.744682393e-05
1.103842826e-05
-3.490933555e-05
4.04025124e-05
6.047600592e-06
-3.765608432e-05
4.262052885e-05
2.432733303e-06
-3.739950161e-05
4.377439173e-05
-3.486770214e-07
-3.464527037e-05
4.408279602e-05
-2.801788453e-06
-2.942411347e-05
4.379780374e-05
-5.383257229e-06
-2.19319551e-05
4.31135754e-05
-7.6461208e-06
-1.434495462e-05
4.142673251e-05
-8.654438477e-06
-1.020758091e-05
3.714026492e-05
-8.07386334e-06
-8.923500431e-06
3.669240883e-05
-3.223650288e-06
-1.404659127e-05