/*--------------------------------*- C++ -*----------------------------------*\
  =========                 |
  \\      /  F ield         | OpenFOAM: The Open Source CFD Toolbox
   \\    /   O peration     | Website:  https://openfoam.org
    \\  /    A nd           | Version:  8
     \\/     M anipulation  |
\*---------------------------------------------------------------------------*/
FoamFile
{
    version     2.0;
    format      ascii;
    class       volVectorField;
    location    "0.9";
    object      U;
}
// * * * * * * * * * * * * * * * * * * * * * * * * * * * * * * * * * * * * * //

dimensions      [0 1 -1 0 0 0 0];

internalField   nonuniform List<vector> 
67286
(
(-0.1207795571 -0.7039399022 -0.09268450284)
(-0.1159725756 -0.6322972036 -0.1072543142)
(-0.1681269591 -0.609183663 -0.03312686446)
(-0.2091605764 -0.6004609647 -0.01777196854)
(-0.2396218294 -0.5586318219 -0.06452188865)
(-0.2196936888 -0.559096052 -0.1414815961)
(-0.147424318 -0.510523999 -0.1229688623)
(-0.09356807446 -0.4836825924 -0.09821956615)
(-0.05943477247 -0.4759106013 -0.06721065257)
(-0.04182686453 -0.4741351329 -0.0275727386)
(-0.04736812595 -0.4565852528 -0.02518882881)
(-0.06739204829 -0.4337280594 -0.0100930918)
(-0.09603373576 -0.3922689651 -0.07757817327)
(-0.0882267668 -0.3752375637 -0.1241313338)
(0.01014839479 -0.3487478074 -0.248287583)
(0.1015648386 -0.2910773661 -0.1278851826)
(0.08741745994 -0.2330641319 -0.02363564257)
(0.03867762182 -0.1214244116 0.1033845951)
(-0.05552545171 -0.08151715926 0.1178428064)
(-0.09866490845 -0.0783675457 0.002633135329)
(-0.06628397217 -0.01786339673 0.03410932036)
(-0.0999481085 0.1876218435 0.009928057468)
(0.1021326439 0.5402443715 -0.1711122401)
(0.2042249469 0.08018487245 0.02564739068)
(0.141438631 0.01593261914 0.08125590182)
(0.1010530232 -0.01363235232 0.1111399487)
(0.02966130974 -0.1734780353 0.1110924757)
(0.01810702065 -0.2362126154 0.02139201885)
(-0.1282457122 -0.561639919 -0.126532729)
(-0.1262409254 -0.5085584932 -0.1584680524)
(-0.1702579899 -0.4905704309 -0.08341520636)
(-0.2060690072 -0.4654372283 -0.04353111519)
(-0.2753515953 -0.4286869616 -0.09664273866)
(-0.2888511674 -0.3658269536 -0.4607384852)
(-0.108656498 -0.3784223565 -0.1777764473)
(-0.08088585827 -0.3958758042 -0.1222332391)
(-0.06508154508 -0.4017695433 -0.09217834992)
(-0.0551996817 -0.4158650011 -0.055291247)
(-0.07759381506 -0.4001127449 -0.1047387611)
(-0.09154894815 -0.3560062279 -0.1091228262)
(-0.1396942412 -0.2749521215 -0.1647180014)
(-0.1370312593 -0.2694640629 -0.225096431)
(0.007057471709 -0.2416350475 -0.4075034224)
(0.1592403935 -0.2871456003 -0.195511571)
(0.1526316795 -0.2560225317 -0.1002609945)
(0.09218468378 -0.1508559308 0.02767141313)
(-0.03556634301 -0.1604840394 0.04953479663)
(-0.1139339505 -0.05934901194 -0.1857798888)
(0.02123384307 -0.05954689646 -0.006281376879)
(-0.01120319829 -0.01872199052 0.08035023412)
(0.1121023837 -0.04665564735 0.1567145502)
(0.2459140023 -0.1237651722 0.1187359033)
(0.1281382207 -0.1629075752 0.1653624414)
(0.06452760232 -0.1380690005 0.08796077883)
(-0.01773413326 -0.3137933149 -0.03046418569)
(0.0348351873 -0.234017138 -0.06890538219)
(0.02867544021 -0.2679777755 -0.1036542026)
(0.06185267182 -0.2958572749 -0.03318300996)
(0.001703195856 -0.3022833837 0.02795029203)
(-0.01553689614 -0.3015849754 -0.0005011587078)
(-0.1265398825 -0.3685412433 -0.1451253262)
(-0.1241154142 -0.3241047631 -0.2103354324)
(-0.1304655756 -0.3058476732 -0.1453330962)
(-0.1626855798 -0.2671168065 -0.06903812438)
(-0.2247799853 -0.2509421148 -0.09229019275)
(-0.2140851834 -0.1979385934 -0.1327234324)
(-0.1709174328 -0.2246457685 -0.1528203483)
(-0.1351444313 -0.2678894703 -0.1317276631)
(-0.1075630118 -0.2753920208 -0.1061743286)
(-0.1054398035 -0.2687840333 -0.08753664052)
(-0.1121605814 -0.1869419676 -0.2779623346)
(-0.02908904085 -0.1442248802 -0.2723915664)
(-0.03845625459 -0.08244816415 -0.04296349335)
(-0.1422282916 -0.03339806162 -0.2295781941)
(0.002181723793 0.03041441112 -0.1969286352)
(0.04042530268 -0.1196268356 -0.3305321741)
(0.1734840072 -0.1466128051 -0.3244881182)
(0.1555010469 -0.11735601 -0.02681251541)
(0.07874095927 -0.133010649 -0.02623874022)
(0.1021523284 -0.1054395378 0.1204306202)
(0.02206804395 -0.05073162088 0.1796174037)
(-0.04603331841 -0.07812074669 0.07425831974)
(0.05405855313 -0.2431867181 -0.07236666938)
(0.1552891699 -0.216460082 0.08202385158)
(0.05100032082 -0.2175633208 0.2015851315)
(-0.1328987255 -0.1380951925 -0.003956647698)
(-0.005307498302 -0.1735491298 -0.3227129386)
(0.08790507411 -0.1731988204 -0.1099637076)
(0.01862376592 -0.201625491 -0.1311773069)
(0.0881474201 -0.3324877053 -0.05334058526)
(0.02432466173 -0.2881841971 0.02526124551)
(-0.004265071106 -0.3095624982 0.001747708455)
(-0.09104149914 -0.1012234532 -0.1233413088)
(-0.09277537511 -0.09997395886 -0.2261802633)
(-0.1102036548 -0.09953351145 -0.1610516858)
(-0.1445916147 -0.08771381864 -0.06894622229)
(-0.2295133379 -0.08296076484 -0.07528007492)
(-0.2172004502 -0.07905974828 -0.09609291853)
(-0.1828336589 -0.08547020557 -0.1247765987)
(-0.1438490697 -0.122456885 -0.1068321319)
(-0.08055901006 -0.1502778639 -0.1162563819)
(0.0006703241691 -0.1470692643 -0.08259703583)
(0.064312259 0.01005510549 -0.02989167692)
(0.03658895464 0.06839683965 -0.02237587364)
(-0.005889435014 0.01346489826 -0.01510383326)
(-0.05343244535 0.1055136472 -0.03240229111)
(-0.0006777567945 0.1158805433 -0.06360052506)
(0.008724326876 0.1014362472 -0.203654278)
(0.1370613124 0.02640818807 -0.154527543)
(0.1219794791 -0.1576479709 0.1196779073)
(-0.00723306693 -0.2219030052 0.1396295345)
(-0.08084974246 -0.3013958967 0.1256858419)
(-0.1370322215 -0.2855932695 0.06358070193)
(-0.1782557579 -0.2839406031 -0.1244926165)
(0.008127083729 -0.3866150982 -0.4666012505)
(0.2007288541 -0.3698818459 -0.08834747916)
(0.09364620674 -0.3090716524 0.1456377445)
(-0.1400888323 -0.1723953801 0.02317830115)
(-0.06328558154 -0.1380470761 -0.1632781996)
(0.02230760299 -0.09666175898 -0.1589252368)
(-0.06898795818 -0.09842515591 -0.1601056572)
(0.06402455395 -0.1683500864 -0.05670379275)
(0.08715869623 -0.2395285291 0.01962541209)
(-0.008210260381 -0.2784824137 -0.002241257735)
(-0.02311867599 -0.344574864 0.03063801719)
(-0.1297455752 -0.03581645506 -0.09445231194)
(-0.1476403397 0.1242289503 -0.07963287438)
(-0.233095491 0.09455344506 -0.01981807418)
(-0.2634419849 0.09317149971 -0.03623034421)
(-0.2700913482 0.04132833485 -0.06940335221)
(-0.2419672037 -0.04577955214 -0.08899356175)
(-0.2263653236 -0.01502706107 -0.1043264909)
(-0.1698866101 -0.137906231 -0.1340359265)
(-0.07488899944 -0.1546054509 -0.1269296447)
(0.04966693232 -0.1756473085 -0.119284766)
(0.2067137674 -0.05661562685 0.002208329657)
(0.206435635 0.08025523575 0.08749329809)
(0.09644971796 0.1129859641 0.05359797982)
(0.004613340936 0.0839995799 0.02123154973)
(0.04663454193 0.07375601843 0.01617596291)
(0.03438550566 -0.04387976484 0.05908959591)
(0.05927618879 -0.09995210555 0.1729664383)
(-0.08943360785 -0.2644874636 0.1071737076)
(-0.1334537015 -0.2772453879 0.03733687519)
(-0.2149367684 -0.2672953577 0.02154707915)
(-0.3196000528 -0.2042623616 -0.07942274266)
(-0.3242478027 -0.1295325956 -0.3546829046)
(-0.0344716978 -0.0843447436 -0.8946453298)
(0.2743609177 -0.2878927672 -0.2148435182)
(0.2440236713 -0.2488792382 0.04245657275)
(-0.0686128644 -0.1366657704 0.07752145309)
(0.01035187511 -0.0981328726 -0.2878984345)
(0.1459130489 0.008374692291 -0.1450327552)
(0.03001913955 0.01326525691 0.009462097908)
(-0.008686458718 -0.05373959651 0.06667409219)
(-0.07947520928 -0.2154483281 0.0304251197)
(-0.06076266856 -0.259298945 -7.715524942e-05)
(-0.0877392032 -0.360746111 0.03086822976)
(-0.1450114806 0.2153602289 -0.445550563)
(0.1218127472 0.2432417063 -0.04100567882)
(-0.1847510305 0.1634188377 0.1266106002)
(-0.2025015498 0.1258468107 0.02285681601)
(-0.2316014576 0.09907788129 -0.1406024929)
(0.01102793811 0.09504438017 -0.2392403219)
(-0.1386091148 0.09146911179 -0.0857441245)
(0.1758767526 -0.002488402672 -0.465758055)
(0.1959416783 -0.1438648857 -0.2458533288)
(0.1413464302 -0.2029301229 -0.2007020966)
(0.207171458 -0.129569115 -0.1436453928)
(0.2119077568 0.04479847748 0.003933077836)
(0.08111656208 0.160583829 0.07074321834)
(-0.0758117464 0.1021476873 0.06713311729)
(-0.1532092697 -0.01830000418 0.01367473328)
(-0.08427625934 -0.1043626427 -0.0696432468)
(-0.05905653681 -0.2174320385 0.08961651944)
(-0.1709986815 -0.2451070904 -0.002794463166)
(-0.1448785316 -0.2323375699 -0.07161864722)
(-0.1427679567 -0.2387327539 -0.05901178034)
(-0.1084173162 -0.1949940276 -0.05655547545)
(-0.1270325939 -0.1445381105 0.001150736821)
(0.02230742289 0.2153269831 -0.1109236964)
(0.03621179639 -0.576643495 -0.1385783786)
(0.09144766323 -0.1626104995 -0.04233082052)
(0.009316399838 -0.179627755 0.1566024326)
(-0.1363053128 0.03520810411 0.1499487577)
(-0.1466745653 -0.03008201985 0.1177371627)
(-0.1922910072 -0.06356540193 0.107815768)
(-0.1426920061 -0.1063859448 0.05304193313)
(-0.1619688001 -0.173190864 0.03504697729)
(-0.1368826645 -0.2559172891 0.01526659571)
(-0.1609038569 -0.3804133428 0.01913203519)
(-0.1147929971 0.5164894999 -0.2067312328)
(-0.05225461111 0.337427339 0.1005295581)
(-0.2736627739 0.2631039933 0.1764538566)
(-0.2951071434 0.2001033354 0.1280094493)
(-0.3179786979 0.1991587611 0.05656074983)
(-0.2803440547 0.2511110363 -0.04191715821)
(-0.348130132 0.1934876577 -0.110309393)
(-0.2695685501 0.2050520894 -0.2652859184)
(-0.1976969523 0.1339326292 -0.3650374893)
(-0.04506640652 0.07436274781 -0.4463471467)
(0.1232623908 0.1066600031 -0.376146942)
(0.2210353166 0.1583222501 -0.1917398262)
(0.1580271261 0.1930523914 -0.01842805222)
(0.03286061876 0.1199043582 0.1294899772)
(-0.1335977551 -0.06516015515 0.1459026863)
(-0.1886301295 -0.1158358553 0.03732629826)
(-0.1974882116 -0.1948622204 0.03421455993)
(-0.2398381814 -0.1975652375 -0.02474575475)
(-0.2222911537 -0.1623107693 -0.06274738403)
(-0.1966721646 -0.1529328669 -0.06312158508)
(-0.1630381213 -0.129551563 -0.0358597564)
(-0.2263688532 -0.2222902197 0.08698696589)
(-0.4431757696 -0.1889042072 0.009437696215)
(-0.0008358650873 -0.06558551562 -1.251808708)
(0.4693727214 -0.1640966721 -0.04558513295)
(-0.01780139684 -0.2153065872 0.2072418408)
(-0.1154514402 -0.2700382197 0.1260106086)
(-0.1555594631 -0.2001547954 0.06826922644)
(-0.2206242268 -0.2369923206 0.03211638791)
(-0.2252297546 -0.2141887323 0.08846388608)
(-0.2760893539 -0.2414834763 0.06526240999)
(-0.268668944 -0.3138042874 0.02547472602)
(-0.2640015938 -0.4254596255 -0.01226500973)
(-0.08644343669 0.5166362653 0.07858817214)
(-0.1583545022 0.2548210693 0.1867052846)
(-0.3369646181 0.1128804558 0.148859895)
(-0.3736961054 -0.004464935692 0.05870864603)
(-0.3720225003 0.0134685384 0.008611860056)
(-0.3222776274 0.154672046 -0.01471738313)
(-0.3307690556 0.2451166098 -0.09528532172)
(-0.2924965736 0.2894546913 -0.1865248438)
(-0.1814711557 0.2670808819 -0.279492079)
(-0.0182010473 0.2200894841 -0.3387724703)
(0.1349118398 0.2006315197 -0.2909926828)
(0.210561561 0.2176961835 -0.1854238646)
(0.1516878045 0.2002212399 -0.0017027126)
(0.02505501964 0.05345692407 0.2056123181)
(-0.1451899157 -0.1243145027 0.1598457076)
(-0.2132627294 -0.1578879061 0.09387446492)
(-0.2444362113 -0.1976573377 0.04267211064)
(-0.2609217007 -0.2146649274 0.01122153941)
(-0.2468753328 -0.1784498326 -0.002547406623)
(-0.2157915596 -0.1466908446 -0.002608885201)
(-0.1682225292 -0.1009413453 -0.003977266011)
(-0.174957119 -0.1600972014 -0.08082372395)
(-0.1730537227 -0.1049111405 -0.1155968431)
(-0.07388228199 0.1692745385 -0.1161032792)
(0.02580075722 -0.1744618978 0.07043538657)
(-0.2830039751 -0.1047729915 0.07610239243)
(-0.2521520738 -0.166056494 -0.2387525777)
(-0.174638125 -0.07418063709 -0.1860410789)
(-0.1968274964 -0.08802630331 -0.1228475752)
(-0.1870225415 -0.1853704115 0.07243782713)
(-0.2868654351 -0.2524687717 0.04078177917)
(-0.3375195109 -0.343865208 -0.02332697218)
(-0.3289965173 -0.4423505657 -0.0857223146)
(-0.1253292366 0.3983926443 0.2379006542)
(-0.2844859902 0.2275045404 0.08363473277)
(-0.4145294423 0.1643083221 -0.09859228086)
(-0.3943721298 0.1207108911 -0.2100749667)
(-0.3351351426 0.1116785059 -0.2154867144)
(-0.2460602101 0.1666447884 -0.1204767349)
(-0.2024089185 0.2561472166 -0.04525276053)
(-0.2132411041 0.3103823937 -0.1065039191)
(-0.1139153761 0.3026924662 -0.1861734485)
(0.03125713012 0.2648818062 -0.2445131545)
(0.1384414474 0.2434682058 -0.2196462229)
(0.1619811412 0.2284833463 -0.104114814)
(0.1067678417 0.1650857169 0.1072559468)
(-0.03957687063 -0.03967808114 0.2292841178)
(-0.1911479777 -0.1482176101 0.1285945067)
(-0.2772786835 -0.2018773778 0.0487081434)
(-0.3095969097 -0.2398020687 -0.01607133008)
(-0.3085829046 -0.2536033789 -0.0497483849)
(-0.281504002 -0.2309722274 -0.05975814711)
(-0.2499229424 -0.1961848339 -0.06843882798)
(-0.2431103045 -0.1650086829 -0.0985926504)
(-0.2524601013 -0.1512880678 -0.1757590952)
(-0.2225178911 -0.1420484458 -0.2262807847)
(-0.05226740349 -0.1405834914 -0.1893425917)
(0.1345966411 -0.1561997228 -0.09867657027)
(-0.1135519714 -0.09174309496 0.08574403786)
(-0.1295807539 0.09097373223 -0.2287964892)
(-0.1574666665 -0.02108787865 0.1404467197)
(-0.3405622771 -0.00455197502 0.08302888051)
(-0.3794762165 -0.1156063694 0.03077042075)
(-0.4385147794 -0.2166336976 -0.02578775478)
(-0.4395877442 -0.310459377 -0.1102568437)
(-0.3827259681 -0.3932602856 -0.2106070149)
(-0.2066789506 0.3521185415 0.2530057982)
(-0.3794813853 0.2909144777 0.01500373955)
(-0.4824894853 0.2598782891 -0.1182018472)
(-0.4393591986 0.227541329 -0.1430199222)
(-0.341568429 0.2058302936 -0.1112757433)
(-0.2028471026 0.2116922099 -0.03498576942)
(-0.1116350376 0.2412776488 0.06030587321)
(-0.1840590048 0.2417406135 0.01189749485)
(-0.06583559054 0.2257046543 -0.06309855194)
(0.09433312145 0.2165223498 -0.1271126411)
(0.1798248474 0.2164725998 -0.09135181043)
(0.1585022617 0.1801245844 0.04907363687)
(0.05561631082 0.06311255811 0.2149093812)
(-0.1277452466 -0.0904736116 0.1589479295)
(-0.2396516275 -0.1425576573 0.05522576166)
(-0.3113956176 -0.1852668153 -0.02754361084)
(-0.3231208388 -0.2074465656 -0.08272921792)
(-0.3046937484 -0.1993944387 -0.1039835829)
(-0.2769418442 -0.1531037429 -0.1006880358)
(-0.2683872308 -0.07584689341 -0.09815291445)
(-0.2987026812 0.01933544159 -0.12552915)
(-0.3288748381 0.09665205759 -0.1757140427)
(-0.2757961772 0.1200367992 -0.248398919)
(-0.1303623191 0.08201444133 -0.3105399729)
(0.07806669136 -0.02402544514 -0.257525112)
(0.1246469959 -0.06740787118 -0.06945626367)
(-0.0627021578 0.03133934381 0.1950486737)
(-0.2588946726 -0.1278824687 0.1430766699)
(-0.3717392064 -0.1053654306 0.06776343779)
(-0.4478056966 -0.1445387048 -0.02800229858)
(-0.4964656267 -0.172729121 -0.1306267701)
(-0.4849459951 -0.2141939496 -0.2601133992)
(-0.3899279468 -0.252487598 -0.3961307846)
(-0.2433694068 0.3512939689 0.2469397398)
(-0.4037014516 0.3131846568 -0.002281965232)
(-0.5138764114 0.2519569779 -0.1198202137)
(-0.5050642425 0.1440287252 -0.1184357381)
(-0.4551364452 0.01723274229 -0.08893817313)
(-0.3553646531 -0.01526065841 -0.04577606834)
(-0.2159528121 0.09493769665 0.0521571985)
(-0.131466182 0.08739366664 0.1136246879)
(0.03990063533 -0.1007636655 0.02142321432)
(0.1646756141 0.0575432189 -0.02858076052)
(0.2264406146 0.1302135599 0.03137226712)
(0.1751830782 0.1049820672 0.138180694)
(0.03549689923 0.02071046799 0.1980813562)
(-0.1674460595 -0.0384950406 0.08042201003)
(-0.2713036664 -0.07777945664 -0.02717374935)
(-0.3173280668 -0.1032430438 -0.104841367)
(-0.3091384783 -0.1149699895 -0.1520873499)
(-0.2663505078 -0.1092445707 -0.16236079)
(-0.2253065545 -0.08244211908 -0.1248644327)
(-0.2367410186 -0.01964932596 -0.06679753082)
(-0.3203653537 0.08086289912 -0.04645173184)
(-0.3908984735 0.1552101502 -0.07222131474)
(-0.3626550329 0.174103044 -0.1441157839)
(-0.220361071 0.1342151615 -0.2381389561)
(-0.03941222189 0.09117033526 -0.2934429415)
(0.10196796 0.08541030168 -0.1062581017)
(-0.1081657486 0.03352808076 0.1155546496)
(-0.304602842 -0.02833420126 0.05524427219)
(-0.4782394271 -0.02553825431 0.01810849748)
(-0.6019896743 -0.02372446345 -0.1082732782)
(-0.6299882997 -0.006409852875 -0.2669754916)
(-0.5704752036 0.02190289601 -0.426701779)
(-0.4089719039 0.05773879972 -0.5717476407)
(-0.2927412732 0.3925863722 0.2450899519)
(-0.4848175124 0.3790034098 -0.05342629059)
(-0.614260809 0.3593175273 -0.2456185003)
(-0.6099020677 0.3238228044 -0.3331460904)
(-0.5441206196 0.2768372438 -0.4046602493)
(-0.4134740351 0.2271105664 -0.4159711201)
(-0.230235395 0.1476475673 -0.2701970744)
(-0.04225728139 -0.09447662323 -0.05273044563)
(-0.05243299696 -0.0753775431 -0.2144317437)
(0.1174435209 0.1364607635 -0.2168146143)
(0.2224120533 0.1382815833 -0.01365276165)
(0.1002484444 0.08284388853 0.1612181488)
(-0.15464439 0.07485722227 0.1240858642)
(-0.2719031842 0.09727016283 -0.01023586596)
(-0.3373494464 0.08417416493 -0.09882991803)
(-0.3521494809 0.06656973458 -0.1475047061)
(-0.3228116341 0.05137465036 -0.1776090517)
(-0.2556597074 0.04408771021 -0.1873149263)
(-0.178824799 0.04604061226 -0.1555021389)
(-0.1385978838 0.07136360365 -0.07131048861)
(-0.196493032 0.1419857722 -0.01865273238)
(-0.299320928 0.2079698008 -0.04927666415)
(-0.3181230834 0.2367692562 -0.1197411149)
(-0.2087355199 0.2205861003 -0.2154369074)
(-0.05328316888 0.1871174959 -0.260676958)
(0.06405701106 0.1492277572 -0.1717082156)
(0.01812062619 0.1230498304 -0.02126113411)
(-0.2292156384 0.1047885481 0.1443277953)
(-0.4409870085 0.08593726642 0.08306076114)
(-0.5571296776 0.09851448748 -0.008704331309)
(-0.6071363885 0.1333717191 -0.1216921799)
(-0.569163486 0.1932639156 -0.2640704276)
(-0.4306689701 0.2631458699 -0.4068661122)
(-0.2989819371 0.4854249613 0.2687246971)
(-0.5175203602 0.4770967856 -0.01926007283)
(-0.6700508023 0.4797521073 -0.2397358919)
(-0.6716573435 0.4700187228 -0.3365302557)
(-0.6053938425 0.4502623007 -0.3823676304)
(-0.4778597802 0.4093304651 -0.3869103231)
(-0.3210449024 0.3453835085 -0.3384892551)
(-0.2104243946 0.2754103168 -0.3802083271)
(-0.1228017315 0.2580520638 -0.4645996479)
(0.1305612437 0.2561305297 -0.2868939279)
(0.2345445695 0.2200388475 -0.0704300802)
(0.08612287418 0.1750224491 0.1471164494)
(-0.2057682371 0.167994245 0.1249532285)
(-0.31466962 0.1736067868 0.0007662796223)
(-0.3776913474 0.1696801006 -0.07761318254)
(-0.381289714 0.1602170336 -0.1203333095)
(-0.3412412506 0.1496098294 -0.1491417224)
(-0.2587719971 0.1426689792 -0.1699923737)
(-0.1559425074 0.1409981688 -0.1676577735)
(-0.0661150611 0.1556503452 -0.1158901656)
(-0.04998544 0.2139868302 -0.03087277855)
(-0.1359957865 0.2616362908 -0.0467228632)
(-0.1867136521 0.2750337468 -0.1071762864)
(-0.1218442758 0.2549655441 -0.1790065647)
(-0.05255638434 0.2015622123 -0.2254770197)
(0.01223034014 0.1315960106 -0.1165230142)
(-0.1530320777 0.1588216247 0.1312002362)
(-0.3528967433 0.1456876901 0.1632555628)
(-0.485796534 0.1155636896 0.1120930198)
(-0.5513101344 0.1168568763 0.06837494973)
(-0.5684307592 0.1650639501 0.01061231681)
(-0.5267474944 0.2540349436 -0.08743505253)
(-0.4132899569 0.3556265559 -0.2087622835)
(-0.2548637859 0.5452602752 0.2965228239)
(-0.4671468437 0.5348510167 0.09066457071)
(-0.6275984815 0.563988405 -0.1132772329)
(-0.6585036637 0.5903221734 -0.2531898661)
(-0.6171573285 0.5928241744 -0.307565805)
(-0.5302896545 0.5630154609 -0.3124369703)
(-0.4166149388 0.4998546503 -0.3019270067)
(-0.2804186544 0.4152172507 -0.3510306473)
(-0.1382443808 0.3632415012 -0.4196428303)
(0.1701078781 0.2929776732 -0.2004199873)
(0.1846897992 0.2323112749 0.01975473938)
(0.0219366116 0.234755277 0.1759807811)
(-0.2298614133 0.2461343781 0.1235964745)
(-0.3386930931 0.244774855 0.01456504418)
(-0.4030474974 0.2428999717 -0.0601487321)
(-0.4001226686 0.2325958573 -0.1022883851)
(-0.3521173541 0.222058478 -0.131116829)
(-0.2608901443 0.2173387009 -0.1557538345)
(-0.1463109385 0.2174728101 -0.165685412)
(-0.0355288875 0.2270530306 -0.138306932)
(0.02913133641 0.2746756951 -0.03388065744)
(-0.01378764039 0.3218711478 -0.01777949664)
(-0.06380654992 0.3321291514 -0.07904659595)
(-0.06478827072 0.3081479205 -0.1305560177)
(-0.05312390248 0.2334188754 -0.1610213164)
(-0.1143679776 0.1575506699 0.06948716124)
(-0.3157886712 0.1525114764 0.1828034097)
(-0.4451442241 0.1163459388 0.1466348343)
(-0.5201227927 0.07344686309 0.1077920287)
(-0.5434544005 0.06328794011 0.08607423201)
(-0.5226793125 0.09836021724 0.06778344004)
(-0.4639081937 0.1869999849 0.03003464543)
(-0.3617517271 0.3032074931 -0.03864987611)
(-0.1896427881 0.5401687482 0.2886652176)
(-0.366796459 0.5071751329 0.1869111693)
(-0.5214737783 0.5449206071 0.06120973683)
(-0.5788567386 0.5937361161 -0.07180177215)
(-0.5714925773 0.6230207824 -0.1684327948)
(-0.5134000645 0.6073098128 -0.2113238602)
(-0.4262623249 0.5597457822 -0.235888293)
(-0.2939901582 0.4976594715 -0.290356407)
(-0.1631224805 0.4121302767 -0.3349319411)
(0.1139195437 0.2336638036 -0.07084878866)
(0.04827907468 0.2248252781 0.103211118)
(-0.06886175983 0.2717697957 0.1650042912)
(-0.2509050299 0.2883930505 0.1166101001)
(-0.3490810208 0.2873175012 0.02700561456)
(-0.4061110622 0.286667824 -0.04506049493)
(-0.3967609656 0.2769261354 -0.09105087389)
(-0.3431948336 0.2690831552 -0.1225518648)
(-0.2495192801 0.2684628677 -0.1475752713)
(-0.1328188989 0.2713205494 -0.1578126526)
(-0.01987644242 0.279741712 -0.1358851888)
(0.05710202408 0.311895807 -0.0226321157)
(0.02731912597 0.3491215 0.02369322774)
(-0.006944425988 0.3573803208 -0.01909269105)
(-0.0432071681 0.3031808382 -0.02727322633)
(-0.06308519068 0.2290352696 -0.003032824594)
(-0.2125291232 0.1432116911 0.1611254882)
(-0.3864853732 0.1217365696 0.1485851567)
(-0.4731988048 0.07276264838 0.09117535569)
(-0.5141814738 0.02492767199 0.05532518542)
(-0.5070097036 -0.002755803074 0.03977049335)
(-0.4527400879 0.005020234956 0.03883739848)
(-0.3767125343 0.08073257469 0.03763693908)
(-0.2812085083 0.1777733756 0.03055878296)
(-0.1277027534 0.4822934462 0.2430328848)
(-0.257935827 0.4241432573 0.1964396166)
(-0.3917326999 0.4558190027 0.1533863545)
(-0.4622482736 0.5077593029 0.08709335361)
(-0.4803313837 0.542081439 0.009779970971)
(-0.4484378918 0.542446351 -0.05470584549)
(-0.3827470672 0.5182893903 -0.1126494349)
(-0.2714174743 0.4810812655 -0.1778275653)
(-0.1418184994 0.3891097661 -0.2074569178)
(0.01670104995 0.188077725 -0.04049767806)
(-0.03571895043 0.2373345625 0.06586488605)
(-0.09210810646 0.2797569837 0.1211702605)
(-0.2409035182 0.3035183542 0.113389049)
(-0.3339887974 0.3098426248 0.04116245603)
(-0.3860587909 0.3145649934 -0.02932821703)
(-0.3765977345 0.3093172752 -0.07943598337)
(-0.3241924373 0.3051351032 -0.1116311158)
(-0.2371912923 0.3060902041 -0.1330867374)
(-0.1296812793 0.3069828643 -0.1376441896)
(-0.03735074687 0.3050472462 -0.114292169)
(0.03534726974 0.3142304845 0.005462481015)
(-0.0006891429889 0.3106227805 0.06762957109)
(-0.002625264748 0.3093825957 0.06659289699)
(-0.04248390448 0.2195472819 0.1131449525)
(-0.1038045241 0.1873512264 0.1379570581)
(-0.2771666361 0.1255803545 0.156696376)
(-0.4052402175 0.1046602291 0.09456470022)
(-0.4750529193 0.0616558132 0.03994564522)
(-0.5036856998 0.01714710754 0.01017451918)
(-0.4809182685 -0.02460337216 -0.003300929327)
(-0.3897400854 -0.04678529941 -0.002588012411)
(-0.2857066763 0.03642083339 -0.02188972356)
(-0.1955268171 0.09285671904 -0.01357344341)
(-0.09019950508 0.4001831892 0.1889057207)
(-0.1963502873 0.3538595889 0.1421547283)
(-0.3065588724 0.3799640958 0.1264176301)
(-0.3669805156 0.4177622683 0.1095880854)
(-0.3907828181 0.4425193415 0.07603542398)
(-0.3739644588 0.4470543823 0.03357552272)
(-0.3244002415 0.4391768844 -0.01683329227)
(-0.2369623425 0.4246808857 -0.07494205024)
(-0.1190631417 0.3641364749 -0.1057813856)
(-0.04050691263 0.2219002561 -0.06480575842)
(-0.05651554139 0.2641716013 -0.003191437916)
(-0.07664502869 0.2922434704 0.07059875058)
(-0.2052917279 0.3097211243 0.1109773231)
(-0.3013223994 0.3164293287 0.06142366555)
(-0.3532059522 0.3247564759 -0.004900471365)
(-0.3508719786 0.3248695135 -0.05781909279)
(-0.3063113858 0.3218209726 -0.08902970642)
(-0.2354784228 0.3213890607 -0.1033018005)
(-0.1518318335 0.3173945079 -0.09652142611)
(-0.08741250193 0.2991230255 -0.05569398893)
(-0.0528645673 0.2499928207 0.06251018419)
(-0.08855570866 0.1961870706 0.1361234406)
(-0.06835658211 0.1435795058 0.1777515532)
(-0.1341674787 0.05772273731 0.1983293754)
(-0.2092984715 0.0998480274 0.1773151458)
(-0.3319146121 0.09535967197 0.1221502244)
(-0.4263397078 0.08817546035 0.06234591694)
(-0.4922019649 0.06076378835 0.02381161584)
(-0.5237307135 0.0158123826 0.006605891668)
(-0.4913313681 -0.06896451105 -0.01149063193)
(-0.3473162697 -0.1625826038 -0.03596002467)
(-0.2052738496 0.001849966353 -0.05472370353)
(-0.1337668481 0.05541425208 -0.05659422284)
(-0.08298127184 0.3345855907 0.1481265689)
(-0.1842016744 0.327055119 0.09047085481)
(-0.277336311 0.3522850115 0.06661563195)
(-0.3206748062 0.3765895224 0.05381051125)
(-0.3372351218 0.3905930716 0.0371506646)
(-0.3239289371 0.3940854441 0.01486308507)
(-0.28328561 0.3895199621 -0.01487598685)
(-0.2173694791 0.3832818173 -0.04947383749)
(-0.1241614791 0.3533318575 -0.07417664471)
(-0.06994907902 0.2720129313 -0.0835652277)
(-0.06198993281 0.2953620225 -0.04597505077)
(-0.06245577383 0.3084888125 0.02940441291)
(-0.1687692647 0.3122916141 0.1058366363)
(-0.2683836195 0.3086369103 0.08661363432)
(-0.3228580877 0.3114762087 0.03492945477)
(-0.3309226889 0.3107884234 -0.0104408927)
(-0.3037580553 0.3090717379 -0.03758610053)
(-0.2546971844 0.3035305689 -0.04241083947)
(-0.1980278672 0.2829304287 -0.0177939852)
(-0.1545330947 0.228376225 0.04673956393)
(-0.1352163629 0.1226770583 0.1376101957)
(-0.1584490626 -0.0184404119 0.1629421889)
(-0.1758649512 -0.07960968765 0.1524944204)
(-0.2325998228 -0.07169375843 0.1440520713)
(-0.299227237 -0.01192058217 0.1480541381)
(-0.3711670358 0.04589134738 0.1226857146)
(-0.4487806292 0.07821275723 0.08740941834)
(-0.515031321 0.07039553019 0.06086632305)
(-0.5648927948 0.001364636695 0.01707176857)
(-0.5204584095 -0.1435487592 -0.1201581637)
(-0.2868433923 -0.2445600389 -0.2633665066)
(-0.06763714501 -0.01272309209 -0.03069367063)
(-0.05520423658 0.07717662843 0.009036114494)
(-0.09022069614 0.3062872138 0.1239572343)
(-0.1869909782 0.3277370212 0.06330612537)
(-0.2689287341 0.3533267099 0.02885685193)
(-0.300971357 0.3727686603 0.005562566979)
(-0.310442041 0.3827016045 -0.01269658476)
(-0.2972853456 0.3850517918 -0.0287157016)
(-0.2646010304 0.3824822737 -0.04592701231)
(-0.2130758389 0.3771940186 -0.0638221635)
(-0.142074643 0.3609170922 -0.07772913723)
(-0.09338364934 0.3152480142 -0.08808114261)
(-0.07407881727 0.319645518 -0.06012654615)
(-0.06916156908 0.3185847309 0.01354674561)
(-0.1570982763 0.3081810795 0.1041518453)
(-0.251550897 0.2867492373 0.1097866275)
(-0.3060320239 0.2720930951 0.08343845185)
(-0.3229849623 0.257020366 0.0625015804)
(-0.3097128171 0.2389928547 0.05476835109)
(-0.2744663467 0.2100850017 0.06411973712)
(-0.2281466023 0.1528438615 0.09074950991)
(-0.1903028584 0.04182573234 0.1190273817)
(-0.1752910757 -0.08769060374 0.1072518294)
(-0.181975244 -0.1370532736 0.07658934921)
(-0.2088868932 -0.1456817845 0.06835780931)
(-0.2476639611 -0.1385199103 0.0848428854)
(-0.2980000362 -0.1008054537 0.116481211)
(-0.364928054 -0.05128732379 0.128236599)
(-0.448374722 -0.001643890382 0.08566819539)
(-0.5379578086 0.02493568516 -0.02928078489)
(-0.5883200404 0.04493377077 -0.2478871832)
(-0.4537769088 0.007693788723 -0.5729019033)
(-0.1667307076 -0.09925311229 -0.8333200269)
(0.1645177537 0.01358993415 -0.3241574904)
(0.08912774158 0.04715082944 -0.0342335989)
(-0.09443721806 0.302926755 0.1112682607)
(-0.1846934522 0.3369566075 0.0542481408)
(-0.2603239374 0.3636779365 0.01564429735)
(-0.2880693508 0.383152395 -0.0156372372)
(-0.2957966333 0.393114507 -0.0388799855)
(-0.2850468542 0.3961300001 -0.05434608222)
(-0.2581909989 0.3935489182 -0.06610797004)
(-0.2161367864 0.3865675119 -0.07553423994)
(-0.1611849194 0.3726905382 -0.08082522783)
(-0.1189036853 0.3415112178 -0.08009826779)
(-0.09817245497 0.3307743078 -0.04796882877)
(-0.1034341267 0.3153569665 0.03104912396)
(-0.1801209925 0.2893257966 0.1116219016)
(-0.2579385461 0.2439190225 0.1255900234)
(-0.3034929787 0.196857911 0.1193434224)
(-0.3201460011 0.1456075954 0.115115042)
(-0.3123073018 0.08712480976 0.1102654231)
(-0.2868258414 0.0159362951 0.0987814191)
(-0.2524608408 -0.06010052272 0.07856434555)
(-0.2223160563 -0.121306214 0.04904151976)
(-0.211605598 -0.159666811 0.02198373363)
(-0.2130243056 -0.183236693 0.008253684744)
(-0.2169141229 -0.1851690216 0.01128507732)
(-0.235493075 -0.1695845533 0.03688277077)
(-0.2826456224 -0.1340009928 0.09175178318)
(-0.378970462 -0.07132118823 0.156938713)
(-0.5443710517 0.03025755172 0.1307727812)
(-0.7205384855 0.1673411932 -0.1506510607)
(-0.758854554 0.3176459399 -0.5859552408)
(-0.5212290173 0.4372241755 -0.9791753612)
(-0.04888094148 0.5122186257 -1.313369176)
(0.3904263551 0.455240437 -0.8558011747)
(0.4901545754 0.3481654109 -0.3696673462)
(-0.09166903772 0.3078221792 0.1035880788)
(-0.1744251863 0.3446309963 0.05414349947)
(-0.2466081813 0.3723697614 0.01772613754)
(-0.2746619416 0.3936586404 -0.01658437026)
(-0.2857890704 0.405615796 -0.04507344688)
(-0.27837859 0.4084280393 -0.06267012352)
(-0.2571738284 0.404292983 -0.07237679858)
(-0.2236865553 0.3940343683 -0.07625789596)
(-0.1825639464 0.3771840266 -0.07281159303)
(-0.1502969131 0.3484447155 -0.0562303399)
(-0.1398719757 0.3231285897 -0.007902602054)
(-0.1646908205 0.2917511169 0.06966933963)
(-0.2311962894 0.2448486945 0.1199590067)
(-0.2877773649 0.1726754186 0.1196395927)
(-0.3200901823 0.09560365696 0.1014230971)
(-0.3308788697 0.02219254427 0.07453557784)
(-0.325759934 -0.04106092592 0.0396409225)
(-0.3086768815 -0.08484701448 0.01269029747)
(-0.2859291873 -0.1185906837 -0.007754890563)