/*--------------------------------*- C++ -*----------------------------------*\
  =========                 |
  \\      /  F ield         | OpenFOAM: The Open Source CFD Toolbox
   \\    /   O peration     | Website:  https://openfoam.org
    \\  /    A nd           | Version:  8
     \\/     M anipulation  |
\*---------------------------------------------------------------------------*/
FoamFile
{
    version     2.0;
    format      ascii;
    class       scalarField;
    location    "0.9/lagrangian/reactingCloud1";
    object      age;
}
// * * * * * * * * * * * * * * * * * * * * * * * * * * * * * * * * * * * * * //


147
(
0.2478506665
0.2416144894
0.2380766582
0.2369973199
0.2358580183
0.234484147
0.2463515855
0.2473109974
0.2434133867
0.2486901519
0.244252872
0.2417943792
0.2494097108
0.2512675098
0.2547529885
0.2207795661
0.1999453776
0.2140894335
0.2175917917
0.1893334676
0.1869441478
0.2334482463
0.1842745635
0.1822514996
0.1765212687
0.175566508
0.1728745044
0.1719502697
0.2532275864
0.1695976723
0.1685614092
0.1677772101
0.2522170734
0.1639122287
0.1618397024
0.2435932764
0.1469399191
0.1434409866
0.2415545262
0.1660407692
0.1295551184
0.2356781285
0.1286132227
0.136101315
0.1620357522
0.1540537254
0.1268051632
0.1260444223
0.1237932669
0.1218190434
0.1181419131
0.1173001514
0.1154654077
0.113205384
0.1117805279
0.1087175804
0.1045527861
0.1080909543
0.1041654832
0.09529383386
0.09483011691
0.09401861224
0.09127103749
0.0902416573
0.08576056498
0.1061085392
0.08254166978
0.1300510337
0.08185190653
0.07806984229
0.07374855968
0.07350435935
0.07234174685
0.07207343726
0.0719809168
0.07114783816
0.07103233842
0.06837584447
0.06698984762
0.06294735682
0.08530072281
0.057960717
0.05624299726
0.05465802161
0.05444219463
0.06294735682
0.0510916117
0.2669270456
0.04921886077
0.04808521134
0.04739990362
0.0561420224
0.04622029555
0.04448847354
0.2649817225
0.2660125794
0.04000772366
0.03859563319
0.2388561803
0.102213729
0.03533270715
0.03406628067
0.03143705742
0.03055486831
0.06421785393
0.02803577099
0.02664299822
0.02388222623
0.0231159516
0.02239208621
0.02162435754
0.02089928046
0.08415111738
0.08140419491
0.0200889002
0.01966238427
0.2551741472
0.01902261038
0.01782836578
0.01748715304
0.01693268234
0.01689003074
0.01642086322
0.0159516957
0.0153545734
0.08438103847
0.02004624861
0.01288078102
0.01164388483
0.08541568336
0.08840465747
0.07818481997
0.008274409
0.007805241479
0.00750668033
0.006866906438
0.006397738918
0.006355087325
0.005800616619
0.005630010247
0.01207040076
0.005288797505
0.08219678815
0.003808321136
0.002542075208
0.001575824152
0.008061151036
)


// ************************************************************************* //
