/*--------------------------------*- C++ -*----------------------------------*\
  =========                 |
  \\      /  F ield         | OpenFOAM: The Open Source CFD Toolbox
   \\    /   O peration     | Website:  https://openfoam.org
    \\  /    A nd           | Version:  8
     \\/     M anipulation  |
\*---------------------------------------------------------------------------*/
FoamFile
{
    version     2.0;
    format      ascii;
    class       scalarField;
    location    "0.9/lagrangian/reactingCloud1";
    object      mass0;
}
// * * * * * * * * * * * * * * * * * * * * * * * * * * * * * * * * * * * * * //


147
(
3.08396101e-07
7.615672841e-08
1.703498734e-07
7.578488727e-08
7.783342957e-08
8.948683068e-08
1.019734842e-07
1.455639354e-07
8.514674076e-08
7.328774137e-08
2.191870947e-07
1.665514943e-07
1.933910684e-07
3.622335153e-07
1.691429196e-07
9.974428811e-08
7.612698162e-08
1.649711166e-07
3.047215054e-07
4.12083635e-07
1.350104202e-07
1.139673614e-07
1.624958656e-07
1.318354651e-07
3.831391382e-07
7.216425875e-08
2.085571503e-07
7.289458045e-08
1.869935579e-07
1.897964969e-07
8.68733416e-08
6.543295426e-08
1.451856958e-07
9.74887602e-08
9.193998018e-08
3.031218367e-07
6.810754969e-08
2.236563363e-07
8.457317038e-08
4.964318381e-07
2.382952787e-07
2.073621474e-07
8.1322381e-08
1.073118301e-07
1.952952091e-07
1.052807281e-07
1.546562699e-07
6.521466147e-08
1.879192776e-07
1.640398848e-07
2.935668242e-07
6.895202122e-08
1.444007117e-07
1.813917245e-07
1.105602755e-07
1.32029754e-07
1.338172496e-07
6.312739338e-07
1.873965816e-07
8.889246485e-07
4.045271353e-07
5.899167889e-07
9.116000127e-08
1.29724347e-07
1.526291855e-07
6.60888656e-07
3.052368604e-07
1.326954845e-07
1.025567192e-07
9.12396075e-08
1.30724438e-07
7.899039783e-07
3.989682642e-07
1.189222124e-07
7.238831706e-07
8.549984618e-08
2.539904461e-07
7.897674472e-08
1.586262366e-07
1.343761643e-07
8.053600965e-08
8.478281235e-07
1.382520124e-07
1.336809466e-07
1.272766339e-07
2.410746118e-07
3.319371412e-07
7.845942742e-08
1.779421947e-07
1.974774889e-07
1.686914201e-07
8.187407421e-08
1.149599227e-07
1.590421119e-07
1.020490614e-07
9.082229912e-08
4.451741378e-07
1.3731562e-07
2.188394886e-07
8.947893713e-08
3.293187235e-07
1.275249544e-07
2.718688214e-07
8.646549428e-07
7.613807303e-08
2.751094583e-07
5.119065028e-07
7.814292436e-08
4.204389865e-07
1.451916576e-07
1.303108502e-07
6.523417105e-07
7.161270681e-08
7.371570042e-08
1.702949333e-07
1.511589174e-07
2.582443004e-07
7.641544844e-08
1.512477494e-07
2.448117699e-07
1.174331785e-07
1.205670755e-07
7.350586518e-08
1.291038423e-07
7.997469763e-08
9.386745568e-08
1.400115199e-07
3.392910285e-07
5.781366479e-07
1.765056878e-07
1.141402525e-07
3.174791258e-07
6.605275982e-07
6.798211933e-08
1.957539473e-07
1.43368797e-07
6.786336829e-07
7.836188683e-08
6.941070148e-08
3.820712633e-07
4.908561647e-07
1.447751074e-07
4.204389877e-07
9.427681801e-08
1.422093543e-07
2.514253602e-07
8.750194687e-07
)


// ************************************************************************* //
