/*--------------------------------*- C++ -*----------------------------------*\
  =========                 |
  \\      /  F ield         | OpenFOAM: The Open Source CFD Toolbox
   \\    /   O peration     | Website:  https://openfoam.org
    \\  /    A nd           | Version:  8
     \\/     M anipulation  |
\*---------------------------------------------------------------------------*/
FoamFile
{
    version     2.0;
    format      ascii;
    class       labelField;
    location    "0.9/lagrangian/reactingCloud1";
    object      origId;
}
// * * * * * * * * * * * * * * * * * * * * * * * * * * * * * * * * * * * * * //


147
(
142
145
147
148
149
150
223
222
230
219
228
231
217
216
209
348
155
252
250
156
157
241
158
159
161
163
165
166
454
168
169
170
214
172
173
229
176
178
232
382
185
240
186
397
384
388
187
188
189
190
191
192
193
194
195
198
199
411
413
200
201
202
203
204
205
412
206
400
207
208
210
211
213
214
215
216
217
218
219
220
282
222
223
224
225
291
226
197
227
228
229
293
230
231
200
199
233
234
236
414
235
236
237
238
433
239
240
241
242
243
244
245
423
633
246
247
208
248
249
250
251
252
253
254
255
630
455
256
257
629
281
426
258
259
260
261
262
263
264
265
459
266
632
267
268
269
461
)


// ************************************************************************* //
