/*--------------------------------*- C++ -*----------------------------------*\
  =========                 |
  \\      /  F ield         | OpenFOAM: The Open Source CFD Toolbox
   \\    /   O peration     | Website:  https://openfoam.org
    \\  /    A nd           | Version:  8
     \\/     M anipulation  |
\*---------------------------------------------------------------------------*/
FoamFile
{
    version     2.0;
    format      ascii;
    class       scalarField;
    location    "0.3/lagrangian/reactingCloud1";
    object      age;
}
// * * * * * * * * * * * * * * * * * * * * * * * * * * * * * * * * * * * * * //


118
(
0.1858769679
0.186311788
0.1635139248
0.1613313157
0.2022603058
0.1578391411
0.1563113147
0.1547004724
0.1493591551
0.1493591551
0.1473771767
0.1462383555
0.1589304457
0.1400314559
0.1394102633
0.1535309732
0.1308582966
0.1283552009
0.1663513166
0.1276636106
0.1238100572
0.1362978062
0.1382190902
0.1225702672
0.1209830237
0.1353344154
0.1203839478
0.1324465912
0.1145726969
0.1285857309
0.1131950885
0.1114109058
0.1065069817
0.1181919684
0.1005001016
0.1115739187
0.1097571513
0.09563119397
0.1142768831
0.106138662
0.1035007115
0.09895486896
0.07974379537
0.1822949707
0.06769891073
0.06669636112
0.06557610348
0.07416628138
0.07198511975
0.08408889693
0.05610495803
0.07496362077
0.05167923394
0.07174968144
0.05109971528
0.05016030861
0.09427150875
0.0496818311
0.04757668871
0.06610732504
0.06610732504
0.04635621115
0.04431320381
0.1102532776
0.05811114934
0.04119704284
0.05693152212
0.04054051626
0.06351484258
0.03980192386
0.0520914498
0.09517796556
0.07641365674
0.09002740207
0.0260148657
0.06011374441
0.0252762733
0.09013547818
0.02470071099
0.09985994398
0.06405612386
0.01987700312
0.06956054148
0.01642730226
0.01624272583
0.01605655817
0.1115739187
0.06991641475
0.1400314559
0.01530076789
0.09217149603
0.02814857708
0.01204390834
0.1409054073
0.01052479547
0.1050194026
0.009400788186
0.009094240745
0.008481145863
0.008378963383
0.008174598423
0.007765868502
0.04013018715
0.08668387925
0.006130948817
0.006028766337
0.005824401376
0.005620036416
0.005006941534
0.004393846652
0.004291664172
0.004087299211
0.003372021849
0.002043649606
0.1169352487
0.001204293518
0.001094812289
0.0009853310599
)


// ************************************************************************* //
