/*--------------------------------*- C++ -*----------------------------------*\
  =========                 |
  \\      /  F ield         | OpenFOAM: The Open Source CFD Toolbox
   \\    /   O peration     | Website:  https://openfoam.org
    \\  /    A nd           | Version:  8
     \\/     M anipulation  |
\*---------------------------------------------------------------------------*/
FoamFile
{
    version     2.0;
    format      ascii;
    class       scalarField;
    location    "0.3/lagrangian/reactingCloud1";
    object      d;
}
// * * * * * * * * * * * * * * * * * * * * * * * * * * * * * * * * * * * * * //


118
(
0.0005008881275
0.0009105329714
0.0006314915633
0.0005359989418
0.000551024999
0.0006825346606
0.0005422732665
0.0007905071563
0.0007115236446
0.0006488612148
0.001044933881
0.0006233571696
0.0005129687218
0.0006183914934
0.0005003174016
0.0005216235091
0.0005851430126
0.0007191508156
0.0005691039947
0.0005234640289
0.0006035632653
0.001089396173
0.0005917148202
0.0006029782903
0.000559412244
0.0005046543162
0.0006043836141
0.0005226696961
0.0006873456865
0.0007012910442
0.0007722289343
0.0005506456707
0.0006932736462
0.0007590051002
0.0005454347907
0.0005743023327
0.0005533372963
0.0007457144778
0.0005724247778
0.0006635501751
0.0005723554868
0.0006426045109
0.0007833936592
0.0006626903456
0.0007669265336
0.0005018408886
0.0005246938508
0.0006906261129
0.0005856343663
0.0007443006471
0.0005101829668
0.0006401220959
0.0005772536987
0.0006622572468
0.0005151211486
0.0006179398274
0.0007605674901
0.0006419450989
0.0006119023409
0.0006577083602
0.000524916601
0.0008758787022
0.0007772549941
0.0005793205803
0.0006119023409
0.0007706150403
0.001122597136
0.001156563691
0.0006021729306
0.0006190743176
0.0006542514865
0.0005389996318
0.0006236820255
0.0007752865043
0.0008892429358
0.001019924692
0.001190654841
0.0006924267827
0.0006434573852
0.0005654290872
0.0007754248356
0.0009752225296
0.0006488833965
0.0007725225321
0.0007442184151
0.0009475076531
0.0005959866406
0.0005679086296
0.001092578476
0.0006087606697
0.0006449986523
0.000504801141
0.0009471794099
0.00102211911
0.0007531709922
0.0006333563611
0.0006688694871
0.0005677458533
0.0005419113158
0.0006269801282
0.0007069514233
0.0007034059327
0.0008231458325
0.0005979964963
0.0008491885094
0.0006547649137
0.0006620990789
0.0008803412941
0.0005391524846
0.0005028992971
0.0005528881865
0.0007612701702
0.0007455892949
0.0005746176783
0.0005817602399
0.0009772847138
0.0006104332912
0.0005119278878
)


// ************************************************************************* //
