/*--------------------------------*- C++ -*----------------------------------*\
  =========                 |
  \\      /  F ield         | OpenFOAM: The Open Source CFD Toolbox
   \\    /   O peration     | Website:  https://openfoam.org
    \\  /    A nd           | Version:  8
     \\/     M anipulation  |
\*---------------------------------------------------------------------------*/
FoamFile
{
    version     2.0;
    format      ascii;
    class       scalarField;
    location    "0.3/lagrangian/reactingCloud1";
    object      mass0;
}
// * * * * * * * * * * * * * * * * * * * * * * * * * * * * * * * * * * * * * //


118
(
6.543809247e-08
3.952625357e-07
1.311327221e-07
8.018630751e-08
8.760169909e-08
1.655703437e-07
8.303534651e-08
2.572324984e-07
1.875756363e-07
1.42253796e-07
5.94120929e-07
1.261302613e-07
7.028798168e-08
1.231399418e-07
6.521466196e-08
7.390603227e-08
1.043264644e-07
1.936726748e-07
9.651026863e-08
7.469111647e-08
1.144924416e-07
6.769493237e-07
1.078811975e-07
1.14159865e-07
9.116000115e-08
6.692531044e-08
1.149599226e-07
7.476194386e-08
1.690962799e-07
1.795987446e-07
2.397985921e-07
8.694109502e-08
1.735091947e-07
2.289458127e-07
8.449615124e-08
9.863479796e-08
8.822227435e-08
2.159365429e-07
9.820958934e-08
1.521352045e-07
9.763509877e-08
1.381782627e-07
2.503505658e-07
1.523809066e-07
2.348928021e-07
6.581222124e-08
7.521878978e-08
1.724755776e-07
1.045894986e-07
2.158956103e-07
6.914906052e-08
1.365830711e-07
1.001632926e-07
1.512476293e-07
7.117648893e-08
1.228703176e-07
2.303625599e-07
1.377533221e-07
1.193039334e-07
1.481523365e-07
7.573027717e-08
3.498970792e-07
2.445113267e-07
1.018018085e-07
1.199623504e-07
2.382982546e-07
7.366822547e-07
8.055955933e-07
1.137030475e-07
1.235483024e-07
1.466333567e-07
8.15405852e-08
1.263275583e-07
2.426582665e-07
3.661589809e-07
5.555241453e-07
8.789538364e-07
1.738281851e-07
1.387291702e-07
9.413320733e-08
2.441280837e-07
4.829693793e-07
1.422683856e-07
2.40072207e-07
2.146395036e-07
4.429519307e-07
1.102346159e-07
9.537703626e-08
6.791509929e-07
1.174757369e-07
1.397284495e-07
6.735341274e-08
4.424917374e-07
5.560488443e-07
2.224790776e-07
1.322978629e-07
1.55823363e-07
9.529504772e-08
8.286918702e-08
1.283422791e-07
1.839827641e-07
1.812285013e-07
2.920310121e-07
1.113536191e-07
3.188752014e-07
1.461721444e-07
1.511392871e-07
3.552725399e-07
8.160997643e-08
6.622950446e-08
8.80076349e-08
2.297337795e-07
2.158278132e-07
9.879736645e-08
1.025275377e-07
4.860396935e-07
1.184467235e-07
6.986099798e-08
)


// ************************************************************************* //
