/*--------------------------------*- C++ -*----------------------------------*\
  =========                 |
  \\      /  F ield         | OpenFOAM: The Open Source CFD Toolbox
   \\    /   O peration     | Website:  https://openfoam.org
    \\  /    A nd           | Version:  8
     \\/     M anipulation  |
\*---------------------------------------------------------------------------*/
FoamFile
{
    version     2.0;
    format      ascii;
    class       vectorField;
    location    "0.3/lagrangian/reactingCloud1";
    object      U;
}
// * * * * * * * * * * * * * * * * * * * * * * * * * * * * * * * * * * * * * //


118
(
(0.129398242 0.01358020207 -1.363763244)
(0.6409288888 0.5887863591 -3.176327159)
(0.09791803295 0.07986094886 -1.366807069)
(0.1669201935 0.1805744696 -1.280593276)
(0.984289714 0.1793751193 -2.800864724)
(0.3513128749 0.4660751741 -1.337866892)
(0.3948694001 0.5313403539 -1.244465917)
(0.4777519812 0.5192363735 -1.352456834)
(0.6199956927 0.6462489331 -1.279492328)
(0.4081740356 0.3142628747 -1.2608504)
(0.1979422764 0.1266014479 -1.373398286)
(0.1664866523 0.08761236686 -1.289102746)
(0.6208142688 0.3834059264 -1.238503766)
(-0.1093978321 0.09255763216 -1.213068296)
(0.2926787634 -0.1020477542 -1.196127978)
(0.7013770164 0.3549781274 -1.231240065)
(-0.1645660874 0.09306005149 -1.149857433)
(0.02515529152 0.02971108169 -1.165300707)
(0.622877718 0.2260417634 -3.038357178)
(0.1715317203 -0.1487361763 -1.126376343)
(-0.09227470758 0.05091622262 -1.109918829)
(0.6312922248 1.007774707 -2.586467103)
(0.255218032 0.1220407276 -1.192634837)
(0.07492426101 -0.03337590649 -1.09396261)
(0.1234578337 -0.1776464096 -1.04288776)
(0.2398461503 0.1268257057 -1.158469973)
(0.1598893622 -0.2084509889 -1.055747946)
(0.6068398073 0.7266390018 -2.63215705)
(0.1885534869 -0.2939769121 -1.044253285)
(0.28214342 0.1379706416 -1.183512605)
(0.07510039134 -0.1521413453 -1.052385625)
(0.1078539967 -0.1881533563 -0.9976964789)
(0.07371287109 -0.1071972639 -0.9900932829)
(0.8906781566 0.5966792225 -2.564201504)
(0.1010575664 -0.1600018212 -0.9107003336)
(0.3648900882 0.164518994 -1.044120261)
(0.3111975373 0.1787699739 -1.007824274)
(-0.0630870237 -0.0008300407666 -0.9084615097)
(0.9372687507 0.4410621863 -2.501234931)
(0.3168081388 0.1748202957 -0.9997588014)
(0.3222903324 0.1607392321 -0.9712735513)
(0.3231769333 0.1469258915 -0.9324331103)
(0.1760739049 -0.02727036587 -0.7602484465)
(0.1514269273 0.6938658697 -3.151545935)
(0.8153291609 0.5717972162 -0.6508728249)
(0.9611205009 0.6803311881 -0.6136111973)
(1.000026519 0.698867741 -0.6042862905)
(0.8157747617 0.762719637 -2.16009498)
(0.7130783934 0.554465396 -0.6825258261)
(0.3065495886 1.10805857 -2.19331365)
(0.2506559478 0.2680952863 -0.5232585497)
(0.7051733519 0.4360985519 -0.7124706414)
(-0.06039309994 -0.01624611918 -0.4846951995)
(0.8656024087 0.4563202335 -0.6817005533)
(0.04429796583 0.06547888762 -0.4801100651)
(0.1918291416 0.1860095658 -0.4794380131)
(1.020792573 0.2048541664 -2.407074405)
(1.032246174 0.7378872953 -0.4805714252)
(0.8974037774 0.5008191831 -0.4591228056)
(1.010591029 0.467244047 -0.6267600411)
(0.540800287 0.4743095629 -2.365128364)
(1.285549642 0.7302823924 -0.449901707)
(1.389829801 0.6365812099 -0.4277411224)
(0.8745877102 -0.0975167567 -2.624354739)
(0.8329835636 0.5788602152 -2.156346066)
(1.357130519 0.5710731405 -0.400875706)
(0.2451928015 0.1110355516 -0.5554173042)
(0.09291792665 0.1256851032 -0.3954089415)
(0.8877318587 0.3640815795 -0.6001338501)
(-0.244762319 -0.08134615815 -0.3768119314)
(0.450847228 1.028375598 -2.021911604)
(0.2944778638 0.03686244776 -0.8777903859)
(0.5374117483 0.2620834134 -0.7182114524)
(0.1604644315 0.1115938876 -0.8637107449)
(0.4217745084 0.5671438474 -0.2546560666)
(0.2907426437 0.2817513112 -2.500112997)
(0.1827675831 0.3652461792 -0.2477096743)
(0.8149170185 -0.01906808064 -2.530383113)
(0.6350877122 0.6623340728 -0.2420148249)
(0.349807294 0.0970281016 -0.9238970518)
(0.6202506717 0.1474831462 -2.438447023)
(-0.06559973765 0.4030313012 -0.1948716759)
(0.453375325 0.1489989638 -0.6628948862)
(0.3007914318 0.5577929941 -0.1612704904)
(0.6701117853 0.54264853 -0.1591955186)
(0.09310806112 0.5304323053 -0.1579618495)
(0.2268407486 0.07617346374 -1.014662733)
(0.2412869143 0.04232412484 -0.6673911141)
(0.1902726121 0.02320860572 -1.32211434)
(0.09587013599 0.5352028499 -0.1501691242)
(0.3509072278 0.1014547159 -0.8734513413)
(0.561713863 0.9576823872 -1.869854662)
(0.1147528927 0.5134651589 -0.1187814926)
(0.4836901227 0.1782270966 -1.317041816)
(0.07477210955 0.4908088402 -0.1037970423)
(0.3491629039 0.07947424338 -0.9721142152)
(0.04665862474 0.4772270456 -0.09268323468)
(0.30815601 0.3777064125 -0.08901843857)
(0.09986314175 -0.2556657652 -0.08224888406)
(0.03685130266 0.1289650396 -0.0820114871)
(0.01090058688 0.4650939671 -0.08063851171)
(-0.3972505352 -0.3687144374 -0.07495875632)
(0.6513306772 0.2979501229 -2.212201267)
(0.341612605 0.09894143134 -0.8216155835)
(-0.3262102607 0.004283050749 -0.06001519979)
(0.1016664929 -0.3702064367 -0.05854796686)
(-0.01319131734 -0.06618076935 -0.05666047051)
(-0.007022571504 0.4448211131 -0.0556713802)
(0.1978065555 0.437348263 -0.04952722945)
(0.1150949708 -0.1935581338 -0.04278709157)
(-0.03331828393 0.3907727789 -0.04258745523)
(0.1706689257 0.3539210206 -0.04044296546)
(-0.2083984242 -0.3342584456 -0.03251239553)
(0.1188434306 -0.4834137961 -0.01927023678)
(0.2097871418 0.06330938478 -1.062020853)
(-0.02202668076 0.02370721224 -0.01188291657)
(0.02772762817 0.2925018842 -0.01121288564)
(0.491074795 -0.6221924005 -0.008686896077)
)


// ************************************************************************* //
