/*--------------------------------*- C++ -*----------------------------------*\
  =========                 |
  \\      /  F ield         | OpenFOAM: The Open Source CFD Toolbox
   \\    /   O peration     | Website:  https://openfoam.org
    \\  /    A nd           | Version:  8
     \\/     M anipulation  |
\*---------------------------------------------------------------------------*/
FoamFile
{
    version     2.0;
    format      ascii;
    class       volScalarField;
    location    "1.1";
    object      alphat;
}
// * * * * * * * * * * * * * * * * * * * * * * * * * * * * * * * * * * * * * //

dimensions      [1 -1 -1 0 0 0 0];

internalField   nonuniform List<scalar> 
67286
(
0.000165091521
0.0001891660295
0.0001970021268
0.0002219942576
0.0002547023
0.0002882875143
0.0003187808704
0.0003381641632
0.0003181710663
0.0002793514762
0.0002362799615
0.0001918197811
0.0001497649895
0.0001300669919
0.0001294370648
0.000134018224
0.0001427353104
0.0001539784958
0.0001673553085
0.0001838157984
0.0002053351624
0.0002347089834
0.0002623111119
0.0001989444718
0.0002219612872
0.0002580109115
0.0002931763297
0.0003079825826
0.0001628748522
0.0001909118088
0.0002121046554
0.000249049662
0.0002915691638
0.0003349053478
0.000373032057
0.0003956927349
0.000375132083
0.0003279037951
0.0002792085271
0.0002294595776
0.0001787216684
0.0001409124906
0.000140499088
0.0001482851622
0.0001594632274
0.0001716905882
0.0001875307942
0.0002113904572
0.00024774959
0.0002970464553
0.0003396830813
0.0002177895223
0.0002116805175
0.0002503952102
0.0002833595401
0.0003015001369
0.0003150525584
0.0003027281982
0.0002690044586
0.0002290808973
0.0001612222804
0.0001975105932
0.0002330119494
0.0002810593408
0.0003338452337
0.0003853154321
0.0004288346433
0.0004523712421
0.0004330105061
0.0003801146531
0.0003252019276
0.0002702198705
0.0002102723198
0.0001607454118
0.0001573104453
0.000167671837
0.000180712051
0.0001921560611
0.0002073968749
0.0002353779421
0.0002844103652
0.000350375093
0.0004006784019
0.0002617255147
0.0002041837872
0.0002510118923
0.0002794536776
0.00027490514
0.0002771031463
0.0002625041703
0.000233518593
0.0002142797886
0.0001613072118
0.0002090987647
0.0002565590468
0.0003135133878
0.0003744627903
0.0004313325724
0.0004777146581
0.0004999783347
0.0004817737654
0.0004281190451
0.0003691488435
0.0003087934159
0.0002366523953
0.0001834912053
0.0001803582198
0.0001929184619
0.0002064371619
0.0002132764373
0.0002162079555
0.0002181554595
0.0002222561223
0.0002367740859
0.00026797421
0.0001980442505
0.0001910157581
0.0001966523482
0.0002151590749
0.0002353208791
0.0002296031646
0.0002129362524
0.0002229510319
0.0002304958763
0.0002316943188
0.0001662425084
0.0002228015045
0.0002761334207
0.0003362839288
0.0004026051903
0.0004606661173
0.0005059238224
0.0005254284491
0.0005035386005
0.0004462457305
0.0003932938602
0.0003291386835
0.000248243039
0.0002065360561
0.0002093719298
0.0002244040332
0.0002385953616
0.0002437748028
0.000244002024
0.0002420122867
0.0002372114191
0.0002292010199
0.0002202829953
0.0002081073007
0.0002039663524
0.0002087243416
0.0002159375148
0.0002330125353
0.0001968438494
0.0002045434703
0.0002492014918
0.0002584444669
0.0002461372871
0.0001734162404
0.0002407243026
0.0002992636001
0.00035338782
0.0003992295667
0.000446364736
0.0004927488859
0.0005153208454
0.0004807928422
0.0004366265154
0.0003983312809
0.0003138157437
0.0002437547498
0.0002342623371
0.0002421084702
0.0002603967521
0.0002749470637
0.0002779291099
0.0002753633711
0.0002709654116
0.0002625205104
0.0002487691566
0.0002310446716
0.0002164338856
0.0002090572895
0.0002117470598
0.000220989063
0.0001900650765
0.0001978797382
0.0002405184557
0.0002758753137
0.0002573881833
0.0002533273836
0.0001626438945
0.0002172365404
0.0002753323757
0.0003294813553
0.0003738725176
0.0004152439452
0.0004449873572
0.000440339828
0.0004381237058
0.000533135705
0.0004908805059
0.0003240943337
0.0002623849961
0.0002657718073
0.0002777002963
0.0003017181921
0.0003169985085
0.0003176033973
0.000310931859
0.0003024948635
0.0002904884799
0.0002715565748
0.000245583117
0.0002244941717
0.0002110108086
0.0002052521289
0.0001864481672
0.0001883272484
0.00022041963
0.0002579835935
0.0002827992211
0.0002627977183
0.0002732188361
0.000157242821
0.0001998845358
0.0002469906704
0.0002953735016
0.0003375398082
0.0003739722809
0.0003984613194
0.0003942709426
0.0003746827136
0.0004186571319
0.0004350470985
0.0003630455019
0.0002927067523
0.0002966225164
0.0003190528478
0.0003504319758
0.0003668673639
0.0003642567562
0.0003503599596
0.0003359748631
0.0003225571837
0.0003056064958
0.0002815820785
0.000257952317
0.000225572428
0.0002076923487
0.0001774063677
0.000189470277
0.0002184053909
0.0002461353092
0.0002649360328
0.0002766543772
0.0003449327354
0.0001533276968
0.000186964127
0.0002232812266
0.000261565563
0.0002973597782
0.0003287654
0.0003501644248
0.0003454145851
0.0003112004939
0.0003381687717
0.0003424089422
0.0003009538155
0.0003110299991
0.0003324084969
0.0003704117357
0.000407430828
0.0004235743818
0.0004159106674
0.0003920179695
0.0003672638357
0.0003512220666
0.0003411139382
0.0003329062392
0.0003211530574
0.000257357308
0.0002050290213
0.0001861910482
0.0002039853424
0.0002178492722
0.0002374009468
0.0002752894981
0.0003542191394
0.0004615363081
0.0001485210089
0.0001722737027
0.0002002275381
0.000230694915
0.0002591944451
0.0002844861197
0.0003022747972
0.0002966133556
0.0002486370287
0.0002636864361
0.00027554932
0.0002772255421
0.0003202057508
0.0003747816491
0.0004278848389
0.0004649582356
0.0004783593715
0.0004664725372
0.0004335883809
0.0003957196734
0.0003771224584
0.0003793038229
0.0003922497073
0.0003977419118
0.0003143297337
0.0001988231475
0.00019289148
0.0001947477599
0.0002206574517
0.00027008751
0.0003593436048
0.0004816750585
0.0005877718768
0.0001435257839
0.0001579846674
0.0001773337224
0.0002014279346
0.0002242608169
0.0002437960543
0.0002563226369
0.0002475992794
0.0001957628036
0.0002077012159
0.000245560014
0.0002998838717
0.0003646618675
0.000423231084
0.0004715169149
0.0005036902609
0.0005146155226
0.0005027951815
0.0004669859935
0.0004178056365
0.0004021725084
0.0004209697911
0.0004471563776
0.0004541966725
0.0003859546698
0.0002211883429
0.0001958326508
0.0002277350565
0.0002751500583
0.0003494848531
0.0004666450091
0.0005975254029
0.0006772400997
0.0001391799521
0.0001507744348
0.0001624411644
0.0001777374209
0.0001935500204
0.000207324136
0.000214576379
0.0002025947346
0.0001635576971
0.0001882602164
0.0002473171773
0.000314976627
0.0003753095527
0.0004253999198
0.000468880105
0.0004990560343
0.0005088791553
0.000494493268
0.0004486496462
0.0003997303217
0.0004194553395
0.0004532208141
0.0004769227857
0.0004787281511
0.0004052802024
0.0002991976012
0.0002592623577
0.0003125258222
0.0003463976647
0.0003888063755
0.0004446694829
0.0005678981554
0.000681791463
0.0001364751981
0.0001520092446
0.0001602270214
0.0001676607682
0.0001743404716
0.000179661404
0.0001805155174
0.0001682605028
0.0001487587785
0.0001717962035
0.0002241190814
0.0002874548385
0.0003455946988
0.0003919112068
0.0004298225668
0.0004580950754
0.0004677293377
0.0004522143888
0.000406108371
0.0003712303232
0.0003920544008
0.0004210008701
0.0004415610039
0.0004376477029
0.0003324548258
0.0002977412695
0.0003702989249
0.0004185935625
0.000458852855
0.0005835602957
0.0003548654854
0.000441346673
0.0005727650038
0.0001363458669
0.0001558924501
0.0001627558741
0.0001663694769
0.0001671148915
0.0001655751641
0.0001644463991
0.0001582592712
0.0001432313979
0.0001583783799
0.0001931121573
0.0002440477141
0.0002991386881
0.0003453683132
0.0003808683838
0.0004054386594
0.0004137715363
0.0004000669123
0.000366802041
0.0003523089759
0.0003647007083
0.000378242509
0.0003883542145
0.0003758930651
0.0003130764962
0.0003944700279
0.0004578469039
0.0005036995121
0.0005549197916
0.0007521742873
0.0004379463411
0.000347750586
0.0004548259672
0.0001377538533
0.0001583137627
0.0001636077049
0.0001654072657
0.0001675079211
0.0001840219305
0.0002169166841
0.0002118393461
0.0001524689577
0.0001622087908
0.0001773828092
0.0002043726837
0.0002463306183
0.0002987995111
0.0003302437482
0.0003540015774
0.0003617921501
0.000353850069
0.0003388140877
0.0003384952336
0.0003430994986
0.0003425198626
0.0003429327661
0.0003453311924
0.0003894864078
0.0004633339793
0.0005203314545
0.0005609270056
0.0005865489514
0.0006119763888
0.0005371987902
0.0004258293358
0.0003711311088
0.0001384980434
0.0001578083045
0.0001621358189
0.0001685295809
0.0001937944329
0.0002507721178
0.0002998853798
0.0002883212694
0.0002175619524
0.0002106103626
0.0002101888551
0.0002189857443
0.0002852560774
0.0005329317104
0.0003807530601
0.0003041075844
0.0003157730616
0.000316001579
0.0003157899161
0.0003246705478
0.0003388351654
0.000368881942
0.0003519658302
0.0003823876773
0.0004537437053
0.0005112775435
0.0005592855642
0.0005939825671
0.0006142095641
0.0006188983724
0.000589852207
0.0005262140087
0.0004343724249
0.0001394190168
0.0001637987601
0.0001971960141
0.0002588437552
0.0003238042039
0.0003817080249
0.000430486194
0.0004398051976
0.0003735051883
0.0002653688798
0.000257946538
0.0002715640537
0.0002665537495
0.0002737802794
0.0002526967775
0.0002607149836
0.0002776405491
0.0002878426172
0.000305905675
0.0003560117858
0.0004638254235
0.0005713304622
0.0005278722004
0.0004205905186
0.0004678155294
0.0005205571938
0.0005655632621
0.000598716665
0.0006189423284
0.000623576713
0.0005987175937
0.0005447848214
0.0004711389609
0.00013837046
0.0001605501089
0.0001931934385
0.0002537724791
0.0003177756003
0.000375317094
0.000423006886
0.0004288616471
0.0003343501846
0.0003015922097
0.0003321234269
0.0003645126712
0.0003784284305
0.0002958492016
0.0002231678255
0.0002243416813
0.0002497579865
0.0002917642699
0.0003752453861
0.000503466202
0.0006622562764
0.0007742766473
0.0005934720116
0.000427140771
0.0004604687942
0.0005124786462
0.0005564901958
0.0005893483536
0.0006098687262
0.0006137030946
0.0005866911694
0.0005328709159
0.0004644361295
0.0001360510933
0.0001529911647
0.000174599531
0.0002234678333
0.0002829628855
0.0003325101419
0.0003660940374
0.0003587862995
0.0003032875592
0.0003431163103
0.000434716458
0.0005621575776
0.0006779712769
0.0003927916649
0.0002526292835
0.0001957486154
0.0002174844667
0.0002587629447
0.0003338067073
0.0004450198084
0.0005738419537
0.0006777364714
0.000478792839
0.0004042048331
0.0004459799534
0.0004937876854
0.0005352066739
0.0005668747437
0.0005866844894
0.0005878946716
0.000555974371
0.0004997813734
0.0004315795825
0.0001329636874
0.0001457196094
0.0001570987774
0.0001896072179
0.0002385714908
0.000283458727
0.000308730974
0.0003032439044
0.0002807154318
0.0003137268097
0.0003684053462
0.0004554910488
0.0005607337586
0.0003391235848
0.0002277338894
0.0001787197201
0.0001907009322
0.0002193454687
0.0002692656218
0.0003506919064
0.0004492036261
0.0005222384699
0.0003819526838
0.0003821718493
0.0004224447363
0.0004646064675
0.000502173146
0.0005313962356
0.0005490442285
0.0005464702463
0.0005090911418
0.0004502789427
0.0003830207908
0.0001289753933
0.0001392203713
0.0001454951263
0.0001649166438
0.0001987464853
0.0002355130993
0.0002593457882
0.0002615892556
0.0002594735887
0.0002857110911
0.0003153786165
0.0003572514566
0.0004161346502
0.0002811341033
0.0002028884625
0.0001776301287
0.0001845887297
0.0001984763588
0.0002218497252
0.0002669405951
0.000333843295
0.0003880945355
0.0003251140192
0.0003524539857
0.0003890498761
0.0004258805664
0.000459130842
0.0004849830534
0.0004993867464
0.0004934408096
0.0004498655836
0.000389327206
0.0003348972941
0.0001237275472
0.0001325371314
0.000137591298
0.0001516366352
0.0001741927959
0.0002000799909
0.0002207226108
0.0002302173758
0.0002385506294
0.0002589273148
0.0002772360154
0.0002940851784
0.0003124321395
0.0002422328153
0.0001999834014
0.0001966942511
0.0002042261014
0.0002084796606
0.0002113174041
0.0002220107646
0.0002509878308
0.0002864485132
0.0002805174129
0.0003130427056
0.000346724841
0.0003795037056
0.0004088688411
0.0004313077098
0.000442113407
0.0004332345888
0.0003828168601
0.0003301206679
0.0003079458096
0.0001169024942
0.0001252500781
0.0001309482891
0.0001448089303
0.0001638895294
0.0001832062963
0.0001995696166
0.0002113753248
0.0002221570005
0.000236168541
0.0002475593018
0.0002540467057
0.0002528949656
0.0002232210151
0.0002120791418
0.0002195913934
0.000228386018
0.0002313464647
0.0002275182774
0.0002199846932
0.0002176125007
0.0002275056076
0.000239003733
0.0002680169181
0.0002985043776
0.0003277839525
0.0003537054677
0.0003729156225
0.0003799778371
0.0003667252911
0.0003227026292
0.0002967674836
0.0003016591898
0.0001085559316
0.0001178964786
0.0001253402225
0.0001408852269
0.0001605627721
0.0001785864418
0.0001930366166
0.0002044715389
0.0002143076122
0.0002235007652
0.0002301640168
0.0002325485232
0.0002289209397
0.0002204279177
0.0002228401438
0.0002332111227
0.000243517192
0.0002479991066
0.0002444955353
0.0002331935696
0.0002177297987
0.0002057191418
0.0002066125298
0.0002262317124
0.0002519232258
0.0002768060675
0.0002989325424
0.0003153966018
0.000320652985
0.0003091667797
0.0002882275308
0.0002881384907
0.0003030907383
9.977002655e-05
0.0001114535726
0.0001207603657
0.0001376141791
0.0001584041018
0.0001770967162
0.0001916125064
0.0002028858096
0.0002120677041
0.0002194102605
0.0002240242934
0.0002249090038
0.0002222710755
0.0002200258841
0.000224930718
0.0002357591921
0.0002466504961
0.0002521642703
0.0002501712169
0.0002396493638
0.0002212450679
0.0001992327207
0.0001866884986
0.0001955007421
0.0002156680199
0.0002363695521
0.0002550710932
0.0002699421977
0.0002775181608
0.0002766770458
0.0002780203673
0.0002897021507
0.0003055072179
0.0001581985001
0.0001056705939
0.0001158647164
0.0001327988531
0.0001539836503
0.0001734369197
0.0001885119517
0.0001999155665
0.0002088421789
0.0002156443026
0.0002195425729
0.0002195939468
0.0002167375675
0.0002149438653
0.0002191341621
0.0002288168985
0.0002393814267
0.0002452201163
0.0002439526952
0.0002342076867
0.0002154826546
0.0001907394253
0.0001737634868
0.0001764313156
0.0001923504683
0.0002108052144
0.0002282461515
0.0002435440081
0.0002555622635
0.0002650139212
0.00027691274
0.0002919171591
0.0003056633583
0.0001491402716
0.0001015087531
0.0001122108155
0.000127816424
0.000147363261
0.0001662387737
0.0001814218605
0.0001928010906
0.0002012564078
0.0002072111994
0.0002102927165
0.0002099036796
0.0002070405798
0.0002051752624
0.0002082963773
0.0002162350056
0.0002249849454
0.0002305340571
0.0002294297673
0.0002199213039
0.0002017902086
0.0001782607378
0.000164269984
0.0001654338938
0.0001787948349
0.0001967908983
0.0002146364945
0.0002310406346
0.0002459599705
0.0002600124158
0.0002746176451
0.0002895446608
0.000301906001
0.0001418914262
9.938269425e-05
0.0001108760482
0.0001248675324
0.0001409687491
0.0001570103022
0.0001708934268
0.0001816959398
0.0001895299018
0.0001946425335
0.0001969539623
0.0001963566459
0.0001938211253
0.0001920922771
0.0001942721237
0.0002004629166
0.0002074492408
0.0002116965087
0.0002104727408
0.0002018247892
0.0001854198035
0.0001671472858
0.0001588427268
0.0001599554326
0.0001717521585
0.0001898427041
0.0002079984437
0.0002244471811
0.0002395820041
0.0002538743802
0.0002675929172
0.0002804581554
0.0002919025539
0.0001376736846
0.0001032793205
0.0001180257725
0.0001294457056
0.0001398712441
0.0001500797487
0.0001597877525
0.0001681348883
0.0001744834786
0.000178541381
0.0001801800053
0.000179524024
0.0001774795151
0.0001760537855
0.0001773549908
0.0001815683631
0.0001865894542
0.0001896968955
0.0001885496581
0.0001813339371
0.0001686641817
0.0001573194422
0.0001537493403
0.0001572341561
0.0001700974269
0.0001876846379
0.0002043289845
0.0002187803019
0.0002316259612
0.0002433899788
0.000254199277
0.0002638491202
0.0002719674807
0.0001896805432
0.0001156141676
0.0001287161637
0.0001356554836
0.0001401410603
0.0001438333092
0.000147451762
0.0001509594086
0.0001538957351
0.0001557434456
0.0001561754686
0.0001552247453
0.000153506659
0.0001522322833
0.0001525045193
0.0001543675747
0.0001567741983
0.0001582310422
0.0001571497072
0.0001520515979
0.0001436070157
0.0001383306356
0.0001433155673
0.0001573423278
0.0001734398351
0.0001870575728
0.0001980609866
0.0002069948174
0.0002143180885
0.0002203797017
0.0002253496154
0.0002292464739
0.0002320128121
0.0001661749083
0.0004692331455
0.0004881846513
0.0004919766522
0.000574592215
0.0006710250987
0.0007143938477
0.0007037437491
0.0006244989096
0.0005014431066
0.0003409922925
0.0002574176933
0.0002255254577
0.0002071125047
0.0001934780211
0.0001875326149
0.0001980190928
0.0002301835265
0.0002837415166
0.0003589200454
0.0004672538712
0.0006053638012
0.0005842130584
0.0003914896989
0.0003533781826
0.000587114568
0.0007691797089
0.0008583084225
0.0001645751842
0.0004620562089
0.0004980414649
0.000552767807
0.0006796945295
0.0007706877837
0.0008479175552
0.0008698420777
0.0007896829123
0.0006191046183
0.0004033952734
0.000254263997
0.0002036544278
0.0001900967199
0.0001952434612
0.0002071773197
0.0002323019778
0.0002852585877
0.0003742402952
0.0005087412221
0.0007012585451
0.0009052308453
0.0009660435343
0.0006077433622
0.0004438640633
0.0007097782503
0.0007825546046
0.0008420217278
0.0008298286766
0.0007056076996
0.0004797250934
0.0003360163465
0.0001615029405
0.0004472245695
0.0005119960204
0.0006216177957
0.0007478234666
0.0008782452113
0.001025352259
0.001092548766
0.001017880178
0.0007983153359
0.0004989186747
0.0002676603974
0.0002014523672
0.0001938711523
0.000212597101
0.0002386658222
0.0002808093178
0.0003593199696
0.0004786793568
0.0006396682088
0.0008440323247
0.001095837649
0.001202532476
0.0008006069678
0.0005706212326
0.0008212607989
0.0008192029014
0.0007794882486
0.0006854386188
0.0005045290358
0.0003664138806
0.0003951424619
0.0001564760713
0.0004263422422
0.0005390310158
0.0006932826458
0.0008116706314
0.001004103228
0.001210199216
0.001296920512
0.001223246068
0.0009786015256
0.0005885501256
0.000288587961
0.0002164842364
0.0002216210919
0.0002465660552
0.000283325506
0.0003480801202
0.0004535701985
0.0005860772125
0.0007212287779
0.0008544680179
0.0009675312221
0.0009682014911
0.0007451288749
0.0006408608413
0.00069175635
0.0007049103025
0.0006841076214
0.0004519273508
0.0003286863996
0.0004223755983
0.0005996243169
0.0007157247607
0.0001502889283
0.0004149068606
0.0005881863716
0.0007245250596
0.0008488735114
0.001068039107
0.001283184771
0.001368155168
0.001297129676
0.001047986239
0.000575407541
0.0003087981789
0.0002486535897
0.0002761911547
0.0003015372877
0.0003508150597
0.0004487075595
0.0005851856426
0.0007239875328
0.0008314530257
0.0008998215054
0.0009285036286
0.0008919007018
0.0008422133724
0.0007785940063
0.0007565137558
0.0007462028326
0.0006536986011
0.0004123880292
0.0004119641317
0.0006397227088
0.0008348582776
0.0009239192525
0.0001456242671
0.0004066906557
0.0004689486864
0.0006592401804
0.0008311394962
0.001038534317
0.001226933247
0.001298111415
0.001249886476
0.0009906902043
0.000637744464
0.0004255772394
0.0003295456267
0.0003741225395
0.0003910306574
0.0004566845352
0.0005923597137
0.000750050289
0.0008758928795
0.0009522506294
0.0009954579256
0.001011551363
0.0009975941726
0.0009501067128
0.0008934964779
0.0008453793759
0.0007984042146
0.0005401896727
0.0004726916114
0.0006356234099
0.0008200717912
0.0009314825484
0.0009886338745
0.0001417737274
0.0002956099172
0.0003539134578
0.0005213106315
0.0007423305757
0.0009381077
0.00108340678
0.001129289158
0.001080527765
0.001323233045
0.0009992583419
0.0007144103372
0.00053092452
0.0005350782592
0.0005324748341
0.0006203197619
0.0007918235729
0.0009442776254
0.00103940771
0.001093702357
0.001116876558
0.001116215962
0.001088391223
0.001022598951
0.0009513179438
0.00084367846
0.0006305972218
0.0004719825644
0.0005814922933
0.0007579447434
0.0008996991208
0.0009780894005
0.0009517606402
0.0001388077601
0.0002567761758
0.0003117346429
0.0004532533235
0.0006595085542
0.0008032350637
0.0008686344841
0.0008474270357
0.000852297233
0.0009363737816
0.0009438235033
0.0008607948452
0.0007567324753
0.0007195034319
0.000727618201
0.0008575869207
0.001039957356
0.001160202719
0.001229910596
0.001264967309
0.001273756189
0.001261059457
0.001219659484
0.001128936184
0.001020308822
0.0008704948168
0.0005801989863
0.0005259239586
0.0006372660386
0.0007823647362
0.0009079512815
0.0009757156857
0.000975652261
0.000135964762
0.0002364598352
0.0002880753723
0.0004001838511
0.0005653240865
0.0006725117877
0.0007093197996
0.0006307664255
0.000466653832
0.0005261996252
0.0006489117121
0.00070874139
0.0007650064947
0.0008391846709
0.0009587588409
0.001140137099
0.001299264012
0.00138935261
0.001432988206
0.001456297867
0.001465228006
0.001454792682
0.001412531918
0.001307738561
0.001139957196
0.0009026866178
0.0006592209551
0.0006775754697
0.0006969528775
0.0007226309661
0.0008274244319
0.001046134924
0.001180323419
0.0001332208758
0.0002274747486
0.0002772476484
0.0003607828135
0.0004767599272
0.0005575083927
0.0005637756803
0.0004474347253
0.0002951283027
0.0002708197684
0.0003405194508
0.000473032941
0.0006439167419
0.0008727974571
0.001132896369
0.001362773107
0.001507805926
0.001574844797
0.001604855659
0.001631953448
0.001655705572
0.001658884776
0.001627799029
0.001527521519
0.001329209183
0.0009181152174
0.000685463185
0.0006209838257
0.0005832495135
0.0006335347511
0.0008744695269
0.00139561118
0.001660727678
0.0001315547772
0.0002383588026
0.0002984082107
0.0003663984131
0.0004378518084
0.0004904116143
0.0004795179038
0.0003624047047
0.0002461574055
0.0002181376398
0.0002643705529
0.0003843318531
0.0006072397285
0.0009126394577
0.001214378576
0.001450679849
0.001589213909
0.001652721826
0.00168928016
0.00173546141
0.001770920617
0.001773546571
0.001740654193
0.001640481482
0.00140951544
0.0009055082756
0.0005683423221
0.0004978462298
0.0005321620131
0.0006570613863
0.001088504195
0.001665305405
0.001953412706
0.0001316112373
0.0002723141847
0.0003514162754
0.0004127977145
0.0004516357412
0.0004576685082
0.0004124132308
0.0003132381774
0.0002344834896
0.0002122913033
0.0002441339097
0.0003327267602
0.0005292418563
0.0008248104669
0.001141139015
0.001390022346
0.00153946076
0.001622242367
0.00168815782
0.00174771135
0.001757695356
0.001740020982
0.001695522336
0.001561992063
0.001245460378
0.0006614341584
0.0004122215983
0.000477757457
0.0006645802394
0.001074705496
0.00123539777
0.00159837873
0.001814173707
0.0001335644184
0.0003180135334
0.0004130241124
0.0004647806788
0.0004739773125
0.0004400444155
0.000368203247
0.0002842024306
0.0002354916388
0.0002272484245
0.0002534615024
0.0003076700689
0.0004262651861
0.0006488828865
0.0009347880529
0.001199734787
0.001375761303
0.0014901639
0.001583020715
0.001646107099
0.001653340845
0.001625446862
0.001540531553
0.001318951584
0.0008706061812
0.0004849850467
0.0005795204504
0.0009133846675
0.001600816487
0.002798145034
0.001660218736
0.00142500113
0.001515179903
0.0001366984921
0.0003549136739
0.0004532711064
0.0004895411818
0.0004750307796
0.0004171869599
0.0003348832123
0.0002647130069
0.0002366170488
0.0002440895058
0.0002730658816
0.0003092058878
0.0003750031739
0.0005153938385
0.0007181602564
0.0009457221107
0.001149349016
0.001304238227
0.001415852856
0.001473292307
0.001475077475
0.001426351148
0.001283735099
0.0009934685362
0.0006456122134
0.0007214040595
0.0011452725
0.001590880221
0.002202198171
0.003472426228
0.002159068773
0.001388331039
0.001289195577
0.0001394707725
0.0003685453102
0.0004499832806
0.0004569212739
0.0004156836428
0.000346476006
0.0002849900593
0.0002469413768
0.0002298475115
0.0002560195489
0.0003057035834
0.0003587058611
0.000436919726
0.0007045073369
0.0007667306483
0.0007950897163
0.0009482826239
0.00110937385
0.001221163273
0.001280562
0.001293011345
0.001244178137
0.001063606146
0.0007956033931
0.0007881161036
0.001189565907
0.001602921571
0.001869168496
0.002085706678
0.002425933986
0.001964593165
0.001610004823
0.001199085236
0.0001401543155
0.000358009802
0.0004198209861
0.0004086917815
0.000356029322
0.0003327521445
0.0004146500793
0.0004376621216
0.0003337059302
0.0003381485763
0.0004237991636
0.0005073541524
0.001027266785
0.002126887656
0.001851782759
0.000715219952
0.0007675645357
0.0008971294321
0.001007537888
0.001079599917
0.001166619008
0.001288953388
0.001237121006
0.0009442898953
0.001120557077
0.001516323709
0.001844974291
0.002045144954
0.00214190734
0.002153734152
0.001981283639
0.001701446082
0.001326991198
0.000139450322
0.0003260443071
0.0003469904363
0.0003082787161
0.0003152612472
0.0004813981743
0.0006963043039
0.0007340568223
0.0005941521617
0.0005096591708
0.0006685248279
0.0007926111682
0.0008665654091
0.001106516286
0.0008395518758
0.0005620139704
0.0005795584677
0.0006710348841
0.0007770797106
0.001003017384
0.001480001145
0.001859436257
0.001823436572
0.001418298793
0.001384168994
0.001675686093
0.001957306027
0.002132929123
0.002199458816
0.002163876189
0.002017167797
0.001743775406
0.001389740631
0.000136853172
0.000293005003
0.0003081280641
0.0002828363297
0.0002916504579
0.0004625602774
0.0006915078312
0.0007530756093
0.000675476266
0.0007273674001
0.0009908014587
0.001290526632
0.001402826283
0.001147298102
0.0007273244039
0.0004894671632
0.000452342392
0.0004922622074
0.0005983076308
0.0009481340709
0.001669553469
0.00204763312
0.001866592305
0.001340753394
0.00140333521
0.001688221655
0.001954691862
0.002123500654
0.002183186558
0.002135041166
0.001975236857
0.00169214565
0.001359342986
0.0001333367001
0.0002620857289
0.0002715587585
0.0002544159005
0.000252742392
0.0003271650016
0.0004805730811
0.0005638176023
0.000633382128
0.0008471422983
0.001217710329
0.001768044564
0.002082400397
0.001405173816
0.0006849821365
0.0004209907939
0.0003745009228
0.0003894207389
0.00043961594
0.0006575412633
0.001222524234
0.001612410664
0.001364297795
0.001038731014
0.001297858794
0.001591571153
0.001847321196
0.002011227896
0.002066586158
0.002006810712
0.001827431379
0.001538156816
0.001256799259
0.0001290183416
0.0002338614234
0.0002404466516
0.0002291949511
0.0002317284009
0.0002689239156
0.0003516871922
0.0004471372739
0.000574380878
0.0007936978695
0.001051140014
0.001403309828
0.001709516351
0.001081092978
0.0005223954051
0.0003584528371
0.0003369280104
0.0003514250296
0.0003633266319
0.000414814223
0.0006177681184
0.000836608569
0.0007841113378
0.0008396832655
0.001142346489
0.001413800765
0.001646098348
0.001797296905
0.00184375699
0.0017718525
0.001586862925
0.001328505506
0.001208247705
0.000123912338
0.0002094157674
0.0002161808835
0.0002105501211
0.0002167978246
0.0002503485138
0.0003206993354
0.0004181823604
0.0005346320954
0.0007019102266
0.0008430729936
0.0009561208638
0.0009564143752
0.0006925843205
0.0004237146792
0.0003519516557
0.0003653665394
0.0003902992439
0.0003892186136
0.0003728684699
0.0003945644647
0.0004680592766
0.0005339007487
0.0006958922261
0.0009528203794
0.001188517532
0.001383067188
0.001511193965
0.001546554462
0.00147406977
0.001323493441
0.001168273813
0.001273110188
0.0001178684802
0.0001891647439
0.0001973875034
0.0001965632998
0.0002077396473
0.0002430284958
0.000308830316
0.0004027369573
0.0005139272196
0.0006390188742
0.0007256574921
0.0007493196173
0.0006907481616
0.0005506311644
0.0004411070034
0.0004375856594
0.0004823995375
0.0005134257729
0.0005013141109
0.0004539655609
0.0004071273292
0.0004017017822
0.000458827668
0.0005878493319
0.0007720798007
0.0009665883991
0.00112473685
0.001229407035
0.001264575293
0.001224247589
0.001139088884
0.001182827519
0.001396381453
0.0001106324835
0.0001731401954
0.0001829964727
0.000185658551
0.0002025477417
0.0002443629649
0.0003151101362
0.0004118298963
0.0005204265659
0.0006220333276
0.0006886425648
0.0006976723035
0.0006479620505
0.0005770948629
0.0005484543562
0.0005845333304
0.0006425391064
0.0006725593926
0.0006537269677
0.0005883333485
0.0005039402434
0.0004425973396
0.0004464858277
0.0005251121113
0.0006563593454
0.0007988586986
0.0009275755651
0.001028569553
0.001086185241
0.001096004748
0.001137587058
0.001293319184
0.001510875006
0.0001023043652
0.0001612396376
0.0001733071893
0.0001787036696
0.0001999328265
0.000248312994
0.0003272939501
0.0004316830795
0.0005429609446
0.0006374790222
0.0006987272733
0.0007150714915
0.0006920395262
0.0006625562977
0.0006671847847
0.0007120374629
0.0007580008719
0.000781822491
0.0007672264104
0.0007060584079
0.0006033559862
0.0004990289217
0.0004499350138
0.0004882345814
0.0005913555738
0.0007125441754
0.0008260473764
0.0009268822134
0.001017153059
0.001101503113
0.001227244253
0.001401569205
0.001561256876
9.4052003e-05
0.0001523709735
0.0001665314549
0.0001739145638
0.0001971759659
0.0002487338668
0.0003325700314
0.0004423787174
0.0005561297013
0.0006485465411
0.0007103758475
0.0007368329601
0.0007327959653
0.0007206948465
0.0007300832522
0.0007659279358
0.000802982917
0.0008240933938
0.0008092901629
0.0007535771954
0.0006562442042
0.0005295768788
0.0004462772144
0.0004530948121
0.0005310588167
0.0006440031973
0.0007649376167
0.0008847448576
0.001008244093
0.001141819949
0.001292012466
0.001443419944
0.001550525134
8.750311653e-05
0.0001453088313
0.0001603091898
0.0001690637116
0.0001929552002
0.0002430139575
0.0003238977089
0.0004311319336
0.0005431149975
0.0006328365606
0.0006935289243
0.0007260079138
0.0007300355702
0.0007202447121
0.0007253441894
0.0007582505276
0.0007901572641
0.0008091401362
0.0007957856903
0.0007461668136
0.0006566300797
0.0005291365346
0.0004387930181
0.0004179075323
0.0004566851241
0.000545923646
0.0006698974818
0.0008119003658
0.0009647834805
0.0011248848
0.001278096989
0.001404489636
0.001501705854
0.0003621134346
0.0001505647722
0.0001615642853
0.0001720932149
0.0001955904262
0.0002389014664
0.0003073209634
0.0004008754823
0.0005050134974
0.000595141465
0.0006559481886
0.0006865588203
0.0006882439284
0.0006748790094
0.0006740879444
0.00070321443
0.0007442671551
0.0007612835248
0.000752671713
0.0007129728439
0.0006267256725
0.0005191810706
0.0004378978216
0.000390642581
0.0003828766552