/*--------------------------------*- C++ -*----------------------------------*\
  =========                 |
  \\      /  F ield         | OpenFOAM: The Open Source CFD Toolbox
   \\    /   O peration     | Website:  https://openfoam.org
    \\  /    A nd           | Version:  8
     \\/     M anipulation  |
\*---------------------------------------------------------------------------*/
FoamFile
{
    version     2.0;
    format      ascii;
    class       volScalarField;
    location    "1.1";
    object      epsilon;
}
// * * * * * * * * * * * * * * * * * * * * * * * * * * * * * * * * * * * * * //

dimensions      [0 2 -3 0 0 0 0];

internalField   nonuniform List<scalar> 
67286
(
0.1769753624
0.1941620302
0.2174457428
0.3092378051
0.466219581
0.67620295
0.9164645018
1.098035801
0.9145172096
0.6171042873
0.3723082785
0.1989493574
0.09494557313
0.06261873291
0.06163080027
0.06820896804
0.08229868289
0.1033074471
0.1325358578
0.1752328829
0.2434697722
0.3627322309
0.5089871421
0.2227805017
0.3119120266
0.491437222
0.7242035581
0.840172085
0.1698829353
0.1988281823
0.270002649
0.4353082733
0.6986077664
1.062608619
1.476055891
1.770268167
1.50741786
1.001753442
0.6150792874
0.3402355686
0.1605555649
0.07919964355
0.0785086533
0.09209810932
0.1145119233
0.1429084582
0.185845912
0.2652133739
0.4259325308
0.7370429383
1.113727433
0.2913556842
0.2695459866
0.4463113782
0.6505178216
0.7886528108
0.9027458145
0.8000821025
0.5595718253
0.3440689085
0.164438355
0.2189344673
0.3565768187
0.6252229225
1.052257149
1.62853233
2.258833419
2.663196718
2.333722374
1.568325654
0.9750703301
0.5562479678
0.2612387239
0.1171451529
0.1098953753
0.1328743017
0.1666342725
0.2005368012
0.2517169153
0.3670638805
0.6487863541
1.22373906
1.844861478
0.5100367091
0.240741488
0.4472264431
0.619035551
0.5924889761
0.611273919
0.5198322474
0.364205076
0.2803468485
0.1640262151
0.2584554122
0.4757131675
0.8712095401
1.49553731
2.302284887
3.145908521
3.618797988
3.235796676
2.258308782
1.434896927
0.8333800321
0.37244929
0.1743779595
0.1654797913
0.2023123181
0.2488202893
0.2752565387
0.2873090688
0.2953273227
0.3117684362
0.375328475
0.5477433738
0.2216845216
0.198995387
0.2166226687
0.2823886382
0.3714659837
0.3478072702
0.2768154881
0.3173425042
0.349794227
0.355884889
0.1788813569
0.3120324488
0.5949300939
1.081135177
1.872794504
2.825145647
3.760295513
4.221927576
3.717134547
2.570685191
1.74500318
1.015218664
0.4303290429
0.2496234528
0.2591741347
0.318773555
0.3848614527
0.4118438932
0.4138812072
0.4046745412
0.3818451741
0.344713162
0.3060254627
0.2581094473
0.2429113637
0.2606966169
0.2876719923
0.3610387348
0.2173470847
0.2445355464
0.4447136304
0.4952709171
0.4271383506
0.2018906949
0.3942050825
0.768044039
1.270229196
1.83896846
2.576569824
3.478706225
3.992294336
3.227442765
2.343600749
1.791149126
0.8721741529
0.4074865808
0.366109408
0.4014424361
0.4988693421
0.5900425139
0.6112718743
0.59540921
0.5682387384
0.5174536935
0.4408583489
0.3534763461
0.2903590963
0.2616530877
0.2716628982
0.3036610895
0.1960598698
0.2220112647
0.3996619792
0.6049253676
0.4898853547
0.4648748444
0.1669363621
0.2869935944
0.5881482578
1.018598113
1.499429024
2.064999164
2.55814741
2.466621261
2.31633303
4.17166392
3.401279222
0.9625271999
0.5135017776
0.5362443848
0.6061076264
0.7774719732
0.9063093206
0.9135963917
0.8580513702
0.7910383266
0.7008567828
0.5720262064
0.421872241
0.3214333568
0.2679365087
0.2480101384
0.1859083967
0.1913779234
0.3076533774
0.4950955614
0.6537236803
0.5206852577
0.5737298609
0.1515452793
0.2246521423
0.4236490754
0.7292024752
1.096467479
1.499889629
1.823670747
1.768374676
1.481604644
2.085423606
2.395212421
1.390746483
0.7215361674
0.7452076054
0.9191200626
1.222194296
1.409374465
1.382009767
1.229466836
1.08456212
0.9596738792
0.814386086
0.6331811212
0.4845671663
0.3252270496
0.2564693582
0.1596344745
0.1943668974
0.2990110181
0.4294463212
0.5347043982
0.5945169603
1.146394402
0.140846557
0.1848239366
0.3141660263
0.5059721032
0.7463825164
1.013590526
1.230690889
1.183096989
0.8466569401
1.092508521
1.160324038
0.783077148
0.8643151964
1.044935458
1.441666023
1.930740332
2.180470538
2.066453699
1.726557566
1.416738215
1.237027111
1.129569529
1.04503318
0.9370874098
0.4813306169
0.2460112715
0.1844271274
0.2437003845
0.2965625586
0.3808248236
0.584231808
1.235439139
2.787403455
0.1281831591
0.1448776378
0.2270156715
0.347571402
0.4936910538
0.654358039
0.7878150806
0.7467778131
0.4308560486
0.5128629343
0.5963448457
0.6035608688
0.9270708759
1.490819253
2.236374677
2.890264339
3.160887443
2.932304181
2.3460392
1.772758838
1.527368777
1.549698266
1.715286411
1.796673609
0.8807711338
0.2229819344
0.2058032276
0.2101579291
0.3020808796
0.5460762673
1.289462573
3.162018656
5.862032153
0.1158072744
0.1120104876
0.1578871135
0.2314574791
0.3198024337
0.4114167712
0.4791959753
0.4334145292
0.2110404266
0.2493775833
0.4143856262
0.7562542926
1.371771182
2.165166838
3.015871574
3.696613885
3.954902242
3.690656639
2.946898986
2.089062613
1.850280351
2.124617301
2.561649613
2.699877583
1.652607093
0.3063863168
0.2114416299
0.3289841025
0.5770882579
1.187727649
2.898717163
6.193078839
9.084099006
0.1056676028
0.09781432685
0.1219654155
0.1594501517
0.2058111129
0.2531282092
0.2811483572
0.2374445258
0.1233921255
0.1848479611
0.4200582973
0.877845373
1.502408098
2.205187141
2.970871757
3.600655194
3.829544342
3.515946356
2.610773389
1.816859779
2.102605067
2.671280568
3.131022198
3.180121049
1.923601017
0.772529871
0.4860485934
0.8550016082
1.157521365
1.580903641
2.498097527
5.305879394
9.329278241
0.09967847629
0.1005911392
0.1177115983
0.1346665947
0.1511747594
0.1653101875
0.1678243032
0.1362685907
0.09317139684
0.1404826601
0.3105949038
0.6627599045
1.167893524
1.720308079
2.283031967
2.777196371
2.965767856
2.680851879
1.926844666
1.454400136
1.715546284
2.13499869
2.478445274
2.427823843
1.057712701
0.7412112514
1.439735471
2.085251535
2.646729091
4.970997098
1.243814581
2.458502395
5.456939604
0.09946324433
0.1086143539
0.1236241454
0.1320440204
0.1337697794
0.1299411166
0.1268506282
0.1134379425
0.08343095006
0.1110572948
0.1988974072
0.4022647404
0.7510369011
1.174725612
1.583309737
1.91820355
2.04426081
1.84662943
1.414394056
1.249186796
1.386506993
1.547823424
1.681282103
1.533917142
0.8691905734
1.750097978
2.754015204
3.660985421
4.617948065
9.108694545
2.235900066
1.174885986
2.692587738
0.1026020635
0.1137411191
0.125575377
0.1297049685
0.1340371797
0.1755151712
0.2889884925
0.2739694438
0.1002511187
0.1202083812
0.1562269309
0.2373999451
0.4153973335
0.7241073971
1.023238262
1.270562113
1.360505922
1.272074618
1.114219351
1.11306754
1.160290487
1.152977349
1.15556699
1.178124862
1.687014786
2.861078125
4.067978719
5.108189436
5.818651743
6.319805276
4.460277899
2.210083392
1.435709176
0.1042746921
0.1126004203
0.1219465154
0.1359837067
0.2040176181
0.4442376584
0.7736534647
0.6965117655
0.2916363062
0.2658079559
0.263799689
0.2862930704
0.4882032211
2.824907704
1.397174917
0.800447368
0.9009152185
0.9036049595
0.9015209637
0.9797614626
1.108959475
1.436526102
1.243623995
1.599591943
2.688676956
3.857330859
5.062115859
6.080560847
6.734685805
6.880359621
5.967689996
4.228998324
2.363491508
0.1061619523
0.1244441364
0.2135342841
0.4853255934
0.9666241159
1.60002126
2.318945994
2.496226255
1.530534795
0.5377806585
0.4880351684
0.5707296252
0.5395748864
0.4761936551
0.4389346381
0.5001843934
0.608095349
0.6785166125
0.8083326742
1.251407912
2.766108208
5.336972205
4.276643786
2.129477635
2.945674607
4.06949683
5.231394203
6.220362719
6.884196582
7.046606737
6.230161037
4.678568903
3.017043213
0.1037227093
0.1168109444
0.1991192441
0.4528030578
0.9056658621
1.511808166
2.191452483
2.307652175
1.078465154
0.7840728998
1.043264497
1.368162257
1.543677285
0.7511348915
0.3144194644
0.3169875743
0.4362481594
0.6866208257
1.454220609
3.574042868
8.349552415
13.80630489
5.994199649
2.237071083
2.806307131
3.877050446
4.974439807
5.920679329
6.571565847
6.701416053
5.844185162
4.361429365
2.87545878
0.09863488169
0.1014503775
0.1472712429
0.3062696607
0.6315747324
1.041608476
1.40800381
1.338257383
0.7857328686
1.106880663
2.213326778
4.863401653
8.9551399
1.72329619
0.4530800379
0.2110802023
0.2865382894
0.4732487267
0.9981380358
2.394557587
5.266527299
8.963730429
3.049301491
1.885832465
2.545726789
3.460102753
4.413470025
5.253688991
5.832304108
5.870812898
4.951906729
3.581025147
2.292272263
0.0920926655
0.0880516131
0.108433797
0.1871281861
0.3742310477
0.6380826675
0.8361429884
0.7981069189
0.62332506
0.859865461
1.353847957
2.508431402
4.786326955
1.085324292
0.3294425793
0.1617015115
0.1942224398
0.2906792624
0.5233417302
1.14556072
2.457975398
3.98772167
1.548249666
1.591394119
2.156168985
2.872228547
3.632745499
4.311704347
4.761468252
4.695009544
3.782018164
2.602446339
1.590725181
0.08402966416
0.07695055083
0.08703904116
0.1247877826
0.2166047634
0.3628974663
0.4908476933
0.5076794605
0.4931369022
0.6572437926
0.8723178007
1.229420389
1.918419867
0.6271574313
0.2369677244
0.1602650855
0.17908797
0.2203384783
0.3005147811
0.5086302069
0.990792384
1.596930592
0.9620898183
1.242289587
1.675836737
2.202413307
2.764724752
3.263938598
3.567259063
3.44076888
2.592871965
1.668635229
1.062310611
0.07413645827
0.06641310822
0.07395398716
0.09826623297
0.1478929185
0.2236806099
0.3019770677
0.344882016
0.3838235071
0.4908819712
0.6007200265
0.7067295138
0.8239856307
0.4050004298
0.2293042233
0.219278483
0.2457528459
0.2609281122
0.2691162649
0.3046338823
0.4288209578
0.6393133632
0.6187113357
0.8648432182
1.178848541
1.549778555
1.942548195
2.284738696
2.46318311
2.315086211
1.585238203
1.014385022
0.8326415319
0.06247733249
0.05603316888
0.06382199455
0.08604184178
0.1245632202
0.1738676203
0.224962359
0.2680004491
0.3113045488
0.373705056
0.4301195937
0.4632606922
0.4519115733
0.3183875198
0.2744961396
0.305320916
0.3441603481
0.3583605949
0.3408006662
0.3060637475
0.2911352062
0.3275103345
0.382736219
0.5400877413
0.7478311652
0.9922680417
1.249806373
1.468088919
1.554445673
1.394072041
0.9473589945
0.7429250453
0.7868729044
0.04998874004
0.04672103034
0.05597930969
0.07935367845
0.11761211
0.1621463879
0.2050528721
0.2439666461
0.281006536
0.3186062809
0.3478971249
0.3587772462
0.3420622402
0.3073320734
0.3180173907
0.3648931151
0.4162707901
0.4405924869
0.4230455718
0.367068716
0.2974499833
0.2480082345
0.2488395712
0.3249466351
0.4487145128
0.5955982861
0.7511257793
0.8840266967
0.9305426067
0.8341467392
0.6800659289
0.6847928369
0.7996436561
0.03880543717
0.03947650048
0.05007184907
0.07397035278
0.1130037272
0.1583644626
0.2010061031
0.2389231179
0.2730935086
0.3026677372
0.3223804728
0.3263382736
0.3150148819
0.305594682
0.3262873733
0.3759931886
0.4311775413
0.4615760216
0.4515787738
0.3976166353
0.3126979897
0.2272133684
0.1850845202
0.2108714923
0.2826068514
0.3719297958
0.4675818394
0.5552040935
0.6051001983
0.6019651668
0.614789901
0.6981520057
0.8188073602
0.01878516127
0.03365299344
0.04423200573
0.06645376438
0.1037312971
0.1486531806
0.1913407254
0.2285571648
0.2608464322
0.2875042957
0.303688265
0.3040344381
0.2921453827
0.2845415853
0.3011326024
0.3429403671
0.3931910706
0.4233701879
0.4175302537
0.370011146
0.2882181876
0.1993481358
0.1498338591
0.1559021493
0.2016268986
0.2654002285
0.3371220689
0.410261857
0.4754516989
0.5320877367
0.609019105
0.7143351578
0.819804743
0.01643455362
0.02983746373
0.04020971724
0.05929020813
0.09088020467
0.1307519363
0.1703477268
0.2047993445
0.2332113807
0.2547756608
0.2665517158
0.2651757368
0.2543353329
0.2471724298
0.2582991837
0.2890076646
0.3258920882
0.3511422755
0.3466669403
0.305720551
0.23617217
0.1624772124
0.1267798378
0.1290032417
0.1625407845
0.2168234824
0.2816662263
0.351836135
0.4252847339
0.5033837432
0.5939678523
0.6966121817
0.7896989788
0.01468713212
0.02800061538
0.03882323705
0.05536855641
0.07962385581
0.110111236
0.1422162008
0.1712039841
0.1945597304
0.2109326864
0.2186990759
0.2167935129
0.2084265294
0.2026639848
0.2094057402
0.2300624848
0.2552064642
0.2715715909
0.2672750638
0.2359469958
0.1830024096
0.1338876042
0.1147659224
0.1168383464
0.1443183922
0.1950244685
0.2568821378
0.3231657081
0.3934569214
0.4685903618
0.549156532
0.632704541
0.7135620466
0.01370863812
0.03135894654
0.04686776929
0.06184649786
0.07799677094
0.09632277681
0.1162895647
0.1355982524
0.1516958214
0.1626735401
0.167312061
0.1655530656
0.15992959
0.1559794882
0.159319057
0.1709015594
0.1855786027
0.1952177665
0.1919579173
0.1709679329
0.1376447453
0.1116272529
0.1040584279
0.1109434092
0.1402417316
0.1886180075
0.2437585695
0.2995353716
0.3556952189
0.412906334
0.4706178121
0.526507997
0.5768278068
0.01440944371
0.05018859883
0.06940834601
0.08134163712
0.08970096709
0.09695072177
0.1044140216
0.1120324789
0.1187281927
0.1231159241
0.1242082933
0.1219968561
0.1179882804
0.1150235339
0.1155721042
0.1198125276
0.1255096197
0.1291127699
0.1266141184
0.1148292781
0.09679156679
0.08634354023
0.09564915099
0.1264208311
0.1696802109
0.2132800356
0.2534835477
0.2895831845
0.3215880867
0.349790401
0.3741155804
0.3939755871
0.4085096462
0.2414172145
0.1631046817
0.1644713502
0.1905997641
0.2400101396
0.321600665
0.4282641184
0.4916559816
0.4213923299
0.2414158781
0.1445924459
0.09546774577
0.06500659403
0.05288909494
0.05079258719
0.05447577213
0.06349318102
0.07796373253
0.09931706637
0.1301416553
0.1783209404
0.257776975
0.3297925601
0.202937758
0.1974733919
0.3336880428
0.4903164044
0.5339734967
0.2345581925
0.170708818
0.1863120836
0.2312923848
0.313808137
0.4786375169
0.6971475206
0.8373331331
0.7436326579
0.4278875002
0.2040047476
0.1368295415
0.08770384837
0.06241302069
0.06079567381
0.06879339913
0.08199455313
0.09921664401
0.1266407709
0.1772896957
0.286028384
0.5020535905
0.7072951366
0.3295296271
0.2200974473
0.3953103814
0.4527505767
0.4952240935
0.5416263977
0.4828943462
0.3054092467
0.2182526804
0.2217410267
0.1779324894
0.2097836395
0.2773213089
0.4317726109
0.7376161788
1.131023235
1.362845018
1.249512859
0.8059015226
0.3176380569
0.1992665329
0.1238026639
0.08293583704
0.08081484687
0.09354452611
0.1119447596
0.1314079461
0.1621190171
0.2257038622
0.3828075476
0.7061019628
0.8987142848
0.4427551358
0.2621470578
0.459785449
0.3900640805
0.3868073435
0.4480391086
0.3160096911
0.2437776184
0.2227900531
0.201586602
0.1804368592
0.2255493962
0.3331162452
0.604541689
1.095893612
1.653689411
1.929599454
1.812500652
1.331872942
0.5495353308
0.2899379774
0.1665279006
0.1187598062
0.1169904056
0.1346803044
0.1580673792
0.1746389285
0.1910639013
0.2177592207
0.2714641316
0.3700745772
0.4306447898
0.240621734
0.2011433326
0.2226596647
0.2427346527
0.282563699
0.2419755559
0.2035167573
0.26183459
0.2786866188
0.2708105715
0.1782613549
0.1785956964
0.2272346653
0.3821869026
0.7519476556
1.325060488
1.916901715
2.205006978
2.15280205
1.783535087
0.7711267914
0.3999485175
0.2088330011
0.1755392476
0.1780111408
0.2025847246
0.2327857177
0.2495079553
0.2593464281
0.268329204
0.277341455
0.2856032565
0.2786749587
0.2345181098
0.2149271579
0.2134788979
0.2426574534
0.260955387
0.1908942163
0.2203333446
0.3408969385
0.3387905075
0.3156974453
0.1619462828
0.1774090141
0.2804563008
0.3349418936
0.5590676549
0.990785449
1.622594583
2.065515497
2.161602961
1.599451543
1.04924255
0.5424090996
0.2697170372
0.2654492829
0.271987108
0.3077417459
0.3465201961
0.3629252638
0.3662832389
0.363009032
0.3530031971
0.3372756013
0.3124909531
0.2731507978
0.2400882433
0.2350599885
0.2429265376
0.1974694102
0.1886436002
0.2844018613
0.3781497341
0.3770054507
0.3620777262
0.1493831148
0.1477719292
0.2000649114
0.2692477631
0.4530192766
0.7702266365
1.191851077
1.545241921
1.638204204
5.01612767
2.602519029
0.8238889411
0.4521391911
0.3935589688
0.4084671125
0.4694504169
0.5236673352
0.5400024284
0.5255186053
0.4951920596
0.4647418962
0.4370762927
0.4024984241
0.350569645
0.2873909881
0.2371591154
0.1951317216
0.1670041315
0.2081005037
0.3008011216
0.3847557114
0.4080630345
0.4304127322
0.1402035363
0.1277656215
0.1724347942
0.240683995
0.3634572246
0.5522582275
0.7467255785
0.8956195255
1.194757017
1.55592494
1.398155645
0.9452014205
0.6418969772
0.5562223244
0.6084359064
0.7250970806
0.8153438504
0.8239297818
0.7605780687
0.6771500131
0.6153143369
0.5835553174
0.5561129599
0.496136535
0.3888053815
0.2738481924
0.1768231856
0.1749354694
0.2200511837
0.2945033817
0.3701761968
0.4558267686
0.6071580262
0.1317473538
0.1128265463
0.1447158241
0.1909907224
0.2587758466
0.3662485987
0.4635544891
0.468237677
0.4543083064
0.6326976135
0.7258399525
0.5990204995
0.6036411401
0.7040557815
0.892809316
1.12962433
1.267729812
1.236754623
1.093304338
0.9300349402
0.8260449457
0.8036378838
0.8079058457
0.7560351731
0.5959301085
0.3423508803
0.1895617669
0.1895971984
0.2307491829
0.2948776291
0.401348124
0.7186086437
1.273244888
0.1239669644
0.09789220377
0.1194616703
0.1513833637
0.1877744634
0.2377628927
0.2803862752
0.2647533235
0.2157228917
0.2449077224
0.3071092528
0.4012396017
0.599353147
0.8986550999
1.29572082
1.646321044
1.783441771
1.695155076
1.477734707
1.24339914
1.105139688
1.112855963
1.175913165
1.16190714
0.9766288659
0.4646458071
0.2171970442
0.2009746332
0.2502569456
0.3496937695
0.6532070748
1.807009447
3.054896829
0.1194615333
0.08898767898
0.1041256156
0.1291011065
0.1551668059
0.1781612573
0.1927747494
0.1771929087
0.1238516797
0.1412742332
0.2357992881
0.428738329
0.745724453
1.173136082
1.623338282
1.943964264
2.041267727
1.94270002
1.73302621
1.5015726
1.364961581
1.406960887
1.510995915
1.52978883
1.330314393
0.6241445484
0.2563560705
0.2538986229
0.36848378
0.6911499414
1.291407035
3.259737695
4.242502444
0.1197108167
0.09026463275
0.1014024171
0.1176922563
0.1336002309
0.1441496647
0.144375094
0.1230475842
0.08954327855
0.1107403835
0.1977124308
0.3617166429
0.6236186572
1.058414176
1.515617276
1.840468059
1.940493689
1.853018181
1.683254428
1.51497741
1.400918504
1.452647873
1.570399726
1.59537016
1.286676703
0.5534811571
0.3275453244
0.49786472
0.9066295797
2.586845242
1.402900949
2.513920887
4.24579104
0.1252007118
0.09818389669
0.1049035301
0.1118627368
0.1172985364
0.1181513885
0.1112977452
0.09392672156
0.07666567687
0.09126277637
0.1469341966
0.2549507051
0.4183512923
0.6828674347
1.058574754
1.369359627
1.49105812
1.454408252
1.362174402
1.281731549
1.23873936
1.292753459
1.361507494
1.279285021
0.7840609327
0.5182861813
0.8088978525
1.434832509
4.104146687
13.64420005
3.430098413
1.49730001
2.175421229
0.1342724652
0.1052951069
0.1066517406
0.1068030826
0.1066428007
0.1043016554
0.09698636362
0.08474428684
0.07119077812
0.08031809042
0.1122310656
0.1775009841
0.28266094
0.4404748863
0.631406334
0.8402964323
0.9855665997
1.039086841
1.047508756
1.04066311
1.038541456
1.057433416
1.025499876
0.8793638295
0.720812019
1.078966729
1.585426199
2.377603491
5.089715424
15.08014167
4.80128358
1.599948331
1.00541843
0.1426033344
0.10777117
0.1044061103
0.1023076462
0.1047778811
0.1153285573
0.1417374268
0.1460230165
0.09414537352
0.08790350144
0.1101633863
0.1620357635
0.3289107622
1.024813525
0.9724129381
0.5734585854
0.6539776494
0.7458776675
0.8073455401
0.8610130825
0.9242858497
0.9834260223
0.9303125276
0.848482693
1.071460889
1.548358831
2.129395435
2.677552811
3.438991871
5.792746162
3.21159662
2.009871745
1.050086496
0.1446917621
0.1055607108
0.1000941692
0.1024191635
0.1336506078
0.2713893206
0.6126933857
0.7314285419
0.4056732644
0.1824520987
0.2080941467
0.4802991277
2.538876183
7.771428255
7.28730523
0.6409117679
0.4495563271
0.5329263983
0.6527331044
0.8583467627
1.27954369
1.89824276
1.877916304
1.214299964
1.34517281
1.849553772
2.421105343
2.898817816
3.266551312
3.583173283
3.143728331
2.29789544
1.295448769
0.1424728636
0.1034562181
0.1134969003
0.1729626703
0.3872533216
0.9172384591
1.525511935
1.586049732
1.047439154
0.4406011773
0.3832837484
0.4843999798
0.7786131655
2.076250951
1.353054858
0.3068223951
0.3088265832
0.4069179788
0.6675885775
1.450907857
3.227016672
4.954773547
4.774978841
2.416895572
1.597665572
1.972464031
2.50644585
2.956522424
3.255182813
3.382381614
3.163786778
2.372580129
1.392808557
0.1345977085
0.09464506569
0.1000022278
0.1482853808
0.3619787423
0.9421349268
1.577286379
1.601467898
1.04701517
0.5804335438
0.7459707154
1.282342237
1.69218471
1.182475979
0.4852859015
0.2119348162
0.2303864158
0.3295117988
0.6272334922
1.742944915
4.664458376
7.016361505
5.395395976
2.385214457
1.548720894
1.910893321
2.413171922
2.844985468
3.126792432
3.225160636
2.962736999
2.157630569
1.300203937
0.1244204349
0.08566207771
0.08557832302
0.1143478816
0.2131238942
0.5280704778
0.9450667305
0.9494454146
0.6959412467
0.679046383
1.244083915
2.77845534
4.984732139
1.960572436
0.4413638299
0.1659800134
0.1694725149
0.2373543531
0.4305854351
1.086794398
2.992025649
4.898493353
3.389210862
1.52501086
1.32545739
1.705532264
2.16181173
2.558817602
2.813071154
2.861905742
2.505102354
1.718047081
1.107170317
0.1126465735
0.07637396115
0.07282390224
0.08886999668
0.1376252233
0.2374383678
0.3962323397
0.4349958948
0.4250321397
0.5141143774
0.8377078376
1.584524071
2.877892083
1.094370326
0.2774826598
0.1376590638
0.1374707919
0.1754169433
0.2625748767
0.4965251479
1.116232917
1.868177627
1.424761337
0.9728591792
1.061276352
1.398073839
1.779856157
2.113406279
2.312369589
2.288589289
1.878392852
1.246666594
0.9025545708
0.09972399209
0.06714955136
0.06302626479
0.07308242303
0.1030634861
0.1519738009
0.2088448744
0.2482763163
0.2894999241
0.3653235267
0.5009572085
0.7031791793
0.8496476704
0.4410355255
0.2023175194
0.1452242699
0.1515789051
0.1724020356
0.2045537053
0.2764646569
0.4439844964
0.6577688335
0.6314328819
0.6518956741
0.7929558775
1.043064138
1.32808374
1.575361648
1.702265535
1.62096566
1.27083769
0.9179927485
0.7398469959
0.08576266485
0.058115125
0.05538527876
0.06418753609
0.08684250593
0.120935726
0.1593744059
0.1938595692
0.2303045684
0.280667128
0.3380484013
0.3908158958
0.3953397001
0.2749413821
0.201686637
0.1897895329
0.204183456
0.2171097768
0.2229316248
0.2307092117
0.2623197439
0.3239094487
0.3571432791
0.4420246371
0.5631521812
0.7222973515
0.9053169788
1.064249226
1.132217475
1.054895596
0.8637782774
0.6946293704
0.6406641682
0.07085304832
0.04963609922
0.0492705133
0.05911642749
0.08066036019
0.1100213204
0.1423954881
0.1745381875
0.2074676192
0.2435100974
0.2733795942
0.2905473349
0.2853595905
0.2481690956
0.2306787633
0.2399375658
0.2590604155
0.2707204756
0.2670732508
0.2501323444
0.2310800777
0.2261224106
0.2412204881
0.2999686369
0.3865295127
0.4916125635
0.6020310597
0.6933214698
0.7328934801
0.7043686668
0.6224504247
0.5718317211
0.5858492589
0.05598783737
0.04247348822
0.04481610808
0.05611249923
0.07863813454
0.1078195738
0.1384938953
0.168853064
0.199241572
0.2286654275
0.2506533548
0.261225686
0.2593590275
0.2498374811
0.251587349
0.2685699588
0.2919447084
0.3053156088
0.2987068881
0.2722704708
0.2342993753
0.1985345014
0.1847635262
0.2112133321
0.2673141457
0.3371666528
0.4106007657
0.4743463893
0.5104040674
0.5132375427
0.5017636855
0.5150338949
0.5572859194
0.04351009478
0.03720530915
0.04168133378
0.05356358897
0.07653818525
0.1063021369
0.1367345433
0.1655352438
0.1931432324
0.2185544947
0.2372037598
0.246074315
0.2461749458
0.2437631626
0.2495094639
0.2678073619
0.2922152677
0.3065354589
0.3001368364
0.2708714634
0.226226003
0.1810447082
0.1531242625
0.1597776423
0.1957771361
0.2453149866
0.2996966468
0.3519555064
0.3934551211
0.4221951501
0.4516647123
0.4925821528
0.54373764
0.03506144478
0.03316021261
0.0383572532
0.049666306
0.07157791277
0.1004002725
0.1297819507
0.1566192077
0.180975333
0.2025720319
0.218071425
0.2248582543
0.2245059419
0.2226707094
0.2270935972
0.2417344281
0.262790684
0.2758825661
0.2699563323
0.2421116012
0.1996823391
0.1579617643
0.1308423664
0.1303672982
0.1546198103
0.1937393123
0.2405786147
0.2901891932
0.3385416408
0.3845954547
0.4334403578
0.4858483631
0.5364731758
0.008104282192
0.02984392944
0.03656897501
0.04698952696
0.06579600346
0.09057075251
0.1164362996
0.139984629
0.1603483317
0.1773123852
0.1893346036
0.1945740035
0.1942192395
0.1926061679
0.1953837792
0.2052571936
0.2188213568
0.2280944789
0.2225193356
0.1994552049
0.1667038374
0.1348220369
0.1156286849
0.1141208013
0.1311803239
0.1647512271
0.2097012493
0.2606861808
0.3144782834
0.3694825982
0.4258329493
0.481629666
0.5302722425
0.008157983454
0.03122258183
0.03831066836
0.04820433901
0.06350956065
0.08222755047
0.1021275665
0.1207856894
0.1368735894
0.1498276829
0.1588413759
0.1630263414
0.1631583541
0.1622515019
0.1642528523
0.1708566818
0.1792068176
0.1836819519
0.1787008025
0.1628015213
0.1403647382
0.1199633768
0.1092632417
0.1080308296
0.1210245865
0.1523249656
0.197559989
0.2503947169
0.3069414951
0.3645846609
0.4213982823
0.4748327009
0.5214693471
0.008093595126
0.03537717273
0.04751444674
0.05804658269
0.06950457639
0.08163381188
0.09420150728
0.1063665425
0.1173411437
0.12645859
0.1329453962
0.1362062579
0.136718521
0.1364153768
0.1377398861
0.1416425183
0.1463800721
0.1485439086
0.1448942646
0.1344434136
0.1202982544
0.1087035951
0.1032655845
0.1049377749
0.1210842258
0.1544586247
0.1991306876
0.2498382503
0.3036566582
0.3584867965
0.4125197169
0.4633820988
0.5072416938
0.03496805772
0.05402166025
0.07597723629
0.09267018745
0.1068763234
0.1192143733
0.1302150446
0.1404297762
0.1500022015
0.1582074429
0.1636910638
0.1655229293
0.164330816
0.1622438748
0.1613270113
0.1620422937
0.1632084731
0.1626346246
0.1575703206
0.1458999233
0.1292314871
0.1148518022
0.1137540404
0.1352736289
0.1759216193
0.2232836422
0.2742297588
0.3312366129
0.3950446831
0.4636135873
0.5332181271
0.5990144394
0.6551459186
0.2675290869
0.1581802766
0.1523989131
0.1725471548
0.2162101593
0.287115247
0.3683602003
0.3991607088
0.3317074178
0.2088447074
0.1161421993
0.06989911727
0.05486832596
0.04920321106
0.04705357851
0.04848555947
0.05405523224
0.06643104577
0.08852915544
0.1266210361
0.1971961896
0.3060231783
0.4176847684
0.265128093
0.2077172606
0.4313230326
0.538539483
0.5217222556
0.5734886659
0.2618952627
0.1622402348
0.1670115973
0.2033837577
0.2793382674
0.4239161821
0.6129750833
0.7143680005
0.6322615132
0.4159441984
0.2056433212
0.09441893543
0.06378408847
0.05369210425
0.05272115485
0.05786446625
0.06677654905
0.08332394964
0.1168184549
0.1906085915
0.3538930899
0.6254811227
0.8711621247
0.5249269288
0.2830848664
0.4527981471
0.4650794341
0.4931112846
0.5579057874
0.5220266145
0.3130902398
0.1825830999
0.2496009665
0.1647477419
0.1825950299
0.2416939987
0.3744826153
0.6537468416
1.018282067
1.219034526
1.143585109
0.8353392585
0.4109012758
0.141869148
0.08014353174
0.06596839285
0.06697048921
0.07596511664
0.08926807315
0.1110375149
0.1536314681
0.2525379269
0.4847345505
0.8423464591
0.872144952
0.7002717395
0.3617715186
0.4391862246
0.3644751196
0.4017892372
0.5564995969
0.4111693353
0.2419829053
0.1967425957
0.2297123239
0.1664237731
0.2011373656
0.2854427165
0.4961105237
0.9405386063
1.461082139
1.709082744
1.645748762
1.301699265
0.6780567581
0.2118615366
0.1079303694
0.09333963161
0.09534475059
0.1069103896
0.1257235649
0.1494892275
0.1795099333
0.2281689246
0.3279044273
0.5056017319
0.6197231414
0.3249245985
0.2393987611
0.3125608634
0.3074552768
0.3266837837
0.3555886472
0.2125322434
0.2256977432
0.2487873807
0.2475679936
0.200699197
0.1846099362
0.2981802717
0.3375799982
0.5535728667
1.037950886
1.586936976
1.848129877
1.804463547
1.461156285
0.7447492706
0.2894582911
0.1612246395
0.1466410325
0.1461630975
0.1597629513
0.1881342447
0.2173844653
0.2398518281
0.2567307717
0.2746008941
0.2983046664
0.3071581166
0.2536731614
0.2328345856
0.2482656947
0.2760514753
0.3031424869
0.2335436604
0.2132645563
0.2985949472
0.3074413598
0.296001173
0.160061664
0.264774937
1.4070301
0.52645065
0.4552146971
0.7551080206
1.313277259
1.647562432
1.58756029
1.368120921
0.775046894
0.4839892777
0.2939896164
0.2465385657
0.2333394957
0.250432575
0.292420198
0.3270468665
0.3413641757
0.3408567259
0.33515611
0.3291193582
0.3189315264
0.2961597982
0.2713461513
0.2783492078
0.2749413914
0.2660546266
0.1983807653
0.2594515443
0.3277913374
0.3514160609
0.3411786162
0.1472059544
0.1339263406
0.2121407178
0.258104623
0.3970659311
0.653571011
0.9623241484
1.139744513
1.15240264
1.05554023
1.163437908
0.9344286557
0.573188677
0.4115585578
0.3758346051
0.4065679824
0.4693310008
0.5038283318
0.4957567936
0.4673960799
0.4433224588
0.4316619
0.4243948927
0.4037098933
0.3533346283
0.2953986483
0.2847961322
0.1987614746
0.2032762449
0.2639257929
0.3334382244
0.3892175298
0.4150679084
0.1350181851
0.1043617648
0.1293313143
0.1845441847
0.2859142123
0.423239829
0.5570827514
0.626843009
0.6942126659
1.098737228
1.224104323
0.8741414198
0.6751534583
0.572562899
0.5782303465
0.6681519205
0.7671623785
0.7861084289
0.7280338617
0.6488409045
0.5976030671
0.5891375996
0.602995548
0.5959600419
0.5197833977
0.3917142272
0.2751884247
0.2109324743
0.2137655293
0.2642277414
0.3458985511
0.4932443123
0.645933932
0.1272876135
0.09293328995
0.1096143214
0.1443945853
0.2004502114
0.2722015407
0.3251312248
0.3308746396
0.3209879794
0.4573151719
0.6416146832
0.62110509
0.5902546969
0.6631551665
0.8364010479
1.061378696
1.199907822
1.174758259
1.041205564
0.8926409741
0.8055177169
0.8078274219
0.8614980778
0.8876131012
0.8020829878
0.58171403
0.3262790665
0.2284818337
0.2313577762
0.289253846
0.472283279
0.965638446
1.452986203
0.1240003442
0.0868412257
0.09908584509
0.1197299031
0.1452540532
0.1733725734
0.1918564866
0.1871397953
0.1525779119
0.1673846784
0.2648831353
0.3749418743
0.5329348644
0.7924084048
1.155355528
1.483123186
1.606116474
1.527827838
1.347989459
1.155941033
1.042309416
1.058289999
1.151453088
1.223376014
1.180001786
0.8791412869
0.4123639376
0.2554080864
0.2771828916
0.4458021818
0.9481123848
2.166194394
3.039424481
0.1268415945
0.08836938338
0.09878366211
0.1121420291
0.1235618692
0.1320399471
0.1336965085
0.1229113708
0.09731895478
0.1005293592
0.1607909854
0.2971463923