/*--------------------------------*- C++ -*----------------------------------*\
  =========                 |
  \\      /  F ield         | OpenFOAM: The Open Source CFD Toolbox
   \\    /   O peration     | Website:  https://openfoam.org
    \\  /    A nd           | Version:  8
     \\/     M anipulation  |
\*---------------------------------------------------------------------------*/
FoamFile
{
    version     2.0;
    format      ascii;
    class       volScalarField;
    location    "1.1";
    object      k;
}
// * * * * * * * * * * * * * * * * * * * * * * * * * * * * * * * * * * * * * //

dimensions      [0 2 -2 0 0 0 0];

internalField   nonuniform List<scalar> 
67286
(
0.01677764496
0.01881117461
0.02031529277
0.02571753876
0.03382392724
0.04333750128
0.05305379126
0.05981148544
0.05294670156
0.04075373493
0.02911236025
0.01917478547
0.01170455733
0.00885825397
0.008766790896
0.009384584534
0.01063835612
0.01237964608
0.01461836588
0.01761617464
0.02194656596
0.02863981784
0.03586527173
0.02066411775
0.02582658779
0.03495146767
0.04522796148
0.0499297555
0.01632728664
0.01912350344
0.02348936172
0.03231868202
0.04429959895
0.05855446924
0.07283444937
0.08215065036
0.07381106691
0.05625566604
0.04067640388
0.02742556208
0.01662699437
0.01036928376
0.01030879561
0.01147061279
0.013263803
0.01537498418
0.01832421162
0.0232408986
0.03188521805
0.04592731097
0.06037244347
0.02472536156
0.02344602529
0.03281287958
0.04214157215
0.04786289156
0.05234637607
0.04830657328
0.03808203975
0.02755685003
0.01598181391
0.02041099705
0.02829291214
0.04114609066
0.05817625054
0.0777532574
0.09660491142
0.1077361269
0.09867024357
0.07578581696
0.05527225431
0.03805445204
0.0230050026
0.01346926303
0.01290568032
0.01465085603
0.01703288441
0.01926799803
0.02242692968
0.02885135442
0.04216343703
0.06427221337
0.08439010104
0.0358621245
0.02176197523
0.03288691412
0.0408248487
0.03961352326
0.04039716341
0.03625868854
0.02862504003
0.02405751573
0.01596596948
0.02281814461
0.03429083855
0.05129810872
0.07345392591
0.09781324559
0.120328711
0.1320291316
0.1225531223
0.09651309614
0.07143707853
0.04979298514
0.02914079955
0.01755762597
0.01695715049
0.01939146091
0.02224586786
0.0237822428
0.02446375128
0.02491422533
0.02583779476
0.02926074159
0.03760515913
0.02056654092
0.01913676469
0.02025880991
0.02419444789
0.02902030941
0.0277377116
0.02383045447
0.02610845811
0.02787085305
0.02818544249
0.0169264238
0.02588037914
0.03978361173
0.05918408536
0.08523082366
0.1119761258
0.1353833792
0.1461921533
0.1342865689
0.105129255
0.08131473469
0.05673902401
0.03208124995
0.02228707178
0.02286480458
0.0262523973
0.02974375179
0.03110092311
0.031192279
0.03071737815
0.02954091132
0.0275898654
0.02548481846
0.02274877303
0.02184819265
0.02289636781
0.02446386969
0.02846943209
0.02030252728
0.02195210015
0.03267592942
0.03511699856
0.0318262422
0.01836599002
0.03023656085
0.04705774792
0.06576253037
0.08410277918
0.1052634787
0.1285089642
0.1407867769
0.1222700088
0.09929057968
0.08290874284
0.05135130566
0.03093467746
0.02874544957
0.03060053989
0.03537722023
0.03953472725
0.04045728896
0.03974416544
0.03851543661
0.03617677085
0.03250575024
0.02805049341
0.02460609478
0.02295661717
0.02354161403
0.02542680566
0.01894775791
0.02057313111
0.03043217533
0.0400977311
0.03485410273
0.03368382644
0.01617356768
0.02450834961
0.0394987763
0.05686286073
0.07349142727
0.09089155149
0.1047245357
0.1022955853
0.09888028471
0.1463804552
0.1268296045
0.05482198257
0.03602905364
0.03705512849
0.04026943274
0.04753961176
0.05261133973
0.05287279497
0.05069927235
0.04801425426
0.04428855153
0.03868570001
0.03159381132
0.02636697385
0.02333891054
0.02214577341
0.01827430375
0.01863436958
0.0255604352
0.03507946252
0.04220351666
0.0363087035
0.03886165677
0.01515193828
0.0207996727
0.03175083416
0.04555350314
0.05971349014
0.07351255167
0.08367168529
0.08195905295
0.07313250086
0.09171460224
0.1001964828
0.06974563198
0.04510844289
0.04614803072
0.05315325819
0.06423688326
0.07057976325
0.06964208712
0.06442108159
0.0592506259
0.05461066994
0.04896759148
0.04144562812
0.03470235342
0.02658572863
0.02265375662
0.01651810077
0.01883622554
0.02508346331
0.03191197481
0.03694363836
0.03980733575
0.0617229195
0.01442431166
0.0182460968
0.02599666113
0.03570800667
0.04624172293
0.05666130393
0.06443514426
0.06274699123
0.0503832623
0.05966113113
0.06186922085
0.04765020527
0.05089202253
0.05784865473
0.07172773758
0.08705651415
0.0943305308
0.09099659166
0.0807524553
0.07080209123
0.06469827396
0.06092820595
0.0578946136
0.05384659392
0.03454634813
0.02204435104
0.01818879514
0.02188465638
0.02494872533
0.02951317778
0.03936402733
0.06493200618
0.1113307244
0.01354319678
0.01550679208
0.02092674791
0.02779413193
0.03511176744
0.04234972222
0.04789889332
0.04619590474
0.03212635127
0.03609581984
0.03978879907
0.04015037712
0.05347902633
0.07336925405
0.09601699779
0.1137857893
0.1206962587
0.11479676
0.09899619492
0.08221114437
0.07449466834
0.07525393381
0.08051219377
0.08297501977
0.05164596233
0.02066713946
0.01955666026
0.01985734352
0.02534153303
0.03769561489
0.06681458747
0.1211354532
0.1821966753
0.01265449202
0.01305715837
0.01642407708
0.02119373808
0.02628632097
0.03108612914
0.03440031626
0.03215428155
0.01995079605
0.02233883358
0.03131075204
0.04674367865
0.06942221521
0.09396084473
0.1170489184
0.133935591
0.1400300893
0.1337086081
0.1151453808
0.09170116006
0.08467143022
0.09282773188
0.1050513178
0.1086941178
0.0783907831
0.02555216945
0.01997329508
0.02686669425
0.03911268928
0.06323888873
0.1141584156
0.1888179007
0.2434579268
0.01190340367
0.01192002123
0.013815876
0.016523956
0.01959039679
0.02248575577
0.02410854843
0.02152818786
0.01394413088
0.01831044155
0.03163692105
0.05161317312
0.07370572265
0.09506788435
0.1158470924
0.1315762622
0.1370228202
0.1294235486
0.1062307332
0.08364811164
0.09217934108
0.1080006962
0.1199441389
0.1211095498
0.08666570522
0.04718984481
0.03484345928
0.05073854927
0.06215320513
0.076953854
0.1034509418
0.1703825722
0.2475489338
0.01144826076
0.01213743459
0.01347999175
0.01474883934
0.01593495998
0.01691568007
0.01708429144
0.0148628201
0.01155566164
0.01524861278
0.02589696177
0.04284254018
0.06235876377
0.08059522124
0.0972328135
0.1107116262
0.1156053494
0.1080738501
0.08682729727
0.07212330213
0.08049822455
0.09305767501
0.1026826172
0.1011772702
0.05820523664
0.04611074479
0.07166863892
0.09170371695
0.1081689862
0.1671762368
0.0652109345
0.1022436074
0.1735298141
0.01143047604
0.01277227577
0.01392297983
0.01454817278
0.01467570111
0.01439736994
0.01417655589
0.01315152025
0.01072988151
0.01301768179
0.0192367389
0.03075425943
0.04652415559
0.0625202497
0.07622234019
0.08656093942
0.09027354917
0.08436615342
0.07069897278
0.06511597552
0.06979773537
0.07510309855
0.07931334966
0.07453239548
0.05120289141
0.08155485325
0.1102185814
0.1332894319
0.1571265653
0.2569145921
0.09712836869
0.06273963524
0.1086222175
0.0116692247
0.01317134973
0.01406910201
0.01437698723
0.01470762653
0.01764023433
0.0245753068
0.02364648472
0.01213521666
0.01370618934
0.01633976816
0.02162040927
0.03139809249
0.04565657937
0.05705816569
0.06582828439
0.0688639297
0.06585336554
0.06030844739
0.06024890004
0.06193062832
0.061682974
0.06178941106
0.06260736577
0.07956414114
0.1130117892
0.1428042256
0.1661491067
0.1813319331
0.1930314384
0.1519355197
0.0952210736
0.07164867779
0.01179569118
0.0130841999
0.01380182375
0.01485914558
0.01951716811
0.03276118258
0.04727843961
0.04398604055
0.02472432725
0.02322393858
0.02311286279
0.0245767491
0.03662917044
0.1204309496
0.07159097394
0.04842735422
0.05235294967
0.05245004844
0.05237199406
0.05535969361
0.06016778968
0.0714516676
0.06493917456
0.07676590828
0.1084142968
0.1378426775
0.1651560631
0.186539163
0.1996310127
0.2025468782
0.1841559793
0.1464236847
0.09945341151
0.01194146346
0.01401376149
0.0201416508
0.03478945441
0.05491389662
0.07670800894
0.09807019578
0.1028453007
0.07421335424
0.03707998717
0.03482590199
0.03864230508
0.03722453672
0.03544074856
0.03268973303
0.0354453936
0.04033102289
0.04337803741
0.0488091252
0.06551545792
0.1111792555
0.1713968817
0.1474781807
0.09289197573
0.1152236569
0.1428619051
0.1688344037
0.1894217711
0.2026109553
0.2057528993
0.1895710181
0.1567041748
0.1170245533
0.01175900886
0.01344185712
0.01925151943
0.03327278288
0.05265703889
0.07393660834
0.09450430246
0.09764630758
0.05894078516
0.04773099269
0.05777755746
0.06931655928
0.07502078406
0.04627062274
0.02600053443
0.02617508172
0.03239951646
0.04393257402
0.07250783521
0.1316669842
0.2308106309
0.3209209154
0.185130208
0.09594827375
0.1115782729
0.1383567865
0.1633099032
0.1833509953
0.1965006509
0.1990553284
0.1817516089
0.149636363
0.1134301174
0.01137046907
0.01222847255
0.01573956477
0.02567862021
0.04149437997
0.05776527279
0.07047097527
0.06801423466
0.04791559105
0.06048992943
0.09628030142
0.1622964408
0.2418525124
0.08075563087
0.03320787121
0.01995193933
0.0245029001
0.03434851012
0.05665718515
0.101324454
0.1706355687
0.2419278471
0.118600306
0.0856967164
0.1045864976
0.1282999766
0.1508560244
0.1693898496
0.1815657752
0.1823519948
0.1628640906
0.1313123473
0.097628223
0.0108615335
0.01111833768
0.01281093863
0.01848882194
0.02932860205
0.04174414455
0.04987036553
0.04828795261
0.04105846332
0.05098040232
0.0693202128
0.1049184515
0.1608010249
0.0595485144
0.02688534219
0.01668612066
0.01889026968
0.02478468963
0.03684642087
0.06221342307
0.1031388696
0.141647413
0.07548096816
0.0765473775
0.09367819839
0.1133872488
0.1325733458
0.1485749517
0.1587033019
0.1572220253
0.1361982373
0.1062535927
0.07661619772
0.01021837504
0.01015943263
0.01104570616
0.01408090258
0.02036554046
0.02869536221
0.0350207304
0.03576984176
0.03511095429
0.04253427568
0.05148321695
0.06505028973
0.08770015976
0.04121520448
0.02152213135
0.01656112876
0.01784628756
0.02052634811
0.02534396197
0.03616767205
0.05645141582
0.07727230926
0.05489565096
0.06494935813
0.07925574491
0.09506169094
0.1105875743
0.1234941397
0.131008023
0.1278961143
0.1060092904
0.07911339166
0.05854548953
0.00940072185
0.009208902345
0.009901214832
0.01198164459
0.01575436861
0.02076482304
0.02534093608
0.02765773555
0.02970081621
0.03499369128
0.04005651224
0.04474818795
0.04980234705
0.03074373192
0.02101914749
0.02038478084
0.02198958779
0.0228930929
0.02340721683
0.02552632399
0.03220152956
0.04200416334
0.04089179822
0.05107198557
0.06275289443
0.07527575023
0.08747624769
0.09743703965
0.1024300473
0.09830085164
0.0764636133
0.05680018014
0.04970248474
0.008388517212
0.008222876388
0.008973198806
0.01095632014
0.01402434928
0.01751829293
0.02079765677
0.0233618485
0.02581279584
0.02916001911
0.032029231
0.03367299677
0.03318248992
0.02616723532
0.02368259537
0.02541547324
0.02751867085
0.02826206141
0.02733194988
0.02546914664
0.02470594499
0.0267929621
0.02968686595
0.03734440241
0.04637558538
0.055978417
0.06526111781
0.07262626405
0.0754360798
0.07018190761
0.05427134499
0.04608850857
0.04782142999
0.007230609974
0.00728481918
0.008221880787
0.01037835287
0.01348840601
0.01670283133
0.0195283268
0.02192269561
0.02408736638
0.02619262205
0.02777515051
0.02835185648
0.0274667662
0.02554756491
0.02612969962
0.02863319265
0.03125108606
0.03244560945
0.0315675853
0.02871734344
0.02497917876
0.02217086311
0.02225616092
0.02661307136
0.03300132884
0.03985444719
0.0465109474
0.05182907126
0.05361643989
0.04984593838
0.04345655833
0.04360058408
0.04832219154
0.006107428367
0.006510711548
0.007632576757
0.009903132497
0.01313232906
0.01643789941
0.01926321611
0.02161061937
0.02362138023
0.02529436897
0.02637814378
0.02659192134
0.02597283012
0.02545200883
0.02659113118
0.02922379636
0.03200968594
0.03348696231
0.03299117505
0.03029931061
0.02581734834
0.02088379837
0.01824551027
0.01992945204
0.02423240273
0.02910305131
0.03389781495
0.03799915711
0.04022273204
0.04005755333
0.04058016546
0.04414311494
0.04909233604
0.005350823898
0.005853303202
0.0070267749
0.009220810164
0.01240521648
0.01576050248
0.01864169466
0.02098132987
0.0229094084
0.02444012882
0.02534461531
0.02536202245
0.02469897337
0.0242743543
0.02521425996
0.02749575652
0.03011337255
0.03162645719
0.03132630315
0.02889484178
0.02446127836
0.01913985048
0.01583785687
0.01627893859
0.01933005566
0.02321686604
0.02722748968
0.03102641236
0.03421478429
0.03685854463
0.04030873001
0.04482218108
0.04913478194
0.004859464216
0.005401877707
0.006593180297
0.008544701874
0.01135903339
0.0144711281
0.01725540652
0.01950434142
0.0212648356
0.02255266655
0.02323887909
0.02315736958
0.02252388889
0.0221041993
0.0227674637
0.0245374813
0.02657822452
0.02792681776
0.02768174367
0.02545120192
0.0214277556
0.01670460782
0.0141649932
0.01433919391
0.01673288709
0.02027532958
0.02413411907
0.02798508836
0.03174566103
0.03551067079
0.03964221419
0.04408242708
0.04792684206
0.004480830636
0.005177870424
0.006439865151
0.008161470673
0.01039908476
0.01290601094
0.01530204234
0.01731178199
0.01884853547
0.01988854905
0.02037127095
0.02025154805
0.01972828444
0.01936669413
0.01979756534
0.02107910613
0.02258468553
0.0235348438
0.02328034739
0.02141937381
0.01808084454
0.0146835833
0.01325263745
0.0134185121
0.01545340286
0.01888659788
0.02268868128
0.02643516221
0.03013616258
0.03385465207
0.03762682735
0.04134725665
0.04479679838
0.004264170227
0.005585979631
0.00730024686
0.008782403992
0.01025214184
0.01180151219
0.01337994318
0.0148206808
0.01596894337
0.01672785052
0.01704233766
0.01692162796
0.01653677287
0.01626554625
0.01649938632
0.0172904115
0.01826500255
0.01888869844
0.01867360402
0.0172826018
0.01495558747
0.01300734087
0.01241530625
0.01296392023
0.01516001604
0.01846792636
0.02190570136
0.02512698659
0.02817376385
0.0311163999
0.03394951231
0.03658410963
0.03887708862
0.005131529251
0.007476872229
0.009277572932
0.01031067696
0.01100508367
0.0115909056
0.01217913709
0.01276480548
0.01326790537
0.01359171174
0.01367079785
0.01350725048
0.01320976832
0.01298849668
0.0130310683
0.01334877187
0.01376854218
0.01402951333
0.01384554396
0.01296982093
0.01157227511
0.01072719691
0.01149209887
0.01384344577
0.01683845084
0.01960536245
0.02199310216
0.02403137059
0.02576864127
0.02725221837
0.02849990523
0.02949837408
0.03021824345
0.01965981332
0.02715439265
0.02781312165
0.03005702875
0.03645082717
0.04559746158
0.05429221865
0.05773656024
0.05035263109
0.03415126345
0.02179506039
0.01538722958
0.01188472961
0.01027304006
0.009730355376
0.009920938923
0.01100600568
0.01314910227
0.01647730161
0.02121386376
0.02833286223
0.03877422667
0.04308429434
0.02766650725
0.02592907248
0.04344547951
0.06027884823
0.066449899
0.01928501443
0.02756689524
0.02989962629
0.03509656773
0.0453316675
0.05961497843
0.07546611868
0.08376879873
0.07521745124
0.05051959673
0.0281577916
0.01830818591
0.01311804299
0.0106914752
0.01069392923
0.0117181
0.01354664283
0.01651293983
0.02136854088
0.02947834447
0.04395988799
0.06617098812
0.08113565815
0.04392584777
0.0306792938
0.05199281224
0.0584251248
0.06338337534
0.06580471449
0.05729551575
0.03757077887
0.02658108924
0.01857486268
0.02768871577
0.03216855209
0.04075359293
0.05577502121
0.07900159126
0.1057024626
0.1197723447
0.1106959412
0.07873019086
0.03907457399
0.02266847157
0.0155011526
0.0124463047
0.01286580553
0.01466618148
0.01740285187
0.02132869702
0.02734338138
0.03729579192
0.05579339806
0.08634156147
0.1020405342
0.05843921782
0.03796289653
0.06031579045
0.05548513739
0.05389703456
0.05439447825
0.03919278433
0.02933564519
0.02912309136
0.01743279346
0.02722412923
0.03422472436
0.04716996348
0.06875679437
0.1029641505
0.1388571207
0.1552755775
0.1461534298
0.1120591802
0.0558216478
0.02839256991
0.01863671991
0.01592403158
0.01667072664
0.01917377685
0.02302361771
0.02762521431
0.03284578404
0.03889893388
0.04727341874
0.05873405179
0.06338045612
0.04156195059
0.0352409418
0.03852211966
0.04060183419
0.04315520213
0.03245882999
0.02538654991
0.03264191679
0.04012457754
0.04321341604
0.01606586698
0.02671916583
0.03588449889
0.05165079808
0.07842017733
0.1167680634
0.1539420654
0.170484802
0.1640238269
0.1341936592
0.06538286784
0.03449471344
0.02236710682
0.02161248956
0.02274086089
0.02616708153
0.03172288869
0.03750610152
0.04253227156
0.04636237904
0.04903412512
0.05054593058
0.0489350481
0.04362264926
0.04015262607
0.03944561222
0.04176746689
0.04054009819
0.02753988857
0.02957212328
0.04583742636
0.05220172278
0.05301091773
0.01507349496
0.02636522854
0.03559641471
0.04612313291
0.06690853609
0.09956640714
0.1384931267
0.1607249038
0.1613378748
0.1235571168
0.08029241536
0.04715913452
0.02926340747
0.03093218369
0.0320104963
0.03679715363
0.04447028674
0.0512114051
0.05559642927
0.05770948432
0.05818534032
0.05733227825
0.05480351517
0.05000347152
0.0454615874
0.04375502662
0.04322765629
0.0320579508
0.02931046243
0.04173293307
0.0546601303
0.05816663406
0.05872613066
0.01428435081
0.02051480705
0.02611836662
0.03677365406
0.05692061309
0.08343501077
0.1115371714
0.1296624005
0.1305916588
0.2528807213
0.1582883784
0.07530456053
0.04809118022
0.04504291545
0.04577633144
0.05296824387
0.06320549867
0.07009073024
0.07254372466
0.07223525304
0.07071657892
0.06855915166
0.06496617015
0.05876956413
0.05132300443
0.04390571681
0.03443123317
0.02755745321
0.03414453563
0.04686744051
0.05775026433
0.06201055334
0.06282306317
0.0136929897
0.0177785498
0.02275710788
0.03241951703
0.04805620446
0.06537401528
0.07905182108
0.08551176815
0.09904862592
0.1184764681
0.1127551341
0.08853705003
0.0684095579
0.06209456333
0.06530886073
0.07740162213
0.09038389285
0.09596765057
0.09493392457
0.0908436994
0.08689691198
0.0842018096
0.08083759688
0.07345948444
0.06182221384
0.04792373501
0.03143914063
0.02977234028
0.03675656053
0.04711535115
0.05690470855
0.06545972633
0.07554593203
0.01313699769
0.01603231994
0.0200411787
0.02713615834
0.03754250361
0.04871365143
0.05628391513
0.05334337038
0.04519452617
0.05663520682
0.06736375243
0.06395547634
0.06670140371
0.07544757158
0.09081277883
0.111393137
0.1259722456
0.1286650961
0.122858301
0.1142318854
0.107985891
0.1061312541
0.1048556971
0.09759869086
0.08090110903
0.05456532908
0.03469791849
0.03518093359
0.03936265275
0.04530975811
0.05656363995
0.08510452422
0.1203286825
0.0126139514
0.01464713576
0.01786324747
0.02293899687
0.02936843002
0.03573637081
0.03902512635
0.03378301338
0.0247665984
0.02527867399
0.03174170976
0.0427622441
0.06097744011
0.08692930357
0.1189224154
0.1470218521
0.160958883
0.1603748471
0.1511571802
0.1398207555
0.1327738634
0.1333644367
0.1358002246
0.1307651138
0.1118340195
0.06410945083
0.03787315815
0.03467553944
0.03750012273
0.04619996062
0.07418399948
0.1558744563
0.2210854522
0.01230493836
0.01429528003
0.01730200487
0.0213478532
0.02558441911
0.02901347045
0.02984284453
0.024873267
0.01713839197
0.0172309591
0.02450702213
0.03984393342
0.06605143202
0.101563301
0.1378143742
0.1648324822
0.1767884667
0.1758795711
0.1679445496
0.1584502934
0.1526061839
0.1550510493
0.1591843486
0.1554941158
0.1344078293
0.07379062273
0.03746615574
0.03489715922
0.04346537413
0.0661456772
0.116374799
0.228691895
0.2825666389
0.01232041516
0.01538885037
0.01852880617
0.02163490829
0.02411072837
0.02521128493
0.02395108103
0.01927021485
0.01422280364
0.01504983365
0.02156471598
0.03405186875
0.05638967104
0.09171024134
0.1290853469
0.1569957316
0.169649716
0.1701806953
0.1654603106
0.1597166756
0.1540247814
0.1560521866
0.1601656545
0.1549468481
0.1242545201
0.0593891437
0.03606726908
0.04787090097
0.07619051117
0.1636598724
0.1292196763
0.1967559297
0.2724151471
0.01269290485
0.01734424043
0.02043126284
0.02238099004
0.02314396028
0.02238104252
0.01987008124
0.01603692489
0.01318866396
0.01413545717
0.01894218752
0.02749055798
0.04144989578
0.06533777997
0.09764055959
0.1258097152
0.1405825752
0.1445016219
0.144135866
0.1425738618
0.1404699801
0.142284189
0.1421535719
0.1275001207
0.08109575615
0.04921087804
0.06720373366
0.112367247
0.2515906707
0.6064870378
0.234232671
0.1433751628
0.1782034165
0.0132980408
0.01897483098
0.02158119758
0.02244394124
0.02209221666
0.02047498614
0.01768946343
0.01470129012
0.01273935539
0.01374338773
0.01718315174
0.02299518198
0.03195677724
0.04676735829
0.06609641034
0.08750053523
0.1044675842
0.1142659641
0.1195364379
0.1215379542
0.1214875373
0.1205458207
0.1126206317
0.09174318855
0.06695902144
0.08659753195
0.1322633956
0.1908976698
0.3286148444
0.7102744007
0.3160261927
0.1462887578
0.1117493367
0.01384263699
0.01956182056
0.0212752051
0.02122205306
0.0204846692
0.0196208449
0.01972739884
0.01863889895
0.01443882915
0.01472489637
0.01801281524
0.02366396461
0.03720943105
0.08340249473
0.08475392563
0.06627838314
0.07729704982
0.08928637401
0.09746058544
0.1030665182
0.107304206
0.1085736772
0.09763763626
0.08064587503
0.09019771435
0.133211714
0.1813412469
0.2195863878
0.2628780381
0.3679528841
0.2465520018
0.1765669518
0.1101411364
0.01397775987
0.01908144177
0.02012097942
0.02008173708
0.02141120403
0.02949643649
0.0494737909
0.05553517065
0.03611459452
0.02438039594
0.02914892171
0.04845337288
0.1585164691
0.3990520868
0.3605711607
0.06645559735
0.05765831912
0.0678693412
0.07959961791
0.09448769806
0.1199235545
0.1535348048
0.1496085994
0.1051061251
0.1205087176
0.1643773109
0.2074504396
0.238992763
0.259631417
0.2726726855
0.2449671387
0.1940824072
0.1286933793
0.01383529078
0.01802723853
0.01947885612
0.02266526369
0.03429617922
0.06522382111
0.1011626637
0.1059098073
0.07743299676
0.04651311359
0.04968572509
0.06081976695
0.08062576452
0.1487750444
0.1046149679
0.04075957179
0.04152584501
0.05129068707
0.07069680231
0.118409528
0.2145082958
0.2979305998
0.2896300118
0.1817293976
0.1459654033
0.1784486657
0.2174056843
0.2464853346
0.2626381682
0.2655458712
0.2479629216
0.1996493129
0.1365603875
0.01332167168
0.01634553384
0.01722991692
0.02010155311
0.03189229126
0.06479679657
0.1025100934
0.1077931709
0.08254566852
0.0637772744
0.08438532899
0.1262693608
0.1512300658
0.1143263745
0.05831433959
0.03161370854
0.03168652588
0.03953178144
0.06012978761
0.1261797254
0.2739136922
0.3720448208
0.311493502
0.1755296803
0.1447037419
0.1762971971
0.2131796186
0.2412562438
0.2564526903
0.2575674891
0.2374479178
0.1875510989
0.1304915759
0.01264250556
0.01470715154
0.0149632686
0.01674167899
0.02278074954
0.04079831582
0.06614907595
0.07181532416
0.06516763901
0.07444591732
0.1208119793
0.2175512766
0.3162402218
0.1629179444
0.05396977398
0.02594637742
0.02472797859
0.02984150843
0.04270504349
0.08297515802
0.1877259294
0.2758558169
0.2110650925
0.1235379916
0.1287387114
0.1617169384
0.1961519356
0.2226705151
0.2366625308
0.2352302777
0.2100127077
0.1595622318
0.1157850315
0.01183306202
0.01311790552
0.01298849897
0.01400853884
0.01752877228
0.02480293327
0.03664089613
0.04328883001
0.04849798425
0.06270041266
0.09210635323
0.1463656707
0.2177146049
0.1067643642
0.03737061643
0.02180373724
0.02112449144
0.02437051276
0.03031711618
0.04454616316
0.08150852986
0.1227109207
0.1037462873
0.08871465323
0.1080751346
0.1379976634
0.1680091235
0.1912995248
0.2026716126
0.1976560601
0.169463148
0.1263191354
0.1025007317
0.01091112414
0.01163961889
0.0114572926
0.01217578182
0.01467211075
0.01914563074
0.02540234257
0.03162738677
0.03861575519
0.04970412794
0.06378900662
0.08048267377
0.08848219666
0.05424827166
0.02873863325
0.02219083335
0.02309916269
0.02546141574
0.02769574388
0.03151449165
0.04108238683
0.05446279591
0.05699103006
0.06611084095
0.08531839423
0.1092876066
0.1330291891
0.1514477334
0.1592607556
0.1517254341
0.1272970455
0.1016492684
0.09526123279
0.009868708987
0.01029146432
0.01026288685
0.01102526773
0.01318373547
0.01682746053
0.02177619386
0.02742629235
0.03376873782
0.04156859977
0.04861475585
0.05311687952
0.05129300567
0.03819119054
0.02927676667
0.02828656428
0.03080535639
0.03277110248
0.03281355928
0.03176555712
0.03207696145
0.03540595726
0.03973366565
0.0500344191
0.06472269785
0.08201464875
0.0990463316
0.1122747474
0.117449131
0.1115454472
0.09736263897
0.08897122892
0.09283880228
0.008690263494
0.009099347197
0.009320246869
0.01028310095
0.01254603007
0.01609417423
0.02079179231
0.02631581533
0.03225281152
0.03820129
0.0425885364
0.04419233495
0.0422069333
0.03714583467
0.03491295733
0.03675922488
0.04004634626
0.04188306574
0.0410134193
0.03765383557
0.03349525725
0.03105194017
0.03221242872
0.03895619289
0.04943957884
0.06151189075
0.07334942189
0.08288896719
0.08757596204
0.08624197839
0.08259563501
0.08441105391
0.09234630786
0.007428587718
0.008122829045
0.008650432984
0.009828993277
0.01230753713
0.01606057383
0.02089762258
0.02650022789
0.03228396966
0.03747536556
0.04107743278
0.04242241184
0.04158424339
0.03993492048
0.04021425933
0.04292326537
0.04617403034
0.04795580838
0.04698908797
0.04303612742
0.03690497696
0.03089536791
0.02830059181
0.03152009066
0.03902544632
0.04811060083
0.05716430525
0.06508375933
0.07072333678
0.07380139063
0.0770242601
0.08339453093
0.09155637497
0.00627901254
0.007390366803
0.00817770419
0.009473604992
0.01205809039
0.015960664
0.02093115661
0.02656164391
0.03216921266
0.0369541404
0.04029188104
0.04179557682
0.04168944394
0.04114076574
0.04189308282
0.04445471561
0.04754635673
0.04933341992
0.04837538381
0.04434637454
0.03781956931
0.03039274639
0.02565882967
0.02640979593
0.03164935259
0.03901383181
0.04699660761
0.05477286434
0.06182198809
0.06815032346
0.07498145958
0.0827652672
0.09012525654
0.005436744706
0.006813449296
0.007696891603
0.008994324489
0.01153533445
0.01533188394
0.02012443108
0.02550587275
0.03077288499
0.03514375564
0.03817194815
0.03965863316
0.03973731894
0.0393082945
0.03983704557
0.04202311418
0.04472747531
0.04637529055
0.04549435
0.04171943167
0.03554207596
0.02837738536
0.02351887368
0.02291062339
0.02608275778
0.03192179961
0.0394044467
0.04764359616
0.05609620875
0.06456075633
0.07305653452
0.08108156193
0.08810060302
0.00531730815
0.006579638154
0.007544690725
0.008826627439
0.01113489073
0.01443829268
0.01856747257
0.02325184822
0.02793163227
0.0318854292
0.034590943
0.03587516551
0.03588640337
0.03538837776
0.03562173965
0.03729114177
0.03961155529
0.04090187584
0.0401697655
0.03701449119
0.03172664169
0.02596882943
0.02208674163
0.02072452823
0.02199764908
0.02618029246
0.03296631128
0.0415028615
0.05094334105
0.06064543259
0.0699782286
0.07818918768
0.08511498876
0.005352632375
0.006906334779
0.007811387843
0.009114409628
0.01117833419
0.01381075479
0.01697306155
0.02056341318
0.02425696909
0.02751484254
0.02982119274
0.03092943539
0.03098652082
0.03061046706
0.0306830963
0.03171236982
0.03328018779
0.03429591471
0.03381712308
0.03149984036
0.02785401755
0.02413873153
0.0213871258
0.0195289709
0.01947158066
0.02237808157
0.02823756139
0.03634927642
0.04581194113
0.05571853159
0.06522413852
0.07359062425
0.08023519934
0.005311111529
0.006995899424
0.008682393009
0.01021391032
0.0119015836
0.01374503799
0.0157885043
0.018010433
0.0202959231
0.02238988839
0.0239664435
0.02481065602
0.02498690772
0.02486188304
0.02491226561
0.02539073435
0.02611976621
0.02659789375
0.02631036608
0.02504045186
0.02309231864
0.02106186886
0.01911044422
0.01751160092
0.01767864836
0.02039879607
0.02530071147
0.03189930197
0.03968275644
0.04800906382
0.05623344472
0.06376832153
0.07004259849
0.005428587145
0.007688439397
0.009648244769
0.01101238769
0.01210967937
0.01302392425
0.01381317195
0.01452670042
0.01517980582
0.01572827022
0.01608897664
0.01620792607
0.01612938029
0.0159923701
0.01593231526
0.01597982642
0.01605667941
0.01601853526
0.01568257192
0.01489574658
0.01373632381
0.01269878851
0.01262528911
0.01417849597
0.01689132552
0.01979662131
0.02270131067
0.02574617395
0.02895295737
0.03221044472
0.03535513157
0.03820287679
0.04054990209
0.02105552451
0.03015889088
0.0326618759
0.03561253941
0.04094421806
0.04807801259
0.05465139429
0.05549849995
0.04731653708
0.03407957053
0.02257594796
0.01570964142
0.01293635568
0.01161527411
0.01084932129
0.01072158029
0.01159112851
0.0140785743
0.01849026976
0.0252607839
0.03570931578
0.04843429306
0.05636216365
0.03896316587
0.03169384482
0.05554791124
0.06811504167
0.06997613638
0.07387535827
0.02075920171
0.03098271514
0.03509950525
0.04056037161
0.04896291967
0.06185669954
0.07632008611
0.08230775546
0.07324354485
0.05296744522
0.03169910687
0.01779453289
0.0129325495
0.01145621485
0.01143354311
0.01230075897
0.01404439597
0.01761692557
0.02404293306
0.03550668304
0.0557983246
0.08272623316
0.1003774497
0.06817349146
0.04405655304
0.06199274734
0.0639669042
0.06783459309
0.07189055999
0.06482029229
0.04310814531
0.02891824457
0.0201048509
0.03145883581
0.03764019296
0.045942667
0.05886304628
0.08132958517
0.1076926842
0.120580651
0.1123684298
0.08578662568
0.04937372107
0.02188527888
0.01372746444
0.01247683981
0.01339824701
0.01526431417
0.0180948166
0.02302489075
0.03101864838
0.04505738363
0.07098836348
0.1040215226
0.1079358457
0.08652927407
0.05640191321
0.06495894931
0.05746517342
0.0595678325
0.06832654627
0.05186880006
0.03498907925
0.0325927816
0.01902326037
0.03170227498
0.040444473
0.05125845103
0.06989919932
0.1029835574
0.1387916716
0.1546709936
0.1471564517
0.1178697514
0.06900477052
0.02763336068
0.01635594104
0.01584870654
0.01738862538
0.01998363263
0.02413172075
0.03005692009
0.03702589326
0.04568705475
0.05895866672
0.07795346185
0.08700140541
0.05776593332
0.04657584415
0.05385002288
0.0525421395
0.05215492293
0.04771011734
0.03194470142
0.03524564989
0.04315309876
0.04866278306
0.01739112443
0.0337916668
0.04930728099
0.05653358521
0.07551967849
0.110809957
0.1480779762
0.1643380837
0.1570676726
0.1271187523
0.0728845456
0.03384438671
0.02259602581
0.02279194509
0.02420632577
0.02743856874
0.03347332329
0.04057329223
0.0466342737
0.05120462678
0.05511197559
0.05884940178
0.05961724827
0.05248382505
0.04857969666
0.04931307252
0.05088738961
0.04988955837
0.03777148727
0.03524242749
0.04800262607
0.05471982157
0.05830493016
0.01499833011
0.03824254535
0.1035137772
0.06787608212
0.07034356604
0.0961710796