/*--------------------------------*- C++ -*----------------------------------*\
  =========                 |
  \\      /  F ield         | OpenFOAM: The Open Source CFD Toolbox
   \\    /   O peration     | Website:  https://openfoam.org
    \\  /    A nd           | Version:  8
     \\/     M anipulation  |
\*---------------------------------------------------------------------------*/
FoamFile
{
    version     2.0;
    format      ascii;
    class       volScalarField;
    location    "1.1";
    object      nut;
}
// * * * * * * * * * * * * * * * * * * * * * * * * * * * * * * * * * * * * * //

dimensions      [0 2 -1 0 0 0 0];

internalField   nonuniform List<scalar> 
67286
(
0.0001431501142
0.0001640249954
0.0001708196276
0.0001924902486
0.0002208513522
0.0002499730466
0.0002764137929
0.000293221078
0.0002758852276
0.0002422248963
0.0002048776811
0.0001663263266
0.0001298607107
0.000112780623
0.0001122344024
0.0001162066902
0.0001237652356
0.0001335141631
0.0001451131507
0.0001593859802
0.0001780453392
0.0002035152067
0.0002274489568
0.0001725039594
0.0001924617591
0.0002237202503
0.0002542119034
0.0002670503432
0.0001412279931
0.0001655386785
0.0001839149003
0.0002159498324
0.0002528184062
0.0002903950923
0.0003234546432
0.0003431037473
0.0003252758488
0.00028432445
0.0002421009584
0.0001989637099
0.0001549689342
0.0001221846928
0.0001218262398
0.0001285775167
0.0001382699884
0.0001488723113
0.0001626073207
0.0001832959718
0.0002148228536
0.0002575679116
0.0002945378411
0.0001888444893
0.0001835473412
0.0002171167053
0.0002456997856
0.0002614294556
0.0002731808599
0.0002624946256
0.0002332529118
0.000198635206
0.0001397949635
0.0001712603433
0.0002020434173
0.0002437051881
0.0002894756778
0.0003341052574
0.0003718405239
0.0003922491213
0.0003754617673
0.0003295961546
0.0002819816994
0.0002343068673
0.0001823263883
0.0001393817309
0.000136403307
0.0001453876497
0.0001566947977
0.0001666178833
0.0001798331497
0.0002040954249
0.0002466112103
0.0003038086953
0.0003474255556
0.0002269410723
0.0001770468451
0.0002176513091
0.0002423126494
0.0002383686717
0.000240274889
0.0002276163611
0.0002024830716
0.0001858011458
0.0001398684734
0.0001813082369
0.0002224608272
0.0002718457792
0.0003246947619
0.0003740061867
0.0004142237047
0.0004335285498
0.0004177438313
0.0003712202699
0.0003200878393
0.0002677538633
0.0002052004391
0.0001591045149
0.0001563879525
0.0001672789298
0.0001790009868
0.0001849313254
0.0001874732379
0.0001891618954
0.0001927175444
0.0002053060053
0.0002323593959
0.0001717234663
0.0001656290588
0.0001705165222
0.000186563518
0.0002040457419
0.0001990880121
0.000184636166
0.0001933199677
0.0001998620762
0.0002009012672
0.000144147744
0.0001931897226
0.0002394335403
0.0002915898429
0.0003490967086
0.0003994409097
0.0004386834328
0.0004555959518
0.0004366157355
0.0003869374697
0.0003410238754
0.0002853951827
0.0002152506213
0.0001790866229
0.000181545647
0.0001945799825
0.0002068852799
0.0002113763711
0.0002115733759
0.0002098480388
0.0002056851705
0.0001987393232
0.0001910064508
0.000180449035
0.0001768584076
0.0001809840491
0.0001872385365
0.0002020441679
0.0001706824607
0.0001773587674
0.0002160816898
0.0002240961847
0.0002134246953
0.0001503678168
0.0002087300969
0.000259488828
0.0003064202407
0.0003461695977
0.0003870401595
0.0004272593754
0.0004468314057
0.0004168922741
0.0003785950869
0.0003453913236
0.0002721086065
0.0002113588233
0.000203128018
0.0002099314027
0.0002257891686
0.0002384057352
0.0002409914588
0.0002387666824
0.0002349531775
0.0002276305858
0.0002157067959
0.0002003379208
0.0001876689649
0.0001812727107
0.0001836050618
0.0001916182948
0.0001648046473
0.0001715806411
0.0002085526292
0.0002392105396
0.0002231803051
0.0002196591534
0.000141027311
0.0001883642322
0.0002387387836
0.0002856913243
0.0003241827934
0.0003600556769
0.0003858458472
0.0003818157346
0.0003798926803
0.0004622739097
0.0004256390841
0.0002810211281
0.0002275130265
0.0002304498337
0.0002407929596
0.0002616188478
0.0002748683816
0.0002753928569
0.0002696079367
0.00026229219
0.0002518814486
0.0002354656188
0.0002129440941
0.0001946579488
0.0001829665816
0.0001779732694
0.0001616684157
0.0001632977049
0.0001911249172
0.0002236965766
0.0002452141761
0.0002278708178
0.000236906883
0.0001363441416
0.0001733185101
0.0002141640276
0.0002561167231
0.0002926790695
0.0003242695753
0.0003455040247
0.0003418708606
0.0003248860237
0.0003630155243
0.0003772275717
0.0003147955372
0.000253804943
0.0002572003629
0.0002766495993
0.0003038583527
0.000318109402
0.0003158456889
0.0003037957647
0.0002913224559
0.0002796880067
0.0002649901012
0.0002441585874
0.0002236693023
0.0001955928546
0.0001800891239
0.0001538282307
0.0001642888051
0.0001893783453
0.0002134228837
0.0002297249055
0.0002398857689
0.000299089642
0.0001329494267
0.0001621153889
0.0001936058326
0.0002268021417
0.0002578392719
0.0002850710373
0.0003036261231
0.0002995076862
0.0002698407939
0.000293224762
0.0002969015834
0.0002609561346
0.000269693067
0.0002882302583
0.0003211826755
0.0003532817375
0.0003672796306
0.0003606343432
0.0003399170262
0.0003184527996
0.0003045430415
0.0002957783091
0.0002886614237
0.0002784702987
0.0002231532993
0.0001777796883
0.000161445361
0.0001768747175
0.0001888960659
0.0002058492115
0.0002387021665
0.0003071417089
0.0004001960019
0.0001287816295
0.0001493774635
0.0001736161639
0.000200034407
0.0002247463435
0.0002466767395
0.0002621013019
0.0002571923562
0.0002155922388
0.0002286414772
0.0002389278098
0.0002403813069
0.0002776492821
0.0003249718358
0.0003710173238
0.000403163306
0.0004147831398
0.0004044759945
0.0003759622579
0.0003431264819
0.0003270009263
0.0003288923535
0.0003401176604
0.0003448800318
0.0002725537645
0.0001723985349
0.0001672552313
0.0001688647599
0.0001913308673
0.0002341913612
0.0003115848627
0.000417657821
0.0005096537321
0.0001244503441
0.0001369875709
0.0001537650995
0.000174657169
0.0001944555568
0.0002113945623
0.0002222563706
0.0002146923966
0.0001697451254
0.000180096836
0.0002129241021
0.0002600281894
0.0003161970177
0.0003669821728
0.0004088504452
0.0004367474881
0.0004462204688
0.0004359710008
0.0004049209999
0.0003622769579
0.0003487215319
0.0003650205156
0.0003877267749
0.0003938315642
0.0003346593036
0.000191791211
0.0001698053807
0.000197467698
0.0002385808753
0.0003030359144
0.0004046248322
0.0005181103049
0.0005872303447
0.0001206821331
0.00013073567
0.0001408518848
0.0001541152561
0.0001678263514
0.0001797698852
0.0001860583152
0.0001756690679
0.0001418201581
0.000163239584
0.0002144476855
0.0002731150324
0.0003254295688
0.0003688626792
0.0004065639626
0.0004327290631
0.000441246436
0.0004287724529
0.0003890215766
0.0003466038489
0.0003637072863
0.0003929851274
0.0004135370496
0.0004151027755
0.0003514164298
0.0002594324677
0.0002248046809
0.0002709890042
0.0003003589328
0.0003371303565
0.0003855689183
0.0004924197646
0.0005911757132
0.0001183368881
0.000131806427
0.0001389320696
0.0001453778765
0.0001511698483
0.0001557836289
0.0001565242384
0.0001458979492
0.0001289880677
0.000148963703
0.000194332669
0.0002492508845
0.0002996637798
0.0003398246389
0.000372697279
0.0003972120183
0.000405565699
0.0003921127251
0.0003521343321
0.0003218917218
0.0003399481433
0.0003650474272
0.0003828750222
0.000379482063
0.0002882696417
0.0002581694089
0.0003210835961
0.0003629593076
0.0003978675661
0.000505997172
0.0003077001539
0.0003826874337
0.0004966398515
0.0001182247825
0.0001351735938
0.0001411248831
0.0001442582538
0.0001449046142
0.0001435695182
0.0001425907509
0.000137225899
0.0001241953034
0.0001373291466
0.0001674465825
0.0002116123887
0.0002593810431
0.000299465971
0.0003302487508
0.000351553755
0.000358779187
0.0003468959693
0.0003180521197
0.0003054852367
0.0003162300297
0.0003279720278
0.0003367398417
0.0003259348266
0.000271466644
0.0003420422602
0.0003969957063
0.0004367530473
0.0004811635266
0.0006521746514
0.0003797364709
0.0003015301646
0.0003943755435
0.0001194456722
0.0001372731424
0.0001418635343
0.0001434239472
0.0001452454095
0.0001595645998
0.0001880874665
0.0001836849426
0.0001322051432
0.0001406504788
0.00015380781
0.0001772106085
0.0002135921729
0.0002590873844
0.0002863527444
0.0003069528583
0.0003137080598
0.0003068215592
0.0002937839789
0.0002935075225
0.0002974998493
0.0002969971921
0.0002973551699
0.0002994346472
0.0003377212428
0.0004017540782
0.0004511759632
0.0004863753271
0.0005085910665
0.0005306337954
0.0004657997191
0.0003692325638
0.0003218047084
0.000120090978
0.0001368348873
0.0001405872931
0.0001461313208
0.0001680383632
0.0002174434241
0.0002600293101
0.0002500021785
0.000188646993
0.0001826191354
0.0001822534308
0.000189880578
0.000247340956
0.0004620771236
0.0003301476959
0.0002636885144
0.0002738046993
0.0002740032353
0.0002738198317
0.0002815201673
0.0002938021359
0.0003198554287
0.0003051876427
0.0003315660742
0.0003934386298
0.0004433258126
0.0004849528012
0.0005150375796
0.0005325755073
0.0005366393056
0.0005114555595
0.0004562760359
0.0003766412074
0.000120889539
0.0001420291587
0.0001709877591
0.0002244422175
0.0002807691628
0.0003309772755
0.0003732724692
0.0003813532634
0.0003238645582
0.0002300999272
0.0002236640257
0.0002354713876
0.0002311263093
0.0002373912338
0.0002191116166
0.0002260642974
0.0002407405795
0.0002495869203
0.000265249408
0.0003086961228
0.0004021803677
0.0004953970328
0.0004577148198
0.0003646916555
0.0004056402554
0.0004513720565
0.0004903960454
0.0005191425017
0.000536679609
0.0005406975505
0.0005191431426
0.0004723790332
0.0004085215426
0.000119980341
0.0001392122727
0.0001675171588
0.0002200449523
0.0002755417284
0.0003254354593
0.0003667867283
0.0003718637211
0.0002899133577
0.0002615092164
0.0002879827254
0.0003160668136
0.0003281324593
0.0002565282877
0.0001935074257
0.0001945254208
0.0002165638478
0.0002529873678
0.0003253734352
0.0004365525496
0.0005742366801
0.0006713687067
0.0005145953811
0.0003703710702
0.0003992699071
0.0004443671954
0.000482528947
0.0005110195478
0.0005288124022
0.000532137105
0.0005087156168
0.0004620489143
0.0004027097331
0.0001179692297
0.0001326579458
0.0001513944644
0.0001937679301
0.000245355796
0.0002883179366
0.0003174382405
0.0003111017774
0.0002629791322
0.0002975143136
0.0003769396765
0.0004874390993
0.0005878565224
0.000340587112
0.0002190532259
0.0001697325901
0.0001885796495
0.0002243721056
0.0002894422276
0.0003858742228
0.0004975735641
0.0005876590702
0.0004151583362
0.0003504836514
0.0003867069307
0.0004281605677
0.0004640744351
0.0004915332652
0.0005087100587
0.0005097594749
0.000482081794
0.0004333574512
0.0003742200729
0.0001152921553
0.0001263528123
0.0001362196453
0.0001644075591
0.0002068642389
0.0002457857459
0.0002676991918
0.0002629414281
0.0002434071348
0.0002720310775
0.000319442275
0.000394951734
0.0004862031548
0.0002940524812
0.0001974667219
0.000154966987
0.0001653557951
0.0001901933945
0.0002334789654
0.0003040833148
0.000389502018
0.0004528297646
0.0003311894078
0.0003313793132
0.0003662998784
0.0004028579616
0.0004354316264
0.0004607705686
0.0004760729893
0.0004738411816
0.0004414300288
0.0003904343084
0.0003321150405
0.0001118339227
0.000120717348
0.0001261581708
0.0001429984828
0.0001723321816
0.0002042123465
0.0002248775776
0.0002268229289
0.0002249884758
0.0002477388399
0.0002734633482
0.000309770865
0.0003608274881
0.0002437703352
0.000175923504
0.0001540222479
0.0001600559668
0.0001720978892
0.0001923648365
0.0002314629441
0.0002894739765
0.0003365148634
0.000281904994
0.0003056112881
0.0003373434695
0.0003692791244
0.000398110171
0.0004205263632
0.0004330157022
0.000427860021
0.0003900760553
0.0003375834196
0.0002903874703
0.0001072835364
0.0001149223342
0.0001193047907
0.0001314834429
0.0001510417941
0.0001734884792
0.0001913876247
0.0001996205282
0.0002068462771
0.0002245147819
0.0002403901471
0.0002550000046
0.0002709084129
0.0002100391221
0.0001734046148
0.0001705526943
0.0001770835135
0.0001807717567
0.0001832323364
0.0001925044879
0.0002176303743
0.0002483781593
0.0002432354409
0.0002714379773
0.0003006436417
0.0003290660267
0.0003545283734
0.0003739849569
0.0003833544935
0.0003756556299
0.0003319384892
0.0002862457896
0.000267018063
0.0001013655615
0.0001086037568
0.0001135446606
0.0001255631604
0.0001421078671
0.0001588573697
0.0001730459603
0.0001832826663
0.0001926314243
0.0002047807572
0.0002146576181
0.0002202828035
0.0002192840219
0.0001935540012
0.0001838928561
0.0001904067562
0.0001980325521
0.0002005995397
0.000197280112
0.000190747742
0.0001886907987
0.0001972690533
0.0002072390773
0.0002323963046
0.000258831875
0.000284220063
0.0003066964796
0.0003233534934
0.0003294770612
0.0003179857289
0.0002798137785
0.0002573254963
0.0002615670508
9.41282947e-05
0.0001022274789
0.0001086819249
0.0001221609247
0.0001392232372
0.0001548515018
0.0001673812169
0.0001772964179
0.0001858252497
0.000193796589
0.0001995742528
0.0002016418256
0.0001984963089
0.0001911321064
0.0001932237356
0.0002022164077
0.0002111527791
0.0002150390311
0.0002120010838
0.0002022011684
0.0001887925588
0.0001783781313
0.0001791527878
0.0001961645211
0.0002184415496
0.000240017357
0.0002592031134
0.0002734789994
0.0002780367439
0.0002680770314
0.0002499206538
0.0002498434193
0.0002628084096
8.651007584e-05
9.664085699e-05
0.0001047107429
0.0001193246032
0.0001373514517
0.0001535597565
0.0001661463707
0.0001759214371
0.0001838830392
0.0001902497427
0.0001942505441
0.0001950176562
0.0001927302958
0.0001907835157
0.0001950364875
0.0002044258432
0.0002138696723
0.0002186506519
0.0002169224784
0.0002077990023
0.000191840673
0.0001727538012
0.0001618767363
0.0001695178181
0.0001870048109
0.0002049550331
0.0002211710518
0.0002340656998
0.000240634751
0.00023990538
0.0002410701352
0.0002511993266
0.0002649037878
0.0001371730824
9.162644799e-05
0.0001004657334
0.0001151492422
0.000133518485
0.0001503863515
0.0001634578845
0.0001733459474
0.0001810862007
0.0001869843042
0.0001903644755
0.0001904090103
0.0001879322384
0.0001863769222
0.0001900103178
0.0001984062039
0.0002075666887
0.0002126294058
0.0002115304303
0.0002030805562
0.000186844116
0.0001653893012
0.0001506695085
0.0001529827898
0.0001667862518
0.0001827883059
0.0001979112721
0.0002111759655
0.0002215969194
0.0002297923813
0.0002401097653
0.0002531199963
0.0002650392225
0.000129318713
8.801771731e-05
9.729743573e-05
0.0001108289871
0.0001277779645
0.0001441448584
0.0001573100819
0.0001671770003
0.0001745085976
0.0001796719868
0.000182343959
0.0001820066176
0.0001795240199
0.0001779065992
0.0001806129064
0.0001874964772
0.0001950835384
0.0001998951662
0.0001989376428
0.000190692876
0.0001749714367
0.0001545690786
0.0001424377348
0.0001434469641
0.0001550322032
0.0001706365412
0.0001861103974
0.0002003343555
0.0002132708331
0.0002254556253
0.0002381197275
0.0002510628418
0.0002617812643
0.0001230332696
8.617420577e-05
9.614004314e-05
0.0001082719996
0.0001222333011
0.0001361428788
0.0001481809025
0.0001575477449
0.0001643405651
0.0001687737216
0.0001707779561
0.00017026002
0.0001680614686
0.0001665623804
0.0001684525142
0.0001738205358
0.0001798783662
0.0001835611685
0.000182500047
0.0001750014301
0.0001607767056
0.0001449326528
0.0001377317902
0.0001386966054
0.0001489255046
0.0001646117659
0.0001803545534
0.0001946171902
0.0002077405227
0.0002201333626
0.00023202862
0.0002431839776
0.0002531073281
0.0001193760665
8.955291771e-05
0.0001023395065
0.0001122416956
0.0001212816504
0.0001301334171
0.0001385512037
0.000145788989
0.0001512938424
0.000154812445
0.0001562332948
0.000155664495
0.000153891704
0.0001526554536
0.0001537837209
0.0001574371221
0.0001617908973
0.0001644853549
0.0001634905936
0.0001572338672
0.0001462479636
0.0001364109757
0.0001333153393
0.0001363369902
0.0001474906758
0.0001627404921
0.0001771727566
0.0001897034418
0.0002008418541
0.0002110423688
0.0002204150419
0.0002287823502
0.0002358217135
0.0001644708407
0.0001002483785
0.0001116090903
0.0001176261714
0.0001215156128
0.0001247171564
0.0001278547078
0.000130896178
0.0001334422582
0.0001350444034
0.000135419011
0.0001345946439
0.0001331048988
0.0001319998929
0.0001322359474
0.0001338513949
0.0001359381686
0.0001372013937
0.0001362637762
0.0001318432303
0.0001245209683
0.0001199458325
0.0001242682256
0.0001364307529
0.0001503888301
0.0001621967157
0.000171737729
0.0001794842114
0.0001858341806
0.0001910901682
0.0001953995441
0.0001987784756
0.0002011771376
0.0001440897388
0.0004068705626
0.0004233033665
0.0004265915456
0.0004982275011
0.00058184446
0.0006194496321
0.000610215163
0.0005415021942
0.0004348006949
0.0002956739469
0.0002232064337
0.0001955526512
0.0001795867691
0.0001677643115
0.0001626090328
0.000171701816
0.0001995915233
0.0002460315538
0.0003112187356
0.0004051548696
0.000524909794
0.0005065701836
0.0003394597771
0.000306413494
0.0005090858835
0.0006669541462
0.0007442373439
0.0001427025847
0.0004006473421
0.0004318500826
0.0004793033549
0.000589361413
0.000668261675
0.0007352276828
0.0007542386927
0.0006847330359
0.0005368249101
0.0003497835779
0.0002204719105
0.0001765883136
0.0001648323966
0.000169295122
0.0001796429343
0.000201428476
0.0002473470717
0.000324502988
0.0004411285779
0.0006080601346
0.000784924115
0.0008376553456
0.0005269729788
0.0003848736873
0.0006154473514
0.0006785514687
0.0007301153336
0.0007195429213
0.0006118312495
0.0004159687684
0.0002913590219
0.0001400385738
0.0003877866742
0.0004439498579
0.000539002866
0.0006484356861
0.0007615242779
0.0008890807222
0.0009473471246
0.0008826025419
0.0006922184039
0.0004326119208
0.000232087966
0.0001746789219
0.000168105195
0.0001843424353
0.0002069465733
0.0002434891359
0.0003115656223
0.0004150620122
0.0005546553228
0.0007318593791
0.0009501996975
0.001042716658
0.0006942049258
0.0004947846346
0.0007121136886
0.0007103295492
0.0006758923647
0.0005943417186
0.0004374761116
0.0003177166451
0.0003426270585
0.0001356796812
0.0003696793959
0.0004673914447
0.0006011429759
0.0007037971362
0.0008706551945
0.001049360893
0.001124557452
0.001060675068
0.0008485444465
0.0005103312871
0.0002502342846
0.0001877130468
0.0001921671238
0.0002137968604
0.0002456709228
0.0003018195643
0.0003932898723
0.0005081865122
0.0006253762054
0.000740907646
0.0008389444038
0.000839525772
0.0006460996426
0.0005556891031
0.0005998205084
0.0006112263035
0.0005931881306
0.0003918652345
0.0002850031774
0.0003662408617
0.0005199329471
0.0006206033184
0.0001303147694
0.0003597636749
0.0005100135285
0.0006282330534
0.0007360554621
0.0009260937655
0.001112646694
0.00118632554
0.001124740392
0.0009087090278
0.0004989357793
0.0002677586447
0.0002156070728
0.0002394847535
0.0002614623312
0.0003041910199
0.0003890734831
0.0005074134348
0.0006277683189
0.0007209514068
0.000780233479
0.000805103561
0.0007733651596
0.0007302813317
0.000675117122
0.0006559714825
0.000647031088
0.0005668208738
0.0003575807217
0.0003572130352
0.0005547021624
0.0007239039527
0.0008011283261
0.0001262697863
0.0003526386476
0.0004066210182
0.0005716242389
0.0007206778904
0.0009005100446
0.001063870896
0.001125590452
0.001083775295
0.0008590272741
0.0005529879407
0.0003690176977
0.000285748473
0.0003244009476
0.000339061911
0.0003959903003
0.000513634063
0.0006503672921
0.0007594851081
0.0008256946409
0.0008631594474
0.0008771138811
0.0008650115214
0.0008238352099
0.0007747486134
0.0007330265477
0.0006922945753
0.0004683970991
0.0004098696622
0.0005511475645
0.0007110825732
0.0008076863559
0.0008572420657
0.0001229311696
0.0002563217381
0.0003068764847
0.0004520265853
0.0006436725159
0.0008134308297
0.000939419929
0.0009792061744
0.0009369261278
0.001147374969
0.0008664562844
0.0006194644568
0.0004603638646
0.0004639654928
0.0004617079834
0.0005378781831
0.0006865888541
0.0008187813954
0.0009012683359
0.0009483469116
0.0009684410031
0.0009678679944
0.0009437410707
0.0008866927144
0.0008248851925
0.0007315513759
0.000546789024
0.0004092544887
0.0005042103999
0.0006572120714
0.0007801271398
0.0008480988379
0.0008252691598
0.0001203594251
0.0002226492121
0.0002703035459
0.000393014324
0.0005718579155
0.0006964831838
0.000753191204
0.0007348026763
0.0007390261907
0.0008119290224
0.0008183887305
0.0007463941709
0.0006561615027
0.0006238802656
0.0006309165059
0.000743612151
0.0009017451073
0.001006009389
0.001066452658
0.001096850004
0.001104470605
0.001093461078
0.001057563083
0.0009788971234
0.0008847067648
0.0007548035727
0.0005030887802
0.0004560270278
0.0005525715642
0.00067838633
0.00078728219
0.0008460403073
0.0008459855326
0.0001178943129
0.0002050330902
0.0002497888268
0.0003469979968
0.0004901908876
0.0005831333853
0.0006150498505
0.000546936689
0.0004046350575
0.0004562672474
0.0005626705465
0.0006145486943
0.0006633360891
0.0007276557605
0.0008313381801
0.0009886107776
0.001126589108
0.001204704312
0.001242540201
0.001262751621
0.001270494717
0.001261446104
0.001224801819
0.001133935869
0.0009884532454
0.0007827167325
0.0005716084053
0.0005875235968
0.0006043256884
0.0006265910262
0.0007174571539
0.0009071004219
0.001023455329
0.0001155151243
0.0001972421909
0.0002404001622
0.0003128334634
0.0004133971146
0.000483414113
0.0004888486203
0.0003879697449
0.0002559051348
0.0002348273126
0.0002952638244
0.0004101660359
0.0005583391693
0.0007568012954
0.0009823325052
0.001181657889
0.001307415034
0.001365543646
0.001391565328
0.001415061241
0.001435656423
0.001438413075
0.00141145889
0.001324508902
0.001152552778
0.0007960944574
0.0005943628293
0.0005384528955
0.0005057335299
0.0005493357025
0.0007582494728
0.001210129895
0.001440012606
0.0001140704906
0.0002066797675
0.0002587484683
0.0003177027399
0.0003796599716
0.0004252346061
0.0004157888079
0.0003142402674
0.0002134424274
0.0001891465628
0.0002292350943
0.0003332534161
0.0005265366435
0.000791348407
0.001052985799
0.001257881789
0.001378003747
0.001433070514
0.001464769225
0.001504812083
0.001535558432
0.001537835578
0.001509315209
0.001422456329
0.001222186139
0.0007851627343
0.0004928073444
0.0004316803836
0.0004614354732
0.0005697353519
0.0009438375456
0.001443980742
0.0016938002
0.0001141194844
0.00023612243
0.000304711664
0.0003579354705
0.0003916119731
0.0003968431005
0.0003576024367
0.0002716079836
0.0002033199274
0.0001840771516
0.0002116878925
0.0002885067108
0.0004589047276
0.0007151918125
0.0009894796223
0.001205285453
0.00133486255
0.001406641468
0.001463795523
0.001515433475
0.001524090794
0.001508765949
0.001470181942
0.001354398728
0.001079934622
0.0005735269051
0.0003574354514
0.0004142612965
0.0005762545928
0.0009318724617
0.00107120551
0.001385946807
0.001573064018
0.0001158131197
0.0002757482823
0.0003581317527
0.0004030098463
0.0004109843332
0.0003815612864
0.0003192680272
0.0002464311114
0.0002041940772
0.000197046421
0.0002197758103
0.0002667800821
0.0003696138873
0.0005626455074
0.0008105531478
0.001040287424
0.001192918919
0.001292116352
0.001372631364
0.001427332851
0.001433605352
0.001409418884
0.001335789505
0.001143658565
0.0007548991733
0.0004205281838
0.0005024994966
0.0007919919788
0.001388061475
0.002426260779
0.001439563645
0.001235610329
0.001313805875
0.0001185307055
0.0003077443947
0.0003930299475
0.0004244797409
0.000411897878
0.0003617416717
0.0002903762902
0.0002295318602
0.0002051699138
0.0002116492495
0.0002367745793
0.0002681115022
0.0003251641526
0.0004468965842
0.0006227149938
0.0008200331494
0.0009965971389
0.001130900618
0.001227680811
0.001277486129
0.001279034118
0.00123678382
0.001113122125
0.0008614331324
0.0005598074658
0.0006255261731
0.0009930607455
0.001379444824
0.001909516275
0.003010852031
0.00187210977
0.001203811411
0.001117855262
0.0001209345767
0.0003195644449
0.0003901791913
0.0003961951992
0.0003604381964
0.0003004284515
0.0002471141508
0.0002141222024
0.000199300084
0.0002219937917
0.000265074787
0.0003110331251
0.000378852785
0.0006108797709
0.0006648312528
0.0006894206077
0.0008222529507
0.0009619340057
0.001058866213
0.001110370638
0.001121165425
0.001078822281
0.0009222489173
0.0006898645655
0.0006833721121
0.001031467923
0.001389886657
0.00162074725
0.001808506067
0.002103499602
0.001703486057
0.001396024382
0.001039720344
0.0001215273014
0.0003104292075
0.0003640256316
0.0003543756219
0.0003087121705
0.0002885285932
0.0003595420546
0.0003794956721
0.0002893554115
0.0002932075538
0.0003674748597
0.0004399250982
0.0008907375645
0.001844169521
0.001605674554
0.0006201652046
0.0006655525474
0.0007778977999
0.0008736326096
0.0009361173042
0.00101157101
0.001117646441
0.001072702743
0.000818790091
0.0009716309918
0.001314798772
0.001599769977
0.001773336234
0.001857237791
0.001867488642
0.001717960442
0.001475314417
0.001150627307
0.0001209168817
0.0002827120509
0.0003008745182
0.0002673078297
0.0002733624373
0.0004174194963
0.0006037642749
0.0006364994961
0.0005151881204
0.0004419240943
0.0005796760649
0.0006872708062
0.0007513952721
0.0009594510935
0.0007279721366
0.0004873204977
0.0005025332363
0.000581852178
0.0006738033307
0.0008697130298
0.001283303815
0.001612311387
0.001581095788
0.001229801441
0.001200207942
0.001452981308
0.00169717245
0.001849453863
0.001907141018
0.001876285884
0.00174907645
0.001512019042
0.001205037505
0.0001186649048
0.0002540637771
0.0002671770813
0.0002452468287
0.0002528895514
0.000401085052
0.0005996049577
0.0006529903562
0.0005857038969
0.0006306986727
0.0008591215771
0.001119011441
0.001216384914
0.0009948166499
0.0006306603946
0.0004244153588
0.0003922246575
0.0004268392133
0.0005187912098
0.0008221252822
0.001447667322
0.001775501643
0.001618516639
0.001162562206
0.001216827105
0.001463851028
0.001694905964
0.001841278918
0.00189303209
0.001851284851
0.001712719095
0.001467251794
0.001178680191
0.0001156157766
0.0002272537406
0.0002354678842
0.0002206035043
0.0002191524776
0.0002836841633
0.0004167039317
0.0004888850517
0.0005492042719
0.0007345558815
0.001055875793
0.001533071327
0.001805655502
0.001218421238
0.0005939460091
0.000365039765
0.0003247285456
0.0003376656263
0.0003811900106
0.0005701528436
0.001060048469
0.001398119454
0.001182978208
0.0009006802634
0.001125369275
0.001380046092
0.001601805707
0.001743928229
0.001791929012
0.001740097672
0.001584558155
0.001333729179
0.001089765141
0.0001118713309
0.0002027805007
0.0002084906058
0.0001987343884
0.0002009312429
0.0002331834378
0.00030494728
0.0003877118253
0.0004980444609
0.0006882140878
0.0009114421439
0.001216808186
0.001482323973
0.0009374127098
0.0004529676471
0.0003108132877
0.0002921491316
0.0003047195402
0.0003150395768
0.0003596846191
0.0005356656576
0.0007254220826
0.000679900743
0.0007280869502
0.0009905253456
0.001225902318
0.001427326523
0.001558429995
0.001598715209
0.001536366811
0.001375962577
0.001151941636
0.001047666292
0.0001074439207
0.0001815837228
0.0001874497859
0.0001825674234
0.0001879848604
0.0002170766651
0.0002780777402
0.0003626050395
0.0004635783233
0.0006086249962
0.0007310272347
0.0008290510969
0.0008293071892
0.0006005383528
0.000367401765
0.0003051761089
0.000316808058
0.0003384271654
0.0003374902473
0.0003233132494
0.0003421259683
0.0004058533012
0.00046294386
0.0006034062071
0.0008261879054
0.001030560103
0.001199253341
0.00131035146
0.001341012256
0.001278160737
0.001147596119
0.001013005431
0.001103908277
0.000102203302
0.0001640241059
0.0001711540757
0.0001704394378
0.0001801304456
0.0002107293629
0.0002677860066
0.0003492122487
0.0004456250676
0.0005540918345
0.0006292161209
0.0006497337052
0.0005989469782
0.0004774509829
0.0003824825339
0.000379429116
0.0004182870644
0.000445189828
0.0004346878584
0.0003936321183
0.0003530189136
0.0003483145159
0.0003978481048
0.0005097224445
0.000669468215
0.000838126062
0.0009752560075
0.00106601506
0.001096509179
0.001061540891
0.0009876996613
0.001025624876
0.001210796432
9.592898718e-05
0.000150129258
0.0001586756384
0.0001609839306
0.0001756285035
0.0002118863861
0.0002732311044
0.0003570965941
0.0004512605241
0.0005393635482
0.0005971203132
0.0006049500408
0.0005618464387
0.0005003974113
0.000475563123
0.0005068470828
0.0005571437307
0.0005831742402
0.0005668446772
0.0005101420221
0.0004369649873
0.0003837747383
0.0003871464298
0.0004553230903
0.0005691272433
0.0006926880406
0.0008042980249
0.0008918695097
0.0009418277554
0.0009503419541
0.0009863974361
0.001121431915
0.001310073607
8.8707702e-05
0.0001398103123
0.0001502740747
0.0001549533511
0.0001733610848
0.0002153113952
0.0002837955894
0.0003743111645
0.0004707999529
0.0005527563724
0.000605864596
0.0006200366237
0.0006000656248
0.0005745007036
0.000578513981
0.0006174056273
0.0006572604041
0.0006779160781
0.0006652598347
0.0006122211609
0.0005231681009
0.000432706344
0.0003901371455
0.0004233466207
0.0005127625816
0.0006178448858
0.0007162631589
0.0008036966745
0.0008819701128
0.00095510954
0.001064138983
0.001215295356
0.001353759813
8.155210602e-05
0.0001321203088
0.000144398837
0.0001508007098
0.0001709705933
0.0002156763003
0.0002883704262
0.0003835852836
0.0004822185108
0.0005623529479
0.0006159649877
0.0006389058596
0.0006354053446
0.0006249124474
0.0006330530811
0.0006641339332
0.0006962642475
0.0007145691064
0.0007017332523
0.0006534246239
0.0005690273548
0.0004591943824
0.0003869654465
0.0003928769883
0.0004604793927
0.0005584131585
0.0006632750267
0.0007671594709
0.0008742451696
0.0009900682014
0.001120299464
0.001251584223
0.001344454594
7.587358098e-05
0.0001259967259
0.0001390035048
0.0001465945257
0.0001673107558
0.0002107165582
0.0002808506513
0.0003738331965
0.0004709334646
0.0005487308362
0.0006013570382
0.0006295194589
0.0006330117824
0.0006245221109
0.000628943835
0.000657476854
0.0006851431396
0.0007016031651
0.0006900235596
0.0006469991001
0.0005693619439
0.0004588125508
0.0003804759046
0.0003623661795
0.0003959901561
0.0004733686469
0.0005808660008
0.0007039962471
0.0008365606564
0.0009753838968
0.001108233561
0.001217828065
0.001302123749
0.0003139869611
0.0001305541031
0.0001400917644
0.0001492213718
0.00016959573
0.0002071506097
0.0002664769795
0.000347597879
0.0004378957146
0.0005160454723
0.000568770834
0.0005953132124
0.0005967743234
0.0005851855966
0.0005844996482
0.0006097551599
0.0006453518988
0.0006601067723
0.000652639489
0.000618216658
0.0005434318896
0.0004501801825