/*--------------------------------*- C++ -*----------------------------------*\
  =========                 |
  \\      /  F ield         | OpenFOAM: The Open Source CFD Toolbox
   \\    /   O peration     | Website:  https://openfoam.org
    \\  /    A nd           | Version:  8
     \\/     M anipulation  |
\*---------------------------------------------------------------------------*/
FoamFile
{
    version     2.0;
    format      ascii;
    class       surfaceScalarField;
    location    "1.1";
    object      phi;
}
// * * * * * * * * * * * * * * * * * * * * * * * * * * * * * * * * * * * * * //

dimensions      [1 0 -1 0 0 0 0];

internalField   nonuniform List<scalar> 
197358
(
-1.11024477e-06
-3.012375537e-05
-3.185674604e-06
-7.445094134e-06
-3.449902991e-05
3.108164547e-06
-1.758489761e-05
-4.079621304e-05
8.382714005e-06
-2.576829926e-05
-4.817393875e-05
8.081575443e-06
-2.768470261e-05
-5.541384426e-05
3.096659294e-06
-2.24794796e-05
-6.184527166e-05
-2.948850062e-06
-1.116119247e-05
-6.646503427e-05
-8.028265388e-06
4.078025371e-06
-6.627640533e-05
-1.147027664e-05
1.652333812e-05
-5.749008186e-05
-8.903621223e-06
2.108496877e-05
-5.028476505e-05
-1.312652478e-06
1.678004407e-05
-4.108430219e-05
7.323004253e-06
5.650461673e-06
-3.36373931e-05
1.318479557e-05
-6.57614315e-06
-3.328063027e-05
1.508689709e-05
-1.571077759e-05
-3.793786328e-05
1.471714823e-05
-2.373209364e-05
-3.743584795e-05
1.393390449e-05
-3.22961737e-05
-3.471205724e-05
1.521004826e-05
-4.018308786e-05
-3.020452855e-05
1.647859619e-05
-4.571488661e-05
-2.625748669e-05
1.668070225e-05
-4.802211666e-05
-2.41771147e-05
1.619094278e-05
-4.658953389e-05
-2.440231663e-05
1.431435915e-05
-3.933852261e-05
-2.707548358e-05
6.785402718e-06
-2.087954477e-05
-3.181625431e-05
-1.329214397e-05
-1.618769634e-05
-4.930466388e-05
-1.530738944e-06
-3.02521113e-05
-4.041051498e-05
1.844225336e-05
-3.981863226e-05
-3.48439724e-05
1.319184632e-05
-3.197931701e-05
-2.794844022e-05
-6.423757173e-06
-9.884451148e-06
-2.483511009e-05
-2.21721113e-05
-1.85671246e-05
-2.235926417e-05
-5.066502623e-06
-2.456884244e-05
-4.894632576e-07
-1.595276691e-05
-3.007304919e-05
6.459257375e-06
-2.841046929e-05
-3.764564859e-05
9.306184158e-06
-3.656366833e-05
-4.581596506e-05
5.794375704e-06
-3.757453376e-05
-5.309148844e-05
-1.312245899e-06
-3.083952802e-05
-5.991565919e-05
-8.66528432e-06
-1.700825383e-05
-6.468891314e-05
-1.560798354e-05
1.704628703e-06
-6.447510406e-05
-2.051471017e-05
1.846036875e-05
-5.65533513e-05
-1.769295173e-05
2.781278498e-05
-5.031488774e-05
-9.322737349e-06
2.710982186e-05
-4.347064821e-05
3.088896113e-06
1.622825787e-05
-3.598074298e-05
1.322452315e-05
1.149873304e-08
-3.627759231e-05
1.921333461e-05
-1.483556087e-05
-4.253552898e-05
1.944437832e-05
-2.600453004e-05
-4.210949464e-05
1.584227854e-05
-3.654572585e-05
-3.96930744e-05
1.552189068e-05
-4.541278576e-05
-3.682442669e-05
1.548664725e-05
-5.125333851e-05
-3.418021023e-05
1.376296906e-05
-5.400134364e-05
-3.220273425e-05
1.077331586e-05
-5.337829541e-05
-3.056631453e-05
5.540636461e-06
-4.68997901e-05
-2.885267731e-05
-4.701639064e-06
-2.830671614e-05
-2.759492001e-05
-2.28147619e-05
-5.545354882e-06
-3.302746568e-05
-3.90388542e-05
-1.746420366e-05
-3.727811481e-05
8.786124129e-06
-3.631752828e-05
-3.253632486e-05
1.654537949e-05
-2.958861724e-05
-2.489647019e-05
-9.781184542e-06
-7.388431191e-06
-2.048834921e-05
-2.654723886e-05
1.486633657e-05
-1.633820745e-05
-2.448401158e-05
3.069389384e-05
-4.886621943e-06
-2.208107992e-05
3.474605247e-05
-3.502248801e-06
-1.161214929e-05
2.922992564e-05
-1.440295186e-05
3.116330394e-06
-3.023757867e-05
1.729807516e-05
-1.073965584e-05
-1.716555505e-05
3.335194364e-06
-2.600865852e-05
-2.408655349e-05
9.281361312e-06
-3.949598657e-05
-3.242606102e-05
8.266665865e-06
-4.713461866e-05
-3.973412622e-05
1.555861177e-06
-4.786578393e-05
-4.584237217e-05
-6.51876086e-06
-4.001575726e-05
-5.168039793e-05
-1.608598041e-05
-2.387562753e-05
-5.541813192e-05
-2.54115017e-05
-2.270893336e-06
-5.479926266e-05
-3.128109088e-05
1.798909088e-05
-4.877279985e-05
-2.804100096e-05
3.449358634e-05
-4.776655214e-05
-1.905327371e-05
3.806582846e-05
-4.498013534e-05
-2.063190882e-06
2.694313326e-05
-3.720404937e-05
1.234558754e-05
7.182306449e-06
-3.861397983e-05
2.209682128e-05
-1.316115563e-05
-4.518908068e-05
2.299663681e-05
-2.785531938e-05
-4.481110887e-05
1.739541566e-05
-4.032746132e-05
-4.302267862e-05
1.580140013e-05
-5.038634593e-05
-4.134224221e-05
1.457636435e-05
-5.762814262e-05
-3.875408879e-05
1.181534245e-05
-6.278097834e-05
-3.507660498e-05
8.026376854e-06
-6.474551402e-05
-2.957472314e-05
9.726267101e-07
-5.92260067e-05
-2.097099213e-05
-1.340148399e-05
-3.592517325e-05
-7.501695937e-06
-4.339428909e-05
1.218972154e-05
8.826545289e-06
-8.996822733e-05
3.008516101e-06
-2.145953012e-05
-6.637622254e-06
-2.901267369e-05
-1.725312919e-05
1.673776125e-05
-2.05891214e-05
-9.878276858e-06
-2.344203427e-05
1.022554668e-05
5.018101392e-06
-5.632123014e-05
3.620109705e-05
-3.86337144e-06
-3.845089612e-05
4.334117587e-05
4.892708799e-06
-1.692018307e-05
3.671166286e-05
3.229219347e-08
3.094489621e-06
2.450894474e-05
-1.822097678e-05
1.602035851e-05
-3.537126095e-05
1.823314867e-05
-1.762734388e-05
-7.728402244e-06
8.188858171e-06
-3.578468586e-05
-1.600564265e-05
1.00751193e-05
-4.82031277e-05
-2.286411985e-05
2.855236617e-06
-5.482830194e-05
-2.677309152e-05
-6.336886703e-06
-5.576074439e-05
-3.084612425e-05
-1.40646692e-05
-4.716891038e-05
-3.438574445e-05
-2.588718585e-05
-2.91435191e-05
-3.672450868e-05
-3.671957044e-05
-5.651852658e-06
-3.661495407e-05
-4.167643698e-05
1.781735962e-05
-3.611916645e-05
-3.612326848e-05
4.334213875e-05
-5.045259421e-05
-2.283915118e-05
5.033696551e-05
-4.839946083e-05
-3.575957548e-06
3.616615932e-05
-3.647943829e-05
1.344575749e-05
1.107433393e-05
-3.879174036e-05
2.526917875e-05
-1.324212428e-05
-4.530313214e-05
2.443011104e-05
-3.033760821e-05
-4.62752112e-05
1.855920466e-05
-4.295906449e-05
-4.624421135e-05
1.584262216e-05
-5.103852352e-05
-4.612978672e-05
1.286664319e-05
-5.465879704e-05
-4.427242614e-05
9.138251234e-06
-5.476523508e-05
-4.081610696e-05
5.845582258e-06
-5.207071425e-05
-3.553440018e-05
3.264806862e-06
-4.585656718e-05
-2.751234366e-05
3.268697986e-07
-3.416649786e-05
-1.46775098e-05
-4.51461138e-06
-1.617284805e-05
2.843566012e-06
-1.201094325e-05
-2.021191878e-05
-2.514495624e-05
7.724145956e-06
-2.665130028e-05
-2.045374734e-05
9.639656166e-06
-2.35823823e-05
-1.300032311e-05
5.274802034e-08
-3.179114901e-06
-1.084260398e-06
-1.43012221e-05
1.981269002e-05
-3.743322688e-06
-2.311223585e-05
2.511851835e-05
-1.675188995e-06
1.261647725e-06
1.675783493e-05
-1.104337685e-05
1.94360243e-05
9.757571151e-06
-2.829670985e-05
1.707564316e-05
6.403794608e-06
-3.465134647e-05
2.633493341e-06
-4.292384327e-05
5.381304089e-06
-2.41660026e-05
3.871537943e-06
1.256468473e-05
-4.348665268e-05
-2.092014242e-06
5.405609663e-06
-5.170711627e-05
-5.621103414e-06
-9.023976193e-06
-5.558253944e-05
-3.393612442e-06
-1.950514269e-05
-5.757356744e-05
-5.110525595e-06
-2.374545298e-05
-4.843146334e-05
-7.315428524e-06
-3.621308232e-05
-2.963388465e-05
-9.889589059e-06
-4.563299119e-05
-4.86790617e-06
-1.491010934e-05
-4.64712346e-05
2.240775957e-05
-2.98036813e-05
-3.359159317e-05
5.20221539e-05
-6.507760238e-05
-1.498997697e-05
5.709862583e-05
-5.212561706e-05
-1.350863632e-06
3.892860502e-05
-3.458539467e-05
1.627549052e-05
7.68011566e-06
-3.725265169e-05
2.970898173e-05
-1.730966193e-05
-4.345712928e-05
2.314336034e-05
-3.516251617e-05
-4.73355644e-05
1.891281344e-05
-4.742412276e-05
-4.938830189e-05
1.540531084e-05
-5.38949104e-05
-5.021869979e-05
1.05593161e-05
-5.571860361e-05
-4.838838796e-05
5.939271569e-06
-5.421562301e-05
-4.468507828e-05
2.365614797e-06
-5.024244149e-05
-3.972449725e-05
2.16564778e-07
-4.400900194e-05
-3.384048136e-05
9.443814789e-08
-3.39758261e-05
-2.722060229e-05
2.509595522e-06
-1.867170331e-05
-1.934939592e-05
6.888559995e-06
-2.057507879e-05
-2.761596309e-05
4.374053695e-06
-2.287906601e-05
-2.329662482e-05
5.146533646e-06
-2.0939183e-05
-1.661668082e-05
1.676114103e-06
-1.889069379e-06
-1.248181702e-05
-7.65298778e-06
2.023021194e-05
1.381061687e-06
-2.724402835e-05
2.108720199e-05
-1.144858804e-05
8.91604776e-06
7.251959502e-06
-1.780056072e-05
2.059210007e-05
1.197711675e-06
-2.682416798e-05
4.581359172e-06
4.735877058e-06
-2.586169358e-05
-1.232816374e-05
-3.897407191e-05
-1.869487165e-06
-3.075068182e-05
2.224757963e-05
1.237294694e-05
-4.534171492e-05
2.086467093e-05
-8.367368523e-06
-4.652993865e-05
2.297196895e-05
-2.740699601e-05
-5.607427568e-05
2.269455707e-05
-1.654504411e-05
-5.403607813e-05
2.09146076e-05
-2.806421708e-05
-4.21620184e-05
2.059760876e-05
-3.978768575e-05
-2.553460469e-05
1.912544615e-05
-4.564285176e-05
-1.049000696e-05
1.130703453e-05
-4.126208382e-05
3.776829039e-07
-1.617565178e-05
-2.449600199e-05
2.202600754e-05
-5.74390246e-05
-2.928724831e-05
4.237275194e-05
-4.534827657e-05
-2.712459094e-05
3.243096417e-05
-2.970615731e-05
5.062096211e-06
-1.276793587e-06
-3.269884081e-05
2.91535243e-05
-2.286616335e-05
-4.01031078e-05
1.823492651e-05
-4.024614557e-05
-4.741423823e-05
1.745824865e-05
-5.128919609e-05
-5.186207188e-05
1.351641222e-05
-5.554297158e-05
-5.326271028e-05
7.29737633e-06
-5.489157109e-05
-5.118240801e-05
2.142211527e-06
-5.084305582e-05
-4.735273845e-05
-1.381254071e-06
-4.437894623e-05
-4.287754451e-05
-3.311442754e-06
-3.669291166e-05
-3.783579542e-05
-3.691073422e-06
-2.891551515e-05
-3.255390264e-05
-2.444444759e-06
-2.043757503e-05
-2.751045759e-05
-3.172098933e-07
-1.853503428e-05
-2.941268234e-05
-1.061533192e-07
-1.816679252e-05
-2.315041713e-05
-5.147745608e-07
-1.392822539e-05
-1.68185552e-05
-4.037046069e-06
1.110601685e-05
-3.337128403e-07
-3.718218142e-05
9.918167699e-06
-1.998785978e-06
4.567428882e-06
-4.96462516e-08
-1.364847799e-05
1.216737189e-05
-3.101257244e-06
-1.85184808e-05
3.769233302e-06
-4.243732781e-07
-2.38346305e-05
-5.666757451e-06
7.689259094e-07
-2.604832724e-05
-1.007026798e-06
-3.919683106e-05
6.183786817e-07
-2.368823912e-05
3.040053609e-05
1.553424746e-05
-4.50173681e-05
2.839508039e-05
1.37976793e-05
-5.695999405e-05
2.994926539e-05
4.964188249e-06
-6.313956242e-05
3.182891683e-05
-2.955625018e-06
-6.258325974e-05
3.470904857e-05
-1.435136027e-05
-6.059532235e-05
4.025327387e-05
-2.164402982e-05
-6.717988737e-05
4.725093647e-05
-2.154120491e-05
-8.589297278e-05
4.932272157e-05
-1.930291873e-05
-9.250091121e-05
3.714303669e-05
-4.671043587e-05
-5.461952627e-05
1.062701108e-05
-0.0001059438642
5.813485422e-06
-1.509866605e-05
-9.068218158e-05
1.769732129e-05
-2.643192084e-05
-1.515844848e-05
-1.357941617e-05
-2.091150264e-05
1.948898143e-05
-2.914356103e-05
-3.613853373e-05
1.15991279e-05
-4.570624069e-05
-4.468561172e-05
1.383363067e-05
-5.506404183e-05
-5.189839582e-05
9.393693566e-06
-5.696175221e-05
-5.349467401e-05
2.12923874e-06
-5.399905375e-05
-5.121161964e-05
-2.933920187e-06
-4.812387807e-05
-4.750396455e-05
-5.724371517e-06
-4.036269519e-05
-4.37833718e-05
-6.85575754e-06
-3.203503686e-05
-4.004826818e-05
-6.115564506e-06
-2.443362977e-05
-3.687017798e-05
-3.285490094e-06
-1.77029941e-05
-3.439185737e-05
1.504290727e-07
-1.472770484e-05
-3.34683901e-05
1.080099732e-06
-1.069217987e-05
-2.574929686e-05
-1.436950608e-06
-7.425547122e-06
-1.916071058e-05
-9.24773158e-07
-5.290313427e-06
-7.297737307e-06
4.828522814e-06
-6.154691073e-06
-1.292514452e-05
1.179042769e-05
-7.716596159e-06
-1.657999974e-05
4.493170945e-06
-6.30903819e-06
-1.69379659e-05
-2.988335766e-06
-2.408814585e-06
-2.060218125e-05
-7.132976009e-06
-7.020740404e-07
-2.935906819e-05
1.603674252e-06
-4.626904683e-05
6.588724876e-06
-1.989328866e-05
3.526027134e-05
1.503308565e-05
-3.907002731e-05
3.181129382e-05
1.576002462e-05
-5.161742277e-05
3.300396587e-05
9.492115408e-06
-5.729892441e-05
3.625266756e-05
1.257300188e-06
-5.578112763e-05
4.079798952e-05
-7.607124128e-06
-4.876647875e-05
4.671926278e-05
-1.348098118e-05
-4.188261057e-05
5.3413961e-05
-1.304724132e-05
-4.237490794e-05
5.829092765e-05
-8.476413536e-06
-4.787909875e-05
5.951555726e-05
-1.686899541e-05
-4.136985721e-05
5.31483058e-05
-4.903080745e-05
-1.577651541e-05
1.475769815e-05
-5.544995641e-05
-7.926782704e-06
-1.440102829e-05
-1.988098993e-05
-2.412293981e-05
-1.042772819e-05
5.711945229e-06
-3.971830465e-05
-2.655016732e-05
6.006543661e-06
-5.338339847e-05
-3.89485044e-05
7.927539798e-06
-5.978030244e-05
-4.751031443e-05
2.008367506e-06
-5.835441207e-05
-4.938765801e-05
-5.533367539e-06
-5.250922639e-05
-4.708637964e-05
-9.970882866e-06
-4.484972399e-05
-4.345785528e-05
-1.17060533e-05
-3.621359225e-05
-4.041030931e-05
-1.200961211e-05
-2.728954821e-05
-3.816361228e-05
-1.080909014e-05
-1.93052442e-05
-3.753955566e-05
-7.31528602e-06
-1.329822185e-05
-3.777761061e-05
-2.62159197e-06
-9.633188762e-06
-3.669575123e-05
-4.379553522e-07
-6.515435772e-06
-2.48168737e-05
-4.050428798e-06
-4.15774331e-06
-1.833490454e-05
-3.183706995e-06
-4.049973777e-06
-1.505830286e-05
7.652626653e-06
-8.194510001e-06
-1.621810976e-05
7.437343053e-06
-1.021201952e-05
-1.839961986e-05
3.836979333e-06
-9.987316756e-06
-1.837431705e-05
1.211472276e-06
-9.466823308e-06
-2.187395844e-05
7.510604584e-07
-8.003776695e-06
-3.585279665e-05
5.030430113e-06
-5.463711344e-05
2.062728675e-06
-1.701379925e-05
3.796224634e-05
1.431190526e-05
-3.339228756e-05
3.273330189e-05
1.545652915e-05
-4.406030255e-05
3.321949962e-05
1.045244409e-05
-4.827893139e-05
3.662101034e-05
3.85021375e-06
-4.637311167e-05
4.142224339e-05
-2.530224532e-06
-3.927852571e-05
4.69424734e-05
-7.31801687e-06
-3.126990802e-05
5.259571046e-05
-7.190649865e-06
-2.858581163e-05
5.490162596e-05
7.048517963e-07
-3.335110692e-05
4.994950626e-05
1.433099105e-05
-3.139832347e-05
5.075831247e-05
4.367880834e-07
-3.224757025e-05
2.704090094e-05
-1.143434137e-05
-4.383023429e-05
7.411416293e-07
-3.55996187e-06
-4.959074138e-05
-4.102957354e-06
-5.647311002e-07
-5.877944085e-05
-1.839382115e-05
1.031869288e-06
-6.551423896e-05
-3.110432075e-05
-1.109861694e-06
-6.541236678e-05
-3.86049559e-05
-9.007716963e-06
-5.88187778e-05
-3.986185723e-05
-1.61198773e-05
-4.975822697e-05
-3.738169519e-05
-1.876571143e-05
-4.109006474e-05
-3.420415368e-05
-1.792232206e-05
-3.295867014e-05
-3.23668895e-05
-1.617524516e-05
-2.488100438e-05
-3.163925632e-05
-1.460241603e-05
-1.715143604e-05
-3.320992332e-05
-1.205954866e-05
-1.036076205e-05
-3.550313083e-05
-9.065444258e-06
-5.817622112e-06
-3.401704993e-05
-7.222063914e-06
-4.528575449e-06
-1.995882056e-05
-6.14725275e-06
-8.618689298e-06
-1.131228065e-05
-2.932586165e-06
-1.096031209e-05
-1.506356308e-05
2.34690124e-06
-1.080401973e-05
-1.45484487e-05
-1.82591617e-06
-1.241713665e-05
-1.982178746e-05
3.035322945e-06
-1.559391716e-05
-2.373530323e-05
8.537773339e-06
-1.838116759e-05
-2.805901485e-05
8.97225845e-06
-1.329639714e-05
-4.029281869e-05
-6.448584716e-07
-5.377182732e-05
-1.596554837e-05
-1.342309486e-05
3.814664869e-05
1.323915078e-05
-2.691718976e-05
3.114609034e-05
1.508172801e-05
-3.577616174e-05
3.102563043e-05
1.105315176e-05
-3.90173145e-05
3.406666209e-05
5.79570283e-06
-3.725432693e-05
3.821039021e-05
1.448896544e-06
-3.1324379e-05
4.263157272e-05
-1.619166169e-06
-2.379302878e-05
4.629737858e-05
-1.233249692e-06
-2.031611489e-05
4.460929084e-05
6.815103137e-06
-2.683465918e-05
3.353416581e-05
2.293351263e-05
-3.444783546e-05
3.427355532e-05
2.409751557e-05
-4.467296947e-05
2.179224316e-05
1.547335385e-05
-6.150512329e-05
5.24649878e-06
1.232631372e-05
-7.204256293e-05
-1.321886262e-06
7.755869369e-06
-7.78852413e-05
-1.149785749e-05
-1.053803918e-06
-7.66810804e-05
-1.971563812e-05
-1.25933711e-05
-6.879987475e-05
-2.319881217e-05
-2.328787589e-05
-5.694009763e-05
-2.256931377e-05
-2.9152831e-05
-4.516228374e-05
-2.006603057e-05
-2.909397517e-05
-3.654362471e-05
-1.866877818e-05
-2.415451203e-05
-3.049317714e-05
-1.972835221e-05
-1.868942893e-05
-2.486803136e-05
-2.05846088e-05
-1.668018556e-05
-1.787060304e-05
-2.326785558e-05
-1.693981429e-05
-9.224522338e-06
-2.55857644e-05
-1.85636839e-05
3.426276782e-07
-2.416912362e-05
-1.941522533e-05
1.752623472e-07
-1.254684144e-05
-7.244641339e-06
-7.938803728e-06
-8.766357852e-06
5.568245937e-06
-1.049807529e-05
-1.267722768e-05
1.732930287e-07
-1.46898205e-05
-1.504707695e-05
4.690735624e-06
-2.397246122e-05
-2.446268185e-05
1.39239368e-05
-2.999195724e-05
-3.163054328e-05
1.391509763e-05
-3.193391351e-05
-2.954289696e-05
3.426078845e-06
-1.817936623e-05
-3.137076603e-05
-2.267646713e-05
-3.339576749e-05
-4.919107969e-05
-9.763415451e-06
3.540469439e-05
1.25059818e-05
-2.039523606e-05
2.728168011e-05
1.449680309e-05
-2.770462862e-05
2.647473003e-05
1.186076082e-05
-3.056526461e-05
2.873410776e-05
8.193511377e-06
-2.937587918e-05
3.197047826e-05
5.050650591e-06
-2.497573896e-05
3.514849887e-05
3.082874204e-06
-1.942133946e-05
3.67680021e-05
3.974770976e-06
-1.751080271e-05
3.205219195e-05
1.064624541e-05
-2.757649109e-05
1.937503157e-05
2.422443103e-05
-4.176848556e-05
1.986484405e-05
2.860026826e-05
-5.772063065e-05
1.475572464e-05
2.298818919e-05
-7.564494775e-05
8.316083507e-06
1.485421298e-05
-8.535617577e-05
5.57606337e-06
2.812708697e-06
-8.685825183e-05
1.86760691e-06
-1.186400664e-05
-8.058421434e-05
-8.509406965e-08
-2.590518205e-05
-6.830261403e-05
2.210466693e-07
-3.570202996e-05
-5.301599391e-05
1.969686003e-06
-3.98261615e-05
-3.929923889e-05
3.720682889e-06
-3.750399811e-05
-3.164389526e-05
2.82328834e-06
-2.914791883e-05
-3.008065369e-05
-1.029831383e-06
-2.026223022e-05
-2.825819739e-05
-3.285564276e-06
-1.912189389e-05
-2.278596003e-05
-4.836872846e-06
-2.390349977e-05
-1.344054954e-05
-4.807626948e-06
-3.012372288e-05
-4.1400911e-06
-2.06827742e-06
-3.14013614e-05
-2.335370345e-06
9.317658811e-07
-1.528323343e-05
-1.274345985e-05
-6.693767389e-06
8.335794597e-06
-2.513510845e-05
-1.45886721e-05
1.430366029e-05
-3.400100523e-05
-2.398144968e-05
1.780113354e-05
-4.446635739e-05
-3.298411691e-05
1.898792279e-05
-4.723991071e-05
-4.055013868e-05
1.169423542e-05
-4.364632959e-05
-2.065724755e-05
-1.247840518e-05
-1.829351062e-05
-8.227674493e-06
-4.849527048e-05
2.610861026e-06
-7.654523604e-05
-7.529458388e-06
3.057642526e-05
1.235828686e-05
-1.606735419e-05
2.313566269e-05
1.268442586e-05
-2.166678406e-05
2.152663455e-05
1.054794129e-05
-2.387983271e-05
2.231197597e-05
8.63545563e-06
-2.315279818e-05
2.395395573e-05
7.289587024e-06
-2.014034616e-05
2.538621858e-05
6.749754166e-06
-1.663107129e-05
2.505488285e-05
8.203620113e-06
-1.816122338e-05
1.952754487e-05
1.405445273e-05
-3.313752422e-05
1.112479805e-05
2.322609752e-05
-5.209213118e-05
1.198244953e-05
2.683651132e-05
-7.093957728e-05
1.122934972e-05
2.237328689e-05
-8.626450028e-05
1.127195615e-05
1.236844102e-05
-9.248154051e-05
1.288941399e-05
-1.097092379e-06
-9.032616244e-05
1.431474298e-05
-1.460349409e-05
-8.128702725e-05
1.765126373e-05
-2.67762679e-05
-6.731058496e-05
2.10551538e-05
-3.48112077e-05
-5.083475442e-05
2.302392496e-05
-3.75306841e-05
-3.694021637e-05
2.343820725e-05
-3.36126745e-05
-3.419287035e-05
2.202844958e-05
-2.195307662e-05
-4.000889995e-05
1.809087291e-05
-1.330517929e-05
-3.920729912e-05
1.530575455e-05
-1.9393338e-05
-3.044914566e-05
1.565889347e-05
-2.925423096e-05
-1.659493846e-05
1.741408379e-05
-3.607606559e-05
-2.234116407e-06
1.833458217e-05
-3.476367701e-05
4.883604902e-06
9.193149845e-06
-1.537889245e-05
-8.055610407e-06
-6.371078956e-06
1.261706086e-05
-3.074042706e-05
-2.045152721e-05
2.854870915e-05
-4.564215822e-05
-3.383951897e-05
2.476160024e-05
-5.570257614e-05
-4.21169813e-05
1.919608625e-05
-4.753308873e-05
-5.314510468e-05
4.428115118e-06
-4.048051645e-05
-1.018593487e-05
-1.752197546e-05
-1.422208334e-05
1.054487811e-05
-4.502954868e-05
3.307742359e-05
-7.215163533e-05
-7.567197429e-06
2.568842205e-05
1.24555847e-05
-1.519020853e-05
2.044932571e-05
1.030968623e-05
-1.952338131e-05
1.812540525e-05
7.734656509e-06
-2.104073876e-05
1.708263223e-05
6.746836185e-06
-2.054378201e-05
1.605194539e-05
7.405044768e-06
-1.837228284e-05
1.380533018e-05
9.409235253e-06
-1.590157591e-05
9.85809597e-06
1.272579152e-05
-1.999637764e-05
5.893011297e-06
1.772893091e-05
-3.698607733e-05
6.87781571e-06
2.123617803e-05
-5.514161131e-05
6.886463102e-06
2.325095088e-05
-7.255673815e-05
7.455116191e-06
2.118876266e-05
-8.61145016e-05
9.493630075e-06
1.533548225e-05
-9.174796369e-05
1.266154081e-05
5.860556576e-06
-8.866259521e-05
1.598351478e-05
-4.755547707e-06
-7.994509796e-05
2.418206387e-05
-1.524913367e-05
-6.736513039e-05
3.15421767e-05
-2.30677677e-05
-5.242142362e-05
3.415832893e-05
-2.607885128e-05
-4.010729623e-05
3.37893581e-05
-2.266600606e-05
-3.786077338e-05
3.21909826e-05
-1.240971527e-05
-4.097805818e-05
2.84831444e-05
-7.275552478e-06
-3.848766581e-05
2.563814749e-05
-1.282323924e-05
-2.963305063e-05
2.671061806e-05
-1.990665203e-05
-1.755427638e-05
2.972536825e-05
-2.439018766e-05
-4.385620037e-06
2.615968891e-05
-2.099371845e-05
-1.013878179e-05
9.224018537e-06
5.722612818e-06
-3.401609729e-05
-1.311086208e-05
3.061788621e-05
-5.037205319e-05
-2.553563146e-05
2.144166534e-05
-6.065674902e-05
-3.320498557e-05
9.653509963e-06
-5.731976617e-05
-3.708270002e-05
-8.363731055e-06
-1.174518591e-05
-4.606661301e-05
-5.263925556e-05
-1.139671859e-05
-1.086597428e-05
3.366888724e-07
-3.521296236e-06
1.627032788e-05
-1.359824764e-05
4.764066832e-05
-4.235489121e-05
-8.892540044e-06
2.22717383e-05
1.230939177e-05
-1.586242226e-05
1.899580549e-05
8.423533374e-06
-1.943515754e-05
1.611692616e-05
5.581278451e-06
-2.105678854e-05
1.379398914e-05
4.910242886e-06
-2.213564872e-05
1.041874008e-05
6.711919506e-06
-2.221490656e-05
3.072472105e-06
1.081185051e-05
-2.090707306e-05
-7.202769881e-06
1.575265389e-05
-2.66479456e-05
-7.492142989e-06
1.912554225e-05
-4.352091127e-05
4.456023828e-06
1.929414575e-05
-5.813711423e-05
5.816755862e-07
2.09202144e-05
-7.193840908e-05
2.975533243e-07
2.095781621e-05
-8.476179759e-05
2.573512271e-06
1.974214375e-05
-9.032773957e-05
2.708212052e-06
1.551724099e-05
-7.610029527e-05
-6.768776709e-06
8.521426919e-06
-7.153141942e-05
2.367159931e-05
-4.05949389e-06
-6.514276738e-05
3.674744874e-05
-1.159497359e-05
-5.488105303e-05
3.924739603e-05
-1.53517192e-05
-4.602847029e-05
3.827911121e-05
-1.334320386e-05
-4.309399001e-05
3.598959262e-05
-6.733850566e-06
-4.169287386e-05
3.181601315e-05
-4.734617111e-06
-3.597136757e-05
2.706242087e-05
-7.146272987e-06
-2.638871125e-05
2.60719825e-05
-8.944358594e-06
-1.834442954e-05
3.144404698e-05
-9.76312927e-06
-1.430201655e-05
2.48075938e-05
-2.690291393e-06
-2.847062876e-05
1.531719027e-07
2.323977339e-05
-4.915672059e-05
-1.338924449e-05
2.096526396e-05
-6.104857408e-05
-1.747993734e-05
3.837760779e-06
-7.160896548e-05
-1.38578608e-05
-8.783023908e-06
-7.680908945e-05
-3.671176429e-06
-2.819681723e-05
3.578917671e-05
4.44580627e-05
-0.0002030890744
2.554253477e-05
4.917486453e-06
-5.525428292e-06
1.084260076e-05
1.758596837e-05
1.338716133e-05
4.798566866e-05
-1.110378512e-05
-1.138240334e-05
2.130173397e-05
1.235237005e-05
-1.906153551e-05
1.848913594e-05
8.18573636e-06
-2.363502866e-05
1.436430401e-05
6.325998791e-06
-2.731255744e-05
1.00990444e-05
7.372281562e-06
-3.103420346e-05
2.713942595e-06
1.142615801e-05
-3.213622938e-05
-1.135499973e-05
1.552912165e-05
-3.071447692e-05
-2.270306493e-05
1.407808944e-05
-3.483053612e-05
-1.827312352e-05
1.489649416e-05
-4.737683908e-05
-5.769233501e-06
2.277091169e-05
-5.838653201e-05
-1.218550255e-05
2.377618092e-05
-6.741242551e-05
-1.408978399e-05
2.341255863e-05
-7.445341199e-05
-1.499255789e-05
2.460625542e-05
-7.823889911e-05
-1.730956523e-05
2.380252087e-05
-7.363834668e-05
-2.7104414e-05
1.573494014e-05
-6.689880519e-05
1.35955469e-05
3.33586206e-06
-6.163588839e-05
3.221370271e-05
-7.304283874e-07
-5.575012442e-05
3.960875851e-05
-6.248317089e-06
-5.056057362e-05
4.035992507e-05
-7.271421322e-06
-4.777477441e-05
3.727858754e-05
-4.075663097e-06
-4.435002643e-05
3.17984031e-05
-3.407843829e-06
-3.808411789e-05
2.345629113e-05
-2.660330293e-06
-2.767287856e-05
1.545841802e-05
2.019434246e-07
-2.21729026e-05
2.24458369e-05
3.498011181e-06
-2.776948335e-05
1.726208952e-05
1.314207192e-05
-4.553465318e-05
-3.76827379e-08
1.795627484e-05
-5.629066228e-05
-3.558031817e-06
9.254580658e-07
-5.704452092e-05
-1.981913632e-06
-1.474282244e-05
-4.948400575e-05
3.971574189e-06
-2.538725272e-05
-3.537768503e-05
1.416840292e-05
-3.194029281e-05
2.081054228e-05
4.262259989e-05
-5.434268622e-05
2.664251691e-05
1.79233238e-05
-1.883167558e-05
2.249030709e-05
1.952786371e-05
2.213035476e-06
3.791949828e-05
1.048840161e-05
-1.238980368e-05
2.07828853e-05
1.290843901e-05
-1.976301614e-05
1.681228928e-05
9.04982481e-06
-2.396736324e-05
1.064811219e-05
7.920266412e-06
-2.890009679e-05
6.35739414e-06
8.674051732e-06
-3.749136563e-05
3.374712517e-06
7.930095729e-06
-4.350047827e-05
-4.109764454e-06
-1.236573788e-06
-4.32960161e-05
-9.271906179e-06
-1.363611449e-05
-4.572276527e-05
-4.9660073e-06
-1.08809921e-05
-5.441057183e-05
-6.983977741e-06
9.901752604e-06
-6.545889316e-05
-1.994503281e-05
1.880687744e-05
-8.391738951e-05
-1.362098095e-05
1.798834284e-05
-0.0001106636979
-4.887345489e-06
1.66392398e-05
-0.0001300362818
1.511895427e-05
-1.305838792e-05
-1.067873979e-05
7.378085516e-05
-0.0002202567817
-8.470284401e-06
4.383073521e-05
-3.243906302e-05
-3.9441476e-05
5.051175257e-05
1.266881126e-05
-5.027996744e-05
4.913791515e-05
1.307519429e-06
-5.473953183e-05
4.487534262e-05
-5.70698891e-08
-5.733360056e-05
3.843657151e-05
1.435178682e-06
-5.567508512e-05
2.609044604e-05
4.048732131e-06
-4.328374637e-05
3.695552726e-06
7.36887622e-06
-2.88768473e-05
-6.110959926e-06
7.162112129e-06
-3.073684325e-05
1.661191692e-05
7.693643338e-06
-4.346916884e-05
1.507870291e-05
1.491564917e-05
-5.718726441e-05
1.223617945e-05
1.444350402e-06
-6.057606434e-05
1.34838878e-05
-1.365278136e-05
-5.408454224e-05
1.765949144e-05
-2.613226221e-05
-3.919990401e-05
2.406721441e-05
-3.49791066e-05
-1.67166903e-05
3.191142522e-05
-4.022432803e-05
2.331074821e-05
4.454037751e-05
-4.194327842e-05
3.785679582e-05
3.460961189e-05
-3.123018447e-05
4.084636269e-05
3.311388072e-05
-1.657426292e-05
3.593314692e-05
2.31835629e-06
-1.959999176e-05
2.512758807e-05
1.525492764e-05
-3.740078834e-05
2.169767705e-05
1.291502846e-05
-5.636581835e-05
1.797871007e-05
1.163402766e-05
-7.086058103e-05
1.803684986e-05
2.814893837e-06
-7.434383004e-05
2.188003919e-05
-1.502249347e-05
-6.59806806e-05
2.504988964e-05
-3.752323927e-05
-4.777081847e-05
2.427170094e-05
-5.175390075e-05
-2.496366388e-05
2.127392752e-05
-4.904767157e-05
-2.329336949e-05
8.543307319e-06
-1.719829332e-05
-5.054180779e-05
-7.531307944e-06
1.483389612e-05
-6.781272599e-05
-8.746872364e-06
1.239579535e-05
-6.879691225e-05
-1.686851911e-05
1.29642335e-05
-5.825854643e-05
-8.61239277e-06
1.319109342e-05
-3.05948904e-05
6.262116656e-05
-1.65087046e-05
-3.323025931e-05
4.575585576e-05
7.101989999e-07
-4.417560417e-05
4.757319828e-05
1.388270513e-05
-5.068965787e-05
4.764620535e-05
8.004684825e-06
-5.536902404e-05
4.42135593e-05
5.34016796e-06
-5.979805218e-05
3.985933445e-05
3.005399382e-06
-6.251731802e-05
3.217607133e-05
-3.367133792e-06
-5.627605756e-05
1.745869271e-05
-2.000500527e-05
-4.334072485e-05
1.861466235e-05
-3.766127189e-05
-3.609720428e-05
3.339857901e-05
-2.403041458e-05
-4.646341211e-05
2.468929397e-05
7.553918877e-07
-5.764639471e-05
2.898692e-05
-5.567831804e-06
-5.857782018e-05
3.221854897e-05
-1.780315601e-05
-4.99707449e-05
3.766213973e-05
-2.860945655e-05
-3.268001986e-05
4.369148502e-05
-3.691450478e-05
-7.59704959e-06
4.952341394e-05
-4.269423533e-05
2.47671254e-05
5.536009487e-05
-4.318328209e-05
4.305638523e-05
5.046798723e-05
-3.41468647e-05
5.05044457e-05
4.650726489e-05
-2.084092625e-05
4.228763628e-05
-4.399754007e-06
-2.079169672e-05
2.94462777e-05
1.647252756e-05
-4.067082992e-05
2.714600964e-05
1.443030693e-05
-6.287411924e-05
2.746863512e-05
1.27128498e-05
-8.017273016e-05
3.272079798e-05
2.614139555e-06
-8.519984894e-05
4.085680099e-05
-1.395015828e-05
-7.513565056e-05
4.803851299e-05
-3.30533227e-05
-5.274231515e-05
4.847672749e-05
-4.659879433e-05
-2.483306064e-05
3.832637506e-05
-4.49622606e-05
-2.779801767e-05
2.229724781e-05
-1.078971683e-05
-5.029661913e-05
1.312432692e-05
1.8420118e-06
-5.543417739e-05
7.219750302e-06
-1.083025905e-05
-5.417445937e-05
2.190915989e-06
-2.032057533e-05
-5.199331389e-05
1.495827796e-05
-2.57532889e-05
-3.439811676e-05
5.354597139e-05
-8.52204508e-06
-3.299922103e-05
3.332800966e-05
1.10282349e-05
-4.680157647e-05
4.414563624e-05
1.722897198e-05
-6.174101593e-05
4.739691326e-05
1.518786495e-05
-7.992911515e-05
5.081714101e-05
1.158370465e-05
-9.316514572e-05
5.495431246e-05
-1.859716297e-06
-9.047627802e-05
6.255119892e-05
-3.306458539e-05
-6.352793976e-05
7.159646951e-05
-8.108604799e-05
-1.202944564e-05
7.580996864e-05
-0.0001086932669
-2.907616265e-07
6.272708061e-05
-4.106722073e-05
-3.374585543e-05
5.016767692e-05
7.976347293e-06
-5.165798214e-05
5.049099616e-05
-3.59215966e-06
-5.454028149e-05
5.161995819e-05
-1.65191982e-05
-4.569611052e-05
5.597679421e-05
-2.715880958e-05
-2.789327963e-05
6.108979438e-05
-3.520101934e-05
-2.582070321e-06
6.529070001e-05
-4.107829259e-05
2.566516166e-05
6.819334896e-05
-4.108032708e-05
4.36222452e-05
6.43053307e-05
-3.179423941e-05
5.059803874e-05
5.798629558e-05
-1.845471479e-05
4.968972298e-05
-3.34907449e-06
-1.988707668e-05
3.242086467e-05
1.691191813e-05
-3.785953787e-05
2.989903398e-05
1.521885509e-05
-5.763665032e-05
3.139396857e-05
1.585117856e-05
-7.496136732e-05
3.903848872e-05
1.100641933e-05
-8.177898305e-05
5.040958374e-05
-2.735760461e-06
-7.706563026e-05
5.958206146e-05
-1.625748657e-05
-6.485098395e-05
6.143964615e-05
-2.517814495e-05
-5.911967529e-05
5.326348538e-05
-2.066907172e-05
-8.200826235e-05
4.343323635e-05
1.751818974e-06
-0.000112401436
4.305705331e-05
4.593796604e-07
-0.0001236440693