/*--------------------------------*- C++ -*----------------------------------*\
  =========                 |
  \\      /  F ield         | OpenFOAM: The Open Source CFD Toolbox
   \\    /   O peration     | Website:  https://openfoam.org
    \\  /    A nd           | Version:  8
     \\/     M anipulation  |
\*---------------------------------------------------------------------------*/
FoamFile
{
    version     2.0;
    format      ascii;
    class       scalarField;
    location    "0.2/lagrangian/reactingCloud1";
    object      age;
}
// * * * * * * * * * * * * * * * * * * * * * * * * * * * * * * * * * * * * * //


51
(
0.1945041675
0.1857227345
0.1637936629
0.1398710393
0.1042546933
0.1002659183
0.09636248923
0.09818213194
0.07633040416
0.07440347474
0.0715704571
0.06938775968
0.06285914204
0.07036091438
0.1062218186
0.09241176493
0.1252401014
0.05652957566
0.0536879555
0.05279318456
0.05244237597
0.05157925994
0.06024001112
0.0498775351
0.04935915507
0.04405568502
0.04295067764
0.04295067764
0.04829618526
0.03552856059
0.03414637208
0.06438696841
0.03063139732
0.03040449808
0.07828168084
0.02720255042
0.05827566293
0.02297419931
0.08025572533
0.07221136642
0.01693524866
0.03821909017
0.08447814474
0.0115739187
0.07426389101
0.006506981745
0.006138662024
0.003500711534
0.06831566479
0.04272342538
0.0162013858
)


// ************************************************************************* //
