/*--------------------------------*- C++ -*----------------------------------*\
  =========                 |
  \\      /  F ield         | OpenFOAM: The Open Source CFD Toolbox
   \\    /   O peration     | Website:  https://openfoam.org
    \\  /    A nd           | Version:  8
     \\/     M anipulation  |
\*---------------------------------------------------------------------------*/
FoamFile
{
    version     2.0;
    format      ascii;
    class       scalarField;
    location    "0.2/lagrangian/reactingCloud1";
    object      rho;
}
// * * * * * * * * * * * * * * * * * * * * * * * * * * * * * * * * * * * * * //


51
(
1000
1000
1000
1000
1000
1000
1000
1000
994.5114704
994.5114708
994.5114699
994.5114701
994.51147
1000
1000
1000
1000
994.5114702
994.511469
994.5114691
994.5114691
994.511469
1000
994.5114699
994.5114694
994.5114694
994.5114695
994.5114695
1000
994.5114704
994.5114701
1000
994.5114704
994.5114699
1000
994.5114706
1000
994.5114702
1000
1000
994.5114701
1000
1000
994.5114697
1000
994.5114702
994.5114695
994.5114695
1000
994.5114685
1000
)


// ************************************************************************* //
