/*--------------------------------*- C++ -*----------------------------------*\
  =========                 |
  \\      /  F ield         | OpenFOAM: The Open Source CFD Toolbox
   \\    /   O peration     | Website:  https://openfoam.org
    \\  /    A nd           | Version:  8
     \\/     M anipulation  |
\*---------------------------------------------------------------------------*/
FoamFile
{
    version     2.0;
    format      ascii;
    class       scalarField;
    location    "0.2/lagrangian/reactingCloud1";
    object      T;
}
// * * * * * * * * * * * * * * * * * * * * * * * * * * * * * * * * * * * * * //


51
(
300
300
300
300
300
300
300
300
299.9999926
299.9999909
299.9999942
299.9999935
299.9999939
300
300
300
300
299.9999931
299.9999977
299.9999974
299.9999973
299.9999976
300
299.9999942
299.9999964
299.9999961
299.9999958
299.999996
300
299.9999926
299.9999936
300
299.9999925
299.9999942
300
299.9999917
300
299.9999933
300
300
299.9999938
300
300
299.9999951
300
299.999993
299.9999958
299.9999958
300
299.9999997
300
)


// ************************************************************************* //
