/*--------------------------------*- C++ -*----------------------------------*\
  =========                 |
  \\      /  F ield         | OpenFOAM: The Open Source CFD Toolbox
   \\    /   O peration     | Website:  https://openfoam.org
    \\  /    A nd           | Version:  8
     \\/     M anipulation  |
\*---------------------------------------------------------------------------*/
FoamFile
{
    version     2.0;
    format      ascii;
    class       vectorField;
    location    "0.2/lagrangian/reactingCloud1";
    object      U;
}
// * * * * * * * * * * * * * * * * * * * * * * * * * * * * * * * * * * * * * //


51
(
(-0.7701543058 -0.01729350378 -3.026569331)
(-0.4837703531 -1.033746867 -2.841595487)
(-0.5895339439 -0.7252809935 -2.882242357)
(-0.4579214918 -0.7162098963 -2.856845354)
(-0.9542483445 -0.6965842971 -2.319511721)
(-1.074272717 -0.3795305979 -2.457097868)
(-1.089477096 -0.5018468704 -2.183719219)
(-0.8859561683 -0.6558829117 -2.452472086)
(0.1685926194 -0.03827307471 -0.7040379047)
(0.1226324279 0.002103323065 -0.7091950891)
(-0.2506747217 -0.07559220628 -0.6728200434)
(-0.4420387009 -0.0176465644 -0.6651393946)
(-0.3984358138 0.008604774405 -0.6049534588)
(-1.088043765 0.05876959321 -2.238872199)
(-0.3587333735 -0.816063771 -2.543786059)
(-0.5570757148 -0.7307522286 -2.549949908)
(-0.2336580641 -0.7194929981 -2.834255322)
(-0.4830210091 0.0138380961 -0.5477649933)
(-0.2973269837 0.5387861792 -0.5113019735)
(0.1743727736 0.03532734322 -0.5046295818)
(0.1815355464 0.03646911422 -0.5002020572)
(0.1946986726 0.03538099435 -0.4943497122)
(-0.9025484375 -0.1942427825 -2.20008664)
(-0.1931617226 -0.008571695915 -0.4673081235)
(0.2177847384 0.03793469997 -0.4730191132)
(0.2565896781 0.04747844774 -0.4223092866)
(0.3809939422 -0.2179088713 -0.4090663815)
(-1.07364688 0.01055516258 -0.4163054052)
(-0.9456909987 -0.1434442366 -2.111665885)
(-0.6115295343 -0.01389605387 -0.3461011266)
(-1.081068437 0.02256815591 -0.3323361311)
(-0.5347752714 -0.6419585402 -2.300568426)
(-0.9286732296 0.03332946323 -0.2995064359)
(-0.6738099725 0.06054784065 -0.2870903971)
(-0.3698211631 -0.5922515632 -2.527066514)
(0.09849775206 -0.1934022123 -0.263385285)
(-0.5220330544 -0.4702506389 -2.334751936)
(-0.9081337944 0.04085042638 -0.2249839181)
(-0.2189620405 -0.3716960733 -2.609841705)
(-0.3237865916 -0.07140904935 -2.499374842)
(0.2251812638 0.06608038593 -0.1645432139)
(-0.8073018394 0.07518772882 -2.154111615)
(0.00163399587 -0.961933574 -2.298793713)
(0.2362396799 0.07815603135 -0.112890331)
(-0.2162374977 -0.7877352808 -2.346348322)
(-0.1824737147 0.06984790691 -0.06377363024)
(0.325293882 0.1865267394 -0.06027689207)
(0.3295822746 0.1705683642 -0.03449463754)
(-0.2724007559 -0.8444543128 -2.326861557)
(-0.1538768845 -0.02889933506 -0.411143173)
(-0.632335343 0.7091417008 -1.880143405)
)


// ************************************************************************* //
