/*--------------------------------*- C++ -*----------------------------------*\
  =========                 |
  \\      /  F ield         | OpenFOAM: The Open Source CFD Toolbox
   \\    /   O peration     | Website:  https://openfoam.org
    \\  /    A nd           | Version:  8
     \\/     M anipulation  |
\*---------------------------------------------------------------------------*/
FoamFile
{
    version     2.0;
    format      ascii;
    class       volScalarField;
    location    "1.1";
    object      epsilon;
}
// * * * * * * * * * * * * * * * * * * * * * * * * * * * * * * * * * * * * * //

dimensions      [0 2 -3 0 0 0 0];

internalField   nonuniform List<scalar> 
67410
(
0.0439605152
0.07027601909
0.1090695926
0.15462207
0.2016509846
0.2449031207
0.2812217682
0.3089061778
0.3264785562
0.3320426175
0.3234534321
0.2992378149
0.2606583699
0.2148360586
0.1749774317
0.151950889
0.1456685157
0.1509154024
0.1688952863
0.2137008443
0.324383067
0.5744375536
0.914354935
0.6189661744
0.8653470768
1.139811755
0.04156302367
0.0733044431
0.1209465347
0.1751068455
0.2295745834
0.2806244224
0.3267727995
0.366502196
0.3968927291
0.413358902
0.4111095132
0.3871983635
0.3431359852
0.287316482
0.2355386321
0.2032268106
0.1948975016
0.2077748342
0.2521422305
0.3871815399
0.7892161866
1.750791651
2.959681063
0.9552759141
1.243454294
1.642053082
0.04188976112
0.08092416523
0.1379544234
0.2008775217
0.2633645199
0.3234944364
0.3811960481
0.4348828002
0.4803963629
0.5090267941
0.5123979597
0.4865712836
0.4345978648
0.3656577439
0.2994327043
0.2567261998
0.2475259067
0.2761083463
0.3838875583
0.7499126869
1.834924199
4.318463961
7.3502097
1.427074621
1.568653413
2.112192359
0.04432418817
0.08613127324
0.1481792767
0.2163494291
0.2847795552
0.3530999997
0.4232679278
0.4928898836
0.5530240701
0.5936137306
0.6042041521
0.5770829951
0.5124355347
0.4281485688
0.3503050117
0.3015200592
0.294617933
0.3403792585
0.5084055711
1.066027712
2.734850601
6.549416917
10.60030696
2.040549324
1.825441277
2.49046426
0.04763712077
0.0877197949
0.1504548611
0.2208858279
0.2933038183
0.3678261524
0.4474274511
0.5266140381
0.596441766
0.6454505126
0.6614064918
0.6347157107
0.5642189511
0.4688024183
0.3871296525
0.3421850562
0.3420474892
0.3865821009
0.4977555742
0.7099280679
0.9854358309
1.905820994
2.791279683
1.615456406
2.031388783
2.763328371
0.04915198751
0.08362889012
0.1422834875
0.2116620981
0.2857884785
0.3638896085
0.4481513768
0.5324038559
0.6070295211
0.6594779037
0.6761803175
0.6467629831
0.5723980107
0.480894391
0.4162163737
0.3992367785
0.4395561174
0.5800510117
0.9592121828
1.524873321
0.8583647905
0.8782612351
1.140733924
1.472983626
2.016774763
2.7620651
0.04879552093
0.07399720775
0.1229964823
0.1866819707
0.2594006773
0.3382532143
0.4229445662
0.5080228712
0.5823131564
0.632298747
0.643910862
0.6090763743
0.5399057945
0.4822008737
0.4736158946
0.5337472956
0.7169814961
1.287870465
2.822644585
5.107787374
1.835418544
0.9339129565
1.094615746
1.433778843
1.88568725
2.516315833
0.04837200486
0.06313899943
0.09729325653
0.1481887333
0.2133755666
0.2885099784
0.3688985113
0.4498921488
0.5183884521
0.5600109954
0.5634213228
0.5327748454
0.5061298855
0.5302963216
0.6351639125
0.8553223374
1.425958258
3.163352834
7.412920202
13.59216451
5.576147752
1.351411662
1.230417622
1.504496755
1.79242951
2.180597844
0.04942572345
0.05703444133
0.07717863469
0.1099584165
0.1574453458
0.2181234224
0.286595144
0.3539180095
0.4090261541
0.4423148708
0.4544648778
0.4713896107
0.5398102346
0.6989259212
0.9554851936
1.375559523
2.433744142
5.521337019
12.7832904
22.26697597
10.75819413
2.448226231
1.51988168
1.784245655
1.950958294
2.095352935
0.05182163995
0.05658847776
0.06951171636
0.08910916196
0.116850475
0.1528109156
0.1954572697
0.2408025089
0.2837935923
0.3247037918
0.380130238
0.4884781374
0.6915265294
0.9908016825
1.328663515
1.628717448
1.856100332
2.207535338
3.537255609
6.111941537
4.885637734
1.799764951
1.935703416
2.288735595
2.436208406
2.391282968
0.05510781902
0.05903438279
0.06926279043
0.08343911678
0.1016544168
0.1226295409
0.1457892065
0.172738162
0.2095340343
0.2715112928
0.390066859
0.6071296217
0.940592826
1.357584429
1.7960272
2.175685712
2.387239028
2.320449365
2.035013551
1.960038661
1.595618282
1.805758184
2.333418638
2.784195298
2.987622038
2.849314333
0.06010901994
0.06499173309
0.07640471416
0.09221458896
0.1123008147
0.133367723
0.1524759354
0.1717431217
0.2047046158
0.2828199817
0.4536159809
0.7524292176
1.16579955
1.649400941
2.159703298
2.631983467
2.954526152
2.989487744
2.606207227
1.885959113
1.600058655
2.028869264
2.640802441
3.138952834
3.397143868
3.270041874
0.06850227392
0.07703578009
0.09446601913
0.1184892116
0.1482972625
0.1778323073
0.2004757235
0.2147203601
0.2331958326
0.2939873323
0.4575802915
0.763124058
1.188370154
1.693272867
2.246303249
2.776753522
3.166661794
3.281276827
2.988840594
2.262920823
1.72514323
2.126064238
2.758914089
3.276341271
3.55929144
3.488605201
0.08286408247
0.09839927864
0.1267999029
0.1639906479
0.2077286291
0.2500955177
0.2819519347
0.2952022209
0.2886274974
0.2797897836
0.3133696682
0.4488998011
0.7293911514
1.156029215
1.689884064
2.233326099
2.649376958
2.792677658
2.557523223
2.007277744
1.6371912
1.911896816
2.48669567
3.04528749
3.447542059
3.651543281
0.1056507033
0.1290198836
0.1683636622
0.2175084497
0.2749728851
0.3339610885
0.3849661757
0.412671374
0.4034403367
0.3631183261
0.3324193118
0.3784972648
0.5441602878
0.8279307024
1.209087229
1.629522895
1.965599918
2.091695731
1.94463712
1.642810169
1.541741058
1.855532243
2.387947042
2.963884248
3.494482057
3.91846624
0.1368716761
0.1634321784
0.2067775141
0.2609224575
0.329205884
0.4095665733
0.4913784804
0.5523057345
0.5658416328
0.5126733203
0.4124824028
0.3570186662
0.4116935512
0.5724177208
0.8062839598
1.07994188
1.329264592
1.467942884
1.468475276
1.427557857
1.550839837
1.935220085
2.480455508
3.087017739
3.684726243
4.202694528
0.1724407631
0.1951934967
0.2324534163
0.2793550941
0.3471329147
0.4420072428
0.5555414084
0.6572572822
0.7129593812
0.695680476
0.5858089223
0.4204553798
0.3541015692
0.4223916002
0.5641288546
0.7389878718
0.9192198753
1.063360429
1.155915592
1.258974306
1.489859515
1.902255176
2.444216961
3.053814726
3.681031639
4.276415972
0.2053498051
0.2228617591
0.2486905424
0.2748126647
0.3162182116
0.3932755893
0.5206153192
0.6597764107
0.7497522663
0.7746375906
0.7166519479
0.5648217569
0.3853755285
0.3547823154
0.4345201071
0.5527974308
0.6854382876
0.8176813891
0.9381744392
1.086278653
1.339353046
1.738144203
2.250078267
2.827809129
3.431433692
4.001525724
0.2276229659
0.2484279362
0.2722742849
0.2847606874
0.2872303249
0.2920156368
0.3445290049
0.4720509554
0.5985679738
0.6493802111
0.617628302
0.5088785144
0.3666325981
0.3223388041
0.367591624
0.4464773752
0.5421583366
0.6480635967
0.7594195049
0.9008210164
1.128414337
1.47835466
1.937630886
2.45674051
3.000289151
3.519515768
0.2307535913
0.2647687445
0.3023740076
0.3280318873
0.3331961931
0.3036151271
0.2653587271
0.2826064902
0.3944766875
0.4453539035
0.4341224
0.380793522
0.3138209061
0.2947871351
0.3271580091
0.3799427271
0.4439695127
0.5199663695
0.6101669395
0.7275505614
0.9070587541
1.182712182
1.559345674
1.994236723
2.445819519
2.867732237
0.2116094314
0.2540734532
0.3045261467
0.3410447057
0.3601766776
0.3445696418
0.2900256331
0.227864223
0.2266047096
0.2798798764
0.2908884018
0.3555928895
0.2577872423
0.2602569172
0.2900744736
0.3283095075
0.3697033481
0.4193055873
0.4837917435
0.5694803662
0.6926404985
0.8820492278
1.176108234
1.5158517
1.861004495
2.177016187
0.1854327611
0.2140319082
0.2642971099
0.2979228187
0.3242753212
0.3314009774
0.3068532913
0.2564479705
0.1985978844
0.1590943206
0.1573784174
0.1773084658
0.1899783979
0.2153298012
0.2467442904
0.2771453463
0.3057123655
0.3372183011
0.3795051555
0.437153482
0.5124212358
0.6210923483
0.8077295843
1.063104105
1.316735344
1.536047856
0.1737873481
0.1805727715
0.2256570893
0.2663841646
0.2978556603
0.3188124824
0.3176502298
0.2915403431
0.2499375464
0.1783739325
0.1109247837
0.08480183961
0.1085242729
0.1545517984
0.1941477582
0.2227803006
0.2437617607
0.2627413261
0.2869308232
0.3206043988
0.3607917247
0.4083024505
0.4906279723
0.6607938108
0.8194978428
0.9537449391
0.1763953727
0.1751730776
0.2204017355
0.273944937
0.3201657048
0.3504287111
0.3638738749
0.3531997422
0.3155442892
0.2371271282
0.1688049917
0.1020822439
0.06252417942
0.08305894411
0.1334886647
0.1647491493
0.1795248615
0.1881057531
0.198525697
0.2136618207
0.22864694
0.2403063544
0.2752432876
0.3352338905
0.4014954559
0.4576398172
0.1802476028
0.1699037586
0.1971615026
0.2513243379
0.3196219879
0.3810074505
0.4256191884
0.4327854039
0.3918712041
0.2790626449
0.2012887192
0.1361745896
0.07656540113
0.04686050373
0.07307132258
0.1037524945
0.1165097554
0.1321071133
0.1672100219
0.2115305871
0.2544310611
0.3598510353
0.6991433988
0.1735123263
0.1322783281
0.1841470648
0.1701939013
0.1638678828
0.1790934774
0.2485296312
0.3430518457
0.4177851713
0.4403619239
0.3927055318
0.2455015214
0.1663267113
0.1178333228
0.07678821391
0.04331803657
0.03877505052
0.06253077372
0.1045334039
0.1812899344
0.2859785231
0.393310469
0.5242813012
0.8277635602
1.123071839
0.1555547893
0.06639933366
0.1876153725
0.1809078126
0.162112605
0.137667942
0.1499782163
0.2015383024
0.2618799311
0.2963170108
0.2476961393
0.1541102571
0.09336881721
0.05781892193
0.04500371913
0.04057733668
0.04859011821
0.08927025358
0.1784238707
0.3091172407
0.465127214
0.6252580057
0.7172133496
0.7013390872
0.5581688341
0.1812448649
0.09565362061
0.1890156729
0.1896418412
0.1732181455
0.1516333569
0.1571014106
0.1877307688
0.2213606778
0.2438209878
0.2102280288
0.1582585534
0.1028926381
0.06279945811
0.05109806191
0.04921647815
0.06226805608
0.1164882052
0.2288866221
0.374655054
0.524615034
0.6779829801
0.7623143155
0.7008783724
0.4533321572
0.249076878
0.129011357
0.1877240212
0.1952774699
0.1808484392
0.1794732472
0.2203827839
0.2855486622
0.3499376698
0.3894422035
0.3244137111
0.2308046827
0.1420929681
0.0787041701
0.05794424824
0.05247710409
0.05314961597
0.0697159002
0.1211616836
0.2194292929
0.3479788022
0.4591621307
0.5061433634
0.40826019
0.1844675305
0.1203967251
0.1535881135
0.222220749
0.1836207713
0.1958482145
0.1914144826
0.2280443151
0.3184021248
0.4369780294
0.5637088011
0.6571723351
0.542891552
0.3733598168
0.2241506142
0.1174381506
0.06813385922
0.05618301389
0.05407048525
0.05921473337
0.07873664289
0.1193421856
0.1838184252
0.2534608879
0.2812952567
0.2573794212
0.2485330863
0.171182982
0.2616333684
0.386838606
0.04582344373
0.06837567082
0.1016310461
0.1424737179
0.1896675224
0.2399272522
0.2895446636
0.3337421065
0.3665992411
0.3822077815
0.376580293
0.3498662542
0.3081521411
0.2631392013
0.2278505135
0.209346532
0.2051583937
0.2094798848
0.2222144403
0.2519844704
0.3187617279
0.4529940618
0.6050996162
0.6034382566
0.8037217578
1.091038854
0.04632411249
0.0642543397
0.09247034053
0.1257203485
0.162277075
0.1991873602
0.2346793383
0.2665757585
0.2920386173
0.3074748694
0.309750742
0.2977649454
0.2735586582
0.2425832522
0.2134110848
0.1946996517
0.1902508425
0.1998300706
0.2294742815
0.3077825619
0.5128999963
0.9625268272
1.333750035
0.7937697171
0.8629353108
1.074538422
0.04439308279
0.06631400818
0.098708882
0.1349617317
0.1732676569
0.2115315931
0.248963199
0.2841389896
0.3145671934
0.335287819
0.3422017975
0.3341326723
0.3130358019
0.2827465809
0.2512728689
0.2289564197
0.2243181632
0.2441295666
0.3123439305
0.5196161277
1.128388011
2.585882877
3.884225728
1.494106865
1.078800714
1.23810967
0.04399371225
0.06681560196
0.1017325482
0.1393459727
0.1786129517
0.2188068892
0.2614086627
0.3034090936
0.3388739502
0.3640650113
0.3744479484
0.3674528962
0.3444083721
0.3126114275
0.2800554805
0.256516859
0.253336964
0.2834348117
0.3850408198
0.6897084684
1.591411146
3.615058443
5.241943689
2.22016861
1.272490597
1.35389763
0.04741490512
0.06622271134
0.1011939996
0.1392523183
0.1794554978
0.2220283403
0.2695472714
0.3146908391
0.354145257
0.3833048079
0.3970217671
0.3923378255
0.3701756645
0.3376071556
0.3057659166
0.2843190339
0.2851357473
0.321290941
0.4250825923
0.6811433283
1.2348352
2.207242045
2.706885747
1.626092496
1.207718864
1.431536837
0.05147744885
0.06378609161
0.09563469698
0.1326091489
0.1731862467
0.2173553977
0.2671336444
0.3145208
0.3564829512
0.3882018182
0.4045663576
0.4027618907
0.3841485189
0.3566726065
0.3320199378
0.3225341835
0.3449335812
0.4267951703
0.6200020013
0.9148958745
1.031768907
1.0031311
1.170108297
1.01902017
1.165802023
1.474246694
0.05484901957
0.05985841184
0.08571826704
0.1196003741
0.1594675635
0.203795331
0.2530788528
0.301779161
0.3445377709
0.3773574542
0.3957825042
0.398060027
0.3873642618
0.3736567757
0.3692076554
0.3949095489
0.4924832293
0.7774694505
1.488438641
2.484728938
2.2464645
1.005567567
0.8141337093
0.9396293227
1.179578735
1.490400247
0.05824398133
0.05627424779
0.07451218331
0.1026750056
0.1396092649
0.1821583542
0.2279996423
0.275405501
0.3173601861
0.3502362675
0.3713186235
0.381402475
0.3873090518
0.3993282539
0.437163687
0.5404322598
0.8277849723
1.689360394
3.957428588
6.759602274
4.989750132
1.87987006
0.9441840126
1.008809523
1.236580514
1.52459259
0.0620404804
0.05491025261
0.06648496404
0.08707595273
0.1175155836
0.1551056499
0.1963664055
0.2374965783
0.2755152659
0.3085086038
0.3358722467
0.361343642
0.3937356294
0.4479685916
0.547215402
0.7474167083
1.230969723
2.668214778
6.364224535
10.24202545
7.075164406
3.193006509
1.223940704
1.152386685
1.347695946
1.611202339
0.06583676541
0.05560881114
0.06319301707
0.0773228801
0.09905855106
0.1267548618
0.1586553654
0.1925218946
0.2264035329
0.2601782541
0.2974908629
0.3465656134
0.4178251452
0.5195454767
0.6641599077
0.8920221856
1.311102342
2.262036286
4.14114183
5.986000559
5.673812628
2.643537283
1.332846208
1.336955851
1.519843233
1.751254442
0.06931415926
0.0571726891
0.06249876439
0.07263407413
0.08808367674
0.1068129112
0.1277713447
0.1512554142
0.1793007291
0.2164239379
0.2710083345
0.3537580283
0.4727700746
0.6406196772
0.8657671913
1.112607147
1.360580946
1.663802099
2.155371291
2.712131632
2.447962158
1.48868873
1.332812374
1.502122888
1.696222121
1.890762992
0.07317332175
0.06013104496
0.06488788764
0.07401641938
0.08785562039
0.1036463471
0.119733961
0.1370054866
0.1602872296
0.1991390862
0.2668161783
0.3740891975
0.5303308051
0.7613488873
1.037765152
1.313079733
1.534087171
1.669707177
1.719947922
1.671976124
1.479291901
1.326771211
1.431911887
1.633903621
1.830909721
2.015039452
0.07858178206
0.06580353451
0.0720903415
0.08307824279
0.09901321276
0.1162814395
0.1322600583
0.1468507841
0.1642701576
0.1948303067
0.2539309664
0.3537541689
0.5108982208
0.7525125436
1.043514559
1.333937399
1.563509375
1.691778006
1.709173377
1.62075655
1.472110396
1.40981544
1.526919694
1.723739871
1.92485308
2.118809488
0.08730341275
0.07578410718
0.08566628348
0.1007645851
0.1213205814
0.1432657819
0.1632816193
0.1789231898
0.1898675896
0.2005827352
0.2251902281
0.2869952625
0.4091236761
0.6090084396
0.8799085188
1.168927964
1.410753056
1.559938265
1.607811412
1.561571557
1.468038169
1.45325302
1.585214917
1.789999175
1.992301465
2.166761125
0.1018250071
0.09071078481
0.104131312
0.1236261959
0.1512235897
0.1844314636
0.2181540566
0.2430017501
0.2546058712
0.2554672931
0.2553939033
0.2797200342
0.3564867968
0.4938894619
0.6837211934
0.9097197577
1.121788712
1.2662314
1.328895756
1.327987479
1.307364436
1.357749227
1.521171901
1.743488956
1.962632364
2.146448012
0.124707261
0.1094980027
0.123280794
0.1453299996
0.1819173744
0.2349274948
0.2879749341
0.3319436993
0.3559431342
0.3526198231
0.3263231864
0.3027018187
0.314572338
0.379839335
0.4879832883
0.6231077116
0.7722733045
0.9075881852
1.002301774
1.058481956
1.10900496
1.212168388
1.396788655
1.632104955
1.876045177
2.095055384
0.1562045864
0.1305787418
0.1393191428
0.158892636
0.19663194
0.2564313565
0.3251202696
0.3872382916
0.4277514921
0.4387536556
0.4164091907
0.3662997488
0.3214617408
0.3242568567
0.3777925692
0.4623103873
0.5633697176
0.6705040409
0.7679667035
0.8542295464
0.946513666
1.079125439
1.274907779
1.520529202
1.787604728
2.033206301
0.1910685766
0.1541418571
0.1531463987
0.1661207958
0.1943469421
0.2401442159
0.3099470461
0.3848355363
0.4359363761
0.4544005279
0.4418760679
0.3988946563
0.3386230306
0.3033615132
0.3210680791
0.3747106484
0.4462377437
0.5297568764
0.6168214901
0.7081739751
0.8145152557
0.9553959294
1.148350668
1.39195333
1.668387328
1.934858743
0.2179979493
0.1819093989
0.1762523578
0.1874147605
0.2055728141
0.2245835164
0.2581126937
0.3279321323
0.3986182751
0.4183756379
0.405093961
0.374474309
0.3184332913
0.2792401354
0.2822908694
0.317984392
0.371140635
0.4357306988
0.5086783143
0.5927196977
0.6961817546
0.8276785617
1.00333304
1.225726039
1.482933245
1.731428468
0.2247937445
0.2044944077
0.2146583095
0.2313166078
0.2481491205
0.2459617638
0.2257003401
0.2238980703
0.2807502688
0.311445781
0.3241060541
0.3706388204
0.2969984123
0.2481280393
0.2494728541
0.2751777666
0.314876438
0.364559398
0.423617059
0.4953693529
0.587725409
0.7056173289
0.8490993097
1.030699636
1.240667637
1.44367099
0.2105708155
0.1981611591
0.2300168925
0.2551959164
0.2765750394
0.2749540104
0.2410098163
0.1823116125
0.1684582979
0.2109448778
0.3342368027
1.518643907
0.323372891
0.2238585662
0.2168919254
0.2386589627
0.2678213158
0.3044665668
0.3493884032
0.4065656634
0.4850267498
0.5870276082
0.6925362879
0.8285099547
0.9735404102
1.119011935
0.1934383906
0.1678713026
0.2050397736
0.2381620453
0.2664943514
0.2693517636
0.2371076601
0.1760444515
0.1304984261
0.115727359
0.1286902344
0.2059602333
0.166027225
0.1708045522
0.1858620174
0.2045393353
0.2270651362
0.2536596912
0.2848413046
0.3212435845
0.3656390219
0.4307696081
0.5258590897
0.6284096568
0.7305737766
0.8183594176
0.1888541559
0.1449299903
0.1709387787
0.202545797
0.2268713367
0.2319545859
0.2066345278
0.1604999772
0.11791079
0.09955431946
0.07729267537
0.07654132793
0.08784895733
0.1193749575
0.1465230601
0.1670087734
0.1847458117
0.2032356416
0.2237073471
0.245507927
0.2672908949
0.2966710037
0.3553267172
0.4214259601
0.4857971849
0.5397976001
0.1954878459
0.1388633573
0.1563011573
0.1881736478
0.2190448158
0.2382287423
0.2333763451
0.2128524081
0.1795789739
0.1309273473
0.08786152621
0.06494227996
0.05316762022
0.0649351657
0.09801728132
0.1208213304
0.1340312678
0.1465523469
0.1615681839
0.1779976258
0.1939551634
0.21815671
0.2714705665
0.2447698818
0.2672945956
0.2936278159
0.2057317722
0.1352885216
0.1389158292
0.1595585574
0.2139099875
0.261578784
0.2977156492
0.2941762856
0.2587765863
0.1893898149
0.1038860825
0.07193247196
0.05044611141
0.04168390087
0.05474283935
0.07474664942
0.08479482009
0.09744199675
0.1209308022
0.1542942686
0.2052381797
0.3829155785
0.7607681082
0.1716417952
0.1165834315
0.2175506237
0.1356755885
0.1269638696
0.1163625135
0.1664644163
0.2238198797
0.2886151362
0.3006241408
0.259938792
0.1767824622
0.0969388973
0.07092939616
0.05072784749
0.03600814375
0.03349148095
0.04462808773
0.06587474229
0.1072803971
0.1804287661
0.2997233765
0.5294664055
0.946960062
0.9832824866
0.2711162853
0.07014974955
0.2281014158
0.137970371
0.1203342179
0.1114720958
0.1157408381
0.1418621649
0.1761206541
0.1923469222
0.1621504444
0.1077408106
0.06601436208
0.04749246833
0.03937333522
0.03518409316
0.03662805023
0.05319774076
0.09360032051
0.1638536541
0.2791772312
0.4135496623
0.5191608697
0.5948245097
0.5072987484
0.1580677635
0.07857620979
0.2364790544
0.1423390641
0.1250565487
0.1166318663
0.1179515017
0.133088583
0.1530449605
0.1644035474
0.1403700114
0.1014046695
0.06771445128
0.04973512689
0.0434708303
0.04152542396
0.04520698157
0.06419395286
0.1050696158
0.1714587513
0.2910226774
0.4202015531
0.4999477316
0.4999660158
0.3507118679
0.1692823915
0.1147168455
0.2418208213
0.1488700871
0.1335221975
0.1321372554
0.1457786345
0.171047937
0.1961077311
0.2034829136
0.1711078504
0.1191032998
0.08015044144
0.05657524571
0.04779977286
0.04521515032
0.04532243322
0.05216988651
0.07360447888
0.113720476
0.1728426039
0.2475354318
0.294330195
0.2615364768
0.1648803026
0.1022149271
0.09939755564
0.127972353
0.2437930906
0.1558472115
0.14677945
0.1568931743
0.1862900984
0.2293358345
0.275902464
0.2974742598
0.2486654115
0.1606660659
0.1047718799
0.07031133502
0.05389645293
0.04850639905
0.04670211572
0.04888362189
0.0591590785
0.08088770206
0.1141288421
0.1522943885
0.1793499516
0.1823593669
0.1712459603
0.1327188045
0.1561428358
0.2252082174
0.04693106235
0.06601186902
0.09269206805
0.1258180238
0.1664419217
0.2135232816
0.2646035087
0.3149138365
0.3571409869
0.3832940523
0.3880002176
0.3713785147
0.3400769232
0.3054468216
0.2786157158
0.26483256
0.2620457013
0.2661678942
0.277906066
0.3063452948
0.3722306676
0.4969968946
0.6092141468
0.6085135392
0.7539514181
1.020352577
0.04814083498
0.05622133571
0.07443987818
0.09754091199
0.1263832776
0.1598882379
0.1966821649
0.2334124168
0.2650675066
0.2864425275
0.2941061978
0.2876055631
0.2697236388
0.2459974086
0.223407
0.2080625224
0.2028670696
0.2089526119
0.2342158686
0.3121618867
0.5308948599
0.959197004
1.206725551
0.7709385195
0.6986444205
0.8773485489
0.04510550691
0.05517880209
0.07535416638
0.09948618784
0.129407274
0.1653654681
0.2067390191
0.2496549637
0.2878617315
0.3152535544
0.3282422244
0.326077574
0.3107440697
0.2867287158
0.2607336038
0.2405187438
0.2331686534
0.2482723465
0.3197128869
0.5685242685
1.272741558
2.461835891
2.970269981
1.718001704
0.9435161767
1.008730299
0.04287756143
0.05367788922
0.07531191465
0.09998537843
0.1308209974
0.1692840454
0.2152408563
0.2637170931
0.3072707241
0.3391979154
0.3562358106
0.3574647355
0.3443319249
0.3206318698
0.2928078542
0.2696036908
0.2618231586
0.2887946386
0.4120949299
0.8199296481
1.834499636
3.227005261
3.725583526
2.566425148
1.226887467
1.121017072
0.04645829006
0.0528370889
0.07423929719
0.09921998548
0.1307712406
0.1708509322
0.2192948193
0.2707343531
0.3166246932
0.3513075416
0.3718836612
0.3767567492
0.3667865643
0.3454730733
0.3187909795
0.2959948439
0.2899541595
0.323412796
0.4556125007
0.8257068464
1.604218987
2.581737155
2.893607322
1.933598819
1.139024294
1.174718973
0.05263209859
0.05228826271
0.07111271407
0.09547711634
0.1271692066
0.16773021
0.2166529503
0.2686551489
0.3152338268
0.3516935685
0.3750650886
0.3836612991
0.378084807
0.3615190208
0.3401711514
0.3244369843
0.330861134
0.3915592176
0.5703425653
0.9047801224
1.231768736
1.444336581
1.579222538
1.113356557
0.9953447042
1.202476087
0.05848919611
0.05185301036
0.06654501833
0.08891378252
0.1198042359
0.1596119929
0.2072944845
0.2579412709
0.30440958
0.3415337869
0.3669520933
0.3793218611
0.379563207
0.371443716
0.363118698
0.3716415502
0.4382283677
0.6783401228
1.306064497
2.174082757
2.224141755
1.294637463
0.8935019705
0.8310743128
0.9795123027
1.241655205
0.06423472636
0.05186691869
0.06207376855
0.08097275892
0.1094547153
0.1467929295
0.1913198377
0.2388549875
0.2837766359
0.3209867924
0.3482132611
0.3651303502
0.3739061376
0.3807220425
0.399822408
0.4673506811
0.7004814727
1.457956965
3.272545887
5.077182591
4.732110201
2.537968994
1.049552217
0.8758689437
1.049269443
1.309912124
0.06975382974
0.05281902618
0.05927694759
0.07385594999
0.09794870442
0.1305034161
0.1696118633
0.2119009283
0.253200933
0.2896562844
0.3192667021
0.3429828519
0.3658672113
0.3992492231
0.465958407
0.6238109666
1.057342895
2.286113262
4.763564634
6.528291761
6.372587904
4.003301885
1.512291907
1.042020578
1.178816611
1.434822014
0.07456369689
0.05442123626
0.05834550867
0.06895647853
0.08755139004
0.1131670814
0.1443183563
0.1788527534
0.2143799583
0.2487776827
0.2817475652
0.31689312
0.363481023
0.4375072877
0.5644857987
0.7965960948
1.2657441
2.266001648
4.004022941
5.488436631
5.254428369
3.482006324
1.576007295
1.195211842
1.334168221
1.632893553
0.07841954564
0.05620632745
0.0584297807
0.06607213724
0.08000102276
0.09903730213
0.1218274782
0.1472769531
0.1752453313
0.2066060675
0.2443874234
0.2958639713
0.3740985959
0.4972177534
0.6824633448
0.9293077063
1.247623884
1.737158871
2.557681211
3.443952598
3.295817262
2.070348386
1.321665567
1.273051368
1.439362815
1.678132355
0.08180979188
0.05852412787
0.0599168993
0.0660883822
0.07768578359
0.09326280117
0.1112404458
0.1305369495
0.1520366384
0.179225313
0.2188589709
0.2819774191
0.385728273
0.553162763
0.7892920533
1.055623372
1.298918622
1.510431566
1.728230027
1.913489871
1.808887373
1.407539049
1.247514249
1.330460931
1.50191362
1.715992812
0.0854998334
0.06212159467
0.06378191566
0.07021276688
0.0822687455
0.09838874829
0.1165768512
0.1346102493
0.1519470863
0.1718446706
0.2028420572
0.2588318149
0.3606446625
0.5360391274
0.7848883089
1.055452478
1.279587006
1.431173369
1.524575778
1.549865272
1.456890465
1.298898479
1.266573742
1.369525286
1.538790637
1.749377847
0.09052110343
0.06795530989
0.07111672277
0.07977042729
0.09573953481
0.1179083623
0.1436064374
0.1676933179
0.1851397504
0.1954634975
0.207113861
0.2381427514
0.3129549206
0.4567803338
0.6758548498
0.9267228833
1.142165926
1.286131876
1.365851966
1.385041751
1.334131165
1.264729958
1.276703162
1.389834116
1.55582429
1.749508295
0.09856823696
0.07686513161
0.08208926452
0.09454807819
0.1183422922
0.1538755937
0.1968720539
0.2365677201
0.2623680767
0.2687619629
0.2605126122
0.2561784929
0.2836204986
0.3666910191
0.515894555
0.7136780659
0.908111469
1.053404543
1.139123944
1.171466484
1.161498843
1.162938281
1.218694947
1.354836205
1.530126881
1.712824686
0.1125081299
0.08927258395
0.09565061835
0.1117931734
0.1439507742
0.1943601917
0.257330964
0.3145064205
0.3538046581
0.3683973943
0.3548130966
0.3190776889
0.2915301389
0.3061400483
0.3752028141
0.4909730551
0.6294702179
0.7554233703
0.8444609633
0.8989925426
0.9401137191
0.9953312741
1.091234998
1.253233578
1.45235128
1.647335198
0.1352701788
0.1055592662
0.1112043311
0.128853262
0.1622674926
0.2146715686
0.2828768177
0.3492022065
0.3976961232
0.4235138847
0.4242377355
0.3933598921
0.3378661134
0.2971281295
0.3057083653
0.3571156336
0.4360699283
0.5240740334
0.6088376977
0.6831589672
0.7502667225
0.8299220329
0.9544166555
1.140840806
1.368023529
1.579879449
0.1647127568
0.1266108037
0.1318893651
0.1511546764
0.17844509
0.2157070688
0.2709068864
0.3383698514
0.3928256719
0.4196181722
0.4237196852
0.4063464443
0.3617883134
0.3018063365
0.2787469668
0.2978248732
0.3425261313
0.4021429638
0.468835073
0.5377541608
0.6109662204
0.7005963428
0.8314515503
1.026497984
1.275170352
1.515259814
0.1896352563
0.1511501286
0.164114589
0.190940151
0.2126497936
0.2297081159
0.2517693549
0.298093002
0.360609623
0.3932122736
0.3972188109
0.4082525131
0.3450099582
0.2813730719
0.2533794509
0.2619997243
0.2908954272
0.3318947526
0.3813757588
0.4379705809
0.5041989499
0.5885195582
0.7089590234
0.8883182188
1.125899838
1.370362377
0.198298198
0.1670382842
0.1994822143
0.2377275083
0.2578376873
0.2620769187
0.2492078147
0.225961574
0.250870006
0.2991436038
0.3742540479
0.9346123104
0.4093329299
0.2541821332
0.2237112956
0.2314052425
0.252932683
0.2829894096
0.3206873306
0.3665821836
0.4237594307
0.4969273147
0.5917430836
0.7297206126
0.9161874742
1.113705955
0.1915633744
0.1581600868
0.2047833114
0.2549438266
0.2803532548
0.2826466079
0.2657906353
0.2142830539
0.1577141395
0.2379943908
1.06348448
2.693613638
1.871664152
0.2967204746
0.1938673726
0.2020545971
0.2198485704
0.2427759356
0.271434751
0.3081453748
0.3585501718
0.4221202424
0.4782154032
0.5689477535
0.6856603267
0.8068107715
0.1829873447
0.1336318874
0.1698377914
0.2214539881
0.261440822
0.271429157
0.2519059844
0.2115368317
0.1454365218
0.1027463015
0.1333454202
0.4192774439
0.2128091632
0.1462318704
0.1533877485
0.1676257283
0.1851300902
0.2045343059
0.2256239316
0.2491888065
0.2771928959
0.3124141205
0.3700591665
0.4205215632
0.4856129292
0.5537916691
0.1833294681
0.119056571
0.1338255694
0.1666775308
0.2068798826
0.2307689229
0.2198634822
0.1834632589
0.1421024977
0.1050403171
0.07860899788
0.08275035385
0.07656561314
0.09091648349
0.112052809
0.1281161172
0.143140998
0.16013552
0.1773609521
0.1927299606
0.2062793899
0.2229758921
0.2567977602
0.2823755999
0.3157023319
0.3512790333
0.1927105769
0.1189700719
0.1229396985
0.1428326445
0.1760011552
0.2103341594
0.2224034076
0.2132629733
0.1920473679
0.1517412398
0.09688731614
0.06291584696
0.05142860899
0.05381132074
0.07234526467
0.08961031552
0.1006801654
0.1137571953
0.1308615842
0.148900286
0.1702594662
0.2044260203
0.2360292255
0.1775885915
0.1834285461
0.2004413766
0.2070626629
0.1234949303
0.1206846493
0.1347802929
0.1784660235
0.2506544772
0.299516792
0.3017541487
0.278554899
0.2274590844
0.1384215392
0.06947031237
0.04671899434
0.03975090904
0.0443694912
0.05660289749
0.06775575806
0.08586722701
0.1185325636
0.1693664001
0.2671711357
0.5432388117
0.6218381396
0.1772731708
0.09917607948
0.2240934839
0.1298236312
0.1195270199
0.111733246
0.1587860539
0.2244354234
0.3072427573
0.33284982
0.3101559512
0.2463632588
0.1409781922
0.06842154976
0.04401616801
0.03372150867
0.03132113142
0.03908339301
0.06461007249
0.1275998133
0.2412907695
0.4074813832
0.7310429811
0.9983652116
1.100106247
0.4401529464
0.09237031661
0.2400007247
0.1341799496
0.1151740515
0.1090692338
0.1039020697
0.1332560612
0.1864306304
0.2310507896
0.2153721651
0.1390193412
0.07298601164
0.04645267376
0.03696425338
0.03210625022
0.03167245341
0.04365303686
0.0845717973
0.174688261
0.3117094514
0.4495505169
0.5730910245
0.7621125954
0.7027592607
0.1918024024
0.09492237136
0.2527774396
0.139727985
0.1173127212
0.107661026
0.1075429304
0.1176974915
0.1313924966
0.1382416348
0.1198353798
0.0830771462
0.05677782907
0.04467757733
0.03937008324
0.0366793502
0.0376281937
0.04858456194
0.08043209761
0.1489183959
0.2666551149
0.3988398009
0.4840503376
0.5118722545
0.3619982146
0.1467036249
0.1301557913
0.2621504448
0.1459960332
0.1262615151
0.1232579059
0.1331932817
0.1514542648
0.1653100052
0.1601994068
0.1303851915
0.09104221991