/*--------------------------------*- C++ -*----------------------------------*\
  =========                 |
  \\      /  F ield         | OpenFOAM: The Open Source CFD Toolbox
   \\    /   O peration     | Website:  https://openfoam.org
    \\  /    A nd           | Version:  8
     \\/     M anipulation  |
\*---------------------------------------------------------------------------*/
FoamFile
{
    version     2.0;
    format      ascii;
    class       volScalarField;
    location    "1.1";
    object      htcConv;
}
// * * * * * * * * * * * * * * * * * * * * * * * * * * * * * * * * * * * * * //

dimensions      [1 0 -1 1 0 0 0];

internalField   uniform 0;

boundaryField
{
    walls
    {
        type            calculated;
        value           uniform 0;
    }
    region0_to_wallFilmRegion_wallFilmFace
    {
        type            convectiveHeatTransfer;
        L               1;
        value           nonuniform List<scalar> 
776
(
1.6619563
1.57595137
1.517046242
1.490569315
1.48306889
1.479752508
1.478669162
1.506527247
1.579051091
1.673423135
1.781796423
1.905669495
2.033156054
2.150322598
2.24642248
2.314517538
2.349489893
2.353258142
2.337399439
2.331262965
2.395345073
2.521137964
2.599944092
2.601375189
2.581338696
2.562752086
2.522525756
2.458113367
2.375298349
2.270902834
2.040094865
1.906800497
1.874023946
1.841216413
1.817098042
1.77333351
1.704468294
1.642811194
1.643642827
1.701439012
1.785292897
1.902785505
2.037832059
2.163953615
2.255971024
2.302455325
2.307340263
2.288049842
2.261901142
2.2166388
2.18348752
2.261470649
2.420734015
2.492628137
2.482350166
2.473029384
2.487545721
2.463355766
2.411428245
2.340290184
2.408162943
2.309951709
2.304893965
2.282182508
2.255629717
2.195801815
2.095752621
1.972902473
1.894095788
1.890071719
1.9250029
2.025235178
2.170731513
2.313051191
2.409899077
2.445075592
2.42300597
2.366537535
2.31858496
2.264266263
2.223194345
2.262872324
2.400937228
2.466167841
2.393182446
2.290951365
2.405412484
2.458243025
2.466224378
2.472455064
2.631560885
2.565105647
2.58489735
2.571928344
2.547690292
2.488026162
2.386987468
2.250148473
2.13461046
2.090977258
2.083918196
2.158246213
2.296739758
2.43477287
2.520285912
2.533983359
2.474764591
2.358116586
2.260231817
2.204598164
2.168058167
2.251395133
2.425845626
2.502559024
2.386031833
2.060911234
2.106544692
2.460053829
2.532503093
2.645696931
2.784263724
2.742283892
2.774049647
2.763057066
2.739016639
2.684137069
2.595715848
2.473384069
2.3553646
2.294417178
2.257314851
2.301227934
2.418323416
2.538044128
2.605994452
2.595725794
2.505742269
2.328060528
2.158176417
2.111831663
2.072867107
2.15443378
2.373144013
2.479392258
2.488332011
2.351038434
1.822413393
2.46873104
2.617981592
2.801573648
2.873227066
2.852050219
2.889144109
2.874314824
2.846959063
2.79672174
2.725522178
2.63061977
2.530552637
2.468060065
2.4108343
2.421219267
2.507416177
2.601497649
2.644604428
2.600073567
2.493620656
2.290860548
2.010421563
1.973525139
1.960642649
2.038767868
2.235150486
2.336238087
2.285633808
1.405394939
1.678855769
2.419610117
2.676633847
2.903669921
2.909077003
2.907831075
2.947859788
2.924191176
2.889975702
2.843353667
2.790323728
2.729894294
2.661554188
2.610629833
2.544619214
2.521042378
2.566927195
2.628022679
2.643884157
2.575586527
2.460237861
2.289160821
1.958366382
1.800705736
1.863172745
1.945218278
2.117092711
2.193721268
2.150717674
1.734297079
1.222954805
2.294944549
2.67935201
2.944003929
2.900665937
2.920618068
2.964113182
2.93458321
2.898841435
2.854839166
2.814031197
2.780708524
2.754365943
2.728131744
2.66874182
2.618814534
2.612674518
2.62402908
2.617722177
2.522552548
2.399790122
2.289850426
2.073165132
1.72117124
1.621644506
1.807133343
2.026697813
2.067562023
2.015855193
1.80840978
0.9756588729
2.078690177
2.612067222
2.900897901
2.857642961
2.900769339
2.94917833
2.920885342
2.884014684
2.842563667
2.813084466
2.805420855
2.820189033
2.831654213
2.798270772
2.742625427
2.677856955
2.603878372
2.570185647
2.440591382
2.306563607
2.23351846
2.137010746
1.918358642
1.771072531
1.312483822
1.7803529
1.914379973
1.889863703
1.738866971
1.100255377
2.127865169
2.486521339
2.724963929
2.790691312
2.85884356
2.914616582
2.890452827
2.854723719
2.817362909
2.800568237
2.820031666
2.877104303
2.935540032
2.94608515
2.912742693
2.803686957
2.608534579
2.531839981
2.341891607
2.173909526
2.123070244
2.155434538
2.040673854
2.11850129
1.649169771
1.272725744
1.566987957
1.660093104
1.49656107
1.724497337
2.203136958
2.388637639
2.567400183
2.712662488
2.805544863
2.868913178
2.851642457
2.820810767
2.792020239
2.793504795
2.846243913
2.950167713
3.055676629
3.115980052
3.119013073
2.994282682
2.69112849
2.585315406
2.301892825
2.02459865
1.953498454
2.082705591
2.044586887
2.507631569
1.990681205
1.268330737
1.219618193
1.512146728
1.520764761
1.917077031
2.13842905
2.222274746
2.335737694
2.64007924
2.753042846
2.821168413
2.81443918
2.794767333
2.783547006
2.814368262
2.910776535
3.062412212
3.199125812
3.295490038
3.321762108
3.199204381
2.849364571
2.759216671
2.44505276
2.022984969
1.764790771
1.871280417
1.889072667
2.314738919
2.33916732
1.45506206
1.147689191
1.308665656
1.42957157
1.836326089
1.993073945
2.049087263
2.125160194
2.593938263
2.71662808
2.78431257
2.791194082
2.792470356
2.81299037
2.88893331
3.037921781
3.222023925
3.351636181
3.457397938
3.475500768
3.35603334
3.030756179
2.960248985
2.695769166
2.298630906
1.912538008
1.862466011
1.899673961
1.615089889
1.973936053
1.539835715
1.283115373
1.20456729
1.337102056
1.709597311
1.899884459
1.994930966
2.082985965
2.596170087
2.713921154
2.776564489
2.800351716
2.833017383
2.901433125
3.035218918
3.230460388
3.413223947
3.480759711
3.565763267
3.539148401
3.427150315
3.177065683
3.112585112
2.90043166
2.605176409
2.306184334
2.158522596
2.098821729
1.987513813
2.049450807
1.732378683
1.501075488
1.331922574
1.360125273
1.669474993
1.88028375
1.996452455
2.147263378
2.656961884
2.75713788
2.816958578
2.861243466
2.930293112
3.05422793
3.243970788
3.469812071
3.614712286
3.546173789
3.596984173
3.522087916
3.423359932
3.24567897
3.197140166
3.035977281
2.798411228
2.55433746
2.370078836
2.2423654
2.113192483
2.102242989
1.90795468
1.732666112
1.612830287
1.531539924
1.757112452
1.930592587
2.004223361
2.185991418
2.762337481
2.84156618
2.908878792
2.975182061
3.0740458
3.25219005
3.495721167
3.756698202
3.838789457
3.516278592
3.56385051
3.425514136
3.343743411
3.230797069
3.193893832
3.09266003
2.909864967
2.702061456
2.508730823
2.347050233
2.214649923
2.154226868
2.030357822
1.926603669
1.879487261
1.786490082
1.933377135
2.061686443
2.024082039
2.218748532
2.88949966
2.953230848
3.041521056
3.127043406
3.238243267
3.478225999
3.799235982
4.131921032
4.158256313
3.394842016
3.480479385
3.247985717
3.190764138
3.12969048
3.118870897
3.074499973
2.951056568
2.789589148
2.617160537
2.452124602
2.311394689
2.219279166
2.108459837
2.056286971
2.085440285
2.019432551
2.141893422
2.257272712
2.079796791
2.246983143
3.032037886
3.090988493
3.21587265
3.306731821
3.39990221
3.731773566
4.165662981
4.569658191
4.60706121
3.188036337
3.344148423
2.985473927
2.963968607
2.958807404
2.992866064
3.012651093
2.953408913
2.846426936
2.718926745
2.578777911
2.434889867
2.326217388
2.194990575
2.165979877
2.274903661
2.226618413
2.319260143
2.431034864
2.192649327
2.29391597
3.194198608
3.265836238
3.445131592
3.498893192
3.515277831
3.963897912
4.506280881
4.929639527
5.220210782
3.199912451
3.091403757
2.649559067
2.642944089
2.755117694
2.865272884
2.949790721
2.956976684
2.911518497
2.836457375
2.72996616
2.590398513
2.485010679
2.327941485
2.277818655
2.442196025
2.394957529
2.371112609
2.451956391
2.297950044
2.309927349
3.37226808
3.480704719
3.727182378
3.674525301
3.44505198
3.94364388
4.604991085
5.306000943
5.792434993
3.37129399
2.649212991
2.433868769
2.319194431
2.638403879
2.82509695
2.941793963
2.996995768
3.004031916
2.973520463
2.89135347
2.748946146
2.645414057
2.485894655
2.376590223
2.552570129
2.507796354
2.306384286
2.382796483
2.286572468
2.243406308
3.533084938
3.713109738
4.043412573
3.940563185
3.117528226
3.361751213
3.233094309
3.363283073
3.404791593
2.73423625
2.501924167
2.65176077
2.516122964
2.755938356
2.911207157
3.001033673
3.073935628
3.113861207
3.111206494
3.036945775
2.867065282
2.705823312
2.577663964
2.409601663
2.637602261
2.613061051
2.111888941
2.20154267
2.133898776
2.087118227
3.554355519
3.902753818
4.302353399
4.33544544
2.943201102
3.395995346
3.285276522
3.151436351
2.341665892
2.618690539
2.815289344
2.858164487
2.81633182
2.916059156
3.011872991
3.069565419
3.148621878
3.208905935
3.226723917
3.152514749
2.931229112
2.5977811
2.511757457
2.170079361
2.859372723
2.589286126
2.009510733
1.971405487
1.757084873
2.118874285
3.200794966
3.865280527
4.512548592
4.692444012
2.803251359
3.192573877
3.140076166
3.108549116
2.838302675
2.938239807
2.926335215
2.923371242
2.89274611
2.941747415
3.025773423
3.086477578
3.181768445
3.262109155
3.306388912
3.276047666
3.122435479
2.802631859
2.486179728
1.60355093
3.315399749
2.634757686
2.061535336
1.311878715
1.815884576
2.492412909
2.905384466
2.801138553
2.863710522
2.700289377
3.152025961
3.222290835
3.26850298
3.21931418
3.094396848
3.043291729
2.956774413
2.882259861
2.838717873
2.845465183
2.932610857
3.021594141
3.150989866
3.2520762
3.328971997
3.334830249
3.23355701
3.018737652
2.700115431
2.27629352
1.62773003
1.71521016
1.450293991
1.24258809
2.078163437
2.493047561
3.131778873
3.236941945
3.331453108
3.094626414
3.22654576
3.317341604
3.29914135
3.254631545
3.171461978
3.044756049
2.868940322
2.739997026
2.665564712
2.649068719
2.738133724
2.868210846
3.060182319
3.17490948
3.294477894
3.335033658
3.275575965
3.073005173
2.748299129
2.394048686
2.274496095
2.041205525
2.058662101
2.266157519
2.188927868
2.603636403
3.001656673
3.066810226
3.243828227
3.235231107
3.338681034
3.325765258
3.289401739
3.249868056
3.183890675
2.990653195
2.68025641
2.475497515
2.374181164
2.385271958
2.469885273
2.636368673
2.950018666
3.04749636
3.220821401
3.308010623
3.268814407
3.091353987
2.758346426
2.426165713
2.133892262
2.586507283
)
;
    }
    region0_to_wallFilmRegion_mirrorFace
    {
        type            convectiveHeatTransfer;
        L               1;
        value           nonuniform List<scalar> 
703
(
4.301438316
4.555948561
4.605922517
4.680581985
4.779718355
4.732923936
4.675621925
4.526965407
4.430399069
4.373794889
4.121631459
4.241660395
4.338975933
4.412183136
4.460597417
4.464239844
4.420658946
4.33128249
4.259328018
4.219336403
4.071842065
4.009652161
4.005758853
3.98696687
3.945905918
3.868193657
3.775430866
3.836454537
3.866765679
3.87047337
2.859414936
3.404948404
2.748155079
2.749962253
2.641227222
2.523200615
2.75126614
2.534060298
2.505159569
2.730846713
2.489472556
2.46783429
2.755024746
2.460502605
2.47753748
2.805173674
2.505957026
2.504192376
2.713066621
3.509359776
2.819223895
3.034510113
3.308017982
3.626806413
2.225137991
3.48128004
2.837765516
3.559417874
2.269833363
3.76165389
3.388739773
3.964380632
3.914478584
3.975492357
1.721872393
1.912914814
1.615635849
1.778863267
1.487894326
1.671112506
1.805849654
1.705073129
1.761000379
1.859284025
1.803524854
1.84390614
1.987781623
1.888560452
1.942013618
2.22450519
2.000805763
2.025142207
2.570832269
2.051519064
2.143807352
2.152132954
2.137196701
2.092001425
1.979069529
2.070905707
2.056335109
1.978432706
2.053988894
2.076696457
2.05828795
2.116155253
2.14518403
1.757701435
1.9171195
1.804665678
1.733557973
1.677254645
1.801135398
1.762490316
1.804622007
1.829184768
1.818908367
1.84938808
1.873285759
1.892443112
1.898678355
1.925956449
1.927424634
1.95278946
1.9733817
1.97060906
1.990576794
2.02103979
2.067251909
2.049236592
2.058873756
2.063797275
2.055847271
2.050563752
2.08134834
2.048425082
2.045133916
1.936412543
2.118986698
1.948914703
1.910397416
1.858219443
1.912044826
1.94332348
1.98126774
2.02909248
1.974971936
2.045232075
2.072439104
2.003656311
2.093941971
2.095066134
2.018997793
2.084347586
2.074379612
2.038156525
2.067525145
2.061365328
2.044557867
2.051330417
2.032038319
2.016621903
2.003953737
2.083153923
2.368827412
1.652372415
1.761206495
1.982132491
1.616423201
2.013897075
1.3510537
1.665138064
2.100423963
1.912904426
2.000182856
2.17148683
2.175293145
2.234453124
2.132261027
2.206315086
2.176870985
2.085418365
2.142457058
2.10680016
2.023606871
2.067559261
2.020570535
2.157836227
2.319894199
2.034872646
1.703121643
1.882777307
1.914395796
1.793470198
1.897253285
2.062854792
2.146708425
2.20018083
2.271006109
2.284054011
2.315615718
2.314146304
2.218237174
2.283720403
2.246333914
2.130666038
2.202598515
2.154683139
5.48486993
5.02476385
5.211640887
4.791236768
5.054960982
4.824494546
4.518911335
4.67004525
4.603339018
4.498719647
4.582018992
4.596055984
4.477755237
4.628693507
4.602463387
4.43463083
4.572903288
4.552090143
4.379901972
4.528524447
4.49714938
4.28953206
4.45927034
4.415722935
4.18806865
4.370481609
4.328403972
4.116995526
4.294572953
4.270851742
4.138102245
4.263430647
4.273558525
2.341642578
2.394684915
2.182659621
2.299959551
2.134084394
2.100821507
2.251390649
2.07657953
2.043609471
2.252148323
2.028505151
2.040127452
2.284289151
2.068313939
2.088291807
4.918090035
4.756735368
4.619888335
4.68756748
4.685798346
4.599778483
4.527562674
4.444816411
4.366481737
4.314782559
4.389672953
4.595426574
4.622927268
4.674302608
4.702064909
4.505901772
4.456029816
4.408515849
4.368160147
2.042409158
2.463686569
1.973170552
1.894567136
1.785679139
1.689104806
1.831252937
1.644621862
1.611771288
1.828844553
1.594082123
1.613845951
1.904454911
1.66907177
1.72850365
4.470347301
4.173165042
4.280487361
4.586666197
4.371829964
4.426151059
4.634547963
4.740707521
4.765938572
4.701374457
4.639545278
4.642239414
4.587009723
4.661307918
4.472978501
4.397838282
4.343552182
4.310229979
4.354288002
4.28791234
4.269648091
1.541188297
2.19973378
1.613934769
1.422010864
1.364618647
1.363285595
1.407753606
1.236045974
1.180100638
1.56857116
1.262618908
1.42054983
4.089994546
4.05916356
4.295247405
4.107325501
4.138888767
4.377602815
4.16383419
4.440326943
4.138749972
4.379645111
4.086292089
4.092968865
4.087181946
4.205959098
4.086237123
4.088223828
1.852630003
3.056688424
2.834083454
1.415592014
2.509974996
2.314786437
1.754614965
2.348195629
2.592375165
2.98337934
3.919089458
3.60208123
3.499605192
3.654206154
3.439933125
4.173648213
6.204411004
2.849161771
5.038026382
2.504808685
4.201454371
2.535996548
4.2420645
2.444741994
4.232557379
2.298877758
4.147394285
2.10045589
4.085320467
2.418456018
4.001550275
2.267333468
3.836387488
2.325863112
3.699736794
2.09041896
3.628852338
2.862092352
1.844874326
1.659659957
1.776187916
1.829770045
1.903803941
2.129834912
3.082313033
2.260238368
2.02547684
1.955751322
2.031503827
2.779786157
1.895482623
1.594088304
1.73421881
1.788311084
1.854391371
1.92506766
1.908515177
2.047772461
2.066751671
2.067601269
2.742901264
1.95331422
1.831840589
1.9158365
1.956618552
1.992607459
2.011634786
2.026685669
2.047177176
2.031817658
2.724395948
2.11057057
1.999568434
1.732700951
2.051038793
2.151104133
2.158736861
2.10816839
2.058916471
2.816353108
2.258291611
1.916931073
1.430488005
2.064203792
2.257238408
2.254391093
2.175677421
3.41344818
5.4101039
5.159389269
4.586146491
4.502087931
4.507594254
4.456265451
4.411455266
4.33872571
4.237752784
4.146294595
4.111243851
2.48533837
2.329043936
2.279736773
2.240250216
2.276401535
3.967928323
4.687201967
4.878090514
4.624030006
4.661331367
4.593285209
4.625467708
4.728137543
4.632897739
4.64186541
4.566983719
4.570197317
4.486986133
4.403808988
4.336303227
4.309463137
2.351455155
1.943460564
1.865252286
1.814176318
1.867747947
2.913766861
1.774330269
1.455051274
1.390206621
1.481436665
3.001347488
1.821171064
1.600935138
1.475585562
2.123973913
4.00003295
4.133109134
4.020514863
3.785654224
3.64656794
3.742241469
3.503067978
3.359836054
3.223148082
3.144863981
3.56641023
3.180912194
3.637011832
3.245210288
3.299032863
3.919829398
4.127266795
3.634494432
3.287063935
2.943527299
2.609853613
2.313934739
2.161927734
2.212109531
2.328446209
3.940159
4.174766719
3.599206273
3.047703623
2.66792911
2.310158503
1.939385628
1.619422042
1.436228481
1.506908601
4.056068249
4.086690367
3.871245143
5.791276425
2.733472046
2.481832701
5.823541772
5.697267108
2.568682353
4.398948638
2.211949035
2.177139666
5.153947496
4.633022693
2.535299769
4.206878062
2.145763064
2.152462506
4.40205532
4.358008573
2.501599825
4.25259523
2.167486169
2.180211317
4.366255948
4.370733209
2.371445966
4.182309415
2.197038628
2.232150358
4.359354968
4.31532402
2.210241451
4.112119289
2.296420164
2.357671962
4.2878583
4.257965774
2.269628591
4.059054569
2.328624173
2.351160696
4.23025459
4.195935657
2.458116455
3.911374859
2.13788305
2.013766981
4.146482789
4.083820725
2.312794685
3.763490126
2.020541622
1.975555729
4.021929906
3.962682889
2.310722377
3.64909224
1.942411291
2.014129429
3.911950963
3.874818612
1.645485051
3.680515526
2.139174706
2.097242664
3.865726707
3.909064024
4.568772969
4.610895535
4.683387679
4.605194891
4.335390227
4.289200022
4.468746538
4.509309178
4.551566059
4.593569342
4.626628308
4.637575109
4.52703087
4.451723201
4.390104659
4.164767364
4.468000689
4.453037546
4.292118913
4.2350417
4.184489543
4.199175267
4.207413662
4.207562499
4.195716233
4.17152685
4.11160283
4.103724141
4.100128836
3.998506769
4.009378993
3.894569456
3.859922664
3.998544447
3.823236574
3.783694474
3.970225857
3.698994794
3.911758161
3.652491485
3.82013546
3.548252899
3.816195462
3.472695808
3.520909629
3.855617304
3.607681864
3.871678736
3.86846535
3.657384815
3.646349108
3.852466756
4.097315292
3.827309907
3.716857609
3.709563951
3.590048048
3.575080663
3.466908833
3.343581646
3.431379711
3.220956854
3.102233153
3.289139559
2.988460174
2.882590944
3.17083633
2.791113189
2.725453245
3.155597733
2.697277638
2.710386065
3.213820712
2.746062698
2.791269931
3.272772107
2.83344522
2.86754208
3.340831566
2.89492581
2.929089986
3.795509415
4.151125018
3.780337221
3.465138037
3.588131919
3.369532841
3.114512472
3.13695442
2.931384425
2.775760147
2.731610042
2.533505308
2.45207064
2.32852222
2.120709386
2.211642867
1.920339468
1.748279135
2.168886709
1.63662755
1.601960954
2.270306522
1.630938543
1.699865021
2.378646971
1.787779983
1.883504429
3.80036566
4.141412202
3.780277347
3.331242749
3.606488687
3.413128511
2.852818106
3.198959473
3.01642193
2.492344577
2.85301306
2.707809888
2.123719033
2.568726335
2.43822454
1.766822164
2.319202529
2.214213596
1.505179918
2.125264976
2.05316015
1.435693733
2.001073424
1.972985559
1.634613946
1.976337281
2.016266113
3.763043619
)
;
    }
    procBoundary2to0
    {
        type            processor;
        value           uniform 0;
    }
    procBoundary2to1
    {
        type            processor;
        value           uniform 0;
    }
    procBoundary2to3
    {
        type            processor;
        value           uniform 0;
    }
}


// ************************************************************************* //
