/*--------------------------------*- C++ -*----------------------------------*\
  =========                 |
  \\      /  F ield         | OpenFOAM: The Open Source CFD Toolbox
   \\    /   O peration     | Website:  https://openfoam.org
    \\  /    A nd           | Version:  8
     \\/     M anipulation  |
\*---------------------------------------------------------------------------*/
FoamFile
{
    version     2.0;
    format      ascii;
    class       volScalarField;
    location    "1.1";
    object      nut;
}
// * * * * * * * * * * * * * * * * * * * * * * * * * * * * * * * * * * * * * //

dimensions      [0 2 -1 0 0 0 0];

internalField   nonuniform List<scalar> 
67410
(
8.736593938e-05
0.0001123293537
0.0001300533063
0.0001460191226
0.0001594174449
0.0001699688361
0.0001778855219
0.0001834552567
0.0001867935535
0.0001877756579
0.0001860695849
0.0001812357288
0.0001730368454
0.0001622458647
0.0001516180212
0.0001448064247
0.0001429350385
0.0001448395701
0.0001508108214
0.0001640572039
0.0001900833221
0.0002308235245
0.0002675661188
0.0002325603965
0.0002595544678
0.0002841142335
8.865700053e-05
0.0001190110688
0.0001405800859
0.0001589206404
0.000173811549
0.0001857382305
0.0001953223872
0.0002028609651
0.0002082416486
0.0002109966299
0.0002105205166
0.0002062671153
0.000198058869
0.0001866741726
0.0001748187836
0.0001666333999
0.0001645689011
0.0001685255709
0.0001808284613
0.0002108286862
0.000269040663
0.0003489929744
0.0004101303477
0.0002806489489
0.000305342083
0.00033466059
8.890242299e-05
0.0001229959812
0.0001468412757
0.0001663026685
0.0001818971086
0.0001947138258
0.0002055920977
0.0002147510569
0.0002219105357
0.0002261303003
0.0002265122486
0.0002225403923
0.0002142327668
0.0002022321457
0.000189321364
0.0001801178438
0.000178321003
0.0001857215093
0.0002091943657
0.0002637223464
0.0003544892029
0.0004666383687
0.0005489925941
0.0003207930319
0.0003296063644
0.0003636155196
9.057345754e-05
0.000125560915
0.0001503475427
0.0001704270974
0.0001866670244
0.0002004616724
0.0002128883237
0.0002238999561
0.0002325641717
0.000238004941
0.000239276079
0.0002354889065
0.0002262114414
0.0002130742286
0.000199446917
0.0001900561542
0.0001890873007
0.0001993380008
0.0002295150489
0.0002943462356
0.0004002490735
0.0005293136381
0.000612027354
0.000359579986
0.0003466182843
0.0003839447551
9.27430083e-05
0.0001263005717
0.0001510864575
0.0001715855162
0.0001884911125
0.0002031953911
0.0002168494384
0.0002288755358
0.0002384745463
0.0002447112241
0.000246561903
0.0002430257024
0.0002335101206
0.0002195503133
0.0002062370517
0.0001983686352
0.0001989120367
0.0002081528783
0.0002280819253
0.0002573776706
0.0002846947459
0.0003523933527
0.0003962215032
0.0003329548798
0.0003589128399
0.0003972409808
9.366887561e-05
0.0001242707511
0.0001482842257
0.0001691561206
0.00018686206
0.0002024602112
0.0002169514493
0.0002296897787
0.0002398477385
0.0002464302769
0.0002483268384
0.0002444799225
0.0002345776985
0.0002215013933
0.0002115600447
0.0002094037542
0.0002176362961
0.0002417445153
0.0002889422549
0.0003352804639
0.0002726112389
0.0002724265049
0.0002966441465
0.0003227352982
0.0003579023797
0.0003970077119
9.338318874e-05
0.0001192543568
0.0001412485292
0.0001622369469
0.0001809429318
0.0001975967792
0.0002127981677
0.000226108414
0.0002365109829
0.0002429408313
0.000244235256
0.0002395749324
0.0002301735295
0.0002221450705
0.0002216438293
0.0002320341501
0.0002592266373
0.0003194312387
0.0004138978607
0.0004966448657
0.0003533899823
0.0002786662632
0.0002926675378
0.0003198697185
0.0003500707253
0.0003849683807
9.306102362e-05
0.0001130436795
0.0001306184032
0.0001502557115
0.0001695923412
0.0001874342435
0.0002033293198
0.0002171154715
0.0002274727887
0.0002332359653
0.0002335541205
0.0002292771805
0.0002258693392
0.0002302032547
0.0002454269062
0.0002730377397
0.0003278140776
0.0004285789997
0.0005624502559
0.0006770148493
0.0005078196295
0.0003158611953
0.0003042733411
0.0003250264638
0.0003444092134
0.0003676190296
9.370584372e-05
0.0001092158392
0.000120872547
0.0001360482385
0.0001533163564
0.0001708288007
0.0001869771676
0.0002004512598
0.0002102036119
0.0002156541402
0.0002177073823
0.0002208266406
0.000231724708
0.0002530333208
0.0002812405886
0.000319218648
0.000388463632
0.0005081606294
0.0006637429954
0.0007850406236
0.0006224194663
0.0003821556618
0.0003263075091
0.0003437700847
0.0003541867147
0.0003632980393
9.51920092e-05
0.000108899527
0.0001166761858
0.0001267899243
0.0001387932472
0.0001517514687
0.0001646605412
0.0001764375634
0.0001863312895
0.000195009153
0.0002059235493
0.0002243929832
0.0002520914819
0.0002837504055
0.0003122456759
0.000333747008
0.0003490780678
0.0003724351991
0.0004383395416
0.0005204458988
0.0004792085059
0.0003460048903
0.0003533758281
0.0003732100742
0.0003810298149
0.0003794455915
9.717521496e-05
0.0001104498745
0.0001165305451
0.0001240278012
0.0001324837104
0.0001410322193
0.0001494033816
0.0001581370402
0.0001688171537
0.0001843987633
0.0002084571137
0.0002415934599
0.0002790294941
0.0003145944136
0.0003446517839
0.0003667888186
0.00037781339
0.0003741178145
0.0003589149733
0.0003556049159
0.0003321553859
0.0003455151825
0.0003757342688
0.0003981094369
0.0004074311113
0.0004013884519
0.0001000631587
0.000114091411
0.0001204672324
0.0001283046411
0.0001370217579
0.0001450779104
0.0001516821858
0.0001578922321
0.0001676843224
0.0001871981354
0.000219298366
0.0002591829386
0.0002991732362
0.000335155079
0.0003660737681
0.0003904885625
0.0004053699135
0.0004066114617
0.0003882767501
0.0003492775731
0.0003319188646
0.0003590898069
0.0003914168542
0.0004142026203
0.0004250568513
0.0004197984175
0.0001045771163
0.0001208231135
0.0001293908574
0.0001395707335
0.0001503720796
0.0001596767262
0.0001661122668
0.000169960441
0.0001748999011
0.0001893499799
0.0002196127193
0.0002600344247
0.0003007663234
0.0003378811981
0.0003707443506
0.0003973889806
0.0004147319922
0.0004193162571
0.0004062374191
0.0003706168171
0.0003402218802
0.0003648032262
0.000397231301
0.0004201949152
0.0004317654866
0.0004290794248
0.0001114948077
0.0001311542191
0.0001427550532
0.0001555056802
0.0001681651116
0.0001787855616
0.0001859716829
0.0001887615351
0.0001873419546
0.0001855983692
0.0001932065939
0.0002181868303
0.0002563922222
0.0002983915556
0.0003379227894
0.0003701252325
0.000391227134
0.0003977574756
0.0003861199031
0.0003566295811
0.000334498838
0.0003525513643
0.0003842930194
0.0004106238147
0.000427695422
0.0004359401439
0.0001209293297
0.0001435220727
0.0001568125133
0.0001707212355
0.0001844971645
0.0001967459436
0.0002061972137
0.0002109313006
0.0002092595396
0.0002020736444
0.0001965093208
0.0002057136629
0.0002324125488
0.0002671368721
0.0003026347918
0.000333690129
0.0003546628126
0.0003617316535
0.0003530177337
0.0003342238434
0.0003280342905
0.0003490435425
0.000379262996
0.0004071455808
0.0004297595306
0.0004462089237
0.0001317793513
0.0001551760934
0.0001677821057
0.0001812461841
0.0001957731555
0.0002104869853
0.0002235775697
0.0002323629626
0.0002341301337
0.0002264393457
0.0002106734053
0.0002011919427
0.0002114363081
0.0002361293308
0.0002645709059
0.0002913315039
0.0003118262819
0.0003220382315
0.0003220577191
0.0003193236107
0.0003285644483
0.0003536380757
0.0003837811645
0.0004124132231
0.000437110496
0.0004564147051
0.000142209696
0.0001644923158
0.0001743077215
0.0001852858516
0.0001991550925
0.0002158058179
0.0002328166878
0.0002461426372
0.0002528025352
0.0002506128912
0.0002365147806
0.0002118890161
0.0002006692215
0.0002131611341
0.0002347867868
0.0002567965062
0.0002759910267
0.0002895431237
0.0002976684185
0.0003063700468
0.0003241105455
0.0003514200743
0.0003816999086
0.0004107415352
0.0004368019067
0.0004589842657
0.0001505992918
0.0001717929031
0.0001781569286
0.000184182343
0.0001929990993
0.0002075322634
0.0002278036571
0.000246420343
0.0002570491888
0.000259746706
0.0002529525194
0.0002335388367
0.0002058934772
0.0002008496175
0.0002150519023
0.0002330173829
0.0002502633343
0.0002653346002
0.0002777549874
0.0002917340258
0.000312840014
0.0003410267422
0.0003713257892
0.0004003576002
0.0004266874078
0.0004488435219
0.0001557448675
0.000178028228
0.0001835362242
0.0001863008785
0.0001868533322
0.000187963584
0.00019867327
0.0002205340297
0.0002385206484
0.0002449480041
0.0002407792592
0.0002257555582
0.0002024869627
0.0001943584015
0.0002032062565
0.0002168614982
0.0002313658175
0.0002455193192
0.000258866609
0.0002741244998
0.0002955442387
0.0003232584311
0.0003534411515
0.0003821924121
0.0004081980469
0.0004302400582
0.0001563812439
0.0001817691883
0.0001899869294
0.0001952024947
0.0001961861653
0.0001901954606
0.0001819757466
0.0001859822348
0.0002076958503
0.0002161057026
0.0002141795901
0.0002052638634
0.000192405489
0.0001885910548
0.000195327256
0.0002053586261
0.0002163593395
0.0002281178822
0.0002406713355
0.0002553172398
0.0002748960591
0.0003002642972
0.0003289753952
0.0003567856933
0.0003816037032
0.0004021515844
0.0001519247462
0.0001792315043
0.0001903521035
0.0001976561748
0.0002012672147
0.0001983018398
0.0001872386557
0.0001729401395
0.0001728595149
0.000185309437
0.0001882605796
0.0002123723058
0.0001803243551
0.0001809007632
0.0001875767949
0.0001955052065
0.0002034645056
0.0002122806831
0.000222741458
0.0002352968463
0.0002513121118
0.0002724933197
0.0002997321048
0.0003259001903
0.0003486924662
0.0003671831361
0.0001454573389
0.0001693428899
0.0001816027439
0.0001889902329
0.0001944025298
0.0001958187468
0.000190856964
0.0001798063854
0.0001652018598
0.0001536830891
0.0001534045736
0.0001600932519
0.0001630421997
0.0001699097659
0.0001777536398
0.0001847633843
0.0001909395726
0.0001973701442
0.0002054038648
0.0002154171181
0.0002272400905
0.0002423751923
0.00026471857
0.0002898994159
0.0003110729955
0.0003272591526
0.0001424033052
0.0001602035373
0.0001724909612
0.0001822502501
0.0001891198101
0.0001934056209
0.0001931368349
0.0001876856712
0.0001783041618
0.000159390418
0.0001361952095
0.0001249080266
0.0001354361921
0.0001522056951
0.0001641333992
0.0001717997203
0.0001770451315
0.0001815915264
0.0001871055169
0.0001942499255
0.0002021225519
0.0002107525374
0.0002243394818
0.0002477386775
0.0002660091532
0.0002796548412
0.0001430885958
0.0001585768133
0.0001710953072
0.0001838648596
0.0001936272786
0.0001995417432
0.0002020489453
0.0002000370276
0.0001926545891
0.0001751663804
0.0001564957252
0.0001324565659
0.0001126392278
0.0001239373566
0.0001449649378
0.0001553949192
0.0001598984365
0.0001624651852
0.0001655082209
0.0001696871495
0.0001736014139
0.0001765915251
0.0001850830872
0.0001978070867
0.0002100547478
0.0002193444449
0.0001440947085
0.0001569179776
0.0001647648392
0.0001785223371
0.0001933552874
0.0002050658284
0.0002127760424
0.0002139396915
0.0002069564774
0.0001848246844
0.0001658198782
0.000145682554
0.0001203704345
0.0001023148594
0.0001187265866
0.0001332943503
0.0001385790233
0.0001446544424
0.0001564990453
0.0001691757352
0.0001802472371
0.000203036728
0.000252073132
0.0001587048916
0.0001450339468
0.0001451144198
0.0001570051748
0.0001549902605
0.0001594550938
0.0001777046083
0.0001978470244
0.000211304188
0.0002150681898
0.0002069523888
0.0001770219764
0.0001554965517
0.0001386307782
0.0001203060699
9.952114055e-05
9.617301378e-05
0.000112892675
0.000134065712
0.0001609489259
0.0001870520116
0.0002079217069
0.0002295236272
0.0002684830754
0.0002948021105
0.0001534546942
0.000115234681
0.0001460154097
0.0001602036983
0.0001544978256
0.0001463753611
0.0001506182663
0.000166015421
0.0001809208117
0.0001884481261
0.0001775976141
0.0001519913825
0.000128742135
0.000109684563
0.0001008735564
9.752752661e-05
0.0001038200953
0.0001272954394
0.0001601232924
0.000191947122
0.0002196026206
0.0002420132682
0.0002531047201
0.0002516093476
0.0002337557
0.0001601222073
0.0001300300966
0.000146363696
0.000162719998
0.0001579218352
0.0001512641426
0.0001533395175
0.0001628104359
0.0001719757699
0.0001775015352
0.0001689152012
0.0001537082412
0.0001331697028
0.0001128169189
0.0001052370227
0.0001039948747
0.0001126970804
0.0001389339233
0.0001737565238
0.0002044273679
0.0002284366614
0.0002485181958
0.0002581031128
0.0002508362905
0.0002172680684
0.0001774998494
0.0001435296295
0.0001460147712
0.000164278875
0.0001602392865
0.0001601747906
0.0001717906703
0.0001873570146
0.0002005371458
0.0002078301084
0.0001954791168
0.0001745263466
0.0001484619472
0.0001217746107
0.0001097593987
0.0001061664425
0.0001067190679
0.0001169917864
0.0001407046788
0.0001713439972
0.0001994640955
0.0002184178104
0.0002252392781
0.0002094176489
0.0001614317768
0.0001403567098
0.0001524340312
0.000172159975
0.0001449281586
0.0001644175849
0.0001634495791
0.0001737084673
0.0001943282672
0.000216021913
0.0002351742313
0.0002474096422
0.0002320874709
0.0002049470201
0.0001729470093
0.0001393824113
0.0001159766592
0.0001086358907
0.0001073250593
0.0001107578958
0.0001218682445
0.000139930847
0.0001614019189
0.0001792936194
0.0001853855917
0.0001803984158
0.0001791395408
0.0001580422548
0.000181760018
0.0002067898803
8.306842845e-05
0.0001066668815
0.0001217723558
0.0001362734201
0.0001498529145
0.0001619901286
0.0001723812663
0.0001806516173
0.0001863027473
0.0001888175253
0.0001878003439
0.0001831816673
0.0001755567587
0.0001665735225
0.0001588383706
0.0001545022366
0.0001535354708
0.0001546974779
0.000157957898
0.0001651060567
0.0001792569359
0.0002022282453
0.0002223384951
0.0002213819351
0.0002432431172
0.0002690453088
8.336756865e-05
0.0001450012255
0.0001692493161
0.0001999719993
0.0002439339704
0.0003016482138
0.0003680844763
0.0004328300675
0.0004853629287
0.0005189308352
0.0005299947882
0.0005184029388
0.0004892438213
0.0004543219815
0.0004270276483
0.0004136721811
0.0004099229303
0.0004073228887
0.000404913577
0.0004185247631
0.0004931008205
0.0006786330278
0.0007861688456
0.0006068850414
0.0006253015152
0.0007889572714
8.220099535e-05
0.0001524712161
0.0001857956107
0.0002329072705
0.0003047799025
0.0004002621343
0.0005051965788
0.0006008278132
0.0006740229253
0.0007239783459
0.0007487161181
0.0007429059288
0.0007047147902
0.0006493825367
0.000596553004
0.0005621852538
0.0005461137147
0.000538196663
0.0005414524153
0.00061135111
0.0008937813568
0.001392449984
0.001555198448
0.001101546511
0.0009293483415
0.001177278659
8.193485128e-05
0.0001552755077
0.0001961966576
0.0002561532108
0.000348581499
0.0004663281214
0.0005810816953
0.0006786684526
0.0007635160307
0.0008271994642
0.000863674405
0.0008708023963
0.0008508439867
0.0007985778359
0.0007306066048
0.0006774519256
0.0006485028153
0.000636853995
0.0006518601142
0.000777427901
0.001178236011
0.001746482515
0.00185454649
0.001514780431
0.001207898648
0.001430286205
8.396632112e-05
0.0001582980628
0.0002037157961
0.0002711055248
0.0003740799583
0.0005007430567
0.0006149829565
0.0007211019328
0.0008156179051
0.0008890366091
0.0009355574251
0.0009523436806
0.0009389849015
0.0008942569137
0.0008216673196
0.0007588562296
0.0007224947896
0.0007095838477
0.0007259336248
0.0008282443698
0.001107564286
0.001526791813
0.001627564807
0.001462727762
0.001376975127
0.00155702523
8.626391641e-05
0.0001619195196
0.0002078314351
0.0002759440866
0.0003795168073
0.0005067922239
0.0006225114896
0.0007326832691
0.0008323575825
0.0009122356431
0.0009663255333
0.0009910734263
0.0009836873168
0.000936738419
0.0008617560732
0.0007960375802
0.0007545633085
0.0007364390528
0.0007550255151
0.0008302531456
0.0009252515382
0.001078973015
0.00115847687
0.001212334668
0.001384273587
0.001621340283
8.806992262e-05
0.0001669940602
0.0002103841773
0.0002727148548
0.0003672934215
0.0004878741074
0.0006065754048
0.0007163330423
0.0008179975472
0.0009015762279
0.0009607416691
0.000990303108
0.0009824004571
0.0009261126824
0.0008548251369
0.000796105206
0.0007645516366
0.000795800004
0.0009737266051
0.001182557529
0.001145199478
0.001024391689
0.001061663961
0.001196339896
0.001425279359
0.001672224506
8.982247595e-05
0.0001742709153
0.0002146795017
0.0002667657503
0.0003440819239
0.0004477021445
0.0005657090853
0.0006733047521
0.0007735242063
0.0008580264616
0.0009185482148
0.0009454480682
0.0009234481486
0.0008736789496
0.000824456558
0.0007983740803
0.0008361719162
0.001066103
0.001564469249
0.001939257816
0.001753869388
0.001268404967
0.001153881654
0.001283274042
0.001490642443
0.001711589877
9.171876229e-05
0.0001828827603
0.0002221344387
0.0002643153792
0.0003204830947
0.000395184809
0.0004892428963
0.000593987506
0.0006937977262
0.0007729476584
0.0008233197555
0.0008390478966
0.0008292829107
0.0008162248263
0.0008229755489
0.0008660362172
0.001001631578
0.001344984646
0.001936993188
0.002264083525
0.00210830621
0.001641102609
0.001336904482
0.001429045172
0.001598876935
0.001757094076
9.354753937e-05
0.0001899281246
0.0002293471323
0.0002666989648
0.0003086025414
0.0003568524243
0.0004156237837
0.0004858256176
0.0005613471386
0.0006300417603
0.0006815159551
0.0007159163284
0.0007505907243
0.0008125775345
0.0009088214758
0.001015549157
0.00115717874
0.001395687513
0.001775958281
0.00204808451
0.001991155361
0.001693677115
0.001505197657
0.001548303023
0.00168961932
0.001863605562
9.516814072e-05
0.0001930839805
0.0002312573186
0.0002673034382
0.0003060662389
0.0003441194293
0.0003827206198
0.0004255801082
0.0004739506726
0.0005243683785
0.0005741732406
0.0006326647865
0.0007224996639
0.0008463351242
0.0009802220721
0.001120818178
0.00126091351
0.001407781038
0.001553409587
0.001649039
0.001621733376
0.001550240129
0.001536399509
0.001624690175
0.001761443849
0.001919740154
9.691577511e-05
0.0001926419636
0.0002263594849
0.0002589418318
0.0002979947089
0.0003375002396
0.000373122452
0.0004058917173
0.0004393441626
0.0004762171022
0.0005238536039
0.0006020690673
0.000726154858
0.000867266727
0.001028327489
0.001186350389
0.001321761546
0.001430151106
0.001514976122
0.001559109824
0.001530233711
0.001540200832
0.001586017963
0.001688289813
0.001812485174
0.001949298984
9.927830091e-05
0.0001907367062
0.000220267842
0.0002501651105
0.0002918582633
0.0003384992287
0.000379036505
0.0004091018654
0.0004328476418
0.0004576115065
0.0004964917996
0.0005740479475
0.0006998401888
0.0008488814669
0.001022240964
0.001191266051
0.001332071873
0.00143567756
0.001506410836
0.001550235437
0.001568992701
0.001584597031
0.001641163521
0.001737966085
0.001850639488
0.001970051961
0.0001028760343
0.0001898909821
0.0002199665186
0.0002548226331
0.000309958516
0.0003758015279
0.0004313472479
0.0004663869781
0.0004839300606
0.0004933664325
0.0005100570705
0.0005566156829
0.0006579898149
0.0008114631847
0.0009822279236
0.001151996467
0.001298357461
0.001411429764
0.001494986729
0.001554216366
0.001591419697
0.001620288986
0.001677458368
0.00176628285
0.001866099687
0.001962293718
0.00010835081
0.0001921694577
0.0002288547762
0.0002778591595
0.0003580980658
0.0004498591869
0.0005222914658
0.0005755289083
0.0006037422781
0.0005936976931
0.0005647696485
0.0005595325941
0.0006130154976
0.0007385713537
0.0009125053287
0.001074512721
0.001217516585
0.001335554126
0.001429913432
0.001500974186
0.001545913037
0.001580267132
0.001638768043
0.001727121743
0.001822139664
0.001905075097
0.0001159539842
0.0001986096401
0.0002440969038
0.0003044289228
0.0003969227305
0.0004923877301
0.0005874283168
0.0006672657248
0.0007191638033
0.0007329451775
0.0006991158421
0.0006344142325
0.000625580288
0.0006992849541
0.0008341825749
0.0009865910322
0.001112119359
0.00122255696
0.001315568627
0.00138657776
0.001432345581
0.001469239121
0.001530015038
0.00162123126
0.001720207493
0.001806520826
0.0001249537841
0.0002095775932
0.00026246591
0.0003207395759
0.0004029363757
0.0004975284185
0.0006039344592
0.0007012507377
0.0007716706828
0.0008063230735
0.0007990413008
0.0007470915284
0.0006677438565
0.0006696281853
0.0007563232899
0.000884073597
0.00100464277
0.001101295147
0.001185276123
0.001250847452
0.001294608272
0.00133296633
0.001397818306
0.001495186845
0.001604191183
0.001702353245
0.0001335375853
0.0002260548963
0.0002878184744
0.000334905053
0.0003868316235
0.000454974473
0.0005516969001
0.0006630498383
0.0007486646987
0.0007959943593
0.0008033021684
0.0007721284327
0.0007093929159
0.0006618984095
0.0007107736651
0.0008082977123
0.0009120171005
0.0009914914385
0.001062011014
0.00111842426
0.001158356781
0.00119676081
0.001261419287
0.001360621064
0.001476430096
0.001584153695
0.0001394320619
0.0002460486973
0.0003245880556
0.0003683817036
0.0003942130214
0.0003949315247
0.0004266528553
0.0005441077105
0.0006501507749
0.0007101505607
0.0007302663992
0.0007222886018
0.0006877449223
0.0006481530918
0.0006833774729
0.0007531868753
0.0008277548305
0.0008909145388
0.000944758759
0.0009845374305
0.001010888009
0.00104897301
0.001111563435
0.001206623363
0.001319454205
0.001424512094
0.0001407873412
0.0002538224426
0.000344729421
0.0004037534334
0.0004364754564
0.000420085632
0.0003444392928
0.0003174365465
0.000408725173
0.0005210309652
0.0005882827367
0.0006187884046
0.0006136857933
0.0005968220987
0.0006388060382
0.0006918232453
0.0007417904121
0.0007826104713
0.0008093397273
0.0008208261058
0.0008251004594
0.0008485148509
0.000921482877
0.001019547864
0.001123128926
0.001217732712
0.0001377339067
0.0002358576326
0.000329968396
0.0004066096172
0.0004566165425
0.0004601580024
0.0003995181505
0.0002778390846
0.0002296040737
0.000283600164
0.0003827817306
0.0007498427109
0.0004865275528
0.0005093785239
0.0005598854588
0.000609260792
0.0006464683779
0.0006674575378
0.0006709805717
0.0006650285953
0.0006609250868
0.0006677042554
0.0006958714397
0.0007805412255
0.0008899251776
0.0009681636496
0.0001339237051
0.0002068787556
0.0002682392167
0.0003531096438
0.0004174069374
0.0004404413633
0.0004087071178
0.0003193932174
0.0002140467333
0.0001837357016
0.0002053813747
0.0002628129294
0.0002995894944
0.0003583891155
0.0004342469927
0.0004963075184
0.0005322470393
0.0005428450877
0.0005361703277
0.0005326148852
0.0005546420169
0.0005722287416
0.0005155492677
0.0005474736005
0.0006119618864
0.0006751961689
0.0001328758865
0.0001960843458
0.0002197135743
0.0002696343039
0.000332796676
0.0003658099356
0.0003648540488
0.0003228583481
0.0002633698105
0.00021239362
0.0001882696213
0.0001818423735
0.0001880401953
0.0002265058504
0.0002896576096
0.0003501282698
0.0003878736174
0.0004012495582
0.0003977176881
0.0003898674146
0.0003909821658
0.0003928735352
0.0003663943553
0.0003835561802
0.0004065823594
0.0004334759616
0.000134400113
0.0002087504034
0.0002141207374
0.0002380437698
0.0002814524487
0.0003199473041
0.0003466676097
0.0003444077881
0.0003128134344
0.0002653370193
0.0002222389822
0.0001931540615
0.0001726452038
0.0001613634227
0.0001871604287
0.0002237795924
0.0002499299635
0.0002653678345
0.0002738369925
0.0002783000009
0.000284813538
0.0003063027621
0.0003273142779
0.0002829371764
0.0002807717817
0.0002896782387
0.0001366918177
0.0002383012943
0.0002349282998
0.0002374220371
0.0002677281509
0.0003196818011
0.000371565211
0.0003863683585
0.0003578914367
0.0002943399002
0.0002304118395
0.0001960496266
0.0001728582719
0.0001514803972
0.0001444732544
0.0001598392636
0.0001777917563
0.0001975863877
0.0002213307226
0.0002493584676
0.0002934240312
0.000398908899
0.0004871531233
0.0002502068637
0.0001977468368
0.0001392461614
0.0002823295703
0.0002775242045
0.0002502926938
0.0002396238848
0.0002803384923
0.0003402592053
0.0003639878742
0.0003327110809
0.0002617297095
0.0001952526687
0.0001698242097
0.0001551520835
0.0001419612487
0.0001309570679
0.0001352969649
0.0001633815142
0.0002230915022
0.00031349213
0.0004117976137
0.0005303886885
0.0007212681234
0.000686751528
0.0002948431721
0.0001803402974
0.0001414474657
0.0003290628483
0.0003109730841
0.0002483996684
0.0002180536603
0.0002264333152
0.0002577503614
0.0002807897567
0.000257768997
0.0002102077463
0.0001749746652
0.0001624162462
0.0001527719943
0.0001399749758
0.0001298035844
0.0001406658369
0.0001904668819
0.0002930516027
0.0004227293096
0.0005358733275
0.0005913450085
0.0005935506073
0.0004633381702
0.0002184213071
0.0001938381013
0.0001431332093
0.000363874262
0.0003627230949
0.0002928244008
0.000258876081
0.0002621081813
0.000274968882
0.0002769203026
0.0002545419819
0.0002212321787
0.0001953880477
0.0001862250445
0.0001781442437
0.000161230047
0.0001448659203
0.0001512533175
0.0001994126705
0.0003113095915
0.0004421480222
0.0005452416116
0.0005740433331
0.0005233513312
0.0003713898208
0.0002104354936
0.0002001958512
0.0001441890443
0.0003865916492
0.0003974824143
0.0003393674431
0.000323737577
0.0003519267304
0.0003810034319
0.0003757763285
0.0003335994847
0.0002706521906
0.0002290619958
0.0002158299314
0.0002078805885
0.0001883231997
0.000163649485
0.0001539183488
0.0001742227229
0.0002345837199
0.0003385187377
0.0004315981827
0.0004503218237
0.0003868302033
0.0002651998144
0.0001846608275
0.0001643284791
0.0002073944753
0.0001445696734
0.0004023547207
0.0004144442162
0.0003807216928
0.0004040010299
0.0004692008091
0.0005135271154
0.0005003379808
0.0004404085869
0.0003429497738
0.0002609141509
0.000227779207
0.000214317784
0.0001952039771
0.0001708778445
0.0001551107245
0.0001598676407
0.0001874222198
0.0002338990518
0.0002882207078
0.0003276677339
0.0003344865962
0.0002909899287
0.0002259469372
0.0002254047298
0.0003535296275
8.371254874e-05
0.0001053883793
0.0001180726041
0.0001307643468
0.0001435403086
0.0001559307242
0.0001674291323
0.0001773534082
0.0001848570903
0.0001891645824
0.0001898444304
0.000187023849
0.0001815785703
0.0001751986878
0.0001699475332
0.0001671396692
0.0001665885139
0.000167520379
0.0001701037047
0.0001760819279
0.0001885405894
0.0002081521066
0.0002225182412
0.0002220804678
0.0002382053554
0.0002633035796
8.442028643e-05
0.0001582655709
0.0001842520408
0.0002158504995
0.0002664962813
0.0003390031502
0.0004287336253
0.0005228204717
0.0006061222523
0.0006674932892
0.0007018207059
0.0007097862102
0.0006975107712
0.0006757527194
0.000656590057
0.0006469949074
0.0006450983614
0.0006453411842
0.0006483732595
0.0006748692953
0.0007849833944
0.0009972134508
0.001084975861
0.0009759476228
0.0009643757701
0.001144709889
8.261284031e-05
0.0001690318268
0.0002047456192
0.0002549068189
0.0003375293164
0.0004545646936
0.0005934449214
0.0007325256027
0.0008527734985
0.0009434098317
0.0009996845115
0.001021509989
0.001013331026
0.0009855100117
0.0009534298505
0.0009307500607
0.000920410234
0.0009150782895
0.0009180085564
0.0010106034
0.001359325524
0.001835478709
0.001956843391
0.001731661587
0.001538435158
0.001711794742
8.120803153e-05
0.0001715207028
0.0002166398277
0.0002812675095
0.0003863231738
0.0005298520915
0.0006922523173
0.0008497252685
0.0009844623173
0.001090628337
0.001165033864
0.0012066981
0.001215128324
0.001196009692
0.001162941682
0.001133277885
0.00111564792
0.001103173904
0.001110140804
0.001276488172
0.001751081724
0.00224547691
0.002369889633
0.00220696147
0.001971868943
0.002077700234
8.336047837e-05
0.0001761200118
0.0002278845499
0.0003017886602
0.000418522082
0.0005729612204
0.0007428989432
0.0009046904252
0.001046875825
0.001164818737
0.00125213162
0.001307140392
0.001331978128
0.001328338258
0.001302592107
0.001273793587
0.001253649768
0.001237074444
0.001239053131
0.001377659812
0.001758201877
0.002163283183
0.002282396146
0.00219483756
0.002135607004
0.002243248922
8.687597819e-05
0.0001850385616
0.0002400162705
0.0003173322304
0.0004360348071
0.0005905626803
0.0007599669072
0.0009219233915
0.001067869652
0.001192421331
0.001289003316
0.001355380618
0.001392401044
0.001400396893
0.001382713721
0.001356662596
0.001330532832
0.001298069432
0.001286715543
0.0013830327
0.001603157506
0.001898219171
0.001982226104
0.002052279069
0.002144464597
0.002306004499
8.996384591e-05
0.000198234591
0.0002552754628
0.0003304560923
0.0004424641283
0.0005882883114
0.0007513933848
0.0009116546445
0.001057160685
0.001184449538
0.001287202811
0.001362577438
0.001409397379
0.001423944123
0.001411913447
0.001383582397
0.001336069417
0.001298485481
0.001399573473
0.001601210716
0.001666106296
0.001757300367
0.001871400081
0.001982220326
0.002141063242
0.002348185023
9.280270945e-05
0.000214425118
0.0002745583119
0.0003441549495
0.0004424329519
0.0005711770476
0.0007212366683
0.0008760265734
0.001020124923
0.001147323947
0.001253604664
0.001334657157
0.001385571743
0.001404589894
0.001399145667
0.001372169856
0.001348226852
0.001482651701
0.001894932973
0.002228076917
0.002206669069
0.001993538959
0.001902634774
0.002011176026
0.002185691383
0.002400290844
9.537873371e-05
0.0002307019143
0.0002948901174
0.000359274994
0.0004412488162
0.0005460877591
0.0006732029132
0.0008134520853
0.000952966665
0.001079637825
0.001185805938
0.001266856075
0.001321554023
0.00135381158
0.001370784648
0.001385039081
0.001457807164
0.001735688645
0.002230921196
0.00251989704
0.002542897148
0.002301974292
0.002052604018
0.002116508199
0.002258420066
0.002471266681
9.751633087e-05
0.000243350385
0.0003106007678
0.0003730957016
0.0004446337743
0.0005277513744
0.0006255819273
0.0007377173418
0.0008575737102
0.0009743282653
0.001078125857
0.001164052994
0.001233967329
0.001295668663
0.001357764256
0.001426919885
0.001541072718
0.001785211095
0.002172935498
0.002445859941
0.00244760972
0.002267840276
0.002147037048
0.002195060241
0.002327411021
0.002568428256
9.916571568e-05
0.0002505017625
0.0003177686344
0.0003795443722
0.0004494205647
0.0005245035005
0.0006036823988
0.0006889459958
0.0007813843863
0.0008774290874
0.0009706928855
0.001058223218
0.001144897331
0.00123823172
0.001341713401
0.001472278561
0.001633983041
0.001833374055
0.002070018574
0.00224899018
0.002236796204
0.002210286809
0.002207323323
0.002232185337
0.002352348943
0.002548166214
0.0001005780197
0.0002526462462
0.0003157400848
0.0003728169872
0.0004418585996
0.0005186191863
0.0005957111133
0.0006705803045
0.0007452215089
0.0008205694676
0.0008958344934
0.0009748095439
0.001066742107
0.00117536043
0.001310494335
0.001470803786
0.001637080597
0.001803940195
0.001968787219
0.002094413222
0.00213493099
0.002181958464
0.002197323548
0.002243292302
0.002355731951