/*--------------------------------*- C++ -*----------------------------------*\
  =========                 |
  \\      /  F ield         | OpenFOAM: The Open Source CFD Toolbox
   \\    /   O peration     | Website:  https://openfoam.org
    \\  /    A nd           | Version:  8
     \\/     M anipulation  |
\*---------------------------------------------------------------------------*/
FoamFile
{
    version     2.0;
    format      ascii;
    class       volScalarField;
    location    "1.1";
    object      O2;
}
// * * * * * * * * * * * * * * * * * * * * * * * * * * * * * * * * * * * * * //

dimensions      [0 0 0 0 0 0 0];

internalField   nonuniform List<scalar> 
67410
(
0.2100040591
0.2100037016
0.2100034171
0.2100031731
0.2100029776
0.210002824
0.2100026951
0.2100025788
0.2100024731
0.2100023841
0.2100023235
0.2100023056
0.2100023414
0.2100024276
0.2100025391
0.2100026413
0.2100027116
0.2100027371
0.2100027007
0.2100025967
0.2100024489
0.2100022013
0.2100015393
0.2100012527
0.2100008454
0.2100004159
0.2100040333
0.210003543
0.2100031856
0.2100029359
0.2100027719
0.2100026521
0.2100025439
0.2100024324
0.2100023164
0.2100022034
0.2100021065
0.210002041
0.2100020176
0.2100020326
0.2100020652
0.2100020889
0.2100020819
0.2100020249
0.210001914
0.2100017959
0.2100017242
0.2100013406
0.2099997842
0.2100004339
0.2100000073
0.2099996316
0.210003955
0.2100034076
0.2100030307
0.2100028004
0.2100026637
0.2100025617
0.2100024593
0.2100023422
0.2100022114
0.2100020745
0.2100019472
0.2100018477
0.2100017896
0.2100017642
0.2100017454
0.2100017056
0.2100016346
0.2100015341
0.2100014356
0.2100013993
0.2100011902
0.2099998608
0.2099970976
0.21000005
0.2099995059
0.2099992166
0.210003807
0.2100033027
0.2100029339
0.210002719
0.210002595
0.2100024994
0.2100023989
0.2100022749
0.2100021261
0.2100019678
0.2100018199
0.2100017016
0.2100016243
0.2100015773
0.2100015269
0.2100014402
0.2100013193
0.2100011847
0.210001058
0.2100008795
0.2100002242
0.2099983898
0.2099959915
0.209999542
0.209999053
0.209998939
0.2100036574
0.210003227
0.2100028734
0.2100026611
0.2100025338
0.2100024322
0.2100023245
0.210002186
0.2100020221
0.2100018496
0.2100016899
0.2100015639
0.2100014819
0.2100014272
0.2100013571
0.2100012411
0.2100010971
0.2100009608
0.2100008408
0.2100006211
0.2100002074
0.2099998886
0.2099993629
0.2099994338
0.2099990979
0.209998803
0.2100035488
0.2100031816
0.2100028429
0.2100026215
0.210002479
0.2100023633
0.2100022429
0.2100020935
0.2100019209
0.2100017426
0.2100015808
0.2100014559
0.2100013743
0.2100013108
0.2100012225
0.210001104
0.210001016
0.2100010504
0.2100011656
0.2100007944
0.210000172
0.209999885
0.2099994077
0.2099993398
0.2099990465
0.2099987867
0.2100034715
0.2100031648
0.2100028439
0.2100026074
0.2100024417
0.2100023053
0.2100021691
0.2100020131
0.2100018388
0.2100016634
0.2100015082
0.2100013892
0.2100013003
0.2100012097
0.2100010939
0.2100010056
0.2100010925
0.210001463
0.2100015081
0.2099999606
0.2100001594
0.2099999615
0.2099995923
0.2099993618
0.209999131
0.2099989291
0.2100034243
0.2100031651
0.2100028712
0.2100026261
0.2100024355
0.2100022742
0.2100021193
0.2100019599
0.2100017906
0.2100016246
0.2100014778
0.2100013513
0.2100012258
0.2100010766
0.2100009369
0.210000941
0.2100012832
0.2100015922
0.210000135
0.2099965071
0.2099996345
0.2099998814
0.2099995634
0.2099993638
0.2099992277
0.2099991463
0.2100034132
0.2100031665
0.2100028934
0.210002656
0.2100024546
0.2100022735
0.2100021008
0.2100019328
0.2100017693
0.21000161
0.2100014511
0.2100012795
0.2100010783
0.2100008567
0.2100006808
0.2100006745
0.2100008418
0.2100003107
0.2099974593
0.2099935803
0.2099983999
0.2099994216
0.2099994148
0.2099992699
0.2099992223
0.20999926
0.2100034404
0.2100031709
0.2100028862
0.2100026496
0.2100024535
0.2100022743
0.210002095
0.2100019115
0.2100017262
0.2100015377
0.2100013354
0.2100011035
0.2100008336
0.2100005386
0.2100002498
0.2100000169
0.209999928
0.2100000894
0.2100002705
0.2099997808
0.2099993279
0.2099996357
0.209999343
0.2099991777
0.2099991448
0.2099992261
0.2100034969
0.2100031969
0.2100028839
0.2100026229
0.2100024115
0.2100022274
0.2100020488
0.2100018616
0.2100016579
0.2100014351
0.2100011913
0.2100009222
0.2100006333
0.2100003479
0.210000088
0.2099998698
0.2099997581
0.2099998075
0.209999884
0.2099997411
0.2099997396
0.209999546
0.2099992925
0.2099991238
0.209999061
0.2099991071
0.2100035547
0.2100032317
0.2100028942
0.2100025966
0.2100023485
0.2100021404
0.2100019546
0.2100017704
0.2100015668
0.2100013319
0.210001066
0.2100007785
0.2100004929
0.2100002335
0.2099999839
0.2099997549
0.209999593
0.2099995644
0.2099996888
0.2099998071
0.2099997332
0.2099995305
0.2099993199
0.2099991606
0.2099990802
0.2099991184
0.2100035925
0.210003256
0.2100028941
0.2100025513
0.2100022644
0.210002045
0.2100018735
0.2100017127
0.2100015246
0.2100012851
0.2100010025
0.2100007172
0.2100004737
0.2100002777
0.2100000881
0.2099999071
0.2099997715
0.2099997215
0.2099997575
0.2099997882
0.209999749
0.2099996043
0.2099994353
0.2099992813
0.2099991787
0.2099991756
0.2100036059
0.2100032605
0.2100028677
0.2100024835
0.2100021797
0.2100019794
0.2100018451
0.2100017196
0.2100015629
0.2100013574
0.2100011181
0.2100008882
0.2100007031
0.2100005631
0.2100004353
0.2100002924
0.2100001551
0.2100000665
0.2100000478
0.2100000541
0.2099999938
0.2099998296
0.2099996377
0.2099994669
0.2099993333
0.2099992498
0.2100035926
0.2100032527
0.2100028506
0.2100024617
0.2100021789
0.2100020241
0.2100019338
0.2100018322
0.2100016841
0.2100014793
0.2100012307
0.2100009852
0.2100007936
0.2100006528
0.2100005285
0.2100004125
0.2100003073
0.2100002357
0.2100002054
0.2100001667
0.2100000568
0.2099999015
0.2099997512
0.2099996049
0.209999451
0.2099993102
0.2100035389
0.2100032502
0.2100028973
0.2100025489
0.2100023002
0.2100021843
0.2100021171
0.2100020367
0.2100019069
0.2100017099
0.2100014501
0.2100011767
0.2100009508
0.2100008122
0.2100007004
0.2100005954
0.2100005084
0.2100004425
0.2100003923
0.2100003205
0.2100002027
0.2100000806
0.209999962
0.2099998144
0.2099996262
0.2099994268
0.2100034332
0.2100032621
0.2100030259
0.2100027516
0.2100025127
0.2100023763
0.210002307
0.2100022483
0.2100021536
0.2100020048
0.2100017946
0.2100015203
0.2100012297
0.2100010159
0.2100008833
0.2100007854
0.2100007092
0.2100006446
0.2100005727
0.2100004673
0.2100003317
0.2100002159
0.2100001206
0.2100000035
0.2099998601
0.2099997423
0.2100032945
0.2100032843
0.2100032127
0.2100030613
0.2100028394
0.2100026198
0.2100024819
0.210002431
0.2100023743
0.2100022817
0.2100021419
0.2100019254
0.2100015525
0.2100012807
0.2100011287
0.2100010075
0.2100009129
0.2100008356
0.2100007439
0.2100006165
0.2100004682
0.2100003573
0.2100002906
0.2100002126
0.2100000989
0.2099999793
0.2100031695
0.2100033074
0.2100033833
0.2100033824
0.21000327
0.2100030391
0.2100026692
0.2100023796
0.2100023683
0.2100023766
0.2100023941
0.2100024136
0.2100018495
0.210001611
0.2100014709
0.2100013224
0.2100011724
0.2100010372
0.2100009049
0.2100007564
0.2100005956
0.2100004759
0.2100004356
0.2100004119
0.2100003574
0.2100002842
0.210003102
0.2100033374
0.210003479
0.2100035313
0.2100034977
0.2100034267
0.2100032545
0.2100027882
0.2100023303
0.2100022208
0.2100021647
0.2100021569
0.2100019035
0.2100018719
0.2100018135
0.2100016969
0.2100015143
0.2100012986
0.2100010917
0.2100009071
0.2100007319
0.2100005868
0.2100005351
0.21000054
0.2100005423
0.2100005296
0.2100031065
0.2100034001
0.2100035439
0.2100035999
0.2100035729
0.2100035358
0.2100035237
0.2100035225
0.2100032133
0.2100029387
0.2100032417
0.2100053742
0.2100021434
0.2100023472
0.2100021391
0.210002031
0.210001867
0.2100016188
0.2100013356
0.210001089
0.2100008969
0.2100007232
0.210000639
0.21000062
0.2100006331
0.2100006255
0.2100031341
0.2100034694
0.2100035864
0.2100035832
0.2100035503
0.2100035215
0.2100035195
0.2100035797
0.2100036703
0.210003473
0.2100030185
0.2100026901
0.2100021312
0.2100021461
0.2100021778
0.2100021916
0.2100021176
0.2100019212
0.2100016225
0.2100013162
0.2100010832
0.2100008702
0.2100008351
0.2100007608
0.2100007535
0.2100007412
0.2100030918
0.2100033993
0.2100034571
0.2100034126
0.2100034092
0.2100034799
0.2100035441
0.2100036372
0.2100037356
0.2100038868
0.2100041471
0.2100040693
0.2100030355
0.2100024065
0.2100022507
0.2100022692
0.2100022656
0.2100021594
0.210001931
0.2100016454
0.2100014486
0.2100013709
0.210001219
0.2100011316
0.2100010912
0.2100010804
0.2100029997
0.2100032492
0.210003308
0.2100033076
0.2100033739
0.2100034881
0.2100035604
0.2100036206
0.21000371
0.2100037576
0.2100038681
0.2100041157
0.2100041848
0.2100034041
0.2100025613
0.2100024096
0.2100024561
0.2100024651
0.2100023689
0.2100021956
0.2100021028
0.2100023006
0.2100023016
0.2100019085
0.210001903
0.2100019545
0.2100029502
0.2100031643
0.2100032862
0.2100033136
0.2100034311
0.2100034721
0.2100035285
0.2100035703
0.2100036687
0.2100038023
0.2100038869
0.2100040747
0.2100043447
0.2100043714
0.210003475
0.2100029969
0.2100032015
0.2100036012
0.2100039351
0.2100040348
0.2100039164
0.2100035684
0.2100024528
0.2100030085
0.2100034363
0.2100029564
0.2100031161
0.2100032633
0.2100032069
0.2100033685
0.2100034022
0.2100035361
0.2100036226
0.2100037411
0.2100038922
0.2100040324
0.2100041834
0.2100043726
0.2100046097
0.210004495
0.2100040427
0.2100041852
0.2100045166
0.2100046922
0.2100047635
0.2100048221
0.2100051483
0.2100038526
0.2100045274
0.2100050789
0.2100029819
0.2100031211
0.2100032323
0.2100034235
0.2100036116
0.2100035777
0.210003442
0.2100034428
0.2100036582
0.2100039921
0.2100042818
0.210004501
0.2100046008
0.2100047241
0.2100047912
0.2100047222
0.2100047176
0.2100047896
0.2100048431
0.2100048949
0.2100049397
0.2100050307
0.2100045666
0.2100051796
0.2100055125
0.2100029184
0.210003065
0.2100032225
0.2100034715
0.210003772
0.2100038831
0.2100038565
0.2100037961
0.210003894
0.2100040836
0.2100043352
0.2100045819
0.2100047084
0.2100048548
0.2100049986
0.210005056
0.2100050604
0.2100050777
0.2100051251
0.2100051776
0.2100052273
0.2100052855
0.2100050862
0.2100054183
0.2100056899
0.2100028423
0.2100030298
0.21000327
0.2100035686
0.2100037718
0.210003845
0.2100038338
0.2100038174
0.2100038974
0.2100040592
0.2100042973
0.2100045989
0.2100047964
0.2100049721
0.2100051515
0.2100052919
0.2100053626
0.2100053693
0.2100053315
0.210005325
0.2100053627
0.210005509
0.2100057356
0.210005769
0.2100057488
0.2100057568
0.2100027898
0.2100030411
0.2100033844
0.2100036654
0.2100037736
0.21000378
0.2100037418
0.2100037192
0.2100037998
0.2100039501
0.2100041622
0.2100044899
0.2100048203
0.2100050542
0.2100052296
0.2100053674
0.2100054614
0.2100055345
0.2100055554
0.210005525
0.2100055106
0.2100055564
0.2100055611
0.210005626
0.2100056628
0.210005649
0.2100041247
0.2100038136
0.2100035804
0.2100033679
0.2100031889
0.2100030517
0.2100029465
0.2100028582
0.2100027789
0.2100027096
0.2100026576
0.2100026318
0.2100026376
0.210002672
0.2100027227
0.210002772
0.2100028036
0.2100027987
0.2100027321
0.2100025849
0.2100023588
0.2100020775
0.2100018027
0.2100016153
0.2100013352
0.2100010194
0.2100041428
0.2100037309
0.2100034322
0.2100032106
0.210003065
0.2100029721
0.2100028959
0.2100028113
0.2100027104
0.2100025993
0.2100024897
0.2100023931
0.2100023161
0.2100022603
0.2100022211
0.2100021875
0.2100021406
0.2100020517
0.2100018869
0.2100016269
0.2100013104
0.2100009785
0.2100007795
0.2100007192
0.2100004888
0.2100002623
0.2100041142
0.2100036534
0.2100033263
0.2100031129
0.2100029958
0.2100029236
0.2100028453
0.2100027369
0.2100025975
0.2100024416
0.2100022862
0.2100021448
0.2100020226
0.2100019205
0.2100018298
0.2100017382
0.2100016297
0.2100014781
0.2100012501
0.2100009477
0.2100006372
0.2100003312
0.21000035
0.2100001595
0.2100000132
0.2099998094
0.2100039946
0.2100035798
0.2100032543
0.2100030474
0.2100029388
0.2100028635
0.2100027642
0.2100026271
0.2100024598
0.21000227
0.2100020778
0.2100019029
0.210001757
0.2100016338
0.2100015165
0.2100013884
0.2100012356
0.2100010429
0.2100007976
0.2100005447
0.2100003886
0.2100002493
0.2100006296
0.2099998312
0.2099996859
0.2099994834
0.2100038162
0.2100035101
0.2100032077
0.2100030017
0.2100028827
0.2100027881
0.2100026641
0.2100025099
0.2100023198
0.2100021043
0.2100018872
0.2100016906
0.2100015261
0.2100013901
0.2100012581
0.2100011085
0.2100009301
0.2100007232
0.2100004927
0.2100002559
0.2100000252
0.2099997452
0.2099996827
0.2099995512
0.2099994484
0.209999257
0.2100036792
0.2100034512
0.2100031791
0.2100029691
0.2100028276
0.2100027052
0.2100025565
0.2100023831
0.2100021766
0.2100019474
0.2100017185
0.2100015119
0.210001338
0.2100011918
0.2100010445
0.2100008714
0.2100006618
0.2100004241
0.210000189
0.2100000146
0.2099999453
0.209999861
0.2099996466
0.2099995178
0.2099993444
0.2099991646
0.2100035838
0.2100034056
0.2100031627
0.2100029455
0.2100027748
0.2100026212
0.2100024492
0.2100022554
0.2100020395
0.2100018075
0.2100015786
0.2100013713
0.2100011929
0.2100010309
0.2100008564
0.2100006458
0.21000039
0.210000127
0.2099998711
0.2099997727
0.2099996135
0.2099998164
0.2099996164
0.2099994672
0.2099993138
0.2099991665
0.2100035254
0.210003371
0.2100031509
0.2100029281
0.2100027289
0.2100025444
0.2100023531
0.2100021429
0.2100019214
0.2100016935
0.2100014711
0.2100012661
0.2100010767
0.210000887
0.2100006795
0.2100004378
0.2100001754
0.2099999675
0.2099997842
0.2099997576
0.2099991314
0.209999747
0.2099996005
0.2099994637
0.2099993334
0.2099992185
0.2100035103
0.2100033499
0.2100031357
0.2100029113
0.2100026926
0.2100024819
0.2100022717
0.2100020555
0.2100018332
0.2100016094
0.2100013896
0.2100011746
0.2100009587
0.2100007373
0.2100005082
0.2100002707
0.2100001204
0.2100001739
0.210000332
0.2100006704
0.2099992228
0.2099995843
0.2099995513
0.209999469
0.2099993739
0.2099993198
0.2100035382
0.2100033491
0.2100031177
0.2100028879
0.210002664
0.2100024425
0.2100022193
0.2100019933
0.2100017655
0.2100015363
0.2100013042
0.2100010682
0.2100008355
0.2100006223
0.2100004359
0.2100002832
0.2100001835
0.2100000904
0.2099998592
0.2099995676
0.2099993053
0.2099995902
0.2099995665
0.2099994645
0.2099994225
0.2099995359
0.2100035976
0.2100033736
0.210003113
0.2100028646
0.210002633
0.2100024095
0.2100021848
0.2100019544
0.2100017168
0.2100014717
0.2100012204
0.2100009741
0.2100007556
0.2100005716
0.210000396
0.2100002482
0.2100001578
0.2100001349
0.210000097
0.2099999447
0.2099997332
0.2099997523
0.2099995932
0.2099994426
0.2099993442
0.2099992752
0.2100036634
0.2100034098
0.2100031207
0.210002844
0.2100025943
0.2100023653
0.2100021427
0.2100019161
0.2100016792
0.2100014285
0.2100011706
0.2100009307
0.2100007317
0.2100005592
0.2100004045
0.2100002713
0.2100001715
0.2100001173
0.2100000824
0.2099999991
0.2099998502
0.2099997653
0.2099996036
0.2099994553
0.2099993412
0.2099992451
0.2100037137
0.2100034433
0.2100031343
0.2100028293
0.2100025598
0.2100023305
0.2100021204
0.210001909
0.2100016841
0.2100014398
0.2100011868
0.2100009606
0.2100007836
0.2100006404
0.2100005217
0.2100004138
0.2100003155
0.2100002338
0.2100001591
0.2100000591
0.2099999298
0.2099998157
0.2099996645
0.209999515
0.2099993786
0.2099992538
0.2100037409
0.2100034716
0.2100031568
0.2100028382
0.2100025651
0.2100023501
0.2100021627
0.2100019738
0.2100017669
0.2100015357
0.2100012874
0.2100010495
0.2100008563
0.2100007231
0.2100006323
0.2100005544
0.2100004709
0.2100003821
0.2100002892
0.2100001862
0.2100000686
0.2099999401
0.2099997639
0.2099995855
0.2099994232
0.2099992879
0.2100037438
0.2100035032
0.2100032093
0.2100029129
0.2100026645
0.2100024682
0.2100023002
0.2100021401
0.2100019552
0.210001726
0.2100014617
0.2100012005
0.2100009897
0.2100008542
0.2100007768
0.2100007147
0.2100006456
0.2100005678
0.2100004813
0.2100003812
0.2100002681
0.2100001406
0.2099999538
0.2099997618
0.2099995698
0.2099994061
0.210003708
0.210003545
0.2100033083
0.2100030597
0.2100028389
0.2100026446
0.2100025112
0.2100023918
0.2100022379
0.2100020255
0.210001757
0.2100014611
0.2100012113
0.2100010617
0.2100009875
0.2100009477
0.2100008985
0.210000825
0.2100007305
0.2100006184
0.2100004927
0.2100003569
0.2100001868
0.2100000091
0.2099998202
0.2099996431
0.210003612
0.2100035952
0.2100034483
0.21000325
0.2100030519
0.2100028708
0.2100027439
0.2100026425
0.2100025248
0.2100023614
0.2100021374
0.2100018552
0.2100015314
0.2100013209
0.2100012291
0.21000119
0.2100011548
0.2100010878
0.2100009878
0.2100008595
0.2100007145
0.2100005665
0.2100004212
0.2100002793
0.2100001211
0.2099999419
0.2100034654
0.2100036491
0.2100036231
0.2100034719
0.2100032894
0.2100031047
0.2100029387
0.2100028169
0.2100027168
0.2100026065
0.2100024558
0.2100022417
0.210001861
0.2100016065
0.2100015071
0.2100014669
0.2100014263
0.2100013474
0.2100012317
0.2100010856
0.2100009235
0.210000766
0.2100006413
0.2100005454
0.2100004473
0.2100003358
0.2100033195
0.2100036856
0.210003795
0.210003684
0.2100035223
0.2100033171
0.2100030709
0.2100028686
0.2100027625
0.210002735
0.2100027262
0.2100027478
0.2100021398
0.2100019215
0.2100018309
0.2100017931
0.2100017294
0.2100016112
0.2100014504
0.2100012653
0.2100010741
0.2100009095
0.2100007984
0.2100007435
0.2100007029
0.210000649
0.2100032198
0.2100036681
0.2100038732
0.2100038014
0.2100036758
0.2100035526
0.2100033748
0.2100030167
0.2100026762
0.2100025894
0.2100026663
0.2100032392
0.210002225
0.2100021252
0.2100021028
0.2100021054
0.2100020358
0.2100018727
0.2100016492
0.2100014119
0.2100011891
0.2100010029
0.2100008882
0.2100008535
0.2100008506
0.2100008305
0.210003186
0.2100036246
0.2100039073
0.2100038969
0.2100037866
0.2100036899
0.2100036716
0.210003654
0.2100034503
0.2100034161
0.2100042009
0.2100060414
0.2100023255
0.2100027119
0.2100023439
0.2100023505
0.2100022863
0.2100021084
0.2100018452
0.210001566
0.2100013225
0.2100011203
0.2100009911
0.2100009455
0.210000954
0.2100009338
0.2100032013
0.2100035777
0.2100038727
0.2100039963
0.2100039394
0.2100038262
0.2100037786
0.2100038266
0.2100037743
0.2100035605
0.2100031454
0.210002782
0.2100022203
0.2100022792
0.210002348
0.2100024364
0.2100024263
0.210002281
0.2100020241
0.210001737
0.2100015252
0.210001429
0.2100012005
0.2100011296
0.2100011384
0.2100011403
0.2100032145
0.2100034923
0.2100037195
0.2100039244
0.2100040337
0.2100039783
0.2100039175
0.210003961
0.2100040502
0.2100040985
0.2100041552
0.2100040939
0.2100032017
0.2100026711
0.2100024719
0.2100025
0.2100025175
0.2100024249
0.21000222
0.2100019621
0.2100017702
0.2100017383
0.210001588
0.2100015442
0.2100015572
0.2100015712
0.2100032302
0.2100034021
0.2100035506
0.2100037886
0.2100039716
0.2100039867
0.2100039172
0.2100038885
0.2100039344
0.2100040315
0.2100041236
0.2100041959
0.2100041383
0.2100036433
0.21000287
0.2100026808
0.2100027229
0.2100027101
0.2100025876
0.210002396
0.210002235
0.2100022668
0.2100022838
0.2100022923
0.2100023511
0.2100024139
0.2100032917
0.2100033927
0.2100034556
0.2100036949
0.2100038485
0.2100039178
0.2100038431
0.2100038077
0.210003876
0.2100040521
0.2100042727
0.2100043931
0.2100044716
0.2100043795
0.2100037641
0.2100032592
0.2100033451
0.2100035453
0.2100036332
0.2100035547
0.2100033677
0.2100034033
0.2100035471
0.2100033285
0.2100035911
0.2100033768
0.2100034632
0.2100034372
0.2100036116
0.2100036905
0.2100038894
0.2100038973
0.210003935
0.2100040212
0.2100041582
0.2100043184
0.210004424
0.2100045379
0.2100046526
0.2100045261
0.2100041064
0.2100040363
0.2100042537
0.2100044272
0.2100045091
0.2100045404
0.2100049404
0.2100043019
0.2100044018
0.2100047223
0.210003423
0.2100035725
0.2100035398
0.2100036209
0.2100037631
0.2100038448
0.2100038903
0.2100039626
0.2100040628
0.2100041941
0.2100043802
0.2100045141
0.2100046046
0.2100047244
0.2100047858
0.2100046896
0.210004578
0.2100046333
0.2100048218
0.210005017
0.2100051501
0.2100053355
0.2100049306
0.2100050649
0.2100053118
0.210003276
0.2100034318
0.210003511
0.2100036275
0.2100037794
0.2100038858
0.2100039022
0.2100039132
0.2100040221
0.2100042095
0.2100044296
0.210004592
0.2100047065
0.2100048408
0.2100049685
0.2100050377
0.2100050767
0.210005166
0.210005297
0.2100054829
0.2100056531
0.2100056686
0.2100054135
0.210005591
0.2100055611
0.2100031537
0.2100033361
0.2100034853
0.2100036265
0.2100037379
0.2100037987
0.210003817
0.210003865
0.2100040046
0.2100042193
0.2100044518
0.2100046667
0.2100048365
0.2100049934
0.2100051366
0.2100052559
0.2100053441
0.2100054338
0.2100055466
0.2100056727
0.2100058032
0.2100059824
0.210005807
0.2100057956
0.2100057374
0.2100057307
0.2100030693
0.2100032807
0.2100034705
0.210003617
0.2100036776
0.2100036729
0.2100036671
0.2100037387
0.2100039173
0.2100041586
0.2100044107
0.2100046778
0.2100049122
0.2100050947
0.2100052314
0.2100053425
0.2100054242
0.2100055067
0.2100055928
0.2100056674
0.2100057183
0.2100057267
0.2100056523
0.2100056176
0.2100056185
0.2100056806
0.210004185
0.2100039077
0.2100037244
0.2100035501
0.2100033891
0.2100032588
0.2100031607
0.210003084
0.2100030177
0.2100029579
0.2100029075
0.2100028714
0.210002853
0.2100028509
0.2100028588
0.2100028678
0.2100028672
0.2100028439
0.210002782
0.2100026705
0.2100025068
0.210002293
0.2100020708
0.2100018921
0.2100016521
0.2100013857
0.2100042301
0.2100038758
0.2100036366
0.2100034479
0.2100033068
0.2100032055
0.2100031217
0.2100030324
0.2100029264
0.2100028056
0.2100026799
0.2100025606
0.2100024562
0.2100023698
0.2100022991
0.2100022372
0.2100021716
0.2100020847
0.2100019594
0.2100017855
0.2100015613
0.210001297
0.2100010861
0.2100009657
0.2100007622
0.2100005337
0.2100042373
0.2100038417
0.2100035702
0.2100033769
0.2100032532
0.2100031677
0.2100030791
0.2100029594
0.2100028028
0.2100026214
0.2100024333
0.210002255
0.2100020966
0.2100019611
0.2100018439
0.210001736
0.2100016254
0.2100014972
0.2100013358
0.2100011279
0.2100008514
0.210000503
0.2100004136
0.2100002775
0.2100001741
0.2099999651
0.210004142
0.2100037965
0.2100035216
0.2100033246
0.2100032037
0.2100031183
0.2100030158
0.2100028641
0.2100026615
0.2100024302
0.2100021937
0.2100019721
0.2100017751
0.2100016076
0.2100014625
0.2100013268
0.210001189
0.2100010391
0.2100008663
0.2100006551
0.2100003723
0.2100001174
0.2100002542
0.2099998234
0.2099997457
0.2099995541
0.2100039378
0.2100037274
0.2100034847
0.2100032872
0.2100031541
0.2100030499
0.2100029228
0.2100027398
0.2100025072
0.2100022449
0.2100019743
0.2100017207
0.2100014987
0.2100013105
0.2100011497
0.2100010009
0.2100008527
0.2100006991
0.2100005311
0.2100003262
0.2100000612
0.2099998423
0.2099998284
0.2099995437
0.2099994521
0.209999273
0.2100037749
0.2100036535
0.2100034534
0.2100032591
0.2100031042
0.2100029678
0.2100028089
0.2100025995
0.2100023482
0.2100020677
0.2100017797
0.2100015098
0.2100012742
0.2100010737
0.2100009041
0.2100007495
0.2100006012
0.2100004599
0.2100003226
0.2100001598
0.2099999637
0.2099997933
0.2099996077
0.2099994593
0.2099993062
0.2099991203
0.2100036719
0.2100035881
0.2100034221
0.2100032315
0.2100030513
0.2100028771
0.2100026839
0.2100024525
0.2100021869
0.210001901
0.2100016109
0.210001339
0.2100010996
0.2100008935
0.2100007176
0.2100005587
0.2100004138
0.2100002896
0.2100001665
0.2099999543
0.2099997545
0.2099997749
0.2099995942
0.2099994167
0.2099992339
0.2099990633
0.2100036118
0.2100035353
0.2100033863
0.2100031979
0.2100029955
0.2100027869
0.2100025628
0.2100023136
0.21000204
0.2100017551
0.210001472
0.2100012061
0.2100009659
0.2100007586
0.2100005765
0.2100004134
0.2100002688
0.2100001189
0.2099999283
0.2099997313
0.2099995491
0.2099996447
0.2099995744
0.2099993958
0.2099992192
0.2099990782
0.210003597
0.2100035037
0.2100033504
0.2100031593
0.210002942
0.2100027086
0.2100024614
0.210002199
0.2100019234
0.210001642
0.2100013659
0.2100011056
0.2100008672
0.2100006537
0.2100004652
0.2100003005
0.2100001768
0.2100001124
0.2099999901
0.2099999983
0.2099996621
0.2099994892
0.2099995142
0.2099993778
0.2099992368
0.2099991481
0.210003625
0.2100034998
0.210003324
0.2100031231
0.2100028987
0.2100026544
0.2100023946
0.2100021242
0.2100018475
0.2100015698
0.2100012973
0.210001037
0.2100007949
0.2100005764
0.2100003868
0.210000227
0.210000102
0.2099999789
0.2099998041
0.2099996877
0.209999657
0.2099994908
0.2099994766
0.2099993613
0.209999231
0.2099989712
0.2100036847
0.2100035233
0.210003317
0.210003098
0.2100028675
0.2100026223
0.2100023621
0.210002091
0.2100018142
0.2100015365
0.2100012635
0.2100010026
0.2100007617
0.2100005456
0.2100003696
0.2100002311
0.2100001309
0.2100000448
0.2099999074
0.209999719
0.2099996234
0.2099996056
0.2099995166
0.2099993512
0.209999173
0.2099989385
0.2100037552
0.2100035609
0.2100033256
0.2100030834
0.2100028422
0.2100025987
0.2100023468
0.2100020853
0.2100018165
0.210001544
0.2100012744
0.2100010184
0.2100007863
0.2100005858
0.2100004289
0.2100003023
0.2100001961
0.2100001037
0.2100000038
0.2099998733
0.2099997482
0.2099996806
0.2099995437
0.2099993784
0.2099992138
0.2099990532
0.2100038157
0.2100035991
0.2100033435
0.2100030803
0.2100028272
0.2100025877
0.2100023521
0.2100021112
0.2100018607
0.2100016018
0.2100013423
0.2100010977
0.210000883
0.210000708
0.2100005812
0.2100004759
0.2100003697
0.2100002582
0.2100001417
0.2100000168
0.2099998945
0.2099997887
0.2099996271
0.2099994542
0.2099992776
0.2099991121
0.210003855
0.2100036338
0.2100033717
0.2100030984
0.2100028402
0.2100026109
0.2100024012
0.2100021925
0.2100019694
0.2100017276
0.2100014757
0.2100012334
0.2100010235
0.2100008618
0.2100007561
0.2100006748
0.2100005814
0.2100004644
0.210000333
0.2100002008
0.2100000818
0.2099999744
0.2099997726
0.2099995752
0.2099993737
0.2099991946
0.2100038685
0.2100036707
0.2100034218
0.2100031574
0.2100029094
0.2100026993
0.2100025243
0.210002359
0.2100021703
0.2100019435
0.2100016872
0.2100014293
0.2100012084
0.2100010519
0.2100009587
0.210000898
0.2100008247
0.2100007195
0.210000593
0.2100004693
0.2100003696
0.2100002885
0.2100000152
0.2099997849
0.2099995526
0.2099993546
0.2100038394
0.2100037146
0.2100035031
0.2100032669
0.2100030421
0.2100028556
0.2100027129
0.2100025967
0.2100024532
0.2100022558
0.210002002
0.2100017176
0.2100014637
0.2100012944
0.2100012104
0.2100011728
0.2100011265
0.2100010422
0.2100009268
0.210000798
0.2100006656
0.2100005318
0.2100002943
0.210000076
0.2099998489
0.2099996424
0.2100037341
0.2100037569
0.2100036127
0.2100034144
0.2100032152
0.2100030438
0.210002918
0.2100028175
0.2100027081
0.2100025617
0.2100023563
0.2100020889
0.2100017888
0.2100015797
0.2100014936
0.2100014757
0.2100014584
0.2100013989
0.2100012863
0.2100011381
0.2100009764
0.2100007954
0.2100005955
0.2100004105
0.2100002221
0.2100000435
0.210003553
0.2100037775
0.2100037352
0.2100035735
0.2100033892
0.2100032191
0.2100030719
0.2100029526
0.2100028525
0.2100027494
0.2100026115
0.2100024051
0.2100020962
0.2100018755
0.2100017952
0.2100017967
0.2100017963
0.2100017383
0.2100016206
0.210001465
0.210001293
0.2100010863
0.2100009022
0.2100007554
0.2100006189
0.2100004695
0.2100033693
0.2100037539
0.2100038366
0.2100037051
0.2100035249
0.2100033452
0.2100031746
0.210003014
0.2100028934
0.2100028176
0.2100027377
0.2100025641
0.2100021981
0.2100021053
0.210002084
0.2100021201
0.2100021233
0.2100020416
0.2100018839
0.2100016872
0.2100014813
0.2100012797
0.2100011199
0.2100010179
0.2100009454
0.2100008517
0.210003254
0.2100036891
0.2100038802
0.2100037874
0.2100036114
0.2100034478
0.2100033179
0.2100031164
0.2100028538
0.2100027044
0.2100027887
0.21000291
0.2100023403
0.2100022766
0.2100023093
0.2100023888
0.210002396
0.2100022841
0.2100020775
0.2100018336
0.2100015988
0.2100013943
0.2100012449
0.2100011656
0.2100011276
0.2100010662
0.2100032229
0.2100036256
0.2100038895
0.2100038682
0.2100037028
0.2100035396
0.2100034895
0.2100035024
0.2100033548
0.2100030978
0.2100031154
0.2100013849
0.2100011009
0.2100021778
0.2100023342
0.2100025358
0.2100025708
0.2100024527
0.2100022272
0.2100019653
0.2100017256
0.2100015292
0.2100013849
0.2100013133
0.2100012925
0.2100012517
0.210003251
0.210003582
0.210003864
0.2100039502
0.2100038402
0.2100036577
0.2100035605
0.2100035856
0.2100036245
0.2100034407
0.2100030641
0.2100021592
0.2100022471
0.2100023124
0.2100024557
0.2100026066
0.2100026503
0.2100025531
0.2100023477
0.2100021122
0.2100019375
0.2100018464
0.2100016284
0.2100015645
0.2100015601
0.2100015446
0.2100032953
0.2100035346
0.2100037621
0.210003934
0.2100039479
0.2100038252
0.2100037156
0.2100037337
0.2100038268
0.2100038776
0.2100038496
0.2100035817
0.2100031689
0.2100028291
0.210002642
0.2100026938
0.2100027429
0.2100026767
0.2100025099
0.2100023063
0.2100021601
0.2100021178
0.2100020172
0.2100020179
0.2100020479
0.2100020551
0.2100033551
0.210003507
0.2100036431
0.210003826
0.2100039387
0.2100039159
0.210003824
0.2100037472
0.2100037485
0.2100038207
0.2100039381
0.2100039954
0.2100040088
0.2100037165
0.2100031299
0.2100029454
0.2100030096
0.2100030087
0.2100028887
0.210002712
0.2100025584
0.210002465
0.2100025949
0.2100027151
0.2100028079
0.2100028753
0.2100034616
0.2100035749
0.210003587
0.210003738
0.2100038662
0.2100038839
0.2100037966
0.210003704
0.2100037257
0.210003882
0.2100041176
0.2100043186
0.2100044079
0.2100043272
0.2100039097
0.2100035132
0.2100035782
0.210003742
0.2100037846
0.2100037064
0.2100036381
0.2100037725
0.2100037792
0.2100036352
0.2100038424
0.2100036165
0.2100037763
0.2100036011
0.2100036538
0.2100038513
0.210003897
0.2100038913
0.2100038797
0.2100039364
0.2100040718
0.2100042409
0.2100044252
0.2100045606
0.2100046382
0.2100045133
0.2100041914
0.210004107
0.2100043082
0.2100044979
0.2100045882
0.210004672
0.2100045307
0.2100048336
0.2100044292
0.2100047296
0.2100038045
0.2100041802
0.2100036926
0.2100037228
0.2100038104
0.2100038743
0.2100039096
0.2100039443
0.2100040306
0.2100041792
0.2100043469
0.2100044846
0.2100046021
0.2100047323
0.210004787
0.210004692
0.2100045954
0.2100047016
0.2100049429
0.2100051817
0.2100053657
0.2100055109
0.2100051278
0.2100050486
0.2100052708
0.2100034144
0.2100035756
0.2100035453
0.2100036326
0.2100037326
0.2100038159
0.2100038647
0.2100039218
0.2100040439
0.2100042294
0.2100044123
0.2100045569
0.2100046847
0.2100048273
0.2100049542
0.2100050207
0.2100050555
0.2100051553
0.2100053537
0.2100056331
0.210006064
0.2100058851