/*--------------------------------*- C++ -*----------------------------------*\
  =========                 |
  \\      /  F ield         | OpenFOAM: The Open Source CFD Toolbox
   \\    /   O peration     | Website:  https://openfoam.org
    \\  /    A nd           | Version:  8
     \\/     M anipulation  |
\*---------------------------------------------------------------------------*/
FoamFile
{
    version     2.0;
    format      ascii;
    class       volScalarField;
    location    "1.1";
    object      p_rgh;
}
// * * * * * * * * * * * * * * * * * * * * * * * * * * * * * * * * * * * * * //

dimensions      [1 -1 -2 0 0 0 0];

internalField   nonuniform List<scalar> 
67410
(
100004.029
100003.9908
100003.968
100003.9452
100003.9262
100003.9114
100003.9015
100003.8959
100003.8937
100003.8937
100003.8953
100003.8984
100003.9037
100003.9125
100003.9254
100003.9434
100003.9668
100003.9964
100004.0343
100004.0825
100004.1447
100004.232
100004.3385
100004.232
100004.2791
100004.2723
100004.0072
100003.9732
100003.9477
100003.9196
100003.8944
100003.8737
100003.8584
100003.8486
100003.8434
100003.8421
100003.8442
100003.8499
100003.8598
100003.8741
100003.8918
100003.912
100003.9341
100003.9575
100003.9808
100003.996
100003.9995
100004.0214
100004.0612
100004.0589
100004.1065
100004.085
100003.9911
100003.9615
100003.9352
100003.9062
100003.8801
100003.8588
100003.8432
100003.8331
100003.8276
100003.8255
100003.8265
100003.8306
100003.8396
100003.8534
100003.8716
100003.8923
100003.9138
100003.9339
100003.9469
100003.941
100003.9349
100004.0316
100004.0527
100004.0144
100004.081
100004.0296
100003.9716
100003.9436
100003.9172
100003.888
100003.8618
100003.8407
100003.8258
100003.817
100003.8125
100003.8106
100003.8109
100003.814
100003.8223
100003.8351
100003.8534
100003.8747
100003.8961
100003.9151
100003.9286
100003.9265
100003.9047
100004.0046
100004.0162
100004.0122
100004.0488
100003.9994
100003.9552
100003.9283
100003.9027
100003.8742
100003.8487
100003.8284
100003.815
100003.8076
100003.8041
100003.8028
100003.8031
100003.8056
100003.8128
100003.8257
100003.8444
100003.8667
100003.8897
100003.9111
100003.9314
100003.9542
100003.9279
100003.9744
100003.9943
100003.9942
100003.9924
100003.9869
100003.9377
100003.9127
100003.8892
100003.8624
100003.8381
100003.8184
100003.8052
100003.7982
100003.7951
100003.7944
100003.7955
100003.7993
100003.8081
100003.8227
100003.8433
100003.8679
100003.8924
100003.9054
100003.9094
100003.9443
100003.9646
100004.0175
100004.003
100003.9958
100003.9905
100003.9927
100003.9214
100003.8992
100003.8783
100003.8538
100003.8308
100003.8112
100003.797
100003.7888
100003.7851
100003.7846
100003.787
100003.7931
100003.8041
100003.8208
100003.8413
100003.8627
100003.873
100003.8664
100003.885
100003.9137
100003.9533
100004.0348
100004.005
100004.0022
100004.0008
100004.0114
100003.9061
100003.887
100003.8693
100003.8476
100003.8262
100003.8068
100003.7912
100003.7806
100003.7752
100003.7745
100003.7783
100003.786
100003.7982
100003.8128
100003.8297
100003.8418
100003.8369
100003.8862
100004.1595
100004.2578
100004.0522
100004.0986
100004.054
100004.0425
100004.0391
100004.0504
100003.8934
100003.8764
100003.8613
100003.8425
100003.8236
100003.8055
100003.7899
100003.7779
100003.7705
100003.7683
100003.7711
100003.7775
100003.7855
100003.7951
100003.8092
100003.8177
100003.8075
100003.897
100004.2097
100004.3092
100004.1179
100004.1186
100004.1097
100004.0818
100004.0844
100004.1078
100003.8836
100003.8674
100003.8539
100003.8371
100003.8206
100003.805
100003.7912
100003.7798
100003.7715
100003.7666
100003.7648
100003.7642
100003.7632
100003.7643
100003.7745
100003.7993
100003.8412
100003.9241
100004.0413
100004.1062
100004.1097
100004.1124
100004.0974
100004.0964
100004.1235
100004.1739
100003.8763
100003.8598
100003.8469
100003.8312
100003.8162
100003.8026
100003.7911
100003.7817
100003.774
100003.7674
100003.7609
100003.7542
100003.7496
100003.7561
100003.7867
100003.8396
100003.9065
100003.9915
100004.0711
100004.0814
100004.0992
100004.122
100004.1081
100004.1152
100004.1363
100004.1619
100003.872
100003.854
100003.8408
100003.8251
100003.8107
100003.798
100003.7881
100003.7812
100003.7759
100003.7697
100003.7606
100003.7493
100003.7425
100003.7565
100003.7984
100003.8577
100003.917
100003.9658
100004.0126
100004.0609
100004.0796
100004.0876
100004.1033
100004.1284
100004.1516
100004.1668
100003.8711
100003.85
100003.8356
100003.819
100003.8043
100003.7922
100003.7837
100003.7795
100003.7783
100003.7764
100003.7685
100003.7547
100003.7439
100003.7558
100003.7984
100003.8618
100003.9285
100003.9814
100004.0194
100004.0496
100004.0711
100004.0839
100004.1002
100004.1322
100004.162
100004.178
100003.8732
100003.8473
100003.831
100003.813
100003.7981
100003.7866
100003.7795
100003.7772
100003.7789
100003.7814
100003.7798
100003.772
100003.7613
100003.7593
100003.7812
100003.8283
100003.8856
100003.9345
100003.9736
100004.0109
100004.0407
100004.06
100004.0803
100004.1162
100004.1574
100004.1858
100003.8769
100003.8455
100003.8278
100003.8091
100003.7949
100003.7855
100003.7821
100003.7836
100003.7893
100003.797
100003.8032
100003.8007
100003.7896
100003.7803
100003.785
100003.8117
100003.8555
100003.9029
100003.9481
100003.9893
100004.0206
100004.0416
100004.0594
100004.0953
100004.1438
100004.1889
100003.8811
100003.8453
100003.8274
100003.8094
100003.7972
100003.7919
100003.7942
100003.8006
100003.8089
100003.8192
100003.8299
100003.8336
100003.8224
100003.8076
100003.7996
100003.806
100003.8305
100003.8673
100003.9083
100003.9464
100003.9753
100003.9961
100004.0179
100004.0594
100004.1176
100004.1768
100003.8853
100003.847
100003.8305
100003.8149
100003.8062
100003.8045
100003.811
100003.8236
100003.8373
100003.8503
100003.8645
100003.8763
100003.8588
100003.8375
100003.8209
100003.8161
100003.8255
100003.8479
100003.8774
100003.9063
100003.9281
100003.9439
100003.9653
100004.0086
100004.0766
100004.1697
100003.8898
100003.8509
100003.8358
100003.8237
100003.8195
100003.8197
100003.8242
100003.8373
100003.8601
100003.8838
100003.9027
100003.9169
100003.8887
100003.8627
100003.8384
100003.8258
100003.8259
100003.8366
100003.8542
100003.8721
100003.8842
100003.8898
100003.9009
100003.9319
100003.9845
100004.0477
100003.8966
100003.8581
100003.8434
100003.8331
100003.8315
100003.8373
100003.8497
100003.8662
100003.8971
100003.9623
100004.0607
100004.2128
100003.9737
100003.9014
100003.8559
100003.8332
100003.826
100003.8286
100003.8365
100003.8453
100003.8494
100003.8445
100003.8418
100003.8561
100003.8932
100003.9511
100003.9083
100003.871
100003.8552
100003.8456
100003.8439
100003.8491
100003.8664
100003.8919
100003.9085
100003.9329
100003.9636
100004.0198
100003.9139
100003.9034
100003.8632
100003.8368
100003.8249
100003.8225
100003.8249
100003.8282
100003.8293
100003.8238
100003.8112
100003.803
100003.815
100003.8513
100003.9264
100003.8918
100003.8722
100003.8616
100003.8591
100003.8625
100003.8825
100003.9496
100004.0791
100004.2725
100004.5642
100006.0759
100004.0021
100004.1125
100003.9182
100003.8493
100003.8258
100003.8199
100003.8211
100003.8246
100003.829
100003.8311
100003.813
100003.7928
100003.7812
100003.7798
100003.9521
100003.9213
100003.8968
100003.8798
100003.872
100003.8679
100003.8697
100003.8785
100003.9065
100003.9289
100003.9453
100004.0214
100003.8553
100003.8753
100003.8469
100003.8288
100003.821
100003.8216
100003.8277
100003.8363
100003.8476
100003.8606
100003.8499
100003.8234
100003.8035
100003.7907
100003.9838
100003.9575
100003.9286
100003.9029
100003.8876
100003.8759
100003.8719
100003.8732
100003.8962
100003.9614
100004.0278
100004.1492
100003.9299
100003.8879
100003.8501
100003.8313
100003.8262
100003.8307
100003.8425
100003.8594
100003.8808
100003.9101
100003.9226
100003.8755
100003.8599
100003.8471
100004.0167
100003.9953
100003.9633
100003.9301
100003.9101
100003.8887
100003.8791
100003.8705
100003.8609
100003.8604
100003.8702
100003.888
100003.8608
100003.8557
100003.8442
100003.8369
100003.8382
100003.8491
100003.8702
100003.9038
100003.9616
100004.086
100004.0079
100003.9456
100003.9269
100003.9205
100004.0515
100004.033
100003.9984
100003.9455
100003.9166
100003.8937
100003.8883
100003.8788
100003.8607
100003.8463
100003.8556
100003.8674
100003.8565
100003.8539
100003.8474
100003.8438
100003.8467
100003.8571
100003.8768
100003.9053
100003.9417
100004.0144
100003.9624
100003.9479
100003.9566
100004.0899
100004.0704
100004.0374
100003.9425
100003.9959
100003.9253
100003.9029
100003.8727
100003.8449
100003.8294
100003.8325
100003.8361
100003.8363
100003.8397
100003.8426
100003.8439
100003.8465
100003.8555
100003.8778
100003.9231
100004.0196
100004.4277
100004.0854
100004.0395
100003.9849
100004.1186
100004.1091
100004.0492
100003.9773
100003.9336
100003.9039
100003.8839
100003.8625
100003.8396
100003.8263
100003.8246
100003.827
100003.8284
100003.8315
100003.8351
100003.836
100003.8354
100003.8408
100003.8631
100003.9061
100003.9633
100004.0325
100003.9327
100003.9497
100003.9224
100004.0951
100004.0751
100004.0313
100003.981
100003.9601
100003.9189
100003.8905
100003.8661
100003.8376
100003.8194
100003.8154
100003.819
100003.822
100003.828
100003.8352
100003.8389
100003.8388
100003.8431
100003.8669
100003.9146
100003.9772
100004.0207
100004.0068
100003.985
100003.9328
100004.07
100004.0494
100004.0132
100003.9678
100003.9263
100003.8872
100003.8558
100003.8308
100003.8094
100003.8012
100003.8028
100003.8106
100003.8158
100003.8227
100003.8301
100003.8349
100003.837
100003.8417
100003.8558
100003.8847
100003.9278
100003.9715
100003.9584
100003.9249
100003.8983
100003.8876
100004.0581
100004.0396
100004.0091
100003.9651
100003.918
100003.8755
100003.8409
100003.8107
100003.7895
100003.7847
100003.7902
100003.8039
100003.8133
100003.8208
100003.8267
100003.8303
100003.8321
100003.8362
100003.8481
100003.8688
100003.8915
100003.9075
100003.9115
100003.9066
100003.8966
100003.8931
100004.0217
100003.9864
100003.9624
100003.9361
100003.9128
100003.8941
100003.8808
100003.873
100003.8699
100003.8703
100003.8739
100003.8805
100003.8905
100003.9037
100003.9191
100003.9356
100003.9529
100003.9711
100003.987
100003.9934
100003.9802
100003.9505
100003.9626
100004.0953
100004.1406
100004.1436
100003.9967
100003.9645
100003.9384
100003.9084
100003.8811
100003.8582
100003.8412
100003.8301
100003.8245
100003.8235
100003.8271
100003.8353
100003.8484
100003.8656
100003.8847
100003.9029
100003.9184
100003.9292
100003.927
100003.8916
100003.8179
100003.7516
100003.7239
100003.9601
100003.9883
100003.9848
100003.9761
100003.9497
100003.9234
100003.8937
100003.8668
100003.8449
100003.8286
100003.8172
100003.8104
100003.8078
100003.8092
100003.8151
100003.826
100003.8419
100003.8605
100003.8781
100003.8909
100003.8935
100003.8711
100003.8047
100003.7365
100003.7231
100003.698
100003.9287
100003.9442
100003.9325
100003.9554
100003.9298
100003.9039
100003.8742
100003.8484
100003.8281
100003.813
100003.8017
100003.7946
100003.7916
100003.7921
100003.796
100003.8052
100003.8199
100003.8373
100003.853
100003.8618
100003.8563
100003.8227
100003.7593
100003.7177
100003.6979
100003.6886
100003.8995
100003.9152
100003.8978
100003.9394
100003.9152
100003.8898
100003.861
100003.8363
100003.8171
100003.8024
100003.7912
100003.7844
100003.7813
100003.7816
100003.7852
100003.7927
100003.806
100003.8212
100003.8337
100003.8377
100003.8289
100003.808
100003.7944
100003.8298
100003.86
100003.8879
100003.9207
100003.9025
100003.8922
100003.9236
100003.9008
100003.8774
100003.8502
100003.8265
100003.8077
100003.793
100003.782
100003.7753
100003.7723
100003.7728
100003.7766
100003.7838
100003.7958
100003.8069
100003.8104
100003.7956
100003.7514
100003.6865
100003.6618
100003.8309
100003.9056
100003.9268
100003.924
100003.9088
100003.9019
100003.9097
100003.8895
100003.8684
100003.8433
100003.8201
100003.8009
100003.7858
100003.7743
100003.7671
100003.764
100003.7647
100003.769
100003.7763
100003.7847
100003.786
100003.7679
100003.7068
100003.5976
100003.5078
100003.495
100003.7858
100003.9122
100003.9367
100003.9389
100003.9325
100003.9307
100003.8975
100003.8798
100003.8618
100003.8394
100003.8173
100003.7972
100003.7809
100003.7686
100003.7604
100003.7569
100003.7576
100003.762
100003.7671
100003.767
100003.7544
100003.7127
100003.6171
100003.5277
100003.5017
100003.4765
100003.7937
100003.9564
100003.9689
100003.9687
100003.972
100003.9836
100003.8873
100003.8713
100003.8561
100003.8369
100003.8174
100003.7983
100003.7812
100003.7676
100003.7586
100003.7542
100003.7536
100003.7537
100003.7492
100003.7363
100003.7124
100003.6638
100003.5936
100003.5325
100003.5078
100003.4993
100003.8108
100004.0033
100003.9993
100003.9975
100004.0185
100004.0722
100003.879
100003.8636
100003.8502
100003.8336
100003.8172
100003.8012
100003.7864
100003.7737
100003.7639
100003.7567
100003.7499
100003.7396
100003.7246
100003.7109
100003.7057
100003.718
100003.7481
100003.8018
100003.8672
100003.9154
100003.991
100004.0371
100004.02
100004.0188
100004.068
100004.2538
100003.8722
100003.8566
100003.8438
100003.8283
100003.8134
100003.7995
100003.7873
100003.7768
100003.7673
100003.757
100003.7424
100003.7221
100003.7035
100003.6986
100003.7066
100003.7298
100003.7703
100003.8379
100003.9308
100004.0088
100004.0418
100004.0402
100004.0219
100004.0163
100004.0348
100004.0806
100003.8673
100003.8505
100003.8373
100003.8211
100003.8061
100003.7927
100003.782
100003.7737
100003.7659
100003.7546
100003.7355
100003.7123
100003.6967
100003.6961
100003.7088
100003.738
100003.7817
100003.8394
100003.9126
100003.9878
100004.024
100004.0248
100004.015
100004.0146
100004.0295
100004.0599
100003.8642
100003.8447
100003.8296
100003.8116
100003.7957
100003.7824
100003.773
100003.7673
100003.7634
100003.7558
100003.7386
100003.7157
100003.7
100003.6981
100003.7105
100003.7404
100003.7848
100003.8392
100003.9039
100003.9741
100004.0187
100004.0216
100004.0119
100004.0144
100004.0314
100004.0597
100003.8619
100003.838
100003.8207
100003.8003
100003.7839
100003.772
100003.7646
100003.7611
100003.7613
100003.7625
100003.7579
100003.7439
100003.7258
100003.7165
100003.7226
100003.746
100003.7855
100003.8367
100003.8978
100003.9632
100004.0098
100004.0252
100004.0169
100004.0186
100004.0314
100004.0485
100003.8598
100003.831
100003.812
100003.7916
100003.7778
100003.7691
100003.7639
100003.7622
100003.7649
100003.772
100003.7776
100003.7731
100003.7572
100003.741
100003.7384
100003.7537
100003.786
100003.8329
100003.8903
100003.9487
100003.9912
100004.0107
100003.9961
100003.9933
100004.0005
100004.011
100003.8578
100003.825
100003.8073
100003.7891
100003.7784
100003.7717
100003.7686
100003.7701
100003.776
100003.7856
100003.7976
100003.8025
100003.7903
100003.7725
100003.7615
100003.7673
100003.79
100003.8266
100003.8716
100003.915
100003.9441
100003.9544
100003.9415
100003.9379
100003.9445
100003.9581
100003.8565
100003.8221
100003.8075
100003.7923
100003.7837
100003.7783
100003.7766
100003.7805
100003.7903
100003.8056
100003.826
100003.8442
100003.8264
100003.8035
100003.7876
100003.7843
100003.7968
100003.821
100003.8514
100003.8789
100003.8931
100003.89
100003.8761
100003.8696
100003.871
100003.8662
100003.8572
100003.8234
100003.8119
100003.8
100003.7936
100003.7885
100003.7862
100003.7907
100003.8031
100003.8217
100003.8493
100003.8878
100003.842
100003.8223
100003.8047
100003.7965
100003.8005
100003.8148
100003.8333
100003.8487
100003.8526
100003.8391
100003.8194
100003.808
100003.808
100003.815
100003.8625
100003.83
100003.82
100003.8102
100003.8068
100003.8086
100003.8125
100003.8191
100003.8531
100003.9148
100004.0039
100004.17
100003.91
100003.8662
100003.8229
100003.8046
100003.8011
100003.8059
100003.8138
100003.8183
100003.8125
100003.7951
100003.7708
100003.7541
100003.7476
100003.7489
100003.8753
100003.8428
100003.8309
100003.8207
100003.8162
100003.8176
100003.8268
100003.8405
100003.8481
100003.8888
100003.9872
100004.3766
100003.8953
100003.8605
100003.8181
100003.804
100003.7996
100003.7996
100003.8017
100003.8018
100003.794
100003.7733
100003.7412
100003.7216
100003.7072
100003.7
100003.8969
100003.8637
100003.8461
100003.833
100003.8268
100003.8278
100003.8419
100003.9045
100004.0406
100004.2937
100004.7422
100006.6911
100003.8712
100004.1887
100003.8601
100003.8168
100003.8015
100003.7979
100003.7992
100003.801
100003.7996
100003.7877
100003.7535
100003.7226
100003.6981
100003.6755
100003.9268
100003.8965
100003.869
100003.8481
100003.835
100003.827
100003.8214
100003.814
100003.8199
100003.8392
100003.8113
100003.7096
100003.7294
100003.7995
100003.7909
100003.7941
100003.7962
100003.7993
100003.8039
100003.8073
100003.8082
100003.8097
100003.7902
100003.76
100003.7322
100003.7079
100003.9613
100003.937
100003.8998
100003.8681
100003.8466
100003.8352
100003.8291
100003.8362
100003.8597
100003.9101
100003.9751
100004.1174
100003.8578
100003.8611
100003.823
100003.8075
100003.8047
100003.808
100003.815
100003.8216
100003.8259
100003.8426
100003.8316
100003.814
100003.7914
100003.7694
100003.9996
100003.9789
100003.9334
100003.8946
100003.864
100003.8452
100003.8285
100003.819
100003.8118
100003.8075
100003.8084
100003.8198
100003.8085
100003.8201
100003.8177
100003.816
100003.8187
100003.8273
100003.8424
100003.8593
100003.8657
100003.9442
100003.8466
100003.8891
100003.8634
100003.8463
100004.047
100004.0274
100003.9664
100003.9228
100003.8842
100003.8598
100003.833
100003.8215
100003.8125
100003.8155
100003.8235
100003.8382
100003.8285
100003.8315
100003.831
100003.828
100003.8285
100003.8321
100003.8365
100003.8342
100003.8077
100003.8781
100003.8003
100003.8648
100003.8721
100004.1082
100004.092
100003.9999
100003.9331
100003.842
100003.8705
100003.8255
100003.8173
100003.8025
100003.8018
100003.8066
100003.8141
100003.818
100003.8244
100003.8295
100003.8302
100003.827
100003.8264
100003.8405
100003.8713
100003.8459
100004.196
100003.8305
100003.9691
100003.8693
100004.172
100004.171
100004.0492
100003.9815
100003.925
100003.8789
100003.8391
100003.816
100003.801
100003.8003
100003.8069
100003.8122
100003.8149
100003.8195
100003.8236
100003.8213
100003.814
100003.8138
100003.8242
100003.8412
100003.8558
100003.9929
100003.8349
100003.8901
100003.8351
100004.1144
100004.0904
100004.02
100003.9663
100003.9203
100003.878
100003.8381
100003.8098
100003.7941
100003.7916
100003.7975
100003.8033
100003.8079
100003.8146
100003.8205
100003.8188
100003.8112
100003.8171
100003.8422
100003.8854
100003.9488
100003.987
100003.8871
100003.8992
100003.8342
100004.0705
100004.0444
100003.9969
100003.9465
100003.8949
100003.8462
100003.8073
100003.7796
100003.7656
100003.7657
100003.7777
100003.7914
100003.8009
100003.81
100003.8179
100003.821
100003.8157
100003.8076
100003.8081
100003.8214
100003.8622
100003.9753
100003.8858
100003.8852
100003.8309
100003.7983
100004.0407
100004.0162
100003.9825
100003.9323
100003.8764
100003.8269
100003.7886
100003.7584
100003.7418
100003.7377
100003.7517
100003.7764
100003.7949
100003.8077
100003.8156
100003.8202
100003.8192
100003.8152
100003.8137
100003.82
100003.8344
100003.843
100003.8135
100003.8395
100003.797
100003.7798
100003.9778
100003.947
100003.9267
100003.904
100003.8838
100003.867
100003.8546
100003.8468
100003.8434
100003.8438
100003.8473
100003.8535
100003.8623
100003.8735
100003.8866
100003.9011
100003.9165
100003.9326
100003.949
100003.9658
100003.9868
100004.0113
100004.034
100004.0537
100004.064
100004.068
100003.9563
100003.9308
100003.9108
100003.8878
100003.8662
100003.8474
100003.8324
100003.8218
100003.8158
100003.8144
100003.8171
100003.8237
100003.8337
100003.8466
100003.8613
100003.8762
100003.8907
100003.9039
100003.9155
100003.9275
100003.9465
100003.9762
100004.0022
100004.0047
100003.9974
100003.9896
100003.9362
100003.9173
100003.8997
100003.878
100003.8577
100003.8395
100003.8241
100003.8125
100003.805
100003.8015
100003.8022
100003.8069
100003.8152
100003.8269
100003.841
100003.8556
100003.8692
100003.8812
100003.8921
100003.9057
100003.926
100003.9341
100003.9581
100003.9815
100003.976
100003.9589
100003.9176
100003.9009
100003.8836
100003.8626
100003.8431
100003.8254
100003.8106
100003.7994
100003.7916
100003.7873
100003.7871
100003.7912
100003.7978
100003.8082
100003.8213
100003.8353
100003.8484
100003.8607
100003.8741
100003.8913
100003.9003
100003.9047
100003.9289
100003.9582
100003.9532
100003.9332
100003.9042
100003.8888
100003.872
100003.8516
100003.8326
100003.8155
100003.8012
100003.7901
100003.7821
100003.7773
100003.7765
100003.7797
100003.7865
100003.7958
100003.8082
100003.822
100003.8361
100003.8509
100003.8677
100003.8874
100003.906
100003.9194
100003.9361
100003.9487
100003.9384
100003.9172
100003.8906
100003.876
100003.8603
100003.8409
100003.8227
100003.8061
100003.7922
100003.7811
100003.773
100003.7685
100003.7676
100003.7708
100003.7782
100003.7874
100003.7997
100003.8138
100003.8296
100003.8486
100003.8732
100003.9001
100003.9355
100003.9673
100003.9693
100003.9567
100003.9369
100003.9154
100003.8784
100003.8652
100003.8508
100003.8324
100003.8148
100003.7984
100003.7844
100003.7732
100003.7652
100003.7605
100003.7598
100003.7634
100003.7716
100003.7806
100003.7927
100003.8071
100003.8244
100003.8484
100003.8802
100003.8932
100003.9367
100003.9928
100003.9808
100003.9634
100003.946
100003.9288
100003.868
100003.8556
100003.8425
100003.8254
100003.8086
100003.7924
100003.7781
100003.7665
100003.7583
100003.7536
100003.7527
100003.7564
100003.7626
100003.7725
100003.7857
100003.8029
100003.8258
100003.8391
100003.8686
100003.9021
100003.9599
100004.041
100004.0144
100003.988
100003.9709
100003.9649
100003.8592
100003.8471
100003.8352
100003.8197
100003.8039
100003.7883
100003.774
100003.7619
100003.7528
100003.7471
100003.7451
100003.7467
100003.7516
100003.7604
100003.7748
100003.7943
100003.8169
100003.8476
100003.8879
100003.9363
100003.9999
100004.0635
100004.0431
100004.011
100004.0031
100004.0482
100003.8516
100003.8396
100003.8285
100003.8144
100003.8002
100003.7861
100003.7728
100003.7609
100003.7511
100003.7439
100003.7392
100003.7373
100003.7389
100003.7461
100003.7612
100003.7803
100003.8127
100003.8591
100003.9189
100003.9838
100004.0473
100004.0696
100004.0471
100004.0179
100004.0205
100004.0233
100003.8449
100003.8327
100003.8221
100003.8089
100003.796
100003.7835
100003.7717
100003.761
100003.7515
100003.7429
100003.7354
100003.7299
100003.7285
100003.7322
100003.7452
100003.7705
100003.8122
100003.8737
100003.9513
100004.0204
100004.0595
100004.0625
100004.0337
100004.0039
100003.9833
100003.9457
100003.8393
100003.8266
100003.816
100003.8032
100003.7911
100003.7796
100003.7692
100003.76
100003.7515
100003.7431
100003.7346
100003.7274
100003.7238
100003.7239
100003.7347
100003.7598
100003.7996
100003.8534
100003.9188
100003.9844
100004.0274
100004.0361
100004.0161
100003.9976
100003.9899
100003.9921
100003.8347
100003.8212
100003.8104
100003.7975
100003.786
100003.7756
100003.7666
100003.7591
100003.7527
100003.7462
100003.7383
100003.7305
100003.7249
100003.7223
100003.7304
100003.7535
100003.7913
100003.8416
100003.9013
100003.963
100004.0097
100004.0275
100004.007
100003.9932
100003.9908
100004.0001
100003.8312
100003.8165
100003.8054
100003.7926
100003.7819
100003.7726
100003.7649
100003.7592
100003.7554
100003.752
100003.747
100003.7398
100003.7323
100003.728
100003.7318
100003.7499
100003.7831
100003.8295
100003.8862
100003.9477
100004.0011
100004.0342
100004.003
100003.9875
100003.9825
100003.9896
100003.8288
100003.8127
100003.802
100003.7895
100003.7797
100003.7713
100003.7652
100003.762
100003.7612
100003.7614
100003.7603
100003.7553
100003.7469
100003.7407
100003.7416
100003.7543
100003.7819
100003.8239
100003.8775
100003.9379
100003.998
100004.0544
100003.9911
100003.9673
100003.9558
100003.9587
100003.8277
100003.8107
100003.8009
100003.7885
100003.7794
100003.7724
100003.7676
100003.7656
100003.7668
100003.7702
100003.7736
100003.7722
100003.7633
100003.7552
100003.7548
100003.7634
100003.7849
100003.8189
100003.8631
100003.9111
100003.9527
100003.9783
100003.9393
100003.9201
100003.911
100003.916
100003.8281
100003.8115
100003.8025
100003.7903
100003.7823
100003.7764
100003.7721
100003.7706
100003.7726
100003.7778
100003.7852
100003.7898
100003.777
100003.7674
100003.7648
100003.7711
100003.7877
100003.8146
100003.8491
100003.8836
100003.9076
100003.9044
100003.8779
100003.86
100003.8521
100003.8534
100003.8307
100003.8155
100003.8069
100003.7954
100003.789
100003.7853
100003.7798
100003.7772
100003.7782
100003.7806
100003.7878
100003.7974
100003.7695
100003.7649
100003.7646
100003.7719
100003.7871
100003.8092
100003.8371
100003.8649
100003.8837
100003.8625
100003.8321
100003.8095
100003.798
100003.7942
100003.8363
100003.8227
100003.8139
100003.8031
100003.7986
100003.7952
100003.7921
100003.7922
100003.8054
100003.8242
100003.8401
100003.8166
100003.7188
100003.7552
100003.7627
100003.7692
100003.781
100003.795
100003.8106
100003.8243
100003.8287
100003.8125
100003.7868
100003.765
100003.7515
100003.7394
100003.8465
100003.8333
100003.8234
100003.812
100003.8056
100003.8026
100003.8007
100003.7952
100003.7841
100003.7862
100003.8425
100003.9208
100003.7356
100003.7528
100003.748
100003.7586
100003.7707
100003.7812
100003.7904
100003.7968
100003.7965
100003.7833
100003.7609
100003.7374
100003.7167
100003.6897
100003.8634
100003.8494
100003.8373
100003.8242
100003.8164
100003.8129
100003.8222
100003.8404
100003.8629
100003.8478
100003.9116
100002.7108
100003.0289
100003.6543
100003.6907
100003.744
100003.7657
100003.775
100003.7825
100003.7884
100003.7908
100003.7834
100003.7601
100003.7383
100003.7183
100003.6952
100003.8907
100003.8751
100003.8582
100003.841
100003.8286
100003.8151
100003.8017
100003.7818
100003.7522
100003.6857
100003.599
100003.0814
100003.5455
100003.6666
100003.7146
100003.748
100003.7659
100003.7767
100003.7844
100003.7907
100003.795
100003.7942
100003.7777
100003.7595
100003.7413
100003.7242
100003.9309
100003.9141
100003.8894
100003.8661
100003.8467
100003.8308
100003.8192
100003.8169
100003.8183
100003.8147
100003.8069
100003.7556
100003.6964
100003.7587
100003.7682
100003.7746
100003.7813
100003.7863
100003.7922
100003.7972
100003.7996
100003.8054
100003.8011
100003.7909
100003.7767
100003.7651
100003.9875
100003.9696
100003.9287
100003.8957
100003.8667
100003.8408
100003.8196
100003.8003
100003.7802
100003.7589
100003.7396
100003.706
100003.7314
100003.757
100003.7717
100003.7832
100003.7918
100003.8003
100003.8096
100003.8158
100003.8005
100003.7543
100003.8235
100003.8356
100003.8208
100003.8139
100004.0696
100004.0531
100003.9717
100003.9292
100003.8921
100003.8595
100003.8334
100003.8138
100003.8004
100003.7934
100003.7922
100003.7878
100003.7827
100003.7879
100003.7941
100003.7977
100003.8023
100003.8096
100003.8214
100003.8394
100003.8576
100003.905
100003.8982
100003.8699
100003.845
100004.1921
100004.2005
100004.0162
100003.9626
100003.913
100003.8767
100003.847
100003.8225
100003.8044
100003.7929
100003.7869
100003.7817
100003.7831
100003.7895
100003.7963
100003.802
100003.8065
100003.8119
100003.8187
100003.8261
100003.7586
100003.6389
100003.7883
100003.8578
100003.8418
100004.3794
100004.5363
100004.0999
100004.0023
100003.9229
100003.8714
100003.8402
100003.8181
100003.8005
100003.7895
100003.7846
100003.784
100003.7866
100003.7917
100003.7976
100003.8023
100003.807
100003.8146
100003.8281
100003.8495
100003.8624
100004.0067
100003.8787
100003.8847
100003.8441
100004.1755
100004.1643
100004.0226
100003.9528
100003.8951
100003.8518
100003.8204
100003.7987
100003.7842
100003.777
100003.7753
100003.7782
100003.7836
100003.7907
100003.7976
100003.8039
100003.8123
100003.8275
100003.8567
100003.9278
100004.1606
100004.1079
100003.9135
100003.8969
100003.8562
100004.1002
100004.0757
100003.9913
100003.9266
100003.8742
100003.832
100003.8009
100003.7798
100003.7671
100003.7631
100003.7648
100003.771
100003.7791
100003.7875
100003.7946
100003.7999
100003.8042
100003.8108
100003.8238
100003.8424
100003.8495
100003.9644
100003.8633
100003.8739
100003.8402
100003.8276
100004.0393
100004.0117
100003.9615
100003.9089
100003.8623
100003.8228
100003.7919
100003.7693
100003.7563
100003.753
100003.7557
100003.7637
100003.7744
100003.784
100003.7905
100003.7947
100003.7969
100003.8003
100003.8101
100003.8293
100003.859
100003.8687
100003.8445
100003.8398
100003.8243
100003.8129
100003.9364
100003.9095
100003.8922
100003.8723
100003.8543
100003.8384
100003.826
100003.8177
100003.8136
100003.8135
100003.8167
100003.8228
100003.8312
100003.8415
100003.8532
100003.8656
100003.8785
100003.8912
100003.9034
100003.9149
100003.9271
100003.9411
100003.9591
100003.9779
100003.986
100003.9878
100003.9179
100003.8963
100003.8803
100003.8609
100003.8425
100003.8256
100003.8112
100003.8004
100003.7938
100003.7917
100003.7938
100003.7996
100003.8084
100003.8193
100003.8314
100003.8437
100003.8554
100003.8658
100003.8734
100003.8769
100003.8768
100003.88
100003.8958
100003.925
100003.9316
100003.9274
100003.8987
100003.8837
100003.8702
100003.8529
100003.8357
100003.8193
100003.8047
100003.793
100003.7847
100003.7805
100003.7804
100003.7842
100003.7914
100003.8013
100003.8126
100003.8243
100003.8348
100003.8428
100003.8457
100003.8396
100003.8279
100003.8325
100003.8546
100003.8871
100003.8978
100003.8916
100003.8823
100003.8698
100003.8566
100003.8397
100003.8232
100003.8074
100003.7933
100003.7816
100003.773
100003.7681
100003.767
100003.7696
100003.7754
100003.7841
100003.7944
100003.805
100003.8144
100003.821
100003.8222
100003.816
100003.8139
100003.8308
100003.8545
100003.8697
100003.872
100003.8629
100003.8712
100003.8594
100003.8469
100003.8301
100003.8138
100003.7983
100003.7846
100003.773
100003.7642
100003.759
100003.7569
100003.7583
100003.7633
100003.7709
100003.7802
100003.7898
100003.7987
100003.8056
100003.8098
100003.812
100003.824
100003.8462
100003.8648
100003.8706
100003.8613
100003.8509
100003.8588
100003.8481
100003.8361
100003.8201
100003.8043
100003.7892
100003.7758