/*--------------------------------*- C++ -*----------------------------------*\
  =========                 |
  \\      /  F ield         | OpenFOAM: The Open Source CFD Toolbox
   \\    /   O peration     | Website:  https://openfoam.org
    \\  /    A nd           | Version:  8
     \\/     M anipulation  |
\*---------------------------------------------------------------------------*/
FoamFile
{
    version     2.0;
    format      ascii;
    class       surfaceScalarField;
    location    "1.1";
    object      phi;
}
// * * * * * * * * * * * * * * * * * * * * * * * * * * * * * * * * * * * * * //

dimensions      [1 0 -1 0 0 0 0];

internalField   nonuniform List<scalar> 
197783
(
-2.157105264e-05
3.903411705e-06
1.766738655e-05
-3.569739437e-05
-3.556143133e-06
1.768223394e-05
-4.622978172e-05
-7.708430222e-06
1.824057513e-05
-5.401197393e-05
-1.084384604e-05
1.862580763e-05
-5.919879108e-05
-1.340595528e-05
1.859255461e-05
-6.195583688e-05
-1.550174173e-05
1.825858299e-05
-6.247323111e-05
-1.71569191e-05
1.767412319e-05
-6.114414116e-05
-1.840114887e-05
1.707188463e-05
-5.849176322e-05
-1.92296165e-05
1.657708127e-05
-5.514014522e-05
-1.961996471e-05
1.626820683e-05
-5.18368125e-05
-1.949486929e-05
1.61914135e-05
-4.946619374e-05
-1.872008803e-05
1.634936169e-05
-4.893848458e-05
-1.717621919e-05
1.664841648e-05
-5.080001283e-05
-1.497142651e-05
1.683287429e-05
-5.48732113e-05
-1.271193317e-05
1.678506227e-05
-6.028851938e-05
-1.128393726e-05
1.669918356e-05
-6.635870574e-05
-1.120039786e-05
1.727052783e-05
-7.306181384e-05
-1.255917201e-05
1.926223076e-05
-8.032677308e-05
-1.577979259e-05
2.304471224e-05
-8.666663506e-05
-2.206607731e-05
2.84059086e-05
-8.734518029e-05
-3.370459792e-05
3.438310512e-05
-7.449296893e-05
-5.127341061e-05
3.842115801e-05
-5.063895001e-05
-6.278208835e-05
3.892820592e-05
-5.741180637e-05
-3.288339193e-05
3.965628822e-05
-5.674963152e-05
-3.925600648e-05
3.859393115e-05
-3.875993383e-05
3.498937113e-05
-1.78574141e-05
4.332951137e-06
1.742762021e-05
-3.212489563e-05
-5.446373144e-06
1.615746197e-05
-4.342046666e-05
-1.129131516e-05
1.487821628e-05
-5.190042118e-05
-1.560490622e-05
1.324078639e-05
-5.763872958e-05
-1.898831107e-05
1.132044674e-05
-6.082819184e-05
-2.170253157e-05
9.390045844e-06
-6.183098756e-05
-2.388841821e-05
7.734101243e-06
-6.110563686e-05
-2.561349351e-05
6.486814893e-06
-5.920106334e-05
-2.685168971e-05
5.717336585e-06
-5.670908593e-05
-2.760634885e-05
5.494260028e-06
-5.42929661e-05
-2.779917595e-05
5.888055874e-06
-5.267714204e-05
-2.727929698e-05
6.943268334e-06
-5.252483959e-05
-2.592931845e-05
8.600693242e-06
-5.420185456e-05
-2.387333039e-05
1.057882811e-05
-5.757945073e-05
-2.171146315e-05
1.237704802e-05
-6.218765213e-05
-2.047325707e-05
1.379745301e-05
-6.763288427e-05
-2.100560655e-05
1.525038e-05
-7.412679175e-05
-2.372931361e-05
1.76639974e-05
-8.192774256e-05
-2.920864144e-05
2.122976465e-05
-8.928816304e-05
-3.891211609e-05
2.420644036e-05
-8.837543164e-05
-5.551052999e-05
2.089314309e-05
-6.842740495e-05
-7.709464204e-05
5.873084297e-06
-3.735235137e-05
-8.764582144e-05
-6.211087021e-06
-4.413109372e-05
-5.231473137e-05
2.621007557e-05
-5.067778025e-05
-5.836499937e-05
2.565576836e-05
-5.748592056e-05
1.649874513e-05
-1.623560508e-05
2.678863712e-06
1.788943612e-05
-3.09859463e-05
-6.288476444e-06
1.559219466e-05
-4.292470059e-05
-1.249781949e-05
1.314501918e-05
-5.175785555e-05
-1.704740031e-05
1.027542013e-05
-5.749703945e-05
-2.042925513e-05
7.17990914e-06
-6.051766569e-05
-2.302304207e-05
4.340928958e-06
-6.133773563e-05
-2.507447484e-05
2.005931929e-06
-6.047134615e-05
-2.676933547e-05
2.892732751e-07
-5.851040086e-05
-2.815877706e-05
-6.540203356e-07
-5.600646445e-05
-2.921359633e-05
-8.968342599e-07
-5.355773295e-05
-2.985205342e-05
-3.959838485e-07
-5.189512739e-05
-2.996027984e-05
1.018261093e-06
-5.171507064e-05
-2.945722166e-05
3.34774053e-06
-5.34912363e-05
-2.840083118e-05
6.303570443e-06
-5.72520131e-05
-2.72839587e-05
9.3331862e-06
-6.258969235e-05
-2.702981436e-05
1.18941587e-05
-6.934172035e-05
-2.845137656e-05
1.419772507e-05
-7.818920239e-05
-3.177293477e-05
1.689103568e-05
-8.955068161e-05
-3.716270477e-05
1.931548235e-05
-9.937638836e-05
-4.483706275e-05
1.575057731e-05
-9.55519154e-05
-5.470597471e-05
-4.629154314e-06
-6.531028349e-05
-6.930272205e-05
-3.803339528e-05
-1.719303105e-05
-7.693042007e-05
-5.883181253e-05
-2.410048981e-05
-5.534469245e-05
9.937395808e-06
-4.641385384e-05
-5.610583928e-05
2.005431481e-05
-6.234528152e-05
5.359843462e-06
-1.542346093e-05
7.859225726e-08
1.802347363e-05
-3.030678907e-05
-6.599117781e-06
1.519371817e-05
-4.257407197e-05
-1.237600697e-05
1.214522956e-05
-5.158398994e-05
-1.657241794e-05
8.534704946e-06
-5.731155703e-05
-1.948276093e-05
4.780852222e-06
-6.014768138e-05
-2.153652098e-05
1.349394019e-06
-6.077332965e-05
-2.307618687e-05
-1.372834893e-06
-5.987182922e-05
-2.444121422e-05
-3.229800146e-06
-5.797836976e-05
-2.573714324e-05
-4.315253481e-06
-5.557630122e-05
-2.694626492e-05
-4.669542012e-06
-5.324378427e-05
-2.799358927e-05
-4.191106946e-06
-5.167825526e-05
-2.880487785e-05
-2.721044596e-06
-5.157670902e-05
-2.935502398e-05
-2.038525243e-07
-5.362630599e-05
-2.973682583e-05
3.385490622e-06
-5.788262896e-05
-3.028502839e-05
7.2572971e-06
-6.386801429e-05
-3.177886432e-05
1.073434292e-05
-7.121772323e-05
-3.48160865e-05
1.371432498e-05
-8.014001149e-05
-3.941852017e-05
1.656777461e-05
-8.954831888e-05
-4.536113099e-05
1.760663134e-05
-9.319870319e-05
-4.981937933e-05
8.63260488e-06
-8.671955091e-05
-4.088993196e-05
-2.029523865e-05
-5.994597086e-05
-3.50009337e-05
-6.10749462e-05
-1.944865354e-05
-3.734174304e-05
-8.008521478e-05
-2.377613395e-05
-4.579100308e-05
-5.226117193e-06
-4.746531216e-05
-4.613068119e-05
1.371417667e-05
-5.899012693e-05
-2.085795801e-06
-1.508868119e-05
-2.609474835e-06
1.777648643e-05
-2.962256286e-05
-6.663383071e-06
1.45978924e-05
-4.192463942e-05
-1.141269575e-05
1.133852145e-05
-5.104695584e-05
-1.497743261e-05
7.527097761e-06
-5.68470368e-05
-1.723754785e-05
3.55464533e-06
-5.967261958e-05
-1.85835215e-05
-1.276268142e-07
-6.035559632e-05
-1.948065123e-05
-2.912753501e-06
-5.956595789e-05
-2.034963858e-05
-4.8813903e-06
-5.781660076e-05
-2.137502646e-05
-6.111630464e-06
-5.560362716e-05
-2.258201013e-05
-6.57736571e-06
-5.35396857e-05
-2.393372091e-05
-6.123930584e-06
-5.237295442e-05
-2.542555865e-05
-4.546159899e-06
-5.286031517e-05
-2.71360687e-05
-1.731699764e-06
-5.555795734e-05
-2.924351532e-05
2.20422794e-06
-6.033380901e-05
-3.215361815e-05
6.644336492e-06
-6.6201695e-05
-3.659397894e-05
1.068288881e-05
-7.185477335e-05
-4.327685041e-05
1.411371253e-05
-7.539315775e-05
-5.31190284e-05
1.723873506e-05
-7.336894177e-05
-6.675476921e-05
1.936924025e-05
-6.542100229e-05
-7.537819672e-05
1.761070735e-05
-6.730787004e-05
-4.751987576e-05
8.516593857e-06
-6.332330276e-05
-3.316319952e-05
-5.822439721e-06
-6.093625922e-05
-2.712031214e-05
-1.260846337e-05
-6.257659537e-05
-4.772561298e-05
3.574911732e-06
-6.03325614e-05
-5.065327821e-05
2.278572208e-06
-5.69393931e-05
-6.463880755e-06
-1.447437857e-05
-5.253015354e-06
1.711765351e-05
-2.81772696e-05
-6.976037278e-06
1.401528612e-05
-4.022071585e-05
-1.028725093e-05
1.091775302e-05
-4.948326849e-05
-1.299162221e-05
7.27650535e-06
-5.56083022e-05
-1.451410377e-05
3.40136501e-06
-5.882805348e-05
-1.510105925e-05
-2.629214927e-07
-5.989999721e-05
-1.527798515e-05
-3.130915794e-06
-5.949581824e-05
-1.553942965e-05
-5.21456145e-06
-5.815106944e-05
-1.616752498e-05
-6.552402722e-06
-5.642282292e-05
-1.72548759e-05
-7.055512935e-06
-5.500963752e-05
-1.884224108e-05
-6.504780616e-06
-5.474836061e-05
-2.103380087e-05
-4.653139757e-06
-5.640743592e-05
-2.405537462e-05
-1.421721224e-06
-6.044939265e-05
-2.821487175e-05
3.013210231e-06
-6.654149628e-05
-3.396541991e-05
7.903796423e-06
-7.381934708e-05
-4.182028162e-05
1.250402732e-05
-8.103824821e-05
-5.279159652e-05
1.673348448e-05
-8.42638483e-05
-6.96321751e-05
1.973850961e-05
-7.621136792e-05
-9.289856096e-05
1.80909398e-05
-5.809232065e-05
-0.0001052018435
1.170429827e-05
-6.048982954e-05
-6.469926702e-05
1.957660772e-05
-5.999428265e-05
-5.554125762e-05
2.188234076e-05
-5.618175703e-05
-4.852232426e-05
1.758941253e-05
-6.095832747e-05
-5.246560064e-05
9.516479317e-06
-6.124007898e-05
-5.280852278e-05
2.436990915e-06
-5.377330521e-05
-5.986766869e-06
-1.307273329e-05
-8.234812681e-06
1.605426042e-05
-2.541506174e-05
-7.970655131e-06
1.333668123e-05
-3.689962704e-05
-9.56890778e-06
1.076596765e-05
-4.637361951e-05
-1.12112072e-05
7.693335934e-06
-5.318269045e-05
-1.195114083e-05
4.245880961e-06
-5.729060417e-05
-1.180116265e-05
8.078064062e-07
-5.921570221e-05
-1.124893695e-05
-2.104142056e-06
-5.958441937e-05
-1.088908438e-05
-4.281798691e-06
-5.903530955e-05
-1.1066752e-05
-5.650030902e-06
-5.824347608e-05
-1.199269595e-05
-6.054140187e-06
-5.8033014e-05
-1.383145173e-05
-5.221361045e-06
-5.930529311e-05
-1.68483554e-05
-2.913265319e-06
-6.271939942e-05
-2.141209013e-05
7.707283616e-07
-6.859516093e-05
-2.791066027e-05
5.571460253e-06
-7.660325656e-05
-3.631374802e-05
1.035632816e-05
-8.678226351e-05
-4.64263776e-05
1.47849834e-05
-9.792457413e-05
-5.946952325e-05
1.782004365e-05
-0.0001009842733
-7.991540302e-05
1.334248805e-05
-8.039095746e-05
-0.000106275348
-7.2173368e-06
-3.750148847e-05
-0.0001176290224
-3.046258741e-05
-3.369643285e-05
-7.345908982e-05
4.954232465e-06
-4.742042534e-05
-6.300241962e-05
2.118484439e-05
-5.504166475e-05
-5.546016455e-05
1.455884239e-05
-5.993819602e-05
-5.619996051e-05
8.63075145e-06
-6.13733957e-05
-5.446091696e-05
3.087535392e-06
-5.171826902e-05
-2.740700914e-06
-1.14538233e-05
-1.159062793e-05
1.480936273e-05
-2.19817566e-05
-1.00436216e-05
1.260062776e-05
-3.231965413e-05
-9.948776218e-06
1.071750391e-05
-4.175324154e-05
-1.039328216e-05
8.615414655e-06
-4.941624739e-05
-1.030221015e-05
6.013844796e-06
-5.489321761e-05
-9.452816007e-06
3.12841253e-06
-5.81838851e-05
-8.244845426e-06
2.863859722e-07
-5.987366432e-05
-7.301079768e-06
-1.89839279e-06
-6.068712566e-05
-7.046884773e-06
-3.206549642e-06
-6.142153639e-05
-7.893469416e-06
-3.364937017e-06
-6.301366253e-05
-1.01323912e-05
-2.107036197e-06
-6.623473219e-05
-1.420832972e-05
5.809584623e-07
-7.167347297e-05
-2.047319095e-05
4.499773927e-06
-7.941934708e-05
-2.856278703e-05
8.397945224e-06
-9.012102297e-05
-3.727068282e-05
1.165854986e-05
-0.0001053117778
-4.511014463e-05
1.387442134e-05
-0.0001216576303
-5.308157789e-05
9.957646501e-06
-0.0001228114253
-6.584932865e-05
-1.291285755e-05
-8.867217107e-05
-8.295263534e-05
-5.746225548e-05
-1.508389118e-05
-9.28582514e-05
-9.835790152e-05
5.504153968e-07
-6.160816989e-05
-2.748567056e-05
-3.139022499e-05
-5.042761177e-05
1.936549895e-05
-4.637995603e-05
-5.366016873e-05
1.318946066e-05
-5.467508012e-05
-5.497039211e-05
7.065396826e-06
-5.911854523e-05
-5.381905017e-05
3.801525196e-06
-5.007813997e-05
1.726689053e-06
-1.041141952e-05
-1.493575568e-05
1.37562648e-05
-1.948958928e-05
-1.283648433e-05
1.187075336e-05
-2.842606783e-05
-1.158200308e-05
1.056943539e-05
-3.718041742e-05
-1.10825451e-05
9.443357039e-06
-4.515004041e-05
-1.049421187e-05
8.161388914e-06
-5.175442568e-05
-9.340531444e-06
6.491888243e-06
-5.672236698e-05
-7.7533447e-06
4.47625319e-06
-6.028285225e-05
-6.298519145e-06
2.557762815e-06
-6.300271893e-05
-5.682708566e-06
1.355554353e-06
-6.575192799e-05
-6.538814719e-06
1.394444249e-06
-6.939429506e-05
-9.339811668e-06
2.849704618e-06
-7.449644463e-05
-1.4381907e-05
5.275673397e-06
-8.113046916e-05
-2.140055726e-05
7.561367058e-06
-8.927932175e-05
-2.911034248e-05
8.696402569e-06
-0.0001001228835
-3.531566646e-05
8.888533085e-06
-0.0001145478963
-3.806279783e-05
7.377610043e-06
-0.000125415626
-3.732114998e-05
-4.892909112e-06
-0.0001191160978
-3.153673743e-05
-4.06123402e-05
-8.530789203e-05
-1.794952602e-05
-9.881045415e-05
-1.919051671e-05
-1.892926547e-05
-0.0001400443772
6.900782199e-06
-3.054810297e-05
-5.715143516e-05
-2.12585048e-05
-2.860693948e-05
6.338344837e-06
-4.243078408e-05
-4.086252668e-05
8.37439688e-06
-5.148508665e-05
-4.761795816e-05
1.701726529e-06
-5.615146436e-05
-4.930156477e-05
1.48838492e-07
-4.684536551e-05
2.175148591e-06
-1.008108641e-05
-1.802928497e-05
1.317432545e-05
-1.858209474e-05
-1.571872597e-05
1.138296357e-05
-2.661321861e-05
-1.383345971e-05
1.028230344e-05
-3.446177283e-05
-1.289651943e-05
9.66226572e-06
-4.190711567e-05
-1.242010219e-05
9.37099029e-06
-4.862458044e-05
-1.174223136e-05
9.118947439e-06
-5.443311118e-05
-1.060482369e-05
8.659822544e-06
-5.945827856e-05
-9.285736769e-06
8.01223052e-06
-6.411174272e-05
-8.500037786e-06
7.470672861e-06
-6.902494285e-05
-9.104808951e-06
7.47910905e-06
-7.466254991e-05
-1.175006132e-05
8.047809127e-06
-8.079188768e-05
-1.656576141e-05
8.31318407e-06
-8.614361813e-05
-2.296450527e-05
6.915703225e-06
-8.900998358e-05
-2.963624856e-05
3.392307103e-06
-8.826510495e-05
-3.515800628e-05
-9.025268568e-07
-8.456104287e-05
-3.810118213e-05
-3.665733813e-06
-8.002449121e-05
-3.659668427e-05
-5.261207858e-06
-7.642627966e-05
-2.611239491e-05
-9.022928419e-06
-7.115820495e-05
-1.125278007e-06
-2.20927611e-05
-6.254760121e-05
1.183203547e-05
-3.937214947e-05
-5.018065849e-05
-1.579610337e-05
-2.711929346e-05
-5.006461458e-05
-2.58074949e-05
-2.915868956e-06
-5.249275201e-05
-3.551966988e-05
-2.914958206e-06
-5.193122351e-05
-4.118233967e-05
-6.997259165e-06
-5.143545464e-05
-4.238378997e-05
-7.413552318e-06
-3.923046643e-05
-4.943273904e-06
-1.000038799e-05
-2.120777034e-05
1.317857414e-05
-1.824198494e-05
-1.879483925e-05
1.131741568e-05
-2.563779528e-05
-1.668060331e-05
1.024266983e-05
-3.253878858e-05
-1.561107956e-05
9.61528483e-06
-3.892811545e-05
-1.546011227e-05
9.429089483e-06
-4.47988876e-05
-1.549821853e-05
9.626538838e-06
-5.03544648e-05
-1.509835679e-05
1.004892243e-05
-5.601295905e-05
-1.411797914e-05
1.049058639e-05
-6.231961883e-05
-1.300071515e-05
1.080722885e-05
-6.972405615e-05
-1.259812732e-05
1.089769327e-05
-7.802760659e-05
-1.371554674e-05
1.026902224e-05
-8.592271319e-05
-1.655764603e-05
7.88702466e-06
-9.129394797e-05
-2.056236815e-05
2.969165226e-06
-9.275549859e-05
-2.478957968e-05
-3.385039623e-06
-9.048958809e-05
-2.837899785e-05
-9.044850087e-06
-8.564423974e-05
-3.058878915e-05
-1.235769097e-05
-8.017408443e-05
-3.037846188e-05
-1.168837547e-05
-7.352082918e-05
-2.673625209e-05
-6.029461231e-06
-5.887352072e-05
-1.85498906e-05
2.777225596e-06
-4.55059602e-05
-8.221597843e-06
6.685968535e-06
-5.00533823e-05
-1.435184879e-05
3.102932424e-06
-5.396221135e-05
-2.140206957e-05
-4.967476635e-07
-5.41419752e-05
-2.709937689e-05
-8.240617401e-06
-4.937413791e-05
-3.203340732e-05
-1.391676903e-05
-4.304276838e-05
-3.394419193e-05
-1.477088561e-05
-3.187137161e-05
-1.019362977e-05
-1.065087065e-05
-2.440894289e-05
1.385173407e-05
-1.923393436e-05
-2.197790499e-05
1.176582573e-05
-2.658854321e-05
-2.003711449e-05
1.071082816e-05
-3.29641622e-05
-1.915912101e-05
9.923386698e-06
-3.833922937e-05
-1.939047186e-05
9.30517713e-06
-4.290716634e-05
-1.998123632e-05
9.05073467e-06
-4.731052518e-05
-2.004174535e-05
9.346561866e-06
-5.254015527e-05
-1.898841468e-05
1.009991989e-05
-5.961508953e-05
-1.681558679e-05
1.088970643e-05
-6.889809959e-05
-1.430286184e-05
1.098769888e-05
-7.918223694e-05
-1.277560516e-05
9.344208749e-06
-8.774306057e-05
-1.294409861e-05
4.9473442e-06
-9.206765151e-05
-1.424822169e-05
-1.989449323e-06
-9.166068863e-05
-1.577065418e-05
-9.425763102e-06
-8.67078184e-05
-1.713117196e-05
-1.620055509e-05
-7.788720415e-05
-1.820489086e-05
-2.120436365e-05
-6.654775399e-05
-1.840217493e-05
-2.331560677e-05
-5.556410047e-05
-1.64875282e-05
-2.123231148e-05
-4.922034937e-05
-1.114266347e-05
-1.375098308e-05
-4.944560538e-05
-5.117067464e-06
-2.87927871e-06
-5.649513399e-05
-8.105703579e-06
8.033626074e-07
-5.99646266e-05
-1.29623139e-05
-4.970263596e-06
-5.690314873e-05
-1.708677981e-05
-1.307400889e-05
-4.892176678e-05
-2.10640602e-05
-1.895059736e-05
-3.845341665e-05
-2.409094376e-05
-2.032141753e-05
-2.479821944e-05
-1.563051071e-05
-1.225262624e-05
-2.734524844e-05
1.518861248e-05
-2.184201105e-05
-2.492761718e-05
1.253878411e-05
-2.970453413e-05
-2.33486363e-05
1.117374617e-05
-3.592225396e-05
-2.278435861e-05
9.842680489e-06
-4.042796476e-05
-2.329515811e-05
8.41014756e-06
-4.354601723e-05
-2.418343001e-05
7.320028521e-06
-4.617958092e-05
-2.459608825e-05
7.187725057e-06
-4.961288821e-05
-2.368588996e-05
8.130642457e-06
-5.524083443e-05
-2.082373393e-05
9.636002029e-06
-6.37083513e-05
-1.629594563e-05
1.046056816e-05
-7.370680892e-05
-1.163391863e-05
8.856804891e-06
-8.211482324e-05
-8.264949494e-06
3.728961185e-06
-8.656042606e-05
-5.898013798e-06
-3.90446298e-06
-8.680107671e-05
-3.478821712e-06
-1.205100736e-05
-8.288079174e-05
-1.583755058e-06
-1.946749256e-05
-7.513552757e-05
-6.898686089e-07
-2.526004287e-05
-6.463890981e-05
-5.694829476e-07
-2.832904173e-05
-5.347283086e-05
-4.361632544e-07
-2.721717256e-05
-4.508070492e-05
9.537104395e-07
-2.048824018e-05
-4.491228109e-05
3.819227176e-06
-9.104468083e-06
-5.491229611e-05
3.891840503e-06
-1.99728731e-06
-6.114224992e-05
-9.732782097e-08
-6.634824865e-06
-5.949495214e-05
-3.89134228e-06
-1.484249075e-05
-5.145344355e-05
-8.151463928e-06
-2.095383008e-05
-3.997801311e-05
-1.293075555e-05
-2.263532527e-05
-1.716830316e-05
-1.833937938e-05
-1.45901871e-05
-2.9759243e-05
1.700385317e-05
-2.547215686e-05
-2.7227137e-05
1.318116913e-05
-3.385367845e-05
-2.584664054e-05
1.08792222e-05
-3.975747996e-05
-2.526442699e-05
8.383590707e-06
-4.320375411e-05
-2.553351782e-05
5.684383705e-06
-4.475401977e-05
-2.62380896e-05
3.604707588e-06
-4.529109846e-05
-2.687733191e-05
2.818141852e-06
-4.580251982e-05
-2.674011e-05
3.565504067e-06
-4.746423782e-05
-2.479968626e-05
5.637582879e-06
-5.149800612e-05
-2.04192069e-05
8.157000216e-06
-5.839889999e-05
-1.421056498e-05
9.477576836e-06
-6.694565604e-05
-7.664406859e-06
7.946320754e-06
-7.45321064e-05
-1.33994044e-06
3.028553881e-06
-7.879519666e-05
4.934313628e-06
-4.149807842e-06
-7.880088668e-05
1.038631616e-05
-1.19640928e-05
-7.438975641e-05
1.382631974e-05
-1.892697891e-05
-6.673533712e-05
1.51722465e-05
-2.339576259e-05
-5.861764576e-05
1.522744105e-05
-2.378088212e-05
-5.395666523e-05
1.515866075e-05
-1.886551742e-05
-5.547072064e-05
1.520836216e-05
-9.874662101e-06
-6.154530264e-05
1.339818615e-05
-3.431332056e-06
-6.606536573e-05
9.471551951e-06
-5.04835814e-06
-6.459781182e-05
5.447932118e-06
-1.080640322e-05
-5.708736476e-05
8.887491132e-07
-1.655024933e-05
-4.512673934e-05
-4.874743696e-06
-2.001623827e-05
-1.096573873e-05
-2.047250802e-05
-1.702592762e-05
-3.16439509e-05
1.891030028e-05
-2.881649e-05
-2.872514634e-05
1.328824536e-05
-3.717620339e-05
-2.704368912e-05
9.556453012e-06
-4.246848057e-05
-2.583938779e-05
5.86695343e-06
-4.494024352e-05
-2.518945716e-05
2.127446008e-06
-4.532585996e-05
-2.494210443e-05
-9.105929201e-07
-4.445344802e-05
-2.519206419e-05
-2.55786546e-06
-4.336167508e-05
-2.531312066e-05
-2.518902392e-06
-4.341479737e-05
-2.422456408e-05
-5.220875714e-07
-4.642419503e-05
-2.091229088e-05
3.502454974e-06
-5.326446067e-05
-1.521445089e-05
7.844194747e-06
-6.263365105e-05
-8.130046838e-06
9.834950265e-06
-7.132036322e-05
-8.80963675e-07
8.227935864e-06
-7.656250109e-05
6.530891661e-06
3.64583832e-06
-7.730085026e-05
1.383104815e-05
-2.706031923e-06
-7.39942404e-05
1.955704636e-05
-9.036919314e-06
-6.80352816e-05
2.294638789e-05
-1.373262172e-05
-6.200991527e-05
2.428817262e-05
-1.508557047e-05
-5.911861546e-05
2.454225365e-05
-1.227433451e-05
-6.113960675e-05
2.40954129e-05
-6.865481607e-06
-6.616990412e-05
2.19932376e-05
-3.564170622e-06
-6.957231131e-05
1.831103633e-05
-5.436507685e-06
-6.823450571e-05
1.426426366e-05
-1.015359194e-05
-6.1073191e-05
9.57421141e-06
-1.584626388e-05
-4.874954267e-05
3.876065143e-06
-2.107397555e-05
-2.466038751e-06
-2.470372908e-05
-1.886508024e-05
-3.306340498e-05
2.028419501e-05
-3.067071228e-05
-2.948624788e-05
1.256640156e-05
-3.842909593e-05
-2.719585314e-05
7.910231031e-06
-4.303683189e-05
-2.509017633e-05
3.858230391e-06
-4.477764834e-05
-2.30184335e-05
-4.304741755e-07
-4.436506311e-05
-2.100474774e-05
-4.350176514e-06
-4.234663252e-05
-1.981945179e-05
-7.391237244e-06
-3.955316534e-05
-1.93287141e-05
-8.778019872e-06
-3.729801445e-05
-1.863821218e-05
-7.84159426e-06
-3.744913739e-05
-1.666349373e-05
-4.097704105e-06
-4.187764991e-05
-1.263701759e-05
1.851118517e-06
-5.052288632e-05
-6.737916943e-06
7.253224559e-06
-6.024252142e-05
2.957525354e-07
8.543135399e-06
-6.730507467e-05
7.264549401e-06
6.329198949e-06
-7.031623638e-05
1.441991076e-05
2.422687067e-06
-6.94675841e-05
2.090157213e-05
-2.192709507e-06
-6.603897417e-05
2.56703439e-05
-6.152023231e-06
-6.216805097e-05
2.872752391e-05
-8.309667022e-06
-6.035716279e-05
3.066691513e-05
-7.934892518e-06
-6.199216062e-05
3.181573293e-05
-6.084633359e-06
-6.587140604e-05
3.155593543e-05
-5.682756196e-06
-6.874304362e-05
2.969705443e-05
-8.513706855e-06
-6.804430723e-05
2.687885756e-05
-1.331269701e-05
-6.234567346e-05
2.314897885e-05
-1.927281556e-05
-5.143536936e-05
1.831682607e-05
-2.535052279e-05
1.197036542e-05
-3.04514479e-05
-1.969087012e-05
-3.395059906e-05
2.05777224e-05
-3.055844829e-05
-2.974940748e-05
1.113039961e-05
-3.712345005e-05
-2.696953652e-05
6.338359217e-06
-4.102051901e-05
-2.424681222e-05
3.05339927e-06
-4.264390058e-05
-2.077318362e-05
-6.221471965e-07
-4.233620044e-05
-1.637508595e-05
-4.937607996e-06
-4.024913734e-05
-1.250640179e-05
-9.40031917e-06
-3.671728872e-05
-1.023548335e-05
-1.2625238e-05
-3.279998545e-05
-8.925050794e-06
-1.36305693e-05
-2.988193453e-05
-7.908239441e-06
-1.167334666e-05
-3.029793902e-05
-5.839781549e-06
-6.381219036e-06
-3.577720234e-05
-2.42380624e-06
1.165219347e-06
-4.594638963e-05
3.502107887e-06
6.963046389e-06
-5.515990227e-05
9.08418115e-06
7.394202834e-06
-6.037815236e-05
1.491428458e-05
4.724287185e-06
-6.17394798e-05
2.107038754e-05
1.19300739e-06
-6.054669746e-05
2.661155395e-05
-2.133416391e-06
-5.869585547e-05
3.124114032e-05
-4.363809866e-06
-5.82241638e-05
3.525382034e-05
-5.057890039e-06
-6.024215688e-05
3.866670576e-05
-4.832235327e-06
-6.390563036e-05
4.079072486e-05
-5.570563495e-06
-6.683440083e-05
4.127219238e-05
-8.645640153e-06
-6.688715926e-05
4.058700309e-05
-1.365471053e-05
-6.29510511e-05
3.899507348e-05
-1.978158412e-05
-5.514084131e-05
3.681809806e-05
-2.63109106e-05
3.449184082e-05
-3.397752868e-05
-1.952607564e-05
-3.433819581e-05
1.991332796e-05
-2.880677294e-05
-2.953486841e-05
9.065813667e-06
-3.325820124e-05
-2.665245751e-05
4.134013899e-06
-3.55558719e-05
-2.418283918e-05
2.233379906e-06
-3.694089494e-05
-2.049737767e-05
1.108925092e-06
-3.767849127e-05
-1.433054682e-05
-1.307203319e-06
-3.754595624e-05
-6.536142062e-06
-6.103019344e-06
-3.585256637e-05
-5.531620902e-07
-1.13758937e-05
-3.220800022e-05
1.833190084e-06
-1.44029411e-05
-2.796174739e-05
2.449922805e-06
-1.460445914e-05
-2.479611603e-05
2.616068496e-06
-1.162142604e-05
-2.52074029e-05
3.38746908e-06
-5.399849023e-06
-3.323593814e-05
8.500649785e-06
3.03024408e-06
-4.326749459e-05
1.240103082e-05
6.715035834e-06
-4.983369748e-05
1.637093532e-05
5.109964057e-06
-5.260877947e-05
2.146639548e-05
2.379567656e-06
-5.284985892e-05
2.716579848e-05
-3.125922513e-07
-5.243180875e-05
3.293367719e-05
-2.109941109e-06
-5.305422408e-05
3.868606038e-05
-2.8091197e-06
-5.563172585e-05
4.40465197e-05
-2.801569398e-06
-5.943482259e-05
4.816732422e-05
-3.572753105e-06
-6.24886975e-05
5.074688749e-05
-6.420095304e-06
-6.274587609e-05
5.214764159e-05
-1.130279276e-05
-5.871564218e-05
5.237362705e-05
-1.740819087e-05
-4.957074549e-05
5.169901064e-05
-2.402528506e-05
4.97982706e-05
-3.093121589e-05
-1.889580508e-05
-3.458110635e-05
1.913836798e-05
-2.714223283e-05
-2.84708491e-05
7.182058036e-06
-2.929032448e-05
-2.530415562e-05
7.994467022e-07
-2.85405645e-05
-2.380157365e-05
-1.131354115e-06
-2.756279601e-05
-2.195776318e-05
4.823096934e-07
-2.853640772e-05
-1.764415649e-05
4.286942152e-06
-3.097463722e-05
-9.460152662e-06
5.361993368e-06
-3.278422914e-05
1.518958257e-06
-2.627557076e-07
-3.330408567e-05
8.740988705e-06
-6.388182115e-06
-3.196887893e-05
1.03674025e-05
-9.253001061e-06
-2.918138922e-05
9.063575297e-06
-9.235465443e-06
-2.217465927e-05
2.948528244e-06
-6.568986886e-06
-2.781755941e-05
1.322687656e-05
9.167751407e-07
-3.571802012e-05
1.5640672e-05
4.661084765e-06
-4.116804041e-05
1.795804744e-05
3.863280454e-06
-4.374977206e-05
2.182121825e-05
2.227363083e-06
-4.45006321e-05
2.720767614e-05
7.095138691e-07
-4.488382339e-05
3.357603043e-05
-2.585607807e-07
-4.61935007e-05
4.033752396e-05
-3.411280494e-07
-4.910791434e-05
4.6767689e-05
1.939405807e-07
-5.299459684e-05
5.19238584e-05
1.308500829e-07
-5.612043636e-05
5.580768438e-05
-1.934277749e-06
-5.699497145e-05
5.942189848e-05
-6.39910513e-06
-5.398824993e-05
6.152340657e-05
-1.215595966e-05
-4.665526909e-05
6.263051065e-05
-1.826401599e-05
6.289894751e-05
-2.510531735e-05
-1.801532571e-05
-3.587951234e-05
1.931338164e-05
-2.677217505e-05
-2.709952675e-05
7.385172724e-06
-2.835984422e-05
-2.262299125e-05
-1.093841664e-06
-2.56941856e-05
-2.141860261e-05
-5.048962173e-06
-2.159759822e-05
-2.147541815e-05
-4.579247021e-06
-1.844533607e-05
-2.119145748e-05
3.947448709e-07
-1.88478797e-05
-1.838838808e-05
9.330515667e-06
-2.290852025e-05
-8.836044589e-06
1.441543113e-05
-2.845946653e-05
5.980956421e-06
8.310836134e-06
-3.125963904e-05
1.026862984e-05
2.89890322e-06
-3.07997509e-05
8.831447448e-06
-2.275431201e-07
-2.42368268e-05
2.352356265e-06
-5.965839838e-06
-2.751456629e-05
1.38704995e-05
2.634764769e-06
-3.169471714e-05
1.540700749e-05
4.414156261e-06
-3.482230531e-05
1.812633544e-05
2.959627459e-06
-3.62996387e-05
2.156114664e-05
1.73778471e-06
-3.678692645e-05
2.639849735e-05
1.296917714e-06
-3.737185033e-05
3.25580311e-05
1.60344089e-06
-3.888219899e-05
3.931792081e-05
2.530520753e-06
-4.163741411e-05
4.556569547e-05
3.957808916e-06
-4.502723355e-05
5.021025866e-05
5.104030034e-06
-4.754570065e-05
5.399410408e-05
4.33264474e-06
-4.916361226e-05
6.089688391e-05
1.434548082e-07
-4.715381582e-05
6.45169925e-05
-5.002914941e-06
-4.097140467e-05
6.695135172e-05
-1.050285834e-05
6.868661918e-05
-1.597596031e-05
-1.658346822e-05
-3.95292636e-05
2.023286885e-05
-2.697871831e-05
-2.75724457e-05
1.086781272e-05
-2.957097462e-05
-2.14460631e-05
1.414978284e-06
-2.648654631e-05
-1.98709836e-05
-4.632383139e-06
-2.095050181e-05
-2.008509151e-05
-6.926690111e-06
-1.551282227e-05
-2.118013729e-05
-5.449305123e-06
-1.254894232e-05
-2.175231412e-05
3.997403099e-07
-1.524374138e-05
-1.664154235e-05
1.049992868e-05
-2.439906174e-05
-2.397143346e-06
1.753291184e-05
-3.586605941e-05
1.244754668e-05
9.287278047e-06
-4.281277724e-05
2.121490554e-05
-5.437818157e-06
-6.177000038e-06
3.415555801e-05
-6.844469495e-05
-1.540445929e-05
2.160078696e-05
1.498289518e-06
-2.417724755e-05
2.168062363e-05
2.498553438e-06
-2.872404165e-05
2.094152942e-05
1.731663271e-06
-3.053393176e-05
2.193766323e-05
1.433617137e-06
-3.095584525e-05
2.500318754e-05
1.817565504e-06
-3.154030641e-05
2.986808026e-05
3.274820785e-06
-3.316528648e-05
3.571713787e-05
5.226218796e-06
-3.56615504e-05
4.080238763e-05
7.260056341e-06
-3.752032502e-05
4.312342369e-05
8.946112258e-06
-3.731831867e-05
4.417022144e-05
9.622400611e-06
-3.95831868e-05
5.531152792e-05
7.850684468e-06
-3.934661949e-05
6.093504597e-05
3.345773393e-06
-3.469565929e-05
6.404785173e-05
-1.747132451e-06
6.598760423e-05
-5.869036739e-06
-1.53818444e-05
-4.409695061e-05
1.994918226e-05
-2.754282707e-05
-3.149082293e-05
1.607900652e-05
-3.257776368e-05
-2.441963438e-05
8.008158529e-06
-3.059875184e-05
-2.292267998e-05
1.07235017e-06
-2.460937125e-05
-2.246267092e-05
-3.612117268e-06
-1.747937699e-05
-2.243060929e-05
-5.87982174e-06
-1.150493272e-05
-2.297948679e-05
-4.747558774e-06
-6.251586357e-06
-2.210588343e-05
2.107040085e-07
-4.746441871e-06
-1.601426099e-05
1.211174579e-05
-1.075786614e-05
-3.255876067e-06
2.171465995e-05
-1.711443571e-05
6.493344206e-06
2.107798985e-05
-1.591971095e-05
1.690815227e-05
1.605242287e-05
-2.172188784e-05
1.342965593e-05
1.397355446e-05
-2.504663609e-05
1.573081904e-05
9.274615681e-06
-2.720760221e-05
1.766278723e-05
5.439845419e-06
-2.813814956e-05
1.94019045e-05
3.466500581e-06
-2.851433351e-05
2.180559665e-05
3.574026534e-06
-2.961786031e-05
2.553864205e-05
5.433264733e-06
-3.23925529e-05
3.058988299e-05
7.902286129e-06
-3.575129353e-05
3.541064525e-05
8.750853676e-06
-3.506473216e-05
3.740159624e-05
5.03568265e-06
-2.797139286e-05
3.668908147e-05
3.883857473e-07
-2.831886578e-05
4.123895333e-05
1.442043171e-05
-3.140711463e-05
5.17822343e-05
1.224137415e-05
-2.927497764e-05
5.359331707e-05
8.322654861e-06
5.558362334e-05
5.172491131e-06
-1.43505232e-05
-4.677605804e-05
1.702928076e-05
-2.758905855e-05
-3.695580866e-05
1.870317557e-05
-3.479516464e-05
-2.98825222e-05
1.266865669e-05
-3.472915696e-05
-2.878344577e-05
5.794430521e-06
-2.960160358e-05
-2.744317607e-05
-1.473644194e-07
-2.250786362e-05
-2.456713176e-05
-4.957526123e-06
-1.491100591e-05
-2.31705545e-05
-7.406090981e-06
-7.867263744e-06
-2.238054313e-05
-6.769383282e-06
-2.969064631e-06
-1.921280876e-05
-1.699962876e-06
-1.621508809e-06
-1.193183945e-05
7.328024963e-06
-3.781891993e-06
-4.95113583e-06
1.360450997e-05
-4.733996482e-06
2.653283216e-06
1.520635747e-05
-1.197425551e-05
4.850943992e-06
1.581899914e-05
-1.890322976e-05
9.759709909e-06
1.290006363e-05
-2.36812616e-05
1.383107207e-05
8.609808683e-06
-2.63204251e-05
1.561635094e-05
6.424835366e-06
-2.759901362e-05
1.658808203e-05
6.49626501e-06
-2.868292564e-05
1.810908187e-05
8.513667737e-06
-3.049249501e-05
2.07678168e-05
1.163185675e-05
-3.289167886e-05
2.361347449e-05
1.419659581e-05
-3.313328552e-05
2.385348071e-05
1.378997518e-05
-2.765709161e-05
1.853743801e-05
1.267571009e-05
-2.136589134e-05
1.025801609e-05
2.468998941e-05
-2.544212577e-05
3.588651181e-05
1.997215744e-05
-2.58026278e-05
3.609714531e-05