/*--------------------------------*- C++ -*----------------------------------*\
  =========                 |
  \\      /  F ield         | OpenFOAM: The Open Source CFD Toolbox
   \\    /   O peration     | Website:  https://openfoam.org
    \\  /    A nd           | Version:  8
     \\/     M anipulation  |
\*---------------------------------------------------------------------------*/
FoamFile
{
    version     2.0;
    format      ascii;
    class       scalarField;
    location    "0.4/lagrangian/reactingCloud1";
    object      age;
}
// * * * * * * * * * * * * * * * * * * * * * * * * * * * * * * * * * * * * * //


75
(
0.288344989
0.2829967602
0.2827554906
0.2816827513
0.280258009
0.2761933657
0.2760565733
0.2753716201
0.270357393
0.267879143
0.2102532776
0.2100879022
0.1954801178
0.1992565606
0.1868377104
0.186452859
0.1844110763
0.1840887407
0.1824461884
0.1818609471
0.1815245885
0.179658599
0.1775244315
0.1758167716
0.1753911222
0.1744047791
0.2536879555
0.1500808165
0.1381606074
0.2351391977
0.1598193578
0.2418144163
0.09822904368
0.1962354985
0.1101160655
0.08893727408
0.1061309488
0.1041894817
0.08285695
0.08199418585
0.08134782774
0.07806504896
0.1761577124
0.08810849613
0.07406899149
0.03992576798
0.07209798861
0.05809101794
0.03810872811
0.03693010765
0.03535861371
0.03472019429
0.03403266569
0.07006705935
0.02297420591
0.2308582966
0.01807633914
0.04007309554
0.0171945665
0.01620257228
0.01526568885
0.03805961892
0.01396087864
0.09822904368
0.01121993684
0.01101216024
0.00934994737
0.008311064329
0.0075838462
0.006752739767
0.004882750293
0.004674973685
0.003349022913
0.024063501
0.0004153607262
)


// ************************************************************************* //
