/*--------------------------------*- C++ -*----------------------------------*\
  =========                 |
  \\      /  F ield         | OpenFOAM: The Open Source CFD Toolbox
   \\    /   O peration     | Website:  https://openfoam.org
    \\  /    A nd           | Version:  8
     \\/     M anipulation  |
\*---------------------------------------------------------------------------*/
FoamFile
{
    version     2.0;
    format      ascii;
    class       scalarField;
    location    "0.4/lagrangian/reactingCloud1";
    object      mass0;
}
// * * * * * * * * * * * * * * * * * * * * * * * * * * * * * * * * * * * * * //


75
(
7.296333848e-08
1.111811827e-07
1.066561166e-07
7.788432806e-08
7.555649612e-08
7.940865153e-08
6.681279355e-08
1.352719727e-07
1.850639014e-07
1.484784027e-07
1.497535067e-07
1.788402238e-07
8.209004009e-08
7.986541783e-08
2.324582045e-07
1.49282071e-07
9.729139547e-08
8.259526041e-07
5.248271957e-07
1.651149403e-07
1.034102511e-07
4.812641841e-07
4.789176816e-07
3.38600712e-07
8.278061496e-08
1.70117006e-07
1.92222723e-07
6.579923365e-08
5.947985035e-07
1.250222661e-07
7.336991387e-08
1.14140254e-07
5.142485021e-07
5.836189516e-07
1.688003553e-07
7.466383813e-07
2.811604831e-07
3.580228652e-07
5.160647999e-07
7.162746428e-08
9.097874265e-08
3.623121088e-07
7.401420068e-08
2.248906554e-07
1.345557628e-07
1.929768323e-07
2.411219972e-07
8.525071341e-07
1.405698708e-07
9.381530066e-08
1.171954611e-07
6.848815745e-08
9.598056925e-08
7.942633149e-07
4.545870525e-07
1.043264644e-07
1.620011912e-07
4.227593135e-07
2.37615054e-07
1.342466857e-07
3.498128126e-07
1.712347604e-07
2.182786099e-07
7.256252021e-08
8.428577032e-08
1.02527538e-07
8.154058542e-08
7.845145981e-08
2.065624642e-07
1.700696595e-07
1.203457087e-07
2.167819202e-07
7.421260065e-08
1.583352594e-07
2.06562465e-07
)


// ************************************************************************* //
