/*--------------------------------*- C++ -*----------------------------------*\
  =========                 |
  \\      /  F ield         | OpenFOAM: The Open Source CFD Toolbox
   \\    /   O peration     | Website:  https://openfoam.org
    \\  /    A nd           | Version:  8
     \\/     M anipulation  |
\*---------------------------------------------------------------------------*/
FoamFile
{
    version     2.0;
    format      ascii;
    class       scalarField;
    location    "0.4/lagrangian/reactingCloud1";
    object      nParticle;
}
// * * * * * * * * * * * * * * * * * * * * * * * * * * * * * * * * * * * * * //


75
(
102.7452224
102.6527652
102.5729419
103.8450528
102.1023052
100.661777
101.4612875
100.3017
101.5539985
101.4454629
100.3520725
115.3800714
8312.940779
194.756765
1219.46903
103.7617407
100.3508213
101.5160768
101.3469857
113.4288158
104.3963519
103.449227
102.4873085
102.988904
105.1806492
106.7684825
100.471341
7730.139713
827.8348575
101.9415957
100.0395713
125.1492407
134.0765698
841.2979736
3007.988991
100.5958803
1817.155796
1355.686546
101.0739667
101.7341286
101.3813333
101.1687527
6637.338948
2209.85271
3770.346577
100.274808
2043.674456
578.3605318
101.2102141
102.2462995
101.9792307
100.4157005
103.1555009
639.249358
116.5823474
101.7543945
100.4178439
1180.174044
100.2821199
732.767722
302.4628186
2939.643518
202.2871309
6915.015559
432.5139559
102.4289215
181.5770279
103.2978083
100.0637155
100.8045445
100.0940536
171.1351471
102.2508359
3179.134927
100.6578728
)


// ************************************************************************* //
