/*--------------------------------*- C++ -*----------------------------------*\
  =========                 |
  \\      /  F ield         | OpenFOAM: The Open Source CFD Toolbox
   \\    /   O peration     | Website:  https://openfoam.org
    \\  /    A nd           | Version:  8
     \\/     M anipulation  |
\*---------------------------------------------------------------------------*/
FoamFile
{
    version     2.0;
    format      ascii;
    class       Cloud<basicReactingMultiphaseParcel>;
    location    "0.4/lagrangian/reactingCloud1";
    object      positions;
}
// * * * * * * * * * * * * * * * * * * * * * * * * * * * * * * * * * * * * * //

75
(
(0.09993457221 0.03047971371 0.1729687459 0.6966169681) 938 2787 1
(0.3067458824 0.08146955937 0.3608670859 0.2509174724) 839 2395 2
(0.2516299898 0.1412743477 0.0131609468 0.5939347157) 139 414 2
(0.1054404168 0.1045694965 0.7222976394 0.06769244731) 1789 5282 2
(0.3936415154 0.09570014434 0.4507011884 0.05995715182) 1855 5477 2
(0.1309901072 0.05627224981 0.7082267141 0.1045109289) 1954 5673 1
(0.1138330853 0.5057569703 0.3199007505 0.06050919385) 2092 6144 2
(0.3016629148 0.3575941139 0.173930895 0.1668120763) 1723 5084 1
(0.07962359267 0.3223995315 0.58904677 0.008930105785) 1691 2105 2
(0.02967428093 0.3247276903 0.08886463844 0.5567333904) 1724 4990 1
(0.1091596282 0.01046248756 0.1033141568 0.7770637275) 9843 28862 1
(0.1509693122 0.08270174803 0.2695878633 0.4967410765) 9841 28858 2
(0.1139417406 0.1973807976 0.3569480236 0.3317294381) 10990 32229 2
(0.4043222628 0.2165079626 0.0143220209 0.3648477537) 12681 37152 2
(0.3582985921 0.1014801584 0.3111012168 0.2291200327) 12857 34989 2
(0.2458083578 0.4366126621 0.06386576565 0.2537132145) 13682 39992 1
(0.7519617152 0.01050884663 0.164757454 0.07277198414) 14504 39828 1
(0.01603294303 0.2271095999 0.4072515635 0.3496058935) 12705 37223 1
(0.05838698884 0.2930951093 0.5604284005 0.08808950136) 13621 37224 2
(0.3451682245 0.1807654788 0.1753463242 0.2987199725) 13621 39896 1
(0.4717366373 0.1046384083 0.2684731978 0.1551517566) 13621 39896 1
(0.4874072718 0.2934470055 0.0105015597 0.2086441631) 13620 39896 1
(0.3740859393 0.3685630451 0.08616987525 0.1711811403) 13620 39898 1
(0.1650995046 0.5842652688 0.1320414376 0.118593789) 14527 42552 1
(0.3876708331 0.151311454 0.2537424294 0.2072752834) 14527 42552 2
(0.4550397486 0.04330880425 0.3083878474 0.1932635998) 14526 42554 1
(0.2555101173 0.1525151714 0.5657608127 0.02621389854) 3184 9350 2
(0.3479217797 0.302430336 0.004593357501 0.3450545268) 22081 62379 2
(0.1832996583 0.1549197277 0.508594824 0.15318579) 20248 59336 2
(0.2245297054 0.3238544836 0.3841465139 0.06746929714) 6146 17935 1
(0.03451557476 0.2330898933 0.464041469 0.2683530629) 17228 50470 2
(0.04055516819 0.05204090193 0.7376260147 0.1697779152) 6053 14919 1
(0.0395168124 0.2246898783 0.4159583831 0.3198349262) 56278 170609 2
(0.2482543621 0.1050763857 0.1342862576 0.5123829946) 6905 20248 1
(0.2910248883 0.5762440794 0.03919344001 0.09353759231) 60934 182044 2
(0.3109769563 0.5057134304 0.1490920742 0.03421753917) 57174 172840 2
(0.3334447895 0.01185434021 0.6515470098 0.003153860478) 27509 83940 2
(0.1267603124 0.03370698814 0.7748751745 0.06465752504) 30227 93010 2
(0.009809035209 0.6533021411 0.2282906937 0.1085981299) 57178 172847 2
(0.1899654852 0.1703311161 0.5345407805 0.1051626182) 24516 73486 1
(0.1608415885 0.3994696247 0.1929854508 0.2467033361) 58287 173440 1
(0.6056895863 0.2079040637 0.1381849533 0.04822139673) 24515 73482 2
(0.6109457046 0.07960371364 0.06509128073 0.2443593011) 12582 34171 2
(0.1046214239 0.2501126861 0.4538602372 0.1914056529) 64780 101555 1
(0.1877511796 0.3382918572 0.02307422128 0.450882742) 66883 194615 1
(0.3109480734 0.123243008 0.2386104863 0.3271984324) 59852 80069 2
(0.02968602021 0.5190135035 0.004746808825 0.4465536675) 65586 193526 1
(0.1635485283 0.0321825946 0.1778264076 0.6264424695) 39321 119804 2
(0.2523566541 0.6202199809 0.1244925596 0.002930805445) 59774 166561 1
(0.2302659629 0.5735250031 0.132968875 0.06324015895) 59774 166561 2
(0.2607132403 0.6184602465 0.119742406 0.001084107179) 59774 166561 2
(0.09569906926 0.2102046778 0.1593251267 0.5347711262) 54728 79945 2
(0.1735737447 0.7255028223 0.03499330303 0.06593012998) 59774 166150 1
(0.3782674811 0.2429151588 0.1594763499 0.2193410103) 66385 195507 1
(0.5598250575 0.09979650539 0.2104410898 0.1299373473) 54725 166686 2
(0.1670859131 0.3344412236 0.4189229563 0.07954990695) 8010 20678 1
(0.2331512612 0.4707453633 0.1353931585 0.1607102171) 59856 166808 2
(0.04098419708 0.1382797116 0.07601133909 0.7447247522) 41095 127595 1
(0.0921726983 0.4180231254 0.4327357823 0.05706839398) 54733 166702 1
(0.2827676514 0.0545247508 0.5240741075 0.1386334902) 54541 202954 1
(0.7133710173 0.1795047364 0.1006864137 0.006437832647) 54725 202892 2
(0.3213944993 0.3205993327 0.1032255742 0.2547805937) 41066 127601 1
(0.3105884342 0.3726791487 0.1396904509 0.1770419662) 54674 166555 2
(0.6532284648 0.05151578024 0.2502046887 0.04505106624) 62253 185241 1
(0.1444141878 0.3312022428 0.04584694961 0.4785366198) 54543 166162 1
(0.02512368655 0.5050750513 0.1851174129 0.2846838492) 54723 166681 2
(0.3503432694 0.3071256311 0.1164434817 0.2260876179) 54674 202947 1
(0.04232225587 0.5031985211 0.1276460029 0.3268332201) 54723 166681 2
(0.3501245606 0.2766837593 0.2944223259 0.0787693542) 54775 203015 2
(0.2400597549 0.2517491352 0.07806192636 0.4301291836) 54732 166704 2
(0.2645079413 0.321721546 0.2059831649 0.2077873478) 54781 203020 1
(0.1093951147 0.4601538964 0.09814201633 0.3323089725) 54625 166429 2
(0.2102823465 0.1608091042 0.4333297221 0.1955788273) 54781 203020 2
(0.4320862456 0.2127614213 0.2167446764 0.1384076566) 43785 208131 1
(0.2775118161 0.337440311 0.3765440519 0.008503821076) 54723 202955 2
)


// ************************************************************************* //
