/*--------------------------------*- C++ -*----------------------------------*\
  =========                 |
  \\      /  F ield         | OpenFOAM: The Open Source CFD Toolbox
   \\    /   O peration     | Website:  https://openfoam.org
    \\  /    A nd           | Version:  8
     \\/     M anipulation  |
\*---------------------------------------------------------------------------*/
FoamFile
{
    version     2.0;
    format      ascii;
    class       scalarField;
    location    "0.4/lagrangian/reactingCloud1";
    object      T;
}
// * * * * * * * * * * * * * * * * * * * * * * * * * * * * * * * * * * * * * //


75
(
300.0000004
300.0000001
299.9999987
300.0000001
300
299.9999996
299.9999976
299.9999999
299.9999996
299.9999996
299.9999954
299.9999955
299.9999982
299.9999867
299.9999982
299.9999982
299.9999938
299.9999981
299.9999981
299.9999981
299.9999981
299.9999979
299.9999977
299.9999975
299.9999974
299.9999972
299.9999977
300
300
299.999978
299.9999742
299.9999388
299.9999845
300
300
299.9999846
300
300
299.9999851
299.9999852
299.9999996
299.9999872
300
300
300
299.9999887
300
300
299.9999891
299.9999892
299.9999892
299.9999904
299.9999892
300
299.9999844
299.9999882
299.9999934
300
299.9999888
299.9999905
299.9999845
300
299.9999843
300
299.9999916
299.9999845
299.9999844
299.9999845
299.999999
299.9999872
299.999999
299.9999846
299.9999989
300
299.9999845
)


// ************************************************************************* //
