/*--------------------------------*- C++ -*----------------------------------*\
  =========                 |
  \\      /  F ield         | OpenFOAM: The Open Source CFD Toolbox
   \\    /   O peration     | Website:  https://openfoam.org
    \\  /    A nd           | Version:  8
     \\/     M anipulation  |
\*---------------------------------------------------------------------------*/
FoamFile
{
    version     2.0;
    format      ascii;
    class       volVectorField;
    location    "1.1/wallFilmRegion";
    object      contactForce:contactAngle;
}
// * * * * * * * * * * * * * * * * * * * * * * * * * * * * * * * * * * * * * //

dimensions      [1 -2 -2 0 0 0 0];

internalField   nonuniform List<vector> 
1369
(
(0 0 0)
(0 -461.6417193 0)
(0 0 0)
(0 0 0)
(0 0 0)
(0 0 0)
(0 0 0)
(0 0 0)
(0 -670.6380871 0)
(0 0 0)
(0 0 0)
(0 0 0)
(0 0 0)
(0 0 0)
(0 0 0)
(0 0 0)
(0 0 0)
(0 0 0)
(0 0 0)
(0 -291.5716817 -8.621526806e-13)
(0 0 0)
(0 0 0)
(0 0 0)
(0 0 0)
(0 0 0)
(0 0 0)
(0 0 0)
(0 0 0)
(0 0 0)
(0 0 0)
(0 0 0)
(0 0 0)
(0 -770.2803397 0)
(0 0 0)
(0 0 0)
(0 0 0)
(0 0 0)
(0 0 0)
(0 0 0)
(2270.259221 2.307581231e-11 -6.15354995e-12)
(0 0 0)
(0 0 0)
(0 0 0)
(0 0 0)
(0 0 0)
(0 0 0)
(0 0 0)
(0 0 0)
(0 0 0)
(0 0 0)
(539.1664399 -494.2359023 0)
(0 0 0)
(0 0 0)
(0 0 0)
(463.3103266 424.701132 0)
(283.2755019 0 0)
(0 -445.8262529 0)
(0 0 0)
(0 0 0)
(0 0 0)
(0 0 0)
(0 0 0)
(866.6428653 -742.8367416 0)
(0 0 0)
(0 0 0)
(0 0 0)
(0 0 0)
(0 0 0)
(0 0 0)
(0 0 0)
(796.022883 -729.6876414 0)
(0 0 0)
(481.091248 441.0003099 0)
(0 0 0)
(0 0 0)
(0 -440.258282 -1.30180632e-12)
(0 0 0)
(0 0 0)
(0 0 0)
(0 0 0)
(0 0 0)
(0 0 0)
(1185.848618 0 0)
(0 0 0)
(0 0 0)
(0 0 0)
(0 0 0)
(0 0 0)
(793.0956288 727.0043251 0)
(0 -706.7909802 0)
(0 0 0)
(0 0 0)
(0 0 0)
(0 0 0)
(334.8628603 0 0)
(0 0 0)
(0 0 0)
(0 0 0)
(0 0 0)
(674.6481321 -618.4274566 0)
(0 0 0)
(0 0 0)
(0 0 0)
(0 0 0)
(0 0 0)
(-909.9745501 834.143336 0)
(1083.228482 -992.959445 0)
(0 0 0)
(0 0 0)
(1064.755561 976.0259344 0)
(472.9936577 0 0)
(-580.9115869 0 0)
(-389.3847963 -356.9360629 0)
(0 0 0)
(0 0 0)
(0 0 0)
(0 0 0)
(0 0 0)
(0 0 0)
(0 0 0)
(0 0 0)
(0 0 0)
(0 0 0)
(0 0 0)
(0 0 0)
(475.6921788 0 0)
(961.4159918 -881.2979909 0)
(0 0 0)
(0 0 0)
(0 0 0)
(0 0 0)
(0 728.5416154 0)
(231.2368454 0 0)
(661.9367722 0 0)
(-526.2217234 0 0)
(-850.8016706 -779.90153 0)
(0 0 0)
(0 0 0)
(0 0 0)
(0 0 0)
(0 0 0)
(0 0 0)
(0 0 0)
(0 0 0)
(0 0 0)
(0 0 0)
(0 0 0)
(0 0 0)
(0 0 0)
(0 0 0)
(0 0 0)
(0 0 0)
(0 0 0)
(370.2018958 0 0)
(663.7866862 -608.4711279 0)
(0 0 0)
(0 0 0)
(-1048.685287 961.2948498 0)
(0 -598.5546726 0)
(0 0 0)
(0 0 0)
(0 0 0)
(2072.934609 -1.018389463e-11 0)
(0 0 0)
(0 0 0)
(817.2624876 1.24604685e-11 0)
(0 0 0)
(0 0 0)
(0 0 0)
(0 0 0)
(0 0 0)
(0 0 0)
(0 0 0)
(-257.9813503 0 0)
(-611.7290671 0 0)
(0 0 0)
(-448.0211967 0 0)
(-309.119586 0 0)
(-529.5012948 0 0)
(0 0 0)
(0 -313.3344275 0)
(0 0 0)
(0 0 0)
(0 0 0)
(-521.864569 478.375854 0)
(570.0860395 -522.5788714 0)
(0 0 0)
(0 0 0)
(-1619.507823 8.230658864e-12 0)
(0 0 0)
(735.9210817 674.5943347 0)
(0 0 0)
(250.0291244 0 0)
(702.2992376 -643.7743035 0)
(0 0 0)
(0 0 0)
(0 0 0)
(0 0 0)
(0 0 0)
(-759.0846894 -695.8276307 0)
(0 0 0)
(0 0 0)
(-1319.465802 6.482259878e-12 0)
(0 0 0)
(0 0 0)
(0 0 0)
(0 352.9515469 0)
(0 -282.8027482 0)
(0 0 0)
(0 0 0)
(0 0 0)
(0 0 0)
(0 754.3358229 0)
(0 0 0)
(0 0 0)
(0 0 0)
(-1.932099802e-11 1493.525537 0)
(0 0 0)
(0 0 0)
(0 0 0)
(0 0 0)
(0 0 0)
(0 0 0)
(0 0 0)
(0 0 0)
(0 -767.8511728 0)
(0 0 0)
(0 0 0)
(0 0 0)
(0 0 0)
(0 0 0)
(0 0 0)
(0 0 0)
(0 391.1146699 0)
(0 -260.8546363 0)
(0 0 0)
(0 0 0)
(0 0 0)
(1095.071821 1003.815834 0)
(0 0 0)
(406.8343557 0 0)
(482.8279535 -442.5922899 0)
(0 0 0)
(0 0 0)
(-930.5773097 853.0291966 0)
(0 0 0)
(0 0 0)
(0 0 0)
(0 0 0)
(0 0 0)
(0 0 0)
(0 0 0)
(-377.7256476 -346.2485097 0)
(0 0 0)
(0 0 0)
(0 0 0)
(0 0 0)
(0 0 0)
(0 0 0)
(0 0 0)
(0 664.4786502 0)
(0 -264.1028015 0)
(0 0 0)
(0 0 0)
(0 0 0)
(-1021.395025 936.2787715 0)
(0 0 0)
(0 0 0)
(0 0 0)
(360.410447 0 0)
(457.1576164 -419.0611495 0)
(0 0 0)
(0 532.2426421 0)
(0 0 0)
(0 0 0)
(0 0 0)
(0 0 0)
(-310.0199543 0 8.403107744e-13)
(-356.0531389 0 9.65083972e-13)
(-372.3273438 -341.3000645 0)
(0 0 0)
(0 0 0)
(0 0 0)
(0 0 0)
(0 0 0)
(0 0 0)
(0 0 0)
(375.1345864 343.8733702 1.016804339e-12)
(-652.582304 0 1.768827889e-12)
(-487.4279954 -446.808995 1.321176236e-12)
(0 0 0)
(0 0 0)
(0 0 0)
(0 0 0)
(0 311.7217682 9.21734784e-13)
(0 0 0)
(0 0 0)
(0 0 0)
(0 0 0)
(595.4782236 0 1.614046972e-12)
(0 0 0)
(0 0 0)
(0 0 0)
(0 0 0)
(0 0 0)
(0 -348.1405773 0)
(0 0 0)
(0 0 0)
(0 0 0)
(0 0 0)
(0 0 0)
(0 0 0)
(603.7595343 553.4462388 0)
(567.6146059 0 -1.538522464e-12)
(558.3957681 0 0)
(441.0364656 0 0)
(-876.9054673 -803.8300146 0)
(0 0 0)
(0 0 0)
(0 0 0)
(0 0 0)
(1989.282796 -1.010992836e-11 0)
(0 0 0)
(-598.2486405 548.3945891 0)
(0 0 0)
(0 0 0)
(-392.3020295 0 0)
(0 0 0)
(0 0 0)
(0 0 0)
(0 0 0)
(0 0 0)
(0 0 0)
(0 0 0)
(0 -641.0937917 0)
(0 0 0)
(0 0 0)
(0 0 0)
(0 0 0)
(0 0 0)
(0 0 0)
(0 377.6374605 0)
(0 0 0)
(0 0 0)
(0 -494.5990697 0)
(0 0 0)
(0 0 0)
(0 0 0)
(0 0 0)
(0 0 0)
(-730.9246334 0 0)
(0 0 0)
(0 0 0)
(-925.1783505 848.0801531 0)
(-457.2846908 -419.1776324 0)
(0 0 0)
(-775.4043916 710.7873577 0)
(0 0 0)
(0 0 0)
(0 0 0)
(0 0 0)
(0 0 0)
(0 0 0)
(0 -597.0923949 -3.531102962e-12)
(0 0 0)
(0 0 0)
(0 0 0)
(0 0 0)
(0 0 0)
(0 0 0)
(0 523.0273751 0)
(0 0 0)
(0 0 0)
(0 -663.8174254 0)
(0 0 0)
(0 0 0)
(0 0 0)
(0 0 0)
(0 0 0)
(0 0 0)
(0 0 0)
(0 0 0)
(0 0 0)
(0 0 0)
(0 0 0)
(0 0 0)
(-1071.038344 981.7851466 0)
(0 0 0)
(0 0 0)
(0 0 0)
(0 0 0)
(0 0 0)
(0 0 0)
(0 0 0)
(0 0 0)
(0 0 0)
(0 0 0)
(0 -393.780987 0)
(0 0 0)
(0 0 0)
(0 0 0)
(0 0 0)
(378.2361691 346.7164877 0)
(717.1608247 0 0)
(0 0 0)
(0 0 0)
(0 0 0)
(-678.1503282 0 0)
(461.9206963 -423.4273042 0)
(0 0 0)
(0 0 0)
(0 0 0)
(0 0 0)
(0 0 0)
(0 0 0)
(0 0 0)
(0 0 0)
(0 0 0)
(0 0 0)
(756.7248015 -1.538330005e-11 0)
(0 0 0)
(-663.4188696 608.133966 0)
(0 0 0)
(0 0 0)
(0 0 0)
(0 0 0)
(0 0 0)
(0 0 0)
(0 0 0)
(0 0 0)
(0 0 0)
(0 0 0)
(257.4948764 0 -6.979412609e-13)
(315.4009637 0 -8.548960251e-13)
(596.0456823 0 0)
(602.2965963 0 -1.632528195e-12)
(0 0 0)
(0 0 0)
(0 0 0)
(0 0 0)
(0 -459.035196 -1.357328059e-12)
(0 0 0)
(0 552.0593682 -1.63239263e-12)
(597.2024196 0 -1.618720402e-12)
(566.9194064 -519.6761244 -1.53663813e-12)
(0 0 0)
(0 0 0)
(0 0 0)
(0 0 0)
(0 0 0)
(0 0 0)
(0 0 0)
(0 0 0)
(0 332.3482827 -9.827256241e-13)
(801.5456716 -734.7502017 -2.172593896e-12)
(0 0 0)
(0 401.4310771 -1.186997575e-12)
(-265.9736113 0 0)
(-372.5244108 0 -1.009729433e-12)
(-260.5478717 0 -7.062164174e-13)
(0 0 0)
(0 0 0)
(0 0 0)
(0 0 0)
(0 0 0)
(0 0 0)
(0 0 0)
(0 0 0)
(0 0 0)
(0 0 0)
(0 0 0)
(0 0 0)
(0 0 0)
(0 0 0)
(-388.7124116 -356.31971 0)
(0 0 0)
(-366.1392696 335.6276632 0)
(-495.4847174 0 0)
(0 0 0)
(436.5271678 -400.1499031 0)
(0 0 0)
(0 0 0)
(0 0 0)
(0 0 0)
(0 0 0)
(0 0 0)
(-9.171275802e-12 1417.891001 0)
(0 0 0)
(0 0 0)
(375.8798524 0 0)
(0 -374.9957193 0)
(0 0 0)
(0 0 0)
(0 0 0)
(-758.6854896 695.4616975 0)
(0 0 0)
(0 0 0)
(-609.3027801 0 0)
(0 0 0)
(0 0 0)
(0 0 0)
(0 0 0)
(0 0 0)
(0 0 0)
(0 0 0)
(0 0 0)
(0 -368.0562297 0)
(0 0 0)
(0 0 0)
(0 0 0)
(0 0 0)
(0 485.444799 0)
(-319.337974 0 0)
(1039.660463 0 0)
(1.078727682e-05 -1812.8576 0)
(0 0 0)
(0 0 0)
(0 0 0)
(0 0 0)
(0 0 0)
(-885.8296122 812.0104808 0)
(0 0 0)
(0 0 0)
(0 -484.5714592 0)
(0 0 0)
(0 0 0)
(0 0 0)
(0 0 0)
(0 282.8730814 0)
(0 -324.8704299 0)
(0 0 0)
(0 0 0)
(0 0 0)
(0 0 0)
(0 0 0)
(0 0 0)
(0 0 0)
(0 0 0)
(0 0 0)
(871.6249634 -798.9895527 0)
(0 0 0)
(0 0 0)
(0 0 0)
(-1722.933786 1.751258009e-11 0)
(0 0 0)
(0 0 0)
(0 0 0)
(0 0 0)
(0 0 0)
(0 0 0)
(0 0 0)
(0 0 0)
(0 0 0)
(-1005.465268 921.6764942 0)
(0 0 0)
(0 -691.1042543 0)
(0 0 0)
(0 0 0)
(0 0 0)
(356.7872844 327.0550119 0)
(0 0 0)
(0 0 0)
(0 0 0)
(0 0 0)
(0 0 0)
(0 0 0)
(0 0 0)
(0 0 0)
(0 0 0)
(0 0 0)
(0 0 0)
(0 -336.0967016 0)
(0 0 0)
(0 0 0)
(0 0 0)
(0 0 0)
(0 0 0)
(0 0 0)
(0 0 0)
(0 0 0)
(0 0 0)
(0 0 0)
(0 0 0)
(0 0 0)
(0 0 0)
(0 0 0)
(0 259.5622685 0)
(0 -573.295693 0)
(0 0 0)
(0 0 0)
(870.9054964 798.330037 0)
(0 0 0)
(0 0 0)
(0 0 0)
(0 0 0)
(0 0 0)
(0 0 0)
(0 0 0)
(0 0 0)
(-533.9498978 0 0)
(-425.2823072 0 0)
(-522.868912 0 0)
(0 0 0)
(0 -309.162539 0)
(0 0 0)
(0 0 0)
(0 0 0)
(0 0 0)
(0 0 0)
(0 0 0)
(0 0 0)
(0 0 0)
(0 0 0)
(0 0 0)
(0 0 0)
(0 0 0)
(0 0 0)
(0 0 0)
(0 517.2104105 0)
(0 0 0)
(262.7692917 0 0)
(276.2823817 0 0)
(0 0 0)
(0 0 0)
(0 0 0)
(0 0 0)
(0 0 0)
(0 0 0)
(0 0 0)
(-715.7466399 -656.1010854 0)
(0 0 0)
(0 0 0)
(0 0 0)
(-372.6275325 341.5752375 -1.010008945e-12)
(-757.5411381 -694.4127087 0)
(0 0 0)
(0 0 0)
(0 0 0)
(0 0 0)
(0 0 0)
(0 0 0)
(0 0 0)
(0 0 0)
(0 0 0)
(0 0 0)
(0 0 0)
(0 0 0)
(0 0 0)
(0 0 0)
(0 649.5274982 0)
(0 0 0)
(0 0 0)
(0 0 0)
(0 0 0)
(0 0 0)
(0 0 0)
(0 0 0)
(-578.5867577 0 0)
(-241.1113329 0 0)
(-738.498895 -676.9573192 -2.001705277e-12)
(0 0 0)
(0 0 0)
(0 0 0)
(0 0 0)
(0 0 0)
(0 0 0)
(0 0 0)
(0 0 0)
(0 0 0)
(0 0 0)
(0 0 0)
(0 0 0)
(0 0 0)
(0 0 0)
(0 0 0)
(0 0 0)
(0 0 0)
(0 0 0)
(625.5588691 573.4289623 0)
(369.0378018 0 0)
(0 0 0)
(0 0 0)
(0 0 0)
(0 0 0)
(0 0 0)
(-686.7213208 0 0)
(0 0 0)
(0 -691.8254571 0)
(0 0 0)
(0 0 0)
(0 0 0)
(0 0 0)
(0 0 0)
(0 0 0)
(0 0 0)
(0 0 0)
(0 0 0)
(0 0 0)
(0 0 0)
(0 0 0)
(0 0 0)
(0 0 0)
(0 0 0)
(2050.73486 -1.04222399e-11 0)
(0 0 0)
(0 0 0)
(0 0 0)
(0 0 0)
(0 0 0)
(0 504.9750425 0)
(0 0 0)
(0 0 0)
(0 0 0)
(0 0 0)
(0 0 0)
(0 -660.54805 0)
(0 0 0)
(0 277.451686 0)
(0 -523.93536 1.549232328e-12)
(0 0 0)
(0 0 0)
(0 0 0)
(0 0 0)
(0 0 0)
(0 0 0)
(0 0 0)
(0 0 0)
(0 0 0)
(0 0 0)
(0 0 0)
(0 0 0)
(0 0 0)
(0 0 0)
(0 0 0)
(-792.6592174 0 0)
(0 0 0)
(0 0 0)
(0 0 0)
(0 0 0)
(0 0 0)
(0 532.3946813 0)
(0 0 0)
(0 0 0)
(0 0 0)
(0 0 0)
(0 0 0)
(0 -545.0629731 0)
(0 0 0)
(0 563.495411 0)
(0 -403.7820993 1.193949361e-12)
(0 0 0)
(0 0 0)
(0 0 0)
(0 0 0)
(0 0 0)
(0 0 0)
(0 0 0)
(0 0 0)
(0 0 0)
(0 0 0)
(0 0 0)
(0 0 0)
(0 0 0)
(0 0 0)
(742.9922535 -3.77603353e-12 0)
(0 0 0)
(0 0 0)
(0 0 0)
(0 0 0)
(0 0 0)
(0 0 0)
(0 701.3239005 0)
(0 0 0)
(0 0 0)
(0 0 0)
(0 0 0)
(0 0 0)
(-389.2934483 0 0)
(1113.813605 0 0)
(-674.4107148 0 0)
(0 -331.3846964 9.798763811e-13)
(0 0 0)
(0 0 0)
(0 0 0)
(0 0 0)
(0 0 0)
(0 0 0)
(0 0 0)
(0 0 0)
(0 0 0)
(0 0 0)
(0 0 0)
(370.3332735 339.4721667 0)
(267.662073 0 0)
(399.9359388 0 -1.084028528e-12)
(0 -525.0111082 0)
(0 0 0)
(0 0 0)
(0 0 0)
(0 0 0)
(0 0 0)
(0 0 0)
(0 271.645591 0)
(0 0 0)
(0 0 0)
(0 0 0)
(0 0 0)
(0 -602.3105246 0)
(0 0 0)
(0 0 0)
(0 0 0)
(0 -614.6770923 0)
(0 0 0)
(0 0 0)
(0 0 0)
(0 0 0)
(0 0 0)
(0 0 0)
(0 0 0)
(0 0 0)
(0 0 0)
(0 0 0)
(0 0 0)
(0 586.578554 0)
(0 0 0)
(0 0 0)
(-399.360303 -366.0802771 0)
(0 0 0)
(0 0 0)
(0 0 0)
(0 0 0)
(0 0 0)
(0 0 0)
(-531.3988543 487.1156155 0)
(-557.1680025 0 0)
(-474.1433074 0 0)
(0 0 0)
(0 0 0)
(0 -313.078551 0)
(0 0 0)
(0 0 0)
(0 0 0)
(0 -473.7118999 0)
(0 0 0)
(0 0 0)
(0 0 0)
(0 0 0)
(0 0 0)
(0 0 0)
(0 0 0)
(0 0 0)
(0 0 0)
(0 0 0)
(0 0 0)
(-482.8180922 442.5832504 0)
(0 0 0)
(0 -398.1693082 0)
(0 0 0)
(0 0 0)
(0 0 0)
(0 0 0)
(0 0 0)
(0 0 0)
(0 0 0)
(0 0 0)
(0 0 0)
(0 0 0)
(-356.1947949 326.5118947 0)
(0 0 0)
(0 -451.3886271 0)
(0 0 0)
(0 0 0)
(0 0 0)
(0 -297.4006916 8.793885675e-13)
(0 0 0)
(0 0 0)
(0 0 0)
(0 0 0)
(0 0 0)
(0 0 0)
(0 0 0)
(0 0 0)
(0 0 0)
(0 0 0)
(0 0 0)
(0 0 0)
(0 502.5740626 0)
(0 -710.7034284 -2.101489632e-12)
(0 0 0)
(0 0 0)
(0 0 0)
(0 0 0)
(0 0 0)
(0 0 0)
(0 0 0)
(0 0 0)
(0 0 0)
(0 0 0)
(0 0 0)
(-535.8844104 491.2273779 0)
(0 0 0)
(667.6661168 -612.0272726 0)
(0 0 0)
(0 0 0)
(0 -611.7215302 0)
(0 0 0)
(0 0 0)
(0 0 0)
(0 0 0)
(0 0 0)
(0 0 0)
(0 0 0)
(0 0 0)
(0 0 0)
(0 0 0)
(0 0 0)
(0 0 0)
(-975.8490372 894.5282825 0)
(0 -682.445346 -2.017932884e-12)
(0 0 0)
(0 0 0)
(0 0 0)
(0 0 0)
(0 0 0)
(0 0 0)
(0 0 0)
(0 0 0)
(0 0 0)
(0 0 0)
(0 0 0)
(0 0 0)
(0 635.0049817 0)
(0 0 0)
(555.6326299 0 0)
(-7.872527005e-06 -1323.015917 0)
(0 -504.085162 0)
(0 0 0)
(0 0 0)
(0 0 0)
(0 0 0)
(0 0 0)
(0 0 0)
(0 0 0)
(0 0 0)
(0 0 0)
(0 0 0)
(0 0 0)
(0 0 0)
(0 0 0)
(0 1128.759346 0)
(0 0 0)
(0 0 0)
(0 0 0)
(0 0 0)
(0 0 0)
(0 0 0)
(0 0 0)
(0 0 0)
(0 0 0)
(0 0 0)
(0 0 0)
(0 0 0)
(0 737.8151789 0)
(0 0 0)
(-489.3381016 -448.5599256 0)
(0 0 0)
(0 -266.4484525 0)
(0 0 0)
(0 0 0)
(0 0 0)
(0 0 0)
(0 0 0)
(0 0 0)
(0 0 0)
(0 0 0)
(0 0 0)
(0 0 0)
(0 0 0)
(0 0 0)
(0 0 0)
(0 444.955102 0)
(1030.835461 -944.9325041 0)
(0 0 0)
(0 0 0)
(0 0 0)
(0 0 0)
(0 0 0)
(0 0 0)
(0 0 0)
(0 0 0)
(0 0 0)
(0 0 0)
(747.0053697 684.754921 0)
(0 0 0)
(-600.3079895 -550.2823257 0)
(0 0 0)
(0 0 0)
(0 -365.6090594 1.081074914e-12)
(0 0 0)
(0 0 0)
(0 0 0)
(0 0 0)
(0 0 0)
(0 0 0)
(0 0 0)
(0 0 0)
(0 0 0)
(0 0 0)
(0 0 0)
(0 0 0)
(0 0 0)
(0 783.2389616 -2.315971038e-12)
(0 -578.4193095 0)
(0 0 0)
(0 0 0)
(0 0 0)
(0 0 0)
(0 0 0)
(0 0 0)
(0 0 0)
(0 0 0)
(0 0 0)
(818.087924 749.9139331 0)
(0 0 0)
(-419.6980887 -384.7232472 0)
(0 0 0)
(0 0 0)
(0 0 0)
(0 -441.4432516 1.305310189e-12)
(0 0 0)
(0 0 0)
(0 0 0)
(0 0 0)
(0 0 0)
(0 0 0)
(0 0 0)
(0 0 0)
(0 0 0)
(0 0 0)
(0 0 0)
(0 0 0)
(0 0 0)
(0 669.7515179 0)
(0 -294.3641668 0)
(0 0 0)
(0 0 0)
(0 0 0)
(0 0 0)
(0 0 0)
(0 0 0)
(0 0 0)
(0 0 0)
(0 0 0)
(0 755.0097851 0)
(-1006.299347 -922.4410665 -2.727579861e-12)
(0 0 0)
(0 0 0)
(0 0 0)
(0 0 0)
(0 -476.3901749 1.408645257e-12)
(0 0 0)
(0 0 0)
(0 0 0)
(0 0 0)
(0 0 0)
(0 0 0)
(0 0 0)
(0 0 0)
(0 0 0)
(0 0 0)
(0 0 0)
(0 0 0)
(626.7902426 574.5577214 0)
(0 0 0)
(-808.2632971 -740.908025 0)
(0 0 0)
(0 0 0)
(0 0 0)
(0 0 0)
(0 0 0)
(0 0 0)
(0 0 0)
(0 0 0)
(0 0 0)
(0 -1034.622982 0)
(0 0 0)
(0 0 0)
(0 0 0)
(0 0 0)
(0 0 0)
(0 -485.1352593 0)
(0 0 0)
(0 0 0)
(0 0 0)
(0 0 0)
(0 0 0)
(0 0 0)
(0 0 0)
(0 0 0)
(0 0 0)
(0 0 0)
(0 0 0)
(928.4027647 851.0358708 0)
(-572.3048741 0 0)
(-980.6248293 -898.9060919 0)
(0 0 0)
(0 0 0)
(0 0 0)
(0 0 0)
(0 0 0)
(0 0 0)
(0 0 0)
(0 0 0)
(0 0 0)
(409.0967826 375.0053854 0)
(0 -653.0109446 0)
(0 0 0)
(0 0 0)
(0 0 0)
(0 0 0)
(0 0 0)
(0 0 0)
(396.2425741 0 0)
(266.4916847 0 0)
(771.7471528 -707.4348888 -2.091824861e-12)
(0 0 0)
(0 0 0)
(0 0 0)
(0 0 0)
(0 0 0)
(0 0 0)
(0 0 0)
(552.0417954 506.0383116 0)
(-387.0437344 -354.7900892 0)
(0 0 0)
(0 0 0)
(0 0 0)
(0 0 0)
(0 0 0)
(0 0 0)
(0 0 0)
(0 0 0)
(0 0 0)
(0 0 0)
(0 0 0)
(0 734.3564616 0)
(-985.9329926 -903.7719082 0)
(0 0 0)
(0 0 0)
(0 0 0)
(0 0 0)
(0 0 0)
(0 0 0)
(0 0 0)
(0 0 0)
(0 0 0)
(347.1859714 0 0)
(1039.67025 -953.0310604 0)
(0 0 0)
(0 0 0)
(0 0 0)
(0 0 0)
(0 0 0)
(-1912.802211 -9.397197667e-12 0)
(0 0 0)
(0 0 0)
(0 0 0)
(0 0 0)
(0 0 0)
(0 0 0)
(0 0 0)
(0 0 0)
(0 0 0)
(0 0 0)
(0 0 0)
(0 0 0)
(0 -660.1658003 0)
(0 0 0)
(0 0 0)
(793.0811313 726.9910357 0)
(371.0153984 0 0)
(252.9940343 0 0)
(687.2651122 -629.9930183 0)
(0 0 0)
(0 0 0)
(0 0 0)
(0 0 0)
(0 0 0)
(0 0 0)
(431.8311234 -395.8451978 0)
(0 0 0)
(0 0 0)
(0 0 0)
(0 0 0)
(0 0 0)
(0 0 0)
(0 0 0)
(0 0 0)
(0 0 0)
(0 0 0)
(0 0 0)
(0 0 0)
(0 0 0)
(0 0 0)
(0 0 0)
(0 0 0)
(1048.174828 960.8269287 0)
(0 0 0)
(436.9246285 0 0)
(660.1233187 0 -1.789267841e-12)
(0 0 0)
(0 0 0)
(0 0 0)
(-578.6891765 0 0)
(0 0 0)
(0 0 0)
(0 0 0)
(0 0 0)
(0 0 0)
(0 0 0)
(0 0 0)
(904.4562898 -829.0849308 0)
(0 0 0)
(0 0 0)
(0 0 0)
(0 0 0)
(0 0 0)
(0 0 0)
(0 0 0)
(0 0 0)
(0 0 0)
(0 0 0)
(0 0 0)
(0 0 0)
(0 0 0)
(0 0 0)
(0 0 0)
(0 727.969372 0)
(0 0 0)
(0 0 0)
(-616.9272096 0 -1.672184561e-12)
(0 0 0)
(0 0 0)
(-1048.646378 -961.2591782 0)
(0 0 0)
(0 0 0)
(0 0 0)
(0 0 0)
(0 0 0)
(0 0 0)
(0 0 0)
(0 0 0)
(0 -514.8222292 0)
(0 0 0)
(0 0 0)
(0 0 0)
(0 0 0)
(0 0 0)
(0 0 0)
(0 0 0)
(0 0 0)
(0 0 0)
(0 0 0)
(0 0 0)
(0 0 0)
(0 0 0)
(0 0 0)
(0 0 0)
(-681.988147 625.1558037 0)
(0 0 0)
(0 -405.9152336 0)
(0 0 0)
(0 315.5120637 0)
(0 -409.4123034 0)
(0 0 0)
(0 0 0)
(0 0 0)
(0 0 0)
(0 0 0)
(0 0 0)
(0 0 0)
(0 0 0)
(0 0 0)
(0 0 0)
(316.4480082 0 -8.57734045e-13)
(556.3511495 -509.9885555 0)
(0 0 0)
(0 0 0)
(0 0 0)
(0 0 0)
(0 0 0)
(0 0 0)
(0 0 0)
(0 0 0)
(0 0 0)
(0 0 0)
(0 0 0)
(0 0 0)
(0 0 0)
(0 0 0)
(0 370.2654615 0)
(0 0 0)
(610.4353468 0 0)
(0 0 0)
(-418.7150116 -383.8220933 0)
(0 0 0)
(0 0 0)
(0 0 0)
(0 0 0)
(0 0 0)
(0 0 0)
(0 0 0)
(0 0 0)
(0 0 0)
(0 0 0)
(0 0 0)
(0 0 0)
(707.1954836 -648.2625255 0)
(0 0 0)
(0 0 0)
(0 0 0)
(0 0 0)
(0 0 0)
(0 0 0)
(0 0 0)
(0 0 0)
(0 0 0)
(2102.642415 0 0)
(0 0 0)
(0 0 0)
(0 0 0)
(0 728.3607624 0)
(0 0 0)
(0 0 0)
(0 -401.2253122 0)
(0 0 0)
(0 0 0)
(0 0 0)
(0 0 0)
(0 0 0)
(0 0 0)
(0 0 0)
(0 0 0)
(0 0 0)
(0 0 0)
(0 0 0)
(0 0 0)
(0 0 0)
(0 0 0)
(361.6015571 0 0)
(333.1435234 0 0)
(641.2093245 0 0)
(246.2376544 0 -6.674284958e-13)
(628.3851272 0 0)
(566.3849597 0 0)
(596.0956304 0 0)
(246.3326121 0 0)
(692.0003745 0 0)
(0 0 0)
(454.9305062 0 0)
(386.531324 0 0)
(531.6423671 0 0)
(0 0 0)
(0 0 0)
(0 0 0)
(0 0 0)
(628.5388724 0 0)
(321.0758311 0 0)
(642.1093165 0 0)
)
;

boundaryField
{
    walls
    {
        type            calculated;
        value           uniform (0 0 0);
    }
    wallFilmFace_top
    {
        type            calculated;
        value           uniform (0 0 0);
    }
    region0_to_wallFilmRegion_wallFilmFace
    {
        type            calculated;
        value           uniform (0 0 0);
    }
    mirrorFace_top
    {
        type            calculated;
        value           nonuniform List<vector> 0();
    }
    region0_to_wallFilmRegion_mirrorFace
    {
        type            calculated;
        value           nonuniform List<vector> 0();
    }
    procBoundary1to0
    {
        type            processor;
        value           uniform (0 0 0);
    }
    procBoundary1to2
    {
        type            processor;
        value           uniform (0 0 0);
    }
}


// ************************************************************************* //
