/*--------------------------------*- C++ -*----------------------------------*\
  =========                 |
  \\      /  F ield         | OpenFOAM: The Open Source CFD Toolbox
   \\    /   O peration     | Website:  https://openfoam.org
    \\  /    A nd           | Version:  8
     \\/     M anipulation  |
\*---------------------------------------------------------------------------*/
FoamFile
{
    version     2.0;
    format      ascii;
    class       volScalarField;
    location    "1.1/wallFilmRegion";
    object      delta;
}
// * * * * * * * * * * * * * * * * * * * * * * * * * * * * * * * * * * * * * //

dimensions      [0 1 0 0 0 0 0];

internalField   nonuniform List<scalar> 
1369
(
0.003564816562
0.0001608475966
7.283628682e-05
3.914996714e-05
3.862399919e-05
3.977790617e-05
4.186637993e-05
0.003907683053
0.0001833356757
7.645752052e-05
4.299595926e-05
4.066015066e-05
4.115414349e-05
4.344218873e-05
4.731092053e-05
5.096088264e-05
4.413100105e-05
3.880165965e-05
0.004403339083
0.0002125279369
8.272917951e-05
4.662850942e-05
4.315606492e-05
4.402645951e-05
4.88234534e-05
6.01696751e-05
7.311035446e-05
4.48220173e-05
3.962646769e-05
3.285228612e-05
2.809109706e-05
0.005087007033
0.0002307422285
9.073536375e-05
5.177512684e-05
4.718277163e-05
5.073131915e-05
6.483446618e-05
9.875834449e-05
0.0001337204973
4.443816081e-05
3.80355316e-05
3.21692067e-05
3.338929116e-05
8.731326729e-05
2.440771918e-05
3.440941855e-06
2.451276618e-06
0.00581458295
0.0002153236208
0.0001043786269
6.636232086e-05
5.630249816e-05
6.825191669e-05
0.0001041492336
0.0001733743117
0.0002300150741
4.378859965e-05
3.482596173e-05
2.828202314e-05
2.626467642e-05
4.704293809e-05
0.0005604629208
5.574097161e-05
3.738995653e-06
2.73561331e-06
2.706440211e-06
0.006121775391
0.0001777192339
0.0001338574137
0.0001074008168
7.938175454e-05
0.0001122568299
0.0001799989149
0.0002729367027
0.0003348571898
5.318670125e-05
3.81656529e-05
3.058804649e-05
3.534126562e-05
4.959136085e-05
8.868813441e-05
0.0006997782189
2.200069017e-05
7.661409497e-06
8.94366529e-06
7.048737557e-06
4.538971659e-05
0.0002284302409
0.001249695594
0.004470745811
0.0001693232681
0.0001773042769
0.0001750411331
0.0001308902611
0.0002075518288
0.0003044892688
0.0003947862378
0.0004395215351
0.0001328213261
0.0001004742448
4.662503601e-05
5.007887351e-05
6.538776055e-05
6.576937074e-05
0.0001176596433
0.0002229287174
4.89954516e-05
7.773762053e-05
0.0001313305281
0.0004304718514
0.0006749798632
0.0005031927621
2.225089199e-05
3.208558585e-05
0.003582869653
0.0002104779212
0.0002244924444
0.0002380759064
0.0002132856776
0.0003664916139
0.0005015729447
0.0005657009556
0.0005574560922
0.0004216202724
0.0004452323182
0.0001554142114
7.410505135e-05
8.555005639e-05
6.133829543e-05
8.381332836e-05
0.0003061632209
0.0004338798776
0.0004083113959
0.0002672429427
0.0001079046238
9.351007958e-05
7.162065909e-05
1.805107205e-05
9.774606965e-05
8.15548522e-06
0.003601817651
0.0002774507609
0.0002615893938
0.0002438339585
0.0001040434353
0.0001418176016
0.0001959958125
0.0003463450414
0.0004894926175
0.0003055845315
0.0003112351442
0.000191333939
0.0001248337073
0.0001364895582
5.325050575e-05
4.390478005e-05
0.0001125875377
0.0004164639808
6.719656225e-05
2.13024774e-05
5.583025043e-05
0.000130014299
6.729958168e-06
4.954175204e-05
0.0002131192696
2.725059286e-06
0.003852925538
0.0003744061559
0.0003131572074
0.0002743294304
0.0001340695717
0.0001829439743
0.0001376575113
0.0002628157432
0.0004289795737
0.0001182475531
0.000169441772
0.0002253818058
0.0002603196948
0.0002553493145
4.880200629e-05
2.422821913e-05
3.166177758e-05
0.0001913377216
0.0001806634632
2.311592091e-05
8.227065569e-05
0.0001675627569
2.533903814e-05
0.0001628280238
0.0003240926165
0.0001607933958
0.0001391760549
0.004213695176
0.0005234530285
0.0003893157773
0.0003248353808
0.0002200296
0.0003187759309
9.836128005e-05
8.655581075e-05
0.0001805039508
4.455527448e-05
5.516313608e-05
9.290125702e-05
0.0003291605105
0.0004725633906
4.675952461e-05
1.699290512e-05
1.461813236e-05
9.749097356e-05
0.0002538513516
3.646138531e-05
2.134086339e-05
9.734135795e-05
0.0002440409052
0.0003070943384
0.000377204671
0.0004041836971
0.0003991750621
0.003914197127
0.0003452643718
0.0003533114348
0.000314465885
0.0001257361213
7.866658885e-05
5.048045269e-05
3.911177193e-05
3.659223823e-05
2.798988257e-05
2.980263806e-05
3.806897184e-05
0.0002601429094
0.0007101270983
4.226701525e-05
1.307721534e-05
1.075188886e-05
0.000258243732
0.0005357506204
0.0001193263244
0.0001074215321
5.409115685e-05
8.038725997e-05
0.0001630416138
0.0003336453851
0.0004890802587
0.0004301238381
0.003893076636
0.0003519567241
0.0004514700241
0.0003958583405
0.0001086078675
7.917376177e-05
5.149923539e-05
3.372789527e-05
2.746081989e-05
2.901873875e-05
3.977397756e-05
7.126258787e-05
0.0003005965144
0.0006900295187
3.301341387e-05
9.252547562e-06
5.662452888e-06
0.0002973076175
0.001427520812
0.001046920122
0.0007117672003
0.0006580453921
0.00022839922
9.935243528e-05
0.0003174964694
0.0006950756761
0.0007407586109
0.0005400078123
0.003713225253
0.0001477322263
0.0001537905067
0.0001765619591
7.794810759e-05
7.263824909e-05
5.767482546e-05
3.822478719e-05
3.774590314e-05
6.401961652e-05
9.766659595e-05
0.0001596436208
0.0002492911075
0.0003310349781
2.078594966e-05
6.796604062e-06
7.568528286e-06
2.138666152e-05
0.0008090181111
0.001462737818
0.001409324066
0.001469450781
0.001188839942
0.0004417763559
0.0002945369917
0.0009088844438
0.001081421657
0.001097086339
0.0004681404727
0.003517917358
6.606297799e-05
4.204542295e-05
3.658233612e-05
3.40720088e-05
4.631211304e-05
9.770325605e-05
0.0002440853898
0.0004324510461
0.0005138651971
0.000289851687
0.0001626056024
6.537936765e-05
2.231208477e-05
9.688369711e-06
1.16222953e-05
0.0001184843264
1.166878771e-05
0.0003300217222
0.0006337814044
0.0006696803387
0.0005493700366
0.0009620063059
0.0008790433577
0.0004739372865
0.0009960335927
0.001086829522
0.0009583341441
0.0009142861233
0.003335887969
5.144418263e-05
2.979251426e-05
2.155049021e-05
1.662968683e-05
1.680206698e-05
4.834331975e-05
0.0003327668835
0.001960513786
0.00152055552
0.0003908151702
6.309508135e-05
2.172047849e-05
1.100346762e-05
8.738834616e-06
2.963386217e-05
0.0002256734801
1.609019335e-05
9.55816532e-05
0.0002982856751
0.0002156009494
7.496577357e-05
0.0003858148687
0.001704035187
0.0005152116119
0.001115132949
0.001136684592
0.0008286641229
0.000892440227
0.002945397781
4.596164385e-05
2.824783649e-05
2.135126604e-05
2.009650582e-05
3.641067007e-05
9.838764108e-05
0.0002689876981
0.0007112968482
0.0008382677841
0.0002338474177
7.867255336e-05
3.485151264e-05
1.740147298e-05
9.181973116e-06
5.659622848e-06
5.511943594e-06
6.210174735e-06
3.717098916e-05
8.221601937e-05
7.291836303e-05
2.427972079e-05
2.974308523e-05
0.0003170197056
0.0006301442616
0.0005217394556
0.0008715931708
0.0009482406743
0.0008031823068
0.0008277470345
0.0009092153809
0.0003145018527
0.0003656078414
0.0004657514215
0.002817364278
6.274613069e-05
5.553711549e-05
5.537959259e-05
7.281063272e-05
0.0001215383323
0.0001899633873
0.0002569561812
0.0002859618637
0.0002273439921
0.0001499470824
0.0001458754312
9.211056848e-05
4.140754815e-05
1.614886184e-05
7.69307397e-06
3.670841107e-06
3.613338312e-06
1.442253471e-05
2.955354551e-05
6.51500599e-05
2.784678027e-05
0.0001213976063
3.346331516e-05
0.0001194768522
0.0001834105458
0.0009763520439
0.0006228985369
0.0002781100721
0.0006962068429
0.0007851102316
0.0004108782645
0.0003275422875
0.00043672315
0.002971987491
0.0001438816812
0.0001406555598
0.0001446119515
0.0001445632569
0.0001383756869
0.0001406744784
0.0001497519582
0.0001509445633
0.0001255255256
8.76030572e-05
0.0001434012371
0.0002684588724
0.0002992596649
4.533053978e-05
1.199235286e-05
4.329218284e-06
3.817283955e-06
1.225157975e-05
1.958148112e-05
5.476119795e-05
3.51187637e-05
0.0007212397393
0.0001623303184
8.906958874e-05
0.000287678364
0.0001842787591
0.0001185803991
0.0001208493627
0.0005073581261
0.0006510007726
0.0004473330261
0.0002337563718
0.001158587152
0.003192286416
0.0001666080608
0.0001598343562
0.0001621352918
0.0001599037482
0.0001539634048
0.0001523111577
0.0001549265727
0.0001486418004
0.0001046173196
8.139712339e-05
0.0001574946899
0.0002455479957
0.000490441673
0.0001082659618
2.51328476e-05
6.89991242e-06
5.323701294e-06
1.305873219e-05
1.467831752e-05
2.195781157e-05
0.0001542730406
0.0007921349707
0.0006789247485
0.0003077667967
0.0002247732308
1.597151953e-05
2.88398818e-05
6.495435477e-05
0.000282569395
0.0004708273571
0.0003190131606
0.0001245177008
0.003766957252
0.0001515545085
0.000125825803
0.0001137721303
0.0001099785417
0.0001128997006
0.0001214325966
0.0001309570324
0.0001299609149
9.321569237e-05
4.717175426e-05
7.096915577e-05
9.765636965e-05
0.0006124157609
0.0009797962633
0.0006447275465
0.0001711254596
2.067651009e-05
1.750607069e-05
1.033358019e-05
7.66388773e-06
3.381389767e-05
0.0002430641839
0.0004747028377
0.0004223952334
0.0002231082343
1.9144378e-05
3.461998863e-05
5.569390275e-05
8.771372884e-05
0.0001742913639
0.00014463787
0.005782526716
0.0002151454436
0.000154875729
0.0001238546408
0.0001178376848
0.0001235879318
0.0001358270392
0.0001456372559
0.0001411009449
0.0001023767171
3.347378661e-05
3.433017921e-05
6.970461303e-05
0.000302844179
3.960679448e-06
6.73566465e-06
3.396810751e-05
1.967843813e-05
6.960172932e-06
3.555603627e-06
2.910066188e-06
4.292611921e-06
3.73587277e-05
0.0003764572931
0.0006256784462
0.0002425826614
9.250701939e-06
2.016656103e-05
6.271390142e-05
0.0001629470378
0.0002631137928
0.0003247217337
0.006148794525
0.0003663763361
0.0002627094949
0.0002199303173
0.0002367816303
0.0002800440155
0.000311014518
0.0002905675374
0.0002304924899
0.0001451514111
4.270238749e-05
1.389562054e-05
3.406033179e-05
9.300391256e-05
6.506550646e-06
1.876436712e-06
3.514966549e-05
3.026959299e-05
6.248979325e-06
3.692177708e-06
2.787596478e-06
3.085922033e-06
7.127793462e-06
6.141612035e-05
0.0007556244623
0.000855178484
6.18588416e-05
6.395449303e-05
0.0001465743183
0.0002879091778
0.0003510332297
0.0004246780412
0.005216139402
0.0004585892917
0.0003355374685
0.0002704025868
0.0002617494828
0.0002787577345
0.0003152562965
0.0003461646869
0.0002999110823
0.0001797856617
4.134123002e-05
5.792178663e-06
1.373428603e-05
2.387579192e-05
1.716643916e-06
2.455017542e-06
5.607454459e-05
3.179021107e-05
3.738943979e-06
3.747211398e-06
3.353570266e-06
3.725847219e-06
8.857256282e-06
3.319369812e-05
0.0003834471931
0.001919248128
0.0009053310799
0.0006836451228
0.000629419285
0.0005346769826
0.0004331633357
0.004226324912
0.0004873754862
0.000356258759
0.0002482177061
0.0001572983537
8.342826238e-05
5.906881003e-05
8.973816312e-05
0.0001403386088
0.0001098434566
4.459870674e-06
2.930925287e-06
6.729845918e-06
1.150844502e-05
1.66439372e-05
4.145637768e-05
6.535035149e-05
2.670995827e-05
2.678008142e-06
3.564007536e-06
3.129443154e-06
4.6470481e-06
3.849053718e-05
9.113326872e-05
0.0003934884413
0.002165338914
0.001651446519
0.001087631281
0.0008696876444
0.0006269222825
0.0003845909526
0.003562804192
0.0003859415785
0.0002524970246
0.0001502456011
7.976543485e-05
3.918041994e-05
1.963663421e-05
1.085073282e-05
1.07027923e-05
1.208821677e-05
1.883960373e-06
2.244459762e-06
5.072059581e-06
9.499819193e-06
1.721191292e-05
3.871468254e-05
9.42321415e-05
2.338608084e-05
2.714536264e-06
3.435973288e-06
3.676045151e-07
1.334396783e-06
0.0003198392564
0.0009625676037
0.001208863938
0.001692301076
0.001691565664
0.001149045456
0.0004710707547
0.0003344455611
0.0004556062675
0.002729909031
9.271469259e-05
4.547859746e-05
2.502924171e-05
1.507834254e-05
9.463550982e-06
6.083029375e-06
4.022767822e-06
2.76400176e-06
2.011406967e-06
1.32291302e-06
1.021259719e-06
2.361629779e-06
4.481584626e-06
5.426022047e-06
1.302500096e-05
0.0001388782616
2.063903092e-05
2.117205452e-06
2.802426608e-06
5.079440467e-10
5.885465492e-06
0.0001700015421
0.001244131197
0.002566013089
0.002889809409
0.002717555056
0.001331314472
0.0005309955469
7.967068721e-05
0.0003123027703
0.002542281116
7.736639943e-05
5.293188886e-05
3.795583607e-05
2.704924157e-05
1.859004805e-05
1.272846924e-05
8.755377081e-06
5.958986358e-06
3.897502902e-06
2.328611442e-06
1.213461011e-06
2.024814338e-06
4.791750241e-06
8.554978645e-06
5.461105528e-05
0.0001041259013
1.684482496e-05
1.533951949e-06
2.330888909e-06
2.500176559e-07
4.039231056e-06
0.0002041023671
0.0008148501417
0.001626558253
0.002157640417
0.002578127043
0.001274451513
0.000257988285
8.404372247e-05
0.000349459428
0.002775513099
7.383789446e-05
5.771231258e-05
4.558127515e-05
3.643453971e-05
2.73345467e-05
1.980939331e-05
1.410013796e-05
9.809092553e-06
6.517265247e-06
4.040523965e-06
2.333630949e-06
4.705958037e-06
1.461498892e-05
3.887375003e-05
0.0001822175518
4.697299905e-05
1.069789141e-05
7.502217524e-07
2.405817466e-06
1.078768616e-06
2.073435763e-05
0.0001621206359
0.0007789426265
0.001199694182
0.001472935837
0.002034326634
0.001215842506
0.0004677632199
0.0002430016632
0.0002736535789
0.003127760227
7.08285294e-05
6.168162999e-05
5.152159132e-05
4.522019313e-05
3.658206975e-05
2.790326617e-05
2.053240143e-05
1.492549538e-05
1.173731703e-05
1.548387484e-05
4.798981569e-05
0.0001433764793
0.0002023432256
0.000146811358
0.0001330962553
4.380604527e-05
2.144369461e-05
4.467580086e-05
7.285611392e-05
7.280211987e-05
7.976174939e-05
0.0003159199607
0.0009290479189
0.0008666946186
0.001112053948
0.001706617625
0.001225779179
8.629828987e-05
5.793544463e-05
7.13510143e-05
0.003478508789
6.899273676e-05
6.574350375e-05
5.681131043e-05
5.424221131e-05
4.709294591e-05
3.772543341e-05
2.846732536e-05
2.086664467e-05
1.623249294e-05
2.036851976e-05
6.223002053e-05
0.0002061652584
0.000317527071
0.0001982051595
0.000103980578
6.018951897e-05
3.428893114e-05
1.241322925e-07
6.504331944e-10
1.712745176e-05
4.501729143e-05
0.000114919152
0.0004386219665
0.0004583526632
0.0009048031081
0.001651658748
0.0008490944426
3.433297203e-05
1.829987538e-05
2.93715986e-05
0.003795612098
6.85293532e-05
6.957899575e-05
6.150020473e-05
6.356444657e-05
5.929874089e-05
5.001819988e-05
3.855680713e-05
2.802392027e-05
2.005787663e-05
1.771075354e-05
3.600063358e-05
0.0001415853486
0.0003346570356
0.0002410713125
9.567084248e-05
6.126488937e-05
3.753159789e-05
7.022300083e-10
7.956751694e-11
2.008639105e-06
1.734627658e-05
6.610137493e-06
1.154187015e-05
3.598697917e-05
0.0005527761981
0.001404663295
0.0005506503304
7.489399396e-05
1.019090164e-05
1.892799018e-05
0.004096701848
6.997578558e-05
7.26784952e-05
6.488403467e-05
7.184724645e-05
7.238245043e-05
6.531409783e-05
5.176556007e-05
3.689645842e-05
2.470102179e-05
1.604729027e-05
1.430129879e-05
4.369310429e-05
0.0002752793413
0.0002958203432
9.442540857e-05
5.692376629e-05
3.609877511e-05
2.53980248e-10
1.338285557e-10
4.479984896e-07
5.20489143e-06
4.962322718e-06
7.523667897e-06
1.660849276e-05
2.930468958e-05
0.0003932733767
0.001493190764
0.0006663367454
6.764491702e-05
3.84373416e-05
0.00438639699
7.388585593e-05
7.515889262e-05
6.647791117e-05
7.662181175e-05
8.181968367e-05
7.869145106e-05
6.521968575e-05
4.657594805e-05
3.005285226e-05
1.680638365e-05
7.892387053e-06
8.565655721e-06
0.0001379286168
0.0003502280939
9.614728555e-05
5.196027926e-05
3.337203433e-05
1.008695152e-10
2.254914206e-10
1.084787179e-07
1.818054301e-06
2.719557536e-06
4.380836191e-06
8.060397671e-06
1.485219135e-05
9.054565719e-05
0.0008660963374
0.002003129158
0.0009733896527
0.0001540619121
0.004603508161
7.961254838e-05
7.680255383e-05
6.617639366e-05
7.643869393e-05
8.355198527e-05
8.372059172e-05
7.307463032e-05
5.442025496e-05
3.50745543e-05
1.860962121e-05
6.805433275e-06
2.287787508e-06
3.598538696e-05
0.0003655745724
9.897120798e-05
4.808421878e-05
3.084960101e-05
7.874305505e-11
3.389799224e-10
2.748537949e-08
6.755046996e-07
1.370186205e-06
2.535808736e-06
4.743871007e-06
9.313308275e-06
3.694828077e-05
0.0004011241742
0.001212410534
0.0001028538978
4.991298861e-06
0.004646335214
8.516677756e-05
7.657773465e-05
6.406143547e-05
7.209802399e-05
7.844387165e-05
8.025856477e-05
7.345900322e-05
5.79193605e-05
3.849206968e-05
2.046985533e-05
7.119410903e-06
1.046888144e-06
1.346237867e-05
0.000336652695
0.0001085919468
4.739069602e-05
2.957314833e-05
5.341063077e-09
4.641183826e-10
8.744611243e-09
2.779457589e-07
7.008251131e-07
1.544839372e-06
3.57990109e-06
3.625196793e-05
0.0001177454767
0.0003466358782
0.000445836437
1.651148458e-05
2.225909282e-06
0.004483709117
8.854935744e-05
7.374416748e-05
6.017830128e-05
6.498303734e-05
6.904514738e-05
7.089741281e-05
6.728177133e-05
5.620154609e-05
3.954981645e-05
2.228136305e-05
8.7484894e-06
1.934790445e-06
2.069511387e-05
0.0003494197641
0.0001322506598
5.412767696e-05
3.174495402e-05
5.195582726e-07
5.606314136e-10
4.563339715e-09
1.295764144e-07
3.910504798e-07
1.037341818e-06
3.725790125e-06
0.0001936680779
0.0002751662576
0.0001894189746
7.764489313e-05
4.916756654e-06
9.214778904e-07
0.004207802018
8.913449715e-05
6.896842837e-05
5.5079483e-05
5.672216041e-05
5.810944472e-05
5.894377029e-05
5.726316367e-05
5.076527868e-05
3.92892752e-05
2.629170974e-05
1.728336968e-05
2.177634108e-05
8.48525292e-05
0.000335540969
0.0001487312882
6.612391743e-05
3.710349876e-05
7.117445279e-10
7.987325245e-10
4.179345716e-09
7.84510503e-08
2.518031087e-07
8.093216219e-07
1.050287254e-05
0.000425114803
0.0001405993294
4.666617334e-05
1.71262742e-05
2.220485161e-06
5.169040742e-07
0.003966385015
8.760241076e-05
6.388104598e-05
4.994580027e-05
4.919601229e-05
4.84249241e-05
4.808867069e-05
4.755416661e-05
4.546158502e-05
4.134954605e-05
3.806793363e-05
4.340092316e-05
7.314034179e-05
0.0001514503363
0.0002448716225
0.0001190328216
6.508439236e-05
3.831229437e-05
2.018861249e-11
1.205607665e-09
5.855456887e-09
1.906013311e-05
5.649566842e-06
2.908820332e-06
5.062462261e-05
0.0005206812375
6.224163521e-05
4.421016773e-05
3.873690228e-05
3.235319304e-05
3.10799332e-05
0.003828364877
9.527715e-05
6.916322709e-05
5.392256216e-05
4.719986057e-05
4.206067449e-05
4.132915971e-05
4.20419179e-05
4.453342937e-05
4.991797325e-05
6.233432576e-05
8.923023421e-05
0.0001266580114
0.0001490483117
0.0001276571702
5.362687015e-05
3.677173532e-05
2.503704264e-05
1.673418656e-11
1.801757764e-09
1.736520044e-08
7.494994947e-05
9.437181194e-06
8.430645446e-06
0.0001922912573
0.0004192126006
3.356167396e-05
4.004607848e-05
5.171071204e-05
5.272329723e-05
5.228982379e-05
0.004428785157
0.0002056219331
0.0001474250255
0.0001019875243
7.426047093e-05
5.525144263e-05
3.972327947e-05
4.234353581e-05
4.916396982e-05
6.28005021e-05
8.622444831e-05
0.0001194630814
0.0001280552882
9.941912897e-05
5.314275217e-05
1.271767621e-05
1.072488673e-05
9.058989299e-06
3.841315611e-11
2.610043936e-09
4.414256273e-08
2.896589991e-06
3.469730555e-06
1.944105438e-05
0.0004159715013
0.0001912884687
2.087210621e-05
3.592810572e-05
6.880987031e-05
9.195919566e-05
9.056331896e-05
0.00636677176
0.001563733566
0.003716721768
0.005412299125
0.004048157016
0.0004703949716
6.909666371e-05
4.691351984e-05
5.573700298e-05
7.00698839e-05
8.813585731e-05
0.0001004998752
8.526441463e-05
5.126191485e-05
1.823293795e-05
2.750676858e-06
2.353077983e-06
2.429001244e-06
1.579720702e-10
4.042497593e-09
9.511626674e-08
4.454562039e-07
1.756511747e-06
6.438501327e-05
0.0005960619158
9.152235034e-05
3.840454879e-05
0.0001409477026
0.000501248623
0.0007829669026
0.0005315559541
0.007094393008
0.0005209168204
0.003439127053
0.004620136783
0.00596417456
0.007377272737
0.0009941622958
9.136650439e-05
5.940896515e-05
6.76957599e-05
7.23405183e-05
6.649478191e-05
4.617466477e-05
2.258821169e-05
6.519691997e-06
1.405914648e-06
1.068406962e-06
1.05752843e-06
5.669343575e-07
5.515566777e-07
4.972221149e-07
2.124536353e-07
1.495874399e-06
0.0002868939017
0.00126329136
0.0002385479881
0.0002568237521
0.0005712176846
0.0007060399198
0.0003777003015
0.0001086320887
0.008934488218
0.0008711940864
0.003156882123
0.004211508803
0.004669296007
0.004618357223
0.006487553905
0.001295189929
7.918210431e-05
5.966947359e-05
5.465273788e-05
4.221093141e-05
2.580362774e-05
1.234719597e-05
5.129023083e-06
2.88606016e-06
2.636977041e-06
2.647085808e-06
2.537802681e-06
2.39329632e-06
2.077780467e-06
1.875081275e-06
3.681695448e-06
0.002372375588
0.002883062059
0.001243763053
0.00116479193
0.0009679122233
0.0004929168739
0.0001218944672
3.545870315e-05
0.01104397669
0.001890048457
0.003856796553
0.004062291824
0.003815972966
0.003441020401
0.003838872184
0.00244816907
8.438716167e-05
5.108256031e-05
4.242775372e-05
3.1408058e-05
1.994165094e-05
1.182976165e-05
7.797183101e-06
6.525683915e-06
6.442185295e-06
6.606462626e-06
6.654289715e-06
6.33060317e-06
5.288957904e-06
3.412673099e-06
1.054880484e-05
0.0003103877361
0.001658462373
0.000353314975
5.376162916e-05
0.0003829838375
0.0001807760936
2.92670546e-05
6.961962926e-06
0.009812569126
0.00386166411
0.004477472052
0.0035738748
0.002536544626
0.001849432786
0.003540074348
0.004599364621
0.0002556465078
0.0001479116315
9.187872758e-05
5.419017953e-05
3.154547231e-05
2.018726665e-05
1.543614986e-05
1.4186061e-05
1.487367839e-05
1.681355068e-05
1.949796611e-05
2.182744987e-05
2.191281964e-05
1.949439525e-05
3.622091846e-05
6.205015077e-05
0.000719329974
0.0001834340354
0.0001476445959
0.0004401140204
0.0002227819205
1.47833206e-05
9.534391617e-06
0.008927218882
0.00621594305
0.004438352879
0.002410260549
0.0007889133868
0.0004189712644
0.0004284086287
0.001459178204
0.000228192171
0.0001161295901
0.0001002412656
8.080593179e-05
5.833972151e-05
4.406837804e-05
3.848335414e-05
3.943406061e-05
4.58422186e-05
5.751643855e-05
7.388468129e-05
9.092013623e-05
9.932410947e-05
9.50480829e-05
9.637003756e-05
6.79333521e-05
0.0003494317479
0.0003141893477
0.0004783361679
0.0001352987055
9.303546561e-06
6.84520623e-06
6.822813233e-06
0.009475478869
0.008554101794
0.00842950385
0.008155330928
0.008477319411
0.008370698878
0.008735755637
0.008742822945
0.005532449975
0.003955749525
0.003408568344
0.003104814023
0.002905159671
0.00272148896
0.002520506454
0.002311915755
0.002171904576
0.002242310986
0.002631333822
0.003220373761
0.003653950792
0.003642338319
0.003362407407
0.003197478148
0.003294815692
0.003941157723
0.004209700566
0.003948711159
0.003962428874
0.003886332772
0.003519908613
)
;

boundaryField
{
    walls
    {
        type            zeroGradient;
    }
    wallFilmFace_top
    {
        type            zeroGradient;
    }
    region0_to_wallFilmRegion_wallFilmFace
    {
        type            zeroGradient;
    }
    mirrorFace_top
    {
        type            zeroGradient;
    }
    region0_to_wallFilmRegion_mirrorFace
    {
        type            zeroGradient;
    }
    procBoundary1to0
    {
        type            processor;
        value           nonuniform List<scalar> 
52
(
0.003314020192
0.0001450261344
7.23150871e-05
3.542298557e-05
3.702235128e-05
3.968744308e-05
4.27184466e-05
4.426807677e-05
4.426807677e-05
4.576755681e-05
4.340732618e-05
3.753007731e-05
2.971242621e-05
2.971242621e-05
1.818945235e-05
2.717662338e-05
2.717662338e-05
3.646120446e-06
2.089700585e-06
1.955673767e-06
1.915235752e-06
1.915235752e-06
1.333132137e-06
2.006139402e-06
2.006139402e-06
1.112381986e-05
9.623057733e-05
0.001403743183
9.485946128e-05
9.485946128e-05
1.345252971e-05
1.325889423e-05
1.325889423e-05
1.655765329e-05
1.692015463e-05
1.692015463e-05
6.52921449e-05
0.0002000710541
0.0003488672316
0.0003488672316
0.0003333378865
0.0003333378865
0.0004743914275
0.001081410638
0.001856717534
0.001856717534
0.0009682073385
0.0002567477318
0.0004761872185
0.0005653635325
0.001035291241
0.001230280129
)
;
    }
    procBoundary1to2
    {
        type            processor;
        value           nonuniform List<scalar> 
33
(
0.001950718167
0.0004333360137
0.0004333360137
3.454599552e-05
3.454599552e-05
0.0001898876651
0.0003510432508
0.0003223692766
0.0003223692766
0.000191890839
0.0003947247994
0.0007400223372
0.0007009712759
0.0003252823835
0.000141325257
0.0001632127217
3.876829832e-05
3.090024246e-05
3.096168736e-05
4.825779696e-09
2.101022876e-09
2.588830037e-09
3.939971789e-09
3.158977811e-05
5.292680724e-05
5.984935696e-05
6.718779376e-05
0.0001066676929
0.0001099259292
6.29951907e-06
7.208108666e-06
7.63880761e-06
0.002735883067
)
;
    }
}


// ************************************************************************* //
