/*--------------------------------*- C++ -*----------------------------------*\
  =========                 |
  \\      /  F ield         | OpenFOAM: The Open Source CFD Toolbox
   \\    /   O peration     | Website:  https://openfoam.org
    \\  /    A nd           | Version:  8
     \\/     M anipulation  |
\*---------------------------------------------------------------------------*/
FoamFile
{
    version     2.0;
    format      ascii;
    class       volScalarField;
    location    "1.1/wallFilmRegion";
    object      kappa;
}
// * * * * * * * * * * * * * * * * * * * * * * * * * * * * * * * * * * * * * //

dimensions      [1 1 -3 -1 0 0 0];

internalField   nonuniform List<scalar> 
1369
(
0.6088100027
0.6088100046
0.6088100048
0.6088100042
0.6088100034
0.6088100028
0.6088100024
0.6088100027
0.6088100041
0.6088100042
0.6088100035
0.6088100028
0.6088100023
0.608810002
0.6088100019
0.6088100018
0.608810002
0.6088100024
0.6088100027
0.6088100039
0.6088100037
0.608810003
0.6088100024
0.6088100021
0.6088100018
0.6088100015
0.6088100013
0.6088100019
0.6088100022
0.608810003
0.6088100047
0.6088100026
0.6088100038
0.6088100036
0.6088100028
0.6088100023
0.6088100019
0.6088100015
0.6088100011
0.6088100008
0.6088100017
0.608810002
0.6088100026
0.6088100035
0.6088100043
0.6088100116
0.6088100296
0.6088100362
0.6088100027
0.608810004
0.6088100036
0.6088100028
0.6088100022
0.6088100017
0.6088100012
0.6088100007
0.6088100004
0.6088100016
0.608810002
0.6088100024
0.608810003
0.6088100029
0.6088100026
0.6088100087
0.6088100285
0.6088100285
0.6088100128
0.6088100028
0.6088100039
0.6088100032
0.6088100025
0.6088100023
0.6088100015
0.6088100009
0.6088100004
0.6088100002
0.6088100014
0.6088100019
0.6088100025
0.6088100027
0.6088100025
0.6088100021
0.6088100019
0.6088100118
0.608810014
0.6088100044
0.6088100078
0.6088100001
0.6088099988
0.6088099979
0.608810003
0.6088100027
0.6088100021
0.6088100018
0.6088100021
0.6088100012
0.6088100006
0.6088100002
0.6088100001
0.6088100008
0.6088100012
0.6088100021
0.6088100023
0.6088100021
0.608810002
0.6088100016
0.6088100022
0.6088100018
0.608809999
0.6088099988
0.6088099983
0.6088099978
0.6088099975
0.6088100016
0.6088099925
0.608810003
0.6088100013
0.608810001
0.6088100011
0.6088100016
0.6088100008
0.6088100004
0.6088100001
0.60881
0.6088100004
0.6088100006
0.6088100012
0.6088100018
0.6088100017
0.6088100017
0.6088100009
0.6088099996
0.6088099981
0.6088099984
0.6088099989
0.6088099975
0.6088099932
0.6088099989
0.6088099907
0.6088099856
0.6088100051
0.6088100029
0.6088100005
0.6088100004
0.6088100005
0.608810002
0.6088100018
0.6088100012
0.6088100006
0.6088100004
0.6088100011
0.6088100011
0.6088100013
0.6088100014
0.6088100015
0.6088100019
0.6088100017
0.6088100003
0.6088099988
0.608810001
0.6088099975
0.6088099819
0.6088099779
0.6088100004
0.608809986
0.6088099844
0.6088100254
0.6088100026
0.6088100001
0.6088100001
0.6088100001
0.6088100011
0.6088100014
0.6088100015
0.6088100009
0.6088100006
0.6088100014
0.6088100013
0.6088100013
0.6088100011
0.6088100012
0.608810002
0.6088100026
0.6088100019
0.6088099992
0.6088099993
0.6088099894
0.6088099793
0.6088099775
0.6088099935
0.608809985
0.608809984
0.6088099916
0.6088099918
0.6088100023
0.6088099999
0.60881
0.60881
0.6088100005
0.6088100008
0.6088100018
0.6088100015
0.608810001
0.6088100018
0.6088100016
0.6088100012
0.6088100005
0.6088100011
0.608810002
0.6088100033
0.6088100036
0.6088099999
0.6088099993
0.6088100015
0.6088100031
0.6088099898
0.6088099858
0.608809983
0.6088099825
0.6088099863
0.6088099893
0.6088100023
0.6088099991
0.6088099999
0.6088100003
0.6088100015
0.6088100017
0.6088100018
0.608810002
0.608810002
0.608810002
0.6088100017
0.6088100009
0.6088099989
0.608810001
0.608810002
0.6088100039
0.6088100043
0.6088100003
0.6088099996
0.6088100033
0.6088100045
0.6088100068
0.6088099946
0.6088099851
0.6088099843
0.6088099906
0.6088099917
0.6088100021
0.6088099984
0.6088099995
0.6088100003
0.6088100015
0.6088100016
0.6088100018
0.608810002
0.6088100021
0.6088100019
0.6088100012
0.6088100002
0.6088099983
0.6088100009
0.6088100023
0.6088100049
0.608810006
0.6088100015
0.6088100001
0.6088100014
0.6088100022
0.6088100007
0.6088100008
0.6088099893
0.6088099866
0.6088099928
0.6088099939
0.6088099928
0.6088100021
0.6088099987
0.6088099996
0.6088100005
0.6088100017
0.6088100018
0.6088100019
0.608810002
0.6088100019
0.6088100015
0.6088100013
0.6088100012
0.6088100011
0.608810001
0.6088100028
0.6088100046
0.6088099894
0.6088100041
0.6088100016
0.6088100023
0.6088100026
0.6088100023
0.608810001
0.6088100001
0.6088099911
0.6088099948
0.6088099959
0.6088099881
0.6088099924
0.6088100023
0.6088100013
0.6088100017
0.608810002
0.6088100023
0.6088100025
0.6088100023
0.6088100019
0.6088100014
0.6088100011
0.6088100011
0.6088100011
0.6088100013
0.6088100021
0.608810003
0.6088099907
0.608809979
0.6088100032
0.6088099941
0.6088100026
0.6088100033
0.6088100037
0.6088100018
0.6088100006
0.6088099953
0.6088099945
0.6088099936
0.6088099951
0.6088099919
0.6088100021
0.6088100013
0.6088100018
0.6088100022
0.6088100028
0.6088100029
0.6088100017
0.6088100012
0.6088100011
0.6088100009
0.608810001
0.6088100012
0.6088100017
0.6088100023
0.6088099976
0.6088099821
0.6088099788
0.608809998
0.6088100042
0.6088100038
0.6088100042
0.6088100058
0.6088100032
0.6088100019
0.6088099916
0.6088099888
0.6088099924
0.6088099898
0.6088099936
0.6088100019
0.6088100013
0.6088100017
0.6088100021
0.6088100023
0.6088100016
0.6088100009
0.6088100007
0.6088100006
0.6088100007
0.6088100011
0.6088100014
0.6088100016
0.608810002
0.6088100032
0.6088100043
0.6088099963
0.6088100127
0.6088100063
0.6088100054
0.6088100065
0.6088100101
0.608810012
0.6088100031
0.6088099852
0.6088099888
0.6088099935
0.6088099905
0.6088099906
0.6088099898
0.6088099917
0.608809989
0.60880999
0.608809992
0.6088100018
0.6088099983
0.6088099983
0.6088099992
0.6088100004
0.6088100008
0.6088100006
0.6088100004
0.6088100004
0.6088100006
0.6088100014
0.6088100015
0.6088100015
0.6088100017
0.6088100026
0.6088100049
0.6088100084
0.6088100145
0.6088100085
0.6088100074
0.608810007
0.6088100092
0.6088100017
0.6088100083
0.6088099938
0.6088099922
0.608809992
0.6088099905
0.6088099916
0.6088099905
0.608809992
0.608809989
0.6088099898
0.6088099915
0.6088100017
0.6088099996
0.6088099998
0.6088100002
0.6088100005
0.6088100004
0.6088100003
0.6088100002
0.6088100002
0.6088100004
0.6088100014
0.6088100014
0.6088100011
0.6088100014
0.6088100019
0.6088100038
0.6088100079
0.6088100129
0.6088100091
0.6088100092
0.6088100077
0.6088100073
0.6088100003
0.6088100027
0.6088100013
0.6088099958
0.6088099944
0.6088099929
0.608809994
0.6088099918
0.6088099924
0.6088099899
0.6088099908
0.6088099935
0.6088100018
0.6088100002
0.6088100003
0.6088100004
0.6088100004
0.6088100003
0.6088100002
0.6088100001
0.6088100001
0.6088100001
0.6088100004
0.6088100005
0.6088100007
0.6088100013
0.6088100016
0.6088100026
0.6088100057
0.6088100103
0.6088100094
0.6088100115
0.6088100107
0.608810006
0.6088100006
0.6088100004
0.6088100012
0.6088099986
0.608810018
0.6088100072
0.60881
0.6088099943
0.6088099935
0.6088099911
0.6088099931
0.6088100019
0.6088100006
0.6088100007
0.6088100007
0.6088100006
0.6088100005
0.6088100004
0.6088100003
0.6088100002
0.6088100002
0.608810001
0.6088100024
0.6088100017
0.6088100016
0.6088100017
0.6088100017
0.6088100018
0.6088100074
0.6088100107
0.6088100163
0.6088100206
0.6088100089
0.6088100018
0.6088100009
0.608810002
0.6088100011
0.6088100185
0.6088100172
0.6088100122
0.6088100022
0.6088099965
0.608809996
0.6088100018
0.608810001
0.608810001
0.608810001
0.6088100009
0.6088100007
0.6088100005
0.6088100004
0.6088100003
0.6088100004
0.6088100026
0.6088100043
0.6088100023
0.6088100019
0.6088100358
0.6088100251
0.6088100072
0.6088100062
0.6088100172
0.6088100336
0.6088100412
0.6088100306
0.6088100051
0.6088100008
0.6088100032
0.608810003
0.6088100193
0.608810005
0.6088099978
0.6088099959
0.6088099953
0.6088099957
0.6088100018
0.6088100012
0.6088100013
0.6088100014
0.6088100013
0.6088100012
0.608810001
0.6088100007
0.6088100006
0.6088100007
0.6088100027
0.6088100061
0.608810003
0.6088100022
0.6088100039
0.6088100139
0.6088100048
0.6088100036
0.6088100125
0.6088100246
0.6088100354
0.6088100358
0.6088100191
0.6088100029
0.6088100009
0.608810003
0.6088100044
0.6088100022
0.6088100001
0.608809999
0.6088099985
0.6088099989
0.6088100019
0.6088100014
0.6088100015
0.6088100016
0.6088100017
0.6088100016
0.6088100014
0.6088100011
0.608810001
0.6088100011
0.6088100035
0.6088100103
0.6088100044
0.6088100028
0.6088100111
0.6088100284
0.6088100032
0.6088100028
0.6088100225
0.608810028
0.6088100321
0.6088100313
0.6088100151
0.6088100045
0.6088099999
0.6088100011
0.608809999
0.6088099983
0.6088099982
0.6088099981
0.6088099982
0.6088100021
0.6088100017
0.6088100018
0.608810002
0.6088100021
0.6088100023
0.6088100025
0.608810002
0.6088100016
0.6088100017
0.6088100164
0.6088100182
0.6088100085
0.6088100061
0.6088100056
0.6088100032
0.608810002
0.6088100027
0.6088100435
0.6088100373
0.6088100359
0.6088100277
0.6088100027
0.6088099999
0.608809998
0.6088100002
0.608809998
0.608809996
0.6088099961
0.6088099974
0.6088099978
0.6088100022
0.6088100019
0.6088100019
0.6088100019
0.6088100021
0.6088100025
0.6088100035
0.6088100055
0.6088100062
0.6088100059
0.6088100257
0.6088100261
0.6088100149
0.6088100087
0.6088100046
0.6088100025
0.6088100015
0.6088100026
0.6088100429
0.6088100364
0.6088101331
0.60881005
0.6088099984
0.6088099968
0.6088099946
0.6088099992
0.6088099978
0.6088099943
0.6088099925
0.6088099978
0.6088099974
0.608810002
0.6088100017
0.6088100019
0.6088100025
0.6088100034
0.6088100048
0.6088100067
0.6088100093
0.6088100126
0.6088100166
0.6088100238
0.6088100315
0.6088100265
0.608810018
0.6088100132
0.6088100088
0.6088100011
0.6088100019
0.6088100275
0.6088100176
0.6088136379
0.6088100249
0.6088099987
0.6088099959
0.6088099929
0.608809993
0.608809992
0.6088099879
0.6088099846
0.6088099952
0.6088099998
0.6088100019
0.6088100018
0.6088100019
0.6088100021
0.6088100026
0.6088100033
0.6088100044
0.6088100058
0.6088100078
0.6088100108
0.6088100157
0.6088100239
0.6088100249
0.6088100158
0.60881001
0.608810005
0.6088100008
0.6088100016
0.608810022
0.6088100124
0.6088101089
0.6088100191
0.6088099959
0.608809995
0.6088099945
0.6088099928
0.6088099898
0.6088099873
0.6088099927
0.6088099993
0.6088099978
0.6088100017
0.608810002
0.6088100019
0.608810002
0.6088100022
0.6088100026
0.6088100032
0.6088100041
0.6088100054
0.6088100073
0.6088100103
0.6088100145
0.6088100109
0.6088100061
0.6088100037
0.6088100028
0.6088100006
0.6088100018
0.608810029
0.6088100103
0.6088100518
0.6088099974
0.6088099954
0.6088099954
0.6088099962
0.6088099948
0.6088099922
0.6088099908
0.6088099964
0.6088099988
0.6088099976
0.6088100015
0.6088100023
0.608810002
0.6088100019
0.608810002
0.6088100022
0.6088100026
0.6088100032
0.608810004
0.6088100047
0.608810004
0.6088100023
0.6088100016
0.6088100014
0.6088100014
0.6088100016
0.6088100006
0.6088100009
0.6088100009
0.6088100008
0.6088100015
0.6088100016
0.6088099928
0.6088099952
0.6088099975
0.6088099966
0.6088099944
0.6088099948
0.608810002
0.6088100001
0.608809997
0.6088100014
0.6088100025
0.6088100021
0.6088100019
0.6088100019
0.608810002
0.6088100022
0.6088100026
0.6088100032
0.6088100038
0.6088100033
0.6088100021
0.6088100015
0.6088100012
0.608810001
0.6088100009
0.6088100007
0.6088100013
0.6088104759
0.60881371
0.608810006
0.6088100025
0.6088099939
0.6088099971
0.6088099983
0.6088099977
0.6088099961
0.6088099973
0.6088100042
0.6088100055
0.6088100013
0.6088100013
0.6088100026
0.6088100022
0.608810002
0.6088100018
0.6088100018
0.6088100019
0.6088100022
0.6088100026
0.6088100033
0.6088100036
0.6088100025
0.6088100017
0.6088100014
0.6088100011
0.6088100007
0.6088100006
0.608810001
0.6088137691
0.6088138179
0.6088100199
0.6088100041
0.6088100053
0.6088100022
0.6088100009
0.6088099987
0.6088099975
0.6088099979
0.6088100009
0.6088100097
0.6088100058
0.6088100014
0.6088100027
0.6088100023
0.608810002
0.6088100018
0.6088100017
0.6088100018
0.6088100019
0.6088100023
0.6088100029
0.6088100038
0.6088100037
0.6088100027
0.6088100017
0.6088100014
0.6088100007
0.6088100007
0.6088100009
0.6088137491
0.6088138495
0.6088100705
0.60881001
0.6088100107
0.6088100074
0.608810004
0.6088100023
0.6088099988
0.6088099981
0.6088099991
0.6088100033
0.6088100042
0.6088100015
0.6088100026
0.6088100023
0.6088100021
0.6088100019
0.6088100017
0.6088100017
0.6088100018
0.6088100021
0.6088100026
0.6088100037
0.6088100052
0.6088100066
0.6088100024
0.6088100018
0.6088100008
0.6088100008
0.6088100009
0.6088137697
0.6088138748
0.6088102551
0.6088100255
0.608810021
0.6088100155
0.6088100101
0.6088100071
0.6088100011
0.6088099988
0.6088099987
0.6088099999
0.6088100031
0.6088100016
0.6088100025
0.6088100023
0.6088100021
0.6088100019
0.6088100018
0.6088100017
0.6088100018
0.608810002
0.6088100025
0.6088100036
0.6088100062
0.6088100179
0.6088100042
0.6088100023
0.608810001
0.6088100009
0.608810001
0.6088138227
0.6088139122
0.6088108299
0.6088100618
0.6088100412
0.6088100291
0.6088100205
0.6088100139
0.6088100047
0.6088099999
0.6088099992
0.6088100013
0.6088100139
0.6088100018
0.6088100024
0.6088100023
0.6088100022
0.6088100021
0.6088100019
0.6088100019
0.6088100019
0.6088100021
0.6088100025
0.6088100036
0.6088100069
0.6088100386
0.6088100076
0.6088100028
0.6088100015
0.6088100012
0.6088100013
0.608812717
0.6088139493
0.6088120352
0.6088101425
0.6088100808
0.6088100524
0.6088100359
0.6088100059
0.6088100022
0.6088100007
0.6088100001
0.6088100073
0.6088100274
0.608810002
0.6088100024
0.6088100024
0.6088100023
0.6088100022
0.6088100022
0.6088100021
0.6088100021
0.6088100023
0.6088100028
0.6088100039
0.6088100074
0.6088100286
0.6088100068
0.6088100034
0.6088100024
0.6088100017
0.6088100021
0.6088101109
0.6088139858
0.6088132
0.6088103075
0.6088101562
0.6088100919
0.6088100458
0.6088100022
0.6088100013
0.6088100012
0.6088100023
0.6088100191
0.6088100513
0.6088100021
0.6088100024
0.6088100025
0.6088100025
0.6088100025
0.6088100025
0.6088100025
0.6088100025
0.6088100027
0.6088100032
0.6088100043
0.6088100064
0.6088100067
0.6088100046
0.6088100039
0.6088100034
0.6088100025
0.6088100025
0.6088139647
0.6088140238
0.6088136124
0.6088106103
0.6088102856
0.6088101438
0.6088100221
0.6088100017
0.6088100017
0.6088100033
0.6088100076
0.6088100368
0.6088100917
0.6088100022
0.6088100026
0.6088100026
0.6088100027
0.6088100028
0.6088100029
0.608810003
0.6088100031
0.6088100034
0.6088100038
0.6088100046
0.608810005
0.6088100046
0.6088100042
0.6088100043
0.6088100043
0.6088100032
0.608810003
0.6088140038
0.6088140462
0.6088134601
0.6088100101
0.6088100309
0.6088100665
0.6088100076
0.6088100017
0.6088100037
0.6088100039
0.6088100026
0.6088100018
0.6088100012
0.6088100023
0.6088100028
0.6088100028
0.608810003
0.6088100031
0.6088100033
0.6088100035
0.6088100037
0.608810004
0.6088100043
0.6088100045
0.6088100044
0.6088100042
0.6088100042
0.6088100046
0.6088100056
0.6088100043
0.6088100038
0.6088140823
0.608814002
0.6088123442
0.6088100042
0.6088100203
0.6088100255
0.6088100035
0.6088100019
0.6088100063
0.6088100043
0.6088100022
0.6088100012
0.6088100007
0.6088100024
0.6088100031
0.6088100032
0.6088100032
0.6088100033
0.6088100036
0.6088100039
0.6088100042
0.6088100044
0.6088100044
0.6088100044
0.6088100042
0.6088100042
0.6088100045
0.6088100057
0.6088100097
0.6088100074
0.608810006
0.6088141346
0.6088138266
0.6088114305
0.6088100174
0.6088100197
0.6088100108
0.6088100025
0.6088100027
0.6088100108
0.608810007
0.6088100035
0.6088100018
0.608810001
0.6088100027
0.6088100035
0.6088100036
0.6088100036
0.6088100036
0.6088100036
0.6088100041
0.6088100044
0.6088100045
0.6088100046
0.6088100045
0.6088100045
0.6088100047
0.6088100056
0.6088100087
0.6088100265
0.6088100216
0.6088100144
0.6088141658
0.6088134168
0.6088108617
0.6088100589
0.6088100208
0.6088100045
0.6088100023
0.6088100047
0.6088100095
0.6088100051
0.6088100038
0.6088100034
0.608810003
0.6088100026
0.6088100035
0.6088100035
0.6088100035
0.6088100036
0.6088100036
0.6088100037
0.6088100044
0.6088100047
0.6088100048
0.608810005
0.6088100053
0.6088100061
0.6088100083
0.6088100161
0.608810043
0.6088100418
0.6088100347
0.6088100537
0.6088100815
0.6088101373
0.6088100707
0.6088100176
0.6088100022
0.6088100021
0.6088100047
0.6088100046
0.6088100034
0.6088100033
0.6088100033
0.6088100044
0.6088100026
0.6088100033
0.6088100034
0.6088100035
0.6088100035
0.6088100036
0.6088100036
0.6088100037
0.608810005
0.6088100053
0.6088100057
0.6088100063
0.6088100076
0.6088100106
0.6088100165
0.6088100209
0.6088100193
0.608810018
0.6088100193
0.6088100242
0.60881003
0.608810016
0.6088100083
0.6088100008
0.6088100019
0.6088100033
0.6088100029
0.6088100022
0.6088100024
0.6088100026
0.6088100053
0.6088100027
0.6088100033
0.6088100034
0.6088100035
0.6088100035
0.6088100036
0.6088100036
0.6088100037
0.6088100053
0.6088100059
0.6088100062
0.6088100067
0.6088100075
0.6088100089
0.60881001
0.6088100098
0.6088100091
0.6088100087
0.6088100091
0.6088100103
0.6088100118
0.6088100103
0.6088100044
0.6088100009
0.6088100021
0.6088100034
0.6088100022
0.6088099998
0.6088099997
0.6088100014
0.6088100105
0.6088100032
0.6088100034
0.6088100034
0.6088100035
0.6088100035
0.6088100036
0.6088100037
0.6088100036
0.6088100058
0.6088100063
0.6088100061
0.6088100058
0.6088100056
0.6088100057
0.6088100056
0.6088100052
0.6088100046
0.6088100042
0.6088100039
0.6088100037
0.6088100035
0.6088100029
0.6088100022
0.608810002
0.608810002
0.6088100028
0.608810002
0.6088100001
0.6088099999
0.6088100029
0.6088100063
0.6088100035
0.6088100034
0.6088100035
0.6088100035
0.6088100034
0.6088100034
0.6088100035
0.6088100037
0.608810005
0.6088100054
0.6088100057
0.6088100052
0.6088100043
0.6088100036
0.6088100031
0.6088100026
0.6088100022
0.6088100018
0.6088100016
0.6088100014
0.6088100013
0.6088100012
0.6088100012
0.6088100013
0.6088100017
0.6088100012
0.6088099997
0.6088100002
0.6088100029
0.6088100028
0.6088100029
0.6088100033
0.6088100034
0.6088100036
0.6088100034
0.6088100033
0.6088100031
0.608810003
0.6088100029
0.6088100027
0.6088100026
0.6088100026
0.6088100027
0.6088100027
0.6088100028
0.6088100029
0.6088100029
0.6088100029
0.6088100026
0.6088100021
0.6088100016
0.6088100014
0.6088100013
0.6088100013
0.6088100015
0.6088100019
0.6088100017
0.6088100019
0.6088100022
0.608810002
0.6088100018
0.6088100017
)
;

boundaryField
{
    walls
    {
        type            zeroGradient;
    }
    wallFilmFace_top
    {
        type            zeroGradient;
    }
    region0_to_wallFilmRegion_wallFilmFace
    {
        type            zeroGradient;
    }
    mirrorFace_top
    {
        type            zeroGradient;
    }
    region0_to_wallFilmRegion_mirrorFace
    {
        type            zeroGradient;
    }
    procBoundary1to0
    {
        type            processor;
        value           nonuniform List<scalar> 
52
(
0.6088100027
0.6088100051
0.6088100055
0.6088100051
0.6088100042
0.6088100034
0.6088100028
0.6088100021
0.6088100021
0.6088100021
0.6088100022
0.6088100027
0.6088100034
0.6088100034
0.6088100059
0.6088100076
0.6088100076
0.6088100268
0.6088100386
0.6088100395
0.608810036
0.608810036
0.6088100237
0.6088100223
0.6088100223
0.6088100063
0.60881
0.6088099985
0.6088099996
0.6088099996
0.6088100046
0.608810002
0.608810002
0.6088099969
0.6088099956
0.6088099956
0.6088099931
0.6088099919
0.6088099922
0.6088099922
0.6088099928
0.6088099928
0.6088099931
0.6088099921
0.6088099943
0.6088099943
0.6088099922
0.6088099919
0.6088099918
0.6088099935
0.608809995
0.6088099958
)
;
    }
    procBoundary1to2
    {
        type            processor;
        value           nonuniform List<scalar> 
33
(
0.6088099974
0.6088099965
0.6088099965
0.60881
0.60881
0.6088100006
0.6088100001
0.6088099983
0.6088099983
0.6088099984
0.6088099969
0.6088099983
0.6088099962
0.6088099965
0.6088099948
0.6088099971
0.6088100036
0.608810004
0.608810004
0.6088131298
0.60881347
0.6088134725
0.6088134172
0.6088100008
0.6088100005
0.6088100005
0.6088100007
0.6088100031
0.6088100043
0.6088100084
0.6088100058
0.6088100033
0.6088100015
)
;
    }
}


// ************************************************************************* //
