/*--------------------------------*- C++ -*----------------------------------*\
  =========                 |
  \\      /  F ield         | OpenFOAM: The Open Source CFD Toolbox
   \\    /   O peration     | Website:  https://openfoam.org
    \\  /    A nd           | Version:  8
     \\/     M anipulation  |
\*---------------------------------------------------------------------------*/
FoamFile
{
    version     2.0;
    format      ascii;
    class       volScalarField;
    location    "1.1/wallFilmRegion";
    object      sigma;
}
// * * * * * * * * * * * * * * * * * * * * * * * * * * * * * * * * * * * * * //

dimensions      [1 0 -2 0 0 0 0];

internalField   nonuniform List<scalar> 
1369
(
0.07244713443
0.07244713416
0.07244713413
0.07244713421
0.07244713433
0.07244713442
0.07244713448
0.07244713443
0.07244713422
0.07244713422
0.07244713432
0.07244713441
0.07244713448
0.07244713453
0.07244713455
0.07244713457
0.07244713453
0.07244713447
0.07244713444
0.07244713426
0.07244713428
0.07244713439
0.07244713447
0.07244713452
0.07244713456
0.0724471346
0.07244713463
0.07244713456
0.0724471345
0.07244713439
0.07244713415
0.07244713444
0.07244713427
0.07244713431
0.07244713442
0.0724471345
0.07244713455
0.07244713461
0.07244713467
0.07244713471
0.07244713457
0.07244713453
0.07244713445
0.07244713432
0.0724471342
0.07244713314
0.07244713054
0.07244712958
0.07244713444
0.07244713424
0.07244713431
0.07244713442
0.0724471345
0.07244713457
0.07244713465
0.07244713472
0.07244713476
0.07244713459
0.07244713454
0.07244713447
0.07244713439
0.0724471344
0.07244713445
0.07244713356
0.07244713069
0.0724471307
0.07244713296
0.07244713442
0.07244713426
0.07244713436
0.07244713445
0.07244713449
0.0724471346
0.0724471347
0.07244713476
0.07244713479
0.07244713462
0.07244713454
0.07244713447
0.07244713443
0.07244713446
0.07244713452
0.07244713455
0.07244713312
0.0724471328
0.07244713418
0.07244713369
0.07244713481
0.072447135
0.07244713512
0.07244713439
0.07244713443
0.07244713452
0.07244713456
0.07244713451
0.07244713465
0.07244713474
0.07244713479
0.07244713481
0.07244713471
0.07244713465
0.07244713452
0.07244713449
0.07244713452
0.07244713454
0.07244713459
0.07244713451
0.07244713457
0.07244713497
0.07244713499
0.07244713507
0.07244713515
0.07244713518
0.07244713459
0.07244713591
0.07244713439
0.07244713463
0.07244713468
0.07244713467
0.07244713459
0.0724471347
0.07244713477
0.07244713481
0.07244713482
0.07244713477
0.07244713473
0.07244713465
0.07244713456
0.07244713457
0.07244713457
0.07244713469
0.07244713488
0.0724471351
0.07244713506
0.07244713499
0.07244713518
0.07244713582
0.07244713499
0.07244713618
0.0724471369
0.07244713408
0.0724471344
0.07244713475
0.07244713476
0.07244713476
0.07244713453
0.07244713456
0.07244713464
0.07244713473
0.07244713477
0.07244713466
0.07244713466
0.07244713464
0.07244713462
0.07244713461
0.07244713455
0.07244713458
0.07244713479
0.072447135
0.07244713468
0.07244713519
0.07244713744
0.07244713802
0.07244713476
0.07244713685
0.07244713709
0.07244713115
0.07244713444
0.07244713481
0.0724471348
0.0724471348
0.07244713467
0.07244713462
0.07244713461
0.07244713469
0.07244713474
0.07244713462
0.07244713463
0.07244713464
0.07244713467
0.07244713465
0.07244713454
0.07244713444
0.07244713454
0.07244713494
0.07244713492
0.07244713635
0.07244713782
0.07244713808
0.07244713576
0.072447137
0.07244713714
0.07244713604
0.07244713601
0.07244713449
0.07244713484
0.07244713482
0.07244713482
0.07244713475
0.0724471347
0.07244713457
0.07244713461
0.07244713468
0.07244713456
0.07244713459
0.07244713465
0.07244713475
0.07244713467
0.07244713454
0.07244713434
0.07244713431
0.07244713484
0.07244713492
0.07244713461
0.07244713438
0.0724471363
0.07244713688
0.07244713729
0.07244713736
0.07244713681
0.07244713637
0.07244713449
0.07244713496
0.07244713483
0.07244713478
0.0724471346
0.07244713458
0.07244713456
0.07244713454
0.07244713453
0.07244713453
0.07244713458
0.0724471347
0.07244713499
0.07244713468
0.07244713453
0.07244713426
0.0724471342
0.07244713478
0.07244713488
0.07244713435
0.07244713417
0.07244713384
0.0724471356
0.07244713698
0.0724471371
0.07244713618
0.07244713602
0.07244713452
0.07244713506
0.07244713489
0.07244713478
0.07244713461
0.07244713459
0.07244713456
0.07244713453
0.07244713452
0.07244713455
0.07244713464
0.07244713479
0.07244713508
0.07244713469
0.0724471345
0.07244713411
0.07244713395
0.07244713461
0.0724471348
0.07244713462
0.0724471345
0.07244713472
0.0724471347
0.07244713637
0.07244713676
0.07244713586
0.0724471357
0.07244713586
0.07244713452
0.07244713501
0.07244713489
0.07244713476
0.07244713458
0.07244713456
0.07244713455
0.07244713454
0.07244713455
0.0724471346
0.07244713463
0.07244713465
0.07244713467
0.07244713468
0.07244713442
0.07244713416
0.07244713636
0.07244713423
0.0724471346
0.07244713449
0.07244713445
0.0724471345
0.07244713468
0.07244713481
0.07244713612
0.07244713558
0.07244713541
0.07244713654
0.07244713592
0.07244713449
0.07244713463
0.07244713458
0.07244713454
0.07244713449
0.07244713446
0.07244713449
0.07244713455
0.07244713462
0.07244713467
0.07244713467
0.07244713466
0.07244713464
0.07244713452
0.07244713438
0.07244713618
0.07244713786
0.07244713436
0.07244713568
0.07244713444
0.07244713435
0.07244713429
0.07244713457
0.07244713473
0.0724471355
0.07244713562
0.07244713575
0.07244713553
0.072447136
0.07244713451
0.07244713463
0.07244713456
0.0724471345
0.07244713442
0.0724471344
0.07244713457
0.07244713465
0.07244713467
0.0724471347
0.07244713469
0.07244713466
0.07244713458
0.07244713449
0.07244713518
0.07244713742
0.0724471379
0.07244713511
0.07244713421
0.07244713428
0.07244713422
0.07244713399
0.07244713437
0.07244713455
0.07244713605
0.07244713645
0.07244713592
0.0724471363
0.07244713575
0.07244713455
0.07244713464
0.07244713458
0.07244713452
0.07244713449
0.07244713459
0.07244713469
0.07244713473
0.07244713473
0.07244713472
0.07244713467
0.07244713463
0.0724471346
0.07244713453
0.07244713435
0.0724471342
0.07244713536
0.07244713299
0.07244713391
0.07244713404
0.07244713387
0.07244713337
0.07244713308
0.07244713437
0.07244713697
0.07244713645
0.07244713576
0.0724471362
0.07244713619
0.07244713631
0.07244713602
0.07244713642
0.07244713627
0.07244713598
0.07244713457
0.07244713508
0.07244713508
0.07244713495
0.07244713476
0.0724471347
0.07244713474
0.07244713476
0.07244713477
0.07244713474
0.07244713461
0.07244713461
0.0724471346
0.07244713458
0.07244713444
0.07244713411
0.07244713361
0.07244713273
0.0724471336
0.07244713376
0.07244713381
0.07244713349
0.07244713458
0.07244713362
0.07244713572
0.07244713595
0.07244713598
0.0724471362
0.07244713604
0.0724471362
0.07244713599
0.07244713642
0.07244713631
0.07244713605
0.07244713458
0.07244713488
0.07244713485
0.07244713479
0.07244713476
0.07244713476
0.07244713478
0.07244713479
0.07244713479
0.07244713477
0.07244713462
0.07244713462
0.07244713466
0.07244713463
0.07244713455
0.07244713428
0.07244713367
0.07244713295
0.0724471335
0.07244713349
0.07244713371
0.07244713377
0.07244713477
0.07244713443
0.07244713463
0.07244713543
0.07244713563
0.07244713586
0.0724471357
0.07244713601
0.07244713593
0.07244713629
0.07244713616
0.07244713576
0.07244713457
0.0724471348
0.07244713478
0.07244713476
0.07244713477
0.07244713478
0.07244713479
0.0724471348
0.07244713481
0.0724471348
0.07244713476
0.07244713475
0.07244713473
0.07244713463
0.07244713459
0.07244713445
0.07244713399
0.07244713333
0.07244713347
0.07244713316
0.07244713327
0.07244713395
0.07244713474
0.07244713476
0.07244713465
0.07244713503
0.07244713221
0.07244713378
0.07244713482
0.07244713565
0.07244713577
0.07244713612
0.07244713583
0.07244713455
0.07244713474
0.07244713473
0.07244713472
0.07244713473
0.07244713475
0.07244713476
0.07244713479
0.0724471348
0.07244713479
0.07244713468
0.07244713447
0.07244713458
0.07244713459
0.07244713458
0.07244713458
0.07244713456
0.07244713375
0.07244713327
0.07244713247
0.07244713183
0.07244713353
0.07244713456
0.0724471347
0.07244713454
0.07244713466
0.07244713214
0.07244713233
0.07244713305
0.0724471345
0.07244713533
0.0724471354
0.07244713457
0.07244713469
0.07244713468
0.07244713467
0.07244713469
0.07244713472
0.07244713474
0.07244713477
0.07244713478
0.07244713476
0.07244713445
0.0724471342
0.07244713448
0.07244713455
0.07244712963
0.07244713119
0.07244713378
0.07244713393
0.07244713233
0.07244712996
0.07244712885
0.07244713039
0.07244713408
0.07244713471
0.07244713436
0.07244713439
0.07244713203
0.0724471341
0.07244713514
0.07244713542
0.0724471355
0.07244713544
0.07244713457
0.07244713465
0.07244713464
0.07244713463
0.07244713463
0.07244713465
0.07244713469
0.07244713472
0.07244713474
0.07244713472
0.07244713443
0.07244713394
0.07244713438
0.07244713451
0.07244713426
0.0724471328
0.07244713413
0.07244713431
0.07244713301
0.07244713126
0.0724471297
0.07244712964
0.07244713206
0.0724471344
0.07244713469
0.07244713439
0.07244713418
0.0724471345
0.0724471348
0.07244713497
0.07244713505
0.07244713498
0.07244713455
0.07244713462
0.0724471346
0.07244713459
0.07244713458
0.07244713459
0.07244713462
0.07244713466
0.07244713469
0.07244713467
0.07244713432
0.07244713334
0.07244713419
0.07244713442
0.07244713321
0.0724471307
0.07244713437
0.07244713442
0.07244713156
0.07244713076
0.07244713017
0.07244713028
0.07244713264
0.07244713418
0.07244713484
0.07244713466
0.07244713497
0.07244713507
0.07244713508
0.0724471351
0.07244713509
0.07244713453
0.07244713457
0.07244713456
0.07244713453
0.07244713451
0.07244713448
0.07244713446
0.07244713453
0.0724471346
0.07244713458
0.07244713245
0.07244713218
0.07244713359
0.07244713394
0.07244713401
0.07244713436
0.07244713453
0.07244713443
0.07244712852
0.07244712942
0.07244712962
0.07244713081
0.07244713444
0.07244713483
0.07244713512
0.0724471348
0.07244713511
0.07244713541
0.07244713539
0.0724471352
0.07244713514
0.07244713451
0.07244713455
0.07244713455
0.07244713455
0.07244713453
0.07244713446
0.07244713431
0.07244713402
0.07244713393
0.07244713397
0.07244713109
0.07244713104
0.07244713266
0.07244713356
0.07244713415
0.07244713447
0.07244713461
0.07244713444
0.0724471286
0.07244712955
0.07244711553
0.07244712758
0.07244713505
0.07244713528
0.07244713561
0.07244713494
0.07244713515
0.07244713566
0.07244713592
0.07244713514
0.0724471352
0.07244713453
0.07244713458
0.07244713454
0.07244713446
0.07244713433
0.07244713413
0.07244713385
0.07244713348
0.072447133
0.07244713242
0.07244713137
0.07244713026
0.07244713098
0.07244713221
0.07244713292
0.07244713355
0.07244713466
0.07244713454
0.07244713084
0.07244713228
0.07244660747
0.07244713122
0.07244713501
0.07244713541
0.07244713586
0.07244713584
0.07244713599
0.07244713658
0.07244713706
0.07244713552
0.07244713485
0.07244713455
0.07244713456
0.07244713455
0.07244713452
0.07244713445
0.07244713435
0.07244713419
0.07244713398
0.07244713369
0.07244713326
0.07244713254
0.07244713135
0.07244713121
0.07244713253
0.07244713337
0.07244713411
0.07244713471
0.07244713458
0.07244713164
0.07244713302
0.07244711904
0.07244713205
0.07244713542
0.07244713556
0.07244713562
0.07244713587
0.07244713631
0.07244713666
0.07244713589
0.07244713493
0.07244713515
0.07244713458
0.07244713453
0.07244713455
0.07244713454
0.0724471345
0.07244713445
0.07244713435
0.07244713422
0.07244713404
0.07244713376
0.07244713333
0.07244713272
0.07244713324
0.07244713394
0.07244713428
0.07244713442
0.07244713474
0.07244713456
0.07244713063
0.07244713333
0.07244712731
0.0724471352
0.07244713549
0.07244713549
0.07244713538
0.07244713558
0.07244713595
0.07244713616
0.07244713534
0.072447135
0.07244713517
0.07244713461
0.0724471345
0.07244713453
0.07244713454
0.07244713453
0.0724471345
0.07244713445
0.07244713436
0.07244713425
0.07244713414
0.07244713425
0.07244713449
0.07244713459
0.07244713462
0.07244713462
0.07244713459
0.07244713474
0.07244713469
0.07244713469
0.07244713471
0.07244713461
0.07244713459
0.07244713587
0.07244713552
0.07244713519
0.07244713531
0.07244713563
0.07244713558
0.07244713453
0.07244713481
0.07244713526
0.07244713462
0.07244713447
0.07244713452
0.07244713454
0.07244713455
0.07244713454
0.07244713451
0.07244713445
0.07244713437
0.07244713428
0.07244713434
0.07244713453
0.0724471346
0.07244713464
0.07244713468
0.07244713469
0.07244713473
0.07244713464
0.07244706583
0.07244659703
0.07244713395
0.07244713446
0.07244713571
0.07244713524
0.07244713507
0.07244713515
0.07244713539
0.07244713522
0.07244713421
0.07244713403
0.07244713464
0.07244713463
0.07244713444
0.0724471345
0.07244713454
0.07244713456
0.07244713456
0.07244713454
0.07244713451
0.07244713444
0.07244713435
0.0724471343
0.07244713446
0.07244713457
0.07244713462
0.07244713467
0.07244713473
0.07244713473
0.07244713468
0.07244658845
0.07244658138
0.07244713194
0.07244713424
0.07244713406
0.0724471345
0.07244713469
0.07244713501
0.07244713518
0.07244713513
0.07244713469
0.07244713342
0.07244713398
0.07244713463
0.07244713444
0.07244713449
0.07244713453
0.07244713456
0.07244713457
0.07244713457
0.07244713454
0.07244713449
0.0724471344
0.07244713428
0.07244713428
0.07244713444
0.07244713457
0.07244713462
0.07244713473
0.07244713472
0.07244713469
0.07244659136
0.07244657681
0.0724471246
0.07244713337
0.07244713327
0.07244713374
0.07244713424
0.07244713449
0.072447135
0.0724471351
0.07244713496
0.07244713435
0.07244713422
0.07244713461
0.07244713444
0.07244713449
0.07244713452
0.07244713455
0.07244713457
0.07244713458
0.07244713456
0.07244713452
0.07244713444
0.07244713429
0.07244713407
0.07244713387
0.07244713448
0.07244713456
0.07244713471
0.07244713471
0.07244713469
0.07244658837
0.07244657314
0.07244709784
0.07244713113
0.07244713178
0.07244713258
0.07244713336
0.0724471338
0.07244713467
0.07244713499
0.07244713501
0.07244713484
0.07244713437
0.07244713459
0.07244713446
0.07244713449
0.07244713451
0.07244713454
0.07244713456
0.07244713457
0.07244713456
0.07244713453
0.07244713446
0.0724471343
0.07244713392
0.07244713223
0.07244713422
0.07244713449
0.07244713467
0.07244713469
0.07244713467
0.07244658069
0.0724465677
0.07244701452
0.07244712587
0.07244712886
0.0724471306
0.07244713185
0.07244713281
0.07244713415
0.07244713483
0.07244713493
0.07244713463
0.07244713281
0.07244713456
0.07244713447
0.07244713448
0.0724471345
0.07244713452
0.07244713454
0.07244713455
0.07244713455
0.07244713452
0.07244713445
0.0724471343
0.07244713382
0.07244712923
0.07244713372
0.07244713442
0.07244713461
0.07244713465
0.07244713463
0.07244674096
0.07244656234
0.07244683981
0.07244711417
0.07244712311
0.07244712723
0.07244712962
0.07244713398
0.07244713451
0.07244713472
0.07244713481
0.07244713377
0.07244713085
0.07244713454
0.07244713448
0.07244713448
0.07244713448
0.0724471345
0.07244713451
0.07244713452
0.07244713451
0.07244713449
0.07244713442
0.07244713426
0.07244713375
0.07244713067
0.07244713384
0.07244713432
0.07244713448
0.07244713458
0.07244713452
0.07244711875
0.07244655704
0.07244667096
0.07244709025
0.07244711218
0.07244712151
0.07244712819
0.0724471345
0.07244713463
0.07244713465
0.07244713449
0.07244713206
0.07244712739
0.07244713452
0.07244713447
0.07244713446
0.07244713446
0.07244713446
0.07244713446
0.07244713446
0.07244713446
0.07244713443
0.07244713436
0.07244713419
0.0724471339
0.07244713386
0.07244713416
0.07244713425
0.07244713433
0.07244713447
0.07244713447
0.0724465601
0.07244655153
0.07244661117
0.07244704635
0.07244709342
0.07244711398
0.07244713162
0.07244713458
0.07244713458
0.07244713434
0.07244713372
0.07244712949
0.07244712153
0.0724471345
0.07244713445
0.07244713444
0.07244713443
0.07244713442
0.07244713441
0.07244713439
0.07244713438
0.07244713434
0.07244713427
0.07244713416
0.07244713409
0.07244713416
0.07244713421
0.07244713421
0.0724471342
0.07244713436
0.07244713439
0.07244655443
0.07244654829
0.07244663325
0.07244713336
0.07244713034
0.07244712518
0.07244713372
0.07244713457
0.07244713428
0.07244713426
0.07244713444
0.07244713456
0.07244713464
0.07244713449
0.07244713442
0.07244713441
0.07244713439
0.07244713437
0.07244713435
0.07244713432
0.07244713428
0.07244713424
0.0724471342
0.07244713417
0.07244713419
0.07244713422
0.07244713422
0.07244713415
0.07244713402
0.0724471342
0.07244713427
0.07244654306
0.0724465547
0.07244679501
0.07244713421
0.07244713188
0.07244713113
0.07244713431
0.07244713454
0.07244713391
0.0724471342
0.07244713451
0.07244713465
0.07244713472
0.07244713447
0.07244713437
0.07244713437
0.07244713436
0.07244713434
0.0724471343
0.07244713426
0.07244713422
0.07244713419
0.07244713418
0.07244713419
0.07244713421
0.07244713421
0.07244713417
0.072447134
0.07244713342
0.07244713376
0.07244713396
0.07244653547
0.07244658012
0.07244692746
0.07244713231
0.07244713197
0.07244713326
0.07244713446
0.07244713443
0.07244713326
0.0724471338
0.07244713432
0.07244713456
0.07244713468
0.07244713444
0.07244713431
0.07244713431
0.0724471343
0.0724471343
0.0724471343
0.07244713423
0.07244713419
0.07244713417
0.07244713416
0.07244713417
0.07244713417
0.07244713414
0.07244713402
0.07244713356
0.07244713098
0.07244713169
0.07244713274
0.07244653095
0.07244663952
0.07244700992
0.07244712629
0.07244713181
0.07244713417
0.0724471345
0.07244713414
0.07244713344
0.07244713408
0.07244713427
0.07244713433
0.07244713439
0.07244713444
0.07244713431
0.07244713431
0.07244713431
0.0724471343
0.0724471343
0.07244713428
0.07244713418
0.07244713414
0.07244713412
0.0724471341
0.07244713406
0.07244713395
0.07244713361
0.07244713249
0.07244712859
0.07244712877
0.07244712979
0.07244712704
0.072447123
0.07244711493
0.07244712458
0.07244713228
0.0724471345
0.07244713452
0.07244713414
0.07244713416
0.07244713433
0.07244713434
0.07244713435
0.07244713418
0.07244713445
0.07244713435
0.07244713433
0.07244713432
0.07244713431
0.0724471343
0.0724471343
0.07244713428
0.0724471341
0.07244713405
0.072447134
0.07244713391
0.07244713372
0.07244713328
0.07244713244
0.0724471318
0.07244713203
0.07244713221
0.07244713202
0.07244713131
0.07244713047
0.07244713251
0.07244713362
0.0724471347
0.07244713455
0.07244713434
0.07244713441
0.0724471345
0.07244713448
0.07244713445
0.07244713406
0.07244713443
0.07244713434
0.07244713433
0.07244713432
0.07244713432
0.07244713431
0.0724471343
0.07244713429
0.07244713406
0.07244713397
0.07244713392
0.07244713386
0.07244713373
0.07244713353
0.07244713337
0.0724471334
0.07244713351
0.07244713356
0.07244713351
0.07244713333
0.07244713312
0.07244713333
0.07244713419
0.0724471347
0.07244713452
0.07244713432
0.0724471345
0.07244713486
0.07244713486
0.07244713462
0.0724471333
0.07244713436
0.07244713433
0.07244713432
0.07244713432
0.07244713432
0.0724471343
0.07244713429
0.0724471343
0.07244713399
0.0724471339
0.07244713393
0.07244713399
0.07244713401
0.072447134
0.07244713402
0.07244713408
0.07244713415
0.07244713422
0.07244713426
0.07244713429
0.07244713432
0.07244713441
0.07244713451
0.07244713454
0.07244713453
0.07244713442
0.07244713454
0.07244713482
0.07244713484
0.0724471344
0.07244713391
0.07244713432
0.07244713433
0.07244713432
0.07244713432
0.07244713433
0.07244713434
0.07244713432
0.07244713429
0.0724471341
0.07244713403
0.072447134
0.07244713408
0.0724471342
0.0724471343
0.07244713438
0.07244713445
0.07244713451
0.07244713456
0.07244713459
0.07244713462
0.07244713464
0.07244713466
0.07244713465
0.07244713463
0.07244713457
0.07244713464
0.07244713486
0.0724471348
0.0724471344
0.07244713441
0.0724471344
0.07244713435
0.07244713433
0.07244713431
0.07244713433
0.07244713435
0.07244713437
0.07244713439
0.07244713441
0.07244713444
0.07244713445
0.07244713444
0.07244713444
0.07244713443
0.07244713442
0.07244713441
0.0724471344
0.07244713441
0.07244713445
0.07244713452
0.07244713459
0.07244713462
0.07244713464
0.07244713463
0.0724471346
0.07244713455
0.07244713457
0.07244713455
0.0724471345
0.07244713453
0.07244713456
0.07244713458
)
;

boundaryField
{
    walls
    {
        type            zeroGradient;
    }
    wallFilmFace_top
    {
        type            zeroGradient;
    }
    region0_to_wallFilmRegion_wallFilmFace
    {
        type            zeroGradient;
    }
    mirrorFace_top
    {
        type            zeroGradient;
    }
    region0_to_wallFilmRegion_mirrorFace
    {
        type            zeroGradient;
    }
    procBoundary1to0
    {
        type            processor;
        value           nonuniform List<scalar> 
52
(
0.07244713443
0.07244713408
0.07244713403
0.07244713409
0.07244713422
0.07244713433
0.07244713442
0.07244713452
0.07244713452
0.07244713453
0.0724471345
0.07244713444
0.07244713433
0.07244713433
0.07244713397
0.07244713372
0.07244713372
0.07244713094
0.07244712923
0.0724471291
0.0724471296
0.0724471296
0.07244713139
0.07244713158
0.07244713158
0.07244713392
0.07244713482
0.07244713504
0.07244713488
0.07244713488
0.07244713416
0.07244713453
0.07244713453
0.07244713527
0.07244713546
0.07244713546
0.07244713583
0.07244713599
0.07244713596
0.07244713596
0.07244713586
0.07244713586
0.07244713582
0.07244713597
0.07244713565
0.07244713565
0.07244713596
0.072447136
0.07244713602
0.07244713577
0.07244713554
0.07244713543
)
;
    }
    procBoundary1to2
    {
        type            processor;
        value           nonuniform List<scalar> 
33
(
0.0724471352
0.07244713533
0.07244713533
0.07244713482
0.07244713482
0.07244713473
0.07244713481
0.07244713506
0.07244713506
0.07244713506
0.07244713527
0.07244713507
0.07244713537
0.07244713532
0.07244713558
0.07244713524
0.0724471343
0.07244713425
0.07244713424
0.07244668114
0.07244663181
0.07244663145
0.07244663946
0.07244713471
0.07244713475
0.07244713475
0.07244713472
0.07244713437
0.0724471342
0.0724471336
0.07244713399
0.07244713435
0.0724471346
)
;
    }
}


// ************************************************************************* //
