/*--------------------------------*- C++ -*----------------------------------*\
  =========                 |
  \\      /  F ield         | OpenFOAM: The Open Source CFD Toolbox
   \\    /   O peration     | Website:  https://openfoam.org
    \\  /    A nd           | Version:  8
     \\/     M anipulation  |
\*---------------------------------------------------------------------------*/
FoamFile
{
    version     2.0;
    format      ascii;
    class       volScalarField;
    location    "1";
    object      N2;
}
// * * * * * * * * * * * * * * * * * * * * * * * * * * * * * * * * * * * * * //

dimensions      [0 0 0 0 0 0 0];

internalField   nonuniform List<scalar> 
67193
(
0.7899970351
0.7899972288
0.7899974007
0.7899975438
0.789997665
0.7899977372
0.7899977468
0.7899976988
0.7899976117
0.7899975176
0.7899974173
0.78999734
0.7899972748
0.7899972239
0.7899971929
0.7899971741
0.7899971527
0.789997119
0.7899970696
0.789997004
0.7899969219
0.7899968233
0.7899967074
0.7899965753
0.7899964346
0.7899962997
0.7899961812
0.7899960771
0.7899959756
0.7899958662
0.7899957408
0.7899955652
0.7899952468
0.7899947617
0.789997354
0.7899975336
0.7899976949
0.7899978262
0.7899979779
0.7899980702
0.7899981598
0.7899981676
0.7899981445
0.7899981171
0.7899980459
0.7899979843
0.7899978907
0.7899977801
0.789997686
0.7899976145
0.7899975472
0.7899974669
0.789997368
0.7899972522
0.7899971212
0.7899969751
0.789996814
0.7899966435
0.7899964749
0.7899963237
0.7899962002
0.7899961024
0.7899960207
0.7899959419
0.7899958492
0.7899956984
0.7899953759
0.7899948421
0.7899977206
0.7899979031
0.7899980343
0.7899981
0.7899982636
0.7899983153
0.7899984003
0.7899984498
0.7899985005
0.7899985545
0.7899985207
0.7899985125
0.7899984198
0.7899982701
0.789998128
0.7899980197
0.789997924
0.78999781
0.7899976663
0.7899974995
0.7899973192
0.7899971301
0.7899969327
0.7899967396
0.7899965585
0.7899963952
0.7899962559
0.7899961429
0.7899960522
0.7899959753
0.7899958971
0.7899957757
0.7899955073
0.7899949973
0.7899982152
0.7899984112
0.789998494
0.7899984467
0.7899985818
0.7899985168
0.789998529
0.7899986254
0.7899987886
0.7899989419
0.7899989467
0.7899990084
0.7899989294
0.7899987527
0.7899985674
0.789998425
0.7899983113
0.7899981812
0.789998007
0.7899977934
0.7899975595
0.7899973234
0.7899970894
0.7899968873
0.7899967095
0.7899965339
0.7899963642
0.7899962159
0.7899960976
0.7899960069
0.78999593
0.7899958253
0.7899955872
0.7899950907
0.789998807
0.7899990139
0.7899990618
0.789998927
0.7899989938
0.7899987917
0.7899986728
0.7899987935
0.789999083
0.7899993247
0.789999365
0.7899994851
0.7899994242
0.7899992359
0.7899990131
0.7899988306
0.7899986943
0.7899985576
0.7899983739
0.7899981327
0.7899978531
0.7899975678
0.7899972923
0.7899970975
0.7899969456
0.7899967634
0.7899965511
0.7899963455
0.7899961773
0.7899960562
0.7899959686
0.7899958702
0.7899956508
0.7899951561
0.7899993903
0.7899995974
0.7899996404
0.7899994909
0.7899994649
0.7899991823
0.7899989294
0.7899990312
0.7899994108
0.7899997037
0.7899997789
0.7899999256
0.789999881
0.7899996912
0.7899994437
0.789999219
0.7899990487
0.7899988991
0.7899987151
0.7899984671
0.7899981603
0.7899978347
0.7899975209
0.7899973583
0.7899972589
0.7899970835
0.7899968324
0.7899965605
0.7899963186
0.7899961392
0.7899960217
0.7899959193
0.7899957195
0.7899952575
0.7899998985
0.7900001048
0.7900001533
0.7900000291
0.7899999138
0.7899996164
0.7899992758
0.7899993446
0.7899997536
0.7900000611
0.79000017
0.790000313
0.7900002792
0.7900000929
0.7899998301
0.7899995692
0.7899993591
0.7899991861
0.789998997
0.7899987499
0.7899984315
0.7899980817
0.7899977463
0.7899976398
0.7899976003
0.7899974373
0.7899971637
0.7899968471
0.7899965374
0.7899962783
0.7899961013
0.7899959774
0.7899957995
0.7899954118
0.7900003084
0.7900005068
0.7900005548
0.7900004625
0.7900002895
0.7899999865
0.7899996219
0.7899996891
0.7900000769
0.7900003731
0.7900005013
0.7900006127
0.7900005774
0.7900003966
0.7900001298
0.7899998467
0.7899996038
0.7899994045
0.7899992042
0.7899989565
0.7899986347
0.7899982785
0.7899979511
0.7899979094
0.7899979167
0.7899977636
0.7899974799
0.789997142
0.7899968007
0.7899964754
0.7899962172
0.7899960438
0.7899958816
0.7899955895
0.7900005898
0.7900007708
0.7900008118
0.7900007433
0.7900005456
0.7900002392
0.78999989
0.7900000152
0.7900003416
0.7900006174
0.7900007376
0.7900008008
0.7900007456
0.790000563
0.7900002983
0.7900000096
0.7899997512
0.7899995341
0.7899993226
0.7899990718
0.7899987516
0.7899984094
0.7899981291
0.7899981379
0.7899981646
0.7899980134
0.7899977273
0.7899973855
0.789997039
0.7899966879
0.7899963551
0.7899961052
0.7899959318
0.7899957245
0.7900007123
0.7900008727
0.7900009054
0.7900008481
0.7900006419
0.7900003498
0.7900000182
0.7900002789
0.790000516
0.790000772
0.7900008645
0.7900008783
0.7900007878
0.7900005873
0.79000032
0.790000034
0.789999777
0.7899995544
0.7899993338
0.7899990768
0.7899987639
0.7899984578
0.7899982546
0.7899982769
0.7899982984
0.7899981473
0.7899978675
0.789997535
0.7899971987
0.7899968462
0.7899964559
0.7899961229
0.7899959148
0.7899957724
0.7900006613
0.7900008067
0.7900008333
0.7900007715
0.7900005592
0.790000288
0.7899999737
0.790000429
0.7900005698
0.790000826
0.790000885
0.790000863
0.7900007355
0.7900005047
0.7900002244
0.7899999393
0.7899996907
0.7899994655
0.7899992266
0.7899989484
0.7899986417
0.7899983871
0.7899982515
0.7899982562
0.7899982667
0.7899981299
0.789997873
0.7899975656
0.7899972431
0.7899968656
0.7899964172
0.7899960262
0.7899958053
0.789995722
0.7900004573
0.7900005975
0.7900006196
0.7900005297
0.7900002942
0.790000095
0.7899996557
0.7900004376
0.7900004842
0.7900007809
0.7900008006
0.7900007583
0.7900006135
0.7900003614
0.7900000696
0.7899997837
0.7899995408
0.7899992934
0.7899989991
0.7899986679
0.7899983566
0.7899981371
0.7899980244
0.7899980065
0.7899980063
0.7899979051
0.7899977032
0.7899974468
0.7899971118
0.7899966268
0.7899961237
0.7899957698
0.7899956128
0.7899955873
0.7900000964
0.7900002322
0.7900002359
0.7900001276
0.7899999556
0.7899998912
0.7899990267
0.7900002522
0.7900002909
0.7900006378
0.7900006093
0.7900005548
0.7900004287
0.7900001887
0.7899999036
0.7899996186
0.7899993613
0.7899990346
0.7899986406
0.7899982721
0.7899979897
0.7899977797
0.7899976209
0.789997541
0.7899975362
0.789997519
0.7899973914
0.7899970709
0.7899965607
0.7899960325
0.7899956753
0.7899954986
0.7899954216
0.7899954082
0.7899996727
0.7899997949
0.7899998053
0.7899996971
0.7899994494
0.7899992355
0.7899969597
0.7899996979
0.7899998197
0.7900003777
0.7900003772
0.790000261
0.7900001654
0.7899999941
0.7899997471
0.7899994544
0.7899990928
0.7899986286
0.7899982248
0.789997952
0.7899977788
0.7899975927
0.7899973744
0.7899971808
0.7899970407
0.7899969159
0.7899967247
0.789996392
0.7899959696
0.7899956344
0.7899954617
0.7899953778
0.7899953107
0.7899952523
0.7899992855
0.7899993593
0.789999427
0.7899994826
0.7899995651
0.7899996745
0.7899995366
0.7899999912
0.7900000697
0.7900002271
0.7900004606
0.7900000768
0.7899998464
0.7899996807
0.7899994585
0.7899991211
0.7899985907
0.7899981818
0.7899979997
0.7899978795
0.7899978093
0.7899976265
0.7899973204
0.7899969961
0.7899967274
0.7899964979
0.789996262
0.7899959664
0.789995646
0.7899954352
0.7899953583
0.7899953293
0.7899952777
0.7899951712
0.7899990188
0.7899989738
0.7899990579
0.7899992035
0.789999394
0.7899995498
0.7899994224
0.7899998232
0.789999895
0.7900001196
0.7900009102
0.7900003116
0.7899997125
0.7899993637
0.7899990686
0.7899985301
0.789998108
0.7899980862
0.7899981006
0.7899980284
0.7899980063
0.78999781
0.7899974243
0.7899969959
0.7899966408
0.789996324
0.7899960149
0.7899957345
0.7899954902
0.7899953323
0.789995285
0.7899952934
0.7899952817
0.7899951671
0.7899987909
0.7899986563
0.7899987151
0.7899988956
0.7899991466
0.7899993529
0.7899994309
0.789999642
0.7899998412
0.7900002374
0.7900008548
0.7900005218
0.7899998334
0.7899992511
0.7899986639
0.7899980251
0.7899981336
0.7899983265
0.7899983328
0.7899982676
0.7899982674
0.7899980481
0.78999759
0.7899971006
0.7899967288
0.7899963829
0.7899959812
0.7899956059
0.7899953512
0.7899952208
0.7899951912
0.7899952285
0.7899952681
0.789995194
0.7899986402
0.7899984476
0.7899984232
0.7899985745
0.7899988329
0.7899990567
0.7899991846
0.789999298
0.7899994039
0.7899996268
0.7899998919
0.7899995646
0.7899990412
0.7899985364
0.789997975
0.7899980903
0.7899984782
0.7899985672
0.7899985388
0.7899985081
0.7899984868
0.7899982325
0.7899977199
0.7899972204
0.7899968639
0.7899965214
0.7899960832
0.7899956249
0.7899952906
0.7899951349
0.7899951049
0.7899951554
0.7899952263
0.7899952052
0.7899984681
0.7899982505
0.7899981425
0.7899982213
0.7899984586
0.7899986967
0.7899988564
0.7899989422
0.7899989737
0.7899990401
0.7899992061
0.7899988276
0.7899983842
0.7899979024
0.7899979327
0.789998388
0.7899986397
0.7899986658
0.7899986589
0.7899986298
0.7899985143
0.7899982128
0.7899976883
0.7899972746
0.7899969607
0.789996586
0.7899961197
0.7899956449
0.7899952886
0.7899951183
0.7899950874
0.7899951391
0.7899952001
0.7899951928
0.7899982112
0.7899979962
0.7899978354
0.7899978248
0.7899980117
0.7899982585
0.7899984575
0.7899985697
0.7899985994
0.7899985695
0.7899986094
0.7899981356
0.7899977221
0.7899976067
0.7899979702
0.7899983737
0.7899985492
0.7899985597
0.789998465
0.7899983792
0.7899981377
0.7899977903
0.7899971278
0.7899969172
0.7899968027
0.7899964854
0.7899960739
0.7899956608
0.7899953167
0.7899951395
0.7899951337
0.7899951846
0.7899951999
0.7899952038
0.789997851
0.7899976397
0.7899974552
0.78999738
0.7899974949
0.7899977241
0.7899979399
0.789998072
0.7899981068
0.7899980178
0.7899978872
0.7899974301
0.789997221
0.7899973771
0.7899977814
0.7899981161
0.7899982556
0.7899982189
0.7899980721
0.7899979211
0.7899976897
0.7899973889
0.7899968396
0.7899965765
0.7899963994
0.7899961046
0.7899957335
0.7899954381
0.7899952813
0.7899952691
0.7899952827
0.7899952415
0.7899952162
0.7899953978
0.7899973978
0.7899971806
0.7899969832
0.7899968739
0.7899969267
0.7899971081
0.7899972885
0.7899973982
0.789997422
0.789997297
0.7899971045
0.7899968333
0.7899968092
0.7899970374
0.7899973756
0.7899976659
0.7899978055
0.7899977805
0.7899976359
0.789997489
0.7899973063
0.7899970877
0.7899966668
0.7899964464
0.7899962018
0.7899958287
0.7899955183
0.7899954115
0.7899953859
0.7899953097
0.7899952031
0.7899952602
0.7899953668
0.7899954927
0.7899968534
0.7899966157
0.7899964115
0.7899962932
0.7899963375
0.7899964817
0.7899966056
0.7899966706
0.7899966899
0.7899966041
0.7899964893
0.7899964068
0.789996437
0.7899965918
0.7899968123
0.7899971012
0.789997263
0.7899973021
0.7899972279
0.7899971429
0.7899970143
0.78999679
0.7899964268
0.7899961401
0.7899958046
0.7899955403
0.789995505
0.7899954823
0.7899953807
0.7899952272
0.7899952204
0.7899953939
0.7899954433
0.7899954548
0.7899962041
0.7899959077
0.7899957112
0.7899956414
0.7899957561
0.7899959152
0.7899960148
0.789996058
0.7899960909
0.7899960924
0.7899960947
0.7899961144
0.7899961353
0.7899961988
0.7899963257
0.7899965367
0.7899967533
0.7899968791
0.7899968809
0.789996824
0.7899966711
0.789996402
0.7899960322
0.7899957324
0.7899956284
0.789995639
0.7899956576
0.7899955702
0.7899954266
0.7899952962
0.789995325
0.7899954533
0.7899954582
0.7899954061
0.7899957409
0.7899954513
0.789995059
0.7899950138
0.7899950262
0.7899952307
0.789995433
0.7899955415
0.7899955975
0.7899956581
0.7899957237
0.7899957896
0.7899958379
0.7899958454
0.7899958554
0.78999592
0.7899960175
0.7899962582
0.7899964472
0.7899964859
0.7899963873
0.7899961289
0.7899958016
0.7899956301
0.7899955874
0.7899956725
0.7899956968
0.7899957074
0.7899956016
0.7899954676
0.7899953595
0.7899953892
0.7899954814
0.7899954195
0.7899952346
0.7899951251
0.7899950889
0.7899946737
0.7899945466
0.789994587
0.7899948324
0.7899950392
0.7899951558
0.7899952419
0.7899953393
0.7899954396
0.7899955282
0.7899955913
0.7899956234
0.7899956507
0.789995701
0.7899956916
0.7899958217
0.7899959465
0.7899959331
0.7899958086
0.7899956869
0.7899956477
0.7899956053
0.7899955735
0.7899955837
0.7899956099
0.789995682
0.7899956286
0.7899955296
0.7899954614
0.7899955369
0.7899955358
0.7899953626
0.7899949822
0.7899946265
0.7899944632
0.7899949834
0.7899944599
0.7899945367
0.7899945244
0.7899946716
0.7899948138
0.7899949644
0.7899951153
0.7899952591
0.7899953859
0.7899954881
0.7899955729
0.7899956433
0.7899956661
0.7899956393
0.7899956229
0.7899956824
0.7899957918
0.789995976
0.7899959431
0.7899959385
0.7899958732
0.7899958164
0.7899957471
0.7899956995
0.789995703
0.7899956739
0.7899956532
0.7899956612
0.7899958364
0.7899957466
0.7899954704
0.7899949003
0.789994532
0.7899943389
0.7899943686
0.7899941824
0.7899942709
0.7899944343
0.789994666
0.789994885
0.789995083
0.7899951906
0.7899952493
0.7899953104
0.7899953929
0.7899954746
0.7899955422
0.7899955406
0.7899955836
0.7899956789
0.7899958372
0.7899959822
0.7899960656
0.7899961788
0.7899962614
0.789996256
0.7899962344
0.7899961972
0.7899961958
0.7899962278
0.789996224
0.7899961745
0.7899961046
0.7899963041
0.7899961831
0.789995912
0.7899952204
0.7899942067
0.7899943173
0.7899939221
0.7899941877
0.7899943684
0.7899946414
0.7899950495
0.7899954071
0.7899955586
0.7899955869
0.7899955549
0.7899955516
0.7899956008
0.7899956848
0.7899956836
0.7899957137
0.789995801
0.789995962
0.7899961411
0.7899963106
0.7899966523
0.7899967504
0.7899967739
0.7899967737
0.7899967534
0.7899967552
0.7899967765
0.7899967746
0.7899966986
0.789996572
0.7899967398
0.78999672
0.7899966175
0.7899959335
0.7899940494
0.7899939852
0.7899940039
0.7899941364
0.7899943557
0.78999467
0.7899952499
0.7899957674
0.7899959447
0.7899959887
0.7899959564
0.7899959444
0.7899972962
0.7899972781
0.789997261
0.7899972705
0.7899972646
0.7899971789
0.7899970412
0.7899971476
0.7899972993
0.789997315
0.7899966727
0.789994016
0.7899941495
0.7899944095
0.7899948147
0.789995557
0.7899961438
0.7899968977
0.7899970755
0.7899972386
0.7899973774
0.7899974879
0.7899975556
0.7899975784
0.7899975531
0.7899974796
0.7899973988
0.7899973219
0.789997264
0.789997224
0.7899971978
0.789997181
0.7899971657
0.7899971435
0.7899971079
0.7899970556
0.7899969851
0.7899968963
0.7899967904
0.7899966682
0.7899965302
0.7899963816
0.789996236
0.7899961064
0.789995992
0.7899958798
0.7899957617
0.7899956343
0.7899954619
0.7899951346
0.7899946824
0.7899973286
0.7899975008
0.7899976724
0.7899978287
0.7899979689
0.7899980701
0.7899981395
0.7899981542
0.7899981263
0.7899980781
0.7899980086
0.7899979364
0.7899978595
0.7899977815
0.7899977101
0.7899976447
0.7899975759
0.7899974946
0.7899973954
0.7899972766
0.7899971379
0.7899969806
0.7899968071
0.7899966222
0.7899964347
0.7899962584
0.7899961062
0.789995983
0.7899958832
0.7899957959
0.789995701
0.7899955454
0.7899951944
0.7899947042
0.7899977843
0.7899979544
0.7899981215
0.7899982676
0.7899984066
0.7899984968
0.7899985612
0.7899985924
0.7899985996
0.7899985876
0.7899985405
0.7899984791
0.7899983931
0.7899982872
0.7899981787
0.7899980767
0.7899979732
0.7899978553
0.7899977163
0.789997556
0.7899973766
0.7899971804
0.7899969708
0.7899967553
0.7899965422
0.78999634
0.7899961577
0.789996002
0.789995875
0.7899957745
0.789995687
0.78999556
0.7899952773
0.7899948217
0.7899982683
0.7899984366
0.7899985854
0.7899986972
0.7899988014
0.7899988418
0.7899988684
0.7899989132
0.7899989695
0.7899990085
0.7899989982
0.7899989595
0.7899988805
0.7899987644
0.7899986317
0.7899985013
0.7899983705
0.7899982239
0.7899980504
0.7899978508
0.7899976318
0.7899974006
0.7899971626
0.7899969284
0.7899967008
0.7899964796
0.7899962685
0.7899960749
0.7899959077
0.7899957751
0.7899956759
0.7899955622
0.7899953097
0.7899948811
0.7899987788
0.7899989513
0.7899990808
0.7899991525
0.7899991957
0.7899991634
0.7899991238
0.7899991734
0.7899992853
0.7899993802
0.7899994136
0.7899994013
0.7899993369
0.7899992187
0.7899990707
0.7899989161
0.7899987621
0.7899985937
0.7899983952
0.7899981643
0.7899979097
0.7899976455
0.7899973823
0.7899971358
0.7899968997
0.7899966618
0.7899964238
0.7899961966
0.7899959937
0.789995831
0.789995716
0.789995604
0.7899953579
0.7899949217
0.7899993067
0.7899994972
0.7899996141
0.7899996454
0.7899996184
0.7899995179
0.7899994074
0.789999446
0.7899995984
0.7899997379
0.7899998116
0.7899998259
0.7899997759
0.7899996553
0.7899994879
0.7899993064
0.7899991278
0.7899989403
0.7899987244
0.7899984731
0.7899981928
0.7899979016
0.7899976183
0.7899973655
0.7899971245
0.7899968703
0.7899966043
0.7899963468
0.7899961171
0.7899959312
0.7899957969
0.7899956718
0.7899954313
0.7899950145
0.7899998205
0.7900000119
0.79000011
0.7900001127
0.7900000371
0.7899998935
0.7899997429
0.7899997641
0.7899999311
0.7900000942
0.7900001853
0.7900002054
0.7900001586
0.7900000365
0.7899998567
0.7899996518
0.7899994461
0.7899992378
0.7899990077
0.7899987436
0.789998448
0.7899981408
0.7899978489
0.7899975991
0.7899973641
0.7899970999
0.789996803
0.7899965088
0.789996255
0.7899960551
0.7899959038
0.7899957653
0.7899955438
0.7899951907
0.7900002401
0.7900004173
0.790000497
0.7900004855
0.7900003883
0.7900002318
0.7900000836
0.790000107
0.7900002556
0.790000412
0.7900004942
0.790000499
0.7900004395
0.7900003083
0.7900001189
0.7899998987
0.7899996758
0.7899994542
0.7899992172
0.7899989475
0.7899986457
0.7899983362
0.7899980524
0.7899978218
0.7899975996
0.7899973274
0.7899970024
0.78999667
0.7899963832
0.7899961738
0.7899960141
0.7899958674
0.7899956769
0.789995405
0.7900005219
0.7900006772
0.790000741
0.790000725
0.7900006272
0.7900004826
0.7900003469
0.7900003997
0.790000522
0.7900006556
0.7900007131
0.7900006903
0.7900006051
0.7900004528
0.7900002501
0.7900000186
0.7899997873
0.7899995599
0.7899993223
0.7899990577
0.7899987642
0.7899984686
0.7899982097
0.7899979944
0.7899977783
0.7899975005
0.7899971592
0.7899968011
0.7899964831
0.7899962525
0.7899960887
0.7899959346
0.789995771
0.7899955745
0.7900006535
0.7900007866
0.7900008386
0.7900008225
0.7900007336
0.790000617
0.790000478
0.790000594
0.79000069
0.7900008016
0.7900008319
0.7900007798
0.790000662
0.790000475
0.79000025
0.7900000055
0.7899997737
0.7899995475
0.7899993138
0.78999906
0.7899987865
0.789998521
0.7899982846
0.7899980728
0.7899978514
0.7899975679
0.7899972224
0.7899968571
0.7899965201
0.789996262
0.789996088
0.7899959234
0.7899957759
0.7899956486
0.7900006469
0.7900007626
0.790000807
0.7900007896
0.7900007049
0.790000616
0.7900004058
0.7900006553
0.7900007251
0.7900008383
0.7900008486
0.7900007725
0.7900006224
0.7900003892
0.7900001321
0.7899998698
0.7899996459
0.789999426
0.7899991967
0.7899989529
0.7899987015
0.7899984684
0.7899982508
0.7899980355
0.7899978014
0.7899975127
0.7899971696
0.7899968085
0.7899964663
0.7899961944
0.7899959942
0.7899958148
0.7899956811
0.7899956167
0.79000053
0.7900006333
0.7900006736
0.7900006497
0.7900005506
0.7900004601
0.7899999934
0.7900005296
0.7900006166
0.7900007661
0.7900007663
0.7900006718
0.7900004939
0.7900002095
0.7899999134
0.7899996297
0.7899994267
0.7899992155
0.7899989852
0.7899987435
0.7899985092
0.7899983014
0.7899981046
0.7899978979
0.7899976583
0.7899973742
0.7899970446
0.7899966927
0.7899963349
0.789996052
0.7899958127
0.7899956317
0.7899955192
0.789995501
0.7900003117
0.7900004043
0.7900004472
0.7900004243
0.790000298
0.790000082
0.7899989903
0.7900001135
0.7900003741
0.7900005967
0.7900006048
0.790000498
0.7900002988
0.7899999678
0.7899996298
0.7899993223
0.7899991503
0.7899989414
0.7899986992
0.7899984594
0.7899982427
0.7899980532
0.7899978775
0.7899976971
0.7899974858
0.7899972263
0.78999692
0.7899965621
0.7899961557
0.789995793
0.7899955607
0.7899954278
0.7899953415
0.7899953402
0.7899999842
0.7900000583
0.7900001086
0.7900000755
0.7899998912
0.7899994436
0.789999353
0.7899993428
0.7899999808
0.7900003553
0.7900004169
0.7900003171
0.7900001213
0.7899998457
0.7899995315
0.7899991875
0.7899989222
0.7899986491
0.789998396
0.7899981815
0.7899979915
0.789997809
0.7899976258
0.7899974367
0.7899972363
0.7899970047
0.7899966978
0.7899962846
0.7899958441
0.7899955218
0.7899953533
0.7899952581
0.7899951897
0.7899951815
0.7899996271
0.7899996751
0.789999777
0.7899998869
0.7900000183
0.7900001644
0.7900013389
0.7900001585
0.7900002693
0.7900003338
0.790000304
0.7900001597
0.7899999057
0.789999613
0.7899992906
0.7899989377
0.789998611
0.7899983654
0.7899981978
0.7899980395
0.7899978469
0.7899976232
0.7899973891
0.7899971627
0.78999695
0.7899967256
0.7899964233
0.7899960068
0.789995586
0.7899953008
0.7899951599
0.7899950932
0.7899950684
0.7899950642
0.7899992897
0.7899992819
0.7899993994
0.7899995339
0.7899996842
0.7899997865
0.7899998837
0.789999914
0.7900000575
0.7900002341
0.7900001965
0.7900000661
0.7899996962
0.7899993128
0.7899989406
0.7899985596
0.7899983395
0.7899983017
0.7899982526
0.7899981099
0.7899978632
0.7899975411
0.7899971904
0.7899968699
0.7899966075
0.7899964055
0.7899961877
0.7899958496
0.7899954612
0.7899951605
0.7899949934
0.789994937
0.7899949738
0.7899950052
0.7899989853
0.7899988926
0.7899990137
0.789999156
0.7899993394
0.7899995024
0.7899996208
0.7899997106
0.789999847
0.7899999704
0.7899998259
0.7899997546
0.7899993427
0.7899988949
0.7899985009
0.7899982588
0.7899983878
0.7899984904
0.7899984595
0.7899982704
0.7899979367
0.7899974998
0.7899970203
0.7899965732
0.7899961912
0.7899959439
0.7899957926
0.7899956045
0.789995321
0.7899950523
0.7899948804
0.7899948255
0.7899949066
0.7899949912
0.7899987514
0.7899986507
0.7899986821
0.7899987792
0.78999894
0.7899990952
0.7899992176
0.7899993418
0.7899995011
0.7899996475
0.7899995046
0.7899994187
0.7899989379
0.7899984466
0.789998193
0.7899984147
0.7899986455
0.789998726
0.7899986543
0.7899983979
0.789997978
0.7899974458
0.7899968746
0.7899963431
0.7899959021
0.7899955821
0.7899953955
0.7899952868
0.7899951416
0.7899949597
0.7899948266
0.7899947842
0.7899948792
0.7899949967
0.789998464
0.7899983536
0.7899983212
0.7899983649
0.7899984833
0.789998614
0.7899987239
0.7899988215
0.7899989337
0.7899990428
0.7899989312
0.7899987427
0.7899983136
0.7899980183
0.789998234
0.789998593
0.7899987993
0.789998832
0.7899987079
0.7899983797
0.7899978968
0.7899973336
0.7899967684
0.7899962347
0.7899958022
0.789995426
0.7899951513
0.7899950737
0.7899950122
0.7899949249
0.7899948501
0.7899948359
0.7899949106
0.7899950123
0.7899980847
0.7899979656
0.7899978953
0.789997898
0.7899979749
0.7899980832
0.7899981771
0.7899982418
0.7899982878
0.7899983135
0.7899982049
0.7899980098
0.7899977507
0.7899977916
0.789998235
0.7899985684
0.7899987031
0.7899986748
0.7899984837
0.7899981088
0.7899976195
0.7899970946
0.7899965604
0.7899959684
0.789995626
0.7899954239
0.7899953039
0.7899952166
0.7899951061
0.7899949919
0.7899949326
0.7899949323
0.789994975
0.7899950777
0.7899976071
0.7899974748
0.7899973866
0.789997372
0.7899974146
0.7899975008
0.7899975812
0.7899976335
0.7899976646
0.7899976362
0.7899975301
0.7899973858
0.7899973175
0.789997589
0.7899980253
0.7899982772
0.7899983279
0.7899982222
0.7899979765
0.7899975914
0.7899971189
0.7899966008
0.7899961284
0.7899957271
0.7899954794
0.7899953748
0.7899953567
0.7899952847
0.7899951787
0.7899950895
0.7899950374
0.7899950156
0.7899950499
0.7899952391
0.7899970511
0.7899969009
0.7899968056
0.7899967904
0.789996817
0.7899968815
0.7899969361
0.7899969771
0.7899970242
0.7899970115
0.7899969546
0.7899969126
0.7899969595
0.7899972565
0.7899975749
0.7899977289
0.7899977113
0.7899975541
0.7899972817
0.7899969243
0.789996532
0.7899961719
0.7899959182
0.7899957439
0.7899956382
0.7899955394
0.7899954326
0.789995345
0.7899952531
0.789995128
0.7899950367
0.7899950399
0.7899951716
0.7899952413
0.7899964514
0.7899962753
0.7899961718
0.7899961647
0.7899962138
0.7899962841
0.7899963242
0.7899963593
0.7899964326
0.7899964803
0.7899965091
0.789996557
0.7899966215
0.7899968005
0.7899969563
0.7899969962
0.7899969281
0.7899967736
0.7899965453
0.7899962828
0.7899960371
0.7899959091
0.7899958105
0.7899956977
0.7899955872
0.789995511
0.7899954764
0.7899953988
0.7899952626
0.7899950925
0.7899950674
0.7899950927
0.7899952204
0.7899951605
0.7899958562
0.7899956422
0.7899955206
0.7899955302
0.7899956424
0.7899957592
0.7899958163
0.7899958599
0.7899959519
0.789996053
0.7899961465
0.78999623
0.7899962789
0.7899963373
0.7899963535
0.7899962894
0.7899962077
0.7899961242
0.78999603
0.7899959504
0.7899958916
0.7899958182
0.7899957077
0.7899956459
0.7899956499
0.7899956485
0.7899955834
0.7899954438
0.7899952835
0.789995156
0.7899951809
0.7899952133
0.7899953092
0.789995196
0.7899955061
0.7899953517
0.7899951048
0.7899949876
0.7899950045
0.7899951645
0.7899953214
0.7899954019
0.7899954613
0.7899955627
0.7899956824
0.7899957943
0.7899958768
0.7899959118
0.7899959135
0.7899958651
0.7899957979
0.7899958003
0.7899958328
0.7899958361
0.7899957982
0.7899956898
0.789995608
0.7899956048
0.7899956382
0.7899956691
0.7899956636
0.7899955968
0.7899954525
0.7899953094
0.7899952519
0.78999532
0.7899953969
0.7899954232
0.7899952198
0.7899950557
0.7899948982
0.789994812
0.7899947204
0.7899947182
0.7899948496
0.7899949781
0.7899950555
0.7899951365
0.7899952551
0.7899953822
0.7899954996
0.7899955908
0.7899956495
0.7899956842
0.7899956958
0.7899956706
0.78999566
0.789995663
0.7899956736
0.7899957338
0.7899957351
0.7899956923
0.7899956291
0.7899955682
0.7899955325
0.789995492
0.7899954488
0.7899953772
0.7899953312
0.7899953561
0.7899954664
0.7899955459
0.7899955083
0.7899951603
0.7899947478
0.7899945903
0.7899944588
0.7899945652
0.7899945723
0.7899945854
0.7899946746
0.7899947786
0.7899949021
0.7899950435
0.7899951926
0.7899953341
0.7899954569
0.7899955591
0.7899956389
0.789995686
0.7899957076
0.7899957216
0.7899957732
0.7899959108
0.7899960963
0.7899960849
0.7899959426
0.789995787
0.789995652
0.7899955651
0.789995492
0.7899954349
0.7899954376
0.7899954844
0.7899955448
0.7899956179
0.7899956111
0.7899955496
0.789995063
0.7899945324
0.7899944706
0.7899945112
0.7899946116
0.7899945809
0.7899946133
0.7899947077
0.7899948405
0.7899949732
0.7899950669
0.7899951468
0.7899952385
0.7899953411
0.7899954366
0.7899955205
0.7899955815
0.789995656
0.789995776
0.7899959566
0.7899961443
0.7899962652
0.7899962413
0.7899961071
0.7899959668
0.7899958333
0.789995777
0.7899957482
0.789995743
0.7899958091
0.7899958759
0.7899958753
0.7899957436
0.789995591
0.7899955004
0.7899949987
0.789994279
0.7899943098
0.7899946091
0.7899944449
0.7899945827
0.7899947521
0.7899949901
0.7899952131
0.7899953109
0.7899953397
0.7899953414
0.7899953775
0.7899954487
0.7899955305
0.7899955783
0.7899956544
0.7899957805
0.789995997
0.7899962245
0.7899962861
0.7899963067
0.7899962418
0.7899961634
0.7899960903
0.7899961394
0.7899962156
0.7899962963
0.7899963658
0.7899963622
0.789996209
0.7899958251
0.7899955789
0.7899954061
0.7899950395
0.789994053
0.7899940136
0.7899942068
0.7899943342
0.789994565
0.7899948023
0.7899951685
0.7899954913
0.7899955963
0.7899956389
0.7899956227
0.7899956446
0.7899964885
0.789996552
0.7899966524
0.7899967496
0.7899968042
0.7899967437
0.789996426
0.7899959152
0.7899956297
0.7899954129
0.7899952154
0.7899940307
0.7899942159
0.7899945386
0.7899948851
0.7899953991
0.7899957782
0.7899967995
0.7899969672
0.7899971271
0.7899972662
0.7899973759
0.7899974453
0.7899974743
0.7899974639
0.7899974073
0.7899973474
0.7899972959
0.7899972604
0.7899972393
0.7899972266
0.7899972158
0.7899972
0.7899971729
0.7899971299
0.7899970681
0.7899969862
0.7899968847
0.7899967659
0.7899966325
0.7899964858
0.7899963299
0.7899961759
0.7899960376
0.7899959165
0.7899957993
0.7899956773
0.7899955472
0.7899953737
0.7899950491
0.7899946178
0.7899973843
0.789997557
0.7899977343
0.7899978985
0.7899980377
0.7899981395
0.7899982006
0.7899982119
0.7899981811
0.7899981283
0.7899980627
0.7899979947
0.7899979281
0.7899978636
0.7899978012
0.7899977368
0.7899976638
0.7899975754
0.789997467
0.7899973362
0.7899971827
0.7899970088
0.7899968185
0.7899966169
0.7899964115
0.7899962143
0.7899960402
0.7899958993
0.7899957887
0.7899956943
0.7899955895
0.7899954202
0.789995059
0.7899946126
0.7899979683
0.7899981391
0.7899983161
0.7899984779
0.7899986139
0.7899987097
0.7899987665
0.7899987823
0.7899987663
0.7899987271
0.7899986665
0.789998592
0.7899985054
0.7899984101
0.7899983116
0.789998211
0.7899981025
0.789997978
0.7899978324
0.7899976638
0.7899974729
0.7899972618
0.7899970347
0.7899967978
0.7899965581
0.7899963248
0.78999611
0.7899959276
0.7899957843
0.7899956748
0.7899955726
0.7899954184
0.7899951106
0.7899946995
0.7899985414
0.7899987084
0.7899988737
0.7899990134
0.7899991212
0.7899991857
0.7899992189
0.7899992356
0.7899992412
0.7899992292
0.7899991909
0.7899991276
0.7899990383
0.7899989263
0.7899988018
0.789998672
0.7899985338
0.7899983782
0.789998199
0.7899979956
0.7899977714
0.7899975309
0.7899972788
0.7899970208
0.7899967597
0.7899964984
0.7899962451
0.7899960145
0.7899958213
0.7899956725
0.7899955499
0.7899953947
0.7899951044
0.7899947469
0.7899991003
0.789999266
0.7899994145
0.7899995203
0.7899995809
0.789999598
0.789999593
0.7899996058
0.7899996372
0.7899996611
0.7899996554
0.7899996137
0.7899995329
0.7899994144
0.789999271
0.7899991157
0.7899989513
0.7899987699
0.7899985629
0.7899983294
0.7899980758
0.7899978108
0.7899975416
0.7899972721
0.7899969976
0.7899967138
0.7899964264
0.7899961515
0.7899959108
0.7899957229
0.7899955811
0.7899954218
0.7899951228
0.7899947711
0.7899996403
0.7899998065
0.7899999331
0.7900000017
0.7900000155
0.7899999871
0.7899999432
0.7899999469
0.7899999976
0.7900000527
0.7900000749
0.7900000518
0.7899999805
0.7899998594
0.7899997007
0.7899995222
0.7899993332
0.7899991306
0.7899989033
0.7899986479
0.7899983718
0.7899980885
0.7899978095
0.7899975358
0.7899972526
0.7899969487
0.7899966296
0.7899963159
0.7899960362
0.7899958173
0.7899956547
0.7899954782
0.7899951777
0.7899948328
0.7900001244
0.7900002867
0.7900003921
0.79000043
0.7900004071
0.7900003462
0.7900002863
0.7900002869
0.7900003411
0.7900004062
0.7900004396
0.7900004213
0.79000035
0.7900002227
0.7900000508
0.7899998529
0.7899996451
0.7899994267
0.789999187
0.7899989202
0.7899986325
0.7899983412
0.7899980619
0.7899977901
0.7899975008
0.7899971789
0.7899968322
0.789996487
0.7899961782
0.789995935
0.7899957529
0.789995567
0.7899952911
0.7899950002