/*--------------------------------*- C++ -*----------------------------------*\
  =========                 |
  \\      /  F ield         | OpenFOAM: The Open Source CFD Toolbox
   \\    /   O peration     | Website:  https://openfoam.org
    \\  /    A nd           | Version:  8
     \\/     M anipulation  |
\*---------------------------------------------------------------------------*/
FoamFile
{
    version     2.0;
    format      ascii;
    class       volScalarField;
    location    "1";
    object      p;
}
// * * * * * * * * * * * * * * * * * * * * * * * * * * * * * * * * * * * * * //

dimensions      [1 -1 -2 0 0 0 0];

internalField   nonuniform List<scalar> 
67193
(
100004.0788
100004.098
100004.1126
100004.1224
100004.1303
100004.1287
100004.1319
100004.1348
100004.1347
100004.1333
100004.1262
100004.116
100004.1014
100004.0817
100004.0586
100004.034
100004.0094
100003.9859
100003.9643
100003.9454
100003.9298
100003.9179
100003.9098
100003.9057
100003.905
100003.9068
100003.9102
100003.9154
100003.923
100003.9336
100003.947
100003.9636
100003.9772
100003.9985
100004.023
100004.0385
100004.0511
100004.0605
100004.0676
100004.0682
100004.0707
100004.0733
100004.0734
100004.0718
100004.066
100004.0575
100004.0462
100004.0314
100004.0132
100003.9929
100003.9719
100003.9514
100003.9324
100003.9156
100003.9016
100003.8905
100003.8825
100003.8774
100003.8749
100003.8748
100003.8771
100003.8827
100003.8922
100003.9058
100003.9234
100003.9449
100003.9641
100003.9914
100003.9908
100004.0055
100004.0185
100004.0295
100004.037
100004.0401
100004.042
100004.0433
100004.0414
100004.0366
100004.0284
100004.0175
100004.0063
100003.9938
100003.979
100003.9621
100003.944
100003.9262
100003.9094
100003.8945
100003.8816
100003.8712
100003.8631
100003.8573
100003.8539
100003.8531
100003.8557
100003.8623
100003.8732
100003.8885
100003.908
100003.9313
100003.9536
100003.9839
100003.9547
100003.9685
100003.9823
100003.9955
100004.0047
100004.0116
100004.0148
100004.0148
100004.0106
100004.0021
100003.9909
100003.9773
100003.9658
100003.9542
100003.9419
100003.9279
100003.9124
100003.8967
100003.8817
100003.8683
100003.8567
100003.847
100003.8387
100003.8319
100003.8273
100003.8264
100003.8301
100003.8386
100003.8516
100003.8688
100003.8901
100003.9156
100003.9401
100003.9728
100003.9302
100003.9449
100003.9602
100003.9747
100003.9845
100003.9946
100003.9996
100003.9988
100003.9924
100003.9806
100003.9682
100003.9547
100003.9441
100003.9312
100003.9189
100003.9054
100003.8908
100003.8754
100003.8605
100003.8473
100003.8361
100003.8268
100003.8182
100003.8099
100003.804
100003.8028
100003.8077
100003.8183
100003.8332
100003.8521
100003.875
100003.9025
100003.9296
100003.9647
100003.9247
100003.9468
100003.9656
100003.9783
100003.9844
100003.994
100004.0001
100003.999
100003.9913
100003.9785
100003.9702
100003.9641
100003.9574
100003.9415
100003.9227
100003.9043
100003.8861
100003.868
100003.8503
100003.835
100003.8226
100003.8128
100003.803
100003.7929
100003.7853
100003.7833
100003.7879
100003.7989
100003.8152
100003.8356
100003.8605
100003.8908
100003.9202
100003.9593
100003.9469
100003.9812
100004.0046
100004.0148
100004.016
100004.0181
100004.0238
100004.022
100004.014
100004.0037
100004.0061
100004.01
100004.0076
100003.9889
100003.9614
100003.9326
100003.905
100003.8788
100003.8546
100003.8342
100003.8195
100003.8084
100003.7965
100003.7839
100003.7763
100003.7748
100003.7764
100003.7823
100003.7968
100003.8187
100003.8464
100003.8803
100003.9123
100003.9576
100003.9904
100004.0371
100004.0668
100004.0766
100004.0747
100004.0706
100004.0755
100004.0697
100004.0628
100004.0594
100004.0705
100004.0816
100004.0811
100004.0602
100004.0251
100003.9852
100003.9452
100003.9075
100003.8735
100003.8458
100003.8265
100003.8135
100003.7987
100003.7852
100003.7817
100003.7822
100003.7789
100003.7746
100003.7803
100003.8016
100003.8326
100003.871
100003.9061
100003.9588
100004.0395
100004.0972
100004.1349
100004.1493
100004.1502
100004.1441
100004.1573
100004.1375
100004.1363
100004.1357
100004.1501
100004.1628
100004.1611
100004.1387
100004.098
100004.0484
100003.9956
100003.945
100003.9001
100003.8643
100003.8399
100003.8242
100003.8063
100003.7943
100003.7978
100003.8001
100003.7911
100003.7762
100003.771
100003.7878
100003.8211
100003.8633
100003.9009
100003.9592
100004.0779
100004.1443
100004.1916
100004.2176
100004.2331
100004.2254
100004.2784
100004.2153
100004.231
100004.22
100004.2309
100004.2392
100004.2345
100004.212
100004.1686
100004.1117
100004.0464
100003.9826
100003.9268
100003.8832
100003.8534
100003.8335
100003.8129
100003.8028
100003.811
100003.8134
100003.8002
100003.7787
100003.7666
100003.7795
100003.8141
100003.8575
100003.8945
100003.9528
100004.0937
100004.1644
100004.2226
100004.2679
100004.31
100004.3236
100004.456
100004.303
100004.3466
100004.3006
100004.3024
100004.3016
100004.2935
100004.2736
100004.2308
100004.1695
100004.0919
100004.0156
100003.9504
100003.9003
100003.8648
100003.8398
100003.8162
100003.8048
100003.8077
100003.807
100003.7934
100003.7731
100003.7641
100003.7807
100003.8141
100003.8538
100003.8853
100003.9382
100004.0866
100004.1547
100004.2216
100004.2925
100004.382
100004.4287
100004.7593
100004.4033
100004.4823
100004.3677
100004.3588
100004.344
100004.3311
100004.3159
100004.2775
100004.2161
100004.1277
100004.0429
100003.9724
100003.9166
100003.8741
100003.8442
100003.8231
100003.8094
100003.7979
100003.7831
100003.7647
100003.7551
100003.7656
100003.7904
100003.8188
100003.8491
100003.8726
100003.9194
100004.0758
100004.1358
100004.2058
100004.2954
100004.4267
100004.4885
100005.1334
100004.5375
100004.6075
100004.4134
100004.3972
100004.3601
100004.3362
100004.3233
100004.2911
100004.2363
100004.1462
100004.0649
100003.9928
100003.9296
100003.8776
100003.8403
100003.817
100003.8034
100003.7928
100003.7813
100003.7717
100003.7716
100003.7837
100003.8012
100003.8201
100003.8429
100003.8618
100003.9071
100004.0777
100004.1217
100004.1894
100004.313
100004.5668
100004.6673
100006.3906
100004.7849
100004.8391
100004.4482
100004.4129
100004.3413
100004.2906
100004.2533
100004.2175
100004.1835
100004.1283
100004.0655
100003.9964
100003.9269
100003.8664
100003.8212
100003.7934
100003.7804
100003.7777
100003.7789
100003.7811
100003.7859
100003.7947
100003.806
100003.8191
100003.8384
100003.8556
100003.9032
100004.0754
100004.0967
100004.1267
100004.1801
100004.2626
100004.2833
100004.6313
100004.4232
100004.4738
100004.3541
100004.3632
100004.2948
100004.2219
100004.1722
100004.1439
100004.1298
100004.1018
100004.0493
100003.981
100003.9108
100003.8475
100003.7971
100003.7618
100003.7414
100003.7359
100003.7407
100003.7541
100003.7721
100003.7895
100003.8036
100003.8163
100003.835
100003.8521
100003.9047
100004.0631
100004.0724
100004.0725
100004.0875
100004.122
100004.1642
100004.399
100004.2849
100004.3399
100004.2962
100004.3263
100004.2524
100004.1445
100004.0918
100004.0898
100004.0951
100004.0738
100004.022
100003.965
100003.9107
100003.8611
100003.814
100003.7653
100003.726
100003.707
100003.7056
100003.7227
100003.7501
100003.7767
100003.7968
100003.8116
100003.8312
100003.8497
100003.908
100004.0081
100004.0322
100004.0198
100004.0132
100004.0182
100004.0411
100004.1325
100004.1293
100004.1963
100004.2469
100004.3187
100004.2292
100004.0692
100004.0234
100004.056
100004.067
100004.0372
100004.002
100003.9726
100003.9507
100003.9284
100003.8924
100003.8346
100003.7719
100003.721
100003.6915
100003.6941
100003.7266
100003.762
100003.7877
100003.8051
100003.8258
100003.8454
100003.9084
100003.9368
100003.9567
100003.9505
100003.9399
100003.9318
100003.9353
100003.9649
100003.9777
100004.0274
100004.0866
100004.1452
100004.0641
100003.9809
100003.9946
100004.0261
100004.0227
100003.9938
100003.999
100004.0038
100004.0196
100004.0291
100004.0082
100003.9533
100003.8818
100003.8056
100003.7349
100003.6973
100003.7105
100003.7517
100003.7819
100003.8003
100003.8209
100003.8399
100003.9027
100003.8763
100003.8914
100003.89
100003.8802
100003.869
100003.8631
100003.8672
100003.8701
100003.8882
100003.9143
100003.939
100003.9175
100003.9266
100003.9575
100003.9635
100003.954
100003.9625
100003.9799
100004.0028
100004.0374
100004.0536
100004.03
100003.985
100003.9526
100003.8975
100003.8068
100003.7277
100003.7029
100003.7272
100003.7626
100003.7915
100003.817
100003.835
100003.8896
100003.8337
100003.8454
100003.8473
100003.8403
100003.8305
100003.822
100003.8172
100003.8112
100003.808
100003.8076
100003.8155
100003.8429
100003.8764
100003.889
100003.8912
100003.9038
100003.9229
100003.9429
100003.9665
100003.9905
100003.9881
100003.9524
100003.908
100003.8929
100003.8506
100003.7562
100003.6827
100003.6801
100003.7263
100003.7686
100003.8012
100003.8292
100003.8445
100003.8765
100003.8093
100003.8191
100003.8228
100003.8195
100003.8128
100003.8054
100003.7994
100003.7927
100003.7875
100003.7831
100003.7919
100003.8134
100003.8276
100003.8315
100003.8369
100003.8538
100003.8706
100003.8823
100003.8863
100003.8808
100003.8581
100003.8139
100003.7693
100003.734
100003.7012
100003.6844
100003.7037
100003.7359
100003.767
100003.7972
100003.8244
100003.8505
100003.8574
100003.8702
100003.8017
100003.8119
100003.816
100003.8157
100003.811
100003.8049
100003.7996
100003.7941
100003.7899
100003.7855
100003.7896
100003.795
100003.7959
100003.7938
100003.796
100003.8014
100003.8041
100003.7986
100003.7835
100003.7616
100003.7315
100003.7053
100003.6972
100003.6991
100003.7174
100003.7487
100003.7714
100003.7789
100003.7883
100003.811
100003.8323
100003.8549
100003.8563
100003.8681
100003.8063
100003.8222
100003.8259
100003.8266
100003.8208
100003.814
100003.8077
100003.802
100003.7974
100003.7921
100003.7899
100003.7861
100003.7821
100003.7761
100003.772
100003.7658
100003.757
100003.7438
100003.7274
100003.7123
100003.7025
100003.71
100003.7338
100003.7555
100003.7768
100003.7878
100003.7848
100003.7798
100003.7872
100003.8101
100003.8222
100003.8436
100003.8509
100003.8666
100003.8262
100003.854
100003.8469
100003.8451
100003.8369
100003.8286
100003.8206
100003.8132
100003.8069
100003.8001
100003.7939
100003.7866
100003.7808
100003.772
100003.7649
100003.7561
100003.7418
100003.7301
100003.7232
100003.7237
100003.733
100003.7543
100003.7765
100003.7877
100003.7919
100003.7863
100003.7796
100003.7791
100003.7862
100003.8061
100003.8107
100003.8377
100003.8457
100003.8701
100003.8235
100003.8167
100003.8526
100003.871
100003.8712
100003.8599
100003.8495
100003.8385
100003.8289
100003.8199
100003.8109
100003.8025
100003.7945
100003.788
100003.7792
100003.7693
100003.7637
100003.7509
100003.7467
100003.7495
100003.7624
100003.7782
100003.7932
100003.7972
100003.794
100003.786
100003.7805
100003.781
100003.7849
100003.792
100003.8072
100003.8116
100003.8381
100003.8455
100003.878
100003.823
100003.8348
100003.8383
100003.8625
100003.8777
100003.876
100003.8666
100003.8579
100003.8487
100003.8369
100003.8246
100003.8142
100003.8061
100003.7997
100003.7918
100003.7809
100003.7757
100003.7696
100003.7725
100003.7796
100003.7875
100003.7922
100003.7909
100003.7845
100003.7802
100003.781
100003.782
100003.7904
100003.8011
100003.8132
100003.8274
100003.829
100003.8473
100003.8528
100003.8971
100003.8462
100003.8536
100003.9297
100003.9027
100003.861
100003.8905
100003.8831
100003.8747
100003.8655
100003.853
100003.8402
100003.8284
100003.8192
100003.8117
100003.8036
100003.7953
100003.7866
100003.7809
100003.7818
100003.7825
100003.7787
100003.7751
100003.7674
100003.7653
100003.7661
100003.7737
100003.7829
100003.7979
100003.8129
100003.8321
100003.8437
100003.8419
100003.8634
100003.8719
100003.9422
100003.8467
100003.8575
100003.8943
100004.0836
100003.8729
100003.9
100003.8743
100003.8688
100003.8608
100003.852
100003.8433
100003.8343
100003.8268
100003.8194
100003.8101
100003.8012
100003.7896
100003.7805
100003.775
100003.7675
100003.764
100003.7585
100003.7483
100003.7478
100003.7518
100003.7626
100003.7785
100003.7999
100003.8202
100003.8467
100003.8555
100003.8561
100003.9113
100003.9215
100004.0302
100003.9047
100003.8862
100004.1247
100003.8879
100003.8998
100003.8752
100003.8656
100003.8533
100003.8417
100003.8353
100003.8306
100003.8268
100003.8228
100003.8152
100003.8094
100003.795
100003.7804
100003.769
100003.7581
100003.7523
100003.7402
100003.7351
100003.7385
100003.7406
100003.7513
100003.7699
100003.7967
100003.8265
100003.8707
100003.8818
100003.9181
100004.0433
100004.0238
100004.1672
100003.9021
100003.9391
100003.9238
100003.9045
100003.883
100003.8696
100003.8583
100003.8431
100003.8278
100003.8215
100003.8195
100003.8189
100003.7423
100003.7485
100003.7686
100003.801
100003.8434
100003.9105
100003.9393
100004.0377
100004.2212
100004.1863
100004.3601
100003.9563
100003.9306
100003.8968
100003.8797
100003.8601
100003.8382
100003.9397
100003.9531
100003.9647
100003.9745
100003.9825
100003.9865
100003.9914
100003.9949
100003.9946
100003.9904
100003.9811
100003.9682
100003.9526
100003.9347
100003.9147
100003.8932
100003.8715
100003.8507
100003.8317
100003.8153
100003.802
100003.7917
100003.7844
100003.7794
100003.7762
100003.7749
100003.776
100003.78
100003.7874
100003.799
100003.8148
100003.8357
100003.8524
100003.8749
100003.8864
100003.8966
100003.9064
100003.9155
100003.9227
100003.9274
100003.932
100003.9352
100003.9353
100003.932
100003.9244
100003.913
100003.9005
100003.8872
100003.8719
100003.8543
100003.8357
100003.8174
100003.8007
100003.7862
100003.7743
100003.765
100003.7577
100003.752
100003.7474
100003.7448
100003.7454
100003.75
100003.7591
100003.773
100003.7915
100003.8151
100003.8368
100003.8613
100003.8514
100003.8606
100003.8714
100003.8831
100003.8919
100003.8991
100003.9043
100003.9065
100003.9035
100003.8963
100003.8848
100003.8692
100003.8562
100003.8458
100003.835
100003.8217
100003.8063
100003.7907
100003.7762
100003.7637
100003.7533
100003.7449
100003.7378
100003.731
100003.7251
100003.7221
100003.7232
100003.729
100003.7396
100003.7549
100003.7745
100003.7984
100003.8221
100003.8496
100003.8088
100003.8175
100003.8305
100003.8461
100003.8582
100003.8714
100003.8802
100003.882
100003.8745
100003.8612
100003.8436
100003.8228
100003.8087
100003.7994
100003.7922
100003.7834
100003.7719
100003.7589
100003.7467
100003.7362
100003.7274
100003.7201
100003.7129
100003.7044
100003.6964
100003.6925
100003.695
100003.7034
100003.7168
100003.7344
100003.7557
100003.7806
100003.805
100003.8337
100003.7744
100003.785
100003.8003
100003.8179
100003.8316
100003.8502
100003.8643
100003.8669
100003.854
100003.8349
100003.8133
100003.7912
100003.7776
100003.7683
100003.7609
100003.754
100003.7446
100003.7331
100003.7216
100003.712
100003.7044
100003.6981
100003.6906
100003.6794
100003.6684
100003.6641
100003.668
100003.6789
100003.6951
100003.7153
100003.7386
100003.7655
100003.792
100003.8228
100003.7569
100003.7712
100003.7876
100003.8064
100003.8224
100003.8398
100003.858
100003.8623
100003.8443
100003.8231
100003.803
100003.7835
100003.7719
100003.7624
100003.7533
100003.744
100003.7326
100003.7196
100003.7066
100003.6954
100003.6871
100003.681
100003.6723
100003.6571
100003.6445
100003.6406
100003.6446
100003.6546
100003.671
100003.6935
100003.72
100003.7506
100003.7789
100003.8136
100003.7576
100003.7759
100003.7949
100003.8145
100003.8321
100003.8494
100003.8687
100003.8726
100003.8529
100003.8339
100003.8157
100003.7999
100003.7909
100003.7816
100003.7704
100003.7575
100003.7419
100003.7238
100003.7058
100003.6905
100003.6793
100003.6721
100003.6608
100003.6414
100003.6285
100003.6249
100003.6273
100003.6343
100003.647
100003.669
100003.6993
100003.7358
100003.7669
100003.8071
100003.7722
100003.7967
100003.82
100003.8416
100003.8615
100003.8795
100003.903
100003.9025
100003.8835
100003.8656
100003.8511
100003.8402
100003.8337
100003.825
100003.811
100003.7926
100003.7693
100003.7433
100003.7181
100003.6968
100003.6812
100003.6721
100003.6572
100003.6337
100003.6197
100003.6149
100003.6148
100003.619
100003.6276
100003.6456
100003.6778
100003.7212
100003.7565
100003.8026
100003.7945
100003.8259
100003.8549
100003.8813
100003.9062
100003.9275
100003.9627
100003.9492
100003.9318
100003.9142
100003.9037
100003.8975
100003.8933
100003.8865
100003.8704
100003.8459
100003.8121
100003.7752
100003.7406
100003.712
100003.6913
100003.6785
100003.6594
100003.6319
100003.6169
100003.6107
100003.6075
100003.6083
100003.6145
100003.6291
100003.6598
100003.708
100003.7471
100003.7975
100003.8166
100003.8539
100003.8898
100003.9246
100003.9604
100003.9884
100004.0531
100004.0048
100003.9939
100003.9721
100003.9644
100003.9623
100003.9616
100003.9603
100003.9444
100003.9145
100003.8667
100003.8154
100003.769
100003.7318
100003.7055
100003.6877
100003.6631
100003.6327
100003.6165
100003.6087
100003.6031
100003.602
100003.6085
100003.622
100003.65
100003.6988
100003.7381
100003.7888
100003.8334
100003.8742
100003.9172
100003.9649
100004.0217
100004.0606
100004.1959
100004.0675
100004.0732
100004.0312
100004.0236
100004.0249
100004.0298
100004.0408
100004.0301
100003.9968
100003.9293
100003.8599
100003.7997
100003.7528
100003.7196
100003.6952
100003.6674
100003.634
100003.6135
100003.6026
100003.5966
100003.5969
100003.6049
100003.6207
100003.6505
100003.6962
100003.7302
100003.7768
100003.8478
100003.8884
100003.9364
100003.9993
100004.0925
100004.14
100004.4428
100004.1509
100004.1698
100004.0831
100004.0725
100004.0741
100004.0852
100004.1152
100004.1176
100004.0854
100003.9915
100003.9024
100003.8286
100003.7725
100003.7312
100003.6994
100003.6704
100003.637
100003.6096
100003.5899
100003.5812
100003.5845
100003.6019
100003.6298
100003.663
100003.6988
100003.723
100003.7647
100003.8669
100003.9043
100003.9521
100004.025
100004.1585
100004.2013
100004.9277
100004.272
100004.2735
100004.1219
100004.1008
100004.0954
100004.1078
100004.1589
100004.182
100004.1568
100004.0328
100003.929
100003.8484
100003.7823
100003.727
100003.6849
100003.6568
100003.6383
100003.6242
100003.6117
100003.6063
100003.6151
100003.6357
100003.6577
100003.6765
100003.6983
100003.715
100003.7546
100003.8848
100003.9187
100003.9605
100004.0478
100004.2429
100004.2434
100006.3156
100004.5229
100004.4264
100004.1521
100004.0863
100004.0596
100004.0504
100004.0601
100004.0626
100004.0591
100003.9859
100003.914
100003.8392
100003.7641
100003.6948
100003.6418
100003.6081
100003.5934
100003.5916
100003.5993
100003.6156
100003.6367
100003.6543
100003.6661
100003.6763
100003.6927
100003.7057
100003.7468
100003.8969
100003.9237
100003.9263
100003.9336
100003.9384
100003.8753
100003.8425
100004.0282
100004.0616
100004.0219
100003.9763
100003.9721
100003.9671
100003.972
100003.9752
100003.9752
100003.9416
100003.8814
100003.8065
100003.7294
100003.6576
100003.6009
100003.5606
100003.5343
100003.5235
100003.5333
100003.5655
100003.607
100003.6388
100003.6567
100003.6688
100003.6843
100003.6956
100003.7399
100003.8967
100003.9308
100003.9065
100003.8955
100003.8875
100003.8761
100003.9831
100003.967
100003.9843
100003.9307
100003.8537
100003.8565
100003.8559
100003.8736
100003.9005
100003.9295
100003.8998
100003.8395
100003.7776
100003.7111
100003.6453
100003.5917
100003.5485
100003.5117
100003.487
100003.4811
100003.5005
100003.5508
100003.6028
100003.6373
100003.6568
100003.6746
100003.6854
100003.7326
100003.8816
100003.9391
100003.8826
100003.8542
100003.8253
100003.804
100003.8282
100003.8315
100003.8324
100003.7971
100003.7471
100003.7421
100003.7419
100003.7734
100003.8432
100003.8768
100003.8369
100003.7996
100003.7596
100003.7048
100003.6488
100003.6025
100003.5612
100003.5241
100003.4985
100003.487
100003.4876
100003.5088
100003.5603
100003.6107
100003.6413
100003.6636
100003.6747
100003.7227
100003.8083
100003.8425
100003.8142
100003.789
100003.7585
100003.738
100003.7374
100003.734
100003.7258
100003.7048
100003.6708
100003.6814
100003.7018
100003.7662
100003.8258
100003.806
100003.7854
100003.7703
100003.7463
100003.7036
100003.6635
100003.6288
100003.5932
100003.5551
100003.5239
100003.5133
100003.5167
100003.5186
100003.5416
100003.5909
100003.6286
100003.6545
100003.6657
100003.7114
100003.7457
100003.7666
100003.7557
100003.7367
100003.7109
100003.6905
100003.6807
100003.6705
100003.6576
100003.6395
100003.6118
100003.6427
100003.6905
100003.7494
100003.7563
100003.7466
100003.7402
100003.7341
100003.7155
100003.6819
100003.6529
100003.6272
100003.6042
100003.5825
100003.5582
100003.5412
100003.5407
100003.5403
100003.5472
100003.5827
100003.619
100003.6477
100003.6615
100003.7021
100003.7016
100003.7148
100003.7124
100003.7021
100003.6841
100003.6663
100003.6525
100003.6377
100003.6237
100003.6097
100003.5938
100003.637
100003.6818
100003.7037
100003.6982
100003.698
100003.6961
100003.6905
100003.6688
100003.6386
100003.6144
100003.5915
100003.5667
100003.5341
100003.5132
100003.5025
100003.4936
100003.4969
100003.5325
100003.5842
100003.6242
100003.6563
100003.6788
100003.7133
100003.6752
100003.684
100003.6855
100003.6835
100003.6734
100003.6611
100003.65
100003.6385
100003.6264
100003.6164
100003.6107
100003.6439
100003.6613
100003.6617
100003.659
100003.6578
100003.6539
100003.6461
100003.6232
100003.589
100003.5567
100003.5294
100003.511
100003.4982
100003.4895
100003.4826
100003.4969
100003.5404
100003.5882
100003.6276
100003.6596
100003.6878
100003.7084
100003.7237
100003.6654
100003.6727
100003.6762
100003.6798
100003.6745
100003.6659
100003.6578
100003.6502
100003.6435
100003.6371
100003.6341
100003.646
100003.646
100003.6388
100003.6337
100003.6251
100003.6134
100003.5982
100003.5743
100003.5438
100003.5168
100003.4942
100003.485
100003.4818
100003.4886
100003.5185
100003.5707
100003.6088
100003.6353
100003.6633
100003.6876
100003.698
100003.7115
100003.7232
100003.6671
100003.675
100003.6815
100003.6882
100003.6842
100003.6764
100003.6688
100003.6626
100003.6584
100003.6535
100003.6484
100003.6475
100003.6418
100003.6317
100003.6232
100003.6081
100003.5907
100003.573
100003.5536
100003.5356
100003.5226
100003.52
100003.5348
100003.5515
100003.5792
100003.6072
100003.6151
100003.6224
100003.6389
100003.6664
100003.6827
100003.688
100003.7077
100003.7222
100003.6725
100003.6798
100003.6868
100003.6988
100003.6976
100003.6909
100003.683
100003.6763
100003.6711
100003.6655
100003.6583
100003.6526
100003.645
100003.6335
100003.6214
100003.6065
100003.587
100003.5717
100003.561
100003.5545
100003.5508
100003.5635
100003.5915
100003.6108
100003.6208
100003.6197
100003.6179
100003.6231
100003.6343
100003.658
100003.6742
100003.684
100003.702
100003.7238
100003.6687
100003.6616
100003.6511
100003.6784
100003.7034
100003.7121
100003.7099
100003.7018
100003.6936
100003.6855
100003.6775
100003.6691
100003.662
100003.654
100003.6426
100003.628
100003.6202
100003.6032
100003.5932
100003.5899
100003.5937
100003.6041
100003.6178
100003.6247
100003.6267
100003.6234
100003.6195
100003.623
100003.6302
100003.6358
100003.6532
100003.6674
100003.6803
100003.6913
100003.7255
100003.6469
100003.632
100003.5916
100003.6099
100003.679
100003.7128
100003.7226
100003.7195
100003.7121
100003.7014
100003.6906
100003.681
100003.6741
100003.6681
100003.6599
100003.6459
100003.6428
100003.633
100003.6283
100003.6285
100003.63
100003.6245
100003.6169
100003.6197
100003.6247
100003.6291
100003.6307
100003.6339
100003.6429
100003.6515
100003.6639
100003.6624
100003.6683
100003.6685
100003.7205
100003.6401
100003.6287
100003.6269
100003.6119
100003.6322
100003.7019
100003.7309
100003.7339
100003.7284
100003.7162
100003.703
100003.691
100003.682
100003.6741
100003.6646
100003.657
100003.6505
100003.6446
100003.6377
100003.629
100003.6149
100003.6095
100003.6017
100003.6037
100003.608
100003.6213
100003.6343
100003.6461
100003.6589
100003.6729
100003.6788
100003.6487
100003.6569
100003.6427
100003.7074
100003.6792
100003.608
100003.6289
100003.4508
100003.6103
100003.674
100003.7171
100003.7275
100003.7264
100003.7168
100003.7079
100003.6983
100003.6898
100003.6824
100003.6737
100003.6698
100003.6593
100003.6462
100003.6332
100003.6207
100003.6133
100003.5992
100003.5839
100003.5829
100003.5877
100003.6034
100003.6259
100003.6488
100003.669
100003.6864
100003.6809
100003.6451
100003.6905
100003.6549
100003.718
100003.6809
100003.6536
100003.5665
100003.6751
100003.7062
100003.7195
100003.7255
100003.7185
100003.7055
100003.7002
100003.6959
100003.6935
100003.691
100003.6815
100003.681
100003.6653
100003.6465
100003.6272
100003.6102
100003.5971
100003.5755
100003.5706
100003.5698
100003.5694
100003.58
100003.6046
100003.6362
100003.6679
100003.694
100003.6983
100003.6927
100003.7631
100003.7326
100003.7885
100003.7249
100003.7876
100003.7001
100003.7299
100003.7041
100003.713
100003.7159
100003.7045
100003.6872
100003.6828
100003.6814
100003.6824
100003.5688
100003.572
100003.5904
100003.6228
100003.6642
100003.7088
100003.7447
100003.7684
100003.8509
100003.8296
100003.9052
100003.7591
100003.746
100003.7226
100003.7166
100003.7122
100003.6937
100003.782
100003.7959
100003.808
100003.8181
100003.826
100003.8306
100003.8327
100003.8327
100003.8295
100003.8225
100003.8119
100003.7987
100003.7837
100003.7672
100003.7495
100003.7311
100003.7125
100003.6946
100003.6781
100003.6635
100003.651
100003.6408
100003.633
100003.6273
100003.6238
100003.6225
100003.6239
100003.6283
100003.6361
100003.6475
100003.6616
100003.6787
100003.6914
100003.7079
100003.7394
100003.7508
100003.761
100003.7697
100003.7764
100003.7803
100003.7821
100003.7823
100003.7802
100003.7748
100003.7664
100003.7554
100003.7429
100003.7291
100003.714
100003.6981
100003.6818
100003.666
100003.6512
100003.638
100003.6268
100003.6176
100003.6103
100003.6049
100003.6015
100003.6005
100003.6026
100003.6084
100003.6181
100003.6316
100003.648
100003.6668
100003.6825
100003.6972
100003.7111
100003.7224
100003.7329
100003.742
100003.7488
100003.7528
100003.7545
100003.7542
100003.7506
100003.7438
100003.7346
100003.7234
100003.7117
100003.6994
100003.6864
100003.6726
100003.6583
100003.6441
100003.6308
100003.6188
100003.6083
100003.5997
100003.5926
100003.5873
100003.5839
100003.5834
100003.5865
100003.5936
100003.6047
100003.6194
100003.6365
100003.6551
100003.6713
100003.6844
100003.6828
100003.6945
100003.7058
100003.7162
100003.7241
100003.7294
100003.732
100003.7312
100003.7254
100003.7163
100003.7055
100003.6938
100003.6822
100003.6706
100003.6587
100003.6463
100003.6334
100003.6204
100003.6081
100003.5969
100003.5871
100003.5788
100003.5717
100003.5659
100003.5624
100003.5625
100003.5666
100003.5749
100003.5873
100003.6031
100003.621
100003.6401
100003.6561
100003.6685
100003.6634
100003.6759
100003.6878
100003.6991
100003.7086
100003.7149
100003.7185
100003.7174
100003.7094
100003.6983
100003.6865
100003.6746
100003.6635
100003.6523
100003.6404
100003.6283
100003.6155
100003.6025
100003.59
100003.5788
100003.569
100003.5607
100003.5534
100003.5473
100003.544
100003.5445
100003.5493
100003.5583
100003.5714
100003.5877
100003.606
100003.6257
100003.6426
100003.6555
100003.6514
100003.6637
100003.6767
100003.6896
100003.7006
100003.7094
100003.7152
100003.7139
100003.7045
100003.6917
100003.6784
100003.6661
100003.6559
100003.646
100003.6353
100003.6234
100003.6097
100003.5945
100003.5801
100003.5672
100003.5563
100003.5473
100003.5395
100003.5327
100003.5291
100003.5295
100003.534
100003.5426
100003.5551
100003.571
100003.5893
100003.6101
100003.6275
100003.642
100003.6482
100003.6628
100003.6779
100003.6924
100003.7046
100003.7146
100003.7231
100003.7217
100003.7107
100003.6971
100003.6845
100003.6741
100003.666
100003.6579
100003.6472
100003.6337
100003.6168
100003.5984
100003.5808
100003.5649
100003.5515
100003.5411
100003.5318
100003.5235
100003.5186
100003.5172
100003.5204
100003.5282
100003.5394
100003.5544
100003.5725
100003.5945
100003.6112
100003.6302
100003.6542
100003.6727
100003.6908
100003.7074
100003.7211
100003.7318
100003.743
100003.7404
100003.7295
100003.7167
100003.7068
100003.7002
100003.6956
100003.6909
100003.6803
100003.6642
100003.6409
100003.6154
100003.5914
100003.5711
100003.5551
100003.5423
100003.5305
100003.5187
100003.5108
100003.5075
100003.5087
100003.5146
100003.525
100003.5392
100003.5572
100003.5805
100003.5982
100003.6203
100003.6665
100003.6892
100003.7108
100003.7303
100003.7467
100003.7582
100003.775
100003.7674
100003.7591
100003.7482
100003.7422
100003.7414
100003.7421
100003.745
100003.7365
100003.7177
100003.6835
100003.6464
100003.6125
100003.5849
100003.5643
100003.5486
100003.5328
100003.5178
100003.5076
100003.5022
100003.5008
100003.5041
100003.5139
100003.5279
100003.5463
100003.5703
100003.5888
100003.614
100003.6806
100003.7065
100003.7314
100003.7546
100003.7757
100003.7874
100003.8168
100003.7985
100003.7958
100003.7862
100003.7851
100003.7925
100003.8022
100003.8215
100003.82
100003.7999
100003.7461
100003.6907
100003.6423
100003.6044
100003.5768
100003.5562
100003.5364
100003.5186
100003.5065
100003.4993
100003.4961
100003.498
100003.5066
100003.5216
100003.54
100003.5639
100003.582
100003.6085
100003.6938
100003.7209
100003.7472
100003.774
100003.8019
100003.8108
100003.858
100003.8269
100003.836
100003.8238
100003.828
100003.8473
100003.8714
100003.9222
100003.9392
100003.9214
100003.8299
100003.7468
100003.6781
100003.6265
100003.5897
100003.563
100003.5389
100003.5182
100003.5037
100003.4951
100003.492
100003.4953
100003.5054
100003.5202
100003.5379
100003.5604
100003.5769
100003.6022
100003.7075
100003.7331
100003.7561
100003.7825
100003.8154
100003.8114
100003.8714
100003.8503
100003.8705
100003.8525
100003.8623
100003.8962
100003.9395
100004.0413
100004.1017
100004.0933
100003.9304
100003.8089
100003.7148
100003.6468
100003.5986
100003.5647
100003.5374
100003.5154
100003.4988
100003.489
100003.4878
100003.4955
100003.5067
100003.5222
100003.5389
100003.5591
100003.5728
100003.596
100003.7259
100003.7491
100003.7602
100003.777
100003.7999
100003.786
100004.038
100003.8892
100003.8836
100003.8646
100003.8763
100003.9229
100003.9893
100004.1878
100004.3563
100004.3602
100004.0357
100003.8594
100003.7396
100003.6567