/*--------------------------------*- C++ -*----------------------------------*\
  =========                 |
  \\      /  F ield         | OpenFOAM: The Open Source CFD Toolbox
   \\    /   O peration     | Website:  https://openfoam.org
    \\  /    A nd           | Version:  8
     \\/     M anipulation  |
\*---------------------------------------------------------------------------*/
FoamFile
{
    version     2.0;
    format      ascii;
    class       volScalarField;
    location    "1";
    object      p_rgh;
}
// * * * * * * * * * * * * * * * * * * * * * * * * * * * * * * * * * * * * * //

dimensions      [1 -1 -2 0 0 0 0];

internalField   nonuniform List<scalar> 
67193
(
100004.1391
100004.1584
100004.173
100004.1828
100004.1906
100004.189
100004.1922
100004.1951
100004.1951
100004.1936
100004.1865
100004.1763
100004.1618
100004.1421
100004.1189
100004.0943
100004.0698
100004.0463
100004.0247
100004.0057
100003.9901
100003.9782
100003.9702
100003.966
100003.9654
100003.9671
100003.9705
100003.9757
100003.9833
100003.994
100004.0074
100004.0239
100004.0376
100004.0588
100004.0833
100004.0988
100004.1114
100004.1208
100004.128
100004.1286
100004.131
100004.1336
100004.1337
100004.1322
100004.1264
100004.1178
100004.1065
100004.0917
100004.0735
100004.0532
100004.0322
100004.0117
100003.9928
100003.976
100003.9619
100003.9509
100003.9428
100003.9377
100003.9353
100003.9351
100003.9374
100003.943
100003.9525
100003.9662
100003.9837
100004.0053
100004.0245
100004.0518
100004.0512
100004.0658
100004.0788
100004.0898
100004.0974
100004.1005
100004.1024
100004.1036
100004.1017
100004.097
100004.0887
100004.0779
100004.0667
100004.0541
100004.0394
100004.0225
100004.0044
100003.9865
100003.9698
100003.9548
100003.942
100003.9315
100003.9234
100003.9176
100003.9142
100003.9134
100003.916
100003.9227
100003.9336
100003.9489
100003.9683
100003.9917
100004.014
100004.0443
100004.015
100004.0289
100004.0426
100004.0559
100004.065
100004.072
100004.0751
100004.0752
100004.071
100004.0624
100004.0513
100004.0377
100004.0261
100004.0145
100004.0022
100003.9882
100003.9728
100003.957
100003.942
100003.9286
100003.9171
100003.9073
100003.8991
100003.8923
100003.8877
100003.8867
100003.8905
100003.899
100003.9119
100003.9292
100003.9505
100003.9759
100004.0004
100004.0331
100003.9905
100004.0052
100004.0205
100004.0351
100004.0448
100004.055
100004.0599
100004.0592
100004.0527
100004.0409
100004.0286
100004.015
100004.0045
100003.9915
100003.9792
100003.9657
100003.9511
100003.9357
100003.9209
100003.9077
100003.8965
100003.8871
100003.8785
100003.8703
100003.8644
100003.8631
100003.868
100003.8786
100003.8936
100003.9124
100003.9353
100003.9628
100003.99
100004.025
100003.9851
100004.0072
100004.026
100004.0386
100004.0447
100004.0543
100004.0604
100004.0593
100004.0517
100004.0388
100004.0305
100004.0244
100004.0178
100004.0018
100003.9831
100003.9646
100003.9465
100003.9283
100003.9106
100003.8953
100003.883
100003.8731
100003.8634
100003.8532
100003.8456
100003.8437
100003.8483
100003.8592
100003.8755
100003.896
100003.9209
100003.9511
100003.9805
100004.0197
100004.0072
100004.0415
100004.065
100004.0751
100004.0763
100004.0784
100004.0842
100004.0823
100004.0744
100004.064
100004.0664
100004.0704
100004.068
100004.0492
100004.0218
100003.993
100003.9653
100003.9392
100003.9149
100003.8945
100003.8798
100003.8687
100003.8568
100003.8443
100003.8366
100003.8351
100003.8367
100003.8426
100003.8571
100003.879
100003.9067
100003.9407
100003.9726
100004.0179
100004.0508
100004.0974
100004.1271
100004.1369
100004.135
100004.131
100004.1358
100004.1301
100004.1231
100004.1197
100004.1308
100004.142
100004.1414
100004.1205
100004.0855
100004.0455
100004.0055
100003.9678
100003.9338
100003.9062
100003.8868
100003.8739
100003.859
100003.8455
100003.8421
100003.8426
100003.8392
100003.835
100003.8407
100003.8619
100003.8929
100003.9314
100003.9665
100004.0192
100004.0998
100004.1576
100004.1953
100004.2096
100004.2105
100004.2045
100004.2176
100004.1979
100004.1966
100004.196
100004.2105
100004.2232
100004.2214
100004.199
100004.1584
100004.1088
100004.0559
100004.0053
100003.9605
100003.9246
100003.9002
100003.8846
100003.8666
100003.8546
100003.8582
100003.8604
100003.8514
100003.8366
100003.8313
100003.8482
100003.8814
100003.9236
100003.9612
100004.0195
100004.1382
100004.2046
100004.252
100004.2779
100004.2934
100004.2857
100004.3388
100004.2757
100004.2914
100004.2803
100004.2913
100004.2995
100004.2948
100004.2723
100004.2289
100004.172
100004.1067
100004.0429
100003.9872
100003.9435
100003.9138
100003.8938
100003.8733
100003.8632
100003.8713
100003.8738
100003.8605
100003.8391
100003.827
100003.8398
100003.8744
100003.9178
100003.9549
100004.0131
100004.1541
100004.2247
100004.283
100004.3283
100004.3703
100004.384
100004.5164
100004.3633
100004.4069
100004.361
100004.3627
100004.3619
100004.3538
100004.3339
100004.2911
100004.2299
100004.1522
100004.0759
100004.0107
100003.9606
100003.9252
100003.9002
100003.8766
100003.8651
100003.8681
100003.8673
100003.8537
100003.8334
100003.8245
100003.8411
100003.8745
100003.9141
100003.9457
100003.9985
100004.1469
100004.215
100004.2819
100004.3529
100004.4423
100004.4891
100004.8196
100004.4636
100004.5427
100004.4281
100004.4191
100004.4044
100004.3914
100004.3763
100004.3378
100004.2764
100004.188
100004.1032
100004.0327
100003.9769
100003.9345
100003.9046
100003.8834
100003.8698
100003.8582
100003.8434
100003.825
100003.8155
100003.8259
100003.8507
100003.8791
100003.9095
100003.933
100003.9798
100004.1362
100004.1962
100004.2661
100004.3558
100004.487
100004.5488
100005.1938
100004.5978
100004.6679
100004.4738
100004.4575
100004.4204
100004.3966
100004.3836
100004.3514
100004.2966
100004.2066
100004.1252
100004.0531
100003.99
100003.938
100003.9006
100003.8774
100003.8637
100003.8532
100003.8416
100003.832
100003.832
100003.844
100003.8615
100003.8804
100003.9033
100003.9222
100003.9675
100004.1381
100004.182
100004.2498
100004.3734
100004.6272
100004.7276
100006.4509
100004.8453
100004.8995
100004.5086
100004.4732
100004.4017
100004.3509
100004.3137
100004.2779
100004.2438
100004.1887
100004.1258
100004.0567
100003.9873
100003.9268
100003.8816
100003.8537
100003.8408
100003.8381
100003.8392
100003.8414
100003.8462
100003.855
100003.8664
100003.8794
100003.8987
100003.9159
100003.9636
100004.1357
100004.157
100004.187
100004.2405
100004.3229
100004.3436
100004.6916
100004.4835
100004.5341
100004.4144
100004.4235
100004.3552
100004.2823
100004.2325
100004.2043
100004.1902
100004.1621
100004.1096
100004.0413
100003.9711
100003.9078
100003.8574
100003.8221
100003.8017
100003.7962
100003.8011
100003.8145
100003.8324
100003.8498
100003.8639
100003.8766
100003.8953
100003.9125
100003.965
100004.1234
100004.1327
100004.1328
100004.1479
100004.1823
100004.2246
100004.4594
100004.3452
100004.4003
100004.3565
100004.3867
100004.3127
100004.2049
100004.1521
100004.1502
100004.1554
100004.1341
100004.0823
100004.0253
100003.9711
100003.9214
100003.8744
100003.8257
100003.7864
100003.7674
100003.766
100003.783
100003.8104
100003.8371
100003.8572
100003.8719
100003.8915
100003.91
100003.9684
100004.0684
100004.0925
100004.0801
100004.0736
100004.0785
100004.1015
100004.1928
100004.1897
100004.2567
100004.3072
100004.3791
100004.2896
100004.1295
100004.0837
100004.1163
100004.1274
100004.0976
100004.0623
100004.033
100004.011
100003.9888
100003.9527
100003.895
100003.8323
100003.7813
100003.7519
100003.7545
100003.787
100003.8223
100003.8481
100003.8655
100003.8862
100003.9058
100003.9687
100003.9971
100004.017
100004.0108
100004.0002
100003.9922
100003.9957
100004.0252
100004.038
100004.0877
100004.1469
100004.2055
100004.1244
100004.0413
100004.0549
100004.0865
100004.0831
100004.0542
100004.0593
100004.0641
100004.0799
100004.0894
100004.0685
100004.0136
100003.9421
100003.8659
100003.7953
100003.7576
100003.7708
100003.812
100003.8423
100003.8607
100003.8812
100003.9003
100003.9631
100003.9366
100003.9517
100003.9504
100003.9406
100003.9294
100003.9234
100003.9275
100003.9304
100003.9485
100003.9747
100003.9994
100003.9778
100003.9869
100004.0178
100004.0238
100004.0143
100004.0229
100004.0403
100004.0631
100004.0977
100004.114
100004.0903
100004.0453
100004.0129
100003.9579
100003.8671
100003.788
100003.7633
100003.7875
100003.8229
100003.8518
100003.8773
100003.8953
100003.9499
100003.8941
100003.9057
100003.9076
100003.9006
100003.8908
100003.8823
100003.8776
100003.8715
100003.8683
100003.868
100003.8758
100003.9033
100003.9368
100003.9494
100003.9515
100003.9642
100003.9832
100004.0032
100004.0269
100004.0508
100004.0484
100004.0127
100003.9684
100003.9533
100003.9109
100003.8166
100003.743
100003.7404
100003.7866
100003.8289
100003.8615
100003.8896
100003.9048
100003.9368
100003.8697
100003.8795
100003.8831
100003.8799
100003.8731
100003.8657
100003.8598
100003.853
100003.8478
100003.8434
100003.8522
100003.8738
100003.888
100003.8918
100003.8973
100003.9141
100003.9309
100003.9427
100003.9467
100003.9412
100003.9184
100003.8742
100003.8296
100003.7943
100003.7615
100003.7447
100003.7641
100003.7962
100003.8273
100003.8575
100003.8847
100003.9108
100003.9178
100003.9306
100003.8621
100003.8722
100003.8763
100003.876
100003.8713
100003.8653
100003.8599
100003.8545
100003.8502
100003.8459
100003.8499
100003.8553
100003.8563
100003.8541
100003.8563
100003.8617
100003.8645
100003.859
100003.8438
100003.8219
100003.7918
100003.7656
100003.7575
100003.7594
100003.7777
100003.809
100003.8317
100003.8392
100003.8486
100003.8714
100003.8926
100003.9152
100003.9166
100003.9284
100003.8667
100003.8825
100003.8862
100003.8869
100003.8811
100003.8744
100003.8681
100003.8623
100003.8578
100003.8524
100003.8503
100003.8464
100003.8424
100003.8364
100003.8323
100003.8262
100003.8174
100003.8041
100003.7878
100003.7727
100003.7629
100003.7703
100003.7941
100003.8158
100003.8371
100003.8481
100003.8451
100003.8402
100003.8475
100003.8705
100003.8825
100003.9039
100003.9113
100003.9269
100003.8865
100003.9143
100003.9073
100003.9054
100003.8972
100003.889
100003.8809
100003.8735
100003.8673
100003.8604
100003.8542
100003.8469
100003.8411
100003.8323
100003.8253
100003.8164
100003.8021
100003.7904
100003.7835
100003.784
100003.7933
100003.8147
100003.8368
100003.8481
100003.8522
100003.8466
100003.8399
100003.8394
100003.8466
100003.8665
100003.8711
100003.898
100003.9061
100003.9304
100003.8839
100003.877
100003.913
100003.9313
100003.9315
100003.9202
100003.9098
100003.8988
100003.8892
100003.8803
100003.8713
100003.8629
100003.8548
100003.8483
100003.8395
100003.8297
100003.8241
100003.8113
100003.807
100003.8098
100003.8227
100003.8385
100003.8536
100003.8576
100003.8543
100003.8464
100003.8408
100003.8413
100003.8453
100003.8523
100003.8675
100003.872
100003.8984
100003.9058
100003.9383
100003.8833
100003.8951
100003.8987
100003.9228
100003.938
100003.9364
100003.927
100003.9182
100003.909
100003.8973
100003.8849
100003.8745
100003.8665
100003.8601
100003.8521
100003.8412
100003.836
100003.83
100003.8328
100003.8399
100003.8478
100003.8525
100003.8512
100003.8449
100003.8406
100003.8414
100003.8423
100003.8507
100003.8614
100003.8735
100003.8877
100003.8893
100003.9076
100003.9131
100003.9575
100003.9066
100003.9139
100003.99
100003.9631
100003.9213
100003.9508
100003.9434
100003.935
100003.9259
100003.9134
100003.9005
100003.8888
100003.8795
100003.8721
100003.8639
100003.8556
100003.8469
100003.8413
100003.8421
100003.8429
100003.839
100003.8355
100003.8277
100003.8257
100003.8264
100003.8341
100003.8432
100003.8582
100003.8733
100003.8924
100003.904
100003.9022
100003.9237
100003.9322
100004.0025
100003.907
100003.9178
100003.9547
100004.144
100003.9333
100003.9604
100003.9346
100003.9291
100003.9212
100003.9124
100003.9036
100003.8947
100003.8871
100003.8797
100003.8705
100003.8616
100003.85
100003.8408
100003.8353
100003.8278
100003.8243
100003.8188
100003.8087
100003.8082
100003.8122
100003.8229
100003.8388
100003.8603
100003.8805
100003.9071
100003.9158
100003.9164
100003.9716
100003.9819
100004.0906
100003.965
100003.9465
100004.185
100003.9482
100003.9601
100003.9355
100003.9259
100003.9137
100003.902
100003.8956
100003.8909
100003.8871
100003.8831
100003.8755
100003.8698
100003.8553
100003.8407
100003.8293
100003.8184
100003.8127
100003.8005
100003.7954
100003.7988
100003.801
100003.8117
100003.8302
100003.8571
100003.8869
100003.931
100003.9422
100003.9785
100004.1037
100004.0841
100004.2276
100003.9624
100003.9995
100003.9841
100003.9648
100003.9434
100003.9299
100003.9186
100003.9035
100003.8882
100003.8819
100003.8799
100003.8793
100003.8026
100003.8089
100003.8289
100003.8613
100003.9037
100003.9708
100003.9997
100004.098
100004.2816
100004.2467
100004.4205
100004.0167
100003.9909
100003.9571
100003.94
100003.9204
100003.8985
100004.1207
100004.1341
100004.1458
100004.1555
100004.1635
100004.1675
100004.1724
100004.1759
100004.1756
100004.1714
100004.1621
100004.1492
100004.1336
100004.1158
100004.0957
100004.0742
100004.0525
100004.0317
100004.0127
100003.9963
100003.983
100003.9727
100003.9654
100003.9604
100003.9573
100003.9559
100003.957
100003.961
100003.9685
100003.98
100003.9958
100004.0167
100004.0334
100004.0559
100004.0674
100004.0776
100004.0874
100004.0965
100004.1038
100004.1084
100004.113
100004.1162
100004.1163
100004.113
100004.1054
100004.094
100004.0816
100004.0683
100004.0529
100004.0353
100004.0167
100003.9984
100003.9817
100003.9673
100003.9553
100003.946
100003.9388
100003.933
100003.9284
100003.9258
100003.9264
100003.931
100003.9401
100003.954
100003.9725
100003.9961
100004.0178
100004.0423
100004.0324
100004.0417
100004.0525
100004.0641
100004.0729
100004.0801
100004.0853
100004.0875
100004.0845
100004.0773
100004.0658
100004.0502
100004.0372
100004.0269
100004.016
100004.0027
100003.9874
100003.9717
100003.9572
100003.9447
100003.9344
100003.9259
100003.9188
100003.912
100003.9062
100003.9031
100003.9042
100003.91
100003.9206
100003.9359
100003.9556
100003.9794
100004.0031
100004.0306
100003.9898
100003.9986
100004.0115
100004.0271
100004.0392
100004.0524
100004.0612
100004.063
100004.0555
100004.0422
100004.0246
100004.0038
100003.9897
100003.9804
100003.9732
100003.9645
100003.9529
100003.94
100003.9277
100003.9172
100003.9084
100003.9011
100003.8939
100003.8854
100003.8774
100003.8736
100003.876
100003.8844
100003.8978
100003.9155
100003.9367
100003.9616
100003.986
100004.0147
100003.9554
100003.966
100003.9813
100003.9989
100004.0126
100004.0312
100004.0453
100004.0479
100004.0351
100004.0159
100003.9943
100003.9723
100003.9586
100003.9493
100003.9419
100003.935
100003.9256
100003.9141
100003.9027
100003.893
100003.8854
100003.8791
100003.8716
100003.8604
100003.8494
100003.8452
100003.8491
100003.8599
100003.8761
100003.8964
100003.9196
100003.9465
100003.973
100004.0038
100003.9379
100003.9523
100003.9686
100003.9874
100004.0034
100004.0208
100004.039
100004.0433
100004.0253
100004.0041
100003.984
100003.9645
100003.9529
100003.9435
100003.9343
100003.925
100003.9136
100003.9006
100003.8876
100003.8764
100003.8681
100003.862
100003.8533
100003.8381
100003.8255
100003.8217
100003.8256
100003.8356
100003.852
100003.8745
100003.901
100003.9316
100003.9599
100003.9946
100003.9386
100003.9569
100003.976
100003.9955
100004.0131
100004.0305
100004.0497
100004.0537
100004.0339
100004.015
100003.9967
100003.9809
100003.9719
100003.9626
100003.9515
100003.9386
100003.9229
100003.9049
100003.8868
100003.8716
100003.8603
100003.8532
100003.8419
100003.8224
100003.8095
100003.806
100003.8084
100003.8153
100003.828
100003.8501
100003.8804
100003.9168
100003.9479
100003.9881
100003.9532
100003.9777
100004.001
100004.0226
100004.0425
100004.0605
100004.084
100004.0835
100004.0645
100004.0466
100004.0321
100004.0212
100004.0147
100004.006
100003.992
100003.9736
100003.9503
100003.9243
100003.8991
100003.8778
100003.8623
100003.8531
100003.8382
100003.8147
100003.8007
100003.7959
100003.7958
100003.8
100003.8086
100003.8266
100003.8588
100003.9022
100003.9375
100003.9836
100003.9755
100004.0069
100004.0359
100004.0623
100004.0872
100004.1085
100004.1437
100004.1303
100004.1128
100004.0952
100004.0848
100004.0785
100004.0743
100004.0675
100004.0514
100004.0269
100003.9931
100003.9563
100003.9216
100003.893
100003.8724
100003.8595
100003.8404
100003.813
100003.7979
100003.7917
100003.7885
100003.7893
100003.7955
100003.8101
100003.8408
100003.889
100003.9281
100003.9786
100003.9976
100004.0349
100004.0708
100004.1056
100004.1414
100004.1694
100004.2341
100004.1858
100004.1749
100004.1531
100004.1454
100004.1433
100004.1426
100004.1414
100004.1255
100004.0955
100004.0477
100003.9965
100003.95
100003.9129
100003.8866
100003.8687
100003.8441
100003.8137
100003.7976
100003.7897
100003.7841
100003.783
100003.7895
100003.803
100003.831
100003.8798
100003.9191
100003.9698
100004.0144
100004.0552
100004.0983
100004.1459
100004.2027
100004.2416
100004.3769
100004.2486
100004.2543
100004.2122
100004.2046
100004.2059
100004.2108
100004.2218
100004.2111
100004.1778
100004.1103
100004.041
100003.9807
100003.9338
100003.9007
100003.8762
100003.8484
100003.815
100003.7945
100003.7836
100003.7776
100003.778
100003.7859
100003.8017
100003.8316
100003.8772
100003.9112
100003.9579
100004.0288
100004.0694
100004.1174
100004.1804
100004.2735
100004.321
100004.6238
100004.3319
100004.3508
100004.2641
100004.2536
100004.2551
100004.2662
100004.2962
100004.2986
100004.2664
100004.1725
100004.0834
100004.0096
100003.9535
100003.9122
100003.8804
100003.8514
100003.818
100003.7907
100003.7709
100003.7622
100003.7655
100003.783
100003.8108
100003.844
100003.8798
100003.904
100003.9457
100004.0479
100004.0853
100004.1332
100004.206
100004.3395
100004.3823
100005.1087
100004.453
100004.4545
100004.3029
100004.2819
100004.2765
100004.2888
100004.3399
100004.363
100004.3378
100004.2138
100004.1101
100004.0295
100003.9633
100003.908
100003.8659
100003.8378
100003.8193
100003.8053
100003.7927
100003.7873
100003.7961
100003.8167
100003.8388
100003.8575
100003.8794
100003.896
100003.9356
100004.0658
100004.0997
100004.1416
100004.2289
100004.424
100004.4244
100006.4966
100004.7039
100004.6074
100004.3331
100004.2673
100004.2406
100004.2314
100004.2411
100004.2437
100004.2401
100004.167
100004.0951
100004.0202
100003.9451
100003.8758
100003.8228
100003.7891
100003.7744
100003.7726
100003.7803
100003.7966
100003.8177
100003.8353
100003.8471
100003.8574
100003.8737
100003.8867
100003.9279
100004.0779
100004.1047
100004.1073
100004.1146
100004.1194
100004.0563
100004.0235
100004.2092
100004.2426
100004.203
100004.1573
100004.1531
100004.1481
100004.153
100004.1562
100004.1562
100004.1227
100004.0624
100003.9875
100003.9104
100003.8386
100003.7819
100003.7416
100003.7154
100003.7045
100003.7143
100003.7465
100003.788
100003.8198
100003.8377
100003.8498
100003.8654
100003.8766
100003.9209
100004.0777
100004.1118
100004.0875
100004.0765
100004.0685
100004.0571
100004.1641
100004.148
100004.1653
100004.1117
100004.0347
100004.0375
100004.0369
100004.0546
100004.0816
100004.1105
100004.0808
100004.0206
100003.9586
100003.8921
100003.8263
100003.7727
100003.7295
100003.6927
100003.668
100003.6621
100003.6815
100003.7318
100003.7838
100003.8183
100003.8378
100003.8556
100003.8664
100003.9136
100004.0626
100004.1201
100004.0636
100004.0352
100004.0063
100003.985
100004.0092
100004.0125
100004.0135
100003.9781
100003.9281
100003.9232
100003.9229
100003.9544
100004.0243
100004.0578
100004.0179
100003.9807
100003.9406
100003.8858
100003.8298
100003.7835
100003.7422
100003.7052
100003.6795
100003.6681
100003.6686
100003.6898
100003.7413
100003.7917
100003.8223
100003.8446
100003.8557
100003.9037
100003.9893
100004.0235
100003.9953
100003.9701
100003.9396
100003.919
100003.9184
100003.915
100003.9069
100003.8859
100003.8518
100003.8624
100003.8828
100003.9473
100004.0068
100003.987
100003.9665
100003.9513
100003.9274
100003.8846
100003.8445
100003.8098
100003.7742
100003.7361
100003.7049
100003.6944
100003.6977
100003.6997
100003.7227
100003.7719
100003.8096
100003.8355
100003.8467
100003.8924
100003.9267
100003.9476
100003.9367
100003.9177
100003.8919
100003.8716
100003.8617
100003.8515
100003.8386
100003.8205
100003.7929
100003.8237
100003.8715
100003.9304
100003.9373
100003.9276
100003.9212
100003.9151
100003.8965
100003.8629
100003.8339
100003.8083
100003.7853
100003.7636
100003.7392
100003.7222
100003.7217
100003.7214
100003.7282
100003.7637
100003.8001
100003.8287
100003.8425
100003.8832
100003.8826
100003.8958
100003.8934
100003.8831
100003.8651
100003.8474
100003.8335
100003.8187
100003.8047
100003.7907
100003.7748
100003.818
100003.8628
100003.8847
100003.8792
100003.879
100003.8771
100003.8715
100003.8498
100003.8196
100003.7954
100003.7725
100003.7477
100003.7151
100003.6942
100003.6835
100003.6746
100003.6779
100003.7135
100003.7652
100003.8052
100003.8374
100003.8598
100003.8943
100003.8562
100003.865
100003.8665
100003.8645
100003.8545
100003.8421
100003.8311
100003.8195
100003.8074
100003.7974
100003.7917
100003.8249
100003.8423
100003.8428
100003.84
100003.8388
100003.835
100003.8271
100003.8042
100003.77
100003.7377
100003.7104
100003.692
100003.6793
100003.6706
100003.6636
100003.6779
100003.7214
100003.7693
100003.8086
100003.8406
100003.8688
100003.8894
100003.9047
100003.8464
100003.8537
100003.8572
100003.8608
100003.8555
100003.8469
100003.8388
100003.8312
100003.8245
100003.8181
100003.8152
100003.827
100003.8271
100003.8198
100003.8148
100003.8061
100003.7944
100003.7792
100003.7553
100003.7248
100003.6978
100003.6753
100003.666
100003.6628
100003.6696
100003.6995
100003.7517
100003.7898
100003.8163
100003.8443
100003.8686
100003.879
100003.8925
100003.9042
100003.8481
100003.8561
100003.8625
100003.8692
100003.8653
100003.8574
100003.8498
100003.8436
100003.8394
100003.8345
100003.8294
100003.8285
100003.8228
100003.8128
100003.8042
100003.7892
100003.7718
100003.754
100003.7346
100003.7166
100003.7036
100003.701
100003.7158
100003.7325
100003.7602
100003.7882
100003.7961
100003.8035
100003.8199
100003.8475
100003.8637
100003.869
100003.8887
100003.9033
100003.8535
100003.8608
100003.8678
100003.8798
100003.8786
100003.8719
100003.864
100003.8573
100003.8521
100003.8465
100003.8393
100003.8336
100003.8261
100003.8145
100003.8024
100003.7875
100003.768
100003.7528
100003.742
100003.7355
100003.7318
100003.7445
100003.7725
100003.7918
100003.8018
100003.8007
100003.7989
100003.8041
100003.8153
100003.8391
100003.8552
100003.865
100003.883
100003.9048
100003.8497
100003.8426
100003.8321
100003.8594
100003.8844
100003.8931
100003.8909
100003.8828
100003.8746
100003.8665
100003.8585
100003.8501
100003.843
100003.835
100003.8236
100003.809
100003.8012
100003.7842
100003.7742
100003.7709
100003.7747
100003.7851
100003.7989
100003.8057
100003.8077
100003.8045
100003.8006
100003.8041
100003.8112
100003.8168
100003.8343
100003.8484
100003.8613
100003.8723
100003.9065
100003.8279
100003.813
100003.7726
100003.7909
100003.86
100003.8938
100003.9037
100003.9005
100003.8931
100003.8824
100003.8716
100003.862
100003.8551
100003.8492
100003.8409
100003.8269
100003.8238
100003.8141
100003.8093
100003.8095
100003.811
100003.8056
100003.7979
100003.8007
100003.8057
100003.8102
100003.8118
100003.8149
100003.8239
100003.8325
100003.8449
100003.8434
100003.8493
100003.8495
100003.9016
100003.8212
100003.8098
100003.808
100003.7929
100003.8132
100003.8829
100003.912
100003.915
100003.9095
100003.8972
100003.884
100003.872
100003.863
100003.8551
100003.8457
100003.838
100003.8315
100003.8256
100003.8187
100003.8101
100003.796
100003.7905
100003.7827
100003.7848
100003.789
100003.8023
100003.8154
100003.8271
100003.8399
100003.8539
100003.8598
100003.8297
100003.8379
100003.8237
100003.8884
100003.8602
100003.7891
100003.8099
100003.6318
100003.7913
100003.855
100003.8982
100003.9085
100003.9074
100003.8978
100003.889
100003.8793
100003.8708
100003.8634
100003.8548
100003.8508
100003.8403
100003.8272
100003.8142
100003.8018
100003.7943
100003.7802
100003.7649
100003.7639
100003.7687
100003.7844
100003.8069
100003.8299
100003.85
100003.8674
100003.862
100003.8261
100003.8716
100003.8359
100003.899
100003.862
100003.8346
100003.7475
100003.8561
100003.8872
100003.9005
100003.9065
100003.8995
100003.8866
100003.8812
100003.8769
100003.8745
100003.872
100003.8625
100003.862
100003.8463
100003.8275
100003.8082
100003.7912
100003.7781
100003.7565
100003.7516
100003.7508
100003.7504
100003.761
100003.7856
100003.8172
100003.8489
100003.8751
100003.8794
100003.8738
100003.9442
100003.9136
100003.9695
100003.9059
100003.9687
100003.8811
100003.9109
100003.8851
100003.894
100003.8969
100003.8856
100003.8682
100003.8639
100003.8625
100003.8634
100003.7498
100003.7531
100003.7714
100003.8039
100003.8452
100003.8898
100003.9258
100003.9494
100004.0319
100004.0106
100004.0862
100003.9401
100003.927
100003.9036
100003.8976
100003.8933
100003.8748
100004.0837
100004.0976
100004.1097
100004.1198
100004.1277
100004.1323
100004.1344
100004.1344
100004.1312
100004.1242
100004.1136
100004.1004
100004.0854
100004.0689
100004.0512
100004.0328
100004.0142
100003.9963
100003.9798
100003.9652
100003.9527
100003.9425
100003.9347
100003.929
100003.9255
100003.9242
100003.9256
100003.93
100003.9378
100003.9492
100003.9633
100003.9804
100003.9931
100004.0096
100004.0411
100004.0525
100004.0627
100004.0714
100004.0781
100004.082
100004.0838
100004.084
100004.0819
100004.0765
100004.0681
100004.0571
100004.0446
100004.0308
100004.0157
100003.9998
100003.9835
100003.9677
100003.9529
100003.9397
100003.9285
100003.9193
100003.912
100003.9066
100003.9032
100003.9022
100003.9043
100003.9101
100003.9198
100003.9333
100003.9497
100003.9685
100003.9842
100003.9989
100004.0128
100004.0241
100004.0346
100004.0437
100004.0505
100004.0545
100004.0562
100004.0559
100004.0523
100004.0455
100004.0363
100004.0251
100004.0134
100004.0011
100003.9881
100003.9743
100003.96
100003.9458
100003.9325
100003.9205
100003.91
100003.9014
100003.8943
100003.889
100003.8856
100003.8851
100003.8882
100003.8953
100003.9064
100003.9211
100003.9382
100003.9568
100003.973
100003.9861
100003.9845
100003.9962
100004.0075
100004.0179
100004.0258
100004.0311
100004.0337
100004.0329
100004.0271
100004.018
100004.0072
100003.9955
100003.9839
100003.9723
100003.9604
100003.948
100003.9351
100003.9221
100003.9097
100003.8986
100003.8888
100003.8805
100003.8734
100003.8676
100003.8641
100003.8642
100003.8683
100003.8766
100003.889
100003.9048
100003.9227
100003.9418
100003.9578
100003.9702
100003.9651
100003.9776
100003.9895
100004.0008
100004.0103
100004.0166
100004.0202
100004.0191
100004.0111
100004
100003.9882
100003.9763
100003.9652
100003.954
100003.9421
100003.93
100003.9172
100003.9042
100003.8917
100003.8805
100003.8707
100003.8624
100003.8551
100003.849
100003.8457
100003.8462
100003.851
100003.86
100003.8731
100003.8894
100003.9077
100003.9274
100003.9443
100003.9572
100003.9531
100003.9654
100003.9784
100003.9913
100004.0023
100004.0111
100004.0169
100004.0156
100004.0062
100003.9934
100003.9801
100003.9678
100003.9576
100003.9477
100003.937
100003.9251
100003.9114
100003.8962
100003.8818
100003.8689
100003.858
100003.849
100003.8412
100003.8344
100003.8308
100003.8312
100003.8357
100003.8443
100003.8568
100003.8727
100003.891
100003.9118
100003.9292
100003.9437
100003.9498
100003.9645
100003.9796
100003.9941
100004.0063
100004.0163
100004.0248
100004.0234
100004.0124
100003.9988
100003.9862
100003.9758
100003.9677
100003.9596
100003.9489
100003.9354
100003.9185
100003.9001
100003.8825
100003.8666
100003.8532
100003.8428
100003.8335
100003.8252
100003.8203
100003.8189
100003.8221
100003.8299
100003.8411
100003.8561
100003.8741
100003.8962
100003.9129
100003.9319
100003.9559
100003.9744
100003.9925
100004.0091
100004.0228
100004.0335
100004.0447
100004.0421
100004.0312
100004.0184
100004.0085
100004.0019
100003.9973
100003.9926
100003.982
100003.9659
100003.9426
100003.9171
100003.893
100003.8728
100003.8568
100003.844
100003.8322
100003.8204
100003.8125
100003.8092
100003.8103
100003.8163
100003.8267
100003.8408
100003.8589
100003.8822
100003.8999
100003.922
100003.9682
100003.9909
100004.0125
100004.032
100004.0484
100004.0599
100004.0767
100004.0691
100004.0608
100004.0499
100004.0439
100004.0431
100004.0438
100004.0467
100004.0382
100004.0194
100003.9852
100003.9481
100003.9142
100003.8866
100003.866
100003.8503
100003.8345
100003.8195
100003.8093
100003.8039
100003.8024
100003.8058
100003.8156
100003.8296
100003.8479
100003.872
100003.8905
100003.9157
100003.9823
100004.0082
100004.0331
100004.0563
100004.0774
100004.0891
100004.1185
100004.1001
100004.0975
100004.0879
100004.0868
100004.0942
100004.1039
100004.1232
100004.1217
100004.1016
100004.0478
100003.9924
100003.944
100003.9061
100003.8785
100003.8579
100003.8381
100003.8203
100003.8082
100003.801
100003.7978
100003.7997
100003.8083
100003.8233
100003.8417
100003.8656
100003.8837
100003.9102
100003.9955
100004.0226
100004.0489
100004.0757
100004.1036
100004.1125
100004.1597
100004.1286
100004.1377
100004.1254
100004.1297
100004.149
100004.1731
100004.2239
100004.2409
100004.2231
100004.1316
100004.0485
100003.9798
100003.9282
100003.8914
100003.8647
100003.8406
100003.8199
100003.8054
100003.7968
100003.7937
100003.797
100003.8071
100003.8219
100003.8396
100003.8621
100003.8786
100003.9039
100004.0092
100004.0348
100004.0578
100004.0842
100004.1171
100004.1131
100004.1731
100004.152
100004.1722
100004.1541
100004.164
100004.1979
100004.2412
100004.343
100004.4034
100004.395
100004.2321
100004.1106
100004.0165
100003.9485
100003.9003
100003.8664
100003.8391
100003.8171
100003.8005
100003.7907
100003.7895
100003.7972
100003.8084
100003.8239
100003.8406
100003.8608
100003.8745
100003.8977
100004.0276
100004.0508
100004.0619
100004.0787
100004.1016
100004.0877
100004.3397
100004.1909
100004.1853
100004.1663
100004.178
100004.2246
100004.291
100004.4895
100004.658
100004.6619
100004.3374
100004.1611
100004.0413
100003.9584