/*--------------------------------*- C++ -*----------------------------------*\
  =========                 |
  \\      /  F ield         | OpenFOAM: The Open Source CFD Toolbox
   \\    /   O peration     | Website:  https://openfoam.org
    \\  /    A nd           | Version:  8
     \\/     M anipulation  |
\*---------------------------------------------------------------------------*/
FoamFile
{
    version     2.0;
    format      ascii;
    class       surfaceScalarField;
    location    "1";
    object      phi;
}
// * * * * * * * * * * * * * * * * * * * * * * * * * * * * * * * * * * * * * //

dimensions      [1 0 -1 0 0 0 0];

internalField   nonuniform List<scalar> 
196504
(
-3.464322699e-05
-1.977334821e-05
1.686419145e-05
-2.982621218e-05
-2.103938514e-05
1.622194405e-05
-2.368296919e-05
-2.141140314e-05
1.526774135e-05
-1.68403598e-05
-2.104532421e-05
1.420230825e-05
-8.956892416e-06
-2.120921586e-05
1.332535902e-05
-1.546296029e-06
-1.969573458e-05
1.228476818e-05
5.246538819e-06
-2.005329691e-05
1.326011582e-05
1.08217664e-05
-2.041978516e-05
1.484423384e-05
1.568077021e-05
-2.077921383e-05
1.591990727e-05
2.054586932e-05
-2.176707564e-05
1.6901693e-05
2.476427193e-05
-2.162838839e-05
1.740971943e-05
2.913352639e-05
-2.194893033e-05
1.757942572e-05
3.337653501e-05
-2.154083281e-05
1.729758919e-05
3.700563282e-05
-2.020606372e-05
1.657674677e-05
4.000519563e-05
-1.865834673e-05
1.565858291e-05
4.25657053e-05
-1.733401934e-05
1.477332967e-05
4.475574289e-05
-1.620291578e-05
1.401272168e-05
4.649443207e-05
-1.512110949e-05
1.338228898e-05
4.766701394e-05
-1.405729824e-05
1.288461119e-05
4.820100665e-05
-1.309416656e-05
1.256009483e-05
4.804721186e-05
-1.232888015e-05
1.248262109e-05
4.717322261e-05
-1.186672259e-05
1.274068101e-05
4.56509395e-05
-1.18124387e-05
1.333471079e-05
4.402222756e-05
-1.244270186e-05
1.40714184e-05
4.296579958e-05
-1.361246184e-05
1.466890538e-05
4.261750638e-05
-1.469979951e-05
1.504811507e-05
4.247268989e-05
-1.524548937e-05
1.539033189e-05
4.190671422e-05
-1.516579388e-05
1.57317969e-05
4.05623445e-05
-1.461207205e-05
1.595646834e-05
3.816446205e-05
-1.373232172e-05
1.613022863e-05
3.406869357e-05
-1.250788755e-05
1.660367831e-05
2.696789855e-05
-1.048242685e-05
1.758324215e-05
1.618180983e-05
-7.233628754e-06
1.801973451e-05
-2.588369126e-06
1.877019247e-05
-3.272717522e-05
-3.525431025e-05
1.293132633e-05
-2.818838553e-05
-3.738770958e-05
1.180910238e-05
-2.229070321e-05
-3.783405394e-05
1.052454362e-05
-1.569565669e-05
-3.689099627e-05
9.250212391e-06
-8.131350259e-06
-3.696168446e-05
8.187767138e-06
-1.208877055e-06
-3.376827274e-05
7.149689677e-06
5.007530738e-06
-3.416990539e-05
7.899850636e-06
1.025440162e-05
-3.508089447e-05
9.413912914e-06
1.487459116e-05
-3.62685161e-05
1.086881092e-05
1.969513602e-05
-3.900354573e-05
1.241564621e-05
2.413658221e-05
-3.959054738e-05
1.35204536e-05
2.898876055e-05
-4.100462922e-05
1.420328025e-05
3.382956391e-05
-4.105871831e-05
1.467685785e-05
3.797366631e-05
-3.913449441e-05
1.478411812e-05
4.132028201e-05
-3.638253578e-05
1.437737801e-05
4.407789986e-05
-3.374245493e-05
1.365064013e-05
4.637338173e-05
-3.138023832e-05
1.288168419e-05
4.816486137e-05
-2.913240041e-05
1.221967843e-05
4.934666138e-05
-2.694086497e-05
1.170165893e-05
4.985582109e-05
-2.494698327e-05
1.134357476e-05
4.967704742e-05
-2.334699436e-05
1.119683059e-05
4.884689313e-05
-2.236983138e-05
1.133322903e-05
4.741309496e-05
-2.207039291e-05
1.169173841e-05
4.584394394e-05
-2.291625753e-05
1.204270855e-05
4.471684962e-05
-2.460537985e-05
1.212002526e-05
4.411871579e-05
-2.597268492e-05
1.187103902e-05
4.369687656e-05
-2.630244207e-05
1.147881565e-05
4.298737682e-05
-2.562750143e-05
1.117123291e-05
4.154041473e-05
-2.429002186e-05
1.11249378e-05
3.883713211e-05
-2.254194283e-05
1.151292892e-05
3.412309179e-05
-2.036487946e-05
1.257105653e-05
2.637847905e-05
-1.714561827e-05
1.440782766e-05
1.530895332e-05
-1.198095125e-05
1.581686778e-05
-4.813578401e-06
1.753417497e-05
-3.245538324e-05
-4.887522023e-05
1.107439622e-05
-2.754635815e-05
-5.183883156e-05
9.541670264e-06
-2.11924188e-05
-5.236539603e-05
8.17698526e-06
-1.432718874e-05
-5.098095015e-05
7.224318045e-06
-6.723733758e-06
-5.084011292e-05
6.274586672e-06
-1.595348913e-07
-4.611059138e-05
5.777751451e-06
5.116735803e-06
-4.606420642e-05
6.617687287e-06
9.654743102e-06
-4.741459202e-05
7.795373374e-06
1.39520185e-05
-4.937937669e-05
8.8132943e-06
1.868711538e-05
-5.37504653e-05
1.001155604e-05
2.344781082e-05
-5.501426444e-05
1.066277525e-05
2.908964755e-05
-5.72478275e-05
1.060113487e-05
3.478903417e-05
-5.797676958e-05
1.121845383e-05
3.957901915e-05
-5.605916537e-05
1.213448789e-05
4.325933107e-05
-5.256103572e-05
1.249800164e-05
4.61358519e-05
-4.874933097e-05
1.213018298e-05
4.845175013e-05
-4.515165944e-05
1.145536932e-05
5.020080177e-05
-4.17702178e-05
1.088863469e-05
5.125893344e-05
-3.854648357e-05
1.054738036e-05
5.152098394e-05
-3.561768618e-05
1.040857089e-05
5.096377019e-05
-3.32200196e-05
1.043018207e-05
4.966960234e-05
-3.17038246e-05
1.062812748e-05
4.771396494e-05
-3.101166781e-05
1.089689915e-05
4.581050205e-05
-3.196490408e-05
1.095211274e-05
4.469249217e-05
-3.406985465e-05
1.058249961e-05
4.430012891e-05
-3.540039487e-05
9.82009509e-06
4.409937606e-05
-3.496598155e-05
8.864317545e-06
4.352983911e-05
-3.307004634e-05
8.012108039e-06
4.214395007e-05
-3.041048138e-05
7.506374381e-06
3.947441833e-05
-2.751986188e-05
7.647475687e-06
3.488727505e-05
-2.456312892e-05
8.785416914e-06
2.758429693e-05
-2.109942101e-05
1.125680444e-05
1.649199527e-05
-1.580155869e-05
1.491293078e-05
-7.669558459e-06
1.934798982e-05
-3.27856976e-05
-5.990161623e-05
7.927408866e-06
-2.69619822e-05
-6.333683085e-05
5.673867254e-06
-1.964695147e-05
-6.401763055e-05
4.33679923e-06
-1.218276076e-05
-6.27674891e-05
4.321957929e-06
-4.702806477e-06
-6.242357174e-05
4.103133363e-06
1.274699843e-06
-5.734561171e-05
5.257161011e-06
5.106634789e-06
-5.684696978e-05
6.950499309e-06
8.286412821e-06
-5.845253598e-05
7.857864374e-06
1.198202834e-05
-6.088212739e-05
7.806861793e-06
1.647155423e-05
-6.602792284e-05
7.787681674e-06
2.19174215e-05
-6.743665374e-05
6.976290921e-06
2.895731052e-05
-6.943691647e-05
5.148985162e-06
3.600979236e-05
-7.047405906e-05
5.444606018e-06
4.18236571e-05
-6.901373287e-05
7.140511674e-06
4.604627811e-05
-6.540649391e-05
8.622655585e-06
4.910690087e-05
-6.086569134e-05
9.055566693e-06
5.144369218e-05
-5.623898678e-05
8.750381049e-06
5.314395849e-05
-5.188742448e-05
8.416807389e-06
5.403677834e-05
-4.788480021e-05
8.445389484e-06
5.393750874e-05
-4.43206219e-05
8.802124466e-06
5.27984758e-05
-4.136376441e-05
9.282721807e-06
5.072152565e-05
-3.945687749e-05
9.829970402e-06
4.793139616e-05
-3.837406361e-05
1.015251311e-05
4.563692061e-05
-3.94403088e-05
9.76988546e-06
4.480793303e-05
-4.199223326e-05
8.75138466e-06
4.506110088e-05
-4.322998477e-05
7.576448456e-06
4.542912154e-05
-4.192829765e-05
6.59432457e-06
4.518615991e-05
-3.862848313e-05
5.801426815e-06
4.392478362e-05
-3.443561814e-05
5.286539516e-06
4.123734767e-05
-3.026733028e-05
5.434929075e-06
3.644136108e-05
-2.656519328e-05
6.798074715e-06
2.858210503e-05
-2.31024548e-05
9.862313243e-06
1.666860749e-05
-1.857640647e-05
1.468836752e-05
-1.160162001e-05
2.060068389e-05
-3.375378755e-05
-6.658355929e-05
2.438408522e-06
-2.644640667e-05
-6.994533744e-05
-6.992880053e-07
-1.757831851e-05
-7.096971553e-05
-1.916399051e-06
-9.061190713e-06
-7.03886153e-05
-8.963760295e-07
-1.610646322e-06
-7.004750043e-05
1.73029957e-07
3.671215133e-06
-6.640521344e-05
3.777409427e-06
5.548334408e-06
-6.597251357e-05
7.248116931e-06
6.490775883e-06
-6.769453665e-05
8.29927869e-06
9.099465502e-06
-7.016536965e-05
6.674299469e-06
1.313550016e-05
-7.477400172e-05
4.7098106e-06
1.958380197e-05
-7.557580958e-05
1.690634745e-06
2.854229403e-05
-7.642013024e-05
-1.975490673e-06
3.733632301e-05
-7.710957111e-05
-2.158722348e-06
4.449575934e-05
-7.600203587e-05
-1.713345844e-07
4.943205946e-05
-7.288943877e-05
2.546453866e-06
5.269887961e-05
-6.834540535e-05
4.212711989e-06
5.497749789e-05
-6.324045536e-05
4.722682376e-06
5.653888179e-05
-5.829428076e-05
4.845326717e-06
5.722036501e-05
-5.387568545e-05
5.309285766e-06
5.670748769e-05
-5.010712251e-05
6.299293455e-06
5.484172947e-05
-4.703353562e-05
7.53547143e-06
5.175118899e-05
-4.507997255e-05
8.713601729e-06
4.801257998e-05
-4.384712606e-05
9.211658616e-06
4.562064601e-05
-4.503428366e-05
7.985915066e-06
4.565988921e-05
-4.779141824e-05
5.759964388e-06
4.710896119e-05
-4.887744346e-05
4.198420023e-06
4.846787761e-05
-4.701903215e-05
3.731854957e-06
4.875227991e-05
-4.27531063e-05
3.840255112e-06
4.755018957e-05
-3.733885572e-05
4.10535705e-06
4.456157069e-05
-3.204493621e-05
4.766249707e-06
3.912794894e-05
-2.767878228e-05
6.547233592e-06
3.022875692e-05
-2.423888712e-05
1.003564681e-05
1.686952207e-05
-2.050162792e-05
1.52844784e-05
-1.649867011e-05
2.176658665e-05
-3.524942425e-05
-6.79151628e-05
-4.444828781e-06
-2.619802596e-05
-7.10912102e-05
-7.905945401e-06
-1.550830649e-05
-7.252172773e-05
-9.138105159e-06
-5.686489799e-06
-7.276963006e-05
-7.441167263e-06
1.980350545e-06
-7.277539461e-05
-4.939284325e-06
6.558915227e-06
-7.122580532e-05
2.417193053e-07
6.33663379e-06
-7.173572767e-05
5.985213658e-06
4.526845902e-06
-7.358691386e-05
7.701909436e-06
5.701059945e-06
-7.570241145e-05
4.362594086e-06
9.415379391e-06
-7.869919284e-05
2.106506503e-07
1.707766251e-05
-7.871657405e-05
-4.521731793e-06
2.804568264e-05
-7.829757806e-05
-9.090789017e-06
3.865652215e-05
-7.813057247e-05
-9.590055429e-06
4.716660991e-05
-7.697331052e-05
-7.539032629e-06
5.298358432e-05
-7.428309124e-05
-4.423538364e-06
5.652509184e-05
-7.010650522e-05
-1.780616749e-06
5.867650479e-05
-6.509145976e-05
-3.00603557e-07
5.995608977e-05
-6.011070127e-05
5.366644908e-07
6.030711283e-05
-5.575333497e-05
1.526492669e-06
5.930822934e-05
-5.225654983e-05
3.148224584e-06
5.660105481e-05
-4.953413118e-05
5.207706044e-06
5.221724788e-05
-4.798066029e-05
7.284455265e-06
4.750678948e-05
-4.701283652e-05
7.876152003e-06
4.562036811e-05
-4.821690088e-05
5.069043274e-06
4.72277917e-05
-5.060472516e-05
1.205908532e-06
5.047458341e-05
-5.134304266e-05
-7.811529301e-07
5.330314981e-05
-4.930421967e-05
-5.433330434e-07
5.440119605e-05
-4.49242527e-05
1.073144056e-06
5.320288659e-05
-3.921743529e-05
3.07692491e-06
4.9461697e-05
-3.334020778e-05
5.036488211e-06
4.283464749e-05
-2.847200588e-05
7.420294997e-06
3.263029018e-05
-2.499236037e-05
1.095785124e-05
1.804001869e-05
-2.209100397e-05
1.617966845e-05
-2.162201322e-05
2.316337634e-05
-3.692926364e-05
-6.414882032e-05
-1.110315303e-05
-2.625840301e-05
-6.709535533e-05
-1.466712904e-05
-1.399214053e-05
-6.889473555e-05
-1.589364356e-05
-2.971842684e-06
-6.988269394e-05
-1.390758495e-05
4.97346551e-06
-7.049649887e-05
-1.022452354e-05
8.762258745e-06
-7.08034282e-05
-4.2114544e-06
6.792196619e-06
-7.273146015e-05
2.965539001e-06
2.639138309e-06
-7.484482584e-05
5.410741373e-06
2.701897806e-06
-7.632262455e-05
5.572378259e-07
6.588695033e-06
-7.777458253e-05
-4.811615205e-06
1.544041122e-05
-7.708874903e-05
-1.047974867e-05
2.789860398e-05
-7.560722316e-05
-1.514876756e-05
3.991681653e-05
-7.437719587e-05
-1.577181814e-05
4.962875326e-05
-7.27983192e-05
-1.38871718e-05
5.62210679e-05
-7.025366048e-05
-1.062199793e-05
6.002217953e-05
-6.656837549e-05
-7.339492022e-06
6.199588978e-05
-6.209260382e-05
-4.972802707e-06
6.291292934e-05
-5.75668451e-05
-3.461103242e-06
6.283212549e-05
-5.363878706e-05
-2.033898018e-06
6.123722562e-05
-5.064586691e-05
-1.581562709e-08
5.744114814e-05
-4.86209035e-05
2.882779968e-06
5.1323741e-05
-4.769961422e-05
5.836311539e-06
4.556157541e-05
-4.729105057e-05
6.040355164e-06
4.472415958e-05
-4.830018396e-05
9.206982118e-07
4.852224777e-05
-5.010042722e-05
-4.302361539e-06
5.409124307e-05
-5.040197323e-05
-6.510022933e-06
5.886931443e-05
-4.839118519e-05
-5.691056382e-06
6.125282294e-05
-4.445869443e-05
-2.849015662e-06
6.042214187e-05
-3.937775892e-05
9.910494716e-07
5.5932426e-05
-3.386334668e-05
5.01288767e-06
4.786468733e-05
-2.903789524e-05
8.633650747e-06
3.614627236e-05
-2.568688852e-05
1.241296157e-05
2.033344564e-05
-2.369290549e-05
1.741474642e-05
-2.577712684e-05
2.448857304e-05
-3.839060272e-05
-5.602874681e-05
-1.657801131e-05
-2.66663233e-05
-5.865721819e-05
-2.016281249e-05
-1.349995977e-05
-6.069526546e-05
-2.136620259e-05
-1.836083391e-06
-6.228990216e-05
-1.925699754e-05
6.205746196e-06
-6.371511583e-05
-1.482350911e-05
9.272718699e-06
-6.545949198e-05
-8.411165585e-06
6.203800212e-06
-6.8707961e-05
-9.548110072e-07
1.018230773e-06
-7.107445449e-05
1.414998436e-06
9.65844548e-07
-7.228429902e-05
-3.986139895e-06
5.638799361e-06
-7.269105936e-05
-9.756672618e-06
1.545738821e-05
-7.151602795e-05
-1.539151247e-05
2.857951627e-05
-6.911022765e-05
-1.961934802e-05
4.134384714e-05
-6.688357244e-05
-2.025819957e-05
5.183183285e-05
-6.476133979e-05
-1.852523852e-05
5.904897896e-05
-6.218741515e-05
-1.528368628e-05
6.312168357e-05
-5.893341577e-05
-1.170796501e-05
6.494083263e-05
-5.515165929e-05
-8.760382008e-06
6.539035111e-05
-5.138870933e-05
-6.627913415e-06
6.466489054e-05
-4.820361051e-05
-4.709928774e-06
6.215729765e-05
-4.592098605e-05
-2.2174389e-06
5.699341079e-05
-4.459806285e-05
1.140935201e-06
4.863389765e-05
-4.4094945e-05
4.754776775e-06
4.186407222e-05
-4.422855957e-05
3.70730124e-06
4.252308936e-05
-4.497947067e-05
-3.979737404e-06
4.888390076e-05
-4.621269949e-05
-1.024851357e-05
5.698055188e-05
-4.608445248e-05
-1.241412772e-05
6.390381583e-05
-4.42129833e-05
-1.110141643e-05
6.785427394e-05
-4.099512387e-05
-7.413979047e-06
6.775932851e-05
-3.707006198e-05
-2.212703022e-06
6.297934217e-05
-3.283894202e-05
3.755620861e-06
5.358293308e-05
-2.889906631e-05
9.257605837e-06
4.024435223e-05
-2.616482295e-05
1.381653162e-05
2.310950696e-05
-2.508939022e-05
1.85313432e-05
-2.79721316e-05
2.530452174e-05
-3.948861068e-05
-4.440244847e-05
-2.045989823e-05
-2.752114058e-05
-4.654602781e-05
-2.407903478e-05
-1.432434436e-05
-4.868065379e-05
-2.521175389e-05
-2.780227443e-06
-5.082067093e-05
-2.301365548e-05
4.92452229e-06
-5.321632087e-05
-1.820382202e-05
7.232966885e-06
-5.620864508e-05
-1.155951166e-05
4.191599728e-06
-6.110501594e-05
-4.561795367e-06
-3.918178911e-07
-6.320764857e-05
-3.283550899e-06
8.022737879e-07
-6.485314852e-05
-8.625436875e-06
6.703885515e-06
-6.454483152e-05
-1.404802274e-05
1.719868328e-05
-6.30949554e-05
-1.89160735e-05
3.033352891e-05
-5.987248996e-05
-2.237282008e-05
4.318164308e-05
-5.682703118e-05
-2.290492857e-05
5.391943246e-05
-5.420411083e-05
-2.12953338e-05
6.143086358e-05
-5.155069322e-05
-1.814850208e-05
6.566900462e-05
-4.866582345e-05
-1.450609434e-05
6.733612197e-05
-4.559015025e-05
-1.122897478e-05
6.729900678e-05
-4.272826389e-05
-8.623646317e-06
6.582728566e-05
-4.049039495e-05
-6.241761688e-06
6.227945371e-05
-3.903298199e-05
-3.340378416e-06
5.554560291e-05
-3.824361101e-05
3.792552836e-07
4.487894322e-05
-3.76125383e-05
4.184174401e-06
3.756566005e-05
-3.78605557e-05
9.452479261e-07
4.011946113e-05
-3.846760659e-05
-9.065671511e-06
4.869250051e-05
-3.885193941e-05
-1.593376831e-05
5.877618069e-05
-3.822519201e-05
-1.794289122e-05
6.73688807e-05
-3.661548061e-05
-1.619015241e-05
7.263868459e-05
-3.439685641e-05
-1.186802589e-05
7.328729082e-05
-3.198399112e-05
-5.734633723e-06
6.858022098e-05
-2.958666169e-05
1.454828102e-06
5.821015228e-05
-2.726488645e-05
8.735915487e-06
4.34320988e-05
-2.576097167e-05
1.437421518e-05
2.509899843e-05
-2.564444015e-05
1.888815518e-05
-2.808666752e-05
2.521353654e-05
-4.015535266e-05
-3.013255545e-05
-2.253154811e-05
-2.891893129e-05
-3.156860066e-05
-2.621420727e-05
-1.66907119e-05
-3.367794778e-05
-2.723125683e-05
-6.175024304e-06
-3.639159291e-05
-2.494506486e-05
5.828472098e-07
-3.993434499e-05
-2.004013686e-05
2.249460357e-06
-4.448705402e-05
-1.338836892e-05
6.645186404e-07
-5.18528287e-05
-7.667472353e-06
-1.557712268e-06
-5.303225363e-05
-7.953293109e-06
1.905299379e-06
-5.555848212e-05
-1.275789224e-05
9.309926392e-06
-5.451310637e-05
-1.743652895e-05
2.030706778e-05
-5.308523635e-05
-2.100707549e-05
3.311887844e-05
-4.922894239e-05
-2.345561897e-05
4.554432578e-05
-4.554930773e-05
-2.370348424e-05
5.608965136e-05
-4.25345648e-05
-2.221524233e-05
6.3531367e-05
-3.980237344e-05
-1.919045233e-05
6.774632719e-05
-3.725651426e-05
-1.562470131e-05
6.918699952e-05
-3.487456084e-05
-1.215667591e-05
6.864133096e-05
-3.301925514e-05
-9.163715035e-06
6.64295389e-05
-3.195815233e-05
-6.320768849e-06
6.199374099e-05
-3.156191321e-05
-3.035518811e-06
5.415467087e-05
-3.130323638e-05
8.985280008e-07
4.250332365e-05
-3.01799603e-05
4.218694362e-06
3.55986853e-05
-2.988895435e-05
-1.066952612e-06
3.936901039e-05
-2.981381639e-05
-1.242410433e-05
4.891348836e-05
-2.874834283e-05
-1.964803402e-05
5.973714012e-05
-2.735707029e-05
-2.169171876e-05
6.891264402e-05
-2.605091863e-05
-1.974001454e-05
7.460397674e-05
-2.511291772e-05
-1.497522992e-05
7.539727434e-05
-2.461320063e-05
-8.164053572e-06
7.044936723e-05
-2.43832443e-05
-2.554803081e-07
5.933296534e-05
-2.413440618e-05
7.985942362e-06
4.378865205e-05
-2.43155417e-05
1.409888774e-05
2.523351195e-05
-2.530681895e-05
1.821751091e-05
-2.705340372e-05
2.420023836e-05
-4.033989062e-05
-1.412943092e-05
-2.256077649e-05
-3.094540951e-05
-1.457283904e-05
-2.639060026e-05
-2.080151355e-05
-1.653084929e-05
-2.72913278e-05
-1.233810048e-05
-1.991934513e-05
-2.493596986e-05
-7.148360257e-06
-2.493463565e-05
-2.018975707e-05
-6.323541832e-06
-3.142527154e-05
-1.388679142e-05
-3.218756652e-06
-4.398265453e-05
-1.097523517e-05
-2.158454074e-06
-4.192621259e-05
-1.216648405e-05
3.792893521e-06
-4.547791352e-05
-1.603216178e-05
1.258437756e-05
-4.353309419e-05
-1.977167729e-05
2.414158251e-05
-4.290254255e-05
-2.174014139e-05
3.66326618e-05
-3.864423999e-05
-2.307607601e-05
4.836938736e-05
-3.440464922e-05
-2.288174376e-05
5.848213026e-05
-3.10746159e-05
-2.157312278e-05
6.561463549e-05
-2.829421088e-05
-1.864116136e-05
6.969042663e-05
-2.613657955e-05
-1.519623372e-05
7.080067596e-05
-2.454480659e-05
-1.144048198e-05
6.968620274e-05
-2.398296515e-05
-7.92224568e-06
6.682795966e-05
-2.462631949e-05
-4.473952687e-06
6.208455946e-05
-2.599143805e-05
-8.273572556e-07
5.466471423e-05
-2.699857221e-05
3.114996877e-06
4.474753708e-05
-2.596484142e-05
5.702014008e-06
3.924183459e-05
-2.446319339e-05
8.016282982e-08
4.248029832e-05
-2.232309737e-05
-1.072913721e-05
5.093998657e-05
-1.886634e-05
-1.834165383e-05
6.068356849e-05
-1.623326624e-05
-2.086733917e-05
6.885088597e-05
-1.509745646e-05
-1.91207354e-05
7.338469606e-05
-1.543889331e-05
-1.420780042e-05
7.271832072e-05
-1.693687675e-05
-7.009924181e-06
6.637807057e-05
-1.916628338e-05
1.123306783e-06
5.471597353e-05
-2.125214962e-05
8.779845458e-06
3.997142132e-05
-2.326500267e-05
1.369400001e-05
2.319422977e-05
-2.522674811e-05
1.669709436e-05
-2.647585714e-05
2.261665715e-05
-4.011437748e-05
1.792253553e-06
-1.962470046e-05
-3.36512802e-05
2.786309483e-06
-2.382260584e-05
-2.67280646e-05
1.39481793e-06
-2.484922667e-05
-2.159556277e-05
-2.310115705e-06
-2.27420724e-05
-1.902881614e-05
-8.904892932e-06
-1.8596883e-05
-1.862430803e-05
-1.795058182e-05
-1.387947452e-05
-6.091735756e-06
-3.96128761e-05
-1.690278027e-05
-1.602357586e-06
-3.046118525e-05
-1.595465936e-05
5.935768205e-06
-3.476001836e-05
-1.825628458e-05
1.558379001e-05
-3.217349409e-05
-2.100783883e-05
2.810522192e-05
-3.41752077e-05
-2.124905591e-05
4.040253315e-05
-2.926901896e-05
-2.167286676e-05
5.129574037e-05
-2.419939728e-05
-2.109886677e-05
6.081655166e-05
-2.039113081e-05
-2.020478741e-05
6.747522091e-05
-1.766658379e-05
-1.728687652e-05
7.142077881e-05
-1.620363606e-05
-1.387908808e-05
7.20720717e-05
-1.588074403e-05
-9.315890405e-06
7.030380658e-05
-1.749002263e-05
-4.725148341e-06
6.718246736e-05
-2.112588798e-05
-3.794865275e-07
6.318043778e-05
-2.565390618e-05
3.664187699e-06
5.882117892e-05
-2.954234529e-05
6.902817985e-06
5.423980141e-05
-3.039949397e-05
9.015929405e-06
5.126973149e-05
-2.816195413e-05
6.668843636e-06
5.290329203e-05
-2.303817823e-05
-9.184872651e-07
5.826997855e-05
-1.596153681e-05
-8.271499614e-06
6.412244485e-05
-9.926143862e-06
-1.215959127e-05
6.785030579e-05
-7.227391692e-06
-1.159792236e-05
6.788425795e-05
-8.521308026e-06
-6.951526346e-06
6.358819682e-05
-1.272621759e-05
8.541156714e-08
5.50998564e-05
-1.791614471e-05
7.238200397e-06
4.456007022e-05
-2.211937798e-05
1.140699369e-05
3.343288494e-05
-2.49588096e-05
1.282095358e-05
2.036110896e-05
-2.669962646e-05
1.454460606e-05
-2.722605738e-05
2.111126259e-05
-3.944221375e-05
1.504358913e-05
-1.306058505e-05
-3.709385922e-05
1.811786517e-05
-1.768027904e-05
-3.478074696e-05
1.792108236e-05
-1.883972111e-05
-3.41485198e-05
1.440652934e-05
-1.734919481e-05
-3.44022967e-05
7.062427943e-06
-1.571393743e-05
-3.276747399e-05
-3.107972595e-06
-1.647784683e-05
-6.688013972e-06
-2.977424147e-05
-3.591880093e-05
9.473140533e-07
-1.735244853e-05
-2.074463312e-05
7.613135271e-06
-2.187523223e-05
-1.955073457e-05
1.738814276e-05
-2.070169378e-05
-2.124711453e-05
3.148843809e-05
-2.846290703e-05
-1.981292454e-05
4.408252906e-05
-2.236485469e-05
-1.949861636e-05
5.384440431e-05
-1.519411798e-05
-1.876759689e-05
6.211854621e-05
-9.979657481e-06
-1.868616364e-05
6.759082583e-05
-7.438574489e-06
-1.570097534e-05
7.083947747e-05
-7.294238832e-06
-1.215871865e-05
7.055204341e-05
-9.709968744e-06
-5.883916226e-06
6.810837504e-05
-1.532076302e-05
2.739094089e-07
6.540418543e-05
-2.376508627e-05
5.342978088e-06
6.369137028e-05
-3.213720054e-05
8.195784694e-06
6.363156181e-05
-3.918013111e-05
9.697359626e-06
6.489822466e-05
-4.279046102e-05
1.112416265e-05
6.621888752e-05
-4.186016259e-05
1.23774839e-05
6.753417615e-05
-3.666773943e-05
1.231424242e-05
6.936568127e-05
-2.840528651e-05
1.061222639e-05
7.047390044e-05
-1.977709089e-05
8.74271312e-06
6.85463849e-05
-1.408256199e-05
8.782673932e-06
6.231798363e-05
-1.360733449e-05
1.13144172e-05
5.326129567e-05
-1.760165968e-05
1.393210932e-05
4.443886176e-05
-2.268980829e-05
1.359605818e-05
3.736033876e-05
-2.616439239e-05
1.112348265e-05
3.027702585e-05
-2.772675031e-05
9.851189668e-06
1.953941318e-05
-2.829488951e-05
1.233280543e-05
-2.826930629e-05
2.058259151e-05
-3.628022532e-05
2.548852295e-05
-5.189442969e-06
-3.8875303e-05
3.088561277e-05
-1.017307164e-05
-4.147580979e-05
3.24693456e-05
-1.19481478e-05
-4.619651814e-05
3.123417689e-05
-1.210734171e-05
-5.28529683e-05
2.813806009e-05
-1.441975178e-05
-5.171271006e-05
2.243204241e-05
-2.668093997e-05
9.827430112e-07
2.479839085e-05
-0.0001072697036
9.480151032e-06
6.805228463e-06
-3.265624522e-05
8.523276641e-06
-4.098759862e-07
-2.050889803e-05
1.720391019e-05
-8.41591088e-06
-2.096677641e-05
3.403806118e-05
-2.549699703e-05
-1.980038063e-05
4.823305803e-05
-1.931248206e-05
-1.724770372e-05
5.699056075e-05
-8.969801321e-06
-1.498221234e-05
6.21902631e-05
-1.497095159e-06
-1.368270971e-05
6.442456115e-05
1.111686053e-06
-1.078505518e-05
6.465479103e-05
-5.405661195e-07
-6.98440567e-06
6.20471906e-05
-7.410104676e-06
3.072449403e-07
5.941353031e-05
-1.895093501e-05
6.263386994e-06
5.888320377e-05
-3.167714635e-05
8.441999012e-06
6.073588263e-05
-4.225598049e-05
8.265784549e-06
6.479506654e-05
-5.051514578e-05
7.275595091e-06
6.96961917e-05
-5.545080902e-05
7.759066644e-06
7.356277105e-05
-5.622436432e-05
1.049753266e-05
7.564856566e-05
-5.348843928e-05
1.473486254e-05
7.6243328e-05
-4.80784068e-05
1.907834511e-05
7.467932796e-05
-4.086839577e-05
2.265530467e-05
6.951067476e-05
-3.365310416e-05
2.47391903e-05
6.07354802e-05
-2.88926176e-05
2.40604537e-05
5.109925233e-05
-2.763812529e-05
1.967264395e-05
4.354807062e-05
-2.817833137e-05
1.303963558e-05
3.81442334e-05
-2.85658761e-05
7.805241512e-06
3.205138428e-05
-2.846565778e-05
6.831670753e-06
2.107492685e-05
-2.830509277e-05
1.098656851e-05
-2.82319516e-05
2.103747681e-05
-3.053017591e-05
3.486032001e-05
1.375954531e-06
-3.716468941e-05
4.109391124e-05
-3.574208185e-06
-4.244246145e-05
4.379065352e-05
-6.04391499e-06
-4.699828094e-05
4.367015948e-05
-7.880462918e-06
-4.933399136e-05
4.196845575e-05
-1.149488969e-05
-4.376869901e-05
3.899087265e-05
-2.212431491e-05
-1.293399637e-05
4.606631446e-05
-5.210234121e-05
-4.95240224e-06
2.454985184e-05
-2.572657741e-05
-1.927646746e-06
1.490248605e-05
-1.833708498e-05
1.139375907e-05
-4.584238974e-07
-2.127902641e-05
3.490862874e-05
-2.107648964e-05
-2.793553505e-05
5.260120842e-05
-1.627811667e-05
-2.072720011e-05
6.064166494e-05
-4.373243887e-06
-1.263736712e-05
6.187236131e-05
4.762582215e-06
-7.490788388e-06
5.888825915e-05
6.782510468e-06
-2.6871916e-06
5.320277649e-05
1.876190647e-06
3.268240958e-06
4.807714327e-05
-1.079063091e-05
8.505705621e-06
4.697550671e-05
-2.604593412e-05
8.196221347e-06
4.963437381e-05
-3.968958067e-05
5.353209485e-06
5.529264477e-05
-5.001861035e-05
2.104067917e-06
6.356067921e-05
-5.757676886e-05
-1.20663157e-06
7.211215017e-05
-6.251020159e-05
-1.492233374e-06
7.871537877e-05
-6.455336046e-05
1.725663952e-06
8.255416804e-05
-6.468222027e-05
7.354930319e-06
8.38367662e-05
-6.232778326e-05
1.296674428e-05
8.178526555e-05
-5.70475076e-05
1.823059541e-05
7.49780625e-05
-4.937736984e-05
2.253145419e-05
6.42355766e-05
-4.126178851e-05
2.311162388e-05
5.34766242e-05
-3.510177296e-05
1.822253391e-05
4.591566177e-05
-3.133478183e-05
1.07173213e-05
4.090503609e-05
-2.899213046e-05
5.436776911e-06
3.492754814e-05
-2.761190579e-05
5.123626374e-06
2.32768382e-05
-2.690435666e-05
1.024985846e-05
-2.669032545e-05
2.173509233e-05
-2.266202196e-05
4.54812694e-05
6.041561298e-06
-3.212962974e-05
4.936830422e-05
1.192745469e-06
-3.891127927e-05
5.176419776e-05
-1.192312421e-06
-4.319018209e-05
5.160125579e-05
-3.652559821e-06
-4.452878924e-05
4.993850989e-05
-6.631757997e-06
-4.269448355e-05
4.803584646e-05
-1.087953042e-05
-2.851515439e-05
5.069062631e-05
-1.880404791e-05
-2.581977591e-05
3.682196112e-05
-1.496772745e-05
-1.935336058e-05
2.60299406e-05
-1.759402889e-05
1.254313922e-06
9.402706413e-06
-3.046892038e-05
3.383185538e-05
-7.348284265e-06
-4.630580159e-05
5.565762642e-05
-3.088626867e-06
-3.501540693e-05
6.337707025e-05
6.575312014e-06
-1.866826823e-05
5.925832839e-05
1.374758682e-05
-4.866606729e-06
4.764451849e-05
1.287435652e-05
5.521571098e-06
3.578334946e-05
1.739656991e-06
1.199725434e-05
3.132145367e-05
-1.539022221e-05
9.061083092e-06
3.348015286e-05
-2.987442249e-05
1.669432637e-06
3.880628848e-05
-4.181832147e-05
-3.197695126e-06
4.781818871e-05
-5.10992528e-05
-7.931499639e-06
6.025052864e-05
-5.735892531e-05
-1.265036941e-05
7.234016754e-05
-6.166150929e-05
-1.293846819e-05
8.123972256e-05
-6.441713906e-05
-9.035880088e-06
8.660311083e-05
-6.683893127e-05
-3.206749621e-06
8.921234886e-05
-6.675643826e-05
1.819366338e-06
8.846872092e-05
-6.301897514e-05
6.715059044e-06
8.269604239e-05
-5.610800391e-05
1.250327579e-05
7.172661365e-05
-4.715683116e-05
1.686441828e-05
5.958222653e-05
-3.856247442e-05
1.560500369e-05
5.055661173e-05
-3.208391311e-05
9.774631735e-06
4.454075027e-05
-2.788403264e-05
4.907634261e-06
3.789374494e-05
-2.548791062e-05
4.522873492e-06
2.549417114e-05
-2.41089944e-05
9.604070237e-06
-2.316780482e-05
2.19715059e-05
-2.097555454e-05
5.089481723e-05
5.436667336e-06
-2.811167072e-05
5.388430641e-05
2.619578382e-06
-3.477903391e-05
5.654373999e-05
1.887376921e-06
-3.972764947e-05
5.720109536e-05
-6.516070861e-07
-4.23639971e-05
5.631939527e-05
-3.744845568e-06
-4.287830707e-05
5.542422062e-05
-6.874284321e-06
-3.793958207e-05
5.629507469e-05
-1.05433466e-05
-3.743809855e-05
5.026411618e-05
-1.394377125e-05
-2.867624391e-05
4.264051365e-05
-2.53725028e-05
-3.402374492e-06
3.024972573e-05
-4.612089774e-05
3.062713925e-05
2.082856134e-05
-6.220635849e-05
5.349998387e-05
2.42154128e-05
-5.017693409e-05
6.033834144e-05
2.783085565e-05
-2.809407832e-05
5.165892945e-05
2.70110282e-05
-4.584246222e-06
3.290170606e-05
1.897034687e-05
1.266101562e-05
1.941822068e-05
1.87319216e-06
1.334974023e-05
1.758522663e-05
-1.38657862e-05
3.082920539e-07
2.159395584e-05
-2.598024905e-05
-7.903153549e-06
2.777029737e-05
-3.543595904e-05
-1.255891608e-05
3.925220597e-05
-4.34486956e-05
-1.913263017e-05
5.496628351e-05
-4.831165618e-05
-2.47614678e-05
6.946104661e-05
-5.175032435e-05
-2.440603238e-05
7.987769921e-05
-5.500129182e-05
-1.983257479e-05
8.656403557e-05
-5.918881494e-05
-1.433652054e-05
9.080383581e-05
-6.075767136e-05
-1.023862523e-05
9.184720622e-05
-5.790399599e-05
-6.158402778e-06
8.808764257e-05
-5.157026875e-05
-7.782281635e-07
7.82322207e-05
-4.363544003e-05
6.333957853e-06
6.5321111e-05
-3.551345543e-05
9.861981963e-06
5.45967595e-05
-2.875137361e-05
7.391670868e-06
4.727594301e-05
-2.43343174e-05
3.770942503e-06
3.990155786e-05
-2.182049475e-05
3.706802351e-06
2.708782012e-05
-2.005675662e-05
8.761329094e-06
-1.76890998e-05
2.160894342e-05
-1.997250018e-05
5.187744524e-05
4.510069102e-06
-2.425520075e-05
5.446289409e-05
3.703672233e-06
-2.953665813e-05
5.762751925e-05
4.197283833e-06
-3.44874879e-05
5.95703596e-05
2.581217284e-06
-3.744394078e-05
5.968286123e-05
-4.073021791e-07
-3.82551558e-05
5.963622559e-05
-3.401015041e-06
-3.626609593e-05
6.07197892e-05
-6.413948696e-06
-3.465863759e-05
5.972453603e-05
-1.106801737e-05
-2.653825409e-05
5.710695639e-05
-2.258693259e-05
-5.190914481e-06
5.067378623e-05
-4.177146258e-05
2.201235947e-05
4.831031692e-05
-5.468507455e-05
3.822815231e-05
4.802950655e-05
-4.002997205e-05
3.650065814e-05
4.433992162e-05
-1.478170938e-05
2.002758715e-05
3.541661086e-05
8.067348529e-06
4.747283587e-06
2.096517266e-05
1.328531333e-05
2.321479491e-06
4.914431465e-06
-6.155987556e-07
6.083805303e-06
-6.524958078e-06
-1.110332024e-05
1.12629435e-05
-1.464470784e-05
-1.651483266e-05
1.837737358e-05
-2.095804494e-05
-2.159246234e-05
3.195185952e-05
-2.67511109e-05
-3.027214524e-05
4.895787565e-05
-2.955190944e-05
-3.576579813e-05
6.321282029e-05
-3.162504767e-05
-3.438022505e-05
7.275937918e-05
-3.479042571e-05