/*--------------------------------*- C++ -*----------------------------------*\
  =========                 |
  \\      /  F ield         | OpenFOAM: The Open Source CFD Toolbox
   \\    /   O peration     | Website:  https://openfoam.org
    \\  /    A nd           | Version:  8
     \\/     M anipulation  |
\*---------------------------------------------------------------------------*/
FoamFile
{
    version     2.0;
    format      ascii;
    class       volVectorField;
    location    "1";
    object      U;
}
// * * * * * * * * * * * * * * * * * * * * * * * * * * * * * * * * * * * * * //

dimensions      [0 1 -1 0 0 0 0];

internalField   nonuniform List<vector> 
67193
(
(-0.2971594808 -0.121541088 0.1072487453)
(-0.2648942681 -0.1303561561 0.09838534132)
(-0.2195290251 -0.1340208113 0.08888799257)
(-0.167015183 -0.133508705 0.0793696732)
(-0.1042463274 -0.1354175406 0.07125197944)
(-0.04403261405 -0.1282600381 0.06180931384)
(0.0195661862 -0.1295646726 0.07416188195)
(0.06659709127 -0.1299204071 0.08979609882)
(0.1085029115 -0.1289942025 0.1012332681)
(0.1480670095 -0.1298983541 0.1108018309)
(0.1845975017 -0.1248540951 0.1161293016)
(0.2189987605 -0.1223558222 0.1174318005)
(0.2545593096 -0.1167710352 0.1152549317)
(0.2868860452 -0.1077243803 0.1098206046)
(0.3136764236 -0.09901124561 0.1025416124)
(0.3360917575 -0.09234319771 0.09534670221)
(0.3554572165 -0.08700063976 0.08926624479)
(0.371661433 -0.08198787722 0.08437712653)
(0.3837343985 -0.07707745745 0.08056334481)
(0.3908616169 -0.07264038843 0.07805111154)
(0.3925571659 -0.06909106344 0.07750840053)
(0.3885535791 -0.06691237575 0.07990695859)
(0.3784729801 -0.06713721018 0.08527982069)
(0.3642810711 -0.07171857057 0.09145188929)
(0.3521235482 -0.07990360851 0.09552629759)
(0.3466144489 -0.08786939327 0.09704617979)
(0.3459057712 -0.09245241223 0.09807823206)
(0.3441085149 -0.09255320981 0.09925949585)
(0.3368935606 -0.08911830512 0.09957531591)
(0.3226691845 -0.08360271891 0.1003466438)
(0.2979173782 -0.07642260251 0.1053702718)
(0.2586161946 -0.06515121681 0.1154769661)
(0.1762430542 -0.04816269994 0.1196150345)
(0.09189343102 -0.01707345614 0.1271857427)
(-0.2806216961 -0.2380958555 0.07790940393)
(-0.2509212018 -0.2524337391 0.0667316433)
(-0.2069851394 -0.2557873418 0.05616124684)
(-0.1563034425 -0.2499612577 0.04671681207)
(-0.09712165171 -0.2512107324 0.0379217231)
(-0.03695962445 -0.2311790554 0.02758375072)
(0.0176618266 -0.2363646557 0.03619112818)
(0.06451937468 -0.2424846103 0.04969545573)
(0.1016229622 -0.2496483505 0.06219004554)
(0.1414559403 -0.2661839415 0.07576520352)
(0.1777913717 -0.2683272497 0.08512344908)
(0.2152248988 -0.2761221102 0.08902697411)
(0.2562224024 -0.2738865052 0.09337698223)
(0.2932752226 -0.2584790111 0.09617390091)
(0.3233116892 -0.2390155759 0.09407509017)
(0.3477632211 -0.2216215157 0.08810368)
(0.3683294233 -0.2064379013 0.08137843362)
(0.3851945527 -0.1918456712 0.07582646837)
(0.3975021477 -0.1775100105 0.07171609742)
(0.4045196096 -0.1645436967 0.06890345352)
(0.4058978334 -0.1542743242 0.06779460073)
(0.4019014981 -0.1481142124 0.06930200998)
(0.3923626813 -0.1469299425 0.07292082378)
(0.3787584252 -0.1537471462 0.07608346836)
(0.3666974112 -0.1667091507 0.07593465462)
(0.3599420132 -0.1784390168 0.07193040159)
(0.3568288037 -0.1837977894 0.065967294)
(0.3532943591 -0.1822702801 0.06003930164)
(0.345469456 -0.1756293801 0.05534394528)
(0.3299832993 -0.1650928763 0.05448813495)
(0.3014184007 -0.1499022984 0.06154582922)
(0.2560535874 -0.1243102863 0.07939998182)
(0.1694451739 -0.08257164473 0.09612234096)
(0.08488122109 -0.02982817788 0.1136674388)
(-0.2796070047 -0.3809917025 0.06893347772)
(-0.2478167861 -0.4039063175 0.0539761392)
(-0.1996198649 -0.4080397686 0.04409008336)
(-0.1449995756 -0.3969298741 0.04039723566)
(-0.08696074495 -0.396771122 0.03306589126)
(-0.02343530994 -0.3604224244 0.02940498111)
(0.02079780786 -0.3625305904 0.03913674677)
(0.06315004791 -0.3727529279 0.04901090133)
(0.09339954064 -0.3869370971 0.05556310668)
(0.1342150382 -0.4192343678 0.06438031609)
(0.1687603323 -0.4280949113 0.06656751106)
(0.2122531465 -0.445924773 0.05780602691)
(0.2610599652 -0.4496495643 0.06171397768)
(0.3047024415 -0.4312862203 0.07341382667)
(0.3383960124 -0.4021767954 0.08015996923)
(0.3642881153 -0.3729459572 0.07798507527)
(0.3852748766 -0.346379052 0.07161050552)
(0.4021172826 -0.3212062846 0.06644448494)
(0.413831829 -0.2967497873 0.0642584937)
(0.4193896093 -0.2744552522 0.06421215604)
(0.4180909891 -0.2564793067 0.06543120332)
(0.4106493012 -0.2453969352 0.06826368854)
(0.396843863 -0.2412596785 0.07179214547)
(0.379000706 -0.2492731542 0.0724032793)
(0.3656428922 -0.2659998193 0.06757051695)
(0.3604434647 -0.2783382104 0.05874925192)
(0.3594146958 -0.2787471789 0.048325865)
(0.3573647664 -0.2684044184 0.03726202325)
(0.3502760963 -0.2515533686 0.02672497537)
(0.3350102074 -0.2314117131 0.02046960455)
(0.3069662423 -0.2084484215 0.02447681255)
(0.2623231362 -0.1777689804 0.04485053152)
(0.1832388521 -0.1281934395 0.08314132797)
(0.0907222204 -0.05454774857 0.1299155934)
(-0.2858207961 -0.4898681064 0.04241894074)
(-0.2472346065 -0.5198733545 0.0198049402)
(-0.1908820054 -0.5252052318 0.01157481556)
(-0.1273886112 -0.5115397105 0.02013148518)
(-0.07094530163 -0.5088822552 0.01966929815)
(-0.005336152244 -0.4610609081 0.03583564805)
(0.02583886136 -0.4579646241 0.05603431021)
(0.05771757416 -0.4716628752 0.06413066828)
(0.07683931197 -0.4922417993 0.05767332698)
(0.1179971288 -0.5375969662 0.05331941496)
(0.1492853965 -0.5515149743 0.03855809669)
(0.2056783915 -0.5738864245 0.006891713523)
(0.2659443949 -0.5833475954 0.006289837465)
(0.3199959852 -0.5674572437 0.02657796057)
(0.3599949856 -0.5340835714 0.04625861227)
(0.3882391696 -0.4953641882 0.05328903479)
(0.4096577766 -0.4578543367 0.0504035258)
(0.4263903567 -0.422797327 0.04650909573)
(0.4374329305 -0.3898536399 0.04702513035)
(0.4410878217 -0.3599985855 0.05199090726)
(0.4357891282 -0.3352802688 0.05900512591)
(0.4228533951 -0.3194517651 0.066740729)
(0.4016242908 -0.3113106796 0.07206910762)
(0.37737462 -0.3202110513 0.06736236655)
(0.3640125477 -0.3408510104 0.05405155838)
(0.3639908453 -0.3520007577 0.04174229476)
(0.3685641217 -0.3437603051 0.0335730295)
(0.3700831714 -0.3203212602 0.02587244523)
(0.3645468548 -0.2898250146 0.0164120418)
(0.3495958897 -0.2585364023 0.008733376615)
(0.3209221045 -0.228965795 0.01097252498)
(0.2736590956 -0.1981500009 0.03214030066)
(0.188099128 -0.1541167822 0.07729266754)
(0.08893150963 -0.08316546317 0.1387836096)
(-0.2992249449 -0.5744194895 -0.008862506128)
(-0.2491391879 -0.6067102763 -0.03830926494)
(-0.1808387807 -0.6141004733 -0.04505969832)
(-0.1032596158 -0.6049235043 -0.02486399232)
(-0.04549456989 -0.6007371637 -0.0136011726)
(0.02003525348 -0.5571969005 0.02799946224)
(0.0394449464 -0.5510105394 0.06805862919)
(0.05101248693 -0.5660169032 0.0795866234)
(0.05433500743 -0.58886208 0.05481562816)
(0.09261995946 -0.6353162498 0.03133370963)
(0.1208542544 -0.6475833253 -0.00555701844)
(0.1958776622 -0.6620792508 -0.05682880739)
(0.2697857942 -0.671212519 -0.06117712984)
(0.3372435783 -0.6605306745 -0.03676180546)
(0.3861236388 -0.629237726 -0.005923958237)
(0.4175786072 -0.5866967009 0.01376219023)
(0.4388488276 -0.5416439552 0.01889662418)
(0.4545622642 -0.4991252677 0.01820519408)
(0.464397418 -0.4607274075 0.02117231012)
(0.4659773698 -0.4271220956 0.03105078032)
(0.4559880138 -0.3992140653 0.04542502393)
(0.4362305358 -0.381034852 0.06146100848)
(0.4049197476 -0.3698275718 0.07017675582)
(0.3748249981 -0.3798246984 0.05399210167)
(0.3659097287 -0.40426804 0.02488020507)
(0.3760496892 -0.4147354268 0.007581849126)
(0.3903225398 -0.399260903 0.00702650211)
(0.3980470903 -0.3637243528 0.01276007093)
(0.3945269063 -0.3197922243 0.01470683662)
(0.3782782545 -0.2773170173 0.01238491852)
(0.3459047006 -0.2415523662 0.01502300649)
(0.2923224214 -0.2111349588 0.03499709052)
(0.1965955736 -0.1743281675 0.08079447019)
(0.0838364162 -0.1226591668 0.147355533)
(-0.3174581396 -0.6098833145 -0.06914489546)
(-0.2534511566 -0.6376948671 -0.09927482252)
(-0.1718210502 -0.6484481937 -0.1059784922)
(-0.07945064116 -0.6478271095 -0.08146722769)
(-0.01459084627 -0.6462298646 -0.05744616198)
(0.04764379963 -0.6238446316 5.696069499e-05)
(0.05959304292 -0.6217529193 0.06230387547)
(0.04361437451 -0.6371435915 0.08271574987)
(0.02957991178 -0.6581814021 0.03995422419)
(0.06156525941 -0.6940761174 -0.002424458857)
(0.0921124229 -0.6967938374 -0.05676125569)
(0.1854110275 -0.6965077887 -0.1137761002)
(0.2729800895 -0.6990333582 -0.1186501091)
(0.35348332 -0.6906188829 -0.09553020293)
(0.4126954921 -0.6665748404 -0.06112001632)
(0.4490190642 -0.6279587887 -0.03196817234)
(0.4700141296 -0.5818163349 -0.01712820099)
(0.4834409522 -0.5362953449 -0.01239700183)
(0.490884347 -0.49614369 -0.006927829836)
(0.4897983215 -0.4628034066 0.006585691933)
(0.4745391494 -0.4361755033 0.02786103781)
(0.4467618622 -0.4198101066 0.053648488)
(0.4018949454 -0.4090203028 0.06462594376)
(0.3691813428 -0.4200986247 0.02831463372)
(0.3712232156 -0.4452263246 -0.02236195713)
(0.3964897639 -0.4541667607 -0.0469880665)
(0.4247277152 -0.4357360595 -0.04115483659)
(0.4423574728 -0.3943123752 -0.01809345779)
(0.4421667398 -0.3417881125 0.005479548789)
(0.42231221 -0.2905829274 0.01928044153)
(0.3813448864 -0.249162399 0.02776626378)
(0.3174966011 -0.2186554944 0.04573643617)
(0.209845179 -0.1893420081 0.08810927197)
(0.09019648727 -0.1701662577 0.157345314)
(-0.3365122648 -0.5945078855 -0.1204875019)
(-0.2601519781 -0.6212573449 -0.1484793834)
(-0.1659657378 -0.6357696744 -0.1559165906)
(-0.06242377165 -0.6420103921 -0.1316352958)
(0.01297167916 -0.6447962003 -0.09653023907)
(0.06793837138 -0.641892157 -0.03584457668)
(0.07639869481 -0.6527918601 0.04221889645)
(0.0344587637 -0.669660932 0.07055703183)
(0.007747339476 -0.6860087073 0.0140015756)
(0.03477932419 -0.7039611396 -0.04085677452)
(0.07406054578 -0.6990829176 -0.1014875988)
(0.1787404938 -0.6895277967 -0.1546553667)
(0.2775582261 -0.6831944311 -0.1590287697)
(0.3685184483 -0.6716256516 -0.138706694)
(0.4363521317 -0.6492650241 -0.1054965762)
(0.4775555844 -0.6149428153 -0.07256042006)
(0.4985678439 -0.572706654 -0.05049937901)
(0.5090659226 -0.5300210184 -0.03953383034)
(0.5130967504 -0.4929255465 -0.03074717067)
(0.5087843472 -0.4640564085 -0.01441757674)
(0.4870150094 -0.4426126134 0.01263801758)
(0.4488314919 -0.4316235944 0.04787620327)
(0.384788627 -0.4253283257 0.05537983397)
(0.353825364 -0.4364789371 -0.009207614685)
(0.3730379947 -0.4547809168 -0.07741544594)
(0.4167144172 -0.4589734597 -0.1069489332)
(0.4621487034 -0.4410513862 -0.100900469)
(0.4941877438 -0.403951847 -0.07021173566)
(0.5022523023 -0.3538354318 -0.02666090871)
(0.4800847609 -0.3004843708 0.01313990726)
(0.4288611847 -0.2556903834 0.03989422462)
(0.352298194 -0.2245793002 0.06259345187)
(0.2310083846 -0.2027692332 0.100855787)
(0.1073695387 -0.2133186723 0.1671857899)
(-0.3523325239 -0.5391831901 -0.1586341718)
(-0.2674298189 -0.5639416549 -0.185183884)
(-0.1651471014 -0.5811199259 -0.1930332441)
(-0.0561966769 -0.5928247918 -0.1698281158)
(0.02547620862 -0.6019379854 -0.1274015166)
(0.07392428803 -0.6122739853 -0.06500495976)
(0.07934358306 -0.6368202135 0.01825744391)
(0.02158943474 -0.6564874966 0.04557290276)
(-0.00561890476 -0.6670515296 -0.01898303441)
(0.02066422124 -0.6730458398 -0.07617222253)
(0.07286986663 -0.6640008945 -0.1336830771)
(0.1808975086 -0.6464154206 -0.1790256484)
(0.2861885723 -0.6309015684 -0.1835740431)
(0.3830258462 -0.6146002675 -0.166101836)
(0.4567997016 -0.5922834027 -0.1353405747)
(0.5023342226 -0.5619417513 -0.1018209016)
(0.5240597001 -0.5255018607 -0.07571240097)
(0.5315943087 -0.4885584219 -0.05973972435)
(0.5306976777 -0.4566673412 -0.04725694907)
(0.5204872133 -0.4332143999 -0.02800769573)
(0.4908426299 -0.4188216363 0.00421459762)
(0.4388827172 -0.4133235949 0.04703455743)
(0.3495826203 -0.4129590154 0.0414554528)
(0.3280351034 -0.4204252829 -0.05353024488)
(0.3663372368 -0.4334606619 -0.1294373053)
(0.4300305087 -0.4341946983 -0.1581139996)
(0.4942598295 -0.417180467 -0.1535497052)
(0.5414953083 -0.3857707462 -0.1258067172)
(0.5615463542 -0.3460656225 -0.07772133167)
(0.5419658207 -0.3009570654 -0.01648218095)
(0.482408017 -0.2597809462 0.03769411583)
(0.3922629627 -0.2309996571 0.07607785862)
(0.2564898167 -0.2170671734 0.113261995)
(0.1282750882 -0.2423091001 0.172859628)
(-0.3623026982 -0.4498554153 -0.1843697098)
(-0.2750004594 -0.4712125041 -0.2105621596)
(-0.171238398 -0.4898701432 -0.2179403819)
(-0.06381223123 -0.50645846 -0.1950633627)
(0.01763108625 -0.5233597478 -0.1486415652)
(0.06037142167 -0.5445955068 -0.08269127406)
(0.06101267459 -0.5804661804 -0.003450234351)
(0.004389781876 -0.6010187539 0.0109346612)
(-0.01044736481 -0.6120781501 -0.05334837602)
(0.02291135305 -0.6116149978 -0.1057579736)
(0.08817873091 -0.5996050853 -0.1530167207)
(0.1941900417 -0.5745834237 -0.1886279824)
(0.3007575887 -0.5510697465 -0.1932223302)
(0.3986673891 -0.5299547427 -0.1782821595)
(0.474717581 -0.5068753944 -0.1502442316)
(0.522602639 -0.479881085 -0.118022195)
(0.5448226421 -0.4496722937 -0.09055833338)
(0.5496747538 -0.4202769421 -0.07131052934)
(0.5435537163 -0.3959930859 -0.05516516767)
(0.5262215426 -0.379195546 -0.03237338071)
(0.4875287436 -0.3701669292 0.004358214736)
(0.4194839794 -0.3662326251 0.05081991489)
(0.3064737789 -0.3692139562 0.02260849993)
(0.3010773972 -0.3747568562 -0.09814210615)
(0.3564701961 -0.3823184201 -0.1735513225)
(0.4367068713 -0.3792869941 -0.1979645062)
(0.515634126 -0.3639167867 -0.1926710757)
(0.5748782546 -0.3398212983 -0.168828406)
(0.6037696727 -0.3120261504 -0.1259359061)
(0.5909254907 -0.2827349934 -0.05917868004)
(0.5262746923 -0.2536477989 0.01770649259)
(0.4241877587 -0.2330481349 0.07673362999)
(0.2755042311 -0.2269174575 0.1171040544)
(0.1425392233 -0.2514685889 0.1705532338)
(-0.3650297521 -0.3337274879 -0.1978260298)
(-0.2830103176 -0.3498671034 -0.22452355)
(-0.1857533891 -0.3687022305 -0.2305484763)
(-0.08790976862 -0.3899658526 -0.2069347007)
(-0.01321358195 -0.416007951 -0.158751718)
(0.02084488456 -0.4492338884 -0.08836668492)
(0.02054622602 -0.5019373337 -0.02145330911)
(-0.01247965297 -0.5172227473 -0.02860174722)
(-0.009897156153 -0.5353998311 -0.08520744156)
(0.03909525779 -0.5291091831 -0.1294828852)
(0.1149135334 -0.5158380802 -0.1612074487)
(0.217821465 -0.4846504516 -0.1852146527)
(0.3215600757 -0.4548228031 -0.1880841211)
(0.4168213 -0.4297191288 -0.1750709567)
(0.491804592 -0.4057677929 -0.1497352577)
(0.5395651945 -0.3816798375 -0.119956324)
(0.5611560449 -0.3574837139 -0.09287409171)
(0.5631103435 -0.3364009956 -0.07162081166)
(0.5518302991 -0.3212848092 -0.05179709839)
(0.5278452304 -0.312298124 -0.02508507346)
(0.4819993592 -0.3070652806 0.01427448121)
(0.4020750405 -0.2999763923 0.0579627073)
(0.2846023515 -0.3008041442 0.006659315342)
(0.2918114431 -0.3042855781 -0.1258246468)
(0.3547116807 -0.3022934093 -0.2002495269)
(0.4414564273 -0.2942872778 -0.2233564183)
(0.5257092814 -0.2818560601 -0.2173414332)
(0.5890127046 -0.2676467904 -0.1942227795)
(0.6200605356 -0.254683129 -0.1545657509)
(0.6094536834 -0.2430290119 -0.08914947643)
(0.5396499493 -0.2306038556 -0.001431199351)
(0.4294681954 -0.2234866366 0.06951204694)
(0.2755803308 -0.2268502402 0.1104422191)
(0.1447453086 -0.2454410498 0.1604610597)
(-0.359492572 -0.2011929917 -0.1968488408)
(-0.291647942 -0.2098861951 -0.2254235042)
(-0.209979437 -0.2270962227 -0.2296792877)
(-0.1304229793 -0.2526325355 -0.2043005309)
(-0.07042906745 -0.2895001096 -0.1553919588)
(-0.05238677187 -0.3368704211 -0.08298092335)
(-0.03882678822 -0.4226013984 -0.04551596549)
(-0.02306164437 -0.4208322021 -0.06712785772)
(-0.00593922169 -0.4481497337 -0.1122687421)
(0.0627682779 -0.4347048386 -0.1466507372)
(0.1459164408 -0.4243720195 -0.1599447236)
(0.2483184391 -0.3884046615 -0.1712616888)
(0.3473478847 -0.3532906337 -0.1700296271)
(0.4378329468 -0.3250099859 -0.1580977598)
(0.5097777975 -0.3003844942 -0.1349921674)
(0.5558351742 -0.2793834816 -0.1078449602)
(0.5758636234 -0.2615859124 -0.08089917619)
(0.5742479087 -0.2503274968 -0.05665875993)
(0.5578326311 -0.2470194823 -0.03137466117)
(0.5290087169 -0.2485058771 -0.0002614824388)
(0.4825352392 -0.2486138681 0.03793290995)
(0.4084979725 -0.2364599451 0.07334215877)
(0.3153008628 -0.230752698 0.02013822634)
(0.3210162968 -0.2259696346 -0.1046305522)
(0.3758571801 -0.2072722491 -0.1863753781)
(0.4533851558 -0.1887013741 -0.2178863573)
(0.5291355007 -0.1769994623 -0.216178678)
(0.5840564598 -0.1754579773 -0.1930226193)
(0.605462966 -0.182478568 -0.1495147829)
(0.5814606134 -0.1901131198 -0.07805343131)
(0.5015715191 -0.1966530247 0.00929758472)
(0.3921757896 -0.2065440442 0.06976622532)
(0.2506444595 -0.2215780698 0.09809829277)
(0.1358743616 -0.2359908219 0.1465946506)
(-0.346309641 -0.05278609959 -0.1671892009)
(-0.3014457929 -0.05209986345 -0.2010266511)
(-0.2445946483 -0.06968481233 -0.2062794346)
(-0.1926569111 -0.1037092997 -0.1817503124)
(-0.1556598891 -0.1534999279 -0.1344946747)
(-0.1700807867 -0.215580992 -0.07512350359)
(-0.1014929159 -0.3592839862 -0.09131383271)
(-0.01785527175 -0.3203772398 -0.1017352618)
(-1.848999666e-07 -0.3560719264 -0.1322144609)
(0.08684577474 -0.3352083952 -0.1561989864)
(0.1740903618 -0.3376096338 -0.1501976954)
(0.2813517882 -0.2976859307 -0.1517584191)
(0.3751395289 -0.257198742 -0.1470177286)
(0.4590328113 -0.2258531356 -0.1368823986)
(0.5265029118 -0.201124505 -0.1154960289)
(0.5702326376 -0.1844122546 -0.08941897785)
(0.5886219153 -0.1749459615 -0.05789187903)
(0.5825876317 -0.1768865503 -0.0240982023)
(0.5613513133 -0.1909334161 0.01175285389)
(0.5306986433 -0.2126049324 0.04514629911)
(0.4973028767 -0.2297997023 0.07424578241)
(0.4605974981 -0.2224445383 0.09913065858)
(0.4198923973 -0.2007166487 0.08223989676)
(0.4153817417 -0.1697075457 0.002188246183)
(0.4482549056 -0.1312143674 -0.08884605558)
(0.4973817263 -0.1050571098 -0.1478612349)
(0.5398109394 -0.09743673522 -0.1649135649)
(0.5595745311 -0.1042568155 -0.1406387648)
(0.5478799223 -0.1203499892 -0.07988136086)
(0.4901188763 -0.1474246716 0.001371830997)
(0.4054382329 -0.1779923435 0.05780938588)
(0.3218281502 -0.2064690317 0.0739679884)
(0.2149865565 -0.2279854584 0.08192052947)
(0.1247380751 -0.2369708777 0.1352153618)
(-0.3262841793 0.08327241081 -0.09568595388)
(-0.3120233359 0.100095431 -0.1365250067)
(-0.29039257 0.09349434842 -0.1416141027)
(-0.2774637499 0.06150964678 -0.1196749617)
(-0.2696008475 -0.009936232961 -0.09643166114)
(-0.3231651142 -0.1129177435 -0.09182859389)
(-0.151872567 -0.3820299631 -0.1944895835)
(0.01504693989 -0.2226616271 -0.1344376567)
(0.006951334548 -0.2587685875 -0.1433837061)
(0.1026177097 -0.2338890313 -0.1567548264)
(0.1928028954 -0.2681293556 -0.1332709208)
(0.3143575534 -0.2218287246 -0.1282150061)
(0.4022555124 -0.1711901003 -0.1243870444)
(0.4746236951 -0.1330109632 -0.1203105765)
(0.53174029 -0.1098689567 -0.1015574104)
(0.5683380244 -0.1018146961 -0.07338805847)
(0.5817257407 -0.1070265551 -0.02735117845)
(0.5673951418 -0.1316419683 0.02508635613)
(0.5407416452 -0.1809671221 0.06648981912)
(0.5204727743 -0.2395178644 0.08693979489)
(0.5137810326 -0.2916370511 0.09182503325)
(0.5217397671 -0.3143186024 0.09972283669)
(0.5344582401 -0.2964735775 0.1157991968)
(0.5440193497 -0.2370007981 0.1228587469)
(0.5551451262 -0.1491464233 0.103664803)
(0.5697646023 -0.06803918129 0.0670810724)
(0.5728566791 -0.02744250061 0.04435396922)
(0.542501526 -0.04302847158 0.05938448927)
(0.4739216596 -0.1017631919 0.09093266701)
(0.3930801284 -0.1690130628 0.09513738176)
(0.3276403255 -0.2155511208 0.07044730447)
(0.2825794441 -0.2379235157 0.04980601731)
(0.203164228 -0.2470666619 0.06258219245)
(0.1231540582 -0.2474641355 0.1326975706)
(-0.284540956 0.1866555279 -0.02011727944)
(-0.3077909544 0.2227675165 -0.06791426048)
(-0.3257804335 0.227540848 -0.07997772356)
(-0.354152266 0.2036886641 -0.07439622683)
(-0.3789788927 0.1499540286 -0.0843157362)
(-0.5503929803 0.06832065027 -0.1412475905)
(-0.170513761 -0.06618564195 -0.5337826092)
(0.1680612509 -0.06016354063 -0.181849169)
(0.01877960689 -0.1025519103 -0.1455431276)
(0.1004712732 -0.1275688249 -0.1489080334)
(0.1977237566 -0.2329109649 -0.1401338735)
(0.3480254859 -0.175404899 -0.1085914766)
(0.436010951 -0.1000262218 -0.09222942779)
(0.4890954917 -0.04808911945 -0.08701530255)
(0.5194594153 -0.02621887455 -0.07025590434)
(0.5329435706 -0.030791457 -0.0354609209)
(0.5212417212 -0.06459177067 0.02790647335)
(0.4893036388 -0.1376518793 0.0785730453)
(0.4742931898 -0.2380328562 0.09070550062)
(0.4795160188 -0.3296918256 0.07636722367)
(0.5060746969 -0.4038442005 0.04756640201)
(0.5470446216 -0.4458123705 0.03612779248)
(0.5867965908 -0.4462596083 0.05667274986)
(0.6110926225 -0.4110298981 0.09985101837)
(0.620879666 -0.3499773254 0.1446370282)
(0.6184708667 -0.2771989239 0.1806043729)
(0.5941566997 -0.2174331216 0.2022013455)
(0.5357730404 -0.1944903598 0.1983188303)
(0.4525695694 -0.2083737784 0.1567596653)
(0.3779141835 -0.2334887803 0.08952146782)
(0.3281161174 -0.2487230685 0.03451982769)
(0.2950880591 -0.2533741117 0.01745577121)
(0.2191097973 -0.254005402 0.04799776365)
(0.1328769121 -0.2527754071 0.1371377262)
(-0.217833374 0.2670405395 0.04054407419)
(-0.2796259471 0.3256782142 -0.008076646499)
(-0.3256708479 0.3446036085 -0.02982690428)
(-0.3654477182 0.3388616509 -0.04225097858)
(-0.3877407778 0.3226483329 -0.06914927655)
(-0.4462829106 0.2988836508 -0.1281101943)
(-0.2172508128 0.4272771763 -0.293577751)
(-0.01896107654 0.1637863969 -0.144495706)
(-0.04933132548 0.09036165268 -0.1131714032)
(0.01176511062 -0.02826625574 -0.1388331702)
(0.1847672335 -0.226651871 -0.2550038975)
(0.3730261853 -0.1710056956 -0.162489454)
(0.4752492013 -0.05955240226 -0.07657793825)
(0.5080444929 0.02056360446 -0.033644538)
(0.5003059833 0.044832762 0.0001904239801)
(0.4650933395 0.02025898574 0.05078641627)
(0.4052111775 -0.06637752504 0.1004832092)
(0.3731590729 -0.1981357366 0.08992464176)
(0.3869442452 -0.3276846862 0.05400362443)
(0.4171546505 -0.4257416962 0.01194685194)
(0.4796173542 -0.4998421431 -0.04597200794)
(0.5530188171 -0.5461820923 -0.07266019295)
(0.6193001998 -0.5588831837 -0.05463432466)
(0.6615840863 -0.544972279 -0.005814069335)
(0.6818412113 -0.5099679426 0.04327664976)
(0.681803247 -0.4544086085 0.09433653289)
(0.6486256782 -0.3849893943 0.1490191006)
(0.5715721441 -0.3218648255 0.1739938737)
(0.4728722769 -0.2841796129 0.1368466498)
(0.395116634 -0.267332795 0.06224695631)
(0.348919667 -0.2574168506 0.004827439598)
(0.3189502096 -0.2506260043 -0.007879231876)
(0.2412927963 -0.2470851493 0.03375885757)
(0.1475403286 -0.2465040138 0.1402714677)
(-0.1445504331 0.3585339402 0.08176125227)
(-0.2281363965 0.4072523351 0.03591264027)
(-0.2942381357 0.4311842358 0.01118640157)
(-0.3392175225 0.4298087468 -0.01198093662)
(-0.360848152 0.4173720374 -0.04066475772)
(-0.37870147 0.3995129117 -0.07158323204)
(-0.2827006519 0.4444632122 -0.1166290195)
(-0.2085457227 0.2767909618 -0.08871544768)
(-0.192244654 0.1786942565 -0.1128045649)
(-0.1361163933 0.01994958663 -0.2416802895)
(0.1599683225 -0.1523524215 -0.4800939536)
(0.3785824368 -0.1210689574 -0.3450969912)
(0.5112702909 -0.0195151261 -0.1784046502)
(0.5237818807 0.06223917848 -0.04140337463)
(0.4497451193 0.07449093816 0.05966352137)
(0.3323389054 0.01360172091 0.1335617252)
(0.2516391395 -0.1255393949 0.1017880892)
(0.2519369431 -0.2685432385 0.02470502174)
(0.2916160685 -0.3822422144 -0.01794044327)
(0.338465267 -0.4677627866 -0.07374957193)
(0.4384005404 -0.5278097304 -0.1499728672)
(0.5416477306 -0.5690827932 -0.178205088)
(0.6311269844 -0.5936119439 -0.160184977)
(0.6886113928 -0.6098462017 -0.1205744619)
(0.7198840087 -0.6012205639 -0.09657080201)
(0.7310263155 -0.5607688672 -0.06791438399)
(0.7098910422 -0.4927902189 0.001207640207)
(0.6373494798 -0.4117969804 0.0820482116)
(0.5294189487 -0.3396471654 0.1016177115)
(0.4373899199 -0.2887408182 0.05048093994)
(0.3812601179 -0.2565050988 -0.007581740327)
(0.3453987737 -0.2382180028 -0.02597960465)
(0.2623461173 -0.2286596398 0.01668040353)
(0.163660478 -0.2246903709 0.1361644356)
(-0.1417904834 0.4388332295 0.07304253156)
(-0.2001516472 0.4646363543 0.04916227265)
(-0.2591166816 0.4864605051 0.0357152769)
(-0.3088079732 0.488175659 0.01083871974)
(-0.3390775921 0.4748323721 -0.02132494688)
(-0.3552510806 0.4594646392 -0.04830855297)
(-0.324786306 0.4657392778 -0.07437903393)
(-0.3090376865 0.3818282935 -0.1057586986)
(-0.2896283774 0.2915176204 -0.2257891042)
(-0.1826776557 0.1549842639 -0.4466417004)
(0.133502993 0.03155074527 -0.664862663)
(0.3519420446 0.07190707981 -0.5420944568)
(0.4957457397 0.1367684217 -0.3414197091)
(0.4966649845 0.1776216599 -0.1029399655)
(0.3586347414 0.157327265 0.1065259527)
(0.1787009196 0.01854916886 0.1488927769)
(0.1311317612 -0.1480076907 0.01754429636)
(0.1537644673 -0.2641826763 -0.05639976686)
(0.1979605964 -0.3585673387 -0.08491110577)
(0.2556312359 -0.4363715462 -0.1640008697)
(0.3862171584 -0.4862641242 -0.2489577466)
(0.5099400661 -0.521283959 -0.2658368399)
(0.6139712032 -0.54898023 -0.23915557)
(0.6804569059 -0.5800571538 -0.2112892105)
(0.7245481106 -0.590362273 -0.2242797838)
(0.7498033904 -0.5645816417 -0.2424340824)
(0.7473756234 -0.5066433554 -0.1961578154)
(0.6906054803 -0.4263836436 -0.07127509676)
(0.5830972548 -0.3463479992 0.03010852107)
(0.4766512448 -0.2821657234 0.03325293316)
(0.4069540018 -0.2394131018 -0.01234664278)
(0.3637734716 -0.2144450183 -0.03643898195)
(0.276005272 -0.1985795278 0.001412565333)
(0.1768059159 -0.1844768859 0.1266428129)
(-0.147572777 0.4644532038 0.0549626013)
(-0.1770725869 0.4876595799 0.04989517274)
(-0.218359759 0.5133998202 0.04987983891)
(-0.2640627776 0.5243426963 0.03151643224)
(-0.2985446929 0.5216631476 0.001131986355)
(-0.3120676556 0.5174906564 -0.02677621679)
(-0.302866162 0.5266856382 -0.04926605536)
(-0.2950121277 0.4994171893 -0.08619408189)
(-0.266334242 0.4534712897 -0.1944044499)
(-0.1628309874 0.3684715776 -0.3856062524)
(0.08487499562 0.3254573022 -0.5579496401)
(0.260294503 0.343290962 -0.4084627578)
(0.3483695705 0.34962061 -0.1769019833)
(0.2571243777 0.3089175856 0.05761174059)
(0.07521278458 0.1826496681 0.1464577758)
(0.0003097297943 0.01478669171 0.01017284696)
(0.03473988478 -0.1018657999 -0.08664659831)
(0.06745094229 -0.1900124566 -0.1171517502)
(0.1130712165 -0.2603695862 -0.1508968462)
(0.189305565 -0.3219111172 -0.2599326144)
(0.3357980176 -0.3555217566 -0.3386636071)
(0.462481578 -0.3796857966 -0.3386129563)
(0.5591648642 -0.4093735996 -0.3027010549)
(0.6197720885 -0.4562509548 -0.2906972817)
(0.6796327888 -0.4805571607 -0.3259540619)
(0.7254650016 -0.4618152549 -0.3628458937)
(0.7374936747 -0.4100655466 -0.3521732908)
(0.7063989522 -0.3456788052 -0.2398431068)
(0.6170607396 -0.2786754122 -0.07985206664)
(0.5053587479 -0.2238394759 -0.004394219601)
(0.4221430679 -0.1902748804 -0.01725510977)
(0.3710304543 -0.1728602084 -0.03729871735)
(0.2805620384 -0.1577915933 -0.00305720272)
(0.1841843554 -0.1279348763 0.1190385791)
(-0.1499617718 0.4555608054 0.04040469761)
(-0.157352565 0.4765518498 0.04512842289)
(-0.1763024531 0.5071196295 0.05581339461)
(-0.2122684585 0.5309752976 0.04932158026)
(-0.24792438 0.5365978907 0.02587580543)
(-0.2625524466 0.540941269 -0.0008766414668)
(-0.2566982804 0.5537226341 -0.02090842759)
(-0.2433382449 0.5590981192 -0.04417611751)
(-0.2137510632 0.5544251387 -0.1076352458)
(-0.1435555204 0.5185224615 -0.2355375632)
(0.02064494408 0.5159642176 -0.3580304661)
(0.1508857096 0.5041954813 -0.1837210364)
(0.1515617054 0.4447945627 0.02981606598)
(0.005048255846 0.3245543221 0.122086538)
(-0.07796611941 0.1841936365 0.02698038742)
(-0.05260425821 0.06920209657 -0.09603441936)
(-0.01068761471 -0.01104607166 -0.1446239372)
(0.02956950067 -0.06913349644 -0.1685799876)
(0.06720704163 -0.1110185172 -0.2316058428)
(0.1713414404 -0.147985972 -0.3513554647)
(0.313557364 -0.1638605038 -0.4140555318)
(0.4199961605 -0.1780101555 -0.4060392536)
(0.4690190561 -0.2013692532 -0.3739995768)
(0.5024887235 -0.2374654639 -0.3936145635)
(0.585770392 -0.2635111794 -0.4431942028)
(0.6671882969 -0.2624751253 -0.4531541472)
(0.7026906114 -0.2405992682 -0.4288592413)
(0.6796403243 -0.2034253953 -0.3331639041)
(0.6030466089 -0.1603257165 -0.1684330443)
(0.4961522599 -0.1261182808 -0.04972787829)
(0.4084549887 -0.1164113506 -0.0264315061)
(0.3523341235 -0.1230685967 -0.02733542848)
(0.2631364568 -0.1204906737 0.01432301012)
(0.1745269947 -0.06860569261 0.124544114)
(-0.1537249862 0.4270169278 0.02689763717)
(-0.1466509084 0.4398618515 0.02939461021)
(-0.1420037636 0.4702490242 0.04529151837)
(-0.1630472045 0.5083344626 0.06130522745)
(-0.1995228405 0.5182107059 0.04998540078)
(-0.2157402264 0.522961903 0.02806852157)
(-0.2129276243 0.5353244142 0.01121624689)
(-0.196311094 0.55354229 -0.0009825879561)
(-0.1689754994 0.5739137842 -0.02503808095)
(-0.1372645181 0.5718807444 -0.08769166575)
(-0.04872699328 0.593727793 -0.150418466)
(0.01835543977 0.5239876261 0.01040334911)
(-0.04279668746 0.4300186989 0.1096121073)
(-0.1255580407 0.3226102996 0.05152553323)
(-0.1170782928 0.2233161753 -0.05851056002)
(-0.06378186843 0.1596674806 -0.1338568909)
(-0.01008300223 0.1376220554 -0.1677879516)
(0.05354575553 0.1379183812 -0.1876398011)
(0.09408450969 0.1299323342 -0.2633801965)
(0.2193425503 0.1104064259 -0.3561748994)
(0.3261187158 0.1401929017 -0.3714966534)
(0.4156784696 0.1982275412 -0.3138951482)
(0.3716176799 0.2191804867 -0.2822580641)
(0.4060797466 0.1267768609 -0.4332316923)
(0.5051725852 0.06116332484 -0.5094098931)
(0.6088343875 0.02358159185 -0.4702479452)
(0.6649266058 0.006754194116 -0.360172312)
(0.6473657855 0.02360110941 -0.2023349428)
(0.5508605418 0.03209339895 -0.05406715041)
(0.4387897023 0.002297158196 0.0001906724023)
(0.3524085681 -0.04789958508 -0.001533892151)
(0.2835331353 -0.09776845382 0.02034548642)