/*--------------------------------*- C++ -*----------------------------------*\
  =========                 |
  \\      /  F ield         | OpenFOAM: The Open Source CFD Toolbox
   \\    /   O peration     | Website:  https://openfoam.org
    \\  /    A nd           | Version:  8
     \\/     M anipulation  |
\*---------------------------------------------------------------------------*/
FoamFile
{
    version     2.0;
    format      ascii;
    class       volScalarField;
    location    "0.1";
    object      alphat;
}
// * * * * * * * * * * * * * * * * * * * * * * * * * * * * * * * * * * * * * //

dimensions      [1 -1 -1 0 0 0 0];

internalField   nonuniform List<scalar> 
67193
(
7.649754351e-07
7.64975196e-07
7.649752009e-07
7.649752054e-07
7.649752074e-07
7.649752068e-07
7.649752036e-07
7.649751979e-07
7.6497519e-07
7.649751798e-07
7.649751675e-07
7.649751534e-07
7.649751376e-07
7.649751203e-07
7.649751018e-07
7.649750822e-07
7.649750618e-07
7.649750408e-07
7.649750195e-07
7.649749981e-07
7.649749769e-07
7.64974956e-07
7.649749357e-07
7.649749162e-07
7.649748978e-07
7.649748807e-07
7.649748649e-07
7.649748509e-07
7.649748387e-07
7.649748286e-07
7.649748156e-07
7.649738099e-07
7.648315849e-07
6.492837926e-07
8.250286669e-07
8.25028422e-07
8.250284221e-07
8.25028421e-07
8.250284166e-07
8.250284089e-07
8.250283979e-07
8.250283838e-07
8.250283667e-07
8.250283469e-07
8.250283246e-07
8.250283002e-07
8.250282738e-07
8.250282458e-07
8.250282165e-07
8.250281863e-07
8.250281554e-07
8.250281242e-07
8.250280931e-07
8.250280623e-07
8.250280321e-07
8.250280028e-07
8.250279747e-07
8.250279481e-07
8.250279231e-07
8.250279e-07
8.25027879e-07
8.250278602e-07
8.250278438e-07
8.250278293e-07
8.250277641e-07
8.250231084e-07
8.247178408e-07
6.862898055e-07
8.253374836e-07
8.253372394e-07
8.25337235e-07
8.253372255e-07
8.253372086e-07
8.253371842e-07
8.253371524e-07
8.253371137e-07
8.253370683e-07
8.253370168e-07
8.253369597e-07
8.253368976e-07
8.253368313e-07
8.253367613e-07
8.253366885e-07
8.253366136e-07
8.253365374e-07
8.253364607e-07
8.253363841e-07
8.253363084e-07
8.253362344e-07
8.253361628e-07
8.25336094e-07
8.253360289e-07
8.253359678e-07
8.253359114e-07
8.2533586e-07
8.253358141e-07
8.253357737e-07
8.253357369e-07
8.25335525e-07
8.253241221e-07
8.248641212e-07
6.86328368e-07
8.253448229e-07
8.253445798e-07
8.253445757e-07
8.253445653e-07
8.253445474e-07
8.253445218e-07
8.253444887e-07
8.253444483e-07
8.25344401e-07
8.253443473e-07
8.253442878e-07
8.253442232e-07
8.25344154e-07
8.253440811e-07
8.253440052e-07
8.253439272e-07
8.253438478e-07
8.253437677e-07
8.253436879e-07
8.25343609e-07
8.253435319e-07
8.253434571e-07
8.253433855e-07
8.253433175e-07
8.253432539e-07
8.25343195e-07
8.253431413e-07
8.253430934e-07
8.253430513e-07
8.253430127e-07
8.253427919e-07
8.253310857e-07
8.248661634e-07
6.863286178e-07
8.253450195e-07
8.253447764e-07
8.253447728e-07
8.253447635e-07
8.253447447e-07
8.253447179e-07
8.253446837e-07
8.253446422e-07
8.253445937e-07
8.253445386e-07
8.253444776e-07
8.253444113e-07
8.253443403e-07
8.253442655e-07
8.253441876e-07
8.253441075e-07
8.253440259e-07
8.253439437e-07
8.253438617e-07
8.253437807e-07
8.253437014e-07
8.253436246e-07
8.25343551e-07
8.253434812e-07
8.253434157e-07
8.253433552e-07
8.253433001e-07
8.253432508e-07
8.253432075e-07
8.253431678e-07
8.253429458e-07
8.253312311e-07
8.248662009e-07
6.863286402e-07
8.253451364e-07
8.253448939e-07
8.2534489e-07
8.253448801e-07
8.253448619e-07
8.253448356e-07
8.253447993e-07
8.253447559e-07
8.253447056e-07
8.253446487e-07
8.253445858e-07
8.253445174e-07
8.253444442e-07
8.25344367e-07
8.253442866e-07
8.253442039e-07
8.253441197e-07
8.253440348e-07
8.253439501e-07
8.253438665e-07
8.253437846e-07
8.253437053e-07
8.253436292e-07
8.253435571e-07
8.253434895e-07
8.25343427e-07
8.2534337e-07
8.25343319e-07
8.253432742e-07
8.253432333e-07
8.253430102e-07
8.253312925e-07
8.248662227e-07
6.863286678e-07
8.253452726e-07
8.253450308e-07
8.253450275e-07
8.253450174e-07
8.253449985e-07
8.253449707e-07
8.253449348e-07
8.253448907e-07
8.253448374e-07
8.253447779e-07
8.253447124e-07
8.253446413e-07
8.253445655e-07
8.253444854e-07
8.253444021e-07
8.253443163e-07
8.25344229e-07
8.253441409e-07
8.253440531e-07
8.253439662e-07
8.253438812e-07
8.253437989e-07
8.2534372e-07
8.253436451e-07
8.253435749e-07
8.2534351e-07
8.253434509e-07
8.253433979e-07
8.253433514e-07
8.25343309e-07
8.253430846e-07
8.253313636e-07
8.248662483e-07
6.863287009e-07
8.253454282e-07
8.253451873e-07
8.253451845e-07
8.253451746e-07
8.253451553e-07
8.253451268e-07
8.253450895e-07
8.253450434e-07
8.253449897e-07
8.25344928e-07
8.253448586e-07
8.253447842e-07
8.253447049e-07
8.253446215e-07
8.253445347e-07
8.253444454e-07
8.253443544e-07
8.253442627e-07
8.253441712e-07
8.253440807e-07
8.253439922e-07
8.253439064e-07
8.253438241e-07
8.253437461e-07
8.253436729e-07
8.253436052e-07
8.253435436e-07
8.253434884e-07
8.253434399e-07
8.253433958e-07
8.253431701e-07
8.253314454e-07
8.248662779e-07
6.863287387e-07
8.25345601e-07
8.253453612e-07
8.253453595e-07
8.253453502e-07
8.253453306e-07
8.253453016e-07
8.25345263e-07
8.253452155e-07
8.253451594e-07
8.253450953e-07
8.253450246e-07
8.253449463e-07
8.253448624e-07
8.253447749e-07
8.25344684e-07
8.253445906e-07
8.253444955e-07
8.253443997e-07
8.253443041e-07
8.253442095e-07
8.25344117e-07
8.253440272e-07
8.253439412e-07
8.253438596e-07
8.253437831e-07
8.253437123e-07
8.253436478e-07
8.253435901e-07
8.253435394e-07
8.253434935e-07
8.253432662e-07
8.253315374e-07
8.248663112e-07
6.863287811e-07
8.253457936e-07
8.253455542e-07
8.253455518e-07
8.253455417e-07
8.253455219e-07
8.253454928e-07
8.253454536e-07
8.253454045e-07
8.253453464e-07
8.253452799e-07
8.253452059e-07
8.253451249e-07
8.253450386e-07
8.253449456e-07
8.253448495e-07
8.253447513e-07
8.253446516e-07
8.253445511e-07
8.253444509e-07
8.253443518e-07
8.253442548e-07
8.253441608e-07
8.253440706e-07
8.253439851e-07
8.253439048e-07
8.253438306e-07
8.25343763e-07
8.253437025e-07
8.253436494e-07
8.253436014e-07
8.253433724e-07
8.253316392e-07
8.248663481e-07
6.863288275e-07
8.253460049e-07
8.253457666e-07
8.253457645e-07
8.253457538e-07
8.253457323e-07
8.253457003e-07
8.253456585e-07
8.253456078e-07
8.253455487e-07
8.253454795e-07
8.253454025e-07
8.253453183e-07
8.253452276e-07
8.253451317e-07
8.253450321e-07
8.253449272e-07
8.253448218e-07
8.253447161e-07
8.253446108e-07
8.253445068e-07
8.253444049e-07
8.253443062e-07
8.253442115e-07
8.253441216e-07
8.253440374e-07
8.253439595e-07
8.253438885e-07
8.25343825e-07
8.253437692e-07
8.25343719e-07
8.253434882e-07
8.2533175e-07
8.248663882e-07
6.863288772e-07
8.253468184e-07
8.253467049e-07
8.253467388e-07
8.253466783e-07
8.253465241e-07
8.253462925e-07
8.253460588e-07
8.253458733e-07
8.253457659e-07
8.253456923e-07
8.253456127e-07
8.253455247e-07
8.253454303e-07
8.253453302e-07
8.253452254e-07
8.253451175e-07
8.253450066e-07
8.253448941e-07
8.253447829e-07
8.253446733e-07
8.253445662e-07
8.253444625e-07
8.253443629e-07
8.253442685e-07
8.2534418e-07
8.25344098e-07
8.253440234e-07
8.253439566e-07
8.25343898e-07
8.253438455e-07
8.253436127e-07
8.253318693e-07
8.248664315e-07
6.8632893e-07
8.253491922e-07
8.253491169e-07
8.253491569e-07
8.253490667e-07
8.25348847e-07
8.253485055e-07
8.253480528e-07
8.253475e-07
8.253468955e-07
8.253462868e-07
8.253458957e-07
8.253457435e-07
8.253456448e-07
8.253455398e-07
8.253454305e-07
8.253453174e-07
8.253452017e-07
8.253450853e-07
8.253449672e-07
8.253448509e-07
8.253447378e-07
8.253446286e-07
8.253445239e-07
8.253444245e-07
8.253443314e-07
8.253442453e-07
8.253441668e-07
8.253440966e-07
8.25344035e-07
8.253439799e-07
8.253437451e-07
8.253319961e-07
8.248664774e-07
6.863289853e-07
8.253519006e-07
8.253518368e-07
8.253518809e-07
8.253517867e-07
8.253515571e-07
8.253511841e-07
8.253506794e-07
8.253500539e-07
8.253493159e-07
8.253484676e-07
8.253475625e-07
8.253466718e-07
8.253459919e-07
8.253457598e-07
8.253456455e-07
8.253455271e-07
8.253454059e-07
8.253452836e-07
8.25345161e-07
8.253450403e-07
8.253449193e-07
8.253448037e-07
8.253446932e-07
8.253445887e-07
8.253444907e-07
8.253444002e-07
8.253443176e-07
8.253442438e-07
8.253441791e-07
8.253441213e-07
8.253438843e-07
8.253321295e-07
8.248665259e-07
6.863290425e-07
8.2535471e-07
8.253546591e-07
8.253547088e-07
8.253546141e-07
8.253543788e-07
8.253539854e-07
8.253534567e-07
8.253527895e-07
8.2535201e-07
8.253510913e-07
8.253500807e-07
8.253489825e-07
8.253478313e-07
8.253467306e-07
8.25345953e-07
8.253457441e-07
8.253456173e-07
8.253454893e-07
8.253453612e-07
8.25345234e-07
8.253451095e-07
8.25344988e-07
8.253448704e-07
8.253447599e-07
8.253446567e-07
8.253445614e-07
8.253444747e-07
8.253443971e-07
8.253443291e-07
8.253442687e-07
8.253440294e-07
8.253322684e-07
8.248665764e-07
6.863291011e-07
8.253575817e-07
8.253575444e-07
8.253575978e-07
8.253575012e-07
8.253572501e-07
8.253568464e-07
8.253562955e-07
8.253556011e-07
8.253547827e-07
8.253538205e-07
8.253527487e-07
8.253515797e-07
8.25350332e-07
8.253490026e-07
8.253476647e-07
8.253464538e-07
8.253458442e-07
8.253457008e-07
8.253455669e-07
8.253454339e-07
8.253453035e-07
8.253451765e-07
8.25345055e-07
8.253449382e-07
8.253448287e-07
8.253447282e-07
8.253446369e-07
8.253445554e-07
8.25344484e-07
8.253444207e-07
8.253441791e-07
8.253324118e-07
8.248666286e-07
6.863291604e-07
8.253604703e-07
8.253604467e-07
8.253605115e-07
8.253604194e-07
8.253601584e-07
8.253597406e-07
8.253591693e-07
8.253584507e-07
8.253575844e-07
8.253565932e-07
8.253554676e-07
8.253542479e-07
8.253529158e-07
8.253515148e-07
8.253500543e-07
8.253485659e-07
8.253471152e-07
8.253460254e-07
8.253457754e-07
8.253456373e-07
8.253455011e-07
8.253453687e-07
8.253452413e-07
8.2534512e-07
8.253450067e-07
8.253449001e-07
8.253448035e-07
8.253447176e-07
8.253446426e-07
8.253445763e-07
8.253443323e-07
8.253325585e-07
8.24866682e-07
6.8632922e-07
8.253633487e-07
8.253633382e-07
8.253634067e-07
8.253633096e-07
8.25363046e-07
8.25362618e-07
8.253620304e-07
8.253612882e-07
8.253603965e-07
8.253593598e-07
8.253581991e-07
8.253569158e-07
8.253555344e-07
8.253540774e-07
8.253525291e-07
8.253509388e-07
8.253493281e-07
8.253477351e-07
8.253463433e-07
8.253458427e-07
8.253456995e-07
8.253455621e-07
8.253454295e-07
8.253453032e-07
8.253451843e-07
8.253450742e-07
8.253449744e-07
8.253448835e-07
8.253448041e-07
8.253447345e-07
8.253444879e-07
8.253327076e-07
8.248667364e-07
6.863292792e-07
8.253661902e-07
8.253661943e-07
8.253662733e-07
8.253661804e-07
8.253659129e-07
8.253654717e-07
8.253648612e-07
8.253640876e-07
8.253631634e-07
8.253621001e-07
8.253608996e-07
8.253595738e-07
8.253581368e-07
8.253566087e-07
8.253550041e-07
8.253533418e-07
8.253516442e-07
8.253499301e-07
8.253482356e-07
8.253466831e-07
8.253459049e-07
8.25345754e-07
8.253456176e-07
8.253454863e-07
8.253453626e-07
8.25345248e-07
8.253451433e-07
8.253450497e-07
8.253449679e-07
8.253448958e-07
8.253446459e-07
8.253328584e-07
8.248667914e-07
6.863293375e-07
8.253689465e-07
8.253689672e-07
8.253690551e-07
8.253689643e-07
8.253686936e-07
8.253682454e-07
8.253676254e-07
8.253668369e-07
8.253658858e-07
8.253647811e-07
8.253635356e-07
8.253621735e-07
8.253606936e-07
8.253591127e-07
8.25357448e-07
8.2535572e-07
8.253539546e-07
8.253521547e-07
8.253503578e-07
8.25348601e-07
8.253469446e-07
8.253459617e-07
8.253458016e-07
8.253456661e-07
8.25345539e-07
8.253454203e-07
8.253453117e-07
8.253452144e-07
8.25345129e-07
8.253450537e-07
8.253448024e-07
8.253330088e-07
8.248668464e-07
6.863293939e-07
8.253716157e-07
8.253716503e-07
8.253717473e-07
8.253716597e-07
8.253713857e-07
8.25370928e-07
8.2537029e-07
8.253694796e-07
8.253685052e-07
8.253673783e-07
8.253661032e-07
8.253646929e-07
8.253631623e-07
8.253615391e-07
8.25359826e-07
8.253580371e-07
8.253562066e-07
8.253543336e-07
8.253524623e-07
8.253506076e-07
8.253488005e-07
8.253471031e-07
8.253460058e-07
8.253458432e-07
8.253457103e-07
8.253455889e-07
8.253454765e-07
8.25345376e-07
8.253452877e-07
8.253452101e-07
8.253449565e-07
8.253331563e-07
8.248669002e-07
6.863294476e-07
8.253741592e-07
8.253742082e-07
8.253743157e-07
8.253742327e-07
8.253739577e-07
8.253734933e-07
8.253728432e-07
8.253720145e-07
8.253710148e-07
8.253698542e-07
8.253685455e-07
8.253671041e-07
8.253655395e-07
8.253638623e-07
8.253620998e-07
8.253602667e-07
8.253583748e-07
8.253564448e-07
8.253545144e-07
8.253525792e-07
8.253506859e-07
8.253488589e-07
8.253471514e-07
8.253460358e-07
8.253458789e-07
8.253457511e-07
8.253456354e-07
8.253455329e-07
8.253454415e-07
8.253453617e-07
8.253451062e-07
8.253332999e-07
8.248669531e-07
6.863294987e-07
8.253765522e-07
8.253766155e-07
8.253767339e-07
8.253766567e-07
8.253763822e-07
8.25375913e-07
8.253752528e-07
8.253744087e-07
8.253733882e-07
8.253722017e-07
8.253708617e-07
8.253693812e-07
8.25367776e-07
8.253660661e-07
8.253642577e-07
8.253623708e-07
8.253604323e-07
8.253584566e-07
8.253564583e-07
8.253544678e-07
8.253525136e-07
8.253506001e-07
8.253487798e-07
8.253470952e-07
8.253460549e-07
8.253459099e-07
8.253457893e-07
8.253456818e-07
8.253455883e-07
8.253455073e-07
8.253452498e-07
8.253334377e-07
8.248670042e-07
6.863295467e-07
8.253787681e-07
8.253788491e-07
8.253789775e-07
8.253789066e-07
8.253786338e-07
8.253781618e-07
8.25377494e-07
8.253766372e-07
8.253755995e-07
8.253743909e-07
8.253730244e-07
8.253715128e-07
8.253698714e-07
8.253681168e-07
8.253662681e-07
8.253643464e-07
8.253623574e-07
8.253603339e-07
8.253582868e-07
8.253562464e-07
8.253542318e-07
8.253522648e-07
8.253503633e-07
8.253485751e-07
8.253469444e-07
8.253460661e-07
8.253459371e-07
8.25345826e-07
8.253457288e-07
8.25345644e-07
8.253453847e-07
8.253335672e-07
8.248670523e-07
6.863295907e-07
8.253804396e-07
8.253805405e-07
8.253808802e-07
8.253810224e-07
8.253809597e-07
8.253806903e-07
8.25380217e-07
8.253795438e-07
8.253786777e-07
8.25377626e-07
8.253763989e-07
8.253750097e-07
8.253734711e-07
8.253717987e-07
8.253700098e-07
8.253681213e-07
8.253661541e-07
8.253641325e-07
8.253620635e-07
8.253599772e-07
8.253578847e-07
8.25355822e-07
8.25353804e-07
8.253518537e-07
8.253499932e-07
8.253482654e-07
8.253467259e-07
8.253460778e-07
8.253459618e-07
8.25345862e-07
8.253457748e-07
8.253455133e-07
8.253336901e-07
8.248670979e-07
6.863296307e-07
8.253820117e-07
8.253823302e-07
8.253826944e-07
8.253828485e-07
8.253827952e-07
8.253825308e-07
8.253820583e-07
8.253813823e-07
8.253805091e-07
8.253794461e-07
8.253782041e-07
8.253767961e-07
8.253752351e-07
8.253735368e-07
8.253717183e-07
8.253697974e-07
8.25367794e-07
8.253657283e-07
8.253636245e-07
8.253615004e-07
8.253593747e-07
8.253572639e-07
8.253552046e-07
8.253532104e-07
8.253513058e-07
8.253495116e-07
8.253478801e-07
8.253464616e-07
8.253460882e-07
8.253459854e-07
8.253458962e-07
8.25345633e-07
8.253338049e-07
8.248671407e-07
6.863296666e-07
8.253835496e-07
8.253838846e-07
8.253842691e-07
8.253844391e-07
8.253843942e-07
8.253841364e-07
8.253836669e-07
8.253829903e-07
8.253821123e-07
8.253810418e-07
8.253797887e-07
8.253783655e-07
8.253767862e-07
8.253750669e-07
8.253732239e-07
8.253712758e-07
8.253692423e-07
8.253671442e-07
8.253650034e-07
8.253628434e-07
8.253606854e-07
8.253585465e-07
8.253564441e-07
8.253544155e-07
8.253524725e-07
8.253506377e-07
8.253489434e-07
8.253474213e-07
8.253462316e-07
8.253460976e-07
8.253460066e-07
8.253457419e-07
8.253339095e-07
8.248671801e-07
6.863296976e-07
8.253850722e-07
8.253851923e-07
8.253855867e-07
8.253857748e-07
8.253857388e-07
8.253854896e-07
8.253850255e-07
8.253843505e-07
8.253834709e-07
8.253823958e-07
8.253811357e-07
8.253797019e-07
8.253781088e-07
8.253763742e-07
8.253745117e-07
8.253725419e-07
8.253704841e-07
8.253683609e-07
8.253661916e-07
8.253639998e-07
8.253618094e-07
8.25359644e-07
8.253575162e-07
8.253554518e-07
8.253534806e-07
8.25351615e-07
8.253498802e-07
8.253483165e-07
8.253469355e-07
8.253462004e-07
8.253461048e-07
8.253458389e-07
8.253340026e-07
8.248672155e-07
6.863297233e-07
8.253864719e-07
8.253866428e-07
8.2538684e-07
8.253868159e-07
8.25386576e-07
8.253861185e-07
8.253854477e-07
8.2538457e-07
8.253834954e-07
8.253822314e-07
8.253807913e-07
8.253791928e-07
8.253776788e-07
8.253758017e-07
8.253738158e-07
8.253717402e-07
8.253695963e-07
8.253674055e-07
8.253651906e-07
8.253629748e-07
8.25360783e-07
8.253586381e-07
8.253565509e-07
8.253543193e-07
8.253524303e-07
8.253506682e-07
8.253490642e-07
8.253476443e-07
8.253464548e-07
8.253461922e-07
8.253459247e-07
8.253340851e-07
8.248672484e-07
6.863297449e-07
8.253874538e-07
8.253876409e-07
8.253876316e-07
8.253876169e-07
8.253873869e-07
8.253869371e-07
8.253862725e-07
8.253854027e-07
8.253845556e-07
8.253832907e-07
8.253818495e-07
8.253804882e-07
8.253554987e-07
8.253533e-07
8.253515192e-07
8.253498952e-07
8.25348446e-07
8.253471981e-07
8.253464983e-07
8.253462272e-07
8.253343851e-07
8.248675082e-07
6.863299867e-07
8.253885908e-07
8.253883468e-07
8.253881277e-07
8.253876921e-07
8.253870403e-07
8.253864169e-07
7.143404368e-07
7.1434026e-07
7.143402976e-07
7.143403086e-07
7.143402905e-07
7.143402434e-07
7.143401675e-07
7.143400637e-07
7.143399334e-07
7.14339778e-07
7.143395992e-07
7.14339399e-07
7.143391794e-07
7.14338943e-07
7.143386922e-07
7.143384297e-07
7.143381582e-07
7.143378807e-07
7.143376001e-07
7.143373193e-07
7.143370412e-07
7.143367689e-07
7.143365051e-07
7.143362526e-07
7.143360141e-07
7.14335792e-07
7.143355889e-07
7.143354074e-07
7.14335249e-07
7.14335117e-07
7.143349572e-07
7.143298403e-07
7.140020062e-07
5.849996468e-07
1.586692978e-05
1.586705593e-05
1.586700506e-05
1.586668009e-05
1.586607714e-05
1.58651987e-05
1.586405038e-05
1.586264269e-05
1.586098867e-05
1.585910408e-05
1.585700739e-05
1.585471928e-05
1.585226252e-05
1.584966155e-05
1.584694219e-05
1.584413137e-05
1.58412568e-05
1.583834675e-05
1.583542989e-05
1.583253432e-05
1.582968776e-05
1.58269173e-05
1.582424901e-05
1.582170776e-05
1.581931696e-05
1.581709797e-05
1.581506993e-05
1.581324961e-05
1.58116484e-05
1.581025638e-05
1.580724232e-05
1.567081165e-05
1.053036862e-05
5.860963528e-07
2.659167483e-05
2.659215699e-05
2.659200026e-05
2.659107483e-05
2.658936893e-05
2.658688791e-05
2.65836461e-05
2.65796731e-05
2.65750058e-05
2.656968906e-05
2.656377519e-05
2.655732303e-05
2.655039688e-05
2.654306589e-05
2.653540326e-05
2.652748533e-05
2.651939053e-05
2.651119855e-05
2.650298954e-05
2.649484281e-05
2.648683649e-05
2.647904655e-05
2.647154592e-05
2.646440389e-05
2.645768569e-05
2.645145097e-05
2.644575256e-05
2.644063612e-05
2.643612608e-05
2.6432101e-05
2.641928206e-05
2.590925176e-05
1.370924934e-05
5.862139886e-07
2.694607565e-05
2.694664461e-05
2.694651608e-05
2.694553328e-05
2.694374357e-05
2.694114615e-05
2.693775542e-05
2.693359886e-05
2.692871431e-05
2.692314826e-05
2.691695549e-05
2.691019757e-05
2.690294206e-05
2.689526154e-05
2.688723298e-05
2.68789364e-05
2.687045407e-05
2.686186956e-05
2.685326686e-05
2.68447293e-05
2.683633882e-05
2.682817496e-05
2.682031436e-05
2.68128296e-05
2.680578842e-05
2.679925285e-05
2.679327775e-05
2.678791133e-05
2.678317669e-05
2.677893303e-05
2.676529827e-05
2.62327911e-05
1.377035326e-05
5.862161953e-07
2.696200192e-05
2.696260077e-05
2.696250932e-05
2.696157843e-05
2.695972742e-05
2.695703989e-05
2.695355021e-05
2.694927919e-05
2.694426159e-05
2.693854396e-05
2.693218111e-05
2.692523601e-05
2.691777802e-05
2.690988197e-05
2.690162694e-05
2.689309542e-05
2.688437211e-05
2.687554317e-05
2.686669494e-05
2.685791333e-05
2.684928258e-05
2.68408847e-05
2.683279844e-05
2.682509852e-05
2.681785471e-05
2.681113088e-05
2.680498377e-05
2.679945712e-05
2.679458191e-05
2.679020985e-05
2.677643516e-05
2.624308696e-05
1.377244401e-05
5.862163068e-07
2.697465267e-05
2.697530878e-05
2.697522024e-05
2.697425512e-05
2.697241586e-05
2.696971185e-05
2.69660606e-05
2.696162623e-05
2.695643435e-05
2.695052481e-05
2.694395064e-05
2.693677474e-05
2.692906798e-05
2.692090728e-05
2.691237429e-05
2.690355443e-05
2.689453536e-05
2.688540617e-05
2.687625643e-05
2.686717491e-05
2.6858249e-05
2.684956345e-05
2.684119986e-05
2.683323551e-05
2.682574263e-05
2.681878772e-05
2.681242751e-05
2.680671008e-05
2.680166471e-05
2.679714423e-05
2.678323694e-05
2.624950954e-05
1.377419171e-05
5.862164184e-07
2.698939387e-05
2.699011699e-05
2.699007161e-05
2.698909796e-05
2.698719483e-05
2.698437361e-05
2.698068065e-05
2.697612359e-05
2.697067823e-05
2.696451862e-05
2.695768324e-05
2.695022915e-05
2.69422257e-05
2.693375091e-05
2.692488871e-05
2.691572746e-05
2.690635809e-05
2.689687341e-05
2.688736637e-05
2.68779295e-05
2.686865356e-05
2.685962689e-05
2.685093428e-05
2.684265629e-05
2.683486758e-05
2.682763906e-05
2.682102746e-05
2.681508428e-05
2.680984017e-05
2.680514969e-05
2.679109685e-05
2.625695422e-05
1.377623892e-05
5.862165503e-07
2.700618599e-05
2.700699243e-05
2.700699294e-05
2.700601924e-05
2.700407337e-05
2.700116798e-05
2.699732838e-05
2.699257752e-05
2.698699963e-05
2.698059258e-05
2.697341178e-05
2.69656178e-05
2.695726489e-05
2.69484264e-05
2.693918566e-05
2.6929633e-05
2.691986253e-05
2.690997065e-05
2.690005438e-05
2.689021017e-05
2.6880533e-05
2.687111507e-05
2.686204504e-05
2.685340744e-05
2.684528005e-05
2.683773548e-05
2.68308366e-05
2.682463527e-05
2.681916507e-05
2.681428287e-05
2.680006889e-05
2.626546061e-05
1.377858045e-05
5.862167009e-07
2.70248373e-05
2.702574264e-05
2.702581767e-05
2.70248728e-05
2.702287863e-05
2.701988861e-05
2.701590862e-05
2.701098398e-05
2.700515899e-05
2.699848651e-05
2.69910719e-05
2.698289773e-05
2.69741123e-05
2.696484894e-05
2.695517722e-05
2.694518421e-05
2.693496445e-05
2.692461726e-05
2.691424354e-05
2.690394405e-05
2.689381814e-05
2.688396249e-05
2.687446999e-05
2.68654304e-05
2.685692264e-05
2.684902574e-05
2.684180469e-05
2.683531464e-05
2.682959216e-05
2.682449712e-05
2.681010546e-05
2.627497996e-05
1.378120124e-05
5.862168688e-07
2.704538019e-05
2.704635454e-05
2.704642022e-05
2.704542964e-05
2.704338977e-05
2.704033571e-05
2.703623542e-05
2.703112346e-05
2.702505772e-05
2.701811005e-05
2.701034537e-05
2.700183814e-05
2.699271737e-05
2.698294455e-05
2.69727648e-05
2.696227404e-05
2.695155576e-05
2.69407072e-05
2.692983125e-05
2.691903243e-05
2.690841449e-05
2.689807859e-05
2.688812115e-05
2.687864197e-05
2.686971736e-05
2.686143271e-05
2.685385764e-05
2.68470507e-05
2.684105163e-05
2.683572349e-05
2.682113787e-05
2.628544518e-05
1.378408151e-05
5.86217052e-07
2.706759888e-05
2.706866316e-05
2.706876147e-05
2.706774136e-05
2.706560297e-05
2.706236391e-05
2.705805797e-05
2.705274688e-05
2.704649178e-05
2.703924289e-05
2.70311417e-05
2.702226102e-05
2.701268799e-05
2.700252729e-05
2.699190631e-05
2.698080631e-05
2.696952162e-05
2.69581202e-05
2.694669773e-05
2.693535837e-05
2.692420904e-05
2.691335556e-05
2.690289803e-05
2.689293882e-05
2.688356525e-05
2.687486245e-05
2.686690514e-05
2.68597557e-05
2.685345776e-05
2.684787804e-05
2.683308317e-05
2.629677689e-05
1.378719873e-05
5.862172486e-07
2.70868613e-05
2.708707596e-05
2.708692868e-05
2.708630381e-05
2.708514692e-05
2.708331384e-05
2.708021089e-05
2.707553001e-05
2.706918506e-05
2.706163117e-05
2.705324598e-05
2.704396304e-05
2.703396194e-05
2.702333268e-05
2.701218006e-05
2.700064441e-05
2.698878888e-05
2.697674374e-05
2.696471731e-05
2.695279335e-05
2.694107473e-05
2.692966804e-05
2.691867897e-05
2.690820997e-05
2.689835682e-05
2.688920827e-05
2.688084346e-05
2.687332904e-05
2.686671244e-05
2.686086453e-05
2.684584665e-05
2.630888543e-05
1.37905276e-05
5.862174566e-07
2.709339928e-05
2.709326641e-05
2.709312697e-05
2.709283304e-05
2.709232342e-05
2.709154967e-05
2.709048756e-05
2.708887175e-05
2.7086399e-05
2.708264188e-05
2.70759835e-05
2.706667772e-05
2.705630511e-05
2.704519479e-05
2.703353439e-05
2.702144407e-05
2.700904024e-05
2.699648807e-05
2.69837941e-05
2.697121406e-05
2.695887918e-05
2.694688547e-05
2.693533301e-05
2.692432756e-05
2.691396937e-05
2.690435157e-05
2.689555775e-05
2.68876589e-05
2.688070677e-05
2.687457628e-05
2.685932356e-05
2.632167224e-05
1.379404035e-05
5.862176737e-07
2.709641961e-05
2.709629195e-05
2.709620581e-05
2.709599811e-05
2.709565319e-05
2.70951421e-05
2.709446867e-05
2.709364146e-05
2.709257709e-05
2.70910268e-05
2.708887248e-05
2.708515862e-05
2.707860725e-05
2.706782415e-05
2.705571459e-05
2.704308098e-05
2.703011148e-05
2.701694237e-05
2.700370199e-05
2.699057036e-05
2.697751334e-05
2.696487692e-05
2.695272558e-05
2.69411569e-05
2.693027106e-05
2.692016398e-05
2.691092317e-05
2.690262387e-05
2.68953221e-05
2.688889696e-05
2.687339868e-05
2.633502436e-05
1.379770864e-05
5.862178975e-07
2.709888848e-05
2.709878772e-05
2.709874124e-05
2.709858998e-05
2.7098324e-05
2.709790946e-05
2.709735767e-05
2.709663821e-05
2.709582378e-05
2.709476512e-05
2.709353954e-05
2.709193578e-05
2.708963443e-05
2.708563832e-05
2.70778782e-05
2.706527188e-05
2.705177795e-05
2.703802375e-05
2.702418005e-05
2.701039073e-05
2.699682402e-05
2.698356609e-05
2.697073896e-05
2.695856612e-05
2.694712625e-05
2.693651072e-05
2.692680719e-05
2.691809455e-05
2.691043222e-05
2.6903703e-05
2.688795082e-05
2.634883003e-05
1.380149903e-05
5.862181256e-07
2.710108148e-05
2.710098877e-05
2.710095147e-05
2.71008225e-05
2.710059555e-05
2.710025048e-05
2.709978559e-05
2.709919334e-05
2.709848871e-05
2.709759166e-05
2.709653984e-05
2.709532218e-05
2.709387995e-05
2.709204052e-05
2.70893743e-05
2.708435337e-05
2.707371581e-05
2.705948868e-05
2.704505114e-05
2.703066134e-05
2.701646707e-05
2.700260955e-05
2.698926505e-05
2.697646348e-05
2.696441373e-05
2.695325989e-05
2.694307446e-05
2.693393629e-05
2.692590354e-05
2.691886365e-05
2.69028545e-05
2.636296454e-05
1.380537829e-05
5.862183558e-07
2.710265279e-05
2.710259024e-05
2.71026109e-05
2.710256196e-05
2.710242175e-05
2.710217177e-05
2.710181431e-05
2.710135028e-05
2.710073914e-05
2.709998744e-05
2.70990755e-05
2.709803277e-05
2.709677535e-05
2.709534515e-05
2.709367224e-05
2.70914475e-05
2.708787327e-05
2.708036859e-05
2.706605008e-05
2.705112783e-05
2.703633297e-05
2.702187839e-05
2.700791891e-05
2.699458554e-05
2.698205232e-05
2.697031618e-05
2.695960766e-05
2.695002028e-05
2.694160465e-05
2.693424599e-05
2.691797397e-05
2.637730519e-05
1.380931101e-05
5.862185854e-07
2.710398101e-05
2.710392582e-05
2.710395101e-05
2.710390452e-05
2.710378037e-05
2.710357906e-05
2.71033028e-05
2.7102955e-05
2.710250695e-05
2.710190893e-05
2.710118878e-05
2.71002867e-05
2.709921589e-05
2.7097995e-05
2.709655248e-05
2.709487531e-05
2.709291403e-05
2.709010131e-05
2.70845772e-05
2.7071513e-05
2.70561628e-05
2.704115792e-05
2.702662477e-05
2.701273577e-05
2.699963084e-05
2.698744764e-05
2.697632553e-05
2.696626051e-05
2.69574248e-05
2.694972855e-05
2.693318386e-05
2.639172959e-05
1.381326384e-05
5.862188124e-07
2.710527275e-05
2.710522784e-05
2.710526093e-05
2.710522183e-05
2.710510301e-05
2.71049007e-05
2.710461446e-05
2.710425598e-05
2.710382776e-05
2.710333185e-05
2.710276219e-05
2.710206073e-05
2.710119715e-05
2.710016265e-05
2.709892526e-05
2.709749848e-05
2.709586412e-05
2.709395486e-05
2.709141382e-05
2.708707763e-05
2.707580134e-05
2.706020045e-05
2.704517961e-05
2.703074668e-05
2.701712037e-05
2.700444153e-05
2.699282901e-05
2.698239773e-05
2.697324643e-05
2.696525838e-05
2.694840341e-05
2.640614771e-05
1.381721059e-05
5.862190332e-07
2.710652445e-05
2.710648669e-05
2.71065234e-05
2.710648367e-05
2.710636174e-05
2.710615857e-05
2.710587652e-05
2.710551998e-05
2.710509186e-05
2.71045787e-05
2.710400429e-05
2.71033733e-05
2.71026714e-05
2.710184774e-05
2.710085407e-05
2.709965086e-05
2.709825296e-05
2.709662453e-05
2.709471755e-05
2.70924112e-05
2.708867824e-05
2.707892558e-05
2.706331861e-05
2.704837404e-05
2.703429942e-05
2.702115248e-05
2.700910458e-05
2.699827285e-05
2.698874954e-05
2.698043753e-05
2.696337789e-05
2.642037034e-05
1.382110662e-05
5.862192485e-07
2.710774061e-05
2.71077097e-05
2.710775135e-05
2.710771316e-05
2.710758934e-05
2.710738139e-05
2.710709152e-05
2.710672293e-05
2.71062799e-05
2.710576722e-05
2.710519359e-05
2.710454836e-05
2.710384334e-05
2.710309669e-05
2.710227091e-05
2.710130486e-05
2.710017416e-05
2.709876821e-05
2.709716441e-05
2.709528304e-05
2.709308088e-05
2.708981304e-05
2.708099106e-05
2.706557368e-05
2.705093153e-05
2.703740181e-05
2.70249299e-05
2.701372542e-05
2.700386829e-05
2.699528208e-05
2.697797586e-05
2.643421299e-05
1.382488672e-05
5.862194564e-07
2.710890741e-05
2.710888412e-05
2.710893069e-05
2.710889429e-05
2.710876944e-05
2.710855735e-05
2.71082605e-05
2.710788222e-05
2.710742664e-05
2.710689887e-05
2.710630475e-05
2.710565091e-05
2.710494738e-05
2.710418208e-05
2.710337262e-05
2.710252003e-05
2.710157971e-05
2.710045565e-05
2.709912815e-05
2.709754643e-05
2.70956819e-05
2.709353836e-05
2.709047018e-05
2.708210351e-05
2.706706718e-05
2.705297051e-05
2.704010444e-05
2.702860141e-05
2.701841243e-05
2.7009565e-05
2.699203653e-05
2.644755788e-05
1.382853779e-05
5.862196416e-07
2.711001283e-05
2.710999676e-05
2.711004842e-05
2.711001421e-05
2.710988888e-05
2.710967359e-05
2.71093707e-05
2.710898375e-05
2.710851703e-05
2.71079756e-05
2.710736546e-05
2.710669333e-05
2.71059666e-05
2.710519334e-05
2.710438406e-05
2.710352002e-05
2.710262694e-05
2.710167693e-05
2.710059204e-05
2.709931336e-05
2.709777969e-05
2.709592379e-05
2.70938195e-05
2.709085703e-05
2.708238344e-05
2.706793293e-05
2.705461794e-05
2.704266986e-05
2.703220326e-05
2.702315329e-05
2.700540535e-05
2.646024753e-05
1.383200849e-05
5.86219814e-07
2.711104259e-05
2.711103413e-05
2.711109069e-05
2.711105941e-05
2.711093477e-05
2.711071783e-05
2.711041001e-05
2.711001558e-05
2.710953891e-05
2.710898532e-05
2.710836084e-05
2.710767228e-05
2.71069271e-05
2.710613345e-05
2.710529999e-05
2.710443635e-05
2.710354093e-05
2.710261489e-05
2.710164683e-05
2.710059661e-05
2.709936457e-05
2.709786201e-05
2.709602177e-05
2.709394455e-05
2.709100361e-05
2.70819765e-05
2.706832616e-05
2.705602124e-05
2.704521768e-05
2.703584627e-05
2.701789697e-05
2.647209893e-05
1.383524285e-05
5.862199731e-07
2.71118614e-05
2.711182808e-05
2.711197612e-05
2.71120439e-05
2.711201622e-05
2.711189268e-05
2.711167478e-05
2.711136479e-05
2.711096603e-05