/*--------------------------------*- C++ -*----------------------------------*\
  =========                 |
  \\      /  F ield         | OpenFOAM: The Open Source CFD Toolbox
   \\    /   O peration     | Website:  https://openfoam.org
    \\  /    A nd           | Version:  8
     \\/     M anipulation  |
\*---------------------------------------------------------------------------*/
FoamFile
{
    version     2.0;
    format      ascii;
    class       volScalarField;
    location    "0.1";
    object      epsilon;
}
// * * * * * * * * * * * * * * * * * * * * * * * * * * * * * * * * * * * * * //

dimensions      [0 2 -3 0 0 0 0];

internalField   nonuniform List<scalar> 
67193
(
1.066944945e-05
1.066944615e-05
1.066944616e-05
1.066944616e-05
1.066944613e-05
1.066944607e-05
1.066944598e-05
1.066944586e-05
1.066944572e-05
1.066944554e-05
1.066944535e-05
1.066944513e-05
1.066944489e-05
1.066944463e-05
1.066944435e-05
1.066944407e-05
1.066944377e-05
1.066944347e-05
1.066944316e-05
1.066944285e-05
1.066944255e-05
1.066944225e-05
1.066944197e-05
1.066944169e-05
1.066944143e-05
1.066944119e-05
1.066944097e-05
1.066944077e-05
1.06694406e-05
1.066944045e-05
1.066944027e-05
1.066942635e-05
1.066745299e-05
1.21101428e-05
1.007111228e-05
1.007110931e-05
1.007110924e-05
1.007110917e-05
1.007110906e-05
1.007110891e-05
1.007110873e-05
1.007110851e-05
1.007110826e-05
1.007110799e-05
1.007110768e-05
1.007110736e-05
1.007110701e-05
1.007110664e-05
1.007110627e-05
1.007110588e-05
1.007110549e-05
1.00711051e-05
1.007110471e-05
1.007110432e-05
1.007110394e-05
1.007110358e-05
1.007110323e-05
1.00711029e-05
1.007110259e-05
1.007110231e-05
1.007110205e-05
1.007110182e-05
1.007110162e-05
1.007110144e-05
1.007110065e-05
1.00710442e-05
1.006733578e-05
1.160708213e-05
1.007486447e-05
1.00748615e-05
1.007486138e-05
1.007486121e-05
1.007486095e-05
1.00748606e-05
1.007486016e-05
1.007485965e-05
1.007485906e-05
1.00748584e-05
1.007485767e-05
1.007485689e-05
1.007485606e-05
1.007485519e-05
1.007485429e-05
1.007485336e-05
1.007485242e-05
1.007485148e-05
1.007485054e-05
1.007484961e-05
1.007484871e-05
1.007484783e-05
1.007484699e-05
1.00748462e-05
1.007484546e-05
1.007484477e-05
1.007484414e-05
1.007484358e-05
1.007484309e-05
1.007484265e-05
1.007484008e-05
1.007470181e-05
1.006911287e-05
1.16077309e-05
1.007495343e-05
1.007495047e-05
1.007495036e-05
1.007495017e-05
1.00749499e-05
1.007494954e-05
1.007494909e-05
1.007494855e-05
1.007494794e-05
1.007494725e-05
1.00749465e-05
1.007494569e-05
1.007494482e-05
1.007494392e-05
1.007494298e-05
1.007494201e-05
1.007494104e-05
1.007494005e-05
1.007493907e-05
1.007493811e-05
1.007493717e-05
1.007493625e-05
1.007493538e-05
1.007493455e-05
1.007493378e-05
1.007493306e-05
1.007493241e-05
1.007493182e-05
1.007493131e-05
1.007493084e-05
1.007492817e-05
1.007478623e-05
1.006913761e-05
1.160773507e-05
1.007495576e-05
1.007495281e-05
1.007495271e-05
1.007495253e-05
1.007495225e-05
1.007495187e-05
1.007495141e-05
1.007495086e-05
1.007495024e-05
1.007494953e-05
1.007494876e-05
1.007494793e-05
1.007494704e-05
1.007494611e-05
1.007494515e-05
1.007494416e-05
1.007494316e-05
1.007494215e-05
1.007494114e-05
1.007494015e-05
1.007493918e-05
1.007493825e-05
1.007493735e-05
1.00749365e-05
1.00749357e-05
1.007493497e-05
1.00749343e-05
1.00749337e-05
1.007493317e-05
1.007493269e-05
1.007493e-05
1.007478796e-05
1.006913804e-05
1.160773542e-05
1.007495713e-05
1.007495419e-05
1.007495408e-05
1.00749539e-05
1.007495362e-05
1.007495325e-05
1.007495276e-05
1.00749522e-05
1.007495155e-05
1.007495082e-05
1.007495003e-05
1.007494917e-05
1.007494826e-05
1.00749473e-05
1.007494631e-05
1.007494529e-05
1.007494425e-05
1.007494321e-05
1.007494218e-05
1.007494115e-05
1.007494015e-05
1.007493919e-05
1.007493826e-05
1.007493738e-05
1.007493656e-05
1.00749358e-05
1.007493511e-05
1.007493449e-05
1.007493394e-05
1.007493345e-05
1.007493074e-05
1.007478866e-05
1.006913826e-05
1.160773586e-05
1.007495872e-05
1.007495579e-05
1.007495569e-05
1.007495551e-05
1.007495522e-05
1.007495483e-05
1.007495435e-05
1.007495377e-05
1.007495309e-05
1.007495233e-05
1.007495151e-05
1.007495062e-05
1.007494968e-05
1.007494868e-05
1.007494766e-05
1.00749466e-05
1.007494553e-05
1.007494445e-05
1.007494337e-05
1.007494231e-05
1.007494128e-05
1.007494027e-05
1.007493931e-05
1.00749384e-05
1.007493755e-05
1.007493676e-05
1.007493604e-05
1.00749354e-05
1.007493483e-05
1.007493432e-05
1.00749316e-05
1.007478948e-05
1.006913853e-05
1.160773637e-05
1.007496054e-05
1.007495762e-05
1.007495752e-05
1.007495735e-05
1.007495706e-05
1.007495666e-05
1.007495616e-05
1.007495556e-05
1.007495487e-05
1.007495409e-05
1.007495322e-05
1.007495229e-05
1.007495131e-05
1.007495027e-05
1.00749492e-05
1.007494811e-05
1.007494699e-05
1.007494587e-05
1.007494475e-05
1.007494365e-05
1.007494257e-05
1.007494152e-05
1.007494052e-05
1.007493957e-05
1.007493868e-05
1.007493786e-05
1.007493711e-05
1.007493644e-05
1.007493585e-05
1.007493532e-05
1.007493259e-05
1.007479042e-05
1.006913884e-05
1.160773697e-05
1.007496256e-05
1.007495965e-05
1.007495957e-05
1.00749594e-05
1.007495911e-05
1.007495871e-05
1.00749582e-05
1.007495758e-05
1.007495686e-05
1.007495605e-05
1.007495516e-05
1.007495419e-05
1.007495315e-05
1.007495207e-05
1.007495095e-05
1.00749498e-05
1.007494864e-05
1.007494746e-05
1.00749463e-05
1.007494514e-05
1.007494402e-05
1.007494292e-05
1.007494188e-05
1.007494089e-05
1.007493996e-05
1.00749391e-05
1.007493832e-05
1.007493762e-05
1.0074937e-05
1.007493644e-05
1.007493369e-05
1.007479148e-05
1.006913919e-05
1.160773763e-05
1.007496481e-05
1.007496191e-05
1.007496182e-05
1.007496164e-05
1.007496135e-05
1.007496095e-05
1.007496043e-05
1.007495979e-05
1.007495905e-05
1.007495821e-05
1.007495729e-05
1.007495628e-05
1.007495521e-05
1.007495406e-05
1.007495288e-05
1.007495168e-05
1.007495046e-05
1.007494923e-05
1.007494801e-05
1.00749468e-05
1.007494562e-05
1.007494448e-05
1.007494338e-05
1.007494234e-05
1.007494137e-05
1.007494047e-05
1.007493965e-05
1.007493891e-05
1.007493827e-05
1.007493769e-05
1.007493492e-05
1.007479265e-05
1.006913957e-05
1.160773836e-05
1.007496729e-05
1.00749644e-05
1.007496431e-05
1.007496413e-05
1.007496381e-05
1.007496338e-05
1.007496283e-05
1.007496217e-05
1.007496142e-05
1.007496055e-05
1.007495959e-05
1.007495854e-05
1.007495742e-05
1.007495624e-05
1.007495502e-05
1.007495373e-05
1.007495244e-05
1.007495115e-05
1.007494987e-05
1.00749486e-05
1.007494736e-05
1.007494617e-05
1.007494502e-05
1.007494392e-05
1.00749429e-05
1.007494196e-05
1.00749411e-05
1.007494033e-05
1.007493965e-05
1.007493904e-05
1.007493625e-05
1.007479392e-05
1.006914e-05
1.160773914e-05
1.007497687e-05
1.007497547e-05
1.00749758e-05
1.007497501e-05
1.00749731e-05
1.007497027e-05
1.007496743e-05
1.00749652e-05
1.007496394e-05
1.007496303e-05
1.007496205e-05
1.007496096e-05
1.007495979e-05
1.007495856e-05
1.007495727e-05
1.007495595e-05
1.00749546e-05
1.007495323e-05
1.007495187e-05
1.007495054e-05
1.007494924e-05
1.007494798e-05
1.007494677e-05
1.007494563e-05
1.007494455e-05
1.007494356e-05
1.007494266e-05
1.007494185e-05
1.007494114e-05
1.00749405e-05
1.007493769e-05
1.00747953e-05
1.006914045e-05
1.160773997e-05
1.007500538e-05
1.007500444e-05
1.007500485e-05
1.00750037e-05
1.007500099e-05
1.007499682e-05
1.007499131e-05
1.00749846e-05
1.007497728e-05
1.007496994e-05
1.007496527e-05
1.00749635e-05
1.007496229e-05
1.007496101e-05
1.007495967e-05
1.007495829e-05
1.007495688e-05
1.007495546e-05
1.007495402e-05
1.007495261e-05
1.007495124e-05
1.007494991e-05
1.007494864e-05
1.007494744e-05
1.007494631e-05
1.007494527e-05
1.007494431e-05
1.007494346e-05
1.007494272e-05
1.007494205e-05
1.007493921e-05
1.007479675e-05
1.006914093e-05
1.160774083e-05
1.007503796e-05
1.007503716e-05
1.007503762e-05
1.007503643e-05
1.00750336e-05
1.007502904e-05
1.00750229e-05
1.007501531e-05
1.007500636e-05
1.00749961e-05
1.007498516e-05
1.007497441e-05
1.007496626e-05
1.007496356e-05
1.007496216e-05
1.007496073e-05
1.007495926e-05
1.007495777e-05
1.007495628e-05
1.007495481e-05
1.007495335e-05
1.007495194e-05
1.007495061e-05
1.007494934e-05
1.007494815e-05
1.007494706e-05
1.007494606e-05
1.007494516e-05
1.007494438e-05
1.007494368e-05
1.007494082e-05
1.007479829e-05
1.006914144e-05
1.160774172e-05
1.007507174e-05
1.00750711e-05
1.007507163e-05
1.007507043e-05
1.007506753e-05
1.007506273e-05
1.00750563e-05
1.00750482e-05
1.007503875e-05
1.007502764e-05
1.007501544e-05
1.007500216e-05
1.007498825e-05
1.007497499e-05
1.007496567e-05
1.007496324e-05
1.007496172e-05
1.007496017e-05
1.007495861e-05
1.007495707e-05
1.007495556e-05
1.007495409e-05
1.007495266e-05
1.007495133e-05
1.007495008e-05
1.007494892e-05
1.007494787e-05
1.007494694e-05
1.007494611e-05
1.007494538e-05
1.007494249e-05
1.007479989e-05
1.006914197e-05
1.160774264e-05
1.007510626e-05
1.007510578e-05
1.007510636e-05
1.007510512e-05
1.007510203e-05
1.007509712e-05
1.007509042e-05
1.007508199e-05
1.007507208e-05
1.007506045e-05
1.00750475e-05
1.007503338e-05
1.007501831e-05
1.007500227e-05
1.007498612e-05
1.007497154e-05
1.007496432e-05
1.007496262e-05
1.0074961e-05
1.00749594e-05
1.007495782e-05
1.007495628e-05
1.007495481e-05
1.007495339e-05
1.007495207e-05
1.007495085e-05
1.007494975e-05
1.007494876e-05
1.00749479e-05
1.007494713e-05
1.007494421e-05
1.007480153e-05
1.006914251e-05
1.160774356e-05
1.007514096e-05
1.007514063e-05
1.007514134e-05
1.007514016e-05
1.007513695e-05
1.007513187e-05
1.007512492e-05
1.007511622e-05
1.007510575e-05
1.007509377e-05
1.007508017e-05
1.007506545e-05
1.007504937e-05
1.007503246e-05
1.007501484e-05
1.007499688e-05
1.007497939e-05
1.007496631e-05
1.007496341e-05
1.007496175e-05
1.007496011e-05
1.007495851e-05
1.007495697e-05
1.00749555e-05
1.007495413e-05
1.007495284e-05
1.007495167e-05
1.007495063e-05
1.007494973e-05
1.007494893e-05
1.007494598e-05
1.007480322e-05
1.006914307e-05
1.160774448e-05
1.007517549e-05
1.007517532e-05
1.007517606e-05
1.007517482e-05
1.007517159e-05
1.007516638e-05
1.007515925e-05
1.007515027e-05
1.00751395e-05
1.007512699e-05
1.007511298e-05
1.00750975e-05
1.007508084e-05
1.007506326e-05
1.007504458e-05
1.00750254e-05
1.007500597e-05
1.007498677e-05
1.007497001e-05
1.007496412e-05
1.007496241e-05
1.007496075e-05
1.007495915e-05
1.007495762e-05
1.007495619e-05
1.007495485e-05
1.007495365e-05
1.007495255e-05
1.007495159e-05
1.007495075e-05
1.007494777e-05
1.007480493e-05
1.006914364e-05
1.16077454e-05
1.007520954e-05
1.007520953e-05
1.007521039e-05
1.007520919e-05
1.007520591e-05
1.007520055e-05
1.007519317e-05
1.007518381e-05
1.007517267e-05
1.007515986e-05
1.007514538e-05
1.007512941e-05
1.007511209e-05
1.007509367e-05
1.007507433e-05
1.007505429e-05
1.007503382e-05
1.007501315e-05
1.007499271e-05
1.007497401e-05
1.007496476e-05
1.007496297e-05
1.007496133e-05
1.007495974e-05
1.007495825e-05
1.007495686e-05
1.00749556e-05
1.007495447e-05
1.007495348e-05
1.007495261e-05
1.007494959e-05
1.007480667e-05
1.006914421e-05
1.16077463e-05
1.007524251e-05
1.007524269e-05
1.007524364e-05
1.007524247e-05
1.007523915e-05
1.00752337e-05
1.007522622e-05
1.007521671e-05
1.007520525e-05
1.007519196e-05
1.007517697e-05
1.007516058e-05
1.007514276e-05
1.007512373e-05
1.007510368e-05
1.007508287e-05
1.00750616e-05
1.007503989e-05
1.007501822e-05
1.007499703e-05
1.007497707e-05
1.007496533e-05
1.007496346e-05
1.007496182e-05
1.007496029e-05
1.007495885e-05
1.007495754e-05
1.007495636e-05
1.007495533e-05
1.007495443e-05
1.007495139e-05
1.007480839e-05
1.006914479e-05
1.160774716e-05
1.007527438e-05
1.007527471e-05
1.007527576e-05
1.007527462e-05
1.007527126e-05
1.007526571e-05
1.007525802e-05
1.007524826e-05
1.007523654e-05
1.007522301e-05
1.00752077e-05
1.007519074e-05
1.007517234e-05
1.007515283e-05
1.007513222e-05
1.007511069e-05
1.007508865e-05
1.007506608e-05
1.007504352e-05
1.007502116e-05
1.007499936e-05
1.00749789e-05
1.007496577e-05
1.007496386e-05
1.007496226e-05
1.00749608e-05
1.007495944e-05
1.007495822e-05
1.007495716e-05
1.007495622e-05
1.007495315e-05
1.007481008e-05
1.006914535e-05
1.160774798e-05
1.007530468e-05
1.007530517e-05
1.007530634e-05
1.007530525e-05
1.007530188e-05
1.007529625e-05
1.007528843e-05
1.007527847e-05
1.007526648e-05
1.007525257e-05
1.007523688e-05
1.007521959e-05
1.007520082e-05
1.007518068e-05
1.007515949e-05
1.007513744e-05
1.007511467e-05
1.007509143e-05
1.007506817e-05
1.007504485e-05
1.007502203e-05
1.007499999e-05
1.007497941e-05
1.007496605e-05
1.00749642e-05
1.007496266e-05
1.007496126e-05
1.007496003e-05
1.007495892e-05
1.007495796e-05
1.007495487e-05
1.007481172e-05
1.006914589e-05
1.160774876e-05
1.007533309e-05
1.007533376e-05
1.007533505e-05
1.007533402e-05
1.007533065e-05
1.007532498e-05
1.007531706e-05
1.007530694e-05
1.007529474e-05
1.007528056e-05
1.007526453e-05
1.00752468e-05
1.007522757e-05
1.007520707e-05
1.007518536e-05
1.007516267e-05
1.007513936e-05
1.007511559e-05
1.007509153e-05
1.007506755e-05
1.007504399e-05
1.007502091e-05
1.007499896e-05
1.007497866e-05
1.007496621e-05
1.007496449e-05
1.007496303e-05
1.007496173e-05
1.00749606e-05
1.007495963e-05
1.007495651e-05
1.00748133e-05
1.006914642e-05
1.160774948e-05
1.007535937e-05
1.007536018e-05
1.00753616e-05
1.007536065e-05
1.007535732e-05
1.007535162e-05
1.007534362e-05
1.007533338e-05
1.0075321e-05
1.00753066e-05
1.007529028e-05
1.007527222e-05
1.007525259e-05
1.007523158e-05
1.007520942e-05
1.007518635e-05
1.007516246e-05
1.007513813e-05
1.007511349e-05
1.007508892e-05
1.007506463e-05
1.007504091e-05
1.007501798e-05
1.007499642e-05
1.007497677e-05
1.007496628e-05
1.007496472e-05
1.007496338e-05
1.007496221e-05
1.007496119e-05
1.007495805e-05
1.007481477e-05
1.006914691e-05
1.160775014e-05
1.007537935e-05
1.007538035e-05
1.007538414e-05
1.007538575e-05
1.007538489e-05
1.007538161e-05
1.007537592e-05
1.007536787e-05
1.007535754e-05
1.007534502e-05
1.007533043e-05
1.007531388e-05
1.007529554e-05
1.007527558e-05
1.007525419e-05
1.007523159e-05
1.007520801e-05
1.007518374e-05
1.007515888e-05
1.007513378e-05
1.007510859e-05
1.007508373e-05
1.007505941e-05
1.007503589e-05
1.007501346e-05
1.007499263e-05
1.007497406e-05
1.007496633e-05
1.007496493e-05
1.007496373e-05
1.007496268e-05
1.007495951e-05
1.007481616e-05
1.006914736e-05
1.160775073e-05
1.007539792e-05
1.00754015e-05
1.007540554e-05
1.007540728e-05
1.007540652e-05
1.00754033e-05
1.007539763e-05
1.007538957e-05
1.007537919e-05
1.007536657e-05
1.007535183e-05
1.00753351e-05
1.007531653e-05
1.007529629e-05
1.007527458e-05
1.007525162e-05
1.007522763e-05
1.007520286e-05
1.00751776e-05
1.007515205e-05
1.007512646e-05
1.007510105e-05
1.007507623e-05
1.007505218e-05
1.007502921e-05
1.007500758e-05
1.00749879e-05
1.00749708e-05
1.007496637e-05
1.007496513e-05
1.007496405e-05
1.007496087e-05
1.007481746e-05
1.006914779e-05
1.160775126e-05
1.007541604e-05
1.007541986e-05
1.007542411e-05
1.007542596e-05
1.007542533e-05
1.007542219e-05
1.007541657e-05
1.007540853e-05
1.007539812e-05
1.007538544e-05
1.00753706e-05
1.007535373e-05
1.007533497e-05
1.007531451e-05
1.007529255e-05
1.007526928e-05
1.007524495e-05
1.007521981e-05
1.007519412e-05
1.007516816e-05
1.007514219e-05
1.007511644e-05
1.00750911e-05
1.007506664e-05
1.007504321e-05
1.007502108e-05
1.007500065e-05
1.007498229e-05
1.007496797e-05
1.00749664e-05
1.00749653e-05
1.00749621e-05
1.007481864e-05
1.006914818e-05
1.16077517e-05
1.007543402e-05
1.007543528e-05
1.007543967e-05
1.007544165e-05
1.007544116e-05
1.007543811e-05
1.007543256e-05
1.007542455e-05
1.007541416e-05
1.007540145e-05
1.007538654e-05
1.007536957e-05
1.007535069e-05
1.007533008e-05
1.007530791e-05
1.00752844e-05
1.00752598e-05
1.007523436e-05
1.007520834e-05
1.007518201e-05
1.007515567e-05
1.00751296e-05
1.007510396e-05
1.007507908e-05
1.00750553e-05
1.00750328e-05
1.007501188e-05
1.007499302e-05
1.007497636e-05
1.007496755e-05
1.00749664e-05
1.007496318e-05
1.007481967e-05
1.006914852e-05
1.160775206e-05
1.007545039e-05
1.007545213e-05
1.007545421e-05
1.007545386e-05
1.007545092e-05
1.007544546e-05
1.007543752e-05
1.007542715e-05
1.007541447e-05
1.007539954e-05
1.007538251e-05
1.007536358e-05
1.007534561e-05
1.007532329e-05
1.00752996e-05
1.007527479e-05
1.007524912e-05
1.007522284e-05
1.007519624e-05
1.007516959e-05
1.007514321e-05
1.007511737e-05
1.007509222e-05
1.007506535e-05
1.007504257e-05
1.007502132e-05
1.007500196e-05
1.007498483e-05
1.007497049e-05
1.007496737e-05
1.007496413e-05
1.007482058e-05
1.006914883e-05
1.160775234e-05
1.007546199e-05
1.007546399e-05
1.007546359e-05
1.007546334e-05
1.007546053e-05
1.007545518e-05
1.007544731e-05
1.007543704e-05
1.007542705e-05
1.007541213e-05
1.00753951e-05
1.007537899e-05
1.007507939e-05
1.007505294e-05
1.007503147e-05
1.007501187e-05
1.007499438e-05
1.007497932e-05
1.007497093e-05
1.007496765e-05
1.007482407e-05
1.006915183e-05
1.160775623e-05
1.007547502e-05
1.007547207e-05
1.007546939e-05
1.007546419e-05
1.007545648e-05
1.007544913e-05
1.128926534e-05
1.12892626e-05
1.128926312e-05
1.128926323e-05
1.12892629e-05
1.128926211e-05
1.128926089e-05
1.128925923e-05
1.128925716e-05
1.128925471e-05
1.128925189e-05
1.128924874e-05
1.128924529e-05
1.128924158e-05
1.128923765e-05
1.128923353e-05
1.128922928e-05
1.128922493e-05
1.128922053e-05
1.128921613e-05
1.128921178e-05
1.128920752e-05
1.128920339e-05
1.128919943e-05
1.12891957e-05
1.128919222e-05
1.128918905e-05
1.12891862e-05
1.128918372e-05
1.128918166e-05
1.128917915e-05
1.128909883e-05
1.128394268e-05
1.309487468e-05
6.452622382e-07
6.452572128e-07
6.452593067e-07
6.45272384e-07
6.452966018e-07
6.453318647e-07
6.45377957e-07
6.454344685e-07
6.455008891e-07
6.455766017e-07
6.456608803e-07
6.457529101e-07
6.458517929e-07
6.459565594e-07
6.460661836e-07
6.461795926e-07
6.462956762e-07
6.464133003e-07
6.465313083e-07
6.466485637e-07
6.467639406e-07
6.468763345e-07
6.469846783e-07
6.470879508e-07
6.47185187e-07
6.47275503e-07
6.47358104e-07
6.474322904e-07
6.474975814e-07
6.475543556e-07
6.476764226e-07
6.532324348e-07
9.656299445e-07
1.311930804e-05
3.871575296e-07
3.871506177e-07
3.871529319e-07
3.871663327e-07
3.871909925e-07
3.872268418e-07
3.872736848e-07
3.873311086e-07
3.873985979e-07
3.874755236e-07
3.875611501e-07
3.87654647e-07
3.877551035e-07
3.878615363e-07
3.879729006e-07
3.880881019e-07
3.882060108e-07
3.883254743e-07
3.884453273e-07
3.885644118e-07
3.886815809e-07
3.887957144e-07
3.889057316e-07
3.890106013e-07
3.891093477e-07
3.892010748e-07
3.892849847e-07
3.89360384e-07
3.894268907e-07
3.894862531e-07
3.896738674e-07
3.972741625e-07
7.45221845e-07
1.312192941e-05
3.821100849e-07
3.821021327e-07
3.821039904e-07
3.821178506e-07
3.821430493e-07
3.821796055e-07
3.822273289e-07
3.822858479e-07
3.823546481e-07
3.824330951e-07
3.825204389e-07
3.826158333e-07
3.827183467e-07
3.82826974e-07
3.829406453e-07
3.830582431e-07
3.831786132e-07
3.833005782e-07
3.834229486e-07
3.835445385e-07
3.836641764e-07
3.837807193e-07
3.838930605e-07
3.84000147e-07
3.841009913e-07
3.841946843e-07
3.842804187e-07
3.843574806e-07
3.844255155e-07
3.844865013e-07
3.84680956e-07
3.92418557e-07
7.419693786e-07
1.312197846e-05
3.818851765e-07
3.818768131e-07
3.818781472e-07
3.818912597e-07
3.819172879e-07
3.819550645e-07
3.820041192e-07
3.820641756e-07
3.821347645e-07
3.822152518e-07
3.823048888e-07
3.824028115e-07
3.825080651e-07
3.826196147e-07
3.827363625e-07
3.828571581e-07
3.829808148e-07
3.831061198e-07
3.832318519e-07
3.833567897e-07
3.834797298e-07
3.835994952e-07
3.837149491e-07
3.838250086e-07
3.839286573e-07
3.840249599e-07
3.841130816e-07
3.841923723e-07
3.842623643e-07
3.8432514e-07
3.845214367e-07
3.922650596e-07
7.418576278e-07
1.312198092e-05
3.817061451e-07
3.816969855e-07
3.816982763e-07
3.81711855e-07
3.817376901e-07
3.817756582e-07
3.818269318e-07
3.818892218e-07
3.819621894e-07
3.820452968e-07
3.821378221e-07
3.822389045e-07
3.823475693e-07
3.824627548e-07
3.825833284e-07
3.827081004e-07
3.82835844e-07
3.82965306e-07
3.830952208e-07
3.832243275e-07
3.833513786e-07
3.834751577e-07
3.835944886e-07
3.83708251e-07
3.838153932e-07
3.839149422e-07
3.840060621e-07
3.8408804e-07
3.841604321e-07
3.842253022e-07
3.844234009e-07
3.921687184e-07
7.417638141e-07
1.312198336e-05
3.814978598e-07
3.814877708e-07
3.814884523e-07
3.81502132e-07
3.815288297e-07
3.81568394e-07
3.816201885e-07
3.816841243e-07
3.817605636e-07
3.818470859e-07
3.819431766e-07
3.820480595e-07
3.821607836e-07
3.82280274e-07
3.824053684e-07
3.82534838e-07
3.826674116e-07
3.828017854e-07
3.829366473e-07
3.830706843e-07
3.832026013e-07
3.833311324e-07
3.834550551e-07
3.835732028e-07
3.836844884e-07
3.837878757e-07
3.838825273e-07
3.839676811e-07
3.840428721e-07
3.841101374e-07
3.843102052e-07
3.920571339e-07
7.416539912e-07
1.312198626e-05
3.812610329e-07
3.812497912e-07
3.812498273e-07
3.812634855e-07
3.812907402e-07
3.813314238e-07
3.813851968e-07
3.814517571e-07
3.815299463e-07
3.81619821e-07
3.817206315e-07
3.818301511e-07
3.819476447e-07
3.820721057e-07
3.822023833e-07
3.823372229e-07
3.824753112e-07
3.826152958e-07
3.827558088e-07
3.828954829e-07
3.830329647e-07
3.831669331e-07
3.832961114e-07
3.834192763e-07
3.835352957e-07
3.83643108e-07
3.837417878e-07
3.838305663e-07
3.839089355e-07
3.839788964e-07
3.841811361e-07
3.919297746e-07
7.415284811e-07
1.312198956e-05
3.809985243e-07
3.809859192e-07
3.809849121e-07
3.809981428e-07
3.810260255e-07
3.810678227e-07
3.811234681e-07
3.811923492e-07
3.812738708e-07
3.813673209e-07
3.814712521e-07
3.815859401e-07
3.817093337e-07
3.818395879e-07
3.819757484e-07
3.821166099e-07
3.822608554e-07
3.824070938e-07
3.825539042e-07
3.826998602e-07
3.828435475e-07
3.829835825e-07
3.831186284e-07
3.832473877e-07
3.83368711e-07
3.834814444e-07
3.835846316e-07
3.836774551e-07
3.837593629e-07
3.838323099e-07
3.840369374e-07
3.917874278e-07
7.41388133e-07
1.312199324e-05
3.807100642e-07
3.806965207e-07
3.806956456e-07
3.807094896e-07
3.807379572e-07
3.807805682e-07
3.808377883e-07
3.809091576e-07
3.809938943e-07
3.810910247e-07
3.811996731e-07
3.8131883e-07
3.814467195e-07
3.815839126e-07
3.817269963e-07
3.818746444e-07
3.820256985e-07
3.821787992e-07
3.823324999e-07
3.824853226e-07
3.826357925e-07
3.827824631e-07
3.829239479e-07
3.830588069e-07
3.831859266e-07
3.83304062e-07
3.834121896e-07
3.835094419e-07
3.835952199e-07
3.836714294e-07
3.838786565e-07
3.916311552e-07
7.412340479e-07
1.312199726e-05
3.803988587e-07
3.80384091e-07
3.803827621e-07
3.80396988e-07
3.804267684e-07
3.804718696e-07
3.80531839e-07
3.806058391e-07
3.80693046e-07
3.807941886e-07
3.809073268e-07
3.81031479e-07
3.811654619e-07
3.813078432e-07
3.814568664e-07
3.816128198e-07
3.817715905e-07
3.81932233e-07
3.820934047e-07
3.822536345e-07
3.824114038e-07
3.825652012e-07
3.827135886e-07
3.82855089e-07
3.829884327e-07
3.831123769e-07
3.832258238e-07
3.8332785e-07
3.834177989e-07
3.834975205e-07
3.837075442e-07
3.914622009e-07
7.410674751e-07
1.312200157e-05
3.801295794e-07
3.801266728e-07
3.801287662e-07
3.801374601e-07
3.801535123e-07
3.801789376e-07
3.802220202e-07
3.802870764e-07
3.803753427e-07
3.804805184e-07
3.805973769e-07
3.807268865e-07
3.808665792e-07
3.810152337e-07
3.811714169e-07
3.81333191e-07
3.814996908e-07
3.816691026e-07
3.818385059e-07
3.82006718e-07
3.82172279e-07
3.823336669e-07
3.82489365e-07
3.826378945e-07
3.827778654e-07
3.829079823e-07
3.830270832e-07
3.831341818e-07
3.832285653e-07
3.833120205e-07
3.835250162e-07
3.912819592e-07
7.408898066e-07
1.312200612e-05
3.800380339e-07
3.800399804e-07
3.800419668e-07
3.800460394e-07
3.800530508e-07
3.800636811e-07
3.800782781e-07
3.801005506e-07
3.801347402e-07
3.801868255e-07
3.802793714e-07
3.804089119e-07
3.805534822e-07
3.807085382e-07
3.808714973e-07
3.810407109e-07
3.812145737e-07
3.813907863e-07
3.815692637e-07
3.817464149e-07
3.819203829e-07
3.820897958e-07
3.82253215e-07
3.824091149e-07
3.82556041e-07
3.826926345e-07
3.828176685e-07
3.829300934e-07
3.830291324e-07
3.8311651e-07
3.833326258e-07
3.910919507e-07
7.40702564e-07
1.312201088e-05
3.799958675e-07
3.799977583e-07
3.79999005e-07
3.800018657e-07
3.800065582e-07
3.800134916e-07
3.800226237e-07
3.800338494e-07
3.800483472e-07
3.800696019e-07
3.800992811e-07
3.801507185e-07
3.802417581e-07
3.803919114e-07
3.805607821e-07
3.807372267e-07
3.80918645e-07
3.811031497e-07
3.812889522e-07
3.81473527e-07
3.816573415e-07
3.818355178e-07
3.820071171e-07
3.821707276e-07
3.823248946e-07
3.824682179e-07
3.825994132e-07
3.82717368e-07
3.828212429e-07
3.82912698e-07
3.831320667e-07
3.908939006e-07
7.405072934e-07
1.312201578e-05
3.799618052e-07
3.799633427e-07
3.799640417e-07
3.799661043e-07
3.799696694e-07
3.79975214e-07
3.799825935e-07
3.799922467e-07
3.800031808e-07
3.800174954e-07
3.800341382e-07
3.800560747e-07
3.800877781e-07
3.801431631e-07
3.802511007e-07
3.804267815e-07
3.806151327e-07
3.808074343e-07
3.810013113e-07
3.811947508e-07
3.813853846e-07
3.815719819e-07
3.817527994e-07
3.819246579e-07
3.820864026e-07
3.822366955e-07
3.823742471e-07
3.824978909e-07
3.826067362e-07
3.827023859e-07
3.829251076e-07
3.906895077e-07
7.403058026e-07
1.312202077e-05
3.799320333e-07
3.799334811e-07
3.799340587e-07
3.799357982e-07
3.799387893e-07
3.799433189e-07
3.799494237e-07
3.799572254e-07
3.799665372e-07
3.799784966e-07
3.799926063e-07
3.800090462e-07
3.800286607e-07
3.800538782e-07
3.800907049e-07
3.801604481e-07
3.803086157e-07
3.805071063e-07
3.807088799e-07
3.809103364e-07
3.811093986e-07
3.813040678e-07
3.814918395e-07
3.816722522e-07
3.818423245e-07
3.819999757e-07
3.821441267e-07
3.822736079e-07
3.82387543e-07
3.82487464e-07
3.827135652e-07
3.904806491e-07
7.400998807e-07
1.312202581e-05
3.79911363e-07
3.799124198e-07
3.799121981e-07
3.799128111e-07
3.799145631e-07
3.799177176e-07
3.799222565e-07
3.799281868e-07
3.799360956e-07
3.799459169e-07
3.799579535e-07
3.799718255e-07
3.799887288e-07
3.800081082e-07
3.800309623e-07
3.800616171e-07
3.801112011e-07
3.802156966e-07
3.804153983e-07
3.806238823e-07
3.808309548e-07
3.810336198e-07
3.812296781e-07
3.814172499e-07
3.815938416e-07
3.817594376e-07
3.819107393e-07
3.820463677e-07
3.821655488e-07
3.822698389e-07
3.824993882e-07
3.902691592e-07
7.398914216e-07
1.312203083e-05
3.798945104e-07
3.798954976e-07
3.798952217e-07
3.798957882e-07
3.798972834e-07
3.798997065e-07
3.799030419e-07
3.799072629e-07
3.799127934e-07
3.799203531e-07
3.799295861e-07
3.799413565e-07
3.799555128e-07
3.799718261e-07
3.799913199e-07
3.800142002e-07
3.800411759e-07
3.800801611e-07
3.801570769e-07
3.803392699e-07
3.805536873e-07
3.807636614e-07
3.809673931e-07
3.81162426e-07
3.813467465e-07
3.815183621e-07
3.816752514e-07
3.81817403e-07
3.819423332e-07
3.820512418e-07
3.822843637e-07
3.900568534e-07
7.396822011e-07
1.312203579e-05
3.798785692e-07
3.79879449e-07
3.798790741e-07
3.798795266e-07
3.79880914e-07
3.798832954e-07
3.798866927e-07
3.79890966e-07
3.798961073e-07
3.799021179e-07
3.799091155e-07
3.799179426e-07
3.799290563e-07
3.79942613e-07
3.799590879e-07
3.799783217e-07
3.800005895e-07
3.800268447e-07
3.800620674e-07
3.80122467e-07
3.802797526e-07
3.804976464e-07
3.807078235e-07
3.809101269e-07
3.811014433e-07
3.812797367e-07
3.814432712e-07
3.815903634e-07
3.817195576e-07
3.818324257e-07
3.820696366e-07
3.898450583e-07
7.394736058e-07
1.312204062e-05
3.798635398e-07
3.798643574e-07
3.798639469e-07
3.79864398e-07
3.798657954e-07
3.798681329e-07
3.798713943e-07
3.798755431e-07
3.798805661e-07
3.798866835e-07
3.798936008e-07
3.799012912e-07
3.799099907e-07
3.79920444e-07
3.799333563e-07
3.799493087e-07
3.799681197e-07
3.799903069e-07
3.80016552e-07
3.800485426e-07
3.801005828e-07
3.802366685e-07
3.804546436e-07
3.80663746e-07
3.808610174e-07
3.810455828e-07
3.812149723e-07
3.813674696e-07
3.815017071e-07
3.816189761e-07
3.818587853e-07
3.89636541e-07
7.392679848e-07
1.312204532e-05
3.798492964e-07
3.798500581e-07
3.798495946e-07
3.798500158e-07
3.798514082e-07
3.798537577e-07
3.798570513e-07
3.798612694e-07
3.798663823e-07
3.798723597e-07
3.798791184e-07
3.798868467e-07
3.798954212e-07
3.799046304e-07
3.799150313e-07
3.799275086e-07
3.799424298e-07
3.799613556e-07
3.799832242e-07
3.800091527e-07
3.800397422e-07
3.800853579e-07
3.802085183e-07
3.804238602e-07
3.806287364e-07
3.808183684e-07
3.809934401e-07
3.811509417e-07
3.81289676e-07
3.81410639e-07
3.816536326e-07
3.894339785e-07
7.3906876e-07
1.312204985e-05
3.798359519e-07
3.798366518e-07
3.79836138e-07
3.798365289e-07
3.798379069e-07
3.798402615e-07
3.798435772e-07
3.798478337e-07
3.798530057e-07
3.798590605e-07
3.798659568e-07
3.79873646e-07
3.798820322e-07
3.79891326e-07
3.79901323e-07
3.799120457e-07
3.799241438e-07
3.799389791e-07
3.799568426e-07
3.799784503e-07
3.800042023e-07
3.800340379e-07
3.80076933e-07
3.801937968e-07
3.804038461e-07
3.80601105e-07
3.807814337e-07
3.809428945e-07
3.810860899e-07
3.812105578e-07
3.814563957e-07
3.892390549e-07
7.388765912e-07
1.312205388e-05
3.798235889e-07
3.79824232e-07
3.798236708e-07
3.798240294e-07
3.798253886e-07
3.798277392e-07
3.798310679e-07
3.79835353e-07
3.798405688e-07
3.798466844e-07
3.798536597e-07
3.798614475e-07
3.798699913e-07
3.798792246e-07
3.798890445e-07
3.798997508e-07
3.799110198e-07
3.79923266e-07
3.799375936e-07
3.799548339e-07
3.799758415e-07
3.800015463e-07
3.800309073e-07
3.800723933e-07
3.801907919e-07
3.803926975e-07
3.805790395e-07
3.807465022e-07
3.808933971e-07
3.810205467e-07
3.812691939e-07
3.8905402e-07
7.386941431e-07
1.312205763e-05
3.798123151e-07
3.798128959e-07
3.798122913e-07
3.798126124e-07
3.798139409e-07
3.798162711e-07
3.798196033e-07
3.798239066e-07
3.798291559e-07
3.798353187e-07
3.798423565e-07
3.798502232e-07
3.798588642e-07
3.798682157e-07
3.798782027e-07
3.798887335e-07
3.798998667e-07
3.79911616e-07
3.799241617e-07
3.799380753e-07
3.799547478e-07
3.79975409e-07
3.800009812e-07
3.800300422e-07
3.800712899e-07
3.801974389e-07
3.803882094e-07
3.805604386e-07
3.807118602e-07
3.808433535e-07
3.810945658e-07
3.888814892e-07
7.385243209e-07
1.312206109e-05
3.798031074e-07
3.798043619e-07
3.798028299e-07
3.798020942e-07
3.798023708e-07
3.798036685e-07
3.798059753e-07
3.7980928e-07