/*--------------------------------*- C++ -*----------------------------------*\
  =========                 |
  \\      /  F ield         | OpenFOAM: The Open Source CFD Toolbox
   \\    /   O peration     | Website:  https://openfoam.org
    \\  /    A nd           | Version:  8
     \\/     M anipulation  |
\*---------------------------------------------------------------------------*/
FoamFile
{
    version     2.0;
    format      ascii;
    class       volScalarField;
    location    "0.1";
    object      O2;
}
// * * * * * * * * * * * * * * * * * * * * * * * * * * * * * * * * * * * * * //

dimensions      [0 0 0 0 0 0 0];

internalField   nonuniform List<scalar> 
67193
(
0.2100064776
0.2100064779
0.2100064783
0.2100064788
0.2100064791
0.2100064795
0.2100064798
0.2100064801
0.2100064803
0.2100064805
0.2100064807
0.2100064809
0.2100064811
0.2100064812
0.2100064813
0.2100064814
0.2100064815
0.2100064816
0.2100064817
0.2100064817
0.2100064818
0.2100064819
0.2100064819
0.2100064819
0.210006482
0.210006482
0.210006482
0.210006482
0.210006482
0.2100064821
0.2100064821
0.2100064821
0.2100064821
0.2100064821
0.210006474
0.2100064743
0.2100064747
0.2100064751
0.2100064755
0.2100064758
0.2100064762
0.2100064764
0.2100064767
0.2100064769
0.2100064771
0.2100064773
0.2100064774
0.2100064775
0.2100064777
0.2100064778
0.2100064779
0.210006478
0.210006478
0.2100064781
0.2100064782
0.2100064782
0.2100064783
0.2100064783
0.2100064783
0.2100064784
0.2100064784
0.2100064784
0.2100064784
0.2100064784
0.2100064784
0.2100064785
0.2100064796
0.2100064821
0.2100064722
0.2100064725
0.2100064729
0.2100064734
0.2100064737
0.2100064741
0.2100064744
0.2100064746
0.2100064749
0.2100064751
0.2100064753
0.2100064755
0.2100064756
0.2100064758
0.2100064759
0.210006476
0.2100064761
0.2100064762
0.2100064763
0.2100064763
0.2100064764
0.2100064764
0.2100064765
0.2100064765
0.2100064765
0.2100064766
0.2100064766
0.2100064766
0.2100064766
0.2100064766
0.2100064767
0.2100064768
0.210006479
0.2100064822
0.2100064724
0.2100064726
0.2100064731
0.2100064735
0.2100064738
0.2100064742
0.2100064745
0.2100064747
0.210006475
0.2100064752
0.2100064754
0.2100064756
0.2100064757
0.2100064759
0.210006476
0.2100064761
0.2100064762
0.2100064763
0.2100064764
0.2100064764
0.2100064765
0.2100064765
0.2100064766
0.2100064766
0.2100064766
0.2100064767
0.2100064767
0.2100064767
0.2100064767
0.2100064767
0.2100064768
0.2100064769
0.2100064791
0.2100064824
0.2100064726
0.2100064729
0.2100064733
0.2100064737
0.210006474
0.2100064744
0.2100064747
0.2100064749
0.2100064752
0.2100064754
0.2100064756
0.2100064758
0.2100064759
0.2100064761
0.2100064762
0.2100064763
0.2100064764
0.2100064765
0.2100064766
0.2100064766
0.2100064767
0.2100064767
0.2100064768
0.2100064768
0.2100064769
0.2100064769
0.2100064769
0.2100064769
0.2100064769
0.210006477
0.210006477
0.2100064771
0.2100064794
0.2100064826
0.2100064729
0.2100064732
0.2100064735
0.2100064739
0.2100064743
0.2100064746
0.2100064749
0.2100064752
0.2100064754
0.2100064756
0.2100064759
0.210006476
0.2100064762
0.2100064763
0.2100064765
0.2100064766
0.2100064767
0.2100064768
0.2100064768
0.2100064769
0.210006477
0.210006477
0.2100064771
0.2100064771
0.2100064771
0.2100064772
0.2100064772
0.2100064772
0.2100064772
0.2100064772
0.2100064772
0.2100064773
0.2100064796
0.2100064829
0.2100064732
0.2100064735
0.2100064739
0.2100064742
0.2100064746
0.2100064749
0.2100064752
0.2100064755
0.2100064757
0.210006476
0.2100064761
0.2100064763
0.2100064765
0.2100064766
0.2100064768
0.2100064769
0.210006477
0.2100064771
0.2100064771
0.2100064772
0.2100064773
0.2100064773
0.2100064774
0.2100064774
0.2100064774
0.2100064775
0.2100064775
0.2100064775
0.2100064775
0.2100064775
0.2100064776
0.2100064777
0.2100064799
0.2100064832
0.2100064736
0.2100064738
0.2100064742
0.2100064746
0.2100064749
0.2100064752
0.2100064755
0.2100064758
0.2100064761
0.2100064763
0.2100064765
0.2100064767
0.2100064768
0.210006477
0.2100064771
0.2100064772
0.2100064773
0.2100064774
0.2100064775
0.2100064776
0.2100064776
0.2100064777
0.2100064777
0.2100064778
0.2100064778
0.2100064778
0.2100064779
0.2100064779
0.2100064779
0.2100064779
0.2100064779
0.210006478
0.2100064803
0.2100064836
0.210006474
0.2100064742
0.2100064746
0.2100064749
0.2100064753
0.2100064756
0.2100064759
0.2100064762
0.2100064764
0.2100064767
0.2100064769
0.2100064771
0.2100064772
0.2100064774
0.2100064775
0.2100064776
0.2100064777
0.2100064778
0.2100064779
0.210006478
0.210006478
0.2100064781
0.2100064781
0.2100064782
0.2100064782
0.2100064782
0.2100064783
0.2100064783
0.2100064783
0.2100064783
0.2100064783
0.2100064784
0.2100064807
0.210006484
0.2100064744
0.2100064746
0.210006475
0.2100064753
0.2100064757
0.210006476
0.2100064763
0.2100064766
0.2100064768
0.2100064771
0.2100064773
0.2100064775
0.2100064776
0.2100064778
0.2100064779
0.210006478
0.2100064781
0.2100064782
0.2100064783
0.2100064784
0.2100064785
0.2100064785
0.2100064786
0.2100064786
0.2100064786
0.2100064787
0.2100064787
0.2100064787
0.2100064787
0.2100064787
0.2100064788
0.2100064789
0.2100064811
0.2100064844
0.2100064748
0.2100064751
0.2100064754
0.2100064758
0.2100064761
0.2100064765
0.2100064768
0.210006477
0.2100064773
0.2100064775
0.2100064777
0.2100064779
0.2100064781
0.2100064782
0.2100064784
0.2100064785
0.2100064786
0.2100064787
0.2100064788
0.2100064789
0.2100064789
0.210006479
0.210006479
0.2100064791
0.2100064791
0.2100064792
0.2100064792
0.2100064792
0.2100064792
0.2100064792
0.2100064792
0.2100064793
0.2100064816
0.2100064849
0.2100064753
0.2100064755
0.2100064759
0.2100064763
0.2100064766
0.2100064769
0.2100064772
0.2100064775
0.2100064778
0.210006478
0.2100064782
0.2100064784
0.2100064786
0.2100064787
0.2100064789
0.210006479
0.2100064791
0.2100064792
0.2100064793
0.2100064794
0.2100064794
0.2100064795
0.2100064795
0.2100064796
0.2100064796
0.2100064797
0.2100064797
0.2100064797
0.2100064797
0.2100064797
0.2100064798
0.2100064799
0.2100064821
0.2100064854
0.2100064757
0.210006476
0.2100064764
0.2100064767
0.2100064771
0.2100064774
0.2100064777
0.210006478
0.2100064783
0.2100064785
0.2100064787
0.2100064789
0.2100064791
0.2100064793
0.2100064794
0.2100064795
0.2100064796
0.2100064797
0.2100064798
0.2100064799
0.21000648
0.21000648
0.2100064801
0.2100064801
0.2100064802
0.2100064802
0.2100064802
0.2100064803
0.2100064803
0.2100064803
0.2100064803
0.2100064804
0.2100064827
0.2100064859
0.2100064762
0.2100064765
0.2100064769
0.2100064772
0.2100064776
0.2100064779
0.2100064782
0.2100064785
0.2100064788
0.210006479
0.2100064792
0.2100064795
0.2100064796
0.2100064798
0.2100064799
0.2100064801
0.2100064802
0.2100064803
0.2100064804
0.2100064805
0.2100064805
0.2100064806
0.2100064806
0.2100064807
0.2100064807
0.2100064808
0.2100064808
0.2100064808
0.2100064809
0.2100064809
0.2100064809
0.210006481
0.2100064833
0.2100064865
0.2100064767
0.210006477
0.2100064774
0.2100064778
0.2100064781
0.2100064784
0.2100064788
0.2100064791
0.2100064793
0.2100064796
0.2100064798
0.21000648
0.2100064802
0.2100064804
0.2100064805
0.2100064806
0.2100064808
0.2100064809
0.210006481
0.210006481
0.2100064811
0.2100064812
0.2100064812
0.2100064813
0.2100064813
0.2100064814
0.2100064814
0.2100064814
0.2100064814
0.2100064815
0.2100064815
0.2100064816
0.2100064838
0.2100064871
0.2100064773
0.2100064776
0.2100064779
0.2100064783
0.2100064787
0.210006479
0.2100064793
0.2100064796
0.2100064799
0.2100064801
0.2100064804
0.2100064806
0.2100064808
0.2100064809
0.2100064811
0.2100064812
0.2100064814
0.2100064815
0.2100064815
0.2100064816
0.2100064817
0.2100064818
0.2100064818
0.2100064819
0.2100064819
0.210006482
0.210006482
0.210006482
0.2100064821
0.2100064821
0.2100064821
0.2100064822
0.2100064845
0.2100064877
0.2100064778
0.2100064781
0.2100064785
0.2100064789
0.2100064792
0.2100064796
0.2100064799
0.2100064802
0.2100064804
0.2100064807
0.2100064809
0.2100064811
0.2100064813
0.2100064815
0.2100064817
0.2100064818
0.210006482
0.2100064821
0.2100064822
0.2100064822
0.2100064823
0.2100064824
0.2100064825
0.2100064825
0.2100064825
0.2100064826
0.2100064826
0.2100064827
0.2100064827
0.2100064827
0.2100064827
0.2100064828
0.2100064851
0.2100064884
0.2100064784
0.2100064787
0.210006479
0.2100064794
0.2100064798
0.2100064801
0.2100064805
0.2100064807
0.210006481
0.2100064813
0.2100064815
0.2100064817
0.2100064819
0.2100064821
0.2100064823
0.2100064824
0.2100064826
0.2100064827
0.2100064828
0.2100064829
0.2100064829
0.210006483
0.2100064831
0.2100064831
0.2100064832
0.2100064832
0.2100064833
0.2100064833
0.2100064833
0.2100064833
0.2100064833
0.2100064835
0.2100064857
0.210006489
0.2100064789
0.2100064792
0.2100064796
0.21000648
0.2100064804
0.2100064807
0.210006481
0.2100064813
0.2100064816
0.2100064819
0.2100064821
0.2100064823
0.2100064825
0.2100064827
0.2100064829
0.210006483
0.2100064832
0.2100064833
0.2100064834
0.2100064835
0.2100064836
0.2100064836
0.2100064837
0.2100064838
0.2100064838
0.2100064839
0.2100064839
0.2100064839
0.210006484
0.210006484
0.210006484
0.2100064841
0.2100064864
0.2100064897
0.2100064795
0.2100064798
0.2100064802
0.2100064806
0.2100064809
0.2100064813
0.2100064816
0.2100064819
0.2100064822
0.2100064825
0.2100064827
0.2100064829
0.2100064831
0.2100064833
0.2100064835
0.2100064836
0.2100064838
0.2100064839
0.210006484
0.2100064841
0.2100064842
0.2100064843
0.2100064843
0.2100064844
0.2100064845
0.2100064845
0.2100064845
0.2100064846
0.2100064846
0.2100064846
0.2100064846
0.2100064847
0.210006487
0.2100064903
0.2100064801
0.2100064804
0.2100064808
0.2100064812
0.2100064815
0.2100064819
0.2100064822
0.2100064825
0.2100064828
0.210006483
0.2100064833
0.2100064835
0.2100064837
0.2100064839
0.2100064841
0.2100064842
0.2100064844
0.2100064845
0.2100064846
0.2100064847
0.2100064848
0.2100064849
0.210006485
0.210006485
0.2100064851
0.2100064851
0.2100064852
0.2100064852
0.2100064852
0.2100064853
0.2100064853
0.2100064854
0.2100064877
0.210006491
0.2100064806
0.2100064809
0.2100064813
0.2100064817
0.2100064821
0.2100064824
0.2100064828
0.2100064831
0.2100064834
0.2100064836
0.2100064839
0.2100064841
0.2100064843
0.2100064845
0.2100064847
0.2100064848
0.210006485
0.2100064851
0.2100064852
0.2100064853
0.2100064854
0.2100064855
0.2100064856
0.2100064857
0.2100064857
0.2100064858
0.2100064858
0.2100064858
0.2100064859
0.2100064859
0.2100064859
0.210006486
0.2100064883
0.2100064916
0.2100064812
0.2100064815
0.2100064819
0.2100064823
0.2100064826
0.210006483
0.2100064833
0.2100064836
0.2100064839
0.2100064842
0.2100064844
0.2100064847
0.2100064849
0.210006485
0.2100064852
0.2100064854
0.2100064855
0.2100064857
0.2100064858
0.2100064859
0.210006486
0.2100064861
0.2100064862
0.2100064862
0.2100064863
0.2100064864
0.2100064864
0.2100064865
0.2100064865
0.2100064865
0.2100064866
0.2100064867
0.210006489
0.2100064922
0.2100064817
0.210006482
0.2100064824
0.2100064828
0.2100064832
0.2100064835
0.2100064839
0.2100064842
0.2100064845
0.2100064847
0.210006485
0.2100064852
0.2100064854
0.2100064856
0.2100064858
0.2100064859
0.2100064861
0.2100064862
0.2100064863
0.2100064865
0.2100064866
0.2100064867
0.2100064867
0.2100064868
0.2100064869
0.2100064869
0.210006487
0.2100064871
0.2100064871
0.2100064871
0.2100064872
0.2100064873
0.2100064896
0.2100064928
0.2100064819
0.2100064821
0.2100064825
0.2100064829
0.2100064833
0.2100064837
0.2100064841
0.2100064844
0.2100064847
0.210006485
0.2100064852
0.2100064855
0.2100064857
0.2100064859
0.2100064861
0.2100064863
0.2100064865
0.2100064866
0.2100064868
0.2100064869
0.210006487
0.2100064871
0.2100064872
0.2100064873
0.2100064874
0.2100064874
0.2100064875
0.2100064876
0.2100064876
0.2100064877
0.2100064877
0.2100064877
0.2100064879
0.2100064902
0.2100064934
0.2100064823
0.2100064826
0.210006483
0.2100064834
0.2100064838
0.2100064842
0.2100064845
0.2100064849
0.2100064852
0.2100064855
0.2100064857
0.210006486
0.2100064862
0.2100064864
0.2100064866
0.2100064868
0.210006487
0.2100064871
0.2100064873
0.2100064874
0.2100064875
0.2100064876
0.2100064877
0.2100064878
0.2100064879
0.210006488
0.2100064881
0.2100064881
0.2100064882
0.2100064882
0.2100064883
0.2100064883
0.2100064884
0.2100064907
0.210006494
0.2100064827
0.2100064831
0.2100064835
0.2100064839
0.2100064843
0.2100064847
0.210006485
0.2100064853
0.2100064856
0.2100064859
0.2100064862
0.2100064864
0.2100064867
0.2100064869
0.2100064871
0.2100064873
0.2100064875
0.2100064877
0.2100064878
0.2100064879
0.210006488
0.2100064881
0.2100064882
0.2100064883
0.2100064884
0.2100064885
0.2100064886
0.2100064886
0.2100064887
0.2100064888
0.2100064888
0.2100064888
0.210006489
0.2100064913
0.2100064945
0.2100064832
0.2100064835
0.2100064839
0.2100064843
0.2100064847
0.2100064851
0.2100064855
0.2100064858
0.2100064861
0.2100064864
0.2100064866
0.2100064869
0.2100064872
0.2100064874
0.2100064876
0.2100064878
0.210006488
0.2100064882
0.2100064883
0.2100064885
0.2100064886
0.2100064887
0.2100064888
0.2100064888
0.2100064889
0.210006489
0.2100064891
0.2100064892
0.2100064892
0.2100064893
0.2100064893
0.2100064894
0.2100064895
0.2100064918
0.2100064951
0.2100064841
0.2100064844
0.2100064848
0.2100064852
0.2100064855
0.2100064859
0.2100064862
0.2100064865
0.2100064868
0.2100064871
0.2100064874
0.2100064877
0.2100064879
0.2100064881
0.2100064883
0.2100064885
0.2100064887
0.2100064888
0.2100064889
0.2100064891
0.2100064892
0.2100064893
0.2100064893
0.2100064895
0.2100064896
0.2100064896
0.2100064897
0.2100064898
0.2100064898
0.2100064899
0.2100064899
0.2100064901
0.2100064924
0.2100064956
0.2100064846
0.2100064848
0.2100064853
0.2100064856
0.210006486
0.2100064863
0.2100064866
0.210006487
0.2100064872
0.2100064875
0.2100064878
0.210006488
0.2100064901
0.21000649
0.2100064901
0.2100064902
0.2100064903
0.2100064903
0.2100064904
0.2100064904
0.2100064906
0.2100064929
0.2100064961
0.2100064858
0.210006486
0.2100064863
0.2100064867
0.210006487
0.2100064873
0.210006108
0.2100061083
0.2100061087
0.2100061091
0.2100061095
0.2100061098
0.2100061101
0.2100061104
0.2100061107
0.2100061109
0.2100061111
0.2100061113
0.2100061114
0.2100061116
0.2100061117
0.2100061118
0.2100061119
0.210006112
0.2100061121
0.2100061121
0.2100061122
0.2100061123
0.2100061123
0.2100061124
0.2100061124
0.2100061124
0.2100061124
0.2100061125
0.2100061125
0.2100061125
0.2100061125
0.2100061125
0.2100061126
0.2100061125
0.2100061057
0.2100061061
0.2100061065
0.2100061069
0.2100061073
0.2100061077
0.210006108
0.2100061082
0.2100061085
0.2100061087
0.2100061089
0.2100061091
0.2100061092
0.2100061094
0.2100061095
0.2100061096
0.2100061097
0.2100061098
0.2100061099
0.21000611
0.21000611
0.2100061101
0.2100061101
0.2100061102
0.2100061102
0.2100061103
0.2100061103
0.2100061103
0.2100061103
0.2100061103
0.2100061104
0.2100061104
0.2100061113
0.2100061125
0.2100061017
0.2100061022
0.2100061026
0.210006103
0.2100061033
0.2100061037
0.210006104
0.2100061043
0.2100061045
0.2100061047
0.2100061049
0.2100061051
0.2100061053
0.2100061054
0.2100061055
0.2100061056
0.2100061058
0.2100061058
0.2100061059
0.210006106
0.2100061061
0.2100061061
0.2100061062
0.2100061062
0.2100061062
0.2100061063
0.2100061063
0.2100061063
0.2100061063
0.2100061064
0.2100061064
0.2100061068
0.2100061109
0.2100061126
0.2100061016
0.210006102
0.2100061024
0.2100061028
0.2100061031
0.2100061035
0.2100061038
0.2100061041
0.2100061043
0.2100061045
0.2100061047
0.2100061049
0.2100061051
0.2100061052
0.2100061053
0.2100061055
0.2100061056
0.2100061057
0.2100061057
0.2100061058
0.2100061059
0.2100061059
0.210006106
0.210006106
0.2100061061
0.2100061061
0.2100061061
0.2100061061
0.2100061062
0.2100061062
0.2100061062
0.2100061067
0.210006111
0.2100061128
0.2100061018
0.2100061022
0.2100061026
0.210006103
0.2100061033
0.2100061037
0.210006104
0.2100061042
0.2100061045
0.2100061047
0.2100061049
0.2100061051
0.2100061053
0.2100061054
0.2100061055
0.2100061057
0.2100061058
0.2100061058
0.2100061059
0.210006106
0.2100061061
0.2100061061
0.2100061062
0.2100061062
0.2100061063
0.2100061063
0.2100061063
0.2100061063
0.2100061064
0.2100061064
0.2100061064
0.2100061069
0.2100061112
0.210006113
0.2100061021
0.2100061025
0.2100061028
0.2100061032
0.2100061036
0.2100061039
0.2100061042
0.2100061045
0.2100061047
0.210006105
0.2100061052
0.2100061053
0.2100061055
0.2100061057
0.2100061058
0.2100061059
0.210006106
0.2100061061
0.2100061062
0.2100061063
0.2100061063
0.2100061064
0.2100061064
0.2100061065
0.2100061065
0.2100061065
0.2100061066
0.2100061066
0.2100061066
0.2100061066
0.2100061067
0.2100061072
0.2100061115
0.2100061133
0.2100061024
0.2100061028
0.2100061031
0.2100061035
0.2100061039
0.2100061042
0.2100061045
0.2100061048
0.210006105
0.2100061052
0.2100061054
0.2100061056
0.2100061058
0.2100061059
0.2100061061
0.2100061062
0.2100061063
0.2100061064
0.2100061065
0.2100061066
0.2100061066
0.2100061067
0.2100061067
0.2100061068
0.2100061068
0.2100061069
0.2100061069
0.2100061069
0.2100061069
0.2100061069
0.210006107
0.2100061075
0.2100061118
0.2100061136
0.2100061027
0.2100061031
0.2100061035
0.2100061038
0.2100061042
0.2100061045
0.2100061048
0.2100061051
0.2100061053
0.2100061056
0.2100061058
0.210006106
0.2100061061
0.2100061063
0.2100061064
0.2100061065
0.2100061067
0.2100061067
0.2100061068
0.2100061069
0.210006107
0.210006107
0.2100061071
0.2100061071
0.2100061072
0.2100061072
0.2100061072
0.2100061073
0.2100061073
0.2100061073
0.2100061073
0.2100061078
0.2100061121
0.2100061139
0.2100061031
0.2100061035
0.2100061038
0.2100061042
0.2100061045
0.2100061049
0.2100061052
0.2100061054
0.2100061057
0.2100061059
0.2100061061
0.2100061063
0.2100061065
0.2100061067
0.2100061068
0.2100061069
0.210006107
0.2100061071
0.2100061072
0.2100061073
0.2100061074
0.2100061074
0.2100061075
0.2100061075
0.2100061076
0.2100061076
0.2100061076
0.2100061076
0.2100061077
0.2100061077
0.2100061077
0.2100061082
0.2100061125
0.2100061143
0.2100061035
0.2100061039
0.2100061042
0.2100061046
0.2100061049
0.2100061053
0.2100061056
0.2100061058
0.2100061061
0.2100061063
0.2100061065
0.2100061067
0.2100061069
0.2100061071
0.2100061072
0.2100061073
0.2100061074
0.2100061076
0.2100061076
0.2100061077
0.2100061078
0.2100061079
0.2100061079
0.210006108
0.210006108
0.210006108
0.2100061081
0.2100061081
0.2100061081
0.2100061081
0.2100061082
0.2100061087
0.210006113
0.2100061148
0.2100061039
0.2100061043
0.2100061047
0.210006105
0.2100061054
0.2100061057
0.210006106
0.2100061063
0.2100061065
0.2100061068
0.210006107
0.2100061072
0.2100061074
0.2100061075
0.2100061077
0.2100061078
0.2100061079
0.210006108
0.2100061081
0.2100061082
0.2100061082
0.2100061083
0.2100061084
0.2100061084
0.2100061085
0.2100061085
0.2100061085
0.2100061086
0.2100061086
0.2100061086
0.2100061086
0.2100061091
0.2100061134
0.2100061152
0.2100061043
0.2100061048
0.2100061051
0.2100061055
0.2100061058
0.2100061061
0.2100061064
0.2100061067
0.210006107
0.2100061072
0.2100061074
0.2100061077
0.2100061078
0.210006108
0.2100061081
0.2100061083
0.2100061084
0.2100061085
0.2100061086
0.2100061087
0.2100061087
0.2100061088
0.2100061089
0.2100061089
0.210006109
0.210006109
0.210006109
0.2100061091
0.2100061091
0.2100061091
0.2100061091
0.2100061096
0.2100061139
0.2100061157
0.2100061048
0.2100061052
0.2100061056
0.210006106
0.2100061063
0.2100061066
0.2100061069
0.2100061072
0.2100061075
0.2100061077
0.2100061079
0.2100061081
0.2100061083
0.2100061085
0.2100061086
0.2100061088
0.2100061089
0.210006109
0.2100061091
0.2100061092
0.2100061093
0.2100061093
0.2100061094
0.2100061094
0.2100061095
0.2100061095
0.2100061096
0.2100061096
0.2100061096
0.2100061096
0.2100061097
0.2100061102
0.2100061145
0.2100061163
0.2100061053
0.2100061057
0.2100061061
0.2100061064
0.2100061068
0.2100061071
0.2100061074
0.2100061077
0.210006108
0.2100061082
0.2100061085
0.2100061087
0.2100061089
0.210006109
0.2100061092
0.2100061093
0.2100061094
0.2100061095
0.2100061096
0.2100061097
0.2100061098
0.2100061099
0.2100061099
0.21000611
0.21000611
0.2100061101
0.2100061101
0.2100061101
0.2100061102
0.2100061102
0.2100061102
0.2100061107
0.210006115
0.2100061168
0.2100061058
0.2100061062
0.2100061066
0.210006107
0.2100061073
0.2100061076
0.210006108
0.2100061082
0.2100061085
0.2100061088
0.210006109
0.2100061092
0.2100061094
0.2100061096
0.2100061097
0.2100061099
0.21000611
0.2100061101
0.2100061102
0.2100061103
0.2100061104
0.2100061104
0.2100061105
0.2100061106
0.2100061106
0.2100061107
0.2100061107
0.2100061107
0.2100061108
0.2100061108
0.2100061108
0.2100061113
0.2100061156
0.2100061174
0.2100061063
0.2100061068
0.2100061071
0.2100061075
0.2100061079
0.2100061082
0.2100061085
0.2100061088
0.2100061091
0.2100061093
0.2100061096
0.2100061098
0.21000611
0.2100061101
0.2100061103
0.2100061104
0.2100061106
0.2100061107
0.2100061108
0.2100061109
0.210006111
0.210006111
0.2100061111
0.2100061112
0.2100061112
0.2100061113
0.2100061113
0.2100061113
0.2100061114
0.2100061114
0.2100061114
0.2100061119
0.2100061162
0.210006118
0.2100061069
0.2100061073
0.2100061077
0.2100061081
0.2100061084
0.2100061087
0.2100061091
0.2100061094
0.2100061096
0.2100061099
0.2100061101
0.2100061103
0.2100061105
0.2100061107
0.2100061109
0.210006111
0.2100061112
0.2100061113
0.2100061114
0.2100061115
0.2100061116
0.2100061116
0.2100061117
0.2100061118
0.2100061118
0.2100061119
0.2100061119
0.2100061119
0.210006112
0.210006112
0.210006112
0.2100061125
0.2100061168
0.2100061186
0.2100061074
0.2100061079
0.2100061082
0.2100061086
0.210006109
0.2100061093
0.2100061096
0.2100061099
0.2100061102
0.2100061105
0.2100061107
0.2100061109
0.2100061111
0.2100061113
0.2100061115
0.2100061116
0.2100061118
0.2100061119
0.210006112
0.2100061121
0.2100061122
0.2100061122
0.2100061123
0.2100061124
0.2100061124
0.2100061125
0.2100061125
0.2100061126
0.2100061126
0.2100061126
0.2100061127
0.2100061132
0.2100061175
0.2100061193
0.210006108
0.2100061084
0.2100061088
0.2100061092
0.2100061095
0.2100061099
0.2100061102
0.2100061105
0.2100061108
0.210006111
0.2100061113
0.2100061115
0.2100061117
0.2100061119
0.2100061121
0.2100061122
0.2100061124
0.2100061125
0.2100061126
0.2100061127
0.2100061128
0.2100061129
0.2100061129
0.210006113
0.2100061131
0.2100061131
0.2100061132
0.2100061132
0.2100061132
0.2100061132
0.2100061133
0.2100061138
0.2100061181
0.2100061199
0.2100061085
0.210006109
0.2100061094
0.2100061098
0.2100061101
0.2100061105
0.2100061108
0.2100061111
0.2100061114
0.2100061116
0.2100061119
0.2100061121
0.2100061123
0.2100061125
0.2100061127
0.2100061128
0.2100061129
0.2100061131
0.2100061132
0.2100061133
0.2100061134
0.2100061135
0.2100061136
0.2100061136
0.2100061137
0.2100061137
0.2100061138
0.2100061138
0.2100061139
0.2100061139
0.2100061139
0.2100061144
0.2100061187
0.2100061205
0.2100061091
0.2100061096
0.2100061099
0.2100061103
0.2100061107
0.210006111
0.2100061114
0.2100061117
0.2100061119
0.2100061122
0.2100061125
0.2100061127
0.2100061129
0.2100061131
0.2100061132
0.2100061134
0.2100061135
0.2100061137
0.2100061138
0.2100061139
0.210006114
0.2100061141
0.2100061142
0.2100061142
0.2100061143
0.2100061144
0.2100061144
0.2100061144
0.2100061145
0.2100061145
0.2100061145
0.2100061151
0.2100061194
0.2100061212
0.2100061096
0.2100061101
0.2100061105
0.2100061109
0.2100061113
0.2100061116
0.2100061119
0.2100061122
0.2100061125
0.2100061128
0.210006113
0.2100061132
0.2100061135
0.2100061136
0.2100061138
0.210006114
0.2100061141
0.2100061143
0.2100061144
0.2100061145
0.2100061146
0.2100061147
0.2100061148
0.2100061148
0.2100061149
0.210006115
0.210006115
0.2100061151
0.2100061151
0.2100061151
0.2100061152
0.2100061157
0.21000612
0.2100061218
0.2100061102
0.2100061107
0.210006111
0.2100061114
0.2100061118
0.2100061122
0.2100061125
0.2100061128
0.2100061131
0.2100061133
0.2100061136
0.2100061138
0.210006114
0.2100061142
0.2100061144
0.2100061145
0.2100061147
0.2100061148
0.2100061149
0.2100061151
0.2100061152
0.2100061153
0.2100061153
0.2100061154
0.2100061155
0.2100061155
0.2100061156
0.2100061157
0.2100061157
0.2100061157
0.2100061158
0.2100061163
0.2100061206
0.2100061224
0.2100061107
0.2100061112
0.2100061116
0.210006112
0.2100061123
0.2100061127
0.210006113
0.2100061133
0.2100061136
0.2100061139
0.2100061141
0.2100061143
0.2100061145
0.2100061147
0.2100061149
0.2100061151
0.2100061152
0.2100061154
0.2100061155
0.2100061156
0.2100061157
0.2100061158
0.2100061159
0.210006116
0.2100061161
0.2100061161
0.2100061162
0.2100061163
0.2100061163
0.2100061163
0.2100061164
0.2100061169
0.2100061212
0.210006123
0.2100061107
0.2100061113
0.2100061117
0.2100061121
0.2100061125
0.2100061129
0.2100061132
0.2100061135
0.2100061138
0.2100061141
0.2100061144
0.2100061146
0.2100061149
0.2100061151
0.2100061153
0.2100061155
0.2100061156
0.2100061158
0.2100061159
0.210006116
0.2100061162
0.2100061163
0.2100061164
0.2100061164
0.2100061165
0.2100061166
0.2100061167
0.2100061168
0.2100061168
0.2100061169
0.2100061169
0.210006117
0.2100061175
0.2100061218
0.2100061236
0.2100061113
0.2100061118
0.2100061122
0.2100061126
0.210006113
0.2100061133
0.2100061137
0.210006114
0.2100061143
0.2100061146
0.2100061149
0.2100061151
0.2100061153
0.2100061156
0.2100061158
0.210006116
0.2100061161
0.2100061163
0.2100061164
0.2100061166
0.2100061167
0.2100061168
0.2100061169
0.210006117
0.2100061171
0.2100061171
0.2100061172
0.2100061173
0.2100061174
0.2100061174
0.2100061175
0.2100061175
0.2100061181
0.2100061224
0.2100061242
0.2100061118
0.2100061122
0.2100061126
0.210006113
0.2100061134
0.2100061138
0.2100061142
0.2100061145
0.2100061148
0.2100061151
0.2100061153
0.2100061156
0.2100061158
0.210006116
0.2100061163
0.2100061165
0.2100061166
0.2100061168
0.2100061169
0.2100061171
0.2100061172
0.2100061173
0.2100061174
0.2100061175
0.2100061176
0.2100061177
0.2100061177
0.2100061178
0.2100061179
0.2100061179
0.210006118
0.2100061181
0.2100061186
0.2100061229
0.2100061247
0.210006112
0.2100061127
0.2100061131
0.2100061135
0.2100061139
0.2100061143
0.2100061146
0.2100061149
0.2100061152
0.2100061155
0.2100061158
0.210006116
0.2100061163
0.2100061166
0.2100061168
0.210006117
0.2100061172
0.2100061173
0.2100061175
0.2100061176
0.2100061177
0.2100061178
0.2100061179
0.210006118
0.2100061181
0.2100061182
0.2100061183
0.2100061183
0.2100061184
0.2100061185
0.2100061185
0.2100061186
0.2100061191
0.2100061234
0.2100061252
0.2100061131
0.2100061136
0.2100061139
0.2100061143
0.2100061147
0.210006115
0.2100061153
0.2100061157
0.210006116
0.2100061163
0.2100061166
0.2100061168
0.2100061169
0.2100061171
0.2100061173
0.2100061175
0.2100061177
0.2100061178
0.210006118
0.2100061181
0.2100061182
0.2100061183
0.2100061184
0.2100061187
0.2100061188
0.2100061188
0.2100061189
0.210006119
0.210006119
0.2100061191
0.2100061191
0.2100061197
0.210006124
0.2100061258
0.2100061134
0.2100061139
0.2100061144
0.2100061148
0.2100061151
0.2100061155
0.2100061158
0.2100061161
0.2100061163
0.2100061166
0.2100061168
0.2100061167
0.2100061188
0.2100061189
0.210006119
0.2100061193
0.2100061193
0.2100061194
0.2100061194
0.2100061195
0.2100061201
0.2100061244
0.2100061263
0.2100061144
0.2100061151
0.2100061154
0.2100061157
0.2100061161
0.2100061161
0.2100058428
0.210005843
0.2100058434
0.2100058438
0.2100058442
0.2100058445
0.2100058448
0.2100058451
0.2100058454
0.2100058456
0.2100058458
0.210005846
0.2100058461
0.2100058463
0.2100058464
0.2100058465
0.2100058466
0.2100058467
0.2100058468
0.2100058469
0.2100058469
0.210005847
0.210005847
0.2100058471
0.2100058471
0.2100058471
0.2100058472
0.2100058472
0.2100058472
0.2100058472
0.2100058472
0.2100058472
0.2100058473
0.2100058472
0.2100058427
0.2100058431
0.2100058434
0.2100058438
0.2100058442
0.2100058445
0.2100058448
0.2100058451
0.2100058453
0.2100058456
0.2100058458
0.2100058459
0.2100058461
0.2100058463
0.2100058464
0.2100058465
0.2100058466
0.2100058467
0.2100058468
0.2100058469
0.2100058469
0.210005847
0.210005847
0.2100058471
0.2100058471
0.2100058471
0.2100058471
0.2100058472
0.2100058472
0.2100058472
0.2100058472
0.2100058472
0.2100058475
0.2100058472
0.2100058402
0.2100058406
0.210005841
0.2100058414
0.2100058417
0.2100058421
0.2100058424
0.2100058426
0.2100058429
0.2100058431
0.2100058433
0.2100058435
0.2100058437
0.2100058438
0.2100058439
0.210005844
0.2100058442
0.2100058442
0.2100058443
0.2100058444
0.2100058445
0.2100058445
0.2100058446
0.2100058446
0.2100058446
0.2100058447
0.2100058447
0.2100058447
0.2100058447
0.2100058448
0.2100058448
0.2100058451
0.2100058475
0.2100058474
0.2100058401
0.2100058405
0.2100058409
0.2100058413
0.2100058416
0.2100058419
0.2100058422
0.2100058425
0.2100058428
0.210005843
0.2100058432
0.2100058434
0.2100058435
0.2100058437
0.2100058438
0.2100058439
0.210005844
0.2100058441
0.2100058442
0.2100058443
0.2100058443
0.2100058444
0.2100058444
0.2100058445
0.2100058445
0.2100058445
0.2100058446
0.2100058446
0.2100058446
0.2100058446
0.2100058447
0.2100058451
0.2100058476
0.2100058475
0.2100058403
0.2100058407
0.2100058411
0.2100058415
0.2100058418
0.2100058421
0.2100058424
0.2100058427
0.2100058429
0.2100058432
0.2100058434
0.2100058436
0.2100058437
0.2100058439
0.210005844
0.2100058441
0.2100058442
0.2100058443
0.2100058444
0.2100058445
0.2100058445
0.2100058446
0.2100058446
0.2100058447
0.2100058447
0.2100058448
0.2100058448
0.2100058448
0.2100058448
0.2100058448
0.2100058449
0.2100058453
0.2100058478
0.2100058477
0.2100058405
0.210005841
0.2100058413
0.2100058417
0.210005842
0.2100058424
0.2100058427
0.2100058429
0.2100058432
0.2100058434
0.2100058436
0.2100058438
0.210005844
0.2100058441
0.2100058442
0.2100058444
0.2100058445
0.2100058446
0.2100058447
0.2100058447
0.2100058448
0.2100058449
0.2100058449
0.2100058449
0.210005845
0.210005845
0.210005845
0.2100058451
0.2100058451
0.2100058451
0.2100058451
0.2100058455
0.2100058481
0.210005848
0.2100058408
0.2100058413
0.2100058416
0.210005842
0.2100058423
0.2100058426
0.2100058429
0.2100058432
0.2100058435
0.2100058437
0.2100058439
0.2100058441
0.2100058443
0.2100058444
0.2100058445
0.2100058447
0.2100058448
0.2100058449
0.210005845
0.210005845
0.2100058451
0.2100058452
0.2100058452
0.2100058452
0.2100058453
0.2100058453
0.2100058453
0.2100058454
0.2100058454