/*--------------------------------*- C++ -*----------------------------------*\
  =========                 |
  \\      /  F ield         | OpenFOAM: The Open Source CFD Toolbox
   \\    /   O peration     | Website:  https://openfoam.org
    \\  /    A nd           | Version:  8
     \\/     M anipulation  |
\*---------------------------------------------------------------------------*/
FoamFile
{
    version     2.0;
    format      ascii;
    class       scalarField;
    location    "0.4/lagrangian/reactingCloud1";
    object      age;
}
// * * * * * * * * * * * * * * * * * * * * * * * * * * * * * * * * * * * * * //


67
(
0.2715704571
0.262859142
0.2565295757
0.2498775351
0.2429506776
0.2355285606
0.2341463721
0.2306313973
0.2304044981
0.2272025504
0.2229741993
0.2065069817
0.2398218671
0.206138662
0.1981994883
0.1786358738
0.1861439603
0.1633468069
0.1631749708
0.192171496
0.1597604805
0.1576984753
0.1540425457
0.1500009427
0.1781231235
0.2218742991
0.1393915948
0.1621141207
0.1420997669
0.1326621973
0.1288871695
0.1959333462
0.180169505
0.1184561672
0.1201265052
0.1090942407
0.1037807518
0.1081745984
0.08893727408
0.08750363357
0.08579437917
0.1122454905
0.08466812365
0.08411541271
0.1115378618
0.08224526144
0.08193362884
0.08607516218
0.07675425136
0.1096051531
0.07066439148
0.06636360012
0.1129481006
0.06406446144
0.04809787808
0.1077658685
0.03162631559
0.02750114399
0.04206396717
0.01934388731
0.202125432
0.01603723991
0.03206829827
0.009973277194
0.004259420468
0.05408680168
0.001384535754
)


// ************************************************************************* //
