/*--------------------------------*- C++ -*----------------------------------*\
  =========                 |
  \\      /  F ield         | OpenFOAM: The Open Source CFD Toolbox
   \\    /   O peration     | Website:  https://openfoam.org
    \\  /    A nd           | Version:  8
     \\/     M anipulation  |
\*---------------------------------------------------------------------------*/
FoamFile
{
    version     2.0;
    format      ascii;
    class       scalarField;
    location    "0.4/lagrangian/reactingCloud1";
    object      d;
}
// * * * * * * * * * * * * * * * * * * * * * * * * * * * * * * * * * * * * * //


67
(
0.0006121251091
0.0006871575727
0.0007975136233
0.0005740797728
0.0007408311217
0.0008321257635
0.0008754200764
0.0008008432261
0.0005004021749
0.0007532012092
0.0006183914727
0.0006886620339
0.001016599054
0.0008870330866
0.0008170054087
0.000568264768
0.0008132639271
0.0005333595811
0.0005780185697
0.0005216235091
0.0009262045304
0.0007001249046
0.0007422786067
0.0006715089591
0.00112511123
0.0007962385764
0.0006626903456
0.0007414735311
0.0005321232545
0.0007510278497
0.000527106737
0.0005510897233
0.000769436038
0.0008158931881
0.0007357106125
0.0007541753432
0.0005791125993
0.0008946237925
0.0008735308532
0.0006623203703
0.000724496987
0.0005130432945
0.0006415045945
0.0005005422704
0.000563082118
0.0005227380286
0.0008493319956
0.0005779920539
0.0007499194873
0.0005573785733
0.0005062456902
0.0007293917849
0.0007498642385
0.0005595750338
0.0006991282338
0.0007034059327
0.0006564594948
0.0005515407599
0.0008052245273
0.0006798982098
0.0008012197961
0.0005596438763
0.0007217177223
0.0007855131263
0.0008212110198
0.0005893332998
0.0007795637826
)


// ************************************************************************* //
