/*--------------------------------*- C++ -*----------------------------------*\
  =========                 |
  \\      /  F ield         | OpenFOAM: The Open Source CFD Toolbox
   \\    /   O peration     | Website:  https://openfoam.org
    \\  /    A nd           | Version:  8
     \\/     M anipulation  |
\*---------------------------------------------------------------------------*/
FoamFile
{
    version     2.0;
    format      ascii;
    class       scalarField;
    location    "0.4/lagrangian/reactingCloud1";
    object      nParticle;
}
// * * * * * * * * * * * * * * * * * * * * * * * * * * * * * * * * * * * * * //


67
(
101.1410419
100.4433994
100.9915351
101.2179045
104.6445074
101.2557237
100.2635403
102.3700462
100.8983533
112.6477614
101.5106352
100.4507738
101.3693248
1408.463025
1840.926585
158.9921529
1783.241809
198.960594
279.5156785
7064.835422
100.0945477
101.0282095
100.4320612
100.3685452
686.2745336
100.3417416
101.1930406
2286.947451
6495.963338
101.1195437
101.2136763
2091.932236
2039.206195
100.1327523
2393.23073
100.269952
100.7430024
1294.643202
100.2430471
1650.800218
102.913241
136.0285992
101.4113711
103.211999
104.1254827
101.262601
103.451222
4973.295686
156.4224158
258.2074875
101.6462426
100.0001012
263.1589489
5447.835781
2817.641085
103.1635548
100.429845
102.3284354
1840.575413
100.0605599
1856.968984
101.6490958
2557.324661
100.879917
100.1385566
4740.018988
100.5446099
)


// ************************************************************************* //
