/*--------------------------------*- C++ -*----------------------------------*\
  =========                 |
  \\      /  F ield         | OpenFOAM: The Open Source CFD Toolbox
   \\    /   O peration     | Website:  https://openfoam.org
    \\  /    A nd           | Version:  8
     \\/     M anipulation  |
\*---------------------------------------------------------------------------*/
FoamFile
{
    version     2.0;
    format      ascii;
    class       Cloud<basicReactingMultiphaseParcel>;
    location    "0.4/lagrangian/reactingCloud1";
    object      positions;
}
// * * * * * * * * * * * * * * * * * * * * * * * * * * * * * * * * * * * * * //

67
(
(0.7798040663 0.1260909236 0.006606203092 0.08749880706) 1390 4092 2
(0.1854457148 0.3509848703 0.2031366536 0.2604327613) 1437 1959 2
(0.5527958123 0.07731503789 0.005568368913 0.3643207809) 1435 1953 2
(0.1731596808 0.1098125495 0.6862266825 0.03080108727) 4556 13280 1
(0.2155157679 0.467621005 0.3007405397 0.01612268744) 4538 11024 1
(0.07731038615 0.1181315967 0.1110316808 0.6935263364) 4520 13250 1
(0.1782823733 0.2086818335 0.114699824 0.4983359693) 4539 13307 2
(0.1477107091 0.2703812165 0.5650013364 0.01690673796) 5319 15586 2
(0.02149500084 0.0587474241 0.8182954915 0.1014620835) 7716 22596 1
(0.3146915832 0.6293281423 0.02941277794 0.02656749661) 6017 17620 2
(0.004008659267 0.0840739959 0.6372755949 0.27464175) 6890 20178 2
(0.5688697165 0.1327166184 0.005863398293 0.2925502668) 9332 27320 1
(0.5989326777 0.1351729312 0.01479149631 0.2511028948) 3566 10456 1
(0.4530638855 0.248376217 0.106692707 0.1918671905) 1385 1806 2
(0.3068234116 0.1827084712 0.2643479751 0.2461201421) 5846 17114 2
(0.1569654643 0.03462490649 0.4708974629 0.3375121663) 12637 36993 2
(0.02764041453 0.02346003861 0.7170926543 0.2318068926) 9863 28865 1
(0.2465800528 0.1624495022 0.2276924843 0.3632779608) 14400 42060 1
(0.4624527621 0.03066549593 0.3385106692 0.1683710727) 14369 42060 2
(0.471211596 0.1319409181 0.05462943844 0.3422180475) 4374 12814 2
(0.0649887874 0.1972992328 0.2749776199 0.4627343599) 15218 41998 2
(0.7358166801 0.07087521615 0.04742204616 0.1458860576) 15217 44540 1
(0.3223085342 0.06176998589 0.4273532556 0.1885682243) 15223 44558 1
(0.6410157339 0.1798636536 0.013299532 0.1658210805) 16145 44711 1
(0.1159773805 0.0199434384 0.0298933083 0.8341858728) 6768 17521 2
(0.2212496656 0.2082040167 0.4398447404 0.1307015773) 6903 20217 2
(0.0764707407 0.6402591818 0.07547649248 0.207793585) 16902 206975 2
(0.1160937486 0.1244632714 0.4554631422 0.3039798377) 12402 36291 2
(0.2211641496 0.07451261932 0.4575141122 0.2468091189) 17864 52288 1
(0.2056336199 0.5506914369 0.1873585003 0.05631644293) 16901 49468 2
(0.3448784354 0.2648549408 0.1851839326 0.2050826912) 17782 52044 1
(0.06322779135 0.6358058729 0.1000191399 0.2009471958) 10126 29554 2
(0.145576293 0.3944900354 0.4146073664 0.04532630522) 5209 15183 1
(0.4089978399 0.2854816753 0.07020480138 0.2353156834) 18667 54769 2
(0.06240657855 0.0757027243 0.4349149441 0.426975753) 56626 171817 2
(0.1295770619 0.2575394761 0.3602219952 0.2526614668) 52375 161156 1
(0.1017002071 0.1014097267 0.6919662494 0.1049238168) 52372 161146 1
(0.1502643267 0.2264046987 0.2129766849 0.4103542896) 59679 179153 2
(0.074479117 0.3512647384 0.3905516813 0.1837044633) 54841 167325 2
(0.1294308135 0.02746987644 0.4455393263 0.3975599837) 54826 167274 1
(0.2476754649 0.2600275616 0.3809237991 0.1113731744) 55300 168496 2
(0.3230953856 0.6182642876 0.05414559497 0.004494731883) 19431 54262 1
(0.6958100115 0.009287037236 0.2440648062 0.05083814506) 55300 168496 1
(0.1278919639 0.2092425963 0.1578998485 0.5049655913) 55300 168490 1
(0.5171002164 0.3199614507 0.004407501455 0.1585308315) 19431 54262 2
(0.0495229303 0.4603782852 0.04467259965 0.4454261848) 56268 167817 2
(0.1558672841 0.6257547776 0.1477769072 0.07060103106) 55291 168474 2
(0.1739520556 0.4370377692 0.1865821041 0.2024280712) 65535 193637 1
(0.2381634555 0.4515081056 0.2308471159 0.0794813231) 56449 171370 1
(0.5899714762 0.04001647524 0.0980964575 0.2719155911) 19460 57509 2
(0.6115266345 0.04352779451 0.2391237049 0.1058218661) 56335 171079 2
(0.287941729 0.2530773632 0.1609807989 0.2980001089) 56216 170778 1
(0.3710817208 0.3259139239 0.2793629077 0.02364144769) 19462 54354 3
(0.6154035728 0.009970308109 0.106713845 0.2679122741) 34391 109871 1
(0.03920811564 0.7694079649 0.104433757 0.0869501625) 37865 117679 2
(0.4631472505 0.3578533088 0.1232560877 0.055743353) 52413 161252 2
(0.1172364948 0.01578423312 0.2040056836 0.6629735884) 50918 157400 1
(0.1319617597 0.07924868029 0.2327121356 0.5560774244) 58794 177043 2
(0.0451344437 0.2292768192 0.2793332069 0.4462555301) 37031 117683 2
(0.2254934732 0.4899224883 0.1117492107 0.1728348278) 58789 157398 1
(0.8168437091 0.1418648749 0.03509165796 0.006199757969) 6417 206525 2
(0.3911210918 0.1626911063 0.2294867404 0.2167010614) 58879 177216 1
(0.1369983429 0.1778915114 0.6301795535 0.05493059228) 38698 122554 2
(0.09188970716 0.3110063919 0.2407636686 0.3563402323) 58892 77567 1
(0.3094218523 0.02912405267 0.3003333744 0.3611207207) 50904 203130 1
(0.3271227107 0.1584976715 0.2347305987 0.279649019) 36246 115376 1
(0.2776440346 0.3393196294 0.3444675734 0.03856876255) 50905 203287 1
)


// ************************************************************************* //
