/*--------------------------------*- C++ -*----------------------------------*\
  =========                 |
  \\      /  F ield         | OpenFOAM: The Open Source CFD Toolbox
   \\    /   O peration     | Website:  https://openfoam.org
    \\  /    A nd           | Version:  8
     \\/     M anipulation  |
\*---------------------------------------------------------------------------*/
FoamFile
{
    version     2.0;
    format      ascii;
    class       volScalarField;
    location    "0.3";
    object      epsilon;
}
// * * * * * * * * * * * * * * * * * * * * * * * * * * * * * * * * * * * * * //

dimensions      [0 2 -3 0 0 0 0];

internalField   nonuniform List<scalar> 
67286
(
0.1589466846
0.1272939139
0.1033264191
0.03385855691
0.002624557155
0.003490131851
0.01955425089
0.04101290332
0.07532852994
0.1626893561
0.1850605842
0.07130362873
0.03536247967
0.003783695989
0.001524235501
0.0004052855776
6.636583244e-05
1.303962075e-05
8.383797521e-06
8.135851852e-06
8.126635082e-06
8.126561951e-06
8.126508398e-06
8.127223878e-06
8.127322824e-06
8.129027894e-06
8.128506596e-06
8.22254736e-06
0.2852742767
0.2426445338
0.2307916034
0.1327240295
0.06203965636
0.06167706592
0.002625796824
0.02212614149
0.0519593379
0.09526262176
0.1019200135
0.05035706742
0.02104355387
0.001940313483
0.0004662458988
7.185771233e-05
1.372369237e-05
8.461787543e-06
8.146376035e-06
8.131027552e-06
8.12865101e-06
8.128377645e-06
8.127755559e-06
8.128540566e-06
8.128893771e-06
8.132360459e-06
8.160919732e-06
1.335093522e-05
8.207123314e-06
8.160272136e-06
8.157384027e-06
1.423913699e-05
0.4128003819
0.3794811608
0.3800770948
0.2858137139
0.2135465555
0.1886356164
0.03591350776
0.003202897832
0.0250565763
0.05078332334
0.0535445619
0.02610835717
0.002413980555
0.0006198390164
9.239393927e-05
1.501124453e-05
8.501449362e-06
8.146566632e-06
8.130609698e-06
8.129115187e-06
8.128474286e-06
8.128792594e-06
8.128954011e-06
8.130116791e-06
8.133072016e-06
8.25198414e-06
1.040151375e-05
0.0001256244975
1.085574073e-05
8.909047824e-06
9.352897976e-06
0.0001346357891
0.543688239
0.5392451535
0.5502762851
0.524406556
0.640376573
0.6010684009
0.2934111494
0.1152554833
0.02844321282
0.004470390159
0.01932089984
0.002558041708
0.0008102861698
0.000145013747
2.184356281e-05
9.013942461e-06
8.173274553e-06
8.133835892e-06
8.131191306e-06
8.130828162e-06
8.12997121e-06
8.130641741e-06
8.131168888e-06
8.138119107e-06
8.267866982e-06
1.255660879e-05
7.324227224e-05
0.001039654112
5.600690382e-05
2.362045235e-05
4.008269213e-05
0.001074615626
0.000143367754
0.7190136653
0.8137713407
0.9378153865
0.8510421011
0.4819114761
0.3499162282
0.1594167569
0.05893229678
0.002710782428
0.0019368256
0.001544898107
0.0006403087034
0.0001424385025
2.424689167e-05
9.340048953e-06
8.197268831e-06
8.136748758e-06
8.132698737e-06
8.131270428e-06
8.131286979e-06
8.130787652e-06
8.132561956e-06
8.146110952e-06
8.436496067e-06
1.29813367e-05
8.609935192e-05
0.0006487855493
0.003729037743
0.0004334362722
0.0001915127555
0.0003561085128
0.003761479374
0.001056971301
1.091369508
1.383356012
1.615766655
1.331878693
0.7092730699
0.4022259443
0.2280806941
0.07712710527
0.003233051395
0.0009413857216
0.0003781268227
0.0001042869971
2.210827119e-05
9.361074599e-06
8.207245615e-06
8.138032724e-06
8.133640521e-06
8.132881639e-06
8.131984109e-06
8.132721994e-06
8.132792315e-06
8.155737338e-06
8.738021318e-06
1.693059062e-05
9.104751397e-05
0.0006334850971
0.002481133981
0.04034210159
0.001897483543
0.00118691194
0.001604423318
0.03875890255
0.003500920521
0.7674450439
0.9210531171
1.123375188
1.077145576
0.5587232946
0.3150976245
0.1152718251
0.02129221611
0.0009427381529
0.0001841154761
5.029381934e-05
1.548146243e-05
8.905520372e-06
8.189685641e-06
8.138418434e-06
8.134369245e-06
8.133309745e-06
8.132952677e-06
8.132420347e-06
8.134253334e-06
8.156332442e-06
9.038428699e-06
2.400713695e-05
0.0001411126125
0.0006773265378
0.002325362511
0.02350939273
0.06594159877
0.0221975404
0.003819682841
0.004110702687
0.05809236247
0.03430604097
0.5174498422
0.598960677
0.6918809032
0.6520900299
0.2827016496
0.1207920678
0.02523301782
0.001183786491
0.0001635605446
2.793524786e-05
1.121833199e-05
8.514320863e-06
8.312946567e-06
8.180878536e-06
8.14561371e-06
8.137986872e-06
8.135862838e-06
8.135572217e-06
8.134713737e-06
8.149145406e-06
9.03222888e-06
2.996537209e-05
0.0002245403333
0.0009985138078
0.002578921239
0.02198586231
0.04228537245
0.09785181993
0.04752263233
0.03877711144
0.03553746885
0.07205395499
0.05399781607
0.3090671229
0.3337105345
0.3913574517
0.3304794554
0.09529933631
0.02214180533
0.001130367664
0.0001614044527
2.226320025e-05
9.380991434e-06
8.286600057e-06
9.371060805e-06
6.427169138e-05
2.081306228e-05
9.316807488e-06
8.213267545e-06
8.139729795e-06
8.13615535e-06
8.140669723e-06
8.641460695e-06
2.665061131e-05
0.0002593828153
0.001344090392
0.003281082226
0.02403100622
0.03888557851
0.06514913123
0.169822785
0.07167412404
0.06022522551
0.05302322527
0.09040753759
0.06834145203
0.140986212
0.1405208892
0.1496248539
0.09573839317
0.004207917737
0.0009896513067
0.0001457648251
2.058276688e-05
8.987763703e-06
8.254194309e-06
1.310870629e-05
0.0002294443785
0.001069079585
0.0003197602321
4.397225569e-05
1.051049622e-05
8.269989912e-06
8.151733789e-06
8.35314627e-06
1.789078462e-05
0.0001908398298
0.001355088893
0.003994209271
0.03411352873
0.04470500439
0.05580499705
0.07953298021
0.1525855598
0.07673495651
0.06928534954
0.06270817692
0.1533729535
0.09184720955
0.03827642652
0.03551356739
0.03007183356
0.003378388882
0.0007486169532
0.0001125829332
1.767053506e-05
8.716007058e-06
8.350728002e-06
2.088238074e-05
0.0004519468683
0.002251541161
0.01923930742
0.001945594798
0.0003541426085
3.753668308e-05
1.050026468e-05
8.422752494e-06
1.115010276e-05
4.585555102e-05
0.0002021424202
0.0004136835196
0.002051061061
0.01930105334
0.03366187159
0.04664573794
0.06198618881
0.1142464764
0.07881911409
0.06987343223
0.06630689947
0.1289680357
0.07433975071
0.00200318339
0.001646118969
0.001216307683
0.0004779823949
7.907392581e-05
1.481849766e-05
8.807590096e-06
9.198006307e-06
4.699575062e-05
0.0008319715811
0.003446059854
0.03586946923
0.05137276162
0.02057311185
0.001465667944
0.0002231815482
4.519124411e-05
1.49701787e-05
6.533666e-05
0.0004627977046
0.001461758525
0.0001777028279
0.0008309963554
0.002895433421
0.02464883171
0.03781583606
0.05043988605
0.0792259019
0.06541389228
0.0637372555
0.05399563255
0.08128864462
0.05415333187
0.0002842703389
0.0002332079247
0.000145359638
4.598966003e-05
1.248322907e-05
8.476306322e-06
1.102790253e-05
0.0001195453921
0.001317169538
0.01969955908
0.04912256774
0.07239671269
0.07191218943
0.0441324423
0.003465180785
0.001018857675
0.0003854928677
0.0001051330207
0.0005392731554
0.002392765265
0.02328843598
0.001245061559
0.0001875759883
0.001201013489
0.003363185953
0.02694464179
0.03963976821
0.060363987
0.04992734862
0.05632155076
0.04542561781
0.05464802764
0.04289723325
3.085867702e-05
2.656650275e-05
1.777685814e-05
1.012071523e-05
8.460887771e-06
1.726669769e-05
0.0002286502229
0.001752083036
0.02610356508
0.05905384432
0.08096817963
0.08935855659
0.09960271246
0.08772355474
0.04654258086
0.004019718716
0.002012552987
0.000670816564
0.002259966411
0.03189772333
0.06421837526
0.0298935691
0.0007755238216
0.0002550101965
0.001345814688
0.003473188845
0.02722577041
0.04289932222
0.02997402066
0.04345695379
0.03954373021
0.04799575501
0.0374718701
1.003632577e-05
9.087207151e-06
8.590206064e-06
8.560798812e-06
2.665366638e-05
0.0003734440866
0.002602438236
0.04263612229
0.08906504792
0.1126137589
0.13168071
0.1564030615
0.1500597533
0.1197681685
0.08126878931
0.0479951705
0.0240307389
0.002321400647
0.02489947779
0.07311535333
0.1144284552
0.09625111844
0.01945140252
0.001102612353
0.0002823899465
0.001257642469
0.003169099848
0.02441359829
0.002814909981
0.0223418228
0.02581578606
0.04379046893
0.02978109669
8.959977973e-06
8.127251041e-06
8.154354275e-06
9.295908991e-06
4.87070365e-05
0.0005768762573
0.003033911539
0.04197555435
0.08086522774
0.1087439552
0.1356073727
0.1636761125
0.1623842431
0.1090991243
0.06764314581
0.04491985281
0.01974703509
0.003676257175
0.05613291781
0.1255866034
0.2366460993
0.2420956007
0.1077357833
0.03650642819
0.001464259596
0.0001985256916
0.0009141587064
0.002632319955
0.0005219855632
0.001847518287
0.00257707707
0.03495082652
0.003844594295
8.924561409e-06
8.089559853e-06
8.130251829e-06
8.649845691e-06
2.589806616e-05
0.0002837421965
0.001814928044
0.02573243805
0.06209355973
0.09247871558
0.1141864943
0.1290899206
0.122746507
0.07746684639
0.05159774422
0.004478047207
0.02445603319
0.04677360574
0.07681180166
0.1334798232
0.2280852056
0.2641854025
0.1348633713
0.07434047828
0.027074934
0.001547129994
0.0001419398536
0.0008549175518
5.018011353e-05
0.0002082563305
0.0003996748732
0.004060946152
0.001293965311
8.924279215e-06
8.087850101e-06
8.122383288e-06
8.214957378e-06
1.151987668e-05
7.423932538e-05
0.0006405339311
0.002800002391
0.03380359978
0.06577210619
0.08658390489
0.09521391054
0.0844514649
0.05175120146
0.02737547374
0.002360643257
0.00433234061
0.03830374119
0.05941248474
0.08943903734
0.1370350779
0.1495654425
0.09015129082
0.0412205372
0.002877856549
0.0004703157994
0.0008018525426
0.02909509241
0.0004371873294
4.647005274e-05
0.0001216848423
0.001068119141
0.0004074133089
8.923499488e-06
8.087263445e-06
8.120403874e-06
8.132210095e-06
8.501321593e-06
1.725154664e-05
0.0001317808189
0.0008826187927
0.003098231664
0.03234148056
0.05590608188
0.06632118493
0.05740939192
0.02842963781
0.002704676087
0.0009586658751
0.002541237561
0.02241975892
0.03909550533
0.05476708047
0.07173943997
0.06258937814
0.0358092379
0.002994457808
0.0005207675093
0.0009192287695
0.02755890836
0.1666770949
0.00282065697
0.0004685990737
0.001325309674
0.0005881624382
0.00211589332
8.921985746e-06
8.086697824e-06
8.119508814e-06
8.122793375e-06
8.150199256e-06
8.907320955e-06
2.21362214e-05
0.0001553840022
0.0008609979803
0.002669149216
0.02311199191
0.03636784411
0.03490483588
0.002638021474
0.0007769267091
0.0002402596298
0.0009754362447
0.002670813115
0.02065967162
0.03275217518
0.04143198038
0.02187993168
0.002507779267
0.0005116490235
0.0009490728
0.03004423219
0.1479079015
0.4038017022
0.05830792816
0.003162552507
0.06194242736
0.00171243883
0.04744013497
8.920254567e-06
8.086181042e-06
8.118839632e-06
8.121389789e-06
8.123658671e-06
8.168419313e-06
9.117153358e-06
2.216471033e-05
0.0001288911797
0.0006132179851
0.001756920914
0.003161151069
0.003602688658
0.0006924089972
0.0001239527339
4.205608414e-05
0.0002217638725
0.0009197801843
0.002312923667
0.003878885436
0.0220001867
0.001697618961
0.000455706167
0.0007151135328
0.02876715672
0.1650121836
0.4426423891
0.6655312685
0.185492667
0.1214966109
0.7574852114
0.002310498777
0.1252503322
8.918590506e-06
8.085734532e-06
8.118280468e-06
8.120653999e-06
8.12143208e-06
8.124210626e-06
8.170604085e-06
8.955580244e-06
1.765208065e-05
7.671066322e-05
0.0003072609828
0.0007930061072
0.001150500673
9.288314994e-05
1.849340273e-05
1.127499468e-05
3.553116939e-05
0.0001824531011
0.0006917997751
0.001687599396
0.002681011749
0.0004045473955
0.001059791437
0.02605109678
0.1028450991
0.2184796255
0.4187495942
0.6828572352
0.2210355591
0.1224592901
0.2022876549
0.004024444223
0.004357910817
8.917126244e-06
8.085366942e-06
8.11782835e-06
8.120088763e-06
8.120650206e-06
8.121392151e-06
8.123794853e-06
8.156177851e-06
8.589090464e-06
1.246056993e-05
3.357968575e-05
9.880085983e-05
0.000179792662
1.420102243e-05
8.756844657e-06
8.3258792e-06
1.032320246e-05
2.717612217e-05
0.0001186863819
0.0004231245983
0.001026038235
6.978378073e-05
0.000388815044
0.00278538643
0.05685709342
0.1575671695
0.2825889816
0.5059091818
0.1880473197
0.0878013274
0.04199677617
0.001356267834
0.0009163282471
8.915906274e-06
8.085074812e-06
8.117473732e-06
8.119647929e-06
8.120086317e-06
8.120566292e-06
8.121203933e-06
8.122858483e-06
8.137737435e-06
8.293144895e-06
9.351157025e-06
1.346846563e-05
2.074638637e-05
8.420948148e-06
8.151963398e-06
8.135214886e-06
8.242983589e-06
9.41172996e-06
1.822144945e-05
6.163676458e-05
0.0002065370158
1.493976458e-05
7.524985701e-05
0.0007497401251
0.003852091346
0.07020105095
0.1657374027
0.3160040844
0.1086842627
0.03183727061
0.002199226644
0.0001983671455
0.001058094341
8.914929145e-06
8.084848967e-06
8.117202674e-06
8.119310565e-06
8.11966058e-06
8.12000774e-06
8.120435556e-06
8.120976966e-06
8.121828125e-06
8.126527726e-06
8.159505357e-06
8.309131398e-06
8.647142713e-06
8.133753675e-06
8.124345592e-06
8.124784437e-06
8.128868558e-06
8.182629319e-06
8.691476016e-06
1.198431962e-05
2.770448753e-05
8.639542993e-06
1.492154821e-05
0.0001130836851
0.0009092103511
0.004052211239
0.06763521078
0.1888188871
0.03222367651
0.001544688332
0.0004006723104
0.001287317187
0.02050729718
8.914174595e-06
8.084679009e-06
8.117000754e-06
8.119058737e-06
8.119344826e-06
8.119604552e-06
8.119920819e-06
8.120295306e-06
8.120699969e-06
8.121222344e-06
8.122226126e-06
8.126096098e-06
8.135661095e-06
8.122744372e-06
8.122648947e-06
8.123243748e-06
8.123590329e-06
8.125947581e-06
8.145042973e-06
8.293800666e-06
9.186760014e-06
8.151174676e-06
8.54481975e-06
1.653780928e-05
0.0001163566716
0.0008588747409
0.003627700239
0.07930639039
0.001628785014
0.0002217356463
5.328875919e-05
0.0003927725369
0.002401054283
8.913617906e-06
8.084546638e-06
8.116820189e-06
8.118831122e-06
8.119069651e-06
8.119269168e-06
8.119510985e-06
8.119794901e-06
8.120108514e-06
8.120449121e-06
8.120774341e-06
8.121161027e-06
8.121583311e-06
8.121671658e-06
8.12190416e-06
8.122311595e-06
8.122618308e-06
8.123157324e-06
8.124002873e-06
8.128639849e-06
8.158471326e-06
8.125592352e-06
8.142067283e-06
8.52617415e-06
1.515401552e-05
9.611077962e-05
0.0006698766897
0.003874167572
0.0002109265459
2.472058213e-05
1.126159321e-05
5.707751049e-05
0.0005541338486
8.913164192e-06
8.08408975e-06
8.115704151e-06
8.117539855e-06
8.117728706e-06
8.117882698e-06
8.118069876e-06
8.118290269e-06
8.118538386e-06
8.118807303e-06
8.119079792e-06
8.119357253e-06
8.119616078e-06
8.119880205e-06
8.120136955e-06
8.120453164e-06
8.120766616e-06
8.121162569e-06
8.121560618e-06
8.122065459e-06
8.123146054e-06
8.12290245e-06
8.124131335e-06
8.136154967e-06
8.381845242e-06
1.276120257e-05
6.142455177e-05
0.0006072752376
1.857597899e-05
8.889775572e-06
8.253327887e-06
1.120156838e-05
6.613251223e-05
8.908637537e-06
8.072693565e-06
8.096125668e-06
8.097034186e-06
8.097140276e-06
8.09724702e-06
8.097376944e-06
8.09752889e-06
8.097699453e-06
8.09788343e-06
8.098073204e-06
8.098263755e-06
8.098450162e-06
8.098635134e-06
8.098832581e-06
8.099058789e-06
8.099310948e-06
8.099607019e-06
8.099932126e-06
8.100279724e-06
8.100695026e-06
8.101063245e-06
8.10162217e-06
8.10265336e-06
8.108359814e-06
8.228806082e-06
1.004185778e-05
4.353336901e-05
8.36797819e-06
8.126101055e-06
8.107965551e-06
8.200550937e-06
1.087588521e-05
9.180732386e-06
8.377119974e-06
8.390438092e-06
8.390846018e-06
8.391031007e-06
8.391260527e-06
8.39153427e-06
8.391845251e-06
8.392183436e-06
8.39253629e-06
8.392889976e-06
8.393234301e-06
8.393569293e-06
8.3938993e-06
8.394276897e-06
8.394724002e-06
8.395253736e-06
8.395875013e-06
8.396572112e-06
8.397294919e-06
8.398134512e-06
8.398888944e-06
8.399903087e-06
8.401678327e-06
8.402789342e-06
8.408832664e-06
8.436230475e-06
9.173070077e-06
8.408758807e-06
8.409856724e-06
8.407451936e-06
8.41036168e-06
8.471441968e-06
0.008103847933
0.02000580617
0.01833511881
0.005348660358
0.003112627246
0.00239130165
0.004086641433
0.003432965349
0.01687692996
0.1805001057
0.2210992996
0.04762378045
0.001930474677
0.0003313300596
0.0001304710106
2.463031205e-05
4.260501314e-06
1.636992345e-06
1.276892515e-06
1.197404755e-06
1.160885109e-06
1.167451787e-06
1.149512903e-06
1.200189917e-06
1.171775123e-06
1.282485587e-06
1.209835542e-06
1.434986839e-06
0.07816851861
0.03566078148
0.04390613318
0.0345633109
0.03283968954
0.01652493426
0.01746697224
0.00774447825
0.004887726022
0.01031387063
0.01566752494
0.002581603552
0.0009938929375
0.0002671334259
4.883944253e-05
7.559220105e-06
2.474919354e-06
1.721078103e-06
1.467357028e-06
1.344822936e-06
1.260405372e-06
1.253871071e-06
1.213736364e-06
1.282807464e-06
1.24451209e-06
1.410309526e-06
1.321973196e-06
1.876274666e-06
1.324094915e-06
1.70277397e-06
1.363438512e-06
2.026876058e-06
0.1484546323
0.08173460768
0.103060039
0.1258208946
0.2181671088
0.1641607101
0.1183525856
0.02317972482
0.007898202526
0.003535550579
0.001835908621
0.001205265643
0.0003362951085
6.457070427e-05
9.41645195e-06
2.43413589e-06
1.568915554e-06
1.351853636e-06
1.262967205e-06
1.239580041e-06
1.214861664e-06
1.259329432e-06
1.242551445e-06
1.365016413e-06
1.337494207e-06
1.62936317e-06
1.603812634e-06
7.343179586e-06
1.603136825e-06
2.215707712e-06
1.587524292e-06
8.865230239e-06
0.2549393263
0.2699590512
0.4378232204
0.6324176407
1.093231731
0.9186117658
0.6730912855
0.2655358401
0.02655996154
0.01316534591
0.002914934512
0.0006271924025
0.000125366504
1.834280472e-05
3.765536608e-06
2.007087364e-06
1.636793815e-06
1.471777824e-06
1.374094935e-06
1.346278701e-06
1.305517579e-06
1.367473395e-06
1.354166829e-06
1.529954405e-06
1.568832471e-06
2.189627137e-06
4.271701992e-06
8.264606223e-05
3.70442096e-06
4.066441099e-06
3.306063502e-06
9.937990076e-05
8.538424769e-06
0.5789623566
0.6164307288
0.7368892411
0.813306667
0.6181087562
0.4964960662
0.3510066533
0.02957283911
0.08758178666
0.1236693653
0.01150843498
0.0006710388067
3.453039537e-05
4.629616697e-06
2.130887463e-06
1.624376186e-06
1.440424173e-06
1.356810861e-06
1.309077355e-06
1.331464065e-06
1.31965094e-06
1.436480476e-06
1.469469314e-06
1.782748712e-06
2.194110777e-06
6.839310108e-06
4.162835057e-05
0.000522232833
2.864126495e-05
2.286848073e-05
2.684391238e-05
0.0006403751618
8.400615472e-05
0.6451860447
0.9618075184
1.17290688
1.00318839
0.8257390864
0.3680600708
0.09341539474
0.01926566199
0.005035856499
0.004406906621
0.000299351231
2.206482637e-05
4.468313998e-06
2.424166004e-06
1.913303039e-06
1.664942305e-06
1.519180672e-06
1.452502656e-06
1.405514447e-06
1.447788858e-06
1.457842276e-06
1.630036427e-06
1.826569172e-06
2.643118765e-06
7.692594656e-06
6.32471221e-05
0.0002600220511
0.001959341764
0.0002084607302
0.0002223179002
0.0002414685169
0.004526040838
0.0005010437369
0.3533692036
0.4693580536
0.8255966043
0.8522579746
0.6252616731
0.09444836965
0.02218847876
0.002486764506
0.0004023951228
0.0001640011025
1.428507475e-05
3.54160685e-06
2.253124148e-06
1.89981599e-06
1.674523919e-06
1.527204818e-06
1.457012277e-06
1.431157468e-06
1.418058664e-06
1.510008247e-06
1.562808377e-06
1.909967826e-06
3.168000168e-06
1.16441207e-05
6.993417262e-05
0.0003322701427
0.0004945309568
0.002705299986
0.0007351115973
0.001452540477
0.001268023937
0.004765252259
0.002458642702
0.1950519461
0.1222155452
0.2307746412
0.2489939033
0.168751137
0.02007617246
0.003203497644
0.0003207067099
4.236559014e-05
9.138823527e-06
3.497350652e-06
2.555746245e-06
2.282301831e-06
1.991510216e-06
1.82728414e-06
1.701378315e-06
1.595590593e-06
1.580510155e-06
1.573765673e-06
1.728044381e-06
1.971797942e-06
3.672061928e-06
1.956451914e-05
0.0001202447155
0.0003905243764
0.0008275147299
0.001620717651
0.01604587997
0.00206629606
0.007008480335
0.006920761811
0.00732006594
0.002038778042
0.092555575
0.05919207904
0.05258975741
0.03414146459
0.02338488645
0.001938863709
0.0002987134749
3.39908309e-05
6.348514222e-06
3.156041223e-06
2.573656078e-06
2.521430299e-06
5.05896895e-06
2.873788011e-06
1.993960068e-06
1.713207347e-06
1.648713897e-06
1.622037604e-06
1.696896789e-06
1.949271854e-06
3.197350716e-06
2.139956895e-05
0.0001582569944
0.0004725220213
0.0006150899175
0.001804972387
0.0594209541
0.2126880421
0.04612989701
0.008960309344
0.01635787433
0.06045794103
0.005565167438
0.00732812478
0.02201229992
0.0188294558
0.008868318255
0.002033966792
0.0002078466681
2.972823772e-05
5.934246705e-06
2.96903802e-06
2.524225336e-06
3.145600021e-06
1.721394034e-05
9.367907152e-05
2.451473246e-05
4.750697089e-06
2.385511157e-06
1.98938393e-06
1.926554668e-06
2.055322227e-06
2.851968479e-06
1.47103863e-05
0.0001601487441
0.0007466277218
0.002198059932
0.003074766018
0.01289545914
0.09120784452
0.1749260332
0.07818782844
0.03810924735
0.1117274009
0.1853071508
0.09498602706
0.00216858502
0.004051021008
0.002744151977
0.0006604460914
0.0001708681143
2.038685622e-05
6.84011997e-06
1.496063612e-05
3.141862552e-06
4.320763835e-06
4.472481058e-05
0.0002983384391
0.000843143824
0.0002524099841
3.36456954e-05
4.538204617e-06
2.543267941e-06
2.104141808e-06
2.495258023e-06
4.614241411e-06
1.883310516e-05
3.801727792e-05
0.0002878074654
0.0008078601044
0.001961102692
0.005106142219
0.04627710348
0.1425620343
0.03738431495
0.03302478554
0.07890854564
0.1385015871
0.07800835327
0.0003702156704
0.0003679043526
0.0002297884899
5.978571724e-05
1.563407076e-05
5.746990396e-06
0.0002239104825
0.0004982859904
1.603771307e-05
9.860434592e-05
0.0006266956041
0.003838481398
0.003523439086
0.0006786743971
0.0001810843841
2.524646274e-05
6.450039579e-06
3.269459043e-06
6.286478816e-06
3.759030033e-05
0.0001755346814
4.436982456e-05
0.0001236467965
0.00065541777
0.001542433301
0.003355923762
0.00403301308
0.05695226732
0.01718985898
0.02748274199
0.03626330541
0.07868744651
0.03286988826
4.537783326e-05
3.397431044e-05
2.117249751e-05
6.86292251e-06
3.393481687e-06
2.584466578e-06
4.73755552e-06
2.195076705e-05
0.0001880096424
0.001261211806
0.006024799238
0.006145654968
0.008066543791
0.005722834999
0.003269848166
0.0001763283811
4.578609761e-05
1.272065854e-05
4.968470399e-05
0.0002762535901
0.001240630265
0.0004248630584
3.273058229e-05
0.0002177130376
0.0008921838977
0.001894348814
0.003374460565
0.009032952304
0.0143457019
0.02087329927
0.005984640649
0.0334431596
0.004186865499
1.217288126e-05
5.158865267e-06
3.653352161e-06
2.530797674e-06
2.294243849e-06
2.873720681e-06
1.849732039e-05
0.0002428114859
0.00258142767
0.004816536378
0.006546685223
0.03799521318
0.09563967798
0.1001959667
0.07191778289
0.004530412941
0.0003605718123
0.0001207019721
0.0003487773593
0.002070222541
0.004148473553
0.007630910723
0.0002022656328
6.510373417e-05
0.0002548896358
0.0008723027822
0.001792420876
0.005546964721
0.006573016512
0.01439957241
0.003182612608
0.007210742098
0.002223002997
1.00166107e-05
2.723700458e-06
2.094718711e-06
2.048392751e-06
2.924490409e-06
2.336201632e-05
0.0002998382507
0.004077160901
0.00626243486
0.01619177746
0.05814039884
0.1115080849
0.1232159175
0.1142457168
0.09918745586
0.006186217636
0.002751019341
0.0007025099388
0.002042245991
0.008056175874
0.06113358331
0.08200693235
0.003112548484
0.0004628046315
6.826195295e-05
0.0002249038024
0.0007081271591
0.002832917357
0.0007949627699
0.004064186145
0.002556357135
0.004735186496
0.001414388268
9.933504253e-06
2.312381174e-06
1.776572509e-06
1.890754337e-06
3.63216039e-06
3.776488666e-05
0.0003724058051
0.003271889692
0.004271352256
0.01329721806
0.06290274052
0.1184026182
0.1304269011
0.1007759652
0.05097463029
0.005999745499
0.00198877665
0.001035811196
0.01863521473
0.1081127067
0.2264007142
0.2086347089
0.0644311082
0.008323013743
0.0004085661988
4.471151224e-05
0.0001325313771
0.0006160732277
6.933167334e-05
0.0005130925447
0.0005651604686
0.003364263065
0.0008396589009
9.952774827e-06
2.146420364e-06
1.630685947e-06
1.775855538e-06
2.809226405e-06
1.859917666e-05
0.0002004898256
0.001939095021
0.005288240539
0.007118792263
0.02786335082
0.06756797341
0.08040167732
0.05742164667
0.0124148033
0.001951035839
0.002855352187
0.00653743442
0.03756710585
0.1130032447
0.2200290568
0.2519443911
0.04108863431
0.002415094499
0.001867785259
0.0002569173492
3.178681903e-05
0.000216270184
2.052346296e-05
4.539052836e-05
0.0003761720763
0.002319461085
0.0004746510525
9.959615791e-06
2.040754438e-06
1.512957714e-06
1.620486838e-06
2.028355274e-06
5.888715779e-06
5.342269439e-05
0.0004258445306
0.003232499869
0.0054163375
0.008376576963
0.01486769281
0.01967842168
0.01408320058
0.004549239331
0.0008379629569
0.001211297216
0.003862883352
0.02274874583
0.06992955594
0.1282967913
0.1467897122
0.006584782276
0.003019706749
0.0004657455991
7.371146896e-05
0.0003349540962
0.003457013253
0.0002433639053
0.00023784566
0.006793726525
0.01878239144
0.003543512942
9.957991438e-06
1.965259558e-06
1.423013311e-06
1.498237566e-06
1.711758068e-06
2.561449155e-06
1.059445627e-05
8.710673554e-05
0.0005260425948
0.002979378134
0.004585770152
0.003911474999
0.002919619742
0.001554341906
0.000775621265
0.0002261185039
0.0005252300396
0.001430139917
0.003990652676
0.0178609372
0.03579791651
0.01744371217
0.001999013595
0.0005142902935
8.818981295e-05
0.000293866014
0.007002832348
0.02841485725
0.002898633821
0.005456398802
0.09937265235
0.1941197535
0.03848861393
9.950461644e-06
1.906057389e-06
1.345638295e-06
1.390419221e-06
1.520999377e-06
1.815883816e-06
2.997000896e-06
1.319712268e-05
8.689876192e-05
0.0004064549844
0.001446917326
0.002525281467
0.001305747265
0.0003263487848
0.0001306220083
3.843515082e-05
0.0001435508521
0.0004783912327
0.001004149553
0.001599309892
0.00405575649
0.00394313745
0.0004957828229
0.0001035601122
0.0002826969141
0.008751226948
0.1537927766
0.4097131684
0.0322468632
0.06570690783
0.9799989964
0.3859858417
0.2791906813
9.940400591e-06
1.859051346e-06
1.282324565e-06
1.304076151e-06
1.388953614e-06
1.542140499e-06
1.844632994e-06
3.0213541e-06
1.09394153e-05
5.649163305e-05
0.0001996621694
0.0004248665057
0.0004845401866
6.246945153e-05
1.569571159e-05
6.977148152e-06
2.464455644e-05
0.0001162597062
0.0003552087131
0.000695592804
0.004834108065
0.1135445703
0.001105779067
0.0006358135253
0.01076082096
0.1011161738
0.4554425008
0.5211200472
0.1999059218
0.5830504305
3.422650028
0.7035927111
0.5881158795
9.929758422e-06
1.821465817e-06
1.230848228e-06
1.235656838e-06
1.290313594e-06
1.380253068e-06
1.51869645e-06
1.776992232e-06
2.560957456e-06
6.671178647e-06
2.334439152e-05
6.469800004e-05
0.000102728667
8.112672131e-06
3.430882896e-06
2.812425647e-06
5.020571553e-06
1.775772991e-05
6.942983182e-05
0.0002673311389
0.004370903523
0.00217867272
0.0001388449122
0.001191678842
0.00351778139
0.06471955531
0.3653596087
0.5052740678
0.1209580946
0.1629784118
1.480631509
0.1746106575
0.06996358387
9.919692709e-06
1.791619718e-06
1.189891044e-06
1.182875504e-06
1.218241654e-06
1.27306827e-06
1.35038742e-06
1.463330834e-06
1.6322777e-06
2.022340354e-06
3.286231373e-06
6.937663645e-06
1.224715082e-05
2.27257194e-06
2.004622714e-06
1.966673868e-06
2.295361352e-06
3.665368529e-06
1.026719164e-05
3.434836737e-05
0.000162922541
5.771335479e-05
3.047066041e-05
0.0002685490025
0.003361290174
0.02006990784
0.1684225897
0.3663170976
0.0371372177
0.0265944514
0.3078520458
0.01202572091
0.003130683968
9.910849152e-06
1.76812925e-06
1.157836951e-06
1.142706338e-06
1.165577962e-06
1.19985781e-06
1.245724141e-06
1.307134712e-06
1.381321619e-06
1.481147333e-06
1.615778177e-06
1.860887743e-06
2.266880349e-06
1.59595712e-06
1.614924501e-06
1.632077335e-06
1.731352705e-06
1.921308106e-06
2.654606618e-06
5.295684717e-06
1.770757065e-05
3.561480934e-06
6.960848859e-06
5.271721474e-05
0.0004594350125
0.004982841535
0.02271299893
0.160646754
0.004451383193
0.004298504828
0.02448352931
0.0005131784694
0.003289696835
9.903486431e-06
1.749871289e-06
1.133162958e-06
1.112536093e-06
1.127369038e-06
1.149439896e-06
1.178018344e-06
1.214040243e-06
1.255057707e-06
1.30304888e-06
1.348145823e-06
1.390224671e-06
1.435781739e-06
1.391382514e-06
1.41355312e-06
1.439860827e-06
1.487420707e-06
1.558492846e-06
1.691649329e-06
1.925807346e-06
3.139855363e-06
1.894594873e-06
2.814267801e-06
8.43604976e-06
7.127779733e-05
0.0004845919778
0.003273651068
0.03229510987
0.001934906182
0.0003441297991
0.0009934843033
0.0002338465398
0.002524136702
9.897632476e-06
1.735951869e-06
1.114607061e-06
1.090363692e-06
1.100083039e-06
1.114806694e-06
1.133431083e-06
1.155926121e-06
1.18108761e-06
1.208929078e-06
1.234611376e-06
1.25809144e-06
1.27738274e-06
1.281653393e-06
1.299009272e-06
1.32389153e-06
1.355937612e-06
1.401883168e-06
1.465057875e-06
1.517330065e-06
1.700973104e-06
1.618548357e-06
1.939229001e-06
2.632505592e-06
9.056208966e-06
6.406571123e-05
0.0004112692202
0.005935053441
0.000156828474
3.106132934e-05
2.907966973e-05
6.221507743e-05
0.0007854440914
9.893198638e-06
1.726004203e-06
1.101710591e-06
1.07523353e-06
1.081761799e-06
1.092043478e-06
1.104839381e-06
1.119923166e-06
1.136708272e-06
1.154745734e-06
1.172173536e-06
1.188740182e-06
1.203279599e-06
1.214583242e-06
1.230006024e-06
1.250875901e-06
1.275861311e-06
1.309694059e-06
1.350892976e-06
1.391085121e-06
1.46706967e-06
1.494992982e-06
1.644096828e-06
1.858979989e-06
2.594445552e-06
7.343614906e-06
4.619421566e-05
0.0005021990663
1.425524858e-05
5.189941755e-06
4.186888323e-06
1.500742708e-05
0.0001041962273
9.889514834e-06
1.732056452e-06
1.11129576e-06
1.084536298e-06
1.089131233e-06
1.096667009e-06
1.105938508e-06
1.116736656e-06
1.128744681e-06
1.141589086e-06
1.154559532e-06
1.16738971e-06
1.179721355e-06
1.191699821e-06
1.205764936e-06
1.223304076e-06
1.244358207e-06
1.271192945e-06
1.303334314e-06
1.339050059e-06
1.389215259e-06
1.431089221e-06
1.514423492e-06
1.631006776e-06
1.812402919e-06
2.305311322e-06
4.704529201e-06
4.102124036e-05
2.495028875e-06
2.66259474e-06
2.628668254e-06
4.589915215e-06
1.575373071e-05
9.871125655e-06
2.118207968e-06
1.565711466e-06
1.545135732e-06
1.548249769e-06
1.553213861e-06
1.559297136e-06
1.56637259e-06
1.57428782e-06
1.582847161e-06
1.59179254e-06
1.600981415e-06
1.610369546e-06
1.620178587e-06
1.631333949e-06
1.644611014e-06
1.660543492e-06
1.680174753e-06
1.703818395e-06
1.731589953e-06
1.766429855e-06
1.803952353e-06
1.85683115e-06
1.931952551e-06
2.009142508e-06
2.188056244e-06
2.277097234e-06
4.174575952e-06
2.186234237e-06
2.510511268e-06
2.477361725e-06
2.959501116e-06
4.097546747e-06
9.699534557e-06
8.871597314e-06