/*--------------------------------*- C++ -*----------------------------------*\
  =========                 |
  \\      /  F ield         | OpenFOAM: The Open Source CFD Toolbox
   \\    /   O peration     | Website:  https://openfoam.org
    \\  /    A nd           | Version:  8
     \\/     M anipulation  |
\*---------------------------------------------------------------------------*/
FoamFile
{
    version     2.0;
    format      ascii;
    class       volScalarField;
    location    "0.3";
    object      k;
}
// * * * * * * * * * * * * * * * * * * * * * * * * * * * * * * * * * * * * * //

dimensions      [0 2 -2 0 0 0 0];

internalField   nonuniform List<scalar> 
67286
(
0.01568344084
0.01425151997
0.01241123773
0.005922823728
0.002373283851
0.00314111957
0.004076482928
0.006680354396
0.01001380992
0.01672418625
0.01822490019
0.009656674557
0.006053556518
0.003368337877
0.001359419652
0.0003623634391
5.94660767e-05
1.164322669e-05
7.452287685e-06
7.228307856e-06
7.21996341e-06
7.219895114e-06
7.219847063e-06
7.220484669e-06
7.220571945e-06
7.222091085e-06
7.221627953e-06
7.306511744e-06
0.02312484657
0.02188036294
0.02115624652
0.01466314781
0.008903070862
0.008856381419
0.002350002697
0.004426059343
0.007820025389
0.01171281531
0.01225088625
0.007663289113
0.004288267422
0.001730625638
0.0004169809406
6.437606067e-05
1.225274009e-05
7.522025183e-06
7.237711672e-06
7.223875674e-06
7.221754064e-06
7.221511186e-06
7.220956452e-06
7.221655584e-06
7.221969163e-06
7.225076584e-06
7.250862814e-06
1.192622593e-05
7.292664542e-06
7.250161228e-06
7.247641394e-06
1.271914221e-05
0.02955886031
0.02945369273
0.02945815667
0.02439471642
0.02017189303
0.01850570764
0.006168107359
0.002867841032
0.004809536508
0.007701123163
0.00798116305
0.004951405682
0.002153322241
0.0005546443585
8.288395577e-05
1.342089078e-05
7.558391968e-06
7.237905922e-06
7.223501745e-06
7.222166082e-06
7.221595152e-06
7.221878964e-06
7.222021701e-06
7.223057789e-06
7.225709273e-06
7.332890576e-06
9.269758844e-06
0.0001127017665
9.679650739e-06
7.924100924e-06
8.324240838e-06
0.0001206804608
0.03549721275
0.03719861749
0.0376998592
0.03658219883
0.04175535727
0.0398645064
0.02478591733
0.01336448221
0.005286988806
0.003981365252
0.004049038143
0.00228152992
0.0007252228316
0.0001301859975
1.958093215e-05
8.021668085e-06
7.262084985e-06
7.226391395e-06
7.224015365e-06
7.223691921e-06
7.222928002e-06
7.223524593e-06
7.223994618e-06
7.230248093e-06
7.347151309e-06
1.12058585e-05
6.5700887e-05
0.0009295418154
5.023144148e-05
2.113891916e-05
3.593170087e-05
0.0009602533233
0.00012859702
0.04274585967
0.04889992601
0.05370963512
0.05029001043
0.03450955345
0.02788633972
0.01651706418
0.008519029918
0.002416706701
0.001732770754
0.001377367522
0.0005735564437
0.0001281172387
2.178938345e-05
8.320321907e-06
7.284006083e-06
7.229012351e-06
7.225360499e-06
7.224085742e-06
7.22409977e-06
7.22365343e-06
7.225237051e-06
7.237458586e-06
7.498923166e-06
1.158608496e-05
7.718134052e-05
0.000580406376
0.003322654885
0.0003880032954
0.0001715961739
0.0003188068471
0.003350536928
0.0009451087373
0.05648541012
0.06959579774
0.07707122663
0.06772323963
0.04454389597
0.03054919867
0.02096890307
0.01021925133
0.002897708265
0.0008476106846
0.0003398997933
9.391997939e-05
1.986922492e-05
8.339973476e-06
7.293093853e-06
7.230172614e-06
7.226202475e-06
7.225522836e-06
7.224721776e-06
7.225377443e-06
7.225444301e-06
7.246154658e-06
7.770785671e-06
1.51317089e-05
8.159234501e-05
0.0005664839666
0.002212135867
0.006609410121
0.001693495522
0.001060813787
0.001432416994
0.006434457129
0.0031204909
0.04472613512
0.05316333274
0.06061993337
0.05889575143
0.0380897595
0.02605393199
0.01338826817
0.004367986528
0.0008538004063
0.0001672511742
4.544811976e-05
1.389456047e-05
7.928401486e-06
7.277218238e-06
7.230518181e-06
7.226855016e-06
7.225906792e-06
7.22558654e-06
7.225109991e-06
7.226744244e-06
7.246720228e-06
8.041876596e-06
2.149429567e-05
0.0001264098107
0.0006055272998
0.002073180511
0.004614053575
0.009162195012
0.004444301825
0.003404273096
0.00366155175
0.008418983267
0.005935490413
0.03442996112
0.03996499416
0.0439487981
0.04222655329
0.02426064214
0.01382652673
0.004894490422
0.001071931193
0.0001491062892
2.534988434e-05
1.004032772e-05
7.573322953e-06
7.38703094e-06
7.268543982e-06
7.236936981e-06
7.230086031e-06
7.228181639e-06
7.227918755e-06
7.227153519e-06
7.240179586e-06
8.036537312e-06
2.685712811e-05
0.0002011478945
0.0008919196715
0.002298259026
0.004413340629
0.006816518728
0.01191232183
0.007369731767
0.006439941066
0.006076542139
0.009717134742
0.008022347845
0.0244505925
0.02711024872
0.03012729576
0.02692310075
0.01179582271
0.004484639909
0.001022498055
0.0001468474112
2.018791981e-05
8.373283955e-06
7.36580812e-06
8.330560879e-06
5.73529408e-05
1.859223823e-05
8.290532253e-06
7.297987022e-06
7.231672899e-06
7.22843834e-06
7.232528402e-06
7.683959668e-06
2.388301279e-05
0.0002324462341
0.001200302874
0.002921987752
0.004679821703
0.006445948796
0.009089034511
0.01719776959
0.009685003606
0.008626754561
0.007927519711
0.01130412554
0.009382175381
0.01452076713
0.01526390988
0.01592570216
0.0118425424
0.003783459035
0.000894675003
0.0001323338906
1.860401874e-05
8.011849906e-06
7.335248564e-06
1.166021543e-05
0.0002048277631
0.0009525756017
0.0002858636249
3.937319433e-05
9.364005344e-06
7.348905172e-06
7.242411046e-06
7.423864104e-06
1.599954414e-05
0.0001709917621
0.001209987421
0.003555679928
0.005906896769
0.007068597798
0.008193461646
0.01037621165
0.01601282945
0.01013106251
0.009466270033
0.008861886243
0.0160777658
0.01142631793
0.006111878097
0.006122012912
0.005488112777
0.00304220109
0.0006767332513
0.000102044573
1.591748091e-05
7.759286782e-06
7.420781569e-06
1.859278353e-05
0.0004030798069
0.002005212827
0.004036207164
0.001733649032
0.0003165268248
3.35826768e-05
9.350129199e-06
7.486374779e-06
9.941908651e-06
4.111334951e-05
0.0001809907248
0.0003704340075
0.001829619811
0.004047386886
0.00585532255
0.007273686187
0.00878845918
0.01320521966
0.01031673708
0.009521084577
0.009194622803
0.01432216091
0.009921622554
0.001534360717
0.001481977708
0.001097088581
0.0004327104651
7.160507292e-05
1.329651717e-05
7.915829318e-06
8.214392314e-06
4.183250503e-05
0.0007402715841
0.003067245898
0.006110739403
0.00775917004
0.004220652637
0.001306091423
0.0001993356239
4.037867108e-05
1.336658677e-05
5.858840156e-05
0.0004142826488
0.001304423521
0.0001592315938
0.0007432100195
0.002580713598
0.004761568428
0.006327082182
0.007662761463
0.01034940435
0.009116220172
0.008955161399
0.008016327262
0.01052714199
0.008031086918
0.0002188058584
0.0002108333353
0.0001316128414
4.168562439e-05
1.119510705e-05
7.539137201e-06
9.803130155e-06
0.0001063529279
0.001172045726
0.004099863911
0.00753275458
0.009748184993
0.009702568962
0.007011886084
0.003082949042
0.0009081192518
0.0003440406864
9.412861262e-05
0.0004826810531
0.002135100925
0.004588691006
0.001111252299
0.000168220447
0.001073460938
0.00299665211
0.005052111617
0.006529344883
0.008639229894
0.007618138427
0.008248113632
0.007144054693
0.008078005865
0.006875368917
2.371430411e-05
2.397706479e-05
1.600561205e-05
9.043590136e-06
7.523832061e-06
1.540328922e-05
0.0002040765502
0.001559611859
0.004945201406
0.008514511758
0.01050018253
0.01121211446
0.01205512043
0.01107893276
0.007263847484
0.003575566897
0.001792654045
0.0005994086652
0.002016902348
0.005659339888
0.009009116988
0.00541854449
0.0006914638315
0.0002286236935
0.001202679223
0.003094648252
0.005088112914
0.0068844906
0.005428190577
0.006943460249
0.006515536262
0.007409150282
0.006284264722
7.60076616e-06
8.097463576e-06
7.643720582e-06
7.612092333e-06
2.38393262e-05
0.0003338283814
0.002319613327
0.006858901736
0.01119395721
0.01308051866
0.01451575234
0.01627764154
0.01583555231
0.01363120953
0.01053087738
0.007415485088
0.004680284259
0.002068966023
0.00479965583
0.009824120801
0.01323116009
0.01179489157
0.004068999774
0.000982920303
0.0002531497918
0.00112409671
0.002824594706
0.004732134964
0.002511556805
0.004462403727
0.004907891097
0.006971813325
0.005396081823
6.763869836e-06
7.221569079e-06
7.245291727e-06
8.272373961e-06
4.362787789e-05
0.0005158263367
0.002704835293
0.006790929414
0.01050017662
0.01278406915
0.01480618766
0.01678088601
0.01669017864
0.01280971427
0.009318957938
0.007097596145
0.004107975455
0.003275938069
0.008240050159
0.01407815654
0.02146369227
0.02178255086
0.01271115682
0.006189011532
0.001306920494
0.0001780819023
0.0008175675666
0.002345830998
0.000467415994
0.001647767868
0.002293817442
0.006002238021
0.003421024783
6.736132176e-06
7.187045736e-06
7.223322015e-06
7.691896711e-06
2.32012713e-05
0.0002542533674
0.001620970444
0.004906990951
0.008812456847
0.0114803868
0.01320743899
0.01432934094
0.01385521873
0.01019950813
0.007783797465
0.003985196707
0.004737388613
0.007293150539
0.01014666435
0.01465946308
0.02094528074
0.0230956217
0.01476226354
0.009933789072
0.005073406084
0.001380303306
0.0001273372105
0.0007652310677
4.50735256e-05
0.0001859468047
0.0003555525288
0.003611801442
0.001152202012
6.735891631e-06
7.185487972e-06
7.216215176e-06
7.299874718e-06
1.027971012e-05
6.66491694e-05
0.0005736928592
0.002499331895
0.005883530261
0.009155475082
0.01098762991
0.01170177651
0.01080128061
0.007798452029
0.005104991828
0.002105114839
0.003858312245
0.00638722705
0.008552511028
0.01122871821
0.01491817711
0.01581639394
0.01129530468
0.006711959976
0.002566690641
0.0004210334189
0.0007206914668
0.005337194132
0.0003925638324
4.197538799e-05
0.0001137082963
0.0009503248733
0.0003702883164
6.735301632e-06
7.18496253e-06
7.214431266e-06
7.225082719e-06
7.5587486e-06
1.544572746e-05
0.0001183311871
0.000790236382
0.002764995301
0.005712564668
0.008216571603
0.009199627099
0.008353746464
0.005236594708
0.002408551546
0.0008571717634
0.002267222603
0.004474399681
0.006473880042
0.008099112461
0.00969177993
0.008853962221
0.006110392664
0.002669938643
0.000465998603
0.0008255890646
0.005156599816
0.01701808465
0.002522375979
0.0004245551666
0.00124428367
0.0005374418217
0.00191166043
6.734156724e-06
7.18445728e-06
7.21363045e-06
7.216563429e-06
7.241382538e-06
7.925687942e-06
1.984649524e-05
0.0001395160661
0.0007708529
0.002382391338
0.004567707652
0.006170654374
0.005998754123
0.002350621361
0.0006934677655
0.0002154782403
0.000872721925
0.00238213346
0.004236677484
0.005752293703
0.006722995476
0.004397589505
0.002235332436
0.0004574245494
0.0008520981752
0.005458958605
0.01574586602
0.03063459185
0.008460770492
0.002864081957
0.009103174197
0.001566298758
0.007408685415
6.732847328e-06
7.183995887e-06
7.213033038e-06
7.215302538e-06
7.217345932e-06
7.257886305e-06
8.115265377e-06
1.987124031e-05
0.0001157221265
0.0005491730382
0.001569033601
0.002817425769
0.003206088235
0.0006184384364
0.0001108555295
3.776682547e-05
0.0001990641283
0.0008229181056
0.002063098844
0.003452479962
0.004408366246
0.001515075106
0.0004072767985
0.0006406319124
0.005303162454
0.01693365859
0.03260826189
0.04265268923
0.01822612429
0.01402553806
0.04742242311
0.00214516608
0.01424558512
6.731588766e-06
7.183597313e-06
7.212533951e-06
7.214645722e-06
7.2153395e-06
7.21784524e-06
7.259865772e-06
7.96920753e-06
1.580509947e-05
6.885847132e-05
0.0002753121423
0.0007089109051
0.001026262336
8.311842744e-05
1.651549833e-05
1.006500778e-05
3.192946839e-05
0.0001638364974
0.0006192226187
0.001505519116
0.002380548176
0.0003613728257
0.0009492464247
0.00495895765
0.01235118519
0.02037970102
0.03142140837
0.04341454791
0.02047644946
0.01388170443
0.02007817065
0.003722939858
0.003966601438
6.730481396e-06
7.183269205e-06
7.212130371e-06
7.214141406e-06
7.214641441e-06
7.215303367e-06
7.217470109e-06
7.246795072e-06
7.638005837e-06
1.112698823e-05
3.010662051e-05
8.855573717e-05
0.0001608035219
1.267146731e-05
7.786367503e-06
7.400673211e-06
9.209081849e-06
2.441605772e-05
0.0001066835219
0.0003792532511
0.0009158426943
6.263674727e-05
0.0003499899193
0.002496353474
0.008340160311
0.01640825042
0.02418953736
0.03559457922
0.01841906951
0.01109017789
0.007010622097
0.001239101792
0.000848281558
6.72955884e-06
7.183008443e-06
7.211813771e-06
7.213748025e-06
7.214138487e-06
7.214566092e-06
7.215134769e-06
7.216623895e-06
7.230094948e-06
7.370542892e-06
8.324306384e-06
1.202640157e-05
1.854329869e-05
7.484722205e-06
7.242813682e-06
7.227786283e-06
7.325785669e-06
8.38544757e-06
1.634672442e-05
5.543783124e-05
0.0001851783749
1.338009422e-05
6.796651934e-05
0.0006754057754
0.00345232854
0.009597371804
0.01697012919
0.02603571901
0.01281073661
0.00566059772
0.002012601193
0.0001816276358
0.0009453407806
6.728819973e-06
7.182806835e-06
7.211571724e-06
7.213446916e-06
7.213758691e-06
7.214067994e-06
7.214449132e-06
7.2149318e-06
7.215695529e-06
7.219944438e-06
7.249752605e-06
7.384683469e-06
7.688358822e-06
7.226423661e-06
7.217944405e-06
7.218331929e-06
7.22206081e-06
7.271004157e-06
7.733121302e-06
1.07140311e-05
2.487120709e-05
7.686434884e-06
1.340196739e-05
0.0001022995487
0.0008193482826
0.00363209577
0.009364556681
0.01849252255
0.005715850677
0.001383321282
0.0003678378665
0.001156620357
0.004226365667
6.728249443e-06
7.182655102e-06
7.211391379e-06
7.213222104e-06
7.213476953e-06
7.213708396e-06
7.213990203e-06
7.214323882e-06
7.214684478e-06
7.215151155e-06
7.216055631e-06
7.219549759e-06
7.228168328e-06
7.216509604e-06
7.216422798e-06
7.216953749e-06
7.217266772e-06
7.219406282e-06
7.236819501e-06
7.372134041e-06
8.180547642e-06
7.242446886e-06
7.602479638e-06
1.48799461e-05
0.0001053214126
0.0007742238446
0.00325346987
0.01040054417
0.001461476794
0.0001995503245
4.896831499e-05
0.0003570459533
0.002162071858
6.727828543e-06
7.182536941e-06
7.211230205e-06
7.213019006e-06
7.213231492e-06
7.213409313e-06
7.213624828e-06
7.213877853e-06
7.214157327e-06
7.214460887e-06
7.214750868e-06
7.215096384e-06
7.215475044e-06
7.215551159e-06
7.215759075e-06
7.216123141e-06
7.216397772e-06
7.216880494e-06
7.217646622e-06
7.221874261e-06
7.249000205e-06
7.219077667e-06
7.234190452e-06
7.58571317e-06
1.362399131e-05
8.700367266e-05
0.0006043383876
0.003469988935
0.0001905469382
2.22477422e-05
1.013683947e-05
5.219456702e-05
0.0005038083543
6.727485557e-06
7.182130291e-06
7.210237267e-06
7.211870069e-06
7.212038298e-06
7.212175564e-06
7.212342411e-06
7.212538862e-06
7.212760025e-06
7.212999742e-06
7.213242668e-06
7.213490104e-06
7.213721052e-06
7.213956819e-06
7.214186262e-06
7.214468915e-06
7.214749334e-06
7.215103544e-06
7.215459952e-06
7.215913325e-06
7.216890585e-06
7.216660051e-06
7.217768902e-06
7.228798062e-06
7.453756515e-06
1.144508009e-05
5.560177458e-05
0.0005473330846
1.672938673e-05
7.914975164e-06
7.338582587e-06
1.007153266e-05
6.050035125e-05
6.72406643e-06
7.171997942e-06
7.192831092e-06
7.193639252e-06
7.193733776e-06
7.193828923e-06
7.193944737e-06
7.19408019e-06
7.194232255e-06
7.194396306e-06
7.194565571e-06
7.1947356e-06
7.194902039e-06
7.195067337e-06
7.195243931e-06
7.195446355e-06
7.195672112e-06
7.195937202e-06
7.196228307e-06
7.196539484e-06
7.196911037e-06
7.197239904e-06
7.197739198e-06
7.198665419e-06
7.203894467e-06
7.314188561e-06
8.968634878e-06
3.934832474e-05
7.441329434e-06
7.220045672e-06
7.203557448e-06
7.290088013e-06
9.770612561e-06
6.598564767e-06
6.962642818e-06
6.973720033e-06
6.974059501e-06
6.974213507e-06
6.974404604e-06
6.974632542e-06
6.97489152e-06
6.975173202e-06
6.975467174e-06
6.975761946e-06
6.97604908e-06
6.976328665e-06
6.976604387e-06
6.976920153e-06
6.977294239e-06
6.977737571e-06
6.978257467e-06
6.978840645e-06
6.979444971e-06
6.980146086e-06
6.98077536e-06
6.98162056e-06
6.983101125e-06
6.984030495e-06
6.989111254e-06
7.012655391e-06
7.641617362e-06
6.989099937e-06
6.989940646e-06
6.987944703e-06
6.990438751e-06
7.043600729e-06
0.005351833434
0.003166296341
0.002816264737
0.001319065413
0.0006238083968
0.0009289169408
0.001035281268
0.001081959187
0.002508890261
0.01936792486
0.02208496387
0.005096859037
0.0003985272783
0.0002536271382
0.0001293385024
3.709792656e-05
1.500983887e-05
1.123398324e-05
1.058088426e-05
1.050925819e-05
1.049228792e-05
1.056503672e-05
1.054062293e-05
1.066343706e-05
1.061498403e-05
1.086385223e-05
1.069880117e-05
1.134859989e-05
0.00932133276
0.004185662542
0.004838474776
0.004261720597
0.00302270635
0.001429490367
0.001289960899
0.001594140206
0.001366775453
0.001626757528
0.002020790616
0.0006098778426
0.0006025820159
0.0002436820213
5.806612589e-05
1.921137909e-05
1.29278245e-05
1.157396782e-05
1.111051265e-05
1.093726511e-05
1.07436872e-05
1.077558649e-05
1.065653467e-05
1.077653301e-05
1.073349432e-05
1.094518257e-05
1.090430196e-05
1.203026763e-05
1.068294636e-05
1.188334302e-05
1.085596166e-05
1.244742337e-05
0.01427773837
0.007738815419
0.009286492661
0.01040578964
0.01220646901
0.006594196852
0.004449778875
0.001890182424
0.001405535256
0.0009966308663
0.0005771962538
0.0005663774753
0.0002924596358
7.748609703e-05
2.377577597e-05
1.371340505e-05
1.156045898e-05
1.094820857e-05
1.074659336e-05
1.073073696e-05
1.067137551e-05
1.07524985e-05
1.071065492e-05
1.086244168e-05
1.089952664e-05
1.132950925e-05
1.1626452e-05
1.834145756e-05
1.103369118e-05
1.290392818e-05
1.094296514e-05
1.888959358e-05
0.02044973255
0.02327201011
0.03375230178
0.03928313455
0.04879958931
0.03572004984
0.02542288362
0.009564828897
0.001699259404
0.001444510621
0.001101044354
0.0004545681219
0.0001175726659
2.870228651e-05
1.473649324e-05
1.209941139e-05
1.1403461e-05
1.115260817e-05
1.099505188e-05
1.100156951e-05
1.085853854e-05
1.094399785e-05
1.088662568e-05
1.097660487e-05
1.13713877e-05
1.199365327e-05
1.557223323e-05
8.611338354e-05
1.340993358e-05
1.5578346e-05
1.291351078e-05
9.95580934e-05
1.858466662e-05
0.03523767595
0.05015420918
0.05741132785
0.05706780224
0.03908237004
0.02351787947
0.01394186443
0.001910152935
0.002563793459
0.00356409182
0.0004957771593
0.0001017027539
3.187345003e-05
1.769721725e-05
1.355097355e-05
1.199173017e-05
1.142823599e-05
1.116805136e-05
1.098185687e-05
1.100098451e-05
1.086514962e-05
1.102635313e-05
1.107093291e-05
1.155648301e-05
1.318895103e-05
1.895503785e-05
5.327917851e-05
0.000458929536
3.951688795e-05
3.641008495e-05
3.469650528e-05
0.0005424789906
8.66398407e-05
0.03794631114
0.06421590898
0.07562816604
0.06410045162
0.04864954412
0.0204773527
0.00624206214
0.002345209258
0.0006015786754
0.0002468977869
6.505237306e-05
2.566853457e-05
1.672743456e-05
1.36994232e-05
1.246863699e-05
1.182549621e-05
1.145806382e-05
1.131193561e-05
1.112975417e-05
1.118478542e-05
1.106361702e-05
1.119065947e-05
1.180562746e-05
1.257649575e-05
2.184310595e-05
7.000008079e-05
0.0002405238368
0.000752003924
0.0001954713486
0.0002070756998
0.0002110729491
0.001210199391
0.0004283628871
0.02545569491
0.03263258554
0.05243001601
0.05210511004
0.03650302441
0.006636380416
0.002220806555
0.0005159215803
9.703191423e-05
3.513039258e-05
1.973589547e-05
1.540098486e-05
1.337349179e-05
1.261560259e-05
1.197754817e-05
1.157955039e-05
1.13908697e-05
1.128371489e-05
1.11290788e-05
1.129121158e-05
1.116790983e-05
1.187447507e-05
1.461820799e-05
2.533310807e-05
8.956315039e-05
0.000313872523
0.0003379985813
0.0006462702808
0.000512478956
0.001110794243
0.0009732004424
0.001126960756
0.0008251276801
0.01715134981
0.01013498935
0.0160467129
0.01628368423
0.01044851454
0.002337968731
0.0006506392289
0.0001110931716
2.562888789e-05
1.693620806e-05
1.588609517e-05
1.420213933e-05
1.340387276e-05
1.25954666e-05
1.237813723e-05
1.200877264e-05
1.170453505e-05
1.15750029e-05
1.137960916e-05
1.154000391e-05
1.190835723e-05
1.409699635e-05
3.234729674e-05
0.0001211414056
0.0003607130276
0.0005934264209
0.0003891942094
0.001476138457
0.0006601857498
0.002094978636
0.00189830553
0.001041497497
0.0006231040186
0.01045350845
0.006393999955
0.005098856086
0.003289656321
0.002103836487
0.0005128407986
0.0001026295571
2.62766485e-05
1.759839491e-05
1.557878549e-05
1.402068087e-05
1.339817945e-05
1.508120156e-05
1.37159467e-05
1.212196055e-05
1.157915058e-05
1.143367701e-05
1.136825291e-05
1.141587472e-05
1.199355669e-05
1.375732746e-05
3.204303347e-05
0.0001541592331
0.00041489184
0.0003712220616
0.0003708614874
0.004382879152
0.016160646
0.003569914049
0.001854854579
0.00235834597
0.00567113427
0.0008086653863
0.00485564227
0.003300834494
0.00262523784
0.001477435509
0.0004586852809
8.68068197e-05
2.516860205e-05
1.90342369e-05
1.530483258e-05
1.369315529e-05
1.424583517e-05
2.725776177e-05
9.701908564e-05
3.490753617e-05
1.654582797e-05
1.358969622e-05
1.264105876e-05
1.205227224e-05
1.222168155e-05
1.322007684e-05
2.557092277e-05
0.0001542077925
0.0006250192998
0.0009091908368
0.0007358035403
0.001112038329
0.006547671835
0.01458046533
0.005485127254
0.003297251329
0.00909744734
0.01775810626
0.008326343789
0.001443326362
0.001049554034
0.0007589015814
0.0003110351227
6.845569832e-05
2.295108574e-05
2.309078689e-05
2.268457392e-05
1.499852272e-05
1.532466292e-05
5.175460541e-05
0.0002709250064
0.0006718501557
0.0002327083691
4.288810658e-05
1.55672923e-05
1.288170057e-05
1.181832746e-05
1.221336855e-05
1.434729257e-05
2.649301834e-05
4.276373806e-05
0.0002656688886
0.0006544944337
0.0008977381664
0.0007518823206
0.003379361803
0.01074778807
0.003011794025
0.003329835397
0.006428825198
0.0140467873
0.006858916009
0.0002475628511
0.0001952691923
0.000126059626
4.651515043e-05
2.029195984e-05
1.980970873e-05
0.000124402679
6.349781161e-05
2.449896461e-05
0.0001038283556
0.0005389022325
0.001024094964
0.0009071485712
0.0004121611801
0.000141210425
3.504316831e-05
2.157863897e-05
1.468141867e-05
1.819015481e-05
4.570737241e-05
0.0001672731889
3.018857394e-05
0.0001261612344
0.0005749482072
0.001056243282
0.001464784953
0.0008358630705
0.00431156402
0.002721430834
0.003227325206
0.003200625865
0.007537950233
0.002934747023
3.034479756e-05
3.143911741e-05
2.465159164e-05
1.701016007e-05
1.46296824e-05
1.380611708e-05
1.695614105e-05
2.850686242e-05
0.000177509899
0.0008084474328
0.001349641814
0.001289247829
0.001401945018
0.0008515720101
0.0005162960291
0.0001097176406
5.278647991e-05
2.524370761e-05
5.712961901e-05
0.0002507593303
0.0006580305482
0.0001553231525
4.534929021e-05
0.0002067140381
0.0007915237843
0.001173091567
0.001308217891
0.001379809655
0.003226767123
0.003724433354
0.0009907264309
0.003130780888
0.0007287015322
8.029799719e-06
1.314325334e-05
1.432817124e-05
1.347750049e-05
1.280650142e-05
1.321981662e-05
2.78591187e-05
0.0002162100548
0.0008591999717
0.001107888508
0.001257524992
0.004677838326
0.01045229234
0.01085289034
0.007864251303
0.0006585614064
0.0002912387807
0.0001380557506
0.000319938413
0.0007280402094
0.000711543039
0.001203117612
0.0001193217788
4.713264895e-05
0.0002413899977
0.0007409422435
0.001055788816
0.001960293108
0.002228685539
0.003241922713
0.001059102913
0.0009918426698
0.0007723327642
6.574085313e-06
1.114157022e-05
1.244635487e-05
1.231647666e-05
1.312616049e-05
3.203936603e-05
0.0002702510382
0.001010725835
0.001269985514
0.002360795339
0.007225432109
0.01322243152
0.01401359894
0.0128157045
0.01040916016
0.0009661106769
0.001127678032
0.0006146239261
0.0008746860114
0.001128021913
0.006305397277
0.008240760468
0.0008035816368
0.0001862248974
6.235267372e-05
0.0002104234599
0.0006064384475
0.001349892285
0.0006675561245
0.001903232471
0.001026371406
0.001247320223
0.0007135910614
6.517449597e-06
1.058792603e-05
1.157245944e-05
1.162943718e-05
1.318646036e-05
4.44678175e-05
0.0003367668647
0.0009353047765
0.001023501309
0.001928340973
0.007582771734
0.01400836798
0.01496751664
0.01132226472
0.005487101208
0.001263864276
0.001332771514
0.000714274339
0.001923657173
0.01039949201
0.0222118282
0.02046179014
0.006485698871
0.001286579424
0.0002021790611
4.436976858e-05
0.0001296318702
0.0005376303273
7.719395606e-05
0.0004458049962
0.0004819113143
0.001095079474
0.0006711720939
6.530040707e-06
1.032791847e-05
1.121922307e-05
1.14670461e-05
1.261267476e-05
2.772353704e-05
0.000189807275
0.0008504641736
0.001324780718
0.001517718153
0.003548983975
0.007923089031
0.009460187703
0.006607086327
0.001865341879
0.001564454542
0.001231355614
0.0009155702231
0.003816915926
0.01100546101
0.0216181818
0.02388832293
0.004286444723
0.0005163237713
0.0007492808713
0.0002418668643
2.992317511e-05
0.0001418743292
2.2807294e-05
4.865669003e-05
8.891899467e-05
0.0008547874214
0.0002560460347
6.534541469e-06
1.016814679e-05
1.095579145e-05
1.116642867e-05
1.163664271e-05
1.593187935e-05
5.969297306e-05
0.0003678669163
0.001084483
0.001426377157
0.001783191778
0.002078320601
0.002473792637
0.001840243788
0.001390737485
0.0007099477576
0.0009582258518
0.0008323648965
0.002345814192
0.006921661505
0.0124766926
0.01371132838
0.0009777416938
0.0008801435121
0.0004199620592
7.384867153e-05
0.0001007895438
0.0008239719232
6.07556927e-05
2.727033448e-05
0.0002490349307
0.0008931297814
0.0002187172453
6.533476752e-06
1.006766364e-05
1.080807909e-05
1.100042484e-05
1.125865556e-05
1.251485849e-05
2.063330157e-05
9.010764643e-05
0.0004343942643
0.001054057203
0.001273433524
0.0010943565
0.000793160276
0.0005398509886
0.0006247470685
0.0002100840037
0.0004629656441
0.0008710781153
0.0008679465277
0.001857567316
0.003547318276
0.001797856291
0.0006953048263
0.0004670682528
8.079647244e-05
0.0001050731448
0.0008853644351
0.002981165838
0.0003971921464
0.0002272862596
0.003121426593
0.007612590517
0.00169221839
6.528529541e-06
9.9891587e-06
1.067538815e-05
1.083449451e-05
1.098109605e-05
1.147893795e-05
1.301790077e-05
2.328716452e-05
8.936199902e-05
0.0003464639137
0.0007851107357
0.0008950332197
0.0006098593421
0.0002867664063
0.0001277202663
4.88156631e-05
0.0001418695179
0.0004305764346
0.0007200954248
0.0004551715928
0.0005396543666
0.0003803782065
0.0004245349628
9.553045197e-05
0.0001084830947
0.001137826831
0.01209297365
0.03002005202
0.002802322449
0.002279492461
0.02815667767
0.01320550376
0.01129234672
6.521918287e-06
9.927048411e-06
1.056766621e-05
1.070465653e-05
1.081207174e-05
1.104999232e-05
1.151028879e-05
1.310776068e-05
2.088525667e-05
6.211450273e-05
0.0001872116709
0.0003753012661
0.0004402692404
6.584570853e-05
2.500509085e-05
1.79798504e-05
3.491976853e-05
0.000119484349
0.0003173168551
0.0004613185481
0.0006309830103
0.00365408852
0.0001081592051
9.620084021e-05
0.001100168506
0.007842314465
0.03413233268
0.03917138226
0.0114236281
0.01664536224
0.09311116301
0.01993435902
0.02778406637
6.514925048e-06
9.87658022e-06
1.04757903e-05
1.059403073e-05
1.067397164e-05
1.080897243e-05
1.099735328e-05
1.143692883e-05
1.239949812e-05
1.662876156e-05
3.161019247e-05
6.875496288e-05
0.0001031150277
1.761145051e-05
1.311874736e-05
1.296324468e-05
1.571920744e-05
2.965303127e-05
7.573511385e-05
0.0001847542537
0.0004704871818
0.0001173866197
0.0001123251451
0.0005324808651
0.0006273810231
0.00505979932
0.02729982956
0.03851787257
0.008629520387
0.005022539314
0.04148431318
0.00496633269
0.003811058334
6.508310565e-06
9.835972121e-06
1.039974265e-05
1.05030598e-05
1.056580652e-05
1.065277882e-05
1.07598354e-05
1.094088829e-05
1.115631829e-05
1.170436486e-05
1.285179036e-05
1.622543389e-05
2.087163378e-05
1.181750038e-05
1.139110484e-05
1.161216936e-05
1.203468343e-05
1.421965107e-05
2.093319348e-05
4.273840612e-05
0.000113250776
2.226596743e-05
4.012839099e-05
0.0002291340958
0.000780658011
0.001865355637
0.01251402556
0.02752526242
0.00304699162
0.001832681024
0.008816599582
0.0005166310095
0.0002818508222
6.502499207e-06
9.803748336e-06
1.033818755e-05
1.042925747e-05
1.047863708e-05
1.05394966e-05
1.061151014e-05
1.071189111e-05
1.079855291e-05
1.096204728e-05
1.105250754e-05
1.135367763e-05
1.164321946e-05
1.107629004e-05
1.104968558e-05
1.123359309e-05
1.133354501e-05
1.176926745e-05
1.267482595e-05
1.551000862e-05
2.728621029e-05
1.372352276e-05
1.925551852e-05
5.884245394e-05
0.0003612623824
0.001052973397
0.001890580555
0.01196876865
0.0006235541274
0.001001034587
0.0009591101912
5.385847838e-05
0.0003073327856
6.497661018e-06
9.778653279e-06
1.0289534e-05
1.037065211e-05
1.040959422e-05
1.045448019e-05
1.050784137e-05
1.057367448e-05
1.063237006e-05
1.071287145e-05
1.074261494e-05
1.081593717e-05
1.083012529e-05
1.084903284e-05
1.0877621e-05
1.100968979e-05
1.10526861e-05
1.123572543e-05
1.134033992e-05
1.173440905e-05
1.311932715e-05
1.177865799e-05
1.401490032e-05
1.998900799e-05
7.772093359e-05
0.0003879563873
0.0006100370621
0.002649135515
0.0005676046388
0.0002459377472
9.425774753e-05
0.0001341863803
0.0004236885825
6.493814343e-06
9.759597294e-06
1.025227439e-05
1.032560604e-05
1.035662574e-05
1.039086684e-05
1.043178253e-05
1.047953608e-05
1.052706249e-05
1.058194922e-05
1.061717523e-05
1.066773013e-05
1.06904799e-05
1.074191942e-05
1.07845705e-05
1.088374973e-05
1.094533908e-05
1.107643763e-05
1.116481763e-05
1.129972286e-05
1.159312414e-05
1.14158846e-05
1.234546645e-05
1.347791853e-05
2.229884204e-05
6.722514065e-05
0.0002601657796
0.0009912208553
0.0001348263367
4.093561129e-05
2.576025164e-05
4.733906275e-05
0.0002188108853
6.490900912e-06
9.745317397e-06
1.02234635e-05
1.028992845e-05
1.031481824e-05
1.034155573e-05
1.037366109e-05
1.041071077e-05
1.045029397e-05
1.049316199e-05
1.053101864e-05
1.05732958e-05
1.060800242e-05
1.065521572e-05
1.070351925e-05
1.078050818e-05
1.085079133e-05
1.095741136e-05
1.105277392e-05
1.116964524e-05
1.133029185e-05
1.137456684e-05
1.179578664e-05
1.225665502e-05
1.428745768e-05
1.877781521e-05
4.729643801e-05
0.0003287465398
2.48159687e-05
1.883409401e-05
1.812107041e-05
3.767055734e-05
5.322534668e-05
6.488480565e-06
9.727326587e-06
1.017839841e-05
1.023069031e-05
1.024920793e-05
1.026974263e-05
1.029463315e-05
1.032354247e-05
1.035554544e-05
1.039011669e-05
1.042489094e-05
1.04617422e-05
1.04981877e-05
1.054037912e-05
1.058779481e-05
1.065052968e-05
1.072045609e-05
1.081220767e-05
1.091223508e-05
1.102599807e-05
1.116451095e-05
1.126445811e-05
1.148857664e-05
1.173958462e-05
1.236861902e-05
1.315683708e-05
1.541634136e-05
4.491189371e-05
1.290049884e-05
1.451726812e-05
1.486696112e-05
2.115248662e-05