/*--------------------------------*- C++ -*----------------------------------*\
  =========                 |
  \\      /  F ield         | OpenFOAM: The Open Source CFD Toolbox
   \\    /   O peration     | Website:  https://openfoam.org
    \\  /    A nd           | Version:  8
     \\/     M anipulation  |
\*---------------------------------------------------------------------------*/
FoamFile
{
    version     2.0;
    format      ascii;
    class       volScalarField;
    location    "0.3";
    object      N2;
}
// * * * * * * * * * * * * * * * * * * * * * * * * * * * * * * * * * * * * * //

dimensions      [0 0 0 0 0 0 0];

internalField   nonuniform List<scalar> 
67286
(
0.7899932252
0.7899933379
0.7899930915
0.7899927217
0.7899925217
0.7899925407
0.7899937823
0.78999421
0.7899944461
0.7899946124
0.7899946746
0.789994442
0.7899941295
0.7899936978
0.7899933304
0.7899931539
0.7899931165
0.7899931229
0.7899931318
0.7899931382
0.7899931435
0.7899931479
0.7899931523
0.7899931559
0.7899931598
0.789993162
0.7899931659
0.7899931648
0.7899936854
0.7899935553
0.7899930925
0.7899924222
0.7899919706
0.7899923313
0.7899929673
0.7899937817
0.7899942697
0.7899943552
0.7899943386
0.7899941587
0.7899937737
0.7899933759
0.7899931613
0.7899931197
0.7899931259
0.7899931343
0.7899931408
0.7899931462
0.7899931512
0.7899931556
0.78999316
0.7899931633
0.7899931669
0.7899931677
0.7899931711
0.7899931641
0.7899931747
0.7899931728
0.7899931767
0.7899931693
0.7899939595
0.7899934064
0.7899925461
0.7899917231
0.7899926561
0.7899951053
0.789992449
0.7899926505
0.7899931361
0.7899936716
0.7899938257
0.789993637
0.7899933118
0.7899931032
0.7899930738
0.7899930983
0.7899931197
0.7899931333
0.7899931429
0.7899931502
0.7899931562
0.7899931609
0.7899931654
0.7899931685
0.7899931712
0.7899931706
0.7899931714
0.7899931652
0.7899931745
0.78999317
0.7899931747
0.7899931678
0.789994206
0.7899934406
0.7899929834
0.7899945671
0.7899993423
0.7900021832
0.7899948293
0.789993545
0.7899922527
0.789993011
0.7899933847
0.7899932834
0.7899931207
0.7899930843
0.7899931047
0.7899931241
0.7899931349
0.7899931421
0.7899931478
0.7899931528
0.7899931581
0.7899931631
0.7899931676
0.789993171
0.7899931717
0.7899931701
0.7899931696
0.7899932781
0.7899931731
0.7899931618
0.7899931673
0.7899932632
0.7899931679
0.7899946209
0.7899943444
0.7899942598
0.789993563
0.7899926985
0.7899951249
0.789991771
0.7899912012
0.7899891111
0.7899914199
0.7899922387
0.7899926157
0.7899928208
0.7899929593
0.7899930419
0.7899930856
0.7899931118
0.7899931279
0.7899931396
0.7899931486
0.7899931558
0.789993162
0.7899931662
0.7899931703
0.7899931666
0.7899931723
0.7899932342
0.7899936863
0.7899932119
0.7899931606
0.789993171
0.7899936004
0.7899932618
0.7899950177
0.7899963627
0.7899970545
0.7899964291
0.7899933352
0.789992682
0.789991851
0.7899915755
0.7899908789
0.7899920506
0.7899925703
0.7899928233
0.7899929716
0.7899930505
0.7899930897
0.7899931095
0.7899931198
0.7899931277
0.789993135
0.7899931424
0.7899931498
0.789993157
0.7899931602
0.7899931648
0.7899931625
0.7899932386
0.7899935056
0.7899942444
0.7899934275
0.7899932799
0.7899932575
0.7899940499
0.7899935868
0.7899935625
0.7899946098
0.7899953974
0.7899953914
0.7899931675
0.7899922377
0.7899919827
0.7899917498
0.7899914508
0.7899920853
0.789992499
0.7899927491
0.7899929035
0.7899929917
0.7899930413
0.7899930722
0.7899930918
0.7899931068
0.7899931192
0.78999313
0.7899931381
0.7899931457
0.7899931463
0.7899931598
0.789993228
0.7899934961
0.7899939275
0.7899945966
0.7899939091
0.7899936899
0.7899935554
0.7899943378
0.7899940385
0.7899929658
0.7899934401
0.7899939318
0.7899941015
0.7899927904
0.789992371
0.7899923162
0.7899922538
0.7899922293
0.7899925089
0.7899927403
0.789992887
0.789992976
0.7899930269
0.7899930549
0.7899930702
0.7899930811
0.7899930912
0.7899931022
0.7899931136
0.7899931215
0.789993128
0.789993147
0.7899932662
0.7899935308
0.7899939157
0.7899942801
0.7899948543
0.7899943803
0.7899942781
0.7899940295
0.7899945475
0.7899943945
0.7899928204
0.7899930388
0.7899930718
0.7899931524
0.7899926957
0.7899925237
0.7899924989
0.789992488
0.7899925238
0.7899926587
0.7899927939
0.7899928873
0.7899929489
0.7899929889
0.7899930162
0.789993036
0.7899930498
0.7899930651
0.7899930778
0.7899930912
0.7899930953
0.7899931227
0.7899932965
0.7899936544
0.7899940057
0.789994282
0.7899945713
0.7899955058
0.7899946879
0.7899947253
0.7899945395
0.7899948643
0.7899946118
0.7899926938
0.7899929232
0.7899928058
0.7899927689
0.7899926802
0.7899926062
0.7899925984
0.789992626
0.7899927044
0.7899927845
0.7899928663
0.7899929293
0.7899930154
0.7899930058
0.7899930072
0.7899930164
0.7899930269
0.7899930396
0.7899930537
0.7899930647
0.7899930818
0.7899932729
0.7899937894
0.7899943295
0.7899945357
0.789994639
0.7899949943
0.7899959163
0.7899949366
0.7899949687
0.7899948377
0.7899955363
0.7899949226
0.7899925944
0.7899927831
0.7899927255
0.7899926892
0.7899926752
0.7899926451
0.7899926562
0.7899927185
0.7899927833
0.7899928267
0.7899928952
0.7899930406
0.7899932461
0.789993145
0.7899930095
0.7899929929
0.7899929971
0.789993015
0.7899930275
0.789993047
0.7899930609
0.7899930993
0.789993371
0.7899939048
0.7899943886
0.7899946839
0.7899949499
0.789995793
0.789995371
0.7899955331
0.7899950252
0.7899959643
0.789995072
0.789992649
0.7899927366
0.7899927207
0.7899926921
0.7899926342
0.7899924806
0.789992187
0.789992479
0.7899927442
0.7899928099
0.7899930881
0.7899933902
0.7899936193
0.7899934753
0.789993157
0.7899930023
0.7899929865
0.7899929935
0.789993012
0.7899930627
0.7899931586
0.7899930705
0.7899931453
0.7899935276
0.7899940844
0.7899945185
0.7899948175
0.7899952321
0.7899952878
0.7899954593
0.7899950294
0.7899956136
0.7899949643
0.7899927716
0.7899928023
0.7899927973
0.7899927816
0.7899927546
0.7899927005
0.7899926472
0.7899927443
0.7899928929
0.7899931236
0.789993492
0.789993779
0.7899938898
0.7899938523
0.7899934426
0.7899931211
0.7899930156
0.789992985
0.7899930372
0.7899932312
0.7899934579
0.789993166
0.7899930686
0.7899931985
0.7899936231
0.7899941829
0.7899946267
0.7899950217
0.7899948765
0.7899952685
0.7899949076
0.7899952007
0.7899948024
0.7899928697
0.7899928808
0.789992877
0.789992863
0.7899928408
0.7899928016
0.7899927861
0.7899928911
0.7899932102
0.7899935618
0.7899938356
0.7899939943
0.789994237
0.7899944474
0.7899941919
0.7899935524
0.789993254
0.7899930394
0.7899932078
0.7899935936
0.7899938523
0.7899935537
0.789993151
0.7899930972
0.7899932281
0.7899936558
0.7899942048
0.7899946725
0.7899942342
0.7899948618
0.7899947743
0.7899950333
0.7899947157
0.7899929381
0.7899929439
0.7899929413
0.789992929
0.7899929098
0.7899928949
0.789993008
0.7899933783
0.7899938121
0.7899939978
0.7899941206
0.789994335
0.7899945893
0.7899947017
0.7899943951
0.7899940178
0.7899936667
0.7899932552
0.7899935228
0.789994003
0.7899941848
0.7899940748
0.7899934447
0.7899931871
0.7899930984
0.7899932236
0.7899935906
0.7899941018
0.7899935332
0.7899941415
0.7899942951
0.7899949432
0.7899944572
0.7899929887
0.7899929931
0.789992992
0.7899929818
0.7899929651
0.789992969
0.7899931265
0.789993502
0.7899938886
0.789994084
0.7899942148
0.7899943965
0.7899945851
0.7899946043
0.789994228
0.7899939916
0.7899935767
0.7899933863
0.7899939155
0.7899944282
0.7899947793
0.7899947761
0.7899941972
0.7899936643
0.7899932244
0.7899931153
0.789993173
0.7899934908
0.7899931636
0.7899934457
0.7899935786
0.7899946426
0.7899938813
0.7899930283
0.7899930329
0.7899930332
0.7899930255
0.7899930114
0.7899930002
0.7899930824
0.7899933799
0.7899937956
0.7899940741
0.7899941935
0.7899942808
0.789994355
0.7899943239
0.7899940522
0.7899936177
0.789993916
0.7899942559
0.789994454
0.7899947921
0.7899950787
0.7899949531
0.7899943559
0.7899939883
0.7899935667
0.7899932318
0.7899931059
0.7899931626
0.789993132
0.7899931741
0.7899931329
0.7899939457
0.7899932835
0.7899930605
0.7899930655
0.7899930671
0.7899930617
0.7899930515
0.789993035
0.7899930419
0.7899931883
0.7899935253
0.7899938969
0.7899941001
0.7899941659
0.7899941214
0.7899940421
0.7899936864
0.7899933409
0.7899938058
0.7899942754
0.7899944761
0.7899946607
0.7899948239
0.7899945485
0.7899941998
0.7899937874
0.789993363
0.7899931503
0.7899931342
0.7899933456
0.7899931403
0.7899932022
0.7899929986
0.7899933609
0.7899930356
0.789993087
0.7899930924
0.7899930951
0.7899930915
0.7899930847
0.789993073
0.7899930566
0.7899930785
0.7899932411
0.7899935453
0.789993843
0.789993983
0.7899939133
0.7899936963
0.7899933171
0.7899931167
0.7899934682
0.7899939558
0.7899942828
0.7899944094
0.7899944386
0.7899940045
0.7899937416
0.7899933513
0.7899931141
0.7899931316
0.789993288
0.7899938337
0.7899931429
0.7899931505
0.7899927467
0.7899930964
0.7899930675
0.789993109
0.7899931147
0.7899931182
0.7899931158
0.7899931113
0.789993104
0.7899930916
0.7899930765
0.789993099
0.789993233
0.7899934586
0.7899936521
0.7899936576
0.789993328
0.789993103
0.7899930228
0.7899931433
0.7899934835
0.7899938745
0.7899941132
0.7899941222
0.789993543
0.7899932874
0.7899930707
0.7899931071
0.7899933277
0.7899937381
0.7899943779
0.7899932854
0.7899930464
0.7899921247
0.7899927522
0.7899950329
0.7899931274
0.7899931333
0.7899931373
0.7899931358
0.7899931327
0.789993128
0.7899931207
0.7899931089
0.789993095
0.7899931068
0.7899931861
0.7899933096
0.7899933624
0.7899931318
0.789993055
0.789993023
0.789993001
0.7899930817
0.7899933208
0.7899935681
0.7899936463
0.7899927869
0.7899929397
0.789992939
0.7899932308
0.7899936933
0.7899943219
0.7899946
0.7899934591
0.7899925648
0.7899970434
0.7899925455
0.7899973858
0.7899931427
0.7899931488
0.7899931531
0.7899931521
0.7899931499
0.7899931466
0.789993142
0.7899931352
0.7899931249
0.7899931132
0.7899931124
0.7899931387
0.7899931654
0.7899930967
0.7899930687
0.7899930373
0.7899929747
0.7899928915
0.7899928352
0.7899928401
0.7899922253
0.7899927612
0.7899927573
0.7899930909
0.7899936841
0.7899942138
0.7899946208
0.7899951005
0.7899929792
0.7899922249
0.789983552
0.7899892375
0.7899909393
0.7899931555
0.7899931616
0.7899931662
0.7899931656
0.7899931638
0.7899931614
0.7899931581
0.7899931536
0.7899931475
0.7899931394
0.7899931297
0.7899931233
0.7899931184
0.7899931108
0.7899930903
0.7899930618
0.7899930126
0.7899929411
0.7899928534
0.7899927842
0.7899926409
0.7899927808
0.7899928334
0.7899929507
0.7899933586
0.789994018
0.7899945043
0.7899951851
0.7899932885
0.7899931157
0.7899863683
0.7899915823
0.7899909396
0.7899931661
0.7899931723
0.789993177
0.7899931765
0.7899931751
0.7899931731
0.7899931704
0.7899931671
0.7899931627
0.7899931573
0.7899931504
0.789993143
0.7899931338
0.7899931273
0.7899931098
0.7899930857
0.7899930488
0.7899929977
0.7899929291
0.7899928502
0.7899927445
0.78999287
0.7899929069
0.7899929359
0.7899930631
0.7899934755
0.7899940681
0.7899949006
0.7899931068
0.7899931058
0.7899904226
0.7899925189
0.7899921327
0.7899931747
0.789993181
0.7899931858
0.7899931854
0.7899931841
0.7899931823
0.7899931801
0.7899931772
0.7899931737
0.7899931693
0.789993164
0.7899931577
0.7899931497
0.7899931411
0.7899931268
0.7899931074
0.7899930805
0.7899930454
0.7899930007
0.7899929519
0.7899928997
0.789992952
0.7899929782
0.7899929857
0.7899929871
0.7899931076
0.7899934329
0.7899943459
0.7899928867
0.7899929415
0.7899918372
0.7899926918
0.7899930809
0.7899931817
0.7899931879
0.7899931928
0.7899931924
0.7899931912
0.7899931896
0.7899931875
0.7899931849
0.7899931818
0.789993178
0.7899931733
0.7899931678
0.7899931608
0.7899931524
0.7899931407
0.7899931255
0.789993106
0.789993082
0.7899930536
0.7899930258
0.789993003
0.789993018
0.789993032
0.7899930358
0.7899930226
0.7899930195
0.7899930653
0.7899935773
0.7899928681
0.7899929633
0.7899925249
0.7899927557
0.7899927536
0.789993187
0.7899931933
0.7899931981
0.7899931978
0.7899931967
0.7899931951
0.7899931931
0.7899931907
0.7899931878
0.7899931842
0.78999318
0.7899931749
0.7899931687
0.7899931611
0.7899931515
0.7899931397
0.7899931252
0.7899931086
0.7899930903
0.7899930736
0.7899930618
0.789993064
0.7899930696
0.7899930705
0.7899930627
0.7899930465
0.7899930172
0.7899931051
0.7899929647
0.7899930118
0.7899928449
0.7899929139
0.7899927922
0.7899931909
0.7899931971
0.7899932017
0.7899932014
0.7899932002
0.7899931987
0.7899931967
0.7899931944
0.7899931916
0.7899931882
0.7899931843
0.7899931795
0.7899931739
0.7899931671
0.789993159
0.7899931494
0.7899931384
0.7899931263
0.7899931137
0.7899931027
0.7899930949
0.789993093
0.789993094
0.7899930927
0.7899930883
0.7899930772
0.789993058
0.7899930277
0.7899930374
0.7899930468
0.7899929845
0.7899930049
0.7899929556
0.7899931934
0.7899931979
0.7899931999
0.7899931993
0.7899931981
0.7899931966
0.7899931947
0.7899931924
0.7899931897
0.7899931864
0.7899931826
0.7899931781
0.7899931728
0.7899931667
0.7899931595
0.7899931514
0.7899931424
0.7899931328
0.7899931233
0.789993115
0.7899931088
0.7899931056
0.7899931043
0.7899931019
0.789993099
0.789993091
0.7899930829
0.7899930608
0.789993068
0.7899930677
0.7899930397
0.7899930469
0.7899930192
0.7899931943
0.7899931945
0.7899931941
0.7899931932
0.789993192
0.7899931905
0.7899931886
0.7899931863
0.7899931836
0.7899931804
0.7899931767
0.7899931723
0.7899931672
0.7899931614
0.7899931547
0.7899931472
0.789993139
0.7899931306
0.7899931223
0.7899931151
0.7899931095
0.7899931058
0.7899931036
0.7899931008
0.7899930983
0.7899930916
0.7899930868
0.7899930732
0.7899930741
0.7899930726
0.7899930534
0.7899930592
0.7899930312
0.7899930271
0.7899931933
0.7899931878
0.7899931506
0.7899931353
0.7899932196
0.7899932986
0.7899933022
0.7899933949
0.789993894
0.7899941157
0.7899937942
0.7899935183
0.7899935067
0.7899935006
0.7899935341
0.7899935695
0.7899935956
0.7899936117
0.7899936218
0.789993629
0.7899936331
0.7899936384
0.789993639
0.7899936447
0.7899936406
0.7899936487
0.7899936381
0.7899931857
0.7899933452
0.7899934077
0.7899935112
0.7899934691
0.7899934514
0.7899932532
0.789993439
0.7899932456
0.7899933656
0.7899935109
0.7899934549
0.7899934746
0.7899934471
0.7899934705
0.789993523
0.7899935636
0.789993591
0.7899936095
0.7899936218
0.7899936308
0.7899936357
0.7899936419
0.7899936409
0.7899936472
0.7899936375
0.7899936481
0.7899936235
0.789993649
0.7899936301
0.7899936488
0.7899936255
0.7899933348
0.7899934318
0.789993667
0.7899937547
0.7899937507
0.7899927825
0.7899930308
0.7899927447
0.7899926365
0.7899930698
0.7899932752
0.7899933632
0.7899934019
0.789993452
0.7899935168
0.7899935651
0.7899935945
0.7899936128
0.7899936248
0.7899936323
0.789993639
0.7899936406
0.7899936459
0.7899936406
0.7899936466
0.7899936289
0.789993641
0.7899935914
0.7899936389
0.7899936057
0.7899936352
0.7899935868
0.7899937107
0.789994176
0.7899946868
0.7899945197
0.789994849
0.7899942824
0.7899949967
0.7899930752
0.7899921005
0.7899930193
0.789993349
0.7899934103
0.7899934455
0.7899935002
0.7899935481
0.7899935799
0.7899935998
0.7899936132
0.789993623
0.7899936293
0.7899936357
0.7899936362
0.7899936414
0.7899936317
0.7899936363
0.7899936051
0.7899936161
0.7899935388
0.7899936144
0.7899935607
0.7899936073
0.7899935311
0.7899935957
0.7899938916
0.7899942034
0.7899942523
0.7899939439
0.7899936264
0.7899927962
0.7899925763
0.7899907377
0.7899880317
0.7899925663
0.7899925161
0.7899930985
0.789993341
0.7899934678
0.7899935372
0.7899935748
0.7899935969
0.7899936107
0.789993621
0.7899936268
0.7899936331
0.7899936311
0.7899936343
0.7899936201
0.7899936183
0.7899935767
0.7899935812
0.7899935535
0.7899935759
0.7899934949
0.7899935495
0.7899935208
0.7899935426
0.7899935538
0.789994156
0.7899946336
0.789994679
0.7899944458
0.7899933157
0.7899925963
0.7899915583
0.7899850917
0.7899923387
0.789993079
0.7899933844
0.7899934969
0.7899935457
0.7899935706
0.7899935845
0.7899935947
0.7899936026
0.7899936098
0.7899936135
0.7899936188
0.7899936133
0.7899936129
0.789993586
0.7899935741
0.7899935116
0.7899935624
0.7899935558
0.7899935294
0.7899934063
0.7899934868
0.7899935813
0.7899935436
0.7899931554
0.7899935391
0.7899938444
0.7899940003
0.7899939674
0.7899930823
0.7899926577
0.7899922722
0.7899909041
0.7899926936
0.7899931087
0.7899933205
0.7899934369
0.7899934985
0.7899935328
0.7899935567
0.7899935715
0.7899935831
0.789993593
0.7899935979
0.7899936018
0.7899935937
0.7899935849
0.7899935529
0.7899935305
0.7899935175
0.7899935853
0.7899935231
0.7899935502
0.7899934189
0.7899934496
0.789993518
0.7899935707
0.7899930813
0.7899934349
0.7899934184
0.7899933757
0.7899934224
0.7899931413
0.7899929354
0.7899928504
0.7899926218
0.7899930964
0.7899933078
0.789993417
0.7899934739
0.7899935079
0.789993528
0.7899935382
0.7899935484
0.7899935564
0.7899935655
0.7899935674
0.7899935678
0.7899935467
0.7899935265
0.7899934812
0.7899935021
0.7899935111
0.7899935657
0.7899936425
0.7899934981
0.7899934546
0.7899935119
0.7899935918
0.7899935854
0.7899930283
0.7899933371
0.7899933166
0.7899932866
0.7899932126
0.7899930776
0.7899930191
0.7899930168
0.7899930262
0.7899931906
0.7899933093
0.7899933762
0.7899934098
0.789993446
0.7899934725
0.789993494
0.7899935059
0.7899935212
0.7899935316
0.7899935374
0.7899935309
0.7899935068
0.7899934951
0.7899935298
0.7899935524
0.7899935663
0.7899940329
0.789995239
0.7899939371
0.7899932955
0.7899935679
0.7899942958
0.7899936157
0.7899929313
0.7899931965
0.7899932393
0.7899932349
0.7899931502
0.7899931067
0.7899930305
0.7899930951
0.7899932006
0.7899932723
0.7899933361
0.7899933616
0.7899933664
0.7899934014
0.7899934319
0.7899934477
0.7899934628
0.7899934753
0.7899934878
0.7899934848
0.7899934639
0.7899934399
0.789993499
0.7899934816
0.7899934466
0.7899935288
0.7899944549
0.7899956101
0.7899942318
0.7899935017
0.7899944189
0.7899955219
0.7899945694
0.789992938
0.7899931072
0.7899931363
0.7899931509
0.7899931433
0.7899931706
0.7899932268
0.7899932684
0.7899932626
0.78999327
0.7899932787
0.7899932832
0.7899933143
0.7899933288
0.7899933505
0.7899933861
0.789993398
0.7899934289
0.7899934366
0.7899934519
0.7899934299
0.7899934324
0.7899934344
0.7899934638
0.7899934143
0.7899933608
0.7899941009
0.7899954025
0.7899935584
0.7899937618
0.7899944303
0.7899958032
0.7899945724
0.7899930758
0.7899931503
0.7899931549
0.7899931217
0.7899930072
0.7899928056
0.789992112
0.7899928497
0.7899931504
0.7899931511
0.7899932427
0.7899933045
0.7899933452
0.7899933645
0.7899933466
0.7899933345
0.7899933488
0.7899933762
0.7899933905
0.7899933989
0.7899933944
0.7899934061
0.7899933756
0.7899934044
0.7899934031
0.789993272
0.7899933777
0.7899940322
0.7899934752
0.7899938546
0.7899941371
0.7899951088
0.7899940955
0.7899932227
0.7899932487
0.7899932514
0.7899932359
0.7899931982
0.7899931612
0.7899930668
0.7899931669
0.7899931905
0.7899931926
0.7899932766
0.789993309
0.7899933744
0.7899934504
0.7899934187
0.7899932992
0.7899932725
0.7899933112
0.7899933039
0.789993366
0.7899933996
0.7899934349
0.7899933686
0.7899933669
0.7899934137
0.7899933852
0.7899933822
0.7899932279
0.7899935366
0.7899936463
0.789993578
0.7899943422
0.7899935754
0.789993328
0.7899933354
0.7899933359
0.7899933198
0.7899932835
0.7899932234
0.7899931249
0.7899931446
0.7899932345
0.789993271
0.7899933328
0.7899936832
0.7899942891
0.7899946425
0.7899944478
0.7899934944
0.7899933375
0.789993277
0.7899933205
0.7899934314
0.7899935057
0.7899935448
0.7899933982
0.7899933741
0.7899933721
0.7899934121
0.7899934422
0.7899933169
0.7899935123
0.7899936994
0.7899935245
0.7899935624
0.7899935277
0.7899934014
0.7899934023
0.7899934018
0.7899933849
0.7899933496
0.7899932857
0.7899932222
0.789993255
0.7899933074
0.78999336
0.7899936839
0.7899941326
0.7899946194
0.7899948351
0.7899945646
0.7899934622
0.7899933322
0.7899932043
0.7899932812
0.7899934422
0.7899938323
0.7899939911
0.7899934415
0.7899934092
0.7899933743
0.7899933715
0.7899934514
0.7899934395
0.7899934069
0.7899935377
0.7899935618
0.789993516
0.7899935595
0.7899934558
0.7899934546
0.7899934543
0.7899934379
0.7899934032
0.7899933429
0.7899932924
0.7899933214
0.7899933278
0.7899933765
0.7899937095
0.7899941271
0.7899945134
0.7899945835
0.7899939472
0.7899934336
0.7899933273
0.789993314
0.7899936404
0.789994276
0.7899946633
0.7899945624
0.7899939751
0.7899936005
0.7899934571
0.7899934046
0.7899934275
0.7899934156
0.7899934586
0.7899934161
0.7899935273
0.7899935975
0.7899935951
0.7899934984
0.789993497
0.7899934978
0.7899934836
0.789993453
0.7899934001
0.789993337
0.7899933325
0.7899933553
0.7899933294
0.7899934292
0.7899937743
0.7899940926
0.7899940995
0.7899934167
0.7899932749
0.789993308
0.7899933981
0.7899938058
0.7899944595
0.7899948976
0.7899948751
0.789993772
0.7899935168
0.7899934698
0.7899934215
0.7899934575
0.789993406
0.7899935587
0.789993484
0.7899935836
0.7899936041
0.7899935673
0.7899935331
0.7899935322
0.7899935347
0.7899935239
0.7899935002
0.7899934596
0.7899933978
0.7899933492
0.7899933586
0.7899933662
0.7899933334
0.7899934503
0.7899935895
0.7899935982
0.7899933454
0.7899932329
0.7899933531
0.7899934226
0.7899936581
0.789994217
0.7899945262
0.7899944182
0.7899935123
0.7899935087
0.7899934502
0.7899934519
0.7899935261
0.7899935271
0.7899936417
0.7899936357
0.7899937867
0.7899936699
0.7899937412
0.7899935619
0.7899935618
0.7899935659
0.7899935586
0.7899935415
0.7899935128
0.7899934663
0.7899934073
0.7899933658
0.7899933849
0.7899933828
0.7899934072
0.7899934158
0.7899934117
0.789993285
0.789993242
0.7899932955
0.7899933778
0.7899933451
0.7899936214
0.7899938261
0.7899935748
0.7899934249
0.7899933922
0.7899934137
0.7899934578
0.7899935937
0.7899937188
0.7899937473
0.7899937399
0.7899942397
0.7899943805
0.7899936388
0.7899935861
0.7899935866
0.7899935922
0.7899935878
0.789993576
0.7899935566
0.7899935257
0.7899934816
0.7899934267
0.7899933963
0.7899934032
0.789993448
0.7899934486
0.7899934178
0.7899933282
0.7899933318
0.7899933142
0.78999335
0.7899933485
0.7899933605
0.7899932698
0.78999337
0.789993356
0.789993375
0.789993452
0.7899935134
0.7899939467
0.7899943261
0.7899939277
0.7899939392
0.7899951158
0.7899940028
0.7899961548
0.7899936065
0.7899936074
0.7899936141
0.7899936119
0.789993604
0.7899935913
0.7899935719
0.7899935442
0.7899935049
0.7899934629
0.7899934319
0.7899934427
0.7899934472
0.7899934466
0.7899934083
0.7899934088
0.7899933592
0.7899933339
0.789993303
0.7899933386
0.7899932453
0.7899927872
0.7899932675
0.7899933332
0.7899935192
0.7899937369
0.789994412
0.7899944103
0.7899941579
0.7899941866
0.79000154
0.7899942369
0.789994411
0.7899936235
0.7899936248
0.7899936324
0.7899936318
0.7899936264
0.789993618
0.7899936059
0.7899935892
0.7899935658
0.789993538
0.7899935062
0.7899934926
0.7899934766
0.7899935061
0.7899934787
0.789993457
0.7899933767
0.7899932339
0.7899929802
0.7899928299
0.7899906787
0.7899930838
0.7899929904
0.7899932763
0.7899934365
0.7899935269
0.7899942446
0.7899945826
0.7899939605
0.7899940564
0.7900019247
0.7899941296
0.7899949172
0.7899936378
0.7899936393
0.7899936476
0.789993648
0.7899936443
0.7899936386
0.7899936308
0.7899936205
0.7899936068
0.7899935907
0.7899935709
0.7899935573
0.7899935386
0.7899935545
0.7899935326
0.7899935108
0.7899934599
0.7899933925
0.7899932899
0.7899932073
0.7899927026
0.7899932637
0.7899932403
0.7899933269
0.7899934376
0.7899934982
0.7899938551
0.7899944384
0.7899936855
0.7899940892
0.7899952412
0.789993743
0.7899935787
0.7899936496
0.7899936513
0.78999366
0.7899936611
0.7899936584
0.7899936544
0.7899936491
0.7899936424
0.7899936339
0.7899936239
0.7899936121
0.7899936023
0.7899935891
0.7899935895
0.7899935719
0.7899935515
0.7899935145
0.7899934648
0.7899933896
0.7899933084
0.7899930114
0.7899933683
0.7899933445
0.7899933826
0.7899934135
0.7899934431
0.7899935459
0.7899939341
0.7899934914
0.7899936852
0.7899934597
0.7899935594
0.7899933775
0.7899936593
0.7899936611
0.78999367
0.7899936715
0.7899936696
0.7899936666
0.7899936627
0.7899936578
0.789993652
0.7899936452
0.7899936374
0.7899936298
0.7899936203
0.7899936143
0.7899936004
0.789993583
0.7899935567
0.7899935225
0.7899934749
0.7899934243
0.7899933249
0.7899934302
0.7899934414
0.7899934508
0.7899934422
0.7899934567
0.7899935192
0.7899935982
0.7899934112
0.7899934802
0.7899931993
0.7899934334
0.789993468
0.7899936671
0.7899936689
0.789993678
0.7899936798
0.7899936782
0.7899936758
0.7899936727
0.7899936689
0.7899936644
0.7899936593
0.7899936533
0.7899936469
0.7899936394
0.7899936318
0.7899936206
0.7899936064
0.7899935875
0.7899935641
0.7899935347
0.789993505
0.7899934693
0.7899934954
0.789993505
0.7899935048
0.7899934954
0.7899934791
0.7899934757
0.7899935108
0.7899934137
0.7899934783
0.7899933137
0.7899934733
0.7899935095
0.789993673
0.7899936749
0.789993684
0.7899936858
0.7899936845
0.7899936824
0.7899936798
0.7899936766
0.7899936729
0.7899936685
0.7899936635
0.7899936579
0.7899936514
0.7899936441
0.7899936348
0.7899936234
0.7899936093
0.7899935929
0.7899935741
0.7899935561
0.7899935401
0.7899935436
0.789993547
0.7899935431
0.7899935375
0.7899935172
0.7899935046
0.7899934747
0.7899934765
0.7899935057
0.7899934224
0.7899935106
0.7899935085
0.7899936774
0.7899936792
0.7899936869
0.7899936881
0.7899936868
0.7899936849
0.7899936825
0.7899936797
0.7899936763
0.7899936724
0.789993668
0.7899936629
0.789993657
0.7899936503
0.7899936422
0.7899936328
0.7899936219
0.7899936097
0.7899935968
0.7899935848
0.7899935752
0.7899935725
0.7899935718
0.7899935671
0.7899935632
0.7899935466
0.7899935415
0.7899935011
0.7899935226
0.7899935297
0.7899934926
0.7899935372
0.7899935245
0.7899936802
0.7899936808
0.7899936819
0.7899936811
0.7899936797
0.7899936779
0.7899936757
0.789993673
0.7899936698
0.7899936662
0.789993662
0.7899936573
0.7899936518
0.7899936455
0.7899936383
0.7899936302
0.7899936211
0.7899936113
0.7899936014
0.7899935923
0.789993585
0.7899935805
0.7899935777
0.789993573
0.7899935694
0.7899935576
0.7899935548
0.7899935308
0.7899935409
0.7899935417
0.7899935222
0.7899935477
0.7899935281
0.7899936819
0.7899936811
0.7899936805
0.7899936795
0.7899936781
0.7899936763
0.7899936741
0.7899936715
0.7899936684
0.7899936648
0.7899936608
0.7899936561
0.7899936508
0.7899936448
0.789993638
0.7899936304
0.7899936221
0.7899936133
0.7899936046
0.7899935966
0.78999359
0.789993585
0.7899935814
0.7899935767
0.7899935731
0.7899935637
0.7899935613
0.7899935451
0.7899935492
0.789993548
0.7899935332
0.7899935508
0.7899935284
0.7899933307
0.7899934879
0.789993489
0.7899935312
0.7899935067
0.7899935082
0.7899935691
0.789993665
0.7899937779
0.7899940655
0.7899943309
0.7899942527
0.7899939383
0.7899938855
0.7899938696
0.789993883
0.789993893
0.7899939023
0.7899939089
0.7899939142
0.7899939189
0.7899939222
0.7899939267
0.7899939282
0.7899939332
0.7899939322
0.7899939381
0.7899939337
0.7899939418
0.7899933578
0.7899935406
0.7899935777
0.7899936625
0.7899936446
0.7899935356
0.7899935524
0.7899935907
0.7899936303
0.7899937992
0.7899939036
0.789993879
0.7899938449
0.7899938385
0.7899938583
0.7899938797
0.7899938935
0.7899939034
0.7899939111
0.7899939173
0.7899939229
0.7899939266
0.7899939318
0.7899939324
0.7899939381
0.7899939341
0.7899939413
0.789993931
0.7899939429
0.7899939331
0.7899939429
0.7899939321
0.7899934299
0.7899936435
0.7899938364
0.7899940182
0.7899940035
0.7899933377
0.7899931071
0.7899933405
0.7899934482
0.7899938776
0.7899939034
0.7899938947
0.7899938798
0.7899938857
0.7899938947
0.789993904
0.7899939103
0.7899939159
0.7899939212
0.7899939254
0.7899939303
0.7899939323
0.7899939375
0.789993936
0.789993942
0.7899939347
0.7899939428
0.7899939229
0.7899939421
0.7899939254
0.7899939395
0.7899939191
0.7899937318
0.7899944508
0.7899951721
0.7899951416
0.7899952913
0.789995551
0.7899950049
0.7899942348
0.7899931237
0.7899941767
0.7899940448
0.7899939696
0.7899939177
0.7899939088
0.7899939088
0.789993911
0.7899939136
0.789993917
0.7899939212
0.7899939247
0.7899939296
0.7899939312
0.7899939372
0.7899939336
0.7899939406
0.7899939271
0.7899939377
0.7899938963
0.789993935
0.789993906
0.7899939293
0.7899938884
0.7899939236
0.7899940289
0.7899945282
0.7899947385
0.7899945413
0.7899942047
0.7899940057
0.789993291
0.7899913828
0.7899958201
0.7899998085
0.789994432
0.7899940978
0.7899939737
0.7899939346
0.789993918
0.7899939125
0.7899939118
0.7899939142
0.7899939189
0.7899939228
0.789993929
0.7899939301
0.7899939368
0.7899939323
0.7899939392
0.7899939232
0.7899939317
0.7899938794
0.7899939254
0.7899938799
0.7899939123
0.7899938555
0.7899939033
0.7899937475
0.789994504
0.7899949538
0.789995046
0.78999482
0.7899941389
0.7899926433
0.7899911303
0.7899914321
0.7899963936
0.7899942057
0.7899940739
0.7899939806
0.7899939351
0.7899939146
0.7899939049
0.7899939028
0.7899939043
0.789993909
0.7899939126
0.7899939199
0.7899939198
0.7899939277
0.7899939182
0.7899939273
0.7899938941
0.7899939207
0.7899938807
0.7899939082
0.7899938146
0.7899938772
0.7899938427
0.7899938781
0.7899933923
0.7899938601
0.7899942334
0.78999443
0.789994353
0.7899936359
0.7899931711
0.7899929253
0.7899932071
0.7899944346
0.7899940228
0.7899939591
0.7899939239
0.7899938973
0.789993883
0.7899938796
0.7899938799
0.7899938847
0.7899938931
0.7899938998
0.7899939094
0.789993911
0.7899939195
0.7899939118
0.7899939211
0.7899939038
0.7899939655
0.7899939753
0.789993936
0.7899937752
0.7899938535
0.7899938975
0.7899938893
0.7899932971
0.7899936059
0.7899937337
0.7899937613
0.7899937553
0.7899934715
0.7899934049
0.7899933801
0.7899934474
0.7899938771
0.7899938823
0.7899938787
0.7899938723
0.7899938631
0.7899938547
0.7899938487
0.7899938499
0.7899938559
0.7899938672
0.7899938748
0.7899938866
0.7899938843
0.789993893
0.789993872
0.7899939054
0.7899938991
0.7899940248
0.7899943059
0.7899939711
0.7899937655
0.7899938903
0.7899940331
0.7899939497
0.7899932501
0.7899934866
0.7899935323
0.789993561
0.7899935496
0.7899934797
0.7899935005
0.7899935367
0.7899935966
0.7899937469
0.789993799
0.7899938068
0.7899938055
0.7899938044
0.7899938036
0.7899938026
0.7899938038
0.7899938176
0.7899938351
0.7899938504
0.7899938649
0.7899938671
0.7899938723
0.7899938876
0.7899939523
0.7899940326
0.7899946659
0.7899952238
0.7899944233
0.7899938768
0.7899940485
0.7899949664
0.7899941648
0.7899932966
0.7899934699
0.7899935007
0.7899935279
0.7899934966
0.7899933821
0.7899932109
0.7899934422
0.7899936402
0.7899937014
0.7899937693
0.789993771
0.7899937651
0.7899937614
0.7899937506
0.7899937439
0.7899937455