/*--------------------------------*- C++ -*----------------------------------*\
  =========                 |
  \\      /  F ield         | OpenFOAM: The Open Source CFD Toolbox
   \\    /   O peration     | Website:  https://openfoam.org
    \\  /    A nd           | Version:  8
     \\/     M anipulation  |
\*---------------------------------------------------------------------------*/
FoamFile
{
    version     2.0;
    format      ascii;
    class       volScalarField;
    location    "0.3";
    object      O2;
}
// * * * * * * * * * * * * * * * * * * * * * * * * * * * * * * * * * * * * * //

dimensions      [0 0 0 0 0 0 0];

internalField   nonuniform List<scalar> 
67286
(
0.2100067748
0.2100066621
0.2100069085
0.2100072783
0.2100074783
0.2100074593
0.2100062177
0.21000579
0.2100055539
0.2100053876
0.2100053254
0.210005558
0.2100058705
0.2100063022
0.2100066696
0.2100068461
0.2100068835
0.2100068771
0.2100068682
0.2100068618
0.2100068565
0.2100068521
0.2100068477
0.2100068441
0.2100068402
0.210006838
0.2100068341
0.2100068352
0.2100063146
0.2100064447
0.2100069075
0.2100075778
0.2100080294
0.2100076687
0.2100070327
0.2100062183
0.2100057303
0.2100056448
0.2100056614
0.2100058413
0.2100062263
0.2100066241
0.2100068387
0.2100068803
0.2100068741
0.2100068657
0.2100068592
0.2100068538
0.2100068488
0.2100068444
0.21000684
0.2100068367
0.2100068331
0.2100068323
0.2100068289
0.2100068359
0.2100068253
0.2100068272
0.2100068233
0.2100068307
0.2100060405
0.2100065936
0.2100074539
0.2100082769
0.2100073439
0.2100048947
0.210007551
0.2100073495
0.2100068639
0.2100063284
0.2100061743
0.210006363
0.2100066882
0.2100068968
0.2100069262
0.2100069017
0.2100068803
0.2100068667
0.2100068571
0.2100068498
0.2100068438
0.2100068391
0.2100068346
0.2100068315
0.2100068288
0.2100068294
0.2100068286
0.2100068348
0.2100068255
0.21000683
0.2100068253
0.2100068322
0.210005794
0.2100065594
0.2100070166
0.2100054329
0.2100006577
0.2099978168
0.2100051707
0.210006455
0.2100077473
0.210006989
0.2100066153
0.2100067166
0.2100068793
0.2100069157
0.2100068953
0.2100068759
0.2100068651
0.2100068579
0.2100068522
0.2100068472
0.2100068419
0.2100068369
0.2100068324
0.210006829
0.2100068283
0.2100068299
0.2100068304
0.2100067219
0.2100068269
0.2100068382
0.2100068327
0.2100067368
0.2100068321
0.2100053791
0.2100056556
0.2100057402
0.210006437
0.2100073015
0.2100048751
0.210008229
0.2100087988
0.2100108889
0.2100085801
0.2100077613
0.2100073843
0.2100071792
0.2100070407
0.2100069581
0.2100069144
0.2100068882
0.2100068721
0.2100068604
0.2100068514
0.2100068442
0.210006838
0.2100068338
0.2100068297
0.2100068334
0.2100068277
0.2100067658
0.2100063137
0.2100067881
0.2100068394
0.210006829
0.2100063996
0.2100067382
0.2100049823
0.2100036373
0.2100029455
0.2100035709
0.2100066648
0.210007318
0.210008149
0.2100084245
0.2100091211
0.2100079494
0.2100074297
0.2100071767
0.2100070284
0.2100069495
0.2100069103
0.2100068905
0.2100068802
0.2100068723
0.210006865
0.2100068576
0.2100068502
0.210006843
0.2100068398
0.2100068352
0.2100068375
0.2100067614
0.2100064944
0.2100057556
0.2100065725
0.2100067201
0.2100067425
0.2100059501
0.2100064132
0.2100064375
0.2100053902
0.2100046026
0.2100046086
0.2100068325
0.2100077623
0.2100080173
0.2100082502
0.2100085492
0.2100079147
0.210007501
0.2100072509
0.2100070965
0.2100070083
0.2100069587
0.2100069278
0.2100069082
0.2100068932
0.2100068808
0.21000687
0.2100068619
0.2100068543
0.2100068537
0.2100068402
0.210006772
0.2100065039
0.2100060725
0.2100054034
0.2100060909
0.2100063101
0.2100064446
0.2100056622
0.2100059615
0.2100070342
0.2100065599
0.2100060682
0.2100058985
0.2100072096
0.210007629
0.2100076838
0.2100077462
0.2100077707
0.2100074911
0.2100072597
0.210007113
0.210007024
0.2100069731
0.2100069451
0.2100069298
0.2100069189
0.2100069088
0.2100068978
0.2100068864
0.2100068785
0.210006872
0.210006853
0.2100067338
0.2100064692
0.2100060843
0.2100057199
0.2100051457
0.2100056197
0.2100057219
0.2100059705
0.2100054525
0.2100056055
0.2100071796
0.2100069612
0.2100069282
0.2100068476
0.2100073043
0.2100074763
0.2100075011
0.210007512
0.2100074762
0.2100073413
0.2100072061
0.2100071127
0.2100070511
0.2100070111
0.2100069838
0.210006964
0.2100069502
0.2100069349
0.2100069222
0.2100069088
0.2100069047
0.2100068773
0.2100067035
0.2100063456
0.2100059943
0.210005718
0.2100054287
0.2100044942
0.2100053121
0.2100052747
0.2100054605
0.2100051357
0.2100053882
0.2100073062
0.2100070768
0.2100071942
0.2100072311
0.2100073198
0.2100073938
0.2100074016
0.210007374
0.2100072956
0.2100072155
0.2100071337
0.2100070707
0.2100069846
0.2100069942
0.2100069928
0.2100069836
0.2100069731
0.2100069604
0.2100069463
0.2100069353
0.2100069182
0.2100067271
0.2100062106
0.2100056705
0.2100054643
0.210005361
0.2100050057
0.2100040837
0.2100050634
0.2100050313
0.2100051623
0.2100044637
0.2100050774
0.2100074056
0.2100072169
0.2100072745
0.2100073108
0.2100073248
0.2100073549
0.2100073438
0.2100072815
0.2100072167
0.2100071733
0.2100071048
0.2100069594
0.2100067539
0.210006855
0.2100069905
0.2100070071
0.2100070029
0.210006985
0.2100069725
0.210006953
0.2100069391
0.2100069007
0.210006629
0.2100060952
0.2100056114
0.2100053161
0.2100050501
0.210004207
0.210004629
0.2100044669
0.2100049748
0.2100040357
0.210004928
0.210007351
0.2100072634
0.2100072793
0.2100073079
0.2100073658
0.2100075194
0.210007813
0.210007521
0.2100072558
0.2100071901
0.2100069119
0.2100066098
0.2100063807
0.2100065247
0.210006843
0.2100069977
0.2100070135
0.2100070065
0.210006988
0.2100069373
0.2100068414
0.2100069295
0.2100068547
0.2100064724
0.2100059156
0.2100054815
0.2100051825
0.2100047679
0.2100047122
0.2100045407
0.2100049706
0.2100043864
0.2100050357
0.2100072284
0.2100071977
0.2100072027
0.2100072184
0.2100072454
0.2100072995
0.2100073528
0.2100072557
0.2100071071
0.2100068764
0.210006508
0.210006221
0.2100061102
0.2100061477
0.2100065574
0.2100068789
0.2100069844
0.210007015
0.2100069628
0.2100067688
0.2100065421
0.210006834
0.2100069314
0.2100068015
0.2100063769
0.2100058171
0.2100053733
0.2100049783
0.2100051235
0.2100047315
0.2100050924
0.2100047993
0.2100051976
0.2100071303
0.2100071192
0.210007123
0.210007137
0.2100071592
0.2100071984
0.2100072139
0.2100071089
0.2100067898
0.2100064382
0.2100061644
0.2100060057
0.210005763
0.2100055526
0.2100058081
0.2100064476
0.210006746
0.2100069606
0.2100067922
0.2100064064
0.2100061477
0.2100064463
0.210006849
0.2100069028
0.2100067719
0.2100063442
0.2100057952
0.2100053275
0.2100057658
0.2100051382
0.2100052257
0.2100049667
0.2100052843
0.2100070619
0.2100070561
0.2100070587
0.210007071
0.2100070902
0.2100071051
0.210006992
0.2100066217
0.2100061879
0.2100060022
0.2100058794
0.210005665
0.2100054107
0.2100052983
0.2100056049
0.2100059822
0.2100063333
0.2100067448
0.2100064772
0.210005997
0.2100058152
0.2100059252
0.2100065553
0.2100068129
0.2100069016
0.2100067764
0.2100064094
0.2100058982
0.2100064668
0.2100058585
0.2100057049
0.2100050568
0.2100055428
0.2100070113
0.2100070069
0.210007008
0.2100070182
0.2100070349
0.210007031
0.2100068735
0.210006498
0.2100061114
0.210005916
0.2100057852
0.2100056035
0.2100054149
0.2100053957
0.210005772
0.2100060084
0.2100064233
0.2100066137
0.2100060845
0.2100055718
0.2100052207
0.2100052239
0.2100058028
0.2100063357
0.2100067756
0.2100068847
0.210006827
0.2100065092
0.2100068364
0.2100065543
0.2100064214
0.2100053574
0.2100061187
0.2100069717
0.2100069671
0.2100069668
0.2100069745
0.2100069886
0.2100069998
0.2100069176
0.2100066201
0.2100062044
0.2100059259
0.2100058065
0.2100057192
0.210005645
0.2100056761
0.2100059478
0.2100063823
0.210006084
0.2100057441
0.210005546
0.2100052079
0.2100049213
0.2100050469
0.2100056441
0.2100060117
0.2100064333
0.2100067682
0.2100068941
0.2100068374
0.210006868
0.2100068259
0.2100068671
0.2100060543
0.2100067165
0.2100069395
0.2100069345
0.2100069329
0.2100069383
0.2100069485
0.210006965
0.2100069581
0.2100068117
0.2100064747
0.2100061031
0.2100058999
0.2100058341
0.2100058786
0.2100059579
0.2100063136
0.2100066591
0.2100061942
0.2100057246
0.2100055239
0.2100053393
0.2100051761
0.2100054515
0.2100058002
0.2100062126
0.210006637
0.2100068497
0.2100068658
0.2100066544
0.2100068597
0.2100067978
0.2100070014
0.2100066391
0.2100069644
0.210006913
0.2100069076
0.2100069049
0.2100069085
0.2100069153
0.210006927
0.2100069434
0.2100069215
0.2100067589
0.2100064547
0.210006157
0.210006017
0.2100060867
0.2100063037
0.2100066829
0.2100068833
0.2100065318
0.2100060442
0.2100057172
0.2100055906
0.2100055614
0.2100059955
0.2100062584
0.2100066487
0.2100068859
0.2100068684
0.210006712
0.2100061663
0.2100068571
0.2100068495
0.2100072533
0.2100069036
0.2100069325
0.210006891
0.2100068853
0.2100068818
0.2100068842
0.2100068887
0.210006896
0.2100069084
0.2100069235
0.210006901
0.210006767
0.2100065414
0.2100063479
0.2100063424
0.210006672
0.210006897
0.2100069772
0.2100068567
0.2100065165
0.2100061255
0.2100058868
0.2100058778
0.210006457
0.2100067126
0.2100069293
0.2100068929
0.2100066723
0.2100062619
0.2100056221
0.2100067146
0.2100069536
0.2100078753
0.2100072478
0.2100049671
0.2100068726
0.2100068667
0.2100068627
0.2100068642
0.2100068673
0.210006872
0.2100068793
0.2100068911
0.210006905
0.2100068932
0.2100068139
0.2100066904
0.2100066376
0.2100068682
0.210006945
0.210006977
0.210006999
0.2100069183
0.2100066792
0.2100064319
0.2100063537
0.2100072131
0.2100070603
0.210007061
0.2100067692
0.2100063067
0.2100056781
0.2100054
0.2100065409
0.2100074352
0.2100029566
0.2100074545
0.2100026142
0.2100068573
0.2100068512
0.2100068469
0.2100068479
0.2100068501
0.2100068534
0.210006858
0.2100068648
0.2100068751
0.2100068868
0.2100068876
0.2100068613
0.2100068346
0.2100069033
0.2100069313
0.2100069627
0.2100070253
0.2100071085
0.2100071648
0.2100071599
0.2100077747
0.2100072388
0.2100072427
0.2100069091
0.2100063159
0.2100057862
0.2100053792
0.2100048995
0.2100070208
0.2100077751
0.210016448
0.2100107625
0.2100090607
0.2100068445
0.2100068384
0.2100068338
0.2100068344
0.2100068362
0.2100068386
0.2100068419
0.2100068464
0.2100068525
0.2100068606
0.2100068703
0.2100068767
0.2100068816
0.2100068892
0.2100069097
0.2100069382
0.2100069874
0.2100070589
0.2100071466
0.2100072158
0.2100073591
0.2100072192
0.2100071666
0.2100070493
0.2100066414
0.210005982
0.2100054957
0.2100048149
0.2100067115
0.2100068843
0.2100136317
0.2100084177
0.2100090604
0.2100068339
0.2100068277
0.210006823
0.2100068235
0.2100068249
0.2100068269
0.2100068296
0.2100068329
0.2100068373
0.2100068427
0.2100068496
0.210006857
0.2100068662
0.2100068727
0.2100068902
0.2100069143
0.2100069512
0.2100070023
0.2100070709
0.2100071498
0.2100072555
0.21000713
0.2100070931
0.2100070641
0.2100069369
0.2100065245
0.2100059319
0.2100050994
0.2100068932
0.2100068942
0.2100095774
0.2100074811
0.2100078673
0.2100068253
0.210006819
0.2100068142
0.2100068146
0.2100068159
0.2100068177
0.2100068199
0.2100068228
0.2100068263
0.2100068307
0.210006836
0.2100068423
0.2100068503
0.2100068589
0.2100068732
0.2100068926
0.2100069195
0.2100069546
0.2100069993
0.2100070481
0.2100071003
0.210007048
0.2100070218
0.2100070143
0.2100070129
0.2100068924
0.2100065671
0.2100056541
0.2100071133
0.2100070585
0.2100081628
0.2100073082
0.2100069191
0.2100068183
0.2100068121
0.2100068072
0.2100068076
0.2100068088
0.2100068104
0.2100068125
0.2100068151
0.2100068182
0.210006822
0.2100068267
0.2100068322
0.2100068392
0.2100068476
0.2100068593
0.2100068745
0.210006894
0.210006918
0.2100069464
0.2100069742
0.210006997
0.210006982
0.210006968
0.2100069642
0.2100069774
0.2100069805
0.2100069347
0.2100064227
0.2100071319
0.2100070367
0.2100074751
0.2100072443
0.2100072464
0.210006813
0.2100068067
0.2100068019
0.2100068022
0.2100068033
0.2100068049
0.2100068069
0.2100068093
0.2100068122
0.2100068158
0.21000682
0.2100068251
0.2100068313
0.2100068389
0.2100068485
0.2100068603
0.2100068748
0.2100068914
0.2100069097
0.2100069264
0.2100069382
0.210006936
0.2100069304
0.2100069295
0.2100069373
0.2100069535
0.2100069828
0.2100068949
0.2100070353
0.2100069882
0.2100071551
0.2100070861
0.2100072078
0.2100068091
0.2100068029
0.2100067983
0.2100067986
0.2100067998
0.2100068013
0.2100068033
0.2100068056
0.2100068084
0.2100068118
0.2100068157
0.2100068205
0.2100068261
0.2100068329
0.210006841
0.2100068506
0.2100068616
0.2100068737
0.2100068863
0.2100068973
0.2100069051
0.210006907
0.210006906
0.2100069073
0.2100069117
0.2100069228
0.210006942
0.2100069723
0.2100069626
0.2100069532
0.2100070155
0.2100069951
0.2100070444
0.2100068066
0.2100068021
0.2100068001
0.2100068007
0.2100068019
0.2100068034
0.2100068053
0.2100068076
0.2100068103
0.2100068136
0.2100068174
0.2100068219
0.2100068272
0.2100068333
0.2100068405
0.2100068486
0.2100068576
0.2100068672
0.2100068767
0.210006885
0.2100068912
0.2100068944
0.2100068957
0.2100068981
0.210006901
0.210006909
0.2100069171
0.2100069392
0.210006932
0.2100069323
0.2100069603
0.2100069531
0.2100069808
0.2100068057
0.2100068055
0.2100068059
0.2100068068
0.210006808
0.2100068095
0.2100068114
0.2100068137
0.2100068164
0.2100068196
0.2100068233
0.2100068277
0.2100068328
0.2100068386
0.2100068453
0.2100068528
0.210006861
0.2100068694
0.2100068777
0.2100068849
0.2100068905
0.2100068942
0.2100068964
0.2100068992
0.2100069017
0.2100069084
0.2100069132
0.2100069268
0.2100069259
0.2100069274
0.2100069466
0.2100069408
0.2100069688
0.2100069729
0.2100068067
0.2100068122
0.2100068494
0.2100068647
0.2100067804
0.2100067014
0.2100066978
0.2100066051
0.210006106
0.2100058843
0.2100062058
0.2100064817
0.2100064933
0.2100064994
0.2100064659
0.2100064305
0.2100064044
0.2100063883
0.2100063782
0.210006371
0.2100063669
0.2100063616
0.210006361
0.2100063553
0.2100063594
0.2100063513
0.2100063619
0.2100068143
0.2100066548
0.2100065923
0.2100064888
0.2100065309
0.2100065486
0.2100067468
0.210006561
0.2100067544
0.2100066344
0.2100064891
0.2100065451
0.2100065254
0.2100065529
0.2100065295
0.210006477
0.2100064364
0.210006409
0.2100063905
0.2100063782
0.2100063692
0.2100063643
0.2100063581
0.2100063591
0.2100063528
0.2100063625
0.2100063519
0.2100063765
0.210006351
0.2100063699
0.2100063512
0.2100063745
0.2100066652
0.2100065682
0.210006333
0.2100062453
0.2100062493
0.2100072175
0.2100069692
0.2100072553
0.2100073635
0.2100069302
0.2100067248
0.2100066368
0.2100065981
0.210006548
0.2100064832
0.2100064349
0.2100064055
0.2100063872
0.2100063752
0.2100063677
0.210006361
0.2100063594
0.2100063541
0.2100063594
0.2100063534
0.2100063711
0.210006359
0.2100064086
0.2100063611
0.2100063943
0.2100063648
0.2100064132
0.2100062893
0.210005824
0.2100053132
0.2100054803
0.210005151
0.2100057176
0.2100050033
0.2100069248
0.2100078995
0.2100069807
0.210006651
0.2100065897
0.2100065545
0.2100064998
0.2100064519
0.2100064201
0.2100064002
0.2100063868
0.210006377
0.2100063707
0.2100063643
0.2100063638
0.2100063586
0.2100063683
0.2100063637
0.2100063949
0.2100063839
0.2100064612
0.2100063856
0.2100064393
0.2100063927
0.2100064689
0.2100064043
0.2100061084
0.2100057966
0.2100057477
0.2100060561
0.2100063736
0.2100072038
0.2100074237
0.2100092623
0.2100119683
0.2100074337
0.2100074839
0.2100069015
0.210006659
0.2100065322
0.2100064628
0.2100064252
0.2100064031
0.2100063893
0.210006379
0.2100063732
0.2100063669
0.2100063689
0.2100063657
0.2100063799
0.2100063817
0.2100064233
0.2100064188
0.2100064465
0.2100064241
0.2100065051
0.2100064505
0.2100064792
0.2100064574
0.2100064462
0.210005844
0.2100053664
0.210005321
0.2100055542
0.2100066843
0.2100074037
0.2100084417
0.2100149083
0.2100076613
0.210006921
0.2100066156
0.2100065031
0.2100064543
0.2100064294
0.2100064155
0.2100064053
0.2100063974
0.2100063902
0.2100063865
0.2100063812
0.2100063867
0.2100063871
0.210006414
0.2100064259
0.2100064884
0.2100064376
0.2100064442
0.2100064706
0.2100065937
0.2100065132
0.2100064187
0.2100064564
0.2100068446
0.2100064609
0.2100061556
0.2100059997
0.2100060326
0.2100069177
0.2100073423
0.2100077278
0.2100090959
0.2100073064
0.2100068913
0.2100066795
0.2100065631
0.2100065015
0.2100064672
0.2100064433
0.2100064285
0.2100064169
0.210006407
0.2100064021
0.2100063982
0.2100064063
0.2100064151
0.2100064471
0.2100064695
0.2100064825
0.2100064147
0.2100064769
0.2100064498
0.2100065811
0.2100065504
0.210006482
0.2100064293
0.2100069187
0.2100065651
0.2100065816
0.2100066243
0.2100065776
0.2100068587
0.2100070646
0.2100071496
0.2100073782
0.2100069036
0.2100066922
0.210006583
0.2100065261
0.2100064921
0.210006472
0.2100064618
0.2100064516
0.2100064436
0.2100064345
0.2100064326
0.2100064322
0.2100064533
0.2100064735
0.2100065188
0.2100064979
0.2100064889
0.2100064343
0.2100063575
0.2100065019
0.2100065454
0.2100064881
0.2100064082
0.2100064146
0.2100069717
0.2100066629
0.2100066834
0.2100067134
0.2100067874
0.2100069224
0.2100069809
0.2100069832
0.2100069738
0.2100068094
0.2100066907
0.2100066238
0.2100065902
0.210006554
0.2100065275
0.210006506
0.2100064941
0.2100064788
0.2100064684
0.2100064626
0.2100064691
0.2100064932
0.2100065049
0.2100064702
0.2100064476
0.2100064337
0.2100059671
0.210004761
0.2100060629
0.2100067045
0.2100064321
0.2100057042
0.2100063843
0.2100070687
0.2100068035
0.2100067607
0.2100067651
0.2100068498
0.2100068933
0.2100069695
0.2100069049
0.2100067994
0.2100067277
0.2100066639
0.2100066384
0.2100066336
0.2100065986
0.2100065681
0.2100065523
0.2100065372
0.2100065247
0.2100065122
0.2100065152
0.2100065361
0.2100065601
0.210006501
0.2100065184
0.2100065534
0.2100064712
0.2100055451
0.2100043899
0.2100057682
0.2100064983
0.2100055811
0.2100044781
0.2100054306
0.210007062
0.2100068928
0.2100068637
0.2100068491
0.2100068567
0.2100068294
0.2100067732
0.2100067316
0.2100067374
0.21000673
0.2100067213
0.2100067168
0.2100066857
0.2100066712
0.2100066495
0.2100066139
0.210006602
0.2100065711
0.2100065634
0.2100065481
0.2100065701
0.2100065676
0.2100065656
0.2100065362
0.2100065857
0.2100066392
0.2100058991
0.2100045975
0.2100064416
0.2100062382
0.2100055697
0.2100041968
0.2100054276
0.2100069242
0.2100068497
0.2100068451
0.2100068783
0.2100069928
0.2100071944
0.210007888
0.2100071503
0.2100068496
0.2100068489
0.2100067573
0.2100066955
0.2100066548
0.2100066355
0.2100066534
0.2100066655
0.2100066512
0.2100066238
0.2100066095
0.2100066011
0.2100066056
0.2100065939
0.2100066244
0.2100065956
0.2100065969
0.210006728
0.2100066223
0.2100059678
0.2100065248
0.2100061454
0.2100058629
0.2100048912
0.2100059045
0.2100067773
0.2100067513
0.2100067486
0.2100067641
0.2100068018
0.2100068388
0.2100069332
0.2100068331
0.2100068095
0.2100068074
0.2100067234
0.210006691
0.2100066256
0.2100065496
0.2100065813
0.2100067008
0.2100067275
0.2100066888
0.2100066961
0.210006634
0.2100066004
0.2100065651
0.2100066314
0.2100066331
0.2100065863
0.2100066148
0.2100066178
0.2100067721
0.2100064634
0.2100063537
0.210006422
0.2100056578
0.2100064246
0.210006672
0.2100066646
0.2100066641
0.2100066802
0.2100067165
0.2100067766
0.2100068751
0.2100068554
0.2100067655
0.210006729
0.2100066672
0.2100063168
0.2100057109
0.2100053575
0.2100055522
0.2100065056
0.2100066625
0.210006723
0.2100066795
0.2100065686
0.2100064943
0.2100064552
0.2100066018
0.2100066259
0.2100066279
0.2100065879
0.2100065578
0.2100066831
0.2100064877
0.2100063006
0.2100064755
0.2100064376
0.2100064723
0.2100065986
0.2100065977
0.2100065982
0.2100066151
0.2100066504
0.2100067143
0.2100067778
0.210006745
0.2100066926
0.21000664
0.2100063161
0.2100058674
0.2100053806
0.2100051649
0.2100054354
0.2100065378
0.2100066678
0.2100067957
0.2100067188
0.2100065578
0.2100061677
0.2100060089
0.2100065585
0.2100065908
0.2100066257
0.2100066285
0.2100065486
0.2100065605
0.2100065931
0.2100064623
0.2100064382
0.210006484
0.2100064405
0.2100065442
0.2100065454
0.2100065457
0.2100065621
0.2100065968
0.2100066571
0.2100067076
0.2100066786
0.2100066722
0.2100066235
0.2100062905
0.2100058729
0.2100054866
0.2100054165
0.2100060528
0.2100065664
0.2100066727
0.210006686
0.2100063596
0.210005724
0.2100053367
0.2100054376
0.2100060249
0.2100063995
0.2100065429
0.2100065954
0.2100065725
0.2100065844
0.2100065414
0.2100065839
0.2100064727
0.2100064025
0.2100064049
0.2100065016
0.210006503
0.2100065022
0.2100065164
0.210006547
0.2100065999
0.210006663
0.2100066675
0.2100066447
0.2100066706
0.2100065708
0.2100062257
0.2100059074
0.2100059005
0.2100065833
0.2100067251
0.210006692
0.2100066019
0.2100061942
0.2100055405
0.2100051024
0.2100051249
0.210006228
0.2100064832
0.2100065302
0.2100065785
0.2100065425
0.210006594
0.2100064413
0.210006516
0.2100064164
0.2100063959
0.2100064327
0.2100064669
0.2100064678
0.2100064653
0.2100064761
0.2100064998
0.2100065404
0.2100066022
0.2100066508
0.2100066414
0.2100066338
0.2100066666
0.2100065497
0.2100064105
0.2100064018
0.2100066546
0.2100067671
0.2100066469
0.2100065774
0.2100063419
0.210005783
0.2100054738
0.2100055818
0.2100064877
0.2100064913
0.2100065498
0.2100065481
0.2100064739
0.2100064729
0.2100063583
0.2100063643
0.2100062133
0.2100063301
0.2100062588
0.2100064381
0.2100064382
0.2100064341
0.2100064414
0.2100064585
0.2100064872
0.2100065337
0.2100065927
0.2100066342
0.2100066151
0.2100066172
0.2100065928
0.2100065842
0.2100065883
0.210006715
0.210006758
0.2100067045
0.2100066222
0.2100066549
0.2100063786
0.2100061739
0.2100064252
0.2100065751
0.2100066078
0.2100065863
0.2100065422
0.2100064063
0.2100062812
0.2100062527
0.2100062601
0.2100057603
0.2100056195
0.2100063612
0.2100064139
0.2100064134
0.2100064078
0.2100064122
0.210006424
0.2100064434
0.2100064743
0.2100065184
0.2100065733
0.2100066037
0.2100065968
0.210006552
0.2100065514
0.2100065822
0.2100066718
0.2100066682
0.2100066858
0.21000665
0.2100066515
0.2100066395
0.2100067302
0.21000663
0.210006644
0.210006625
0.210006548
0.2100064866
0.2100060533
0.2100056739
0.2100060723
0.2100060608
0.2100048842
0.2100059972
0.2100038452
0.2100063935
0.2100063926
0.2100063859
0.2100063881
0.210006396
0.2100064087
0.2100064281
0.2100064558
0.2100064951
0.2100065371
0.2100065681
0.2100065573
0.2100065528
0.2100065534
0.2100065917
0.2100065912
0.2100066408
0.2100066661
0.210006697
0.2100066614
0.2100067547
0.2100072128
0.2100067325
0.2100066668
0.2100064808
0.2100062631
0.210005588
0.2100055897
0.2100058421
0.2100058134
0.20999846
0.2100057631
0.210005589
0.2100063765
0.2100063752
0.2100063676
0.2100063682
0.2100063736
0.210006382
0.2100063941
0.2100064108
0.2100064342
0.210006462
0.2100064938
0.2100065074
0.2100065234
0.2100064939
0.2100065213
0.210006543
0.2100066233
0.2100067661
0.2100070198
0.2100071701
0.2100093213
0.2100069162
0.2100070096
0.2100067237
0.2100065635
0.2100064731
0.2100057554
0.2100054174
0.2100060395
0.2100059436
0.2099980753
0.2100058704
0.2100050828
0.2100063622
0.2100063607
0.2100063524
0.210006352
0.2100063557
0.2100063614
0.2100063692
0.2100063795
0.2100063932
0.2100064093
0.2100064291
0.2100064427
0.2100064614
0.2100064455
0.2100064674
0.2100064892
0.2100065401
0.2100066075
0.2100067101
0.2100067927
0.2100072974
0.2100067363
0.2100067597
0.2100066731
0.2100065624
0.2100065018
0.2100061449
0.2100055616
0.2100063145
0.2100059108
0.2100047588
0.210006257
0.2100064213
0.2100063504
0.2100063487
0.21000634
0.2100063389
0.2100063416
0.2100063456
0.2100063509
0.2100063576
0.2100063661
0.2100063761
0.2100063879
0.2100063977
0.2100064109
0.2100064105
0.2100064281
0.2100064485
0.2100064855
0.2100065352
0.2100066104
0.2100066916
0.2100069886
0.2100066317
0.2100066555
0.2100066174
0.2100065865
0.2100065569
0.2100064541
0.2100060659
0.2100065086
0.2100063148
0.2100065403
0.2100064406
0.2100066225
0.2100063407
0.2100063389
0.21000633
0.2100063285
0.2100063304
0.2100063334
0.2100063373
0.2100063422
0.210006348
0.2100063548
0.2100063626
0.2100063702
0.2100063797
0.2100063857
0.2100063996
0.210006417
0.2100064433
0.2100064775
0.2100065251
0.2100065757
0.2100066751
0.2100065698
0.2100065586
0.2100065492
0.2100065578
0.2100065433
0.2100064808
0.2100064018
0.2100065888
0.2100065198
0.2100068007
0.2100065666
0.210006532
0.2100063329
0.2100063311
0.210006322
0.2100063202
0.2100063218
0.2100063242
0.2100063273
0.2100063311
0.2100063356
0.2100063407
0.2100063467
0.2100063531
0.2100063606
0.2100063682
0.2100063794
0.2100063936
0.2100064125
0.2100064359
0.2100064653
0.210006495
0.2100065307
0.2100065046
0.210006495
0.2100064952
0.2100065046
0.2100065209
0.2100065243
0.2100064892
0.2100065863
0.2100065217
0.2100066863
0.2100065267
0.2100064905
0.210006327
0.2100063251
0.210006316
0.2100063142
0.2100063155
0.2100063176
0.2100063202
0.2100063234
0.2100063271
0.2100063315
0.2100063365
0.2100063421
0.2100063486
0.2100063559
0.2100063652
0.2100063766
0.2100063907
0.2100064071
0.2100064259
0.2100064439
0.2100064599
0.2100064564
0.210006453
0.2100064569
0.2100064625
0.2100064828
0.2100064954
0.2100065253
0.2100065235
0.2100064943
0.2100065776
0.2100064894
0.2100064915
0.2100063226
0.2100063208
0.2100063131
0.2100063119
0.2100063132
0.2100063151
0.2100063175
0.2100063203
0.2100063237
0.2100063276
0.210006332
0.2100063371
0.210006343
0.2100063497
0.2100063578
0.2100063672
0.2100063781
0.2100063903
0.2100064032
0.2100064152
0.2100064248
0.2100064275
0.2100064282
0.2100064329
0.2100064368
0.2100064534
0.2100064585
0.2100064989
0.2100064774
0.2100064703
0.2100065074
0.2100064628
0.2100064755
0.2100063198
0.2100063192
0.2100063181
0.2100063189
0.2100063203
0.2100063221
0.2100063243
0.210006327
0.2100063302
0.2100063338
0.210006338
0.2100063427
0.2100063482
0.2100063545
0.2100063617
0.2100063698
0.2100063789
0.2100063887
0.2100063986
0.2100064077
0.210006415
0.2100064195
0.2100064223
0.210006427
0.2100064306
0.2100064424
0.2100064452
0.2100064692
0.2100064591
0.2100064583
0.2100064778
0.2100064523
0.2100064719
0.2100063181
0.2100063189
0.2100063195
0.2100063205
0.2100063219
0.2100063237
0.2100063259
0.2100063285
0.2100063316
0.2100063352
0.2100063392
0.2100063439
0.2100063492
0.2100063552
0.210006362
0.2100063696
0.2100063779
0.2100063867
0.2100063954
0.2100064034
0.21000641
0.210006415
0.2100064186
0.2100064233
0.2100064269
0.2100064363
0.2100064387
0.2100064549
0.2100064508
0.210006452
0.2100064668
0.2100064492
0.2100064716
0.2100066693
0.2100065121
0.210006511
0.2100064688
0.2100064933
0.2100064918
0.2100064309
0.210006335
0.2100062221
0.2100059345
0.2100056691
0.2100057473
0.2100060617
0.2100061145
0.2100061304
0.210006117
0.210006107
0.2100060977
0.2100060911
0.2100060858
0.2100060811
0.2100060778
0.2100060733
0.2100060718
0.2100060668
0.2100060678
0.2100060619
0.2100060663
0.2100060582
0.2100066422
0.2100064594
0.2100064223
0.2100063375
0.2100063554
0.2100064644
0.2100064476
0.2100064093
0.2100063697
0.2100062008
0.2100060964
0.210006121
0.2100061551
0.2100061615
0.2100061417
0.2100061203
0.2100061065
0.2100060966
0.2100060889
0.2100060827
0.2100060771
0.2100060734
0.2100060682
0.2100060676
0.2100060619
0.2100060659
0.2100060587
0.210006069
0.2100060571
0.2100060669
0.2100060571
0.2100060679
0.2100065701
0.2100063565
0.2100061636
0.2100059818
0.2100059965
0.2100066623
0.2100068929
0.2100066595
0.2100065518
0.2100061224
0.2100060966
0.2100061053
0.2100061202
0.2100061143
0.2100061053
0.210006096
0.2100060897
0.2100060841
0.2100060788
0.2100060746
0.2100060697
0.2100060677
0.2100060625
0.210006064
0.210006058
0.2100060653
0.2100060572
0.2100060771
0.2100060579
0.2100060746
0.2100060605
0.2100060809
0.2100062682
0.2100055492
0.2100048279
0.2100048584
0.2100047087
0.210004449
0.2100049951
0.2100057652
0.2100068763
0.2100058233
0.2100059552
0.2100060304
0.2100060823
0.2100060912
0.2100060912
0.210006089
0.2100060864
0.210006083
0.2100060788
0.2100060753
0.2100060704
0.2100060688
0.2100060628
0.2100060664
0.2100060594
0.2100060729
0.2100060623
0.2100061037
0.210006065
0.210006094
0.2100060707
0.2100061116
0.2100060764
0.2100059711
0.2100054718
0.2100052615
0.2100054587
0.2100057953
0.2100059943
0.210006709
0.2100086172
0.2100041799
0.2100001915
0.210005568
0.2100059022
0.2100060263
0.2100060654
0.210006082
0.2100060875
0.2100060882
0.2100060858
0.2100060811
0.2100060772
0.210006071
0.2100060699
0.2100060632
0.2100060677
0.2100060608
0.2100060768
0.2100060683
0.2100061206
0.2100060746
0.2100061201
0.2100060877
0.2100061445
0.2100060967
0.2100062525
0.210005496
0.2100050462
0.210004954
0.21000518
0.2100058611
0.2100073567
0.2100088697
0.2100085679
0.2100036064
0.2100057943
0.2100059261
0.2100060194
0.2100060649
0.2100060854
0.2100060951
0.2100060972
0.2100060957
0.210006091
0.2100060874
0.2100060801
0.2100060802
0.2100060723
0.2100060818
0.2100060727
0.2100061059
0.2100060793
0.2100061193
0.2100060918
0.2100061854
0.2100061228
0.2100061573
0.2100061219
0.2100066077
0.2100061399
0.2100057666
0.21000557
0.210005647
0.2100063641
0.2100068289
0.2100070747
0.2100067929
0.2100055654
0.2100059772
0.2100060409
0.2100060761
0.2100061027
0.210006117
0.2100061204
0.2100061201
0.2100061153
0.2100061069
0.2100061002
0.2100060906
0.210006089
0.2100060805
0.2100060882
0.2100060789
0.2100060962
0.2100060345
0.2100060247
0.210006064
0.2100062248
0.2100061465
0.2100061025
0.2100061107
0.2100067029
0.2100063941
0.2100062663
0.2100062387
0.2100062447
0.2100065285
0.2100065951
0.2100066199
0.2100065526
0.2100061229
0.2100061177
0.2100061213
0.2100061277
0.2100061369
0.2100061453
0.2100061513
0.2100061501
0.2100061441
0.2100061328
0.2100061252
0.2100061134
0.2100061157
0.210006107
0.210006128
0.2100060946
0.2100061009
0.2100059752
0.2100056941
0.2100060289
0.2100062345
0.2100061097
0.2100059669
0.2100060503
0.2100067499
0.2100065134
0.2100064677
0.210006439
0.2100064504
0.2100065203
0.2100064995
0.2100064633
0.2100064034
0.2100062531
0.210006201
0.2100061932
0.2100061945
0.2100061956
0.2100061964
0.2100061974
0.2100061962
0.2100061824
0.2100061649
0.2100061496
0.2100061351
0.2100061329
0.2100061277
0.2100061124
0.2100060477
0.2100059674
0.2100053341
0.2100047762
0.2100055767
0.2100061232
0.2100059515
0.2100050336
0.2100058352
0.2100067034
0.2100065301
0.2100064993
0.2100064721
0.2100065034
0.2100066179
0.2100067891
0.2100065578
0.2100063598
0.2100062986
0.2100062307
0.210006229
0.2100062349
0.2100062386
0.2100062494
0.2100062561
0.2100062545