/*--------------------------------*- C++ -*----------------------------------*\
  =========                 |
  \\      /  F ield         | OpenFOAM: The Open Source CFD Toolbox
   \\    /   O peration     | Website:  https://openfoam.org
    \\  /    A nd           | Version:  8
     \\/     M anipulation  |
\*---------------------------------------------------------------------------*/
FoamFile
{
    version     2.0;
    format      ascii;
    class       volScalarField;
    location    "0.3";
    object      T;
}
// * * * * * * * * * * * * * * * * * * * * * * * * * * * * * * * * * * * * * //

dimensions      [0 0 0 1 0 0 0];

internalField   nonuniform List<scalar> 
67286
(
300.0033085
300.0034005
300.0033891
300.0033043
300.0032681
300.003216
300.0034513
300.0036442
300.0036755
300.0036537
300.0036138
300.0035559
300.0034132
300.0032543
300.0031631
300.003139
300.0031396
300.0031406
300.0031397
300.0031379
300.0031359
300.0031337
300.0031316
300.0031291
300.0031273
300.0031248
300.0031235
300.0031215
300.0034013
300.0035245
300.0034746
300.0033197
300.0031085
300.002714
300.0031573
300.0034138
300.0036354
300.0036653
300.0035728
300.0034454
300.0032724
300.003151
300.0031143
300.0031198
300.003128
300.0031318
300.0031329
300.0031324
300.0031309
300.0031288
300.0031269
300.0031242
300.0031227
300.0031195
300.0031192
300.0031162
300.0031164
300.0031132
300.0031154
300.0031137
300.0035053
300.0035868
300.0033713
300.0029652
300.0022208
300.0016673
300.0033489
300.0034473
300.003829
300.0037859
300.0035632
300.0033617
300.0032121
300.0031542
300.0031467
300.0031449
300.0031416
300.0031383
300.0031351
300.0031319
300.0031291
300.0031259
300.0031236
300.0031198
300.0031185
300.0031134
300.0031147
300.0031067
300.0031119
300.0031053
300.003112
300.0031068
300.0035578
300.003382
300.0025977
300.0013562
300.0004469
300.000857
300.003152
300.0028918
300.003389
300.0034724
300.0033636
300.0032227
300.0031474
300.0031314
300.0031322
300.0031328
300.0031332
300.0031328
300.0031315
300.0031296
300.0031271
300.0031234
300.0031205
300.0031149
300.0031134
300.0031035
300.0031068
300.0030976
300.0031037
300.0030888
300.0031064
300.0031011
300.0031083
300.0035356
300.0035534
300.0034354
300.0034395
300.0028301
300.0017866
300.0036636
300.0041274
300.0053643
300.0040621
300.0036513
300.0033999
300.0032711
300.0032103
300.0031777
300.0031605
300.0031498
300.0031429
300.0031373
300.0031322
300.0031279
300.0031224
300.0031184
300.0031093
300.0031064
300.0030882
300.0031008
300.0031547
300.0030928
300.0030575
300.0030928
300.0031432
300.003107
300.0029048
300.0028341
300.0028854
300.0032228
300.0033955
300.0027706
300.0035439
300.0038772
300.0043614
300.0036891
300.0034065
300.0032695
300.0032013
300.0031696
300.0031552
300.0031486
300.0031455
300.0031424
300.0031389
300.0031342
300.0031291
300.0031211
300.0031148
300.0030984
300.0030901
300.0030738
300.0031422
300.0033122
300.0031108
300.0030312
300.0030849
300.0032496
300.003154
300.0031559
300.0029478
300.0028975
300.0030824
300.003429
300.0032898
300.003606
300.0038111
300.0040214
300.0036806
300.003457
300.0033285
300.0032512
300.0032084
300.0031852
300.0031711
300.0031619
300.0031544
300.0031473
300.0031398
300.0031326
300.0031213
300.0031099
300.0030853
300.0030803
300.0031254
300.0032765
300.0035045
300.003236
300.0031064
300.0031123
300.0033619
300.0032684
300.00325
300.0031118
300.0030026
300.0030934
300.003389
300.0034063
300.003484
300.0035539
300.0035957
300.0034543
300.0033352
300.00326
300.003214
300.0031895
300.0031774
300.0031715
300.003167
300.0031617
300.0031549
300.0031456
300.0031352
300.0031173
300.0030947
300.0030776
300.0031344
300.0032726
300.0034501
300.0036248
300.003438
300.0032806
300.0031932
300.0034336
300.0034057
300.0032613
300.0032536
300.0031793
300.0031859
300.003339
300.003383
300.0034223
300.0034547
300.00345
300.0033827
300.0033113
300.0032603
300.0032237
300.003205
300.0031952
300.0031883
300.0031822
300.0031745
300.0031654
300.0031536
300.0031393
300.0031134
300.0030986
300.0031537
300.0032906
300.0034468
300.0035453
300.0037416
300.0035767
300.0034563
300.003323
300.0035025
300.0034904
300.0032584
300.0032882
300.0032898
300.003264
300.0033176
300.0033679
300.0033973
300.0033963
300.0033575
300.003315
300.0032656
300.0032281
300.0032067
300.003196
300.0031936
300.0031948
300.003192
300.0031853
300.003174
300.0031586
300.0031347
300.0031092
300.0031625
300.00331
300.0034584
300.0035144
300.0035054
300.0037789
300.0035712
300.0035575
300.0034442
300.0036664
300.0035209
300.0032797
300.003285
300.0033069
300.0033049
300.0033401
300.0033783
300.0033858
300.0033546
300.003314
300.0032821
300.0032351
300.0032227
300.0032506
300.0032236
300.0031982
300.0031982
300.0031989
300.0031921
300.003179
300.0031635
300.0031441
300.0031184
300.0031273
300.0032281
300.0033753
300.0034695
300.0034806
300.003553
300.0034406
300.0034027
300.0035199
300.0036674
300.0035241
300.0032956
300.0032897
300.0033109
300.003336
300.0033879
300.0034862
300.0036551
300.003497
300.0033208
300.0032822
300.0032347
300.0032926
300.0033646
300.0033259
300.0032223
300.0031984
300.0031961
300.0031925
300.0031757
300.0031644
300.0031603
300.0031188
300.0030846
300.0031258
300.0032526
300.0033915
300.0034659
300.0035106
300.0032777
300.0033566
300.0035043
300.0036024
300.0035193
300.0032823
300.0032781
300.003292
300.0033096
300.0033316
300.0033645
300.0033895
300.00332
300.0032406
300.0032554
300.0033268
300.0034383
300.0034923
300.0034626
300.003297
300.0031985
300.0031808
300.0031713
300.0031632
300.0031934
300.0032458
300.0031449
300.0030866
300.0030655
300.003125
300.0032456
300.0033601
300.0034001
300.0031491
300.0032873
300.0034629
300.0035228
300.003498
300.0032548
300.0032547
300.0032635
300.0032746
300.0032872
300.0033041
300.0032983
300.0032607
300.003248
300.0033436
300.0034731
300.0035503
300.0035625
300.0035595
300.0034612
300.0033067
300.0032055
300.0031553
300.0031899
300.0032917
300.0033835
300.0032329
300.0031045
300.0030666
300.003053
300.0031063
300.0032004
300.0032556
300.0030447
300.0031759
300.0033578
300.003465
300.0034138
300.0032275
300.0032291
300.0032347
300.0032411
300.0032466
300.0032475
300.003243
300.0032855
300.0033935
300.0035154
300.0035898
300.00362
300.0036249
300.0036199
300.0035413
300.0034504
300.0032956
300.0031719
300.0032793
300.0034224
300.0035044
300.0034033
300.0031777
300.0030981
300.0030596
300.0030407
300.00308
300.0031133
300.0030018
300.0030491
300.0031898
300.0033753
300.0032598
300.0032043
300.0032061
300.0032096
300.0032125
300.0032124
300.0032048
300.0032106
300.0032747
300.0033847
300.0034834
300.0035414
300.0035679
300.0035815
300.0035962
300.0035263
300.003396
300.0032405
300.0032423
300.0034156
300.0035321
300.0036129
300.0035975
300.0034036
300.0032221
300.0031142
300.0030635
300.0030574
300.0030283
300.0030447
300.002993
300.003081
300.0032247
300.0031316
300.0031849
300.0031866
300.0031888
300.0031901
300.0031884
300.0031785
300.0031677
300.0032018
300.0032956
300.0034069
300.0034831
300.0035207
300.0035395
300.0035402
300.0034194
300.0032157
300.0032956
300.0034466
300.0035272
300.0035611
300.0035964
300.0035653
300.0034646
300.0033565
300.0032055
300.0030897
300.0030813
300.0030352
300.0030888
300.0030321
300.0030999
300.0031001
300.0030929
300.0031688
300.0031703
300.0031719
300.0031723
300.0031709
300.0031641
300.0031464
300.0031436
300.0031961
300.0032976
300.0033973
300.0034608
300.0034902
300.003444
300.0032636
300.0031285
300.0032164
300.0033483
300.0034541
300.0035137
300.0035618
300.0035037
300.0034022
300.0032637
300.0031334
300.0030806
300.0031002
300.0030686
300.0030979
300.0030413
300.0031409
300.0030297
300.0030253
300.0031554
300.0031568
300.003158
300.0031583
300.0031574
300.003154
300.0031429
300.0031247
300.0031286
300.0031861
300.0032769
300.0033623
300.0034092
300.0033045
300.0031436
300.0030968
300.0031408
300.0032474
300.0033727
300.0034818
300.0035536
300.0034617
300.003301
300.0031662
300.0030963
300.0030912
300.0031293
300.0031428
300.0031363
300.0030644
300.0030785
300.0031569
300.0026054
300.0031443
300.0031455
300.0031467
300.0031469
300.0031465
300.0031449
300.0031401
300.0031291
300.003113
300.0031205
300.0031683
300.003237
300.0032886
300.0031837
300.0031066
300.0031151
300.0031163
300.0031701
300.0032785
300.0034179
300.0035373
300.0033471
300.0031816
300.0031177
300.0030992
300.0031129
300.0032179
300.0033181
300.0032012
300.003042
300.0026185
300.0032171
300.001531
300.0031349
300.0031361
300.0031373
300.0031375
300.0031374
300.0031369
300.0031351
300.0031311
300.003122
300.0031119
300.003116
300.0031485
300.0031791
300.0031337
300.0031221
300.0031426
300.0031435
300.0031603
300.0032234
300.0033546
300.0035063
300.0034608
300.0031956
300.0032029
300.0031785
300.003283
300.0034333
300.0036317
300.0034484
300.002582
299.9998604
300.0033028
299.9983323
300.0031271
300.0031283
300.0031295
300.0031297
300.0031299
300.0031299
300.0031294
300.0031284
300.0031257
300.0031214
300.0031157
300.0031207
300.0031272
300.0031334
300.0031403
300.0031613
300.0031815
300.0032182
300.0032851
300.0034157
300.0039339
300.0033168
300.0032869
300.0032149
300.0032171
300.0033174
300.0034657
300.0036167
300.0041869
300.0032894
299.9999386
300.0046466
300.002526
300.0031206
300.0031218
300.003123
300.0031233
300.0031236
300.0031239
300.0031241
300.0031242
300.0031239
300.0031236
300.0031223
300.0031237
300.0031244
300.0031365
300.0031451
300.0031617
300.0031816
300.0032109
300.0032479
300.003305
300.0034399
300.0032969
300.00325
300.0032055
300.0031795
300.0032309
300.0033912
300.0034406
300.003904
300.0034602
300.0052851
300.0038631
300.0035623
300.0031152
300.0031165
300.0031176
300.003118
300.0031183
300.0031188
300.0031193
300.0031199
300.0031206
300.0031215
300.0031226
300.0031249
300.0031275
300.0031351
300.0031432
300.0031562
300.0031731
300.0031968
300.0032264
300.0032654
300.00332
300.0032592
300.0032249
300.0031886
300.003156
300.0031693
300.0032696
300.0032864
300.0035928
300.0032286
300.0042716
300.0034419
300.0035222
300.0031108
300.0031121
300.0031132
300.0031136
300.003114
300.0031146
300.0031152
300.0031161
300.0031171
300.0031184
300.0031202
300.0031227
300.003126
300.0031315
300.0031385
300.0031485
300.0031616
300.0031788
300.0031998
300.0032242
300.0032463
300.0032238
300.0032015
300.0031827
300.00316
300.0031418
300.0031908
300.003157
300.0033553
300.0031781
300.0037091
300.0031746
300.0029967
300.0031073
300.0031085
300.0031097
300.0031101
300.0031106
300.0031112
300.0031119
300.0031128
300.003114
300.0031155
300.0031174
300.0031198
300.0031231
300.0031276
300.0031334
300.0031411
300.0031509
300.003163
300.003177
300.0031912
300.0032009
300.0031936
300.0031818
300.0031726
300.0031649
300.003148
300.0031685
300.0031092
300.0032471
300.0031724
300.0034015
300.0031939
300.0030311
300.0031046
300.0031058
300.003107
300.0031074
300.0031079
300.0031085
300.0031093
300.0031103
300.0031115
300.003113
300.0031149
300.0031172
300.0031202
300.003124
300.0031289
300.0031349
300.0031422
300.0031507
300.0031599
300.0031684
300.0031737
300.0031721
300.0031669
300.003163
300.0031616
300.0031576
300.0031665
300.0031347
300.0032039
300.003173
300.0032672
300.0031974
300.0031461
300.0031026
300.0031038
300.003105
300.0031054
300.0031059
300.0031065
300.0031073
300.0031083
300.0031096
300.0031111
300.0031129
300.0031151
300.0031179
300.0031212
300.0031253
300.0031301
300.0031358
300.003142
300.0031484
300.003154
300.0031576
300.0031581
300.0031564
300.0031554
300.0031556
300.0031563
300.0031637
300.0031605
300.0031793
300.0031696
300.0032061
300.003185
300.0031801
300.0031013
300.0031022
300.0031029
300.0031033
300.0031038
300.0031045
300.0031053
300.0031063
300.0031075
300.003109
300.0031108
300.0031129
300.0031155
300.0031185
300.0031221
300.0031262
300.0031309
300.0031358
300.0031407
300.0031449
300.0031479
300.0031492
300.0031492
300.0031496
300.0031503
300.0031526
300.0031566
300.0031626
300.0031657
300.0031633
300.0031797
300.0031717
300.00318
300.0031006
300.0031008
300.003101
300.0031014
300.0031019
300.0031026
300.0031034
300.0031044
300.0031056
300.0031071
300.0031088
300.0031109
300.0031134
300.0031163
300.0031196
300.0031234
300.0031276
300.0031319
300.0031362
300.0031399
300.0031426
300.0031442
300.0031449
300.0031459
300.0031467
300.0031494
300.0031518
300.0031576
300.003159
300.0031583
300.0031694
300.0031641
300.0031775
300.0033782
300.0033823
300.0033728
300.0033423
300.0032935
300.0032659
300.0033583
300.0034185
300.003495
300.0035396
300.0035045
300.0034588
300.0033975
300.0033861
300.0033848
300.0034118
300.0034267
300.003435
300.0034384
300.003439
300.0034385
300.0034363
300.0034349
300.0034308
300.0034299
300.0034238
300.0034247
300.0034161
300.0034115
300.0033849
300.0033444
300.0031822
300.0030528
300.0029428
300.0031712
300.0032678
300.0033875
300.0033818
300.0033783
300.0033567
300.0033174
300.0033232
300.0033527
300.0033828
300.0034046
300.0034182
300.0034258
300.0034293
300.0034305
300.0034289
300.0034281
300.0034231
300.0034229
300.0034138
300.0034169
300.003402
300.0034128
300.0034011
300.0034111
300.0033984
300.0034914
300.0034143
300.0032882
300.003219
300.0031166
300.0034856
300.003309
300.0035663
300.003743
300.0035267
300.003455
300.0034029
300.0033741
300.0033921
300.0034118
300.0034252
300.0034314
300.0034339
300.003434
300.0034321
300.0034301
300.0034256
300.0034239
300.003416
300.003416
300.003402
300.0034071
300.0033788
300.003403
300.0033838
300.0034017
300.0033772
300.0035019
300.0033574
300.0031069
300.0030665
300.0030787
300.0035472
300.0034162
300.0035753
300.0036881
300.0033689
300.0033471
300.0033255
300.0033405
300.0033716
300.0033948
300.0034101
300.0034194
300.0034245
300.0034268
300.0034262
300.003425
300.0034194
300.0034171
300.0034054
300.0034046
300.0033814
300.003388
300.0033359
300.0033852
300.0033523
300.0033867
300.0033381
300.0033821
300.0037276
300.0036376
300.0035185
300.0034343
300.0032409
300.0033454
300.0034821
300.004563
300.0040593
300.0024108
300.0036357
300.0035603
300.0034833
300.0034581
300.0034474
300.0034434
300.0034409
300.0034381
300.0034347
300.0034293
300.0034253
300.0034162
300.003412
300.0033955
300.0033931
300.0033564
300.0033629
300.0032943
300.0033587
300.0033073
300.0033578
300.003298
300.003351
300.0034689
300.0035034
300.0034723
300.0035198
300.003455
300.0034131
300.00364
300.0042421
300.0077534
300.0038312
300.0035429
300.0034344
300.003415
300.0034185
300.0034254
300.0034315
300.0034348
300.003435
300.0034332
300.0034273
300.0034217
300.0034082
300.0034001
300.0033728
300.0033634
300.0033069
300.0033203
300.0032981
300.0033026
300.0032306
300.0033115
300.0032856
300.0033134
300.0034049
300.003436
300.0034208
300.0034089
300.0033996
300.0034754
300.0036993
300.0039811
300.0047559
300.0038149
300.0036153
300.0035288
300.0034854
300.0034687
300.0034624
300.0034579
300.0034541
300.0034485
300.0034419
300.0034315
300.0034224
300.0034044
300.0033912
300.003356
300.003339
300.0032888
300.0033339
300.0033379
300.0032929
300.0031865
300.0032602
300.0033161
300.0033036
300.0033629
300.003314
300.0033886
300.003434
300.0033969
300.0034169
300.0035681
300.0036781
300.003843
300.0036165
300.003523
300.0034802
300.0034596
300.0034547
300.0034556
300.0034575
300.0034575
300.0034526
300.0034451
300.0034305
300.0034154
300.0033852
300.0033568
300.0033001
300.0032889
300.0032852
300.0033455
300.0033713
300.0033084
300.0032143
300.0032736
300.0033172
300.0033241
300.0033305
300.0032965
300.0033369
300.0033594
300.0034157
300.0035095
300.0035991
300.0036497
300.0036693
300.003593
300.0035326
300.0034968
300.0034741
300.0034712
300.0034754
300.0034765
300.0034744
300.0034662
300.0034541
300.0034354
300.0034139
300.0033764
300.0033359
300.0033036
300.0033381
300.0033609
300.0033696
300.0036515
300.0034225
300.0033028
300.003317
300.0033709
300.0033586
300.0033569
300.003348
300.0033568
300.0033843
300.0034767
300.003555
300.0036416
300.0036365
300.0035826
300.0035447
300.0034966
300.0034683
300.0034452
300.0034556
300.0034697
300.0034787
300.003481
300.0034716
300.0034551
300.0034273
300.0033898
300.0033296
300.0032913
300.0033022
300.0033518
300.0033878
300.0032931
300.0036263
300.0033659
300.0033683
300.0034136
300.003623
300.0033507
300.0034324
300.0034305
300.0034506
300.0034907
300.0035488
300.0035789
300.0035743
300.0035659
300.0035471
300.0035144
300.0034613
300.0034258
300.0034127
300.0034285
300.0034646
300.0034813
300.003487
300.0034779
300.0034566
300.0034302
300.0033905
300.0033552
300.0033036
300.0032901
300.0033472
300.0034054
300.0033834
300.0034724
300.0033161
300.0032842
300.0033912
300.0035572
300.0033828
300.0034968
300.0034955
300.0035221
300.0035803
300.0036778
300.0038207
300.0042215
300.0037959
300.0035691
300.0035208
300.0034209
300.0034119
300.0034293
300.0034442
300.0034456
300.003471
300.0034778
300.0034683
300.0034408
300.0034068
300.0033612
300.0033412
300.0032906
300.0032376
300.0032717
300.0033492
300.0033981
300.0034746
300.0032681
300.0033219
300.0034339
300.0035462
300.0034269
300.0035213
300.0035194
300.0035338
300.0035615
300.0035931
300.0036151
300.0036485
300.0035523
300.0034633
300.0034182
300.0033909
300.0034045
300.0034233
300.003441
300.0034617
300.0034311
300.0034371
300.0034306
300.0033992
300.0033762
300.0033525
300.0033618
300.0033101
300.0032566
300.0032308
300.0032564
300.0033226
300.0033661
300.0032084
300.0032747
300.003379
300.0034737
300.0034059
300.0035224
300.0035203
300.0035262
300.0035398
300.0035555
300.0035725
300.0035819
300.0035039
300.0034142
300.0034177
300.0034418
300.0035177
300.0035268
300.0035441
300.0035478
300.0034615
300.0034006
300.0033847
300.0033587
300.0033567
300.003365
300.0033314
300.0033055
300.0032658
300.0032375
300.0032035
300.0032545
300.0032724
300.0031629
300.0031867
300.0032882
300.0033304
300.0033301
300.0035126
300.0035099
300.0035097
300.0035132
300.0035133
300.0035061
300.0034712
300.003422
300.0033959
300.0034376
300.0035506
300.0035774
300.0035547
300.0035316
300.0035034
300.0033856
300.0033397
300.0032751
300.0033128
300.0033664
300.0034414
300.0034284
300.0033188
300.0032906
300.0032689
300.0032204
300.0032306
300.0032145
300.0032047
300.0031487
300.0032406
300.0032886
300.003281
300.0034996
300.0034961
300.0034924
300.0034901
300.0034819
300.003461
300.0034174
300.0033919
300.0033985
300.0034345
300.0035352
300.0035623
300.0035533
300.0035568
300.0034944
300.0033406
300.0032984
300.0033163
300.0034259
300.0035168
300.0035829
300.003577
300.0033979
300.0033013
300.0033019
300.0032548
300.0032667
300.0031937
300.0032765
300.0031804
300.0032401
300.0032425
300.0032524
300.0034865
300.0034825
300.003477
300.0034723
300.0034618
300.0034389
300.0033938
300.0033468
300.0033427
300.0033762
300.0034486
300.0035082
300.0035322
300.0035279
300.0033651
300.0032158
300.0032707
300.0033673
300.003497
300.0035396
300.0035576
300.0035694
300.0034083
300.0033291
300.0032781
300.0032548
300.0032877
300.0032244
300.0033121
300.003234
300.0032641
300.0032268
300.0032424
300.0034748
300.0034705
300.0034646
300.0034597
300.0034507
300.0034327
300.0033976
300.0033464
300.0033121
300.0033279
300.0033771
300.0034163
300.0034598
300.003421
300.0032976
300.0032368
300.0032699
300.0033308
300.0034231
300.0034988
300.0035355
300.0034819
300.0033112
300.0032862
300.0032631
300.0032712
300.0033071
300.0032312
300.0032956
300.0032202
300.0031758
300.0031492
300.0031368
300.0034646
300.0034604
300.0034545
300.0034503
300.0034435
300.0034309
300.0034073
300.0033687
300.0033207
300.0032982
300.0033202
300.00336
300.0033955
300.003349
300.0032805
300.0032769
300.0032666
300.0033022
300.0033647
300.0034655
300.0035226
300.0034621
300.0033071
300.0033002
300.0032835
300.0032752
300.0033029
300.0032215
300.0032915
300.0031774
300.0027784
300.0027781
300.003116
300.0034559
300.0034518
300.0034462
300.0034428
300.0034381
300.0034301
300.0034157
300.0033926
300.0033576
300.0033224
300.0033058
300.003331
300.0033613
300.0033432
300.0033223
300.0033391
300.0033174
300.0033121
300.0033349
300.0034204
300.0035072
300.0034146
300.003298
300.0033059
300.0032913
300.0032673
300.0033221
300.0033103
300.003185
300.0030107
300.0022999
300.0025965
300.001581
300.0034486
300.0034446
300.0034393
300.0034366
300.0034336
300.0034287
300.0034205
300.0034078
300.0033882
300.0033636
300.0033396
300.0033371
300.0033454
300.0033707
300.0033705
300.0033876
300.0033762
300.0033633
300.0033534
300.0034167
300.0034435
300.003556
300.0033764
300.0034056
300.0033234
300.0033243
300.0033295
300.0034594
300.0029159
300.0023158
299.998003
300.0019662
300.0025037
300.0034424
300.0034385
300.0034335
300.0034314
300.0034296
300.0034267
300.0034222
300.0034156
300.0034059
300.0033938
300.0033792
300.0033728
300.0033694
300.0034003
300.0034067
300.0034268
300.0034464
300.0034995
300.003601
300.0037049
300.0048334
300.0035826
300.0035622
300.0034003
300.0033514
300.0033819
300.0033756
300.003503
300.003159
300.0026101
299.9923368
300.00244
300.0022496
300.0034371
300.0034334
300.0034286
300.0034269
300.0034259
300.0034243
300.003422
300.0034188
300.0034142
300.0034089
300.0034026
300.0034001
300.0033978
300.0034163
300.003423
300.0034375
300.0034508
300.0034722
300.0034954
300.0035345
300.0037788
300.0035357
300.0034901
300.0034077
300.0033348
300.0033179
300.0034305
300.0034834
300.003293
300.0028521
300.0012568
300.0030501
300.0030447
300.0034328
300.0034291
300.0034245
300.0034231
300.0034225
300.0034218
300.0034208
300.0034194
300.0034175
300.0034156
300.0034137
300.0034138
300.0034144
300.0034241
300.0034304
300.0034413
300.0034537
300.0034725
300.0034953
300.003534
300.0036659
300.0035042
300.0034783
300.0034149
300.0033518
300.0032881
300.003397
300.0034165
300.0033486
300.0031109
300.0030941
300.0032597
300.0032203
300.0034291
300.0034256
300.003421
300.0034199
300.0034196
300.0034194
300.0034191
300.0034187
300.0034182
300.0034179
300.0034179
300.003419
300.0034209
300.0034266
300.0034322
300.0034403
300.0034503
300.0034641
300.0034804
300.0035048
300.0035403
300.0034949
300.0034638
300.0034279
300.0033923
300.0033083
300.003347
300.0033158
300.0033709
300.0032595
300.0034226
300.0032807
300.0031767
300.0034262
300.0034227
300.0034182
300.0034172
300.0034172
300.0034173
300.0034174
300.0034175
300.0034178
300.0034182
300.003419
300.0034206
300.0034229
300.0034268
300.0034316
300.0034378
300.0034455
300.0034552
300.0034662
300.0034797
300.0034896
300.003476
300.0034559
300.0034348
300.0034158
300.0033639
300.0033741
300.0033005
300.0034061
300.0033398
300.0034556
300.0033416
300.0032129
300.0034239
300.0034204
300.0034161
300.0034152
300.0034153
300.0034155
300.0034159
300.0034163
300.0034169
300.0034178
300.003419
300.0034206
300.0034229
300.0034261
300.00343
300.0034349
300.0034408
300.0034477
300.003455
300.0034624
300.003466
300.0034614
300.0034509
300.0034396
300.0034296
300.0034041
300.0034075
300.0033459
300.0034288
300.0033877
300.0034488
300.0033749
300.0032943
300.0034223
300.0034189
300.0034149
300.0034144
300.0034146
300.0034149
300.0034154
300.0034161
300.0034168
300.0034179
300.0034192
300.0034209
300.0034231
300.0034259
300.0034292
300.0034332
300.0034378
300.0034429
300.003448
300.0034524
300.0034545
300.003453
300.003448
300.0034422
300.0034371
300.0034253
300.003427
300.0034001
300.0034378
300.0034154
300.0034443
300.0034014
300.0033685
300.0034212
300.0034188
300.0034175
300.0034175
300.0034179
300.0034183
300.0034189
300.0034196
300.0034204
300.0034216
300.0034229
300.0034246
300.0034267
300.0034293
300.0034323
300.0034357
300.0034395
300.0034435
300.0034474
300.0034506
300.0034523
300.0034521
300.0034499
300.0034471
300.0034444
300.0034392
300.0034403
300.0034295
300.0034452
300.0034322
300.0034465
300.003419
300.0034076
300.003421
300.0034207
300.0034207
300.003421
300.0034214
300.0034218
300.0034224
300.0034232
300.0034241
300.0034253
300.0034267
300.0034284
300.0034304
300.0034329
300.0034357
300.0034389
300.0034423
300.0034459
300.0034493
300.0034521
300.0034537
300.003454
300.003453
300.0034515
300.0034498
300.0034472
300.0034478
300.0034432
300.0034505
300.003442
300.0034516
300.0034317
300.0034307
300.0034377
300.0034583
300.0034506
300.0034537
300.0034386
300.0034553
300.0034631
300.0035078
300.0035018
300.0034402
300.0033864
300.0033628
300.0034218
300.0034264
300.0034138
300.0034093
300.0034068
300.0034057
300.0034047
300.0034033
300.0034016
300.0033996
300.0033978
300.0033952
300.0033937
300.0033905
300.0033897
300.0033862
300.0033862
300.003444
300.0034634
300.0034384
300.0034185
300.0033575
300.0033199
300.0032862
300.0033793
300.0033944
300.0033721
300.0033694
300.003377
300.003363
300.0033686
300.003377
300.0033843
300.0033905
300.0033944
300.0033963
300.0033965
300.0033959
300.0033942
300.0033928
300.00339
300.003389
300.0033852
300.0033854
300.0033808
300.0033824
300.0033779
300.0033805
300.0033769
300.0034972
300.0034663
300.0034197
300.0033966
300.0032997
300.0034
300.0034641
300.0035845
300.0035077
300.0033054
300.0033561
300.0033809
300.0033815
300.0033882
300.0033927
300.0033963
300.0033983
300.0033987
300.0033978
300.0033959
300.003394
300.0033911
300.0033894
300.0033855
300.0033848
300.0033794
300.003381
300.0033736
300.0033783
300.0033712
300.0033769
300.0033714
300.0035419
300.0034013
300.0032075
300.0029248
300.0024595
300.0026923
300.0031761
300.0031891
300.0026557
300.0026701
300.0031454
300.0032593
300.0033194
300.0033525
300.003371
300.0033821
300.0033887
300.0033919
300.0033929
300.0033922
300.0033909
300.0033878
300.0033859
300.0033809
300.0033804
300.003373
300.0033768
300.0033656
300.0033738
300.0033609
300.0033721
300.0033619
300.0033726
300.0035593
300.0034203
300.003234
300.0030477
300.0028765
300.0027367
300.0030459
300.0027581
299.9940433
299.9978103
300.0022671
300.0031297
300.0033211
300.0033665
300.0033856
300.0033949
300.0033989
300.0033993
300.0033977
300.0033944
300.0033914
300.0033865
300.0033838
300.0033764
300.0033763
300.0033642
300.0033744
300.0033515
300.00337
300.0033454
300.0033667
300.0033505
300.0033681
300.0034442
300.0032722
300.0031832
300.0031226
300.0031004
300.0031868
300.0037586
300.0046121
300.0024662
300.0014225
300.0030965
300.0032437
300.0033199
300.0033601
300.0033812
300.003393
300.0033986
300.0034
300.003399
300.0033955
300.0033918
300.0033851
300.0033813
300.0033716
300.0033718
300.0033592
300.0033722
300.003353
300.0033663
300.0033246
300.0033578
300.0033392
300.0033607
300.0034354
300.003368
300.0032391
300.003169
300.0032139
300.0034494
300.0036297
300.0038248
300.0036322
300.0029718
300.0032692
300.0033333
300.003367
300.0033925
300.0034074
300.0034136
300.0034158
300.0034133
300.0034088
300.0034017
300.0033956
300.0033859
300.0033808
300.0033671
300.0033736
300.0033543
300.0033859
300.0033368
300.0033727
300.0033033
300.0033514
300.0033479
300.0033644
300.0033932
300.0034062
300.0033804
300.0033891
300.003386
300.0035071
300.0035358
300.0035891
300.0035649
300.0033509
300.0033663
300.0033817
300.0033944
300.0034073
300.003418
300.003425
300.0034272
300.0034238
300.0034175
300.0034079
300.0033988
300.0033856
300.0033775
300.0033623
300.0033729
300.0033518
300.0033713
300.0032661
300.0033664
300.0032963
300.0033537
300.0033215
300.0033681
300.0033899
300.0034224
300.0034342
300.0034604
300.0034649
300.0035381
300.0035457
300.0035518
300.0035239
300.0034473
300.0034243
300.0034258
300.0034315
300.0034399
300.0034485
300.0034531
300.003454
300.0034453
300.0034341
300.003419
300.0034063
300.0033893
300.0033824
300.0033666
300.003392
300.0033661
300.0031501
300.003452
300.0032783
300.0033284
300.0033449
300.0032689
300.003353
300.003422
300.0034401
300.0034509
300.0034793
300.0035159
300.0036177
300.0037299
300.0036155
300.0035015
300.0034754
300.0034375
300.0034381
300.0034403
300.0034516
300.0034652
300.0034744
300.0034766
300.003464
300.0034472
300.0034273
300.0034082
300.0033856
300.0033717
300.0033615
300.0033731
300.0033088
300.0031129
300.003372
300.0031994
300.0032898
300.00318
300.0034046
300.0032153
300.0034713
300.0034766
300.0034925
300.0035204
300.0035377
300.0035378
300.0035842
300.0035188
300.0035023
300.003475
300.0034481
300.0034509
300.0034594
300.003476
300.0035001
300.0035067
300.0035119
300.0034893
300.0034665
300.0034403
300.0034196
300.0033976
300.0033804
300.0033699
300.0033852
300.0033442
300.0032598
300.0033304
300.0032617
300.0033172
300.0032352
300.0033633
300.0032664
300.0034994
300.0035035
300.0035342
300.0036191
300.0038508
300.0042448
300.0057631
300.0035497
300.0035886
300.0035333
300.0034388
300.0034629
300.0034774
300.0034963
300.0034978
300.0035206
300.0035382
300.0035015
300.0034705
300.0034402
300.0034136
300.0033905
300.0033714
300.0033374
300.0033525
300.0033505
300.0033723
300.0032903
300.0033365
300.0032997
300.0033096
300.0033902
300.00335
300.0035013
300.0035029
300.0035162
300.0035467
300.00359
300.0036245
300.0038386
300.0035674
300.0034912
300.0034695
300.0034372
300.0034519
300.0034607
300.0034512
300.0034973
300.0035081
300.00352
300.0034922
300.0034647
300.0034393
300.0034212
300.0033999
300.0033811
300.0033468
300.0033358
300.0033336
300.0033643
300.0033243
300.0033078
300.003311
300.0033784
300.003377
300.0034177
300.0034914
300.0034916
300.0034965
300.0035121
300.0035372
300.0035877
300.0037141
300.0035485
300.0034615
300.0034812
300.0034805
300.0034689
300.0034542
300.0034678
300.0034856
300.0034731
300.0034745
300.0034604
300.0034335
300.0034116
300.0034
300.0033765
300.0033738
300.0033401
300.0033369
300.0033076
300.0033398
300.003324
300.0032907
300.0032747
300.0033714
300.0033535
300.0033943
300.0034775
300.0034768
300.0034767
300.0034829
300.0034925
300.0035114
300.0035244
300.0034759
300.0034391
300.0034557
300.003477
300.0034669
300.0034342
300.0034159
300.0034245
300.0034192
300.0034463
300.0034032
300.0034194
300.003427
300.0033703
300.0033795
300.0033861
300.003352
300.0033471
300.0033158
300.0033234
300.0032991
300.0033068
300.0032703
300.0033407
300.0033528
300.0033691
300.0034633
300.0034619
300.0034591
300.0034603
300.0034629
300.003467
300.0034603
300.0034482
300.0034424