/*--------------------------------*- C++ -*----------------------------------*\
  =========                 |
  \\      /  F ield         | OpenFOAM: The Open Source CFD Toolbox
   \\    /   O peration     | Website:  https://openfoam.org
    \\  /    A nd           | Version:  8
     \\/     M anipulation  |
\*---------------------------------------------------------------------------*/
FoamFile
{
    version     2.0;
    format      ascii;
    class       volVectorField;
    location    "0.3";
    object      U;
}
// * * * * * * * * * * * * * * * * * * * * * * * * * * * * * * * * * * * * * //

dimensions      [0 1 -1 0 0 0 0];

internalField   nonuniform List<vector> 
67286
(
(-0.08101284443 -0.6618606131 0.1426197082)
(-0.04577489265 -0.5638953307 0.05601106107)
(-0.05544116616 -0.498418161 0.1219276818)
(-0.01180979472 -0.379398048 0.2451900521)
(-0.1032124233 -0.3688311727 0.2567224836)
(-0.004318010269 -0.4274595493 0.1894689436)
(-0.043844651 -0.008404992147 0.009683964891)
(-0.1595430948 0.05152721919 -0.1639944562)
(-0.1518853399 0.1720539442 -0.2682462967)
(-0.1032806379 0.222114967 -0.3102301059)
(0.03225773097 0.2351815921 -0.3328111752)
(0.1515302274 0.2084598307 -0.2742630337)
(0.1891773354 0.1372890807 -0.159967568)
(0.1694928641 0.07116182579 -0.03407339851)
(0.1301071785 0.051390948 0.03370601328)
(0.09029363835 0.04094725039 0.04181309342)
(0.06314862294 0.03140386967 0.02758758741)
(0.04783157698 0.02137630056 0.01653034099)
(0.03795731158 0.01420362617 0.01069313678)
(0.03144170376 0.01040556902 0.007947562116)
(0.02566575579 0.00896022496 0.00656124495)
(0.02292356684 0.007299688337 0.006175598134)
(0.01767805805 0.007622001339 0.005865169091)
(0.01752493014 0.004272022629 0.006631040491)
(0.01115771713 0.005988078901 0.00644398522)
(0.01361726256 -0.001897412725 0.008560886825)
(0.006185922159 0.003287582551 0.007561069859)
(0.01127251107 -0.01331779183 0.01183678022)
(-0.145815832 -0.7439815875 0.08816477178)
(-0.1494075667 -0.659648042 -0.01347095099)
(-0.2224662723 -0.65563394 0.05163983759)
(-0.2151542106 -0.6077848155 0.1886767817)
(-0.2552510316 -0.7089324756 0.03565732815)
(-0.06064958463 -0.8509504036 -0.3774570874)
(0.1623272798 -0.09605493187 0.2113553457)
(-0.09147727521 0.03417546027 0.1340051346)
(-0.03908894614 0.1385110008 -0.1506089604)
(-0.01609098654 0.1941270914 -0.2334359282)
(0.08572147019 0.2276988768 -0.2298062218)
(0.1658673868 0.185440516 -0.1500268988)
(0.1887353616 0.1017725227 -0.02261773044)
(0.1645823407 0.03619728954 0.06110569606)
(0.1204386496 0.005376718039 0.07111075139)
(0.0897900836 -0.0009436691381 0.04923866849)
(0.07085038223 -0.001228448494 0.02980896955)
(0.05769395269 -0.0004491694188 0.01878823427)
(0.04688992576 0.0006087864121 0.01267791137)
(0.03855218148 0.0009695726768 0.009446006137)
(0.03050212555 0.001571208752 0.007781622147)
(0.02627583154 0.0001815135095 0.00744722514)
(0.0186059046 0.0007478308349 0.00719667997)
(0.01813944351 -0.003726439007 0.008719813783)
(0.008282240707 -0.001904726042 0.008703793514)
(0.01235672683 -0.01313503259 0.01300930448)
(-0.001192751439 -0.006680281387 0.01139170484)
(0.01030586348 -0.03653011807 0.02220435622)
(0.01200230682 -0.008845744332 0.01213080468)
(0.007252561431 -0.02763341735 0.01722570175)
(0.00574290735 -0.01156236384 0.0115049114)
(0.005238375278 -0.03729990238 0.0197297817)
(-0.2144907628 -0.7503647082 0.08168528391)
(-0.3025731674 -0.7173381677 -0.02540985686)
(-0.486113282 -0.7902859809 -0.05358176022)
(-0.6066088351 -0.874241354 -0.2268070527)
(-0.546445417 -1.026129125 -0.8009097204)
(-0.3677659385 -0.9724994087 -1.436167206)
(0.2739370559 -0.4105745393 -0.1091121879)
(-0.08808027361 -0.143853533 0.2413670326)
(-0.007401576574 0.06256147279 -0.002553746559)
(0.06829613958 0.1636719421 -0.142359385)
(0.1664927119 0.1990432135 -0.123070417)
(0.1946853466 0.1535349401 -0.02457336447)
(0.1909050686 0.08099007747 0.05482633754)
(0.1507705847 0.03030358765 0.07015085685)
(0.1101638712 0.01372953608 0.04809969536)
(0.08259960138 0.009389906004 0.02884201311)
(0.06345640266 0.006722312725 0.01793877827)
(0.04999715394 0.003938185929 0.01222132072)
(0.03945165357 0.001528148618 0.009208155135)
(0.03243585539 -0.0007454474454 0.007936345689)
(0.02480958023 -0.002007185764 0.007395109659)
(0.02204996172 -0.004814932431 0.008173063837)
(0.01349784934 -0.005451283082 0.008585796656)
(0.01458897692 -0.01119511809 0.01167422846)
(0.001136045913 -0.01068171898 0.01233934982)
(0.007803373088 -0.02503479543 0.02043406526)
(-0.01575311975 -0.02051112318 0.01917578113)
(0.009302082025 -0.07606513388 0.04475793356)
(0.01751319377 -0.02173131693 0.02028781756)
(0.005266455364 -0.04667052159 0.0299317863)
(-0.0001314651039 -0.02606534423 0.01938379443)
(0.003428443035 -0.07430501621 0.03983643218)
(-0.3317356379 -0.5213387369 0.1052204202)
(-0.5904009813 -0.4652328716 -0.04186862313)
(-0.962502302 -0.4349369526 -0.3096866896)
(-1.183657309 -0.291672784 -0.9645858781)
(-0.9240837068 -0.1445615325 -1.828649647)
(-0.6568770608 -0.05218563543 -2.475152477)
(0.502596487 -0.07837404359 -1.196366108)
(0.7036717389 -0.1358172478 -0.2773249878)
(0.4980985727 -0.2089913684 0.1600950017)
(0.3102887033 -0.04065668835 0.1268735106)
(0.2815324016 0.0856636564 0.05868484052)
(0.2443644753 0.0594571221 0.07748242754)
(0.2003902284 0.01632001697 0.08465784594)
(0.1484377827 -0.004847289086 0.0622734478)
(0.1081827653 -0.008467965816 0.03867635414)
(0.08197535933 -0.008387403495 0.02459507588)
(0.0640719888 -0.007472679369 0.01675019248)
(0.05157342309 -0.007482821476 0.01242801639)
(0.04155851498 -0.007425791597 0.01004953337)
(0.0344884937 -0.008737048375 0.009181068102)
(0.02591004672 -0.009576944751 0.009011368225)
(0.02235503125 -0.01248680849 0.01070674016)
(0.01152344363 -0.01397769617 0.01206339262)
(0.01208237645 -0.02023827895 0.01785737172)
(-0.006420584487 -0.02222759091 0.02086041405)
(-0.0007939314831 -0.03960665183 0.0368211325)
(-0.03623730418 -0.04467158812 0.03927809445)
(0.00685910725 -0.1576729736 0.0672309901)
(0.02624637566 -0.04127740241 0.03803859523)
(0.001072308055 -0.07012226648 0.05602772895)
(-0.01037697516 -0.04764073337 0.03447041949)
(0.00579985353 -0.1471549554 0.06499388006)
(0.0457065389 -0.06489144043 0.03988240626)
(-0.3300608498 -0.368842595 -0.05739806944)
(-0.3741136767 -0.1765499713 -0.2984507717)
(-0.4583620557 -0.1499191145 -0.4030561504)
(-0.4154969533 0.1315544884 -0.3852078247)
(-0.4324731168 0.7236706622 -0.6384940849)
(-0.2670706939 0.8072353058 -1.432536768)
(0.382737864 0.4181042579 -0.4912026823)
(0.114135695 0.2833392049 -0.00788369261)
(0.0905467001 0.1504733037 -0.138429376)
(0.4288905579 0.1647769189 -0.08384000049)
(0.4278020371 0.1430648977 0.03749012837)
(0.29202886 0.07832612457 0.05861040476)
(0.2221790535 0.03484667772 0.05326307916)
(0.1593739876 0.0148063757 0.03651149227)
(0.1152870876 0.006042490392 0.02436261444)
(0.08606588517 0.001140243139 0.01711456885)
(0.06524818566 -0.002792935787 0.01262445549)
(0.05026582424 -0.006001425394 0.01017819843)
(0.03817417106 -0.008874747239 0.009113413429)
(0.03012621486 -0.01199020385 0.009495038537)
(0.02079028758 -0.01523175984 0.0104646231)
(0.01728148046 -0.01941459273 0.01386229757)
(0.005203708866 -0.02403383567 0.01717812776)
(0.004793605162 -0.03043286805 0.0267913012)
(-0.01838141823 -0.03703724291 0.03505907648)
(-0.01819388387 -0.05736719974 0.06329439035)
(-0.05927269628 -0.09324910449 0.06055504389)
(0.0009680612641 -0.2703545302 0.01531894568)
(0.03760673944 -0.07722590213 0.06324713838)
(-0.002101027055 -0.1023503919 0.1023657361)
(-0.01809327572 -0.09336507183 0.06842204343)
(0.02271979027 -0.2556661724 0.05159627348)
(0.06613836568 -0.1260818856 0.06592099383)
(-0.6249631116 0.2406019714 -0.2908392639)
(-0.6205409982 0.2781865515 -0.6581106829)
(-0.5858980303 0.2866235206 -0.7867486227)
(-0.3659783532 0.356283444 -0.7586261801)
(0.04268018946 0.6373989735 -0.3865660716)
(0.2716943982 0.9102671677 -0.6003005445)
(0.554674121 0.4811020697 -0.1000618115)
(0.3560717514 0.3324219499 0.1716898855)
(0.2870304835 0.3856449719 0.0844189267)
(0.3067481971 0.3384409612 0.1091667791)
(0.269253441 0.1849336544 0.09751420951)
(0.2062879405 0.1078645152 0.07229799862)
(0.1600831061 0.05550194549 0.04933072534)
(0.122094606 0.02572149418 0.03312798307)
(0.09337584499 0.009891756889 0.02280537867)
(0.0720457009 -0.0005676587227 0.01628608475)
(0.05621166166 -0.005851836121 0.01269057434)
(0.04495944025 -0.01117715213 0.01097324065)
(0.03502206261 -0.0142379098 0.01051500572)
(0.02750008524 -0.01866035751 0.01187515162)
(0.01763347239 -0.02296999236 0.01414599484)
(0.01248756808 -0.02837203502 0.02063282156)
(-0.000455989779 -0.03622363292 0.02799894431)
(-0.004433924561 -0.04491566385 0.04802103407)
(-0.03229617161 -0.05800546976 0.06708014796)
(-0.0447749183 -0.09453240517 0.09801040446)
(-0.08098866954 -0.1693785161 0.03443278816)
(-0.002361497714 -0.3547138469 -0.1382753063)
(0.05698790101 -0.1414828596 0.06325224696)
(0.01352916403 -0.1697418343 0.1503648496)
(-0.01321177036 -0.1858393866 0.1014032909)
(0.05142969619 -0.3611559721 -0.02805820757)
(0.08942954503 -0.2083247967 0.04993286501)
(-0.4657704266 0.718204017 -0.1093680936)
(-0.5164735216 0.6530652419 -0.5302804451)
(-0.4817097905 0.6572657604 -0.6813321551)
(-0.2785615763 0.6398558277 -0.7488159246)
(0.1626959465 0.6655886752 -0.3389059567)
(0.3664815584 0.7414618294 -0.1367390944)
(0.4016890713 0.4048907612 0.07658330538)
(0.2528686695 0.2886153491 0.141246145)
(0.2004229451 0.2500551282 0.07767893926)
(0.2196336221 0.1844195406 0.0649756668)
(0.2078704356 0.1103201834 0.05376344246)
(0.1681526791 0.06467930963 0.03905505233)
(0.1372398007 0.03314253796 0.0295415266)
(0.1107880362 0.01519078263 0.02209742699)
(0.08727512858 0.003737737274 0.01679094854)
(0.06915089107 -0.003217540022 0.01325667455)
(0.0538821359 -0.00959840801 0.01133116632)
(0.04107984469 -0.01402258198 0.01070750383)
(0.030076965 -0.0199763566 0.011586167)
(0.02069310704 -0.02518192095 0.01446346756)
(0.01032994818 -0.03463915034 0.01929320071)
(0.002579792263 -0.04303614127 0.03004550831)
(-0.01251679528 -0.0573178637 0.04541955844)
(-0.02569362563 -0.06973191747 0.07694614353)
(-0.06445748296 -0.09313527178 0.09322675178)
(-0.08922371738 -0.1470438384 0.06356267177)
(-0.09882981743 -0.2232331324 -0.09018459558)
(0.005370878133 -0.3574297867 -0.2990353535)
(0.09029721162 -0.2122385023 -0.04302961796)
(0.07982223026 -0.2611210459 0.09912182499)
(0.03585853699 -0.30399613 0.09287874277)
(0.07995353321 -0.4099969797 -0.1205045695)
(0.1204531812 -0.2755168948 -0.03213735449)
(-0.3029153467 0.9153159461 0.06656076177)
(-0.3401577797 0.8332903094 -0.3164758615)
(-0.3178612569 0.8391251825 -0.5055696363)
(-0.1400323656 0.7730757269 -0.5661792753)
(0.1735190303 0.6047907209 -0.1544312582)
(0.2466583728 0.5193997259 0.1132798383)
(0.2483955615 0.3136675257 0.1559471604)
(0.1822579016 0.2311750497 0.1340990647)
(0.1563189568 0.1979559454 0.08388724558)
(0.1567771883 0.1558513726 0.06195557984)
(0.1454554941 0.1000197677 0.04845149041)
(0.1230504284 0.06006814519 0.03781805226)
(0.1056587394 0.03024953074 0.03089070348)
(0.08995013742 0.01366163437 0.02363397733)
(0.0731645813 0.00549567277 0.01824323408)
(0.05747119843 -0.004912242716 0.01465527391)
(0.04444399708 -0.01000116748 0.0127153242)
(0.03362999049 -0.01869826811 0.01277289816)
(0.02276385151 -0.02367638914 0.01457547381)
(0.01124647427 -0.03209474397 0.02017671619)
(-0.002042278024 -0.04377172878 0.02967622957)
(-0.01535035968 -0.05899158957 0.05145443043)
(-0.04026869686 -0.0807064437 0.07983135754)
(-0.08223857064 -0.1006530154 0.1021868171)
(-0.1359250844 -0.1293551775 0.05180157147)
(-0.1544163814 -0.181371586 -0.07169288672)
(-0.1329586096 -0.244914145 -0.2520422344)
(0.01696002617 -0.3830201792 -0.4163833819)
(0.1415245761 -0.2528802308 -0.2331913522)
(0.1710851963 -0.3206978931 -0.07223200338)
(0.104378134 -0.3762400128 0.00612869703)
(0.1082459393 -0.4270858631 -0.1811288621)
(0.159041905 -0.2888350495 -0.1493734744)
(-0.1747736817 0.9124586337 0.182908912)
(-0.1700611532 0.803485452 -0.06423920264)
(-0.1625478071 0.8096481791 -0.2242330316)
(0.02520244592 0.6914734804 -0.24146436)
(0.1630292089 0.4144389049 0.03465693923)
(0.1619464408 0.3120432082 0.1480539583)
(0.1559614409 0.2064693899 0.1108071362)
(0.1275553327 0.1525693129 0.07549901859)
(0.1166933802 0.1257668386 0.05032251283)
(0.1129818716 0.09344565154 0.03988552403)
(0.1045052524 0.05619211726 0.03627754995)
(0.09174744484 0.02508578564 0.03508362291)
(0.08530373639 -0.004197183069 0.03732199113)
(0.08407444219 -0.007267036615 0.02877198077)
(0.06734629769 -0.009797015956 0.02133321626)
(0.05228424005 -0.01095953896 0.0163962975)
(0.0390353797 -0.01894864975 0.01503782131)
(0.02620440104 -0.02310900327 0.01520405157)
(0.01566984945 -0.03394788081 0.0192581283)
(-0.0007548483303 -0.04365441694 0.02711257108)
(-0.01945330896 -0.06628098551 0.04478106256)
(-0.05358864638 -0.08652467742 0.0748441386)
(-0.1211772938 -0.1094526768 0.07958636056)
(-0.1977026432 -0.1203310553 0.01212746268)
(-0.2416612583 -0.1288052464 -0.1241576439)
(-0.2565249762 -0.1512622173 -0.2645242872)
(-0.2515603694 -0.1987344872 -0.3927814315)
(0.0178845185 -0.21817602 -0.5789156768)
(0.2608456093 -0.1999203659 -0.3746079886)
(0.2697833729 -0.2726458338 -0.2559341978)
(0.1263753869 -0.3542066246 -0.1113636063)
(0.1169167366 -0.3809612753 -0.2433013915)
(0.2269802775 -0.2748507586 -0.2423445159)
(-0.07254116814 0.760781167 0.2235428788)
(-0.03690711274 0.6541416747 0.093236653)
(-0.01588709478 0.6132536 0.03433843661)
(0.1158589583 0.4748653072 0.05288968931)
(0.1441107728 0.2697409 0.1130056488)
(0.1164415774 0.1957254655 0.1132122984)
(0.1028627094 0.1367298307 0.07309259564)
(0.09590221628 0.09814661982 0.05032901228)
(0.09101100205 0.08024101525 0.04433626147)
(0.079584741 0.05408546152 0.04071470868)
(0.06997777988 0.02578887393 0.04579074508)
(0.05539864379 -0.01004584298 0.05393265588)
(0.06337381227 -0.05174774802 0.0531202296)
(0.08099409238 -0.03155283136 0.0429477101)
(0.06785333815 -0.009870592183 0.03082583194)
(0.04745286685 -0.01506177821 0.02209322805)
(0.03095350461 -0.01810449192 0.01911819938)
(0.01707735897 -0.02911730993 0.01984262479)
(-0.0001111449248 -0.03488541108 0.02654483895)
(-0.02679140901 -0.04519095286 0.04207797982)
(-0.06399842011 -0.06051212516 0.07433486482)
(-0.1560685907 -0.06894937402 0.08814767877)
(-0.2817365547 -0.06838642193 -0.003859401729)
(-0.3645967476 -0.03775812912 -0.1846970304)
(-0.3747656562 0.005615995015 -0.3271476118)
(-0.3927234078 0.03409376096 -0.406000615)
(-0.3222910745 0.05644925812 -0.5112293703)
(-0.000807736478 0.07461927039 -0.6855763274)
(0.3154756883 -0.002260984537 -0.4725972993)
(0.3125700767 -0.1185098842 -0.3377436783)
(0.03169033942 -0.1809415152 -0.1730058125)
(0.09081836277 -0.1672800533 -0.3944450217)
(0.2914011587 -0.1497430708 -0.3366282527)
(-0.008173394913 0.535831427 0.1891424445)
(0.03368908199 0.4546189539 0.1340100173)
(0.05529427877 0.398434186 0.1182239133)
(0.1066170641 0.2949344394 0.1135436705)
(0.09426716452 0.1858879139 0.08598712322)
(0.06946839102 0.1293027346 0.06343933335)
(0.06010315166 0.08364871826 0.04301810738)
(0.06784354808 0.04445314442 0.03007098737)
(0.06934005494 0.04795596345 0.03769235627)
(0.05289876607 0.01949661573 0.0484694546)
(0.03299051619 -0.01476907139 0.07218589956)
(0.01804661411 -0.0776880766 0.07013757238)
(0.02925244639 -0.1357805803 0.0268709754)
(0.07576660752 -0.09454820066 0.03657049911)
(0.06920105311 -0.03521454569 0.04477284506)
(0.04087396368 -0.01733890185 0.03516868543)
(0.02364876839 -0.0304943654 0.03044600456)
(0.008579319904 -0.03357082831 0.02885936481)
(-0.001688672779 -0.04521301696 0.03855904311)
(-0.02571221514 -0.0533524238 0.05026053177)
(-0.03040245486 -0.06291664564 0.07958905794)
(-0.08859895658 -0.01116845476 0.1023191078)
(-0.2194736003 0.03220909529 0.06505307396)
(-0.3223442847 0.07678228554 -0.09213605448)
(-0.3408532584 0.1110452714 -0.2683256134)
(-0.3492456607 0.1623233437 -0.3712399293)
(-0.3172415737 0.222320747 -0.433522525)
(-0.009385703304 0.2869416729 -0.5870091231)
(0.2891239596 0.2200252917 -0.3736319544)
(-0.09655723583 0.1601406625 -0.2196764794)
(-0.2059114875 0.1647674429 -0.303842273)
(0.02034809456 0.1272060711 -0.5199043101)
(0.2838548654 0.1053863846 -0.4081458646)
(0.01175694417 0.343280752 0.1164586104)
(0.04227007946 0.2975473479 0.09857371713)
(0.05150391455 0.2603224707 0.0876024427)
(0.05924648974 0.2031976354 0.07285489807)
(0.03618918694 0.1504364254 0.04702114814)
(0.01603201218 0.1158256204 0.02365339424)
(0.01051096357 0.08790582533 -0.003122499273)
(0.05719654949 0.05830918925 -0.003475501922)
(0.06203252772 0.0361721688 0.05442629076)
(0.005574461621 -0.005652535989 0.07798728562)
(-0.02758779848 -0.06316411652 0.07605752939)
(-0.04332157372 -0.1415346597 0.008127927758)
(-0.02355081849 -0.2033310578 -0.08133516496)
(0.03932739726 -0.1573390164 -0.04569768525)
(0.07006665634 -0.04650851429 0.03155195756)
(0.04065373982 -0.02075194637 0.04472816265)
(0.01155562656 -0.03371110165 0.04385452011)
(0.0007854621221 -0.05129237915 0.04177481278)
(-0.01939906004 -0.06372076306 0.05547977815)
(-0.03914491208 -0.09668071086 0.06569897039)
(-0.02180088647 -0.1265422309 0.07306089698)
(-0.03838811741 -0.02805980689 0.108994315)
(-0.1407157663 0.02782766567 0.1378643423)
(-0.2446072844 0.1040960279 0.05960211701)
(-0.2979199513 0.1797602659 -0.1315330984)
(-0.2757708359 0.2330986638 -0.2938698339)
(-0.2403845961 0.3016574253 -0.3742573458)
(-0.06470938959 0.4294685997 -0.430217827)
(0.09077712495 0.3317684745 -0.2180107476)
(-0.2162594591 0.3079038685 -0.1594504538)
(-0.2150040597 0.249113112 -0.2646422188)
(0.01630633891 0.2646003887 -0.4387977345)
(0.2839584466 0.2090630653 -0.3387018192)
(0.01046321934 0.2273157073 0.06062103585)
(0.02478149455 0.206204275 0.05635529117)
(0.02666994238 0.18601949 0.05003871766)
(0.02421720077 0.1570922252 0.04192904837)
(0.009511010555 0.1317278027 0.03261555791)
(0.002015083197 0.1154674599 0.0277251476)
(-0.003735073544 0.09967949773 0.03048339931)
(0.008980540373 0.07900174817 0.04916717111)
(-0.01230930685 0.01837215724 0.08712116832)
(-0.0742063573 -0.02256166908 0.07156668417)
(-0.109698731 -0.09825547053 -0.01114433262)
(-0.1071618086 -0.1810915495 -0.1238234957)
(-0.07652486216 -0.2272739375 -0.1879852532)
(-0.01973097627 -0.2156831251 -0.166989943)
(0.04294335423 -0.1158509676 -0.02993511083)
(0.0222183054 -0.02908494058 0.05357670388)
(0.004324505918 -0.06785431619 0.06964501674)
(-0.01399767351 -0.07637671273 0.07863888424)
(-0.03986436073 -0.1054775073 0.0898883889)
(-0.05287194173 -0.1680701982 0.05745802421)
(-0.03034141209 -0.2144846069 -0.00122598729)
(0.01702707427 -0.06413710803 0.08488750446)
(-0.07262324426 0.01340764277 0.1410247432)
(-0.1564149387 0.07764993308 0.147375228)
(-0.2290182077 0.1746020714 0.03630831089)
(-0.2375246365 0.258370088 -0.1519082231)
(-0.1883601442 0.3074737696 -0.2912363959)
(-0.1035438399 0.4392225976 -0.3388140976)
(-0.03830756764 0.383939115 -0.05767652685)
(-0.1968420739 0.393357075 -0.1198146036)
(-0.1668977319 0.2992720657 -0.2466741672)
(0.008298221471 0.3544643135 -0.3528390577)
(0.2191860256 0.2578238516 -0.2954595827)
(0.004891420629 0.1626536192 0.03241231797)
(0.009404619923 0.1536641019 0.03172495018)
(0.007927593377 0.142205324 0.02965457624)
(0.002871493411 0.1257244759 0.02774148084)
(-0.00904118885 0.1083731768 0.02830443989)
(-0.01907686199 0.09087249402 0.0338607511)
(-0.03149815013 0.06271251205 0.05442782331)
(-0.05093302176 0.03495967449 0.074745049)
(-0.1050909748 -0.004458484985 0.0529105222)
(-0.1695734243 -0.04372925738 -0.04691805502)
(-0.1969287826 -0.100576319 -0.1569454264)
(-0.1912712709 -0.1429072392 -0.2162368134)
(-0.1434699037 -0.1512784025 -0.2650764043)
(-0.03630124299 -0.1159938289 -0.2903359208)
(0.07188626035 -0.04323197773 -0.1748237027)
(0.1332790359 -0.05206071151 -0.04304345564)
(0.06224962472 -0.1004704559 0.05010559733)
(-4.069920599e-05 -0.1254780577 0.1076431058)
(-0.0716807605 -0.1659089724 0.08270492023)
(-0.07746343988 -0.2349794088 -0.0311876049)
(-0.05778508589 -0.2806631178 -0.1410468547)
(0.03064913729 -0.1406305449 0.01403367113)
(-0.01275492596 -0.01079118266 0.1115347611)
(-0.07308448078 0.01712490958 0.1545447521)
(-0.1449789386 0.1086502371 0.1477543075)
(-0.1833656498 0.2234929954 0.04018077138)
(-0.1691703614 0.3229174816 -0.1365906973)
(-0.1070395635 0.4238330877 -0.2146239143)
(-0.0647269655 0.3405591154 0.08906013186)
(-0.1490122794 0.3789266449 -0.007608027652)
(-0.09447463549 0.279104017 -0.1753220087)
(0.01371333318 0.3666540819 -0.2996867129)
(0.1420658912 0.2454596277 -0.2264435859)
(0.001008676699 0.1243182134 0.01991675693)
(0.0003403950379 0.1207935965 0.02023942403)
(-0.004209818341 0.1140054534 0.0207399267)
(-0.01303947754 0.1038661873 0.02297631705)
(-0.02961607195 0.09065782199 0.03085571049)
(-0.05724918615 0.06994948086 0.04912444133)
(-0.1134079691 0.04312415625 0.06515554191)
(-0.1984040153 0.03171987412 0.01466327078)
(-0.2707266453 0.04105996363 -0.1009341182)
(-0.296073049 0.05872223723 -0.1945423375)
(-0.2895415493 0.05088728559 -0.2438531979)
(-0.2486493579 0.0498035219 -0.2869848665)
(-0.1586856118 0.06420386679 -0.3355913426)
(-0.01216698704 0.1007546583 -0.3605395743)
(0.153876014 0.09912950418 -0.2666944122)
(0.2358200491 0.04345110661 -0.1654655919)
(0.1725526546 -0.03234994291 -0.00254564685)
(0.03774589456 -0.09914210614 0.1247968832)
(-0.106623884 -0.1786114186 0.01851259993)
(-0.1331169735 -0.2593605654 -0.1606087186)
(-0.09485949397 -0.276107645 -0.250133742)
(0.02385724279 -0.2025919914 -0.1353225185)
(0.03019970911 -0.07135683392 0.04686946032)
(-0.03508976156 -0.04163643761 0.1178484068)
(-0.0821216541 0.02106219481 0.1557244114)
(-0.1188613227 0.1193898328 0.1531463174)
(-0.1275788583 0.2487582657 0.04540372082)
(-0.07919119732 0.3817185961 -0.05726291615)
(-0.03167099941 0.1998640203 0.1667954945)
(-0.08883131539 0.272781318 0.1260112645)
(-0.04992110719 0.2108653079 -0.0245866586)
(0.02660507717 0.3268098666 -0.2316578917)
(0.1171677006 0.2190057671 -0.1006973046)
(-0.0009468107213 0.1003321638 0.01404405746)
(-0.00420508104 0.09943105838 0.01480139242)
(-0.01054176643 0.09610656872 0.01659267428)
(-0.02147059882 0.09141880237 0.02111290879)
(-0.04171151102 0.08632981438 0.03372949568)
(-0.0813930548 0.08357484954 0.05557094202)
(-0.1562875597 0.09217481213 0.05453270806)
(-0.246299986 0.113851169 -0.02422994598)
(-0.2988724542 0.1296555432 -0.1406289769)
(-0.3156252494 0.1477133576 -0.2078067454)
(-0.3069922402 0.1715763773 -0.230375606)
(-0.2528057101 0.190074791 -0.2586246338)
(-0.1426983667 0.2052790322 -0.3020825317)
(0.03626889824 0.2171630804 -0.3106146526)
(0.2015057241 0.175324208 -0.2095389074)
(0.2243793634 0.07034346033 -0.09034644389)
(0.1489456748 -0.004168153264 0.06363847787)
(-0.05256814852 -0.07622875155 0.06294726964)
(-0.2149825367 -0.1344988653 -0.1253621016)
(-0.2162907185 -0.1404920489 -0.2676122089)
(-0.1038899805 -0.1071947475 -0.3708652171)
(0.0601772473 -0.04100251906 -0.3284877291)
(0.1896589553 -0.03125816772 -0.1411495426)
(0.1197113859 -0.06862995583 0.009353328694)
(0.02127590803 -0.06764669296 0.09864536494)
(-0.0468855171 -0.01187964052 0.1475910173)
(-0.08421486775 0.09711146963 0.1333177151)
(-0.03862446148 0.2529737559 0.09434679204)
(0.008156997548 0.04267160299 0.1424039162)
(-0.04635238487 0.1164295489 0.1853700997)
(-0.03062038099 0.07755969725 0.1059284602)
(0.03075827408 0.2892064053 -0.1035416742)
(0.1060281153 0.1383689173 0.04527108021)
(-0.001800955768 0.08404066428 0.0108695937)
(-0.006219289332 0.08451799631 0.01172341735)
(-0.01306652478 0.0833925554 0.01370432482)
(-0.02392234658 0.08255417838 0.01818553593)
(-0.0426051473 0.08360086979 0.0294935095)
(-0.07605091683 0.08997992655 0.0523174679)
(-0.1390857897 0.1070319144 0.07131534566)
(-0.2179920836 0.1395193618 0.03173347809)
(-0.2776260193 0.1767231836 -0.08015137004)
(-0.2905436552 0.2108830413 -0.182845776)
(-0.2810105734 0.252127257 -0.2212917932)
(-0.2364123498 0.2832696229 -0.230173695)
(-0.138556089 0.295046335 -0.2545293438)
(0.02137834021 0.2948448396 -0.2400673854)
(0.1340000346 0.2220145636 -0.1072954239)
(-0.03488281558 0.07874222409 0.09185952008)
(-0.2233152663 0.07202941092 -0.04630636737)
(-0.3073227318 0.1059698847 -0.2220409722)
(-0.3356684675 0.1063566502 -0.2938056835)
(-0.2655041716 0.08644063251 -0.3545442884)
(-0.1236469751 0.1059350721 -0.4356688623)
(0.1438365235 0.1019463253 -0.3752728024)
(0.27795089 0.09349837367 -0.2590209418)
(0.2594186406 0.048246377 -0.1641456796)
(0.1877904778 0.0005857794 -0.001243600675)
(0.08126187832 -0.03451562624 0.1204992902)
(-0.04191999703 -0.02015529389 0.1309093006)
(-0.001944324921 0.04482436699 0.1635781964)
(0.02563091611 -0.04788894244 0.09753421598)
(-0.03445913292 -0.01335850969 0.1471460219)
(-0.03265046406 -0.1097066116 0.1274938395)
(0.03368067436 0.1716973625 0.05311369468)
(0.1184339786 -0.05803491483 0.1351631549)
(-0.002013330552 0.0721188682 0.008877923617)
(-0.006568652284 0.07326968275 0.009655365407)
(-0.01283750133 0.07344461361 0.01137732648)
(-0.02182542217 0.07462284211 0.0149765399)
(-0.03602795898 0.0782729277 0.02331217399)
(-0.05837329013 0.08747486512 0.04064379121)
(-0.09897227298 0.1073989813 0.06976569425)
(-0.1612613279 0.1441223921 0.07662248552)
(-0.2232563753 0.1931995218 0.01430019526)
(-0.2520675102 0.2403529267 -0.1030943005)
(-0.2358033825 0.2745873508 -0.1894858567)
(-0.198463293 0.3030187875 -0.2170371042)
(-0.1306787059 0.3133043257 -0.2215099448)
(-0.003711913499 0.3099756403 -0.1643912583)
(0.05200638721 0.2360002834 0.021993735)
(-0.119752732 0.1517649586 0.1331916185)
(-0.2705973723 0.1477720482 -0.007357452789)
(-0.3285959826 0.1594871767 -0.1780970562)
(-0.3325936634 0.1826838431 -0.2540424241)
(-0.2519640825 0.2054707864 -0.2950085798)
(-0.1133198728 0.2250522065 -0.3681386276)
(0.1624062794 0.1995193103 -0.2925122651)
(0.2492111459 0.1414697018 -0.2012011742)
(0.2214130234 0.07686283829 -0.05404633947)
(0.1467300754 0.02326112413 0.08504517289)
(0.04724473457 -0.01120682744 0.1328201075)
(-0.06086378781 -0.06261585275 0.1036249935)
(-0.02349353648 -0.1505419866 0.1025056051)
(0.01127795293 -0.1222798654 0.09550093962)
(-0.09158249211 -0.1051088517 0.1201714146)
(-0.04947252944 -0.2752954734 0.1389724329)
(0.003198170466 -0.07265577312 0.1268143639)
(0.122214712 -0.2805384738 0.134194319)
(-0.001965705509 0.06259065232 0.007483366904)
(-0.006250412356 0.06395647136 0.008112080875)
(-0.01170840433 0.06463908578 0.009410202053)
(-0.01894975702 0.06636784748 0.01198304925)
(-0.02935012427 0.07012869972 0.01737085335)
(-0.04420066798 0.07817739181 0.02792464002)
(-0.06713592479 0.09356220735 0.05006135554)
(-0.1042437594 0.1238318108 0.07772408209)
(-0.1531806536 0.1723143449 0.07808416191)
(-0.1902259992 0.2306903055 0.01293622788)
(-0.1914171699 0.2803651147 -0.09057232326)
(-0.1546301553 0.2994544067 -0.1624819395)
(-0.1139735542 0.2904909018 -0.1790969638)
(-0.005251224459 0.2628935102 -0.05705914238)
(-0.004935124625 0.1964450379 0.106772021)
(-0.1063220783 0.1508134294 0.1467322003)
(-0.2223299946 0.1688840094 0.07128213438)
(-0.278993648 0.2043618386 -0.07378999313)
(-0.2829093955 0.2391095202 -0.2032730989)
(-0.2184539028 0.2712677944 -0.2615035246)
(-0.1179437093 0.2756992737 -0.3098013457)
(0.1252354605 0.1911209852 -0.2134140867)
(0.1641399647 0.1377044871 -0.06289581288)
(0.12942253 0.07072144667 0.07669082945)
(0.04218620688 -0.007701627262 0.137183117)
(-0.03842676101 -0.06246835228 0.1287922261)
(-0.09687826604 -0.1497782793 0.06116866258)
(-0.07486657642 -0.2873708319 -0.05654472524)
(-0.0235202078 -0.1696461227 0.09810953501)
(-0.1637261951 -0.1585095034 0.1335930509)
(-0.1153693315 -0.5516840728 0.1670363536)
(0.07917556238 -0.200378237 0.02149741018)
(0.2036595655 -0.6367039504 -0.07305712173)
(-0.00180491256 0.05457255742 0.00644659447)
(-0.005650902109 0.05595349947 0.006926328581)
(-0.01026907103 0.05678806945 0.007845007433)
(-0.01597814465 0.05853816798 0.009591482571)
(-0.02348869018 0.06184908029 0.0129790489)
(-0.03336685437 0.06808521231 0.01901940399)
(-0.04726399184 0.07888711082 0.03151210486)
(-0.06602156317 0.09790660404 0.05238017735)
(-0.09400991414 0.1313096411 0.07804376938)
(-0.1226698384 0.1826664698 0.07438638105)
(-0.1343385148 0.2385540458 0.02406682325)
(-0.1108360578 0.2775733168 -0.05147909355)
(-0.08220702193 0.2655570665 -0.09323879732)
(-0.004560669583 0.1769229339 0.03656853328)
(-0.03646973039 0.1363812705 0.1128841106)
(-0.08555517827 0.1195956097 0.1133415947)
(-0.1601567804 0.1414801704 0.1122746798)
(-0.2159450738 0.1879886809 0.03817882957)
(-0.2303250116 0.2340448055 -0.08045333372)
(-0.1737049315 0.2587920819 -0.1901559778)
(-0.1045228506 0.2541113716 -0.2516621465)
(0.07773620247 0.08200574107 -0.06955213511)
(0.07641759494 0.08747274355 0.08565570384)
(0.03067361762 0.009487106423 0.1449267075)
(-0.04296467267 -0.05173650684 0.1379031841)
(-0.1272927906 -0.1151679382 0.08199714913)
(-0.1783166053 -0.2305550499 -0.09149760503)
(-0.1287055772 -0.2805227913 -0.26518366)
(0.01248289804 -0.3054036992 0.06714572991)
(-0.3262157857 -0.3086513272 0.159726897)
(-0.1512068653 -1.080098812 -0.01176806454)
(-0.3017804768 -0.1486392797 -0.06395544021)
(0.2729688591 -0.517693136 -1.007813038)
(-0.001620928366 0.04752625948 0.005655912263)
(-0.005018806502 0.04881256295 0.006010295011)
(-0.008921920484 0.04959907987 0.006629210113)
(-0.0134809294 0.05109710421 0.007761025012)
(-0.01903132977 0.05369768699 0.009814298326)
(-0.02579175213 0.05818798899 0.01327199766)
(-0.03445370328 0.0654021148 0.01977212745)
(-0.04488082359 0.07733020122 0.03046694937)
(-0.0580963055 0.09534222947 0.0494976937)
(-0.07297044691 0.1256635196 0.06791711876)
(-0.08229939594 0.1679768202 0.06920230859)
(-0.0700149774 0.2102878297 0.03666484898)
(-0.0439688893 0.2095317553 0.006160113305)
(-0.01028719678 0.1083342947 0.05954473621)