/*--------------------------------*- C++ -*----------------------------------*\
  =========                 |
  \\      /  F ield         | OpenFOAM: The Open Source CFD Toolbox
   \\    /   O peration     | Website:  https://openfoam.org
    \\  /    A nd           | Version:  8
     \\/     M anipulation  |
\*---------------------------------------------------------------------------*/
FoamFile
{
    version     2.0;
    format      ascii;
    class       volScalarField;
    location    "1.4";
    object      htcConv;
}
// * * * * * * * * * * * * * * * * * * * * * * * * * * * * * * * * * * * * * //

dimensions      [1 0 -1 1 0 0 0];

internalField   uniform 0;

boundaryField
{
    walls
    {
        type            calculated;
        value           uniform 0;
    }
    region0_to_wallFilmRegion_wallFilmFace
    {
        type            convectiveHeatTransfer;
        L               1;
        value           nonuniform List<scalar> 
1019
(
1.770695265
2.156414425
2.507412689
2.695140605
1.194653532
1.690498533
2.141500524
2.396243649
2.58317352
2.700266559
2.752485044
2.735152741
2.644248973
2.491522844
2.323591917
2.183150002
2.012605993
1.784885412
1.50681465
1.210624069
1.06564487
1.257697856
1.495783451
1.725018653
1.670915313
1.807772049
1.477924953
2.988917083
1.609880052
1.997999436
2.162179506
2.293418908
2.153354063
1.959348909
1.262615367
1.72502225
2.173487879
2.436765632
2.639915463
2.779325903
2.846985777
2.83103188
2.720481984
2.515607603
2.266654526
2.090039997
1.923142076
1.695528655
1.419440458
1.136124266
1.038920445
1.261296696
1.505343429
1.776083509
1.930536548
1.959152249
1.573571838
2.324125916
1.661384133
2.183010463
2.534939837
2.672675003
1.933851255
1.913986373
1.351456634
1.764853714
2.213331698
2.507105918
2.744096332
2.908008183
2.988635708
2.972072055
2.844934118
2.606320612
2.278396413
1.998453675
1.839688084
1.623405281
1.370066532
1.118424277
1.025324529
1.240798898
1.513960652
1.897405687
2.091898535
2.152851944
1.814475532
1.899123889
1.574642002
2.046790584
2.350295241
2.530673486
2.309440239
2.252241191
2.314913123
1.473683737
1.862668289
2.315531845
2.63138732
2.881912876
3.050597516
3.120363412
3.080237596
2.93240758
2.670897476
2.292254742
1.854952325
1.705192698
1.50176116
1.283306323
1.022441952
0.8282244342
1.162697765
1.516903987
2.006110656
2.23585888
2.299894214
2.119790091
2.045190432
1.732190279
2.010971136
2.306972334
2.457096518
2.410950312
2.421704139
2.477812794
1.557074098
1.915386189
2.371932926
2.714389296
2.991568905
3.162147789
3.215731317
3.156014928
2.989716135
2.724784424
2.363719854
1.84752446
1.585242758
1.477997584
1.312707773
1.07840345
0.8826340425
1.178060802
1.491705831
2.115685811
2.300671807
2.321486547
2.170673393
2.056696146
1.794852078
1.909183732
2.258399874
2.452057523
2.490033106
2.535091615
2.588047616
1.701533
2.100260594
2.601025969
2.967672848
3.213687329
3.320378764
3.319836175
3.22504252
3.043948655
2.787902135
2.47054312
2.025862461
1.566747554
1.377962768
1.279992855
1.048955105
1.020549823
1.213515507
1.786127836
2.258824273
2.407052274
2.360884387
2.112186244
1.882006345
1.709140047
1.750441155
2.201410585
2.438952656
2.530817627
2.600056146
2.654812633
1.821024809
2.162928442
2.628606979
2.9835043
3.22748184
3.331821644
3.333330211
3.242840326
3.069110681
2.82357601
2.518298468
2.092935113
1.703667371
1.637512537
1.640921172
1.690735663
1.837757756
1.903630147
2.190316472
2.407678524
2.470544898
2.472032276
2.362403017
2.06666371
1.738095142
1.764801318
2.195524233
2.434623221
2.545052494
2.62338587
2.679275468
1.891393017
2.17446599
2.586906851
2.918549382
3.16732418
3.29957867
3.323574639
3.255764792
3.103000272
2.871363906
2.560806422
2.126643762
1.865141829
1.764790458
1.709170513
1.757411081
1.788605369
1.358055868
1.951370326
2.365989121
2.458961239
2.425581094
2.272153968
1.967612541
1.733673726
1.86305213
2.225502816
2.419210136
2.515596333
2.594957803
2.66185608
1.938125851
2.174230651
2.531732719
2.828571853
3.065670336
3.218310047
3.270895098
3.23363591
3.108239556
2.888869257
2.564386306
2.178697964
2.074388513
2.016448452
2.037204753
2.023496897
1.89667873
1.568832835
1.791509753
2.352296684
2.494238714
2.414592426
2.136714345
1.844643185
1.686969007
1.776089229
2.233745961
2.369435414
2.439686451
2.523294424
1.976203252
2.181291447
2.489734193
2.743511037
2.951796248
3.09804554
3.173610324
3.164868338
3.067588792
2.867618517
2.572792298
2.358228568
2.375510179
2.461338924
2.521920061
2.56810571
2.547675479
2.540644354
1.649781853
2.190421552
2.42602941
2.233106885
2.010271478
1.861316362
1.703130866
1.689971662
2.180677639
2.286681715
2.332888431
2.426662387
2.018697467
2.204904814
2.474279107
2.686090293
2.85586856
2.977636649
3.049938313
3.057926503
2.980726437
2.806723319
2.628041854
2.694400203
2.873785389
2.939567084
2.892520813
2.815869848
2.873219293
3.053972569
2.54271422
2.607911829
2.673036151
2.560006573
2.369155278
1.941470294
1.659958857
1.717110328
2.059156506
2.187317946
2.244698116
2.359715917
2.065876945
2.238286556
2.478436688
2.658569282
2.795301107
2.889522482
2.94960952
2.968728399
2.93602972
2.878433622
2.906667686
3.048882599
3.158589979
3.104528738
2.866613057
2.626703751
2.542741239
2.84199408
2.648318275
2.712770553
2.747788104
2.522106087
2.014870245
1.653981792
1.668725374
1.769098814
1.958273654
2.054952758
2.161426711
2.319196532
2.107713105
2.26857577
2.486700364
2.646702618
2.76342678
2.839281978
2.888805131
2.916130631
2.930576316
2.985239
3.168671675
3.412663661
3.504637743
3.395984303
3.066805027
2.748774093
2.600863089
2.723684922
2.246249966
2.250935153
3.367636303
2.861733377
2.097397918
1.424337781
1.569894003
1.680569705
1.944702073
1.987202574
2.085596387
2.134175358
2.286670194
2.487309412
2.635481573
2.744867093
2.819969673
2.886310572
2.975281406
3.129776546
3.383954198
3.695268442
3.898940607
3.909040729
3.719177144
3.247835907
2.869714199
2.699945918
2.54577861
2.305369876
3.60877875
3.006668288
2.314513886
1.367423092
1.253576635
1.483024251
1.490008677
1.827807035
1.972568852
2.101229818
2.143220286
2.290806515
2.475842087
2.614993037
2.721466785
2.799098975
2.8752435
2.985380474
3.167308239
3.428210535
3.70893101
3.881294102
3.898625807
3.765469054
3.419313297
3.160111584
2.960130174
2.885703721
4.316530103
6.450308378
4.2882311
3.226330809
2.010842026
0.8713215314
1.117145611
1.345792435
1.799469359
1.813177452
1.778171567
2.142942627
2.286983361
2.456676286
2.586190281
2.690751122
2.772744243
2.856830729
2.969111484
3.130775871
3.34395526
3.580067694
3.767340369
3.851402761
3.795735299
3.537481817
3.383800079
3.312639103
3.29071473
3.677826011
4.942828047
3.181332778
2.182475115
1.696291188
1.44863946
1.496702881
1.403560615
1.5134008
1.974626767
2.372455959
2.147020468
2.28583621
2.439996978
2.557160197
2.657385499
2.741764428
2.83168072
2.94318291
3.08190773
3.242874263
3.416190012
3.579865238
3.684838619
3.669854305
3.448859193
3.304110724
3.117385698
2.940870916
2.906763024
3.645791898
2.460743
1.79774916
1.699672361
1.673916859
1.799335677
1.660494932
1.627640639
1.77981404
1.534233898
2.166597662
2.296793016
2.435920163
2.537911255
2.628668042
2.708329421
2.796002256
2.902028396
3.023864979
3.149750798
3.270674709
3.380301343
3.451520483
3.416093709
3.176495215
2.976321555
2.758826392
2.571771351
2.438150435
2.654398265
1.565695733
1.391895554
1.774516071
1.849639652
1.882182433
1.668824147
1.5817529
1.668772938
1.660113429
2.205302379
2.323774856
2.449376349
2.535034023
2.61140489
2.677572413
2.752004235
2.844195484
2.95057018
3.056040188
3.144979121
3.205446581
3.210214259
3.084806525
2.719786478
2.294079222
2.216421723
2.162715215
2.136149123
2.125696791
1.539735055
1.456415217
1.602414272
1.764316455
1.833531583
1.68486271
1.623253959
1.661005222
1.737576222
2.260434166
2.365439305
2.479631363
2.54998323
2.609616924
2.656221304
2.708687094
2.779082404
2.868598355
2.964766617
3.048576644
3.101050715
3.091695146
2.958410066
2.675227746
2.425938715
2.111785765
2.194363765
2.296000108
2.223902888
1.919051641
1.66860661
1.514462333
1.230549079
1.392642856
1.489159764
1.44205895
1.518349012
1.779315096
2.326600524
2.417815687
2.523198916
2.581301425
2.625345836
2.651152939
2.677691217
2.719590118
2.784662856
2.868040068
2.954732798
3.027460877
3.065028385
3.028789897
2.90487454
2.719512286
2.405336701
2.46473196
2.499178371
2.391832611
2.06149952
1.758057859
1.495535862
1.046522856
1.513745972
1.52932401
1.46313383
1.747827101
2.350451249
2.398540109
2.476944861
2.576914081
2.627562133
2.66029546
2.668892407
2.671214778
2.681913301
2.713190792
2.768564453
2.841254017
2.920129896
2.992120975
3.030590009
2.989515032
2.847720886
2.658976796
2.707081775
2.683390471
2.568105061
2.140566213
1.737115395
1.463092191
1.552851459
1.761054233
1.738087808
1.83844809
2.337557662
2.754328584
2.471979724
2.539155737
2.637230986
2.685469924
2.712160284
2.709898658
2.695773564
2.682807791
2.683688257
2.706401895
2.751188086
2.813052051
2.887262392
2.958413033
2.979247388
2.905445996
2.820811468
2.874584411
2.870805849
2.796765164
2.373432412
1.747992831
1.806176122
1.91460626
1.948228352
1.972849389
2.260856717
2.717824737
4.288869372
2.542921918
2.599694304
2.698103472
2.747511399
2.772386823
2.765547044
2.74364032
2.718576541
2.702756941
2.704808332
2.726462638
2.763896848
2.815469244
2.877778853
2.919359562
2.901943209
2.888889653
2.936186111
2.922454752
2.837432017
2.530011168
2.139765358
2.149323794
2.129169646
2.05006502
2.187488223
2.688144601
4.567188849
7.815764078
4.390124613
2.606563589
2.651891264
2.750962197
2.803571209
2.830138159
2.823521077
2.800214634
2.770977972
2.74730896
2.737608033
2.743963942
2.762174633
2.788321216
2.822385955
2.855979948
2.877096735
2.912881659
2.962370943
2.958946093
2.893769757
2.710255839
2.539126789
2.432921011
2.275408769
2.021906681
1.976953667
1.651988006
3.098017527
5.060523579
3.160301227
2.656828334
2.687608949
2.786202687
2.843355168
2.875438873
2.87267904
2.85218448
2.822841372
2.794464957
2.774655537
2.766566802
2.768024045
2.774470581
2.783988702
2.813582168
2.887616576
2.998747693
3.100465642
3.137914219
3.098682228
2.96515733
2.775638788
2.574696569
2.339298367
2.11997742
2.001391307
1.859755032
1.91472405
3.807333329
2.526618836
2.686550874
2.698165484
2.793920231
2.856620947
2.897994317
2.903409573
2.888861186
2.861791657
2.829865314
2.799557423
2.775311697
2.758297424
2.745570823
2.742250858
2.790338417
2.920998072
3.082729478
3.209468335
3.254729329
3.198611265
3.044264929
2.826955743
2.569944077
2.305304191
2.223964735
2.154486751
2.198718777
1.87969424
2.856257136
2.176869207
2.687818776
2.674793376
2.764176124
2.832767912
2.886221158
2.906539082
2.901250293
2.878363674
2.844349746
2.804175816
2.76231132
2.721200039
2.686245475
2.680632788
2.751693573
2.900645912
3.064103079
3.173569342
3.183436112
3.116642852
2.974237773
2.7546238
2.46724071
2.181863447
2.309988015
2.290381346
2.310250833
1.994811297
2.373106358
1.812372919
2.652034456
2.608418504
2.686493251
2.759866246
2.827241726
2.864426505
2.87452171
2.861056186
2.828340322
2.780261609
2.721787613
2.662800625
2.631300501
2.678723116
2.824574553
3.009909762
3.150697116
3.194881434
3.172275008
3.087745339
2.93290908
2.681063132
2.311471969
1.922125129
2.392512753
2.375035118
2.309763366
1.933238585
2.009476336
1.505577732
2.569895467
2.489713531
2.54977547
2.625389001
2.707376712
2.763641893
2.79140678
2.790681066
2.764347199
2.716552011
2.657234728
2.616586605
2.658955722
2.820802452
3.034268844
3.203464741
3.275423094
3.275686878
3.231524625
3.144563275
3.00073644
2.777752691
2.470855695
2.273325678
2.487644319
2.350350006
2.099703018
1.754208904
1.701266774
1.567198192
2.428442865
2.305382606
2.338577172
2.412900488
2.50986933
2.587325467
2.636060969
2.65273678
2.639576647
2.603845391
2.569006685
2.596263935
2.753785597
3.003990553
3.231750788
3.371001151
3.414018034
3.412361299
3.386360617
3.340191398
3.262538847
3.145700623
2.989642569
2.952712414
2.633903474
2.249749582
1.956169477
1.647428615
1.683482635
1.826148404
2.226190299
2.055378404
2.047396215
2.113824175
2.226652804
2.328471876
2.402001265
2.441776051
2.451897958
2.448897141
2.479691742
2.619913919
2.880849307
3.164848135
3.377452658
3.495944297
3.535670032
3.531884033
3.513238668
3.483819464
3.429369188
3.334324496
3.186832268
3.133981712
2.654380169
2.13317106
1.857483852
1.805531878
1.942348012
2.101389544
1.872213647
1.660687088
1.61521408
1.678206326
1.812741331
1.942510115
2.045019391
2.119028279
2.178958837
2.258943913
2.420140997
2.692737762
3.007035397
3.268229641
3.439261787
3.524456231
3.544571516
3.52357693
3.482593685
3.430242917
3.356620143
3.245046828
3.082258434
2.933252057
2.079597989
2.068440254
1.836249592
2.098568902
2.198713549
2.309682179
1.460715851
1.374958672
1.269690097
1.255044761
1.395140081
1.544889412
1.656607046
1.743828618
1.859294774
2.083810303
2.442726943
2.847501479
3.191717999
3.427808661
3.555919243
3.594877874
3.568895487
3.501777125
3.415384833
3.324579952
3.216539248
3.035228352
2.73760393
2.257391557
1.990300571
2.222146253
2.075786178
2.345864752
2.408886781
2.50308548
)
;
    }
    region0_to_wallFilmRegion_mirrorFace
    {
        type            convectiveHeatTransfer;
        L               1;
        value           nonuniform List<scalar> 
133
(
4.238732772
4.314696348
4.419306965
4.218827366
4.380772526
4.429926784
4.406267327
4.201174604
4.224837801
4.207204582
4.175803343
4.285768638
3.957657392
4.023733608
4.062570618
4.198071762
4.192271716
3.862391552
4.251162784
3.926408046
3.787459669
3.911953376
4.515255722
4.519131776
4.502979129
4.369955177
4.338035641
4.236344107
4.10376952
4.477870157
4.394074363
4.297284537
4.389418743
4.437824329
4.368490686
4.374920315
4.230145756
4.288489324
4.200836771
4.425236808
4.364298052
4.293484731
4.288603267
4.244707524
4.261335108
4.158733035
4.218375921
4.084903591
4.193631839
4.089296854
4.256208081
4.004916552
4.124538121
2.811867025
4.305175562
4.205830431
3.921654652
4.517629881
3.490265397
3.937788069
3.587750169
4.480939516
4.494917766
4.312145009
4.270358068
4.085126513
4.006940346
4.220162464
4.449846454
4.384840357
4.481497579
4.241220699
4.192698964
4.168495458
4.16819732
4.168176981
3.569435438
3.758703946
3.256729844
4.451522072
2.651787306
2.730992361
4.378994576
4.473505681
2.813911211
3.048692112
4.498253358
3.489191193
3.986164656
4.116109484
4.021234397
4.123569398
4.221175618
4.171516445
4.197141599
4.227959169
4.158795183
4.301448744
4.343582484
4.218649482
4.319859097
4.310039407
4.29022093
4.264910225
4.17839466
4.157092414
4.185723452
4.090379486
4.09907638
4.116978581
4.134688539
3.987556142
3.798451603
3.83077073
4.073187058
3.891577922
4.159945548
4.107144215
4.162674281
4.143327171
4.203514117
4.244381818
4.187606498
4.254252123
4.231208808
4.30217831
3.640657047
3.308002159
3.378375873
3.914077946
3.530624553
3.776977005
3.975699171
)
;
    }
    procBoundary3to0
    {
        type            processor;
        value           uniform 0;
    }
    procBoundary3to1
    {
        type            processor;
        value           uniform 0;
    }
    procBoundary3to2
    {
        type            processor;
        value           uniform 0;
    }
}


// ************************************************************************* //
