/*--------------------------------*- C++ -*----------------------------------*\
  =========                 |
  \\      /  F ield         | OpenFOAM: The Open Source CFD Toolbox
   \\    /   O peration     | Website:  https://openfoam.org
    \\  /    A nd           | Version:  8
     \\/     M anipulation  |
\*---------------------------------------------------------------------------*/
FoamFile
{
    version     2.0;
    format      ascii;
    class       volScalarField;
    location    "1.4";
    object      N2;
}
// * * * * * * * * * * * * * * * * * * * * * * * * * * * * * * * * * * * * * //

dimensions      [0 0 0 0 0 0 0];

internalField   nonuniform List<scalar> 
67193
(
0.7900016865
0.7900017233
0.7900017596
0.7900017683
0.790001764
0.7900017375
0.7900017153
0.790001703
0.7900017043
0.79000172
0.7900017463
0.7900017762
0.7900018025
0.7900018201
0.7900018284
0.7900018328
0.7900018402
0.7900018529
0.7900018672
0.7900018769
0.7900018773
0.7900018662
0.7900018434
0.7900018092
0.7900017632
0.7900017032
0.7900016243
0.7900015183
0.7900013747
0.7900011846
0.7900009421
0.7900006224
0.7900001065
0.7899990467
0.7900015395
0.7900015694
0.7900016232
0.7900016511
0.7900016716
0.7900016822
0.7900016644
0.7900016546
0.7900016583
0.7900016799
0.7900017174
0.7900017602
0.7900017938
0.790001804
0.7900017855
0.7900017502
0.7900017192
0.7900017058
0.7900017083
0.7900017167
0.7900017222
0.7900017201
0.7900017093
0.7900016907
0.7900016647
0.79000163
0.7900015827
0.7900015136
0.7900014062
0.7900012377
0.790000985
0.7900006108
0.7899999803
0.7899987811
0.7900015126
0.7900015181
0.790001564
0.790001583
0.7900016162
0.7900016869
0.7900016478
0.7900016264
0.7900016294
0.790001657
0.7900017057
0.7900017614
0.7900018059
0.7900018193
0.7900017897
0.7900017271
0.7900016627
0.7900016236
0.7900016135
0.7900016205
0.7900016301
0.7900016331
0.7900016269
0.7900016128
0.7900015923
0.7900015655
0.7900015308
0.7900014815
0.7900014018
0.7900012624
0.7900010218
0.790000621
0.7899999141
0.7899985979
0.7900015171
0.7900015084
0.7900015262
0.7900015394
0.7900016022
0.7900017481
0.7900016757
0.7900016211
0.7900015997
0.7900016132
0.7900016595
0.7900017218
0.7900017775
0.7900018043
0.7900017847
0.7900017194
0.7900016386
0.7900015799
0.7900015576
0.7900015621
0.7900015742
0.7900015785
0.7900015706
0.7900015532
0.7900015299
0.7900015027
0.7900014719
0.7900014338
0.7900013759
0.7900012695
0.7900010642
0.7900006816
0.7899999752
0.7899986711
0.7900015061
0.7900014897
0.7900014867
0.7900015302
0.7900016294
0.7900017993
0.7900017157
0.7900016381
0.7900015845
0.7900015638
0.7900015883
0.7900016456
0.7900017079
0.7900017485
0.7900017486
0.7900016991
0.7900016209
0.7900015538
0.7900015227
0.7900015244
0.7900015366
0.7900015375
0.7900015215
0.7900014945
0.7900014631
0.7900014311
0.7900013996
0.7900013666
0.7900013226
0.7900012438
0.7900010808
0.7900007463
0.790000095
0.7899989121
0.7900014721
0.7900014551
0.7900014758
0.7900015677
0.7900016654
0.7900017848
0.7900017226
0.790001653
0.7900015898
0.7900015373
0.7900015244
0.7900015589
0.7900016163
0.7900016613
0.7900016799
0.7900016537
0.7900015916
0.790001528
0.7900014932
0.790001492
0.7900015019
0.7900014959
0.7900014685
0.7900014306
0.7900013896
0.7900013497
0.7900013136
0.7900012821
0.7900012449
0.7900011827
0.7900010515
0.7900007639
0.7900001733
0.7899990921
0.790001428
0.7900014294
0.7900015027
0.7900016119
0.7900016746
0.7900017291
0.7900017027
0.7900016509
0.7900015954
0.790001536
0.790001489
0.7900014856
0.7900015215
0.7900015513
0.7900015824
0.7900015825
0.7900015456
0.7900014953
0.7900014612
0.7900014557
0.790001461
0.790001448
0.7900014118
0.790001364
0.7900013134
0.7900012649
0.7900012213
0.7900011853
0.790001149
0.790001092
0.790000974
0.7900007078
0.7900001423
0.7899991146
0.7900013854
0.7900014181
0.7900015257
0.7900016137
0.7900016453
0.7900016505
0.790001661
0.790001635
0.790001592
0.7900015368
0.7900014746
0.7900014308
0.7900014298
0.7900014118
0.7900014465
0.7900014807
0.7900014801
0.7900014542
0.7900014265
0.7900014147
0.7900014123
0.7900013948
0.7900013522
0.7900012954
0.790001235
0.790001177
0.7900011251
0.7900010814
0.7900010404
0.7900009779
0.7900008531
0.7900005712
0.789999966
0.7899989127
0.7900013417
0.7900013907
0.7900014925
0.790001559
0.7900015697
0.7900015454
0.790001588
0.790001592
0.7900015665
0.7900015187
0.7900014526
0.7900013741
0.790001325
0.790001219
0.79000123
0.7900013151
0.7900013748
0.7900013938
0.790001386
0.7900013708
0.7900013581
0.7900013365
0.7900012905
0.7900012244
0.7900011527
0.7900010843
0.7900010234
0.7900009713
0.7900009205
0.7900008413
0.790000686
0.790000341
0.7899996126
0.7899984309
0.7900012805
0.7900013122
0.7900013798
0.7900014304
0.7900014285
0.7900014002
0.790001466
0.7900014961
0.7900014906
0.7900014535
0.7900013849
0.7900012795
0.7900011753
0.7900010072
0.790000908
0.790001034
0.7900011852
0.7900012837
0.7900013222
0.7900013173
0.7900012962
0.7900012692
0.7900012213
0.7900011449
0.7900010603
0.7900009812
0.7900009123
0.7900008524
0.7900007853
0.7900006724
0.7900004504
0.7899999795
0.7899990516
0.7899977308
0.7900011902
0.7900011746
0.7900011821
0.7900012158
0.7900012085
0.7900012145
0.7900012887
0.7900013315
0.7900013414
0.7900013123
0.7900012383
0.7900011344
0.7900009974
0.7900009989
0.7900006544
0.7900006779
0.7900008888
0.7900010926
0.7900012088
0.7900012348
0.79000121
0.790001177
0.790001126
0.7900010414
0.790000946
0.7900008593
0.7900007863
0.7900007204
0.7900006255
0.7900004477
0.7900001029
0.7899994408
0.789998326
0.7899970935
0.7900010832
0.7900010189
0.7900009498
0.790000975
0.790000973
0.7900010753
0.7900011395
0.790001168
0.7900011651
0.7900011187
0.7900010478
0.7900010365
0.7900009536
0.7900013559
0.790000791
0.7900004892
0.7900005764
0.790000832
0.790001035
0.790001109
0.7900010765
0.7900010319
0.7900009784
0.790000893
0.7900007962
0.7900007103
0.7900006385
0.7900005606
0.7900004192
0.7900001275
0.78999961
0.7899987806
0.7899976848
0.7899967597
0.7900009841
0.7900009071
0.7900008101
0.7900008205
0.7900007608
0.7900010417
0.7900010629
0.7900010477
0.7900010079
0.7900009732
0.7900009799
0.7900011183
0.7900011367
0.7900018634
0.7900013012
0.7900006859
0.790000458
0.7900006002
0.7900008343
0.7900009601
0.7900008987
0.7900008178
0.7900007564
0.7900006818
0.7900005979
0.7900005204
0.7900004468
0.7900003431
0.7900001199
0.789999679
0.7899990447
0.7899982573
0.7899974255
0.7899967102
0.7900008804
0.79000079
0.7900006773
0.7900006515
0.7900005277
0.7900008
0.7900007789
0.790000801
0.7900008373
0.7900008809
0.7900010911
0.7900012456
0.7900013919
0.7900020536
0.7900016834
0.7900010371
0.7900005989
0.7900005416
0.7900006958
0.7900008502
0.7900007269
0.790000565
0.7900004626
0.7900003894
0.7900003215
0.7900002437
0.7900001434
0.789999993
0.7899996714
0.7899991578
0.7899986043
0.7899980626
0.7899975167
0.789996873
0.7900007765
0.7900006898
0.7900005894
0.7900005545
0.7900004725
0.7900005967
0.7900005861
0.7900006269
0.7900007355
0.790000909
0.7900012519
0.7900012169
0.7900014778
0.7900017137
0.7900014253
0.790000983
0.7900006515
0.7900005822
0.790000656
0.7900007967
0.7900005915
0.7900003179
0.790000125
0.7900000048
0.7899999109
0.7899997859
0.7899996277
0.7899994379
0.7899991137
0.7899987233
0.7899983815
0.78999808
0.7899977388
0.7899971708
0.7900006544
0.7900005783
0.7900004933
0.7900004452
0.7900003894
0.7900004274
0.7900004994
0.7900004525
0.790000675
0.7900010049
0.7900014528
0.7900010949
0.7900013507
0.7900016024
0.7900013915
0.7900010567
0.7900007818
0.7900006805
0.7900006098
0.7900006107
0.7900003467
0.7900000006
0.7899997187
0.7899995256
0.7899993587
0.7899991448
0.7899989518
0.7899988136
0.7899986503
0.7899984733
0.7899983046
0.7899981534
0.7899979563
0.7899975034
0.7900004728
0.7900004129
0.7900003503
0.7900003056
0.7900002924
0.7900002946
0.7900005747
0.790000378
0.7900006981
0.7900012016
0.7900017321
0.7900012061
0.7900010834
0.7900012454
0.7900010849
0.7900009338
0.7900008302
0.7900007088
0.7900004314
0.7900001469
0.7899997814
0.7899994285
0.7899991398
0.7899989583
0.7899987593
0.7899985268
0.7899984185
0.7899984058
0.7899984152
0.7899983773
0.7899982935
0.7899982189
0.7899981219
0.7899977938
0.7900002538
0.7900002355
0.790000211
0.7900001804
0.790000184
0.7900002494
0.7900005665
0.7900004403
0.7900007532
0.7900011524
0.7900014298
0.7900014932
0.7900011979
0.7900010587
0.7900005688
0.7900004151
0.7900005804
0.7900003831
0.7899998083
0.7899994093
0.7899991103
0.7899988354
0.7899985404
0.7899984513
0.7899982835
0.7899981538
0.789998189
0.7899982562
0.7899983477
0.7899983773
0.7899983304
0.7899982676
0.7899982197
0.7899979955
0.7900000188
0.7900000418
0.7900000631
0.7900000803
0.7900001462
0.7900001976
0.7900003757
0.7900004335
0.7900004157
0.7900004486
0.7900008134
0.7900009063
0.7900006539
0.7900006237
0.7900010722
0.7899994187
0.7900000269
0.7899996365
0.7899991841
0.789998944
0.7899987122
0.7899984438
0.7899979315
0.7899980368
0.7899979707
0.7899980248
0.7899981662
0.7899982528
0.789998377
0.7899984251
0.7899983858
0.7899982963
0.7899982389
0.7899980737
0.7899997751
0.7899998587
0.7899999723
0.7900000866
0.7900000966
0.790000012
0.7900000262
0.7900002412
0.7900003488
0.790000354
0.7900004822
0.7900004066
0.7900002847
0.7899999365
0.7900070183
0.7900006376
0.7899990627
0.7899987999
0.7899987191
0.7899986211
0.7899984141
0.7899981701
0.7899971188
0.7899977104
0.7899978163
0.7899980586
0.789998255
0.7899983453
0.7899984552
0.7899984885
0.7899984627
0.7899983251
0.7899982009
0.789998018
0.7899995903
0.7899996761
0.7899998139
0.7899999404
0.789999941
0.7899996995
0.789999887
0.7900000854
0.7900001912
0.7900002427
0.7900003555
0.7900004392
0.7900006006
0.790000441
0.7900023051
0.7899997916
0.7899993001
0.7899987724
0.7899985833
0.789998462
0.7899982248
0.7899980917
0.7899971115
0.7899977344
0.7899979045
0.7899982355
0.7899984467
0.7899985095
0.7899985645
0.7899985841
0.7899986276
0.7899984572
0.7899982187
0.7899978999
0.7899992341
0.78999952
0.7899996308
0.7899998348
0.7899999005
0.78999986
0.7899999423
0.7900000424
0.7900000369
0.7900001425
0.7899996105
0.7900004446
0.7900003933
0.7900000718
0.7900004469
0.789998789
0.7899985055
0.7899982768
0.7899982639
0.7899983044
0.7899982847
0.7899982299
0.7899980437
0.7899982229
0.7899983472
0.7899985961
0.7899987465
0.7899987302
0.7899987156
0.7899987608
0.7899989401
0.789998797
0.7899984467
0.7899978912
0.789999155
0.7899994202
0.7899995716
0.7899997538
0.7899998515
0.7899998558
0.7899999967
0.7900000195
0.7900000448
0.79000022
0.7900002557
0.7900002979
0.7899999539
0.7899992192
0.7899989912
0.7899983323
0.7899981975
0.7899980771
0.789998013
0.7899980427
0.7899980724
0.7899980859
0.7899980847
0.7899984257
0.7899986463
0.7899989378
0.7899990443
0.7899989691
0.7899989118
0.7899990253
0.7899993399
0.7899993093
0.7899989339
0.7899981633
0.7899977678
0.7899985633
0.7899990494
0.7899994584
0.7899996638
0.7899997796
0.7899999434
0.7899999862
0.7900000767
0.7900001465
0.7899997973
0.789999229
0.7899988081
0.7899984761
0.7899982053
0.7899980519
0.7899980341
0.7899980243
0.7899980294
0.789998016
0.7899981161
0.7899983118
0.7899986055
0.7899987531
0.7899989988
0.7899992428
0.7899993071
0.7899992084
0.78999919
0.7899992652
0.7899995073
0.7899996759
0.789999557
0.7899988998
0.7899965246
0.7899964606
0.7899963315
0.7899965274
0.7899970095
0.7899978834
0.7899986396
0.7899994282
0.7899997677
0.7899997627
0.7899991091
0.7899982792
0.7899980701
0.7899980531
0.7899978852
0.789998044
0.7899979982
0.7899981199
0.7899981688
0.7899982669
0.7899982512
0.7899983713
0.7899986671
0.789998881
0.7899989054
0.7899991851
0.7899993563
0.78999939
0.7899992805
0.7899991283
0.7899990043
0.7899990248
0.7899989241
0.7899983958
0.789998254
0.7899955494
0.7899952412
0.7899954514
0.7899954795
0.7899956134
0.7899958159
0.7899965333
0.7899975692
0.789998283
0.7899983254
0.7899973711
0.7899970913
0.7899977582
0.7899981542
0.7899981771
0.7899982172
0.7899981721
0.7899983421
0.7899984238
0.7899986061
0.7899986756
0.7899988612
0.7899989399
0.7899990436
0.7899987765
0.7899992135
0.7899993607
0.7899994093
0.789999329
0.78999925
0.789999163
0.7899990477
0.7899987389
0.7899985929
0.7899989101
0.7899952026
0.7899952102
0.7899952952
0.7899953164
0.7899953695
0.7899954009
0.7899954649
0.7899955745
0.7899956881
0.7899957999
0.7899959514
0.7899963253
0.7899972038
0.7899982644
0.7899984347
0.7899984652
0.7899983698
0.7899985158
0.789998668
0.7899989309
0.7899989777
0.7899991929
0.7899991076
0.7899991796
0.7899985221
0.7899989965
0.7899991978
0.7899992168
0.7899991882
0.7899991916
0.789999112
0.7899989435
0.7899988609
0.7899990728
0.7899993675
0.7899951165
0.7899952752
0.7899955741
0.7899953795
0.7899954117
0.7899954296
0.7899954518
0.789995484
0.7899955416
0.789995655
0.789995894
0.7899963012
0.7899970547
0.7899982274
0.789998802
0.7899989022
0.7899987252
0.7899989478
0.789999088
0.7899992925
0.7899992935
0.7899994921
0.7899993961
0.7899991991
0.7899976908
0.789998245
0.789998983
0.7899992181
0.7899992491
0.789999185
0.7899991223
0.7899992409
0.7899993927
0.7899994931
0.7899996862
0.7899955104
0.789995542
0.7899955303
0.7899955635
0.789995586
0.7899956122
0.7899956492
0.789995724
0.7899958695
0.7899961536
0.7899965707
0.7899972283
0.7899982222
0.7899990834
0.7899992554
0.7899994397
0.7899991566
0.7899995434
0.7899997287
0.7899996236
0.7899997711
0.7899999874
0.7899999724
0.7900066696
0.7899984031
0.7899978955
0.7899985504
0.7899988367
0.7899990271
0.7899994001
0.7899996206
0.7899996675
0.7899997032
0.7899998655
0.7899957079
0.7899957655
0.7899957616
0.7899957766
0.7899957991
0.7899958354
0.7899958907
0.7899959988
0.7899961891
0.7899965107
0.789996962
0.7899976076
0.789998456
0.7899987929
0.7899990626
0.7899991682
0.7899993826
0.7899997434
0.7899998965
0.7899998895
0.7899998527
0.7899998551
0.7899999888
0.7899960036
0.7899960209
0.7899960572
0.7899961158
0.7899962122
0.7899963861
0.7900016442
0.7900016745
0.790001715
0.7900017314
0.7900017342
0.7900017212
0.7900017058
0.7900016949
0.7900016936
0.7900017042
0.7900017246
0.7900017497
0.7900017732
0.7900017895
0.7900017968
0.7900017986
0.7900018005
0.7900018055
0.7900018121
0.7900018165
0.7900018153
0.7900018058
0.7900017866
0.7900017565
0.7900017136
0.7900016542
0.7900015721
0.7900014593
0.7900013074
0.790001112
0.7900008705
0.7900005572
0.7900000499
0.789998995
0.7900015316
0.790001539
0.7900015933
0.7900016229
0.7900016457
0.7900016588
0.7900016551
0.7900016489
0.7900016488
0.7900016602
0.7900016833
0.7900017118
0.7900017351
0.7900017416
0.7900017261
0.790001696
0.7900016655
0.7900016453
0.7900016367
0.7900016352
0.7900016353
0.7900016325
0.7900016246
0.7900016104
0.7900015887
0.7900015563
0.7900015065
0.790001428
0.7900013052
0.7900011211
0.79000086
0.7900004859
0.7899998743
0.7899987215
0.7900014903
0.7900014791
0.7900015398
0.790001566
0.7900015988
0.7900016337
0.7900016342
0.7900016269
0.7900016228
0.7900016303
0.7900016517
0.790001681
0.7900017059
0.7900017109
0.7900016862
0.7900016375
0.790001584
0.7900015442
0.7900015231
0.7900015162
0.7900015152
0.790001513
0.7900015063
0.7900014947
0.7900014785
0.7900014559
0.7900014218
0.7900013653
0.7900012681
0.7900011035
0.7900008389
0.7900004231
0.7899997251
0.7899984826
0.7900014853
0.7900014756
0.7900015067
0.7900015298
0.7900015687
0.7900016086
0.7900016135
0.7900016049
0.7900015914
0.7900015845
0.790001594
0.7900016178
0.7900016436
0.7900016541
0.7900016351
0.790001586
0.7900015241
0.7900014729
0.7900014425
0.79000143
0.7900014252
0.7900014186
0.7900014064
0.7900013896
0.7900013702
0.7900013485
0.7900013215
0.7900012809
0.7900012092
0.7900010755
0.7900008339
0.7900004179
0.7899997037
0.7899984396
0.7900014717
0.7900014609
0.7900014709
0.7900014934
0.7900015243
0.7900015451
0.7900015551
0.7900015522
0.7900015393
0.7900015211
0.790001515
0.7900015284
0.7900015527
0.7900015705
0.7900015649
0.7900015284
0.7900014721
0.7900014185
0.7900013827
0.7900013649
0.790001354
0.7900013392
0.7900013175
0.7900012909
0.7900012629
0.7900012353
0.7900012073
0.7900011738
0.7900011215
0.7900010205
0.7900008192
0.7900004407
0.7899997729
0.7899986301
0.790001438
0.7900014263
0.7900014283
0.7900014368
0.7900014441
0.7900014367
0.7900014504
0.7900014574
0.7900014571
0.7900014433
0.7900014294
0.7900014315
0.7900014515
0.7900014743
0.7900014819
0.7900014623
0.7900014191
0.7900013705
0.7900013332
0.7900013104
0.7900012919
0.7900012671
0.7900012342
0.7900011949
0.790001155
0.7900011185
0.7900010844
0.7900010485
0.7900010045
0.7900009267
0.7900007627
0.7900004304
0.7899998223
0.7899987961
0.7900013955
0.7900013805
0.7900013699
0.7900013519
0.7900013297
0.7900012841
0.7900013029
0.7900013308
0.7900013497
0.7900013521
0.7900013452
0.7900013416
0.7900013564
0.7900013809
0.7900013972
0.790001392
0.7900013639
0.7900013245
0.7900012885
0.7900012609
0.7900012337
0.7900011978
0.7900011518
0.7900010991
0.7900010456
0.7900009961
0.7900009529
0.7900009102
0.7900008629
0.7900007927
0.7900006477
0.7900003393
0.7899997585
0.7899988024
0.7900013458
0.7900013218
0.7900012872
0.7900012486
0.7900011881
0.790001108
0.7900011333
0.7900011866
0.790001231
0.7900012553
0.7900012648
0.7900012637
0.7900012768
0.7900013027
0.7900013196
0.790001321
0.790001305
0.790001277
0.7900012453
0.7900012143
0.7900011787
0.790001131
0.7900010726
0.7900010066
0.7900009384
0.7900008733
0.7900008153
0.790000761
0.7900007015
0.7900006237
0.7900004728
0.7900001481
0.78999953
0.7899985728
0.7900012872
0.7900012461
0.7900011888
0.79000113
0.7900010346
0.7900009349
0.7900009667
0.7900010428
0.7900011104
0.7900011566
0.790001186
0.7900011938
0.790001213
0.7900012437
0.7900012507
0.7900012464
0.7900012353
0.7900012189
0.7900011963
0.7900011667
0.7900011259
0.7900010685
0.790000996
0.7900009155
0.7900008314
0.7900007494
0.7900006742
0.7900006029
0.7900005244
0.7900004244
0.7900002398
0.7899998479
0.7899991108
0.7899980597
0.7900012171
0.7900011557
0.790001075
0.7900010026
0.7900008809
0.7900007862
0.7900008214
0.7900009129
0.7900009965
0.7900010585
0.7900011049
0.7900011236
0.790001151
0.790001168
0.7900011632
0.7900011518
0.7900011437
0.7900011378
0.7900011283
0.7900011072
0.7900010674
0.7900010034
0.7900009151
0.7900008172
0.7900007166
0.7900006184
0.7900005266
0.7900004358
0.790000335
0.7900001985
0.7899999466
0.789999429
0.7899985147
0.7899973808
0.7900011355
0.7900010544
0.7900009511
0.7900008767
0.7900007337
0.7900006759
0.7900007106
0.7900008092
0.7900008996
0.7900009695
0.7900010199
0.7900010419
0.790001044
0.7900009748
0.7900009841
0.7900009909
0.7900010129
0.7900010269
0.7900010311
0.7900010214
0.7900009877
0.7900009198
0.7900008146
0.790000696
0.79000058
0.7900004701
0.7900003669
0.7900002601
0.7900001387
0.7899999497
0.7899995895
0.7899988969
0.7899978431
0.7899968526
0.7900010424
0.7900009436
0.7900008188
0.7900007592
0.7900005866
0.7900006053
0.790000639
0.7900007394
0.7900008279
0.7900008946
0.790000935
0.7900009254
0.7900008414
0.7900006512
0.7900006996
0.7900007531
0.7900008379
0.7900008909
0.7900009074
0.7900008994
0.7900008688
0.7900007967
0.7900006744
0.7900005351
0.7900004074
0.7900002946
0.790000189
0.7900000818
0.7899999404
0.7899996794
0.7899991774
0.7899983264
0.7899973127
0.7899966212
0.7900009402
0.7900008261
0.7900006697
0.7900006238
0.7900003875
0.7900005269
0.7900005615
0.7900006642
0.7900007523
0.7900008133
0.7900008501
0.7900007584
0.7900006174
0.7900003603
0.7900004417
0.7900005179
0.7900006529
0.7900007487
0.7900007698
0.7900007363
0.7900006937
0.7900006143
0.7900004808
0.7900003253
0.7900001926
0.7900000841
0.7899999898
0.7899998942
0.7899997286
0.7899993781
0.7899987527
0.7899978837
0.7899970942
0.7899965699
0.7900008275
0.7900007034
0.79000052
0.7900004697
0.790000117
0.7900003916
0.7900004373
0.7900005562
0.7900006464
0.7900007321
0.7900007308
0.7900005828
0.7900004324
0.7900001643
0.7900002701
0.7900003672
0.7900005119
0.7900006218
0.7900006304
0.7900005277
0.7900004526
0.790000359
0.7900002271
0.7900000744
0.7899999388
0.7899998344
0.7899997539
0.7899996629
0.7899994605
0.7899990353
0.7899983861
0.789997667
0.7899971119
0.7899966241
0.7900007055
0.7900005917
0.7900004419
0.7900003841
0.7900002045
0.7900003172
0.7900003633
0.7900004541
0.7900005715
0.7900006753
0.790000607
0.7900004696
0.7900003232
0.7900001734
0.7900002692
0.7900003767
0.790000498
0.790000562
0.7900004992
0.790000275
0.7900001527
0.7900000363
0.7899999063
0.7899997672
0.7899996353
0.7899995194
0.789999424
0.7899993196
0.7899990922
0.7899986681
0.7899981069
0.7899975766
0.7899971895
0.7899967599
0.7900005514
0.7900004529
0.7900003347
0.790000269
0.7900001526
0.7900002013
0.7900002615
0.7900003243
0.7900004733
0.7900005401
0.7900004445
0.7900003333
0.7900002147
0.7900002222
0.7900003331
0.7900003993
0.7900004877
0.7900004985
0.7900003284
0.7899999715
0.7899998016
0.7899996511
0.789999503
0.7899993664
0.7899992228
0.7899990698
0.7899989495
0.7899988492
0.7899986588
0.7899983253
0.7899979117
0.7899975267
0.7899972415
0.7899969375
0.7900003478
0.7900002697
0.7900001816
0.7900001215
0.7900000528
0.7900000688
0.7900001292
0.7900002058
0.790000384
0.7900004531
0.7900003203
0.7900003112
0.7900002073
0.7900002117
0.7900003797
0.7900004844
0.7900005665
0.7900004221
0.7900001219
0.7899997351
0.7899994968
0.7899992733
0.7899990388
0.7899988734
0.7899987052
0.7899985365
0.789998446
0.7899983942
0.7899982887
0.7899981018
0.7899978488
0.7899975513
0.7899972963
0.7899971194
0.7900000923
0.7900000399
0.7899999847
0.7899999369
0.7899999014
0.7899998883
0.7899999114
0.7900000032
0.7900001434
0.7900001492
0.7899999875
0.7900002125
0.7900003731
0.7900003267
0.7900005392
0.7900005575
0.7900005118
0.7900001064
0.7899997264
0.7899993935
0.7899991202
0.7899988443
0.7899984593
0.7899983277
0.7899981896
0.7899980881
0.7899980869
0.7899981101
0.7899981108
0.7899980438
0.7899978877
0.7899976465
0.7899973871
0.789997283
0.7899997938
0.7899997845
0.7899997796
0.7899997725
0.7899997518
0.7899996868
0.7899997107
0.7899998558
0.7900000272
0.7900001971
0.7900001277
0.790000384
0.790000625
0.7900004998
0.7900011097
0.7900007097
0.7900003476
0.7899996418
0.7899992997
0.7899990134
0.7899987093
0.7899984463
0.7899976532
0.7899978055
0.7899977717
0.7899978064
0.7899979261
0.7899980544
0.7899981326
0.7899981196
0.7899979916
0.7899977607
0.7899975008
0.78999741
0.7899995154
0.7899995459
0.7899996006
0.7899996212
0.7899995853
0.7899994482
0.7899994389
0.7899996502
0.7899998869
0.7900001143
0.7900003357
0.7900005016
0.7900012211
0.7900004689
0.789998534
0.7900007988
0.7899998687
0.789999164
0.7899989363
0.7899986897
0.7899983061
0.7899981686
0.7899960636
0.7899973236
0.7899975084
0.7899977197
0.7899979816
0.7899981861
0.7899982873
0.7899982835
0.7899981459
0.7899978932
0.789997618
0.7899974882
0.789999298
0.7899993602
0.7899994694
0.7899995089
0.789999496
0.7899989462
0.7899993834
0.7899996436
0.7899999379
0.7900001908
0.7900003825
0.7900006483
0.7900009428
0.7900009309
0.7900006887
0.7900008509
0.78999953
0.7899988271
0.7899985856
0.7899984454
0.7899979567
0.7899980007
0.7899961769
0.7899972356
0.7899974933
0.7899978723
0.7899982288
0.78999843
0.7899985169
0.7899985032
0.7899983446
0.7899980573
0.7899977299
0.7899975221
0.7899992542
0.7899992626
0.7899994069
0.7899995327
0.789999579
0.7899995492
0.7899996016
0.7899998146
0.7900000177
0.7900002204
0.7900005471
0.7900005778
0.7900005126
0.7899999573
0.7899996648
0.7899984731
0.7899985876
0.7899982587
0.7899982685
0.7899982426
0.789998117
0.789997987
0.7899976738
0.789997934
0.7899981395
0.7899984099
0.7899986335
0.7899987384
0.7899987826
0.7899987394
0.789998557
0.7899982529
0.7899978404
0.7899975461
0.7899989971
0.7899991814
0.7899993715
0.7899995351
0.7899996324
0.7899996486
0.7899997499
0.7899999486
0.7900001275
0.7900003103
0.7900004443
0.7900002501
0.7899998823
0.7899990897
0.7899990476
0.7899983803
0.7899982407
0.7899980614
0.7899980516
0.7899980361
0.7899979321
0.7899979029
0.7899977217
0.7899981672
0.7899985039
0.7899987994
0.7899989637
0.7899990025
0.7899990006
0.789998898
0.7899986782
0.7899983955
0.7899979647
0.7899976465
0.7900003171
0.7899988364
0.7899991729
0.7899993432
0.7899995143
0.7899996347
0.7899997664
0.7899999563
0.7900000647
0.790000076
0.7899998558
0.789999301
0.7899988409
0.7899983868
0.7899982443
0.7899980689
0.7899980498
0.7899980395
0.7899980869
0.7899980858
0.7899980786
0.7899981917
0.7899983763
0.7899986783
0.7899989387
0.7899991364
0.7899992115
0.7899991706
0.7899990889
0.7899988769
0.7899985789
0.7899983172
0.7899979831
0.7899979895
0.789997038
0.78999711
0.7899970716
0.7899974138
0.7899978201
0.789998348
0.7899988331
0.789999342
0.7899996318
0.7899994232
0.7899987498
0.7899982081
0.7899980945
0.7899981713
0.7899978241
0.7899980899
0.7899980058
0.7899980971
0.7899981708
0.7899982774
0.789998297
0.7899983646
0.7899985367
0.7899986931
0.7899989762
0.7899991544
0.7899992974
0.7899993057
0.7899991928
0.7899990143
0.7899988327
0.7899985718
0.7899983124
0.7899981829
0.7899983102
0.7899958465
0.7899959686
0.7899959403
0.7899960771
0.7899962702
0.7899966531
0.7899973853
0.7899980076
0.7899982974
0.7899978413
0.78999718
0.789997211
0.7899978104
0.7899982008
0.7899982254
0.7899982404
0.7899982323
0.7899983019
0.789998432
0.7899985639
0.7899986321
0.7899987633
0.7899988964
0.7899989573
0.7899990801
0.78999923
0.78999935
0.7899992921
0.7899991346
0.7899989058
0.7899987631
0.7899986077
0.7899984886
0.7899985073
0.7899987963
0.7899954483
0.7899954353
0.7899955279
0.7899955746
0.7899956356
0.789995743
0.7899958712
0.7899960248
0.7899960701
0.7899961021
0.7899962703
0.7899967244
0.7899975426
0.7899983071
0.7899984148
0.7899984803
0.7899984768
0.7899985283
0.7899987082
0.7899988422
0.7899989283
0.7899991169
0.7899993093
0.7899993806
0.789999549
0.7899994808
0.7899995529
0.7899992483
0.7899990736
0.7899988984
0.7899988805
0.7899988211
0.7899987844
0.7899988796
0.7899991607
0.7899955541
0.7899954686
0.789995352
0.78999549
0.789995498
0.7899955454
0.7899956187
0.7899957146
0.7899958361
0.7899960257
0.7899963632
0.7899968636
0.7899975878
0.7899984249
0.7899987919
0.7899988127
0.789998848
0.7899988158
0.7899990449
0.7899991522
0.789999229
0.7899993955
0.7899995743
0.7899999454
0.7900001674
0.789999195
0.7899992933
0.7899991388
0.7899990855
0.7899990606
0.7899990927
0.7899991247
0.7899991329
0.7899991712
0.789999408
0.7899956903
0.7899956129
0.7899955935
0.789995607
0.7899956617
0.7899957511
0.7899958904
0.7899960735
0.7899963274
0.7899967047
0.7899971877
0.789997805
0.7899985546
0.7899990839
0.7899991596
0.789999234
0.7899986136
0.7899994334
0.7899995115
0.7899996178
0.7899998502
0.7899999647
0.7900006255
0.789997982
0.790001756
0.7900000722
0.7899993622
0.7899993306
0.7899992488
0.7899993609
0.7899993847
0.789999347
0.7899993566
0.7899995656
0.7899958697
0.7899958235
0.7899958239
0.7899958544
0.7899959247
0.7899960397
0.7899962064
0.7899964202
0.7899966946
0.7899970583
0.7899975182
0.7899980977
0.7900004684
0.7899998833
0.7899996493
0.7899994517
0.7899995381
0.7899996117
0.7899996399
0.7899995853
0.7899995201
0.7899995166
0.7899996929
0.7899961481
0.7899961835
0.789996273
0.7899964158
0.7899966104
0.7899968553
0.7900016263
0.7900016466
0.7900016797
0.7900016941
0.7900016975
0.7900016902
0.79000168
0.7900016726
0.7900016724
0.7900016812
0.7900016975
0.7900017176
0.7900017363
0.790001749
0.7900017541
0.7900017541
0.7900017533
0.7900017544
0.7900017565
0.7900017573
0.7900017537
0.7900017435
0.7900017247
0.790001695
0.7900016515
0.7900015895
0.7900015025
0.7900013833
0.7900012265
0.7900010309
0.7900007947
0.7900004883
0.7899999801
0.7899989229
0.7900015396
0.7900015417
0.7900015783
0.790001599
0.7900016151
0.7900016242
0.7900016241
0.7900016218
0.7900016229
0.7900016313
0.7900016469
0.7900016654
0.7900016794
0.7900016809
0.7900016669
0.7900016422
0.7900016162
0.7900015971
0.7900015861
0.7900015807
0.7900015774
0.7900015725
0.7900015635
0.7900015482
0.7900015238
0.7900014855
0.7900014257
0.7900013335
0.7900011965
0.7900010031
0.790000741
0.7900003717
0.7899997751
0.7899986521
0.790001534
0.7900015041
0.7900015294
0.7900015434
0.7900015629
0.7900015805
0.7900015845
0.7900015824
0.7900015812
0.7900015858
0.7900015982
0.7900016143
0.7900016258
0.7900016229
0.7900016
0.7900015614
0.7900015188
0.7900014862
0.7900014658
0.7900014552
0.7900014498
0.7900014447
0.7900014368
0.7900014242
0.7900014051
0.7900013758
0.7900013293
0.7900012542
0.7900011339
0.7900009477
0.7900006699
0.7900002506
0.7899995698
0.7899983842
0.7900014919
0.7900014864
0.790001487
0.7900014972
0.7900015166
0.7900015353
0.7900015397
0.7900015339
0.7900015246
0.7900015196
0.7900015237
0.7900015349
0.7900015452
0.7900015437
0.7900015225
0.7900014824
0.7900014334
0.790001395
0.7900013687
0.7900013536
0.7900013442
0.7900013349
0.7900013224
0.7900013057
0.7900012844
0.7900012565
0.7900012169
0.7900011553
0.7900010544
0.7900008875
0.7900006173
0.7900001844
0.7899994744
0.7899982639
0.7900014559
0.7900014421
0.7900014391
0.7900014446
0.7900014569
0.7900014644
0.7900014677
0.7900014606
0.7900014452
0.7900014306
0.7900014251
0.7900014304
0.7900014402
0.7900014436
0.7900014312
0.7900014002
0.7900013578
0.7900013179
0.7900012881
0.7900012685
0.7900012536
0.790001237
0.7900012159
0.7900011902
0.7900011609
0.7900011279
0.7900010884
0.7900010346
0.7900009512
0.7900008105
0.7900005692
0.7900001629
0.7899994953
0.789998384
0.7900014091
0.7900013917
0.7900013805
0.7900013749
0.7900013661
0.790001348
0.7900013504
0.7900013517
0.7900013401
0.7900013246
0.7900013137
0.7900013141
0.7900013236
0.7900013324
0.7900013304
0.790001312
0.7900012803
0.7900012455
0.790001216
0.7900011932
0.790001172
0.7900011468
0.7900011149
0.7900010774
0.7900010359
0.7900009917
0.7900009451
0.7900008911
0.7900008174
0.7900006983
0.7900004895
0.790000124
0.78999952
0.7899985489
0.7900013575
0.7900013334
0.7900013088
0.7900012804
0.7900012316
0.7900011755
0.7900011788
0.7900012013
0.7900012121
0.7900012078
0.7900011995
0.7900011988
0.7900012083
0.790001221
0.7900012274
0.7900012212
0.7900012019
0.7900011755
0.7900011488
0.7900011237
0.7900010963
0.7900010621
0.7900010187
0.7900009667
0.7900009101
0.7900008514
0.7900007903
0.7900007268
0.7900006513
0.7900005402
0.790000348
0.7900000048
0.7899994341