/*--------------------------------*- C++ -*----------------------------------*\
  =========                 |
  \\      /  F ield         | OpenFOAM: The Open Source CFD Toolbox
   \\    /   O peration     | Website:  https://openfoam.org
    \\  /    A nd           | Version:  8
     \\/     M anipulation  |
\*---------------------------------------------------------------------------*/
FoamFile
{
    version     2.0;
    format      ascii;
    class       volScalarField;
    location    "1.4";
    object      nut;
}
// * * * * * * * * * * * * * * * * * * * * * * * * * * * * * * * * * * * * * //

dimensions      [0 2 -1 0 0 0 0];

internalField   nonuniform List<scalar> 
67193
(
0.0001727770346
0.000170112901
0.0001671785512
0.0001644466576
0.0001615729057
0.0001607800422
0.0001580602416
0.0001553009044
0.0001535355917
0.0001530687759
0.0001533662639
0.0001534863256
0.0001529626031
0.0001521887595
0.000152105821
0.0001534748446
0.0001562983324
0.0001599052324
0.0001634972306
0.0001665531109
0.0001688935466
0.0001705541757
0.0001715970019
0.0001719668256
0.0001714599698
0.0001697871896
0.0001666638241
0.0001618790214
0.0001553479825
0.0001471575494
0.000137540576
0.0001266894308
0.0001139677376
9.065981526e-05
0.0002020718657
0.0001988461958
0.0001954638538
0.0001928702743
0.0001915780886
0.0001968641933
0.00019336232
0.0001881719349
0.0001850593179
0.0001847403302
0.0001857285357
0.0001860956759
0.0001849423728
0.0001827176475
0.0001807663861
0.00018038695
0.0001819452535
0.0001847915783
0.0001879296317
0.0001906566014
0.0001927728465
0.0001943985039
0.0001955938494
0.00019612139
0.0001955140568
0.0001932763129
0.0001890352683
0.0001825679997
0.0001737886561
0.0001627880717
0.0001498845502
0.0001354692703
0.0001190215939
9.132661186e-05
0.0002114471507
0.0002080676583
0.0002056233074
0.0002061729089
0.0002115075187
0.0002298111995
0.0002250792111
0.0002148466657
0.0002073523091
0.000205135208
0.0002060306833
0.0002067084713
0.0002053683555
0.0002020698137
0.0001981868036
0.0001954700256
0.0001949419933
0.0001963586186
0.0001987355881
0.0002012595213
0.0002037544609
0.0002063881968
0.0002090177386
0.0002109487087
0.0002113120309
0.0002094327346
0.0002049648236
0.0001977844308
0.0001878482998
0.0001751640827
0.0001598927408
0.000142418637
0.0001224591818
9.067666077e-05
0.0002160732814
0.0002131305751
0.0002138904423
0.0002223438572
0.0002393710668
0.0002695982125
0.0002634085158
0.000247585214
0.0002326116513
0.0002242974685
0.0002221759288
0.0002219801332
0.0002203522625
0.000216371027
0.0002110401422
0.0002062118674
0.0002034300661
0.0002030612267
0.0002044399926
0.0002068296353
0.000210136289
0.0002144594491
0.0002191903575
0.0002229509263
0.0002244492111
0.0002229692937
0.0002183612739
0.0002107429109
0.0002001850963
0.0001866491607
0.0001700756638
0.0001506278394
0.0001282281574
9.35040608e-05
0.0002199080529
0.0002191040507
0.0002274259609
0.0002480553284
0.0002760694655
0.0003101125946
0.0003031078121
0.000284123944
0.0002623474879
0.0002453382393
0.0002366069771
0.0002333558873
0.0002307591743
0.0002262897618
0.0002201997027
0.0002140958476
0.000209620842
0.0002075832607
0.0002078459792
0.0002100429007
0.0002143047345
0.0002206240864
0.0002277118836
0.0002334584039
0.0002359492567
0.000234545593
0.0002294777164
0.0002213565265
0.0002103978531
0.0001965329954
0.0001795310483
0.000159262999
0.0001356421985
9.976095246e-05
0.0002243618743
0.0002288057793
0.0002488541598
0.0002808265545
0.0003146886557
0.0003454811597
0.0003390293733
0.0003195256022
0.0002934909727
0.0002686779509
0.0002512506735
0.0002422902926
0.000237361532
0.0002323174162
0.000226192833
0.000219998369
0.0002148763361
0.0002115820068
0.0002105308693
0.0002120857295
0.0002168702904
0.0002250337494
0.0002343757608
0.000241379427
0.0002445332492
0.0002434683642
0.0002382603501
0.0002292944803
0.0002179438834
0.0002039620971
0.0001869683272
0.0001665919943
0.0001425598749
0.000105846005
0.0002302126018
0.0002426447516
0.0002738431837
0.0003127255387
0.0003478026363
0.0003726633072
0.0003672691746
0.0003487031574
0.0003219356233
0.0002918625055
0.0002663153581
0.0002499822078
0.0002412696814
0.0002358688796
0.0002306172314
0.0002257427167
0.0002212095925
0.0002170864743
0.0002142186034
0.0002140336812
0.0002180067223
0.0002265904322
0.0002369441797
0.0002448700122
0.000248675945
0.0002480723515
0.0002432247189
0.0002343447244
0.0002226180804
0.0002086022943
0.000191718383
0.0001714201247
0.0001472388304
0.0001100005725
0.0002371444927
0.0002568894036
0.0002949711144
0.00033611675
0.000370072469
0.0003909947454
0.0003863084946
0.0003684941185
0.0003419481498
0.0003102699734
0.0002789349854
0.0002560117671
0.0002441070321
0.0002415596187
0.0002379116087
0.0002348226054
0.0002313591838
0.0002264474508
0.0002209841611
0.0002174429684
0.0002184522017
0.0002251009128
0.0002354140789
0.0002441776199
0.0002488108654
0.0002488652629
0.0002445696682
0.000236172364
0.0002244372486
0.0002104998404
0.000193677774
0.0001733146366
0.0001487949566
0.0001112596182
0.0002433696284
0.0002656948609
0.0003061040156
0.0003467527239
0.0003800238538
0.000399103232
0.0003948552883
0.0003774567485
0.0003506890555
0.0003179969336
0.00028381459
0.0002580874631
0.0002500666383
0.000262404005
0.0002580031112
0.0002523283165
0.000247460607
0.0002408483889
0.0002321791707
0.0002240405113
0.0002199619994
0.0002223588848
0.0002307775183
0.0002401715601
0.0002458020839
0.0002466449931
0.0002429735954
0.0002350986276
0.0002236723478
0.0002098599158
0.000192965701
0.0001722526064
0.0001470132117
0.0001094863312
0.0002480467473
0.0002655309258
0.0003025798554
0.0003426932304
0.000376930854
0.0003965940808
0.0003924863045
0.0003746328368
0.0003461095819
0.0003108960392
0.0002763691045
0.000257407941
0.000273020445
0.0003161284706
0.0003032781469
0.0002840090971
0.000270312296
0.0002591651034
0.0002468755849
0.0002341981243
0.0002242302036
0.0002207446246
0.0002253674483
0.0002345861355
0.0002410432034
0.0002424576001
0.0002391452992
0.0002315523906
0.0002205372629
0.0002067503475
0.0001896204426
0.0001684087486
0.0001426324087
0.0001071961374
0.0002526473142
0.0002579975635
0.0002833613545
0.0003211776759
0.0003594844519
0.0003833812784
0.0003789403489
0.0003585480749
0.0003248607459
0.0002858694224
0.000259552886
0.0002725159502
0.0003319987179
0.0003986154357
0.0003739020835
0.0003338476944
0.0003016095894
0.0002799089926
0.0002624056466
0.0002460928796
0.0002313622274
0.0002218838835
0.0002219610016
0.0002295625353
0.0002359911992
0.00023718062
0.0002334646474
0.0002256051653
0.0002148840907
0.0002010859211
0.0001841023421
0.0001634635007
0.0001398050304
0.0001116457525
0.0002586351607
0.0002541700889
0.0002583062988
0.0002809758316
0.0003239363476
0.0003558412212
0.0003504178559
0.000323629296
0.0002824703981
0.0002519180054
0.0002634655431
0.0003318157102
0.0004167659483
0.0004850923975
0.0004541380623
0.0003991233484
0.0003443623089
0.0003042351559
0.0002770359881
0.0002575093292
0.000240293857
0.0002260972665
0.0002212351331
0.0002257506498
0.0002306939755
0.0002304914512
0.0002254446008
0.0002172547793
0.0002065630285
0.0001939132282
0.0001800328572
0.0001645351388
0.000148494832
0.000128287919
0.0002639097786
0.0002584760998
0.0002559122372
0.0002578651419
0.0002779536248
0.000309837093
0.0002992174137
0.0002702113011
0.0002449115307
0.0002487705612
0.0003227629519
0.0004122273247
0.0004978963823
0.0005579240603
0.0005263279669
0.0004648058493
0.0003949249294
0.0003337493079
0.0002911289941
0.0002687086028
0.0002519209661
0.0002340463239
0.0002229538692
0.0002217348219
0.0002229917222
0.0002202970036
0.0002140247773
0.0002057783385
0.0001969859474
0.0001907740956
0.0001868049188
0.0001814680628
0.0001730503389
0.0001530533264
0.0002679559629
0.0002626161944
0.0002583368838
0.0002548523524
0.0002556895055
0.0002607131482
0.0002478745803
0.0002360158194
0.0002336189097
0.0002921414057
0.000392610323
0.0004809411111
0.000555826691
0.0005976508621
0.0005706247086
0.000510373567
0.0004351649062
0.0003603629635
0.0003023657152
0.0002824960101
0.0002707570597
0.0002484992063
0.0002279412221
0.0002170759542
0.000211455629
0.0002056018377
0.0001989421957
0.0001931935427
0.0001934140041
0.000201497736
0.0002090241987
0.0002100938424
0.0002034884926
0.0001789914759
0.0002705521029
0.0002649253821
0.0002592949332
0.000253271759
0.0002473470859
0.0002382403455
0.0002369560967
0.0002287865031
0.000253710536
0.0003473717359
0.0004496725815
0.0005206405888
0.0005765977798
0.0005930626241
0.0005674033439
0.0005119091609
0.0004388030904
0.0003620312381
0.0002992118708
0.0002986914284
0.0002934824726
0.0002670199639
0.0002358374857
0.0002137373485
0.0001996053063
0.0001904018627
0.0001871484077
0.0001917286435
0.000208094731
0.0002265996661
0.0002370688003
0.0002380670846
0.0002302678571
0.0002013933601
0.0002719081451
0.0002661448474
0.0002596626038
0.0002526186924
0.0002433304733
0.0002359803781
0.0002572374395
0.0002414639532
0.0002901848771
0.0004018449484
0.0005041005585
0.0005440079771
0.0005718670523
0.0005671423875
0.0005305331929
0.0004767761246
0.0004114137236
0.000342318902
0.0002828251991
0.0003055030636
0.0003002266385
0.0002707154292
0.0002366033717
0.0002109114462
0.000193019635
0.0001864019967
0.0001957013965
0.0002149765768
0.0002388343857
0.0002556749576
0.0002628542077
0.0002608450446
0.0002507481786
0.0002182435629
0.000271303854
0.0002649722332
0.0002570912212
0.0002486926249
0.0002376056203
0.0002459684501
0.0003020550362
0.0002746458827
0.0003312198203
0.0004551275389
0.0005537204428
0.0005640643033
0.0005576834659
0.0005351645619
0.0004868019235
0.0004404467589
0.0003806186923
0.0003123176622
0.0002585977447
0.0002695199092
0.000266427592
0.0002461702136
0.0002252669479
0.0002081017531
0.0001949029712
0.0002000759078
0.0002242978001
0.00025018305
0.0002710158204
0.0002829069108
0.0002860943567
0.0002797303163
0.0002660916998
0.0002296820215
0.0002677807988
0.0002608416098
0.0002513205488
0.0002416071879
0.0002474591046
0.0002912693611
0.000354836944
0.0003217035153
0.0003661056811
0.0004864313958
0.0005769914315
0.00057081005
0.0005345109472
0.000494124345
0.000431938841
0.0003794759918
0.0003184808845
0.0002514857257
0.0002220507332
0.0002339824696
0.0002407588587
0.0002367729865
0.0002265032787
0.0002141568757
0.0002056113808
0.0002241899176
0.0002555681329
0.0002810141798
0.0002990716671
0.0003088571285
0.0003089586579
0.0002972435256
0.0002783167314
0.0002367418074
0.0002612371732
0.0002544323366
0.0002445480655
0.0002527485287
0.0003000872009
0.0003625119775
0.000407923809
0.0003863837956
0.0003423375947
0.0003813114093
0.0005076623724
0.0005079321699
0.0004576174491
0.000420561211
0.0004785717119
0.0003435973666
0.0002518680949
0.0002102498896
0.0002280680171
0.0002500061451
0.0002566327973
0.0002504725469
0.0002365778915
0.0002231230708
0.0002208871102
0.0002502674493
0.0002812500525
0.0003052552316
0.0003229661964
0.0003327763877
0.0003318172104
0.0003151535806
0.0002894804312
0.0002407052192
0.0002512729815
0.0002460750032
0.0002484032951
0.000289594317
0.0003532926028
0.0004102396208
0.0004407703532
0.0004272605701
0.0003817548473
0.0003479097275
0.0004042646377
0.0004027581918
0.0003662790184
0.0004118032873
0.0007063274026
0.0004772428351
0.0003022159545
0.0002263205566
0.0002458922776
0.0002671900307
0.0002690291623
0.0002590454316
0.0002421184174
0.0002301550819
0.0002399603963
0.0002753635153
0.0003024963481
0.0003241602154
0.0003412652067
0.0003546145123
0.0003566923431
0.0003365923483
0.0003027635162
0.0002437306729
0.0002377891345
0.0002355610094
0.0002388780705
0.0002780908828
0.0003399047607
0.0003957875876
0.0004270369962
0.0004117378176
0.0003674559242
0.0003207255808
0.0003282238964
0.0003096868024
0.0002992175188
0.0003721590131
0.000654946734
0.0004144918432
0.0002475342091
0.0002253133425
0.0002542936223
0.0002721481119
0.0002707224339
0.0002600915529
0.0002437550032
0.0002384010835
0.0002643913997
0.0003001532954
0.0003219678645
0.0003381906062
0.0003550903188
0.0003770835025
0.000386628773
0.0003653209379
0.0003223750165
0.0002499032271
0.0002204068851
0.0002212892443
0.0002224049961
0.0002468740972
0.0002957047273
0.0003463264893
0.0003838777467
0.0003641978716
0.0003219840867
0.0002769204887
0.0002600166545
0.000231565247
0.00022383339
0.000226395884
0.0004244331246
0.0002300561247
0.0001971036223
0.0002151630407
0.0002436259389
0.000261405556
0.0002589904396
0.0002441990762
0.0002357182939
0.0002556943095
0.0002946236192
0.0003244590396
0.0003387191785
0.0003488703339
0.0003663835809
0.000401287226
0.0004197135872
0.000399524262
0.0003490876906
0.0002634371186
0.0002005830084
0.0002031013793
0.0002044135182
0.0002143722042
0.0002456911004
0.0002842115778
0.0003290723244
0.0003056830834
0.0002659629899
0.0002251724963
0.0002004160363
0.0001744612614
0.0001759138963
0.0001828600216
0.0002351611062
0.0001743847604
0.0001790167365
0.0001878257504
0.0002082637111
0.0002345509695
0.0002363033932
0.000226066044
0.0002438152008
0.0002854388689
0.0003208517905
0.0003430759232
0.000351432757
0.0003565548803
0.0003736069494
0.0004212091278
0.0004454875938
0.0004276685426
0.000374731769
0.0002824609353
0.0002006902357
0.0001800903423
0.0001818383493
0.0001865715442
0.0002013827442
0.0002231837078
0.0002676148715
0.0002450906974
0.0002100271388
0.0001756893141
0.0001569586065
0.0001474744783
0.0001617434973
0.0001869460571
0.0001878336237
0.000186891485
0.0001889272617
0.0001785948293
0.0001752170189
0.0001981519011
0.0002036414718
0.000219384599
0.0002648158945
0.0003066581273
0.0003363693699
0.0003533664799
0.0003583607383
0.0003587436149
0.0003689247923
0.0004216830969
0.0004473287061
0.0004313924273
0.0003805544291
0.0002931139754
0.0001666602005
0.0001702970128
0.0001792853936
0.0001774582912
0.0001736567568
0.000171410159
0.0001728350486
0.0002009742707
0.0001892437604
0.0001642953237
0.0001370763199
0.0001269054009
0.0001348043658
0.0001547483641
0.0001799251005
0.0001925081321
0.0002041087354
0.0002080161218
0.0001870892757
0.0001704657907
0.0001793496688
0.0001845814666
0.0002263665796
0.0002714958839
0.0003105825694
0.0003395300159
0.0003540246362
0.0003578649501
0.0003538399572
0.0003446504648
0.0003416942417
0.0003460834735
0.0003244744332
0.0002619632835
0.0001759342933
0.000198659083
0.000204210022
0.0002137486914
0.0002088278213
0.0002016674091
0.0001905793268
0.0001761750656
0.0001666104642
0.0001574680096
0.0001457722511
0.0001343359561
0.0001275740943
0.0001302500938
0.0001459784337
0.0001664474587
0.0001856400547
0.0002029944369
0.0002112316027
0.0001874522153
0.0001720028951
0.0001754085451
0.0001770730719
0.0002107347257
0.0002544493342
0.0002962746866
0.0003296911932
0.0003438087422
0.0003446113865
0.0003333661961
0.0003127465252
0.0002917407419
0.000283986777
0.0002587527018
0.0001998449314
0.0001586022329
0.0002391233182
0.0002430219533
0.0002543610403
0.0002429114542
0.0002321330987
0.0002212065658
0.0002082958811
0.0001946760616
0.0001819578348
0.0001703116923
0.0001593582868
0.0001475097781
0.0001360449776
0.0001410989685
0.0001601443521
0.0001794792138
0.0001848299087
0.0001999052898
0.0001737736405
0.0001713323311
0.0001850141657
0.0001767190394
0.0001676171219
0.0002123738259
0.0002721972543
0.0002979644518
0.000315332389
0.0003161257311
0.000302677978
0.0002806417415
0.000253556323
0.0002289287793
0.0001941158038
0.000177089239
0.0001623398786
0.0002828712455
0.0002777687375
0.0002898789985
0.0002725412
0.0002575134366
0.0002452230819
0.0002317941189
0.0002176637081
0.0002037505079
0.000189859395
0.0001759167214
0.0001615519887
0.000146556754
0.0001384597527
0.0001525803492
0.0001789800233
0.0001776618022
0.0001982604299
0.0001688006782
0.0001666071221
0.0001763264428
0.0001661296919
0.00017510169
0.0002684989778
0.0003614158985
0.0002792680157
0.0002814557766
0.0002807091738
0.0002669195361
0.0002434680102
0.0002092530286
0.0001836654224
0.0001824822436
0.0001859927237
0.0001703649478
0.0002958693473
0.0002870910011
0.0002790240828
0.0002695411034
0.000258728552
0.0002455575232
0.0002299991109
0.0002145784904
0.0001990503137
0.0001836847148
0.0001686617987
0.0001538308414
0.0001411946738
0.0001418266724
0.0001571618266
0.0001804941378
0.0001605940525
0.0001576974184
0.0001591100176
0.0001593208824
0.000173454417
0.0003002778636
0.000526153202
0.0006395817003
0.0004133739849
0.0002847025399
0.0002489986771
0.0002291411569
0.0002011428371
0.0001789368242
0.0001851907035
0.0001955075191
0.000197524198
0.0001769856192
0.00029945075
0.0002922953501
0.0002856423685
0.00027658446
0.0002650601084
0.0002508726686
0.0002343389345
0.000218190973
0.0002022170116
0.0001867573699
0.0001721555535
0.0001586517516
0.0002979048328
0.0002153376671
0.0002150582692
0.0002046716532
0.000185169812
0.000175252282
0.0001865278314
0.0002015782244
0.0002104360804
0.0002088698687
0.0001837909816
0.0002946607752
0.0002824265188
0.000267992196
0.0002513167564
0.0002335537476
0.0002168734997
0.0002077353281
0.0002037251404
0.0001990841815
0.000194499722
0.0001900074921
0.0001864992012
0.0001835302415
0.0001812697515
0.0001798019273
0.0001789548686
0.0001782369267
0.0001771245929
0.0001755721708
0.0001742031965
0.0001739706029
0.0001755028549
0.000178669624
0.0001827190443
0.0001867516398
0.0001900763026
0.0001923020498
0.000193265124
0.0001929037276
0.0001911604787
0.0001879573946
0.0001832366587
0.0001770206717
0.0001694491003
0.0001607644251
0.0001512326774
0.0001409669442
0.0001296999588
0.0001161099363
9.00906843e-05
0.0007432517549
0.0007189156518
0.0006903908737
0.0006585737973
0.0006321525945
0.0006046607083
0.000592440761
0.0005881254686
0.0005902294284
0.0005952423133
0.0005975976298
0.0005926604749
0.0005802631247
0.0005656449522
0.0005565828239
0.0005587367231
0.0005724641451
0.0005932511336
0.0006146002167
0.0006308279919
0.0006385234013
0.0006363849986
0.0006239995968
0.0006009442795
0.0005667680596
0.0005218700361
0.0004684801482
0.0004112531626
0.000356341299
0.0003088704604
0.0002701615916
0.0002371233603
0.0001987765419
9.373843544e-05
0.0009351770096
0.0008948568013
0.000852365693
0.000805076803
0.0007741455643
0.0007412670907
0.0007293200895
0.00072982794
0.0007458408718
0.0007710785881
0.0007930361037
0.0008004472026
0.0007901149685
0.0007687639232
0.0007489572445
0.0007423640575
0.0007532705337
0.0007774302285
0.0008059449673
0.000830189032
0.0008449555314
0.0008482837162
0.0008389594457
0.0008153287511
0.0007750325615
0.0007161783248
0.0006393869575
0.0005504141927
0.0004602781257
0.000380904188
0.0003182898845
0.0002691885809
0.0002185884439
9.327711113e-05
0.001027036981
0.0009692957902
0.0009136880643
0.000860792048
0.0008462605432
0.0008371148701
0.0008280707058
0.0008225706339
0.0008413775429
0.000882640823
0.0009260945454
0.0009509236234
0.000948330503
0.0009238438884
0.0008921007918
0.0008704104294
0.0008690511723
0.0008870825908
0.0009157357651
0.000944899894
0.0009679100627
0.0009812843584
0.0009816216396
0.0009657516026
0.000930458826
0.0008718738071
0.0007867014452
0.0006771179983
0.0005562805724
0.0004441660368
0.0003547649618
0.0002882798604
0.0002273443671
9.358476232e-05
0.001076242026
0.001003640083
0.0009405070713
0.0009064523586
0.000931818562
0.0009461029992
0.0009506307702
0.0009361528276
0.0009350169745
0.0009678108975
0.001016781681
0.001052219482
0.001057306696
0.00103322958
0.0009938456189
0.0009589521649
0.0009437234026
0.0009518694365
0.0009770343262
0.001009216365
0.001040263068
0.001062980298
0.001070237114
0.001057238116
0.001027522356
0.0009783816203
0.0009016483957
0.0007886922002
0.0006489380905
0.0005083831117
0.000391835251
0.0003064333259
0.0002357332248
9.788170798e-05
0.001112777376
0.00102961369
0.0009772491536
0.0009893851133
0.001032129583
0.001051571722
0.001059814289
0.001051172594
0.001042874567
0.001047097708
0.001076126571
0.001106038498
0.001112570285
0.001090408738
0.001050799242
0.00101082477
0.000986903822
0.0009860283632
0.001005891504
0.001038765585
0.001075685486
0.001102700017
0.001109704438
0.001102766265
0.001077817755
0.001030836243
0.0009631982564
0.0008674071115
0.0007253525375
0.0005668714669
0.0004272404545
0.000323549538
0.0002433990284
0.0001027199771
0.001155000953
0.001072598484
0.00105269561
0.001092076913
0.001132120426
0.001159688527
0.001165755084
0.001147272362
0.001125572618
0.001121496233
0.00111737336
0.001124672416
0.001123201285
0.00110104668
0.001069504292
0.001036283599
0.00101221061
0.001004815872
0.001016776062
0.001045674623
0.001085090012
0.001118458598
0.001132947559
0.001131356632
0.001110842848
0.001067403289
0.0009985915496
0.0009093779843
0.000776720699
0.000610560204
0.000454348976
0.0003353142872
0.0002468047837
0.0001055926432
0.001216550371
0.00114844027
0.001154304975
0.001171860151
0.001211667726
0.001239126509
0.001241529822
0.00121586978
0.001179660512
0.001162792886
0.001140346261
0.00111698797
0.001102115285
0.001080007263
0.00106602811
0.001051653072
0.001036859084
0.001025326958
0.0010246139
0.00104086395
0.00107519723
0.001116761627
0.001139953025
0.001143092555
0.001125469008
0.001084102082
0.001016843157
0.0009266815511
0.0008017202869
0.0006327274537
0.0004658619751
0.000335646694
0.0002414578508
0.0001053540829
0.001291099569
0.001247543434
0.001226528179
0.001228666094
0.00125758242
0.001277687786
0.001277121183
0.001250499644
0.00120829842
0.001180375007
0.001136716198
0.001087566064
0.001066959117
0.001054903825
0.001065788991
0.001074674989
0.001073650177
0.001059521655
0.001041508281
0.001034657569
0.00105228429
0.001093018411
0.001131401336
0.001140781656
0.001124603994
0.001082880276
0.001014959112
0.0009235810656
0.0007998579916
0.0006288314036
0.000456018357
0.0003202035345
0.0002251064966
0.0001018594059
0.001352277838
0.001327380538
0.001288591761
0.001269223368
0.001275724051
0.001282396607
0.001279292413
0.001256366356
0.001217216216
0.001182092055
0.001104725146
0.00105041588
0.001055623828
0.001085550921
0.001115776375
0.001127475586
0.001126753333
0.001106478734
0.001070033998
0.001034505023
0.00102580218
0.001054889675
0.001106697204
0.001126372474
0.001110375385
0.001065089116
0.0009930689899
0.0008989849015
0.0007679560835
0.0005944802551
0.0004216139113
0.0002888830572
0.0002008704888
9.806065724e-05
0.001386561307
0.001384007233
0.001353189391
0.00131295054
0.001287137313
0.001272334556
0.001265685541
0.001249241142
0.001216191567
0.001155759617
0.001062302978
0.001041142886
0.001146843368
0.001236051362
0.001271901056
0.001247605551
0.001201947172
0.001154980474
0.001100467286
0.001042552734
0.00100775149
0.001018735948
0.001070561675
0.001101253289
0.001082907817
0.001029837012
0.0009493961054
0.0008479377655
0.0007020055043
0.0005284033675
0.0003655535242
0.0002483591976
0.0001773891513
0.0001003454234
0.001405179391
0.001419544284
0.001413625898
0.001371610123
0.00131595502
0.001271538965
0.001258498615
0.001246239129
0.001197986791
0.001084842961
0.001032761843
0.001136094712
0.001396301198
0.001504262035
0.001500765424
0.001403792093
0.001297331574
0.001195205432
0.001121784168
0.001063188016
0.001016064576
0.001005090832
0.001041990407
0.001068347376
0.001039759113
0.0009729056706
0.000879930939
0.000756248824
0.0006020507295
0.0004400130611
0.0003024416027
0.0002134322627
0.0001653906926
0.0001116616812
0.00141292931
0.001429435478
0.001437932399
0.001416364607
0.001366553422
0.00130008295
0.001274314146
0.00124017372
0.001116759844
0.001033556195
0.001073335635
0.001435059597
0.001715133046
0.001818933297
0.001775522149
0.001581361458
0.001379122897
0.001221475163
0.001136708207
0.001114518005
0.001078540464
0.001038153355
0.001031102262
0.001025006542
0.0009730424265
0.0008853684947
0.0007658005157
0.0006257264084
0.0004830399227
0.0003539653119
0.0002574536039
0.00020275162
0.0001728689498
0.0001290856705
0.001414409127
0.001427149384
0.001438160678
0.001433857821
0.001414893901
0.001351217486
0.001282768028
0.001178539888
0.001064615147
0.001021435153
0.001275389753
0.001731715688
0.001963015429
0.002016443391
0.001944058443
0.001707590308
0.001426703095
0.001218783748
0.001155078302
0.001202673965
0.001183044185
0.001114903979
0.001032215293
0.0009544516611
0.0008617971052
0.0007398512844
0.0006029839
0.0004791767174
0.0003773486811
0.0003018906892
0.0002543114298
0.0002277055696
0.0001984127087
0.0001487419637
0.001410483584
0.001418540924
0.001425161655
0.00142537006
0.001420291938
0.001366216469
0.001226349007
0.001110491281
0.001003267805
0.001094100215
0.001567733937
0.001924989737
0.002072626804
0.002081117132
0.001965653301
0.001700383347
0.001389212701
0.001145966603
0.001164415788
0.001258969697
0.001239175749
0.001139379356
0.000998930834
0.0008389790112
0.0006940700076
0.0005552961306
0.0004387127037
0.0003626989663
0.0003225807526
0.0003089502432
0.0003055840084
0.0002900328576
0.000238602334
0.000167210375
0.001399809195
0.001404365183
0.001406003055
0.001403315966
0.001393050105
0.001335225511
0.001162481377
0.001043918454
0.0009822277862
0.001316583411
0.001757790795
0.002018600333
0.002081176427
0.00202440481
0.001846129002
0.001542535418
0.001218367948
0.0009935378765
0.00111263207
0.001235150538
0.001207287899
0.001087166887
0.0009058867679
0.0006988305524
0.0005323744994
0.000407320514
0.0003381926821
0.0003263214793
0.0003528184125
0.0003942529504
0.0004178355769
0.0003913861113
0.0002945561041
0.0001823553663
0.001380501896
0.001385122157
0.001388090915
0.001387371565
0.001372554429
0.001307476362
0.00119486378
0.001054320685
0.001089708632
0.001568270296
0.00187173728
0.002030595729
0.002006657836
0.001861284834
0.001592060689
0.001248139938
0.0009134591544
0.0008157882724
0.0009717727361
0.001120651594
0.001099264951
0.0009789590544
0.0007833370538
0.0005830888119
0.0004259811124
0.0003372760589
0.0003346751262
0.0003975153439
0.0004879442935
0.0005523015159
0.0005690357578
0.0005166292713
0.000365018434
0.0001936027431
0.001347117615
0.001353655711
0.001361497226
0.001360253899
0.001311216192
0.001302409032
0.001239947897
0.001211983989
0.001260715585
0.001645180455
0.001867669254
0.001946559426
0.001836524546
0.001621234443
0.001175050734
0.000822521213
0.0006202736965
0.0006455132014
0.0008068201456
0.0009385617783
0.0009522952099
0.0008568005096
0.0006965755009
0.0005110360254
0.0003751061111
0.0003442365076
0.0004249542805
0.0005700455533
0.0006849771255
0.0007482152179
0.0007386502409
0.000641367754
0.0004384983583
0.0002011123732
0.001288666229
0.001298501219
0.001308006101
0.001290642507
0.001286997293
0.001302338867
0.00130806102
0.001325797575
0.001395622488
0.00161098973
0.001725612666
0.001719370162
0.00151495382
0.001253047638
0.001189526975
0.0006800068085
0.0005099461371
0.0006146429455
0.0007641837261
0.0008786546539
0.0008752142888
0.00080310358
0.0006694240308
0.0004845592851
0.0003823831019
0.0004275254996
0.0005973109393
0.0007792417154
0.0008973685956
0.0009451828405
0.0009075129553
0.0007645397402
0.0005050101141
0.0002051868733
0.001198537642
0.001209392619
0.001198307369
0.001184189549
0.00120668468
0.001282995024
0.001322909496
0.001305896451
0.001266430417
0.001302336669
0.001266736461
0.00115375801
0.001057028243
0.001252643798
0.001854156455
0.00106071258
0.0005142739963
0.0006505256788
0.0007929779655
0.0008722121914
0.000863403906
0.0008045289752
0.0006738238538
0.0004945727536
0.0004554647229
0.000591043357
0.0008084143951
0.0009769202063
0.001084407023
0.001121483176
0.001067294797
0.000889557667
0.000568729443
0.0002068701996
0.001067051073
0.001079964887
0.001042395356
0.001041424575
0.001107010921
0.001211253814
0.001237151411
0.001194158505
0.001071873739
0.0009300129545
0.0007481465872
0.000637000664
0.0006183283206
0.001311869021
0.00168365712
0.001231322668
0.0005788127598
0.0006127761791
0.0007762846148
0.0008496172786
0.0008440264923
0.0007894244406
0.0007094669184
0.0005759751902
0.0006157846711
0.0008061665163
0.00099248838
0.001137496577
0.001238157319
0.001273606932
0.001216969195
0.001020901846
0.0006446484084
0.0002085675552
0.0008731486744
0.0008830465158
0.0008476753739
0.0008282063389
0.0009035010695
0.0009970844914
0.001024014225
0.0009691983141
0.0008214747885
0.0006225201185
0.0005179906642
0.0004218317038
0.0003865921727
0.0004574258132
0.0007144362822
0.0004304345706
0.0004548422338
0.0005974717107
0.0007137754959
0.0007759025881
0.0007539346659
0.0006757781526
0.0005952420824
0.000647505509
0.0008230681724
0.0009894923475
0.001131870385
0.001254956798
0.00135042413
0.001385040034
0.001333001663
0.001136731091
0.0007259369547
0.0002127340738
0.0006525653005
0.000635193837
0.0006221790865
0.000610072566
0.0006321828122
0.0007093705281
0.0007418859549
0.0006821756917
0.0005296864174
0.0004228620972
0.0003606733657
0.0003645904669
0.0004490868263
0.000598389049
0.0004866026845
0.0005160724472
0.000503396085
0.0005407659703
0.0006118211687
0.0006800638666
0.0006474289436
0.0005557005845
0.0006033456337
0.0008114819199
0.0009781150363
0.001105121544
0.001212950384
0.001314888541
0.001395908582
0.001416077556
0.001358143258
0.001159845393
0.0007346839771
0.0002154129355
0.0007104987029
0.0004721012542
0.0004192901798
0.0004162481746
0.0004200702229
0.0004401030505
0.0004465168755
0.0004101796245
0.00033674588
0.0002935584937
0.0002885157335
0.0003423638574
0.000514818626
0.000697698385
0.0007361140691
0.0007439184339
0.000701442895
0.0006110408039
0.0005579919882
0.0006003462219
0.0005381566198
0.0004633979666
0.0006650702149
0.00089542026
0.00104548991
0.001147625275
0.00122908067
0.001300864206
0.001346817761
0.001328540025
0.001233442303
0.0009974897485
0.0005699709587
0.0001973980369
0.0003695539846
0.0004313612138
0.0004249636506
0.0004007979368
0.0003562276705
0.0003249336661
0.0003172744312
0.0003044970045
0.0002733154485
0.0002207154432
0.0001971541483
0.0002084869465
0.0002721730479
0.0004456488076
0.0006729199714
0.0007865456193
0.000836941495
0.0008191311005
0.0007356657058
0.0006089909423
0.0005997648221
0.000511192711
0.0004636908538
0.0006976106958
0.0009027588223
0.001038483387
0.001126783618
0.001182083813
0.00120701244
0.001187441647
0.001098523158
0.0009247162622
0.0006301582971
0.0003122303225
0.0001481149062