/*--------------------------------*- C++ -*----------------------------------*\
  =========                 |
  \\      /  F ield         | OpenFOAM: The Open Source CFD Toolbox
   \\    /   O peration     | Website:  https://openfoam.org
    \\  /    A nd           | Version:  8
     \\/     M anipulation  |
\*---------------------------------------------------------------------------*/
FoamFile
{
    version     2.0;
    format      ascii;
    class       volScalarField;
    location    "1.4";
    object      O2;
}
// * * * * * * * * * * * * * * * * * * * * * * * * * * * * * * * * * * * * * //

dimensions      [0 0 0 0 0 0 0];

internalField   nonuniform List<scalar> 
67193
(
0.2099983135
0.2099982767
0.2099982404
0.2099982317
0.209998236
0.2099982625
0.2099982847
0.209998297
0.2099982957
0.20999828
0.2099982537
0.2099982238
0.2099981975
0.2099981799
0.2099981716
0.2099981672
0.2099981598
0.2099981471
0.2099981328
0.2099981231
0.2099981227
0.2099981338
0.2099981566
0.2099981908
0.2099982368
0.2099982968
0.2099983757
0.2099984817
0.2099986253
0.2099988154
0.2099990579
0.2099993776
0.2099998935
0.2100009533
0.2099984605
0.2099984306
0.2099983768
0.2099983489
0.2099983284
0.2099983178
0.2099983356
0.2099983454
0.2099983417
0.2099983201
0.2099982826
0.2099982398
0.2099982062
0.209998196
0.2099982145
0.2099982498
0.2099982808
0.2099982942
0.2099982917
0.2099982833
0.2099982778
0.2099982799
0.2099982907
0.2099983093
0.2099983353
0.20999837
0.2099984173
0.2099984864
0.2099985938
0.2099987623
0.209999015
0.2099993892
0.2100000197
0.2100012189
0.2099984874
0.2099984819
0.209998436
0.209998417
0.2099983838
0.2099983131
0.2099983522
0.2099983736
0.2099983706
0.209998343
0.2099982943
0.2099982386
0.2099981941
0.2099981807
0.2099982103
0.2099982729
0.2099983373
0.2099983764
0.2099983865
0.2099983795
0.2099983699
0.2099983669
0.2099983731
0.2099983872
0.2099984077
0.2099984345
0.2099984692
0.2099985185
0.2099985982
0.2099987376
0.2099989782
0.209999379
0.2100000859
0.2100014021
0.2099984829
0.2099984916
0.2099984738
0.2099984606
0.2099983978
0.2099982519
0.2099983243
0.2099983789
0.2099984003
0.2099983868
0.2099983405
0.2099982782
0.2099982225
0.2099981957
0.2099982153
0.2099982806
0.2099983614
0.2099984201
0.2099984424
0.2099984379
0.2099984258
0.2099984215
0.2099984294
0.2099984468
0.2099984701
0.2099984973
0.2099985281
0.2099985662
0.2099986241
0.2099987305
0.2099989358
0.2099993184
0.2100000248
0.2100013289
0.2099984939
0.2099985103
0.2099985133
0.2099984698
0.2099983706
0.2099982007
0.2099982843
0.2099983619
0.2099984155
0.2099984362
0.2099984117
0.2099983544
0.2099982921
0.2099982515
0.2099982514
0.2099983009
0.2099983791
0.2099984462
0.2099984773
0.2099984756
0.2099984634
0.2099984625
0.2099984785
0.2099985055
0.2099985369
0.2099985689
0.2099986004
0.2099986334
0.2099986774
0.2099987562
0.2099989192
0.2099992537
0.209999905
0.2100010879
0.2099985279
0.2099985449
0.2099985242
0.2099984323
0.2099983346
0.2099982152
0.2099982774
0.209998347
0.2099984102
0.2099984627
0.2099984756
0.2099984411
0.2099983837
0.2099983387
0.2099983201
0.2099983463
0.2099984084
0.209998472
0.2099985068
0.209998508
0.2099984981
0.2099985041
0.2099985315
0.2099985694
0.2099986104
0.2099986503
0.2099986864
0.2099987179
0.2099987551
0.2099988173
0.2099989485
0.2099992361
0.2099998267
0.2100009079
0.209998572
0.2099985706
0.2099984973
0.2099983881
0.2099983254
0.2099982709
0.2099982973
0.2099983491
0.2099984046
0.209998464
0.209998511
0.2099985144
0.2099984785
0.2099984487
0.2099984176
0.2099984175
0.2099984544
0.2099985047
0.2099985388
0.2099985443
0.209998539
0.209998552
0.2099985882
0.209998636
0.2099986866
0.2099987351
0.2099987787
0.2099988147
0.209998851
0.209998908
0.209999026
0.2099992922
0.2099998577
0.2100008854
0.2099986146
0.2099985819
0.2099984743
0.2099983863
0.2099983547
0.2099983495
0.209998339
0.209998365
0.209998408
0.2099984632
0.2099985254
0.2099985692
0.2099985702
0.2099985882
0.2099985535
0.2099985193
0.2099985199
0.2099985458
0.2099985735
0.2099985853
0.2099985877
0.2099986052
0.2099986478
0.2099987046
0.209998765
0.209998823
0.2099988749
0.2099989186
0.2099989596
0.2099990221
0.2099991469
0.2099994288
0.210000034
0.2100010873
0.2099986583
0.2099986093
0.2099985075
0.209998441
0.2099984303
0.2099984546
0.209998412
0.209998408
0.2099984335
0.2099984813
0.2099985474
0.2099986259
0.209998675
0.209998781
0.20999877
0.2099986849
0.2099986252
0.2099986062
0.209998614
0.2099986292
0.2099986419
0.2099986635
0.2099987095
0.2099987756
0.2099988473
0.2099989157
0.2099989766
0.2099990287
0.2099990795
0.2099991587
0.209999314
0.209999659
0.2100003874
0.2100015691
0.2099987195
0.2099986878
0.2099986202
0.2099985696
0.2099985715
0.2099985998
0.209998534
0.2099985039
0.2099985094
0.2099985465
0.2099986151
0.2099987205
0.2099988247
0.2099989928
0.209999092
0.209998966
0.2099988148
0.2099987163
0.2099986778
0.2099986827
0.2099987038
0.2099987308
0.2099987787
0.2099988551
0.2099989397
0.2099990188
0.2099990877
0.2099991476
0.2099992147
0.2099993276
0.2099995496
0.2100000205
0.2100009484
0.2100022692
0.2099988098
0.2099988254
0.2099988179
0.2099987842
0.2099987915
0.2099987855
0.2099987113
0.2099986685
0.2099986586
0.2099986877
0.2099987617
0.2099988656
0.2099990026
0.2099990011
0.2099993456
0.2099993221
0.2099991112
0.2099989074
0.2099987912
0.2099987652
0.20999879
0.209998823
0.209998874
0.2099989586
0.209999054
0.2099991407
0.2099992137
0.2099992796
0.2099993745
0.2099995523
0.2099998971
0.2100005592
0.210001674
0.2100029065
0.2099989168
0.2099989811
0.2099990502
0.209999025
0.209999027
0.2099989247
0.2099988605
0.209998832
0.2099988349
0.2099988813
0.2099989522
0.2099989635
0.2099990464
0.2099986441
0.209999209
0.2099995108
0.2099994236
0.209999168
0.209998965
0.209998891
0.2099989235
0.2099989681
0.2099990216
0.209999107
0.2099992038
0.2099992897
0.2099993615
0.2099994394
0.2099995808
0.2099998725
0.21000039
0.2100012194
0.2100023152
0.2100032403
0.2099990159
0.2099990929
0.2099991899
0.2099991795
0.2099992392
0.2099989583
0.2099989371
0.2099989523
0.2099989921
0.2099990268
0.2099990201
0.2099988817
0.2099988633
0.2099981366
0.2099986988
0.2099993141
0.209999542
0.2099993998
0.2099991657
0.2099990399
0.2099991013
0.2099991822
0.2099992436
0.2099993182
0.2099994021
0.2099994796
0.2099995532
0.2099996569
0.2099998801
0.210000321
0.2100009553
0.2100017427
0.2100025745
0.2100032898
0.2099991196
0.20999921
0.2099993227
0.2099993485
0.2099994723
0.2099992
0.2099992211
0.209999199
0.2099991627
0.2099991191
0.2099989089
0.2099987544
0.2099986081
0.2099979464
0.2099983166
0.2099989629
0.2099994011
0.2099994584
0.2099993042
0.2099991498
0.2099992731
0.209999435
0.2099995374
0.2099996106
0.2099996785
0.2099997563
0.2099998566
0.210000007
0.2100003286
0.2100008422
0.2100013957
0.2100019374
0.2100024833
0.210003127
0.2099992235
0.2099993102
0.2099994106
0.2099994455
0.2099995275
0.2099994033
0.2099994139
0.2099993731
0.2099992645
0.209999091
0.2099987481
0.2099987831
0.2099985222
0.2099982863
0.2099985747
0.209999017
0.2099993485
0.2099994178
0.209999344
0.2099992033
0.2099994085
0.2099996821
0.209999875
0.2099999952
0.2100000891
0.2100002141
0.2100003723
0.2100005621
0.2100008863
0.2100012767
0.2100016185
0.21000192
0.2100022612
0.2100028292
0.2099993456
0.2099994217
0.2099995067
0.2099995548
0.2099996106
0.2099995726
0.2099995006
0.2099995475
0.209999325
0.2099989951
0.2099985472
0.2099989051
0.2099986493
0.2099983976
0.2099986085
0.2099989433
0.2099992182
0.2099993195
0.2099993902
0.2099993893
0.2099996533
0.2099999994
0.2100002813
0.2100004744
0.2100006413
0.2100008552
0.2100010482
0.2100011864
0.2100013497
0.2100015267
0.2100016954
0.2100018466
0.2100020437
0.2100024966
0.2099995272
0.2099995871
0.2099996497
0.2099996944
0.2099997076
0.2099997054
0.2099994253
0.209999622
0.2099993019
0.2099987984
0.2099982679
0.2099987939
0.2099989166
0.2099987546
0.2099989151
0.2099990662
0.2099991698
0.2099992912
0.2099995686
0.2099998531
0.2100002186
0.2100005715
0.2100008602
0.2100010417
0.2100012407
0.2100014732
0.2100015815
0.2100015942
0.2100015848
0.2100016227
0.2100017065
0.2100017811
0.2100018781
0.2100022062
0.2099997462
0.2099997645
0.209999789
0.2099998196
0.209999816
0.2099997506
0.2099994335
0.2099995597
0.2099992468
0.2099988476
0.2099985702
0.2099985068
0.2099988021
0.2099989413
0.2099994312
0.2099995849
0.2099994196
0.2099996169
0.2100001917
0.2100005907
0.2100008897
0.2100011646
0.2100014596
0.2100015487
0.2100017165
0.2100018462
0.210001811
0.2100017438
0.2100016523
0.2100016227
0.2100016696
0.2100017324
0.2100017803
0.2100020045
0.2099999812
0.2099999582
0.2099999369
0.2099999197
0.2099998538
0.2099998024
0.2099996243
0.2099995665
0.2099995843
0.2099995514
0.2099991866
0.2099990937
0.2099993461
0.2099993763
0.2099989278
0.2100005813
0.2099999731
0.2100003635
0.2100008159
0.210001056
0.2100012878
0.2100015562
0.2100020685
0.2100019632
0.2100020293
0.2100019752
0.2100018338
0.2100017472
0.210001623
0.2100015749
0.2100016142
0.2100017037
0.2100017611
0.2100019263
0.2100002249
0.2100001413
0.2100000277
0.2099999134
0.2099999034
0.209999988
0.2099999738
0.2099997588
0.2099996512
0.209999646
0.2099995178
0.2099995934
0.2099997153
0.2100000635
0.2099929817
0.2099993624
0.2100009373
0.2100012001
0.2100012809
0.2100013789
0.2100015859
0.2100018299
0.2100028812
0.2100022896
0.2100021837
0.2100019414
0.210001745
0.2100016547
0.2100015448
0.2100015115
0.2100015373
0.2100016749
0.2100017991
0.210001982
0.2100004097
0.2100003239
0.2100001861
0.2100000596
0.210000059
0.2100003005
0.210000113
0.2099999146
0.2099998088
0.2099997573
0.2099996445
0.2099995608
0.2099993994
0.209999559
0.2099976949
0.2100002084
0.2100006999
0.2100012276
0.2100014167
0.210001538
0.2100017752
0.2100019083
0.2100028885
0.2100022656
0.2100020955
0.2100017645
0.2100015533
0.2100014905
0.2100014355
0.2100014159
0.2100013724
0.2100015428
0.2100017813
0.2100021001
0.2100007659
0.21000048
0.2100003692
0.2100001652
0.2100000995
0.21000014
0.2100000577
0.2099999576
0.2099999631
0.2099998575
0.2100003895
0.2099995554
0.2099996067
0.2099999282
0.2099995531
0.210001211
0.2100014945
0.2100017232
0.2100017361
0.2100016956
0.2100017153
0.2100017701
0.2100019563
0.2100017771
0.2100016528
0.2100014039
0.2100012535
0.2100012698
0.2100012844
0.2100012392
0.2100010599
0.210001203
0.2100015533
0.2100021088
0.210000845
0.2100005798
0.2100004284
0.2100002462
0.2100001485
0.2100001442
0.2100000033
0.2099999805
0.2099999552
0.20999978
0.2099997443
0.2099997021
0.2100000461
0.2100007808
0.2100010088
0.2100016677
0.2100018025
0.2100019229
0.210001987
0.2100019573
0.2100019276
0.2100019141
0.2100019153
0.2100015743
0.2100013537
0.2100010622
0.2100009557
0.2100010309
0.2100010882
0.2100009747
0.2100006601
0.2100006907
0.2100010661
0.2100018367
0.2100022322
0.2100014367
0.2100009506
0.2100005416
0.2100003362
0.2100002204
0.2100000566
0.2100000138
0.2099999233
0.2099998535
0.2100002027
0.210000771
0.2100011919
0.2100015239
0.2100017947
0.2100019481
0.2100019659
0.2100019757
0.2100019706
0.210001984
0.2100018839
0.2100016882
0.2100013945
0.2100012469
0.2100010012
0.2100007572
0.2100006929
0.2100007916
0.21000081
0.2100007348
0.2100004927
0.2100003241
0.210000443
0.2100011002
0.2100034754
0.2100035394
0.2100036685
0.2100034726
0.2100029905
0.2100021166
0.2100013604
0.2100005718
0.2100002323
0.2100002373
0.2100008909
0.2100017208
0.2100019299
0.2100019469
0.2100021148
0.210001956
0.2100020018
0.2100018801
0.2100018312
0.2100017331
0.2100017488
0.2100016287
0.2100013329
0.210001119
0.2100010946
0.2100008149
0.2100006437
0.21000061
0.2100007195
0.2100008717
0.2100009957
0.2100009752
0.2100010759
0.2100016042
0.210001746
0.2100044506
0.2100047588
0.2100045486
0.2100045205
0.2100043866
0.2100041841
0.2100034667
0.2100024308
0.210001717
0.2100016746
0.2100026289
0.2100029087
0.2100022418
0.2100018458
0.2100018229
0.2100017828
0.2100018279
0.2100016579
0.2100015762
0.2100013939
0.2100013244
0.2100011388
0.2100010601
0.2100009564
0.2100012235
0.2100007865
0.2100006393
0.2100005907
0.210000671
0.21000075
0.210000837
0.2100009523
0.2100012611
0.2100014071
0.2100010899
0.2100047974
0.2100047898
0.2100047048
0.2100046836
0.2100046305
0.2100045991
0.2100045351
0.2100044255
0.2100043119
0.2100042001
0.2100040486
0.2100036747
0.2100027962
0.2100017356
0.2100015653
0.2100015348
0.2100016302
0.2100014842
0.210001332
0.2100010691
0.2100010223
0.2100008071
0.2100008924
0.2100008204
0.2100014779
0.2100010035
0.2100008022
0.2100007832
0.2100008118
0.2100008084
0.210000888
0.2100010565
0.2100011391
0.2100009272
0.2100006325
0.2100048835
0.2100047248
0.2100044259
0.2100046205
0.2100045883
0.2100045704
0.2100045482
0.210004516
0.2100044584
0.210004345
0.210004106
0.2100036988
0.2100029453
0.2100017726
0.210001198
0.2100010978
0.2100012748
0.2100010522
0.210000912
0.2100007075
0.2100007065
0.2100005079
0.2100006039
0.2100008009
0.2100023092
0.210001755
0.210001017
0.2100007819
0.2100007509
0.210000815
0.2100008777
0.2100007591
0.2100006073
0.2100005069
0.2100003138
0.2100044896
0.210004458
0.2100044697
0.2100044365
0.210004414
0.2100043878
0.2100043508
0.210004276
0.2100041305
0.2100038464
0.2100034293
0.2100027717
0.2100017778
0.2100009166
0.2100007446
0.2100005603
0.2100008434
0.2100004566
0.2100002713
0.2100003764
0.2100002289
0.2100000126
0.2100000276
0.2099933304
0.2100015969
0.2100021045
0.2100014496
0.2100011633
0.2100009729
0.2100005999
0.2100003794
0.2100003325
0.2100002968
0.2100001345
0.2100042921
0.2100042345
0.2100042384
0.2100042234
0.2100042009
0.2100041646
0.2100041093
0.2100040012
0.2100038109
0.2100034893
0.210003038
0.2100023924
0.210001544
0.2100012071
0.2100009374
0.2100008318
0.2100006174
0.2100002566
0.2100001035
0.2100001105
0.2100001473
0.2100001449
0.2100000112
0.2100039964
0.2100039791
0.2100039428
0.2100038842
0.2100037878
0.2100036139
0.2099983558
0.2099983255
0.209998285
0.2099982686
0.2099982658
0.2099982788
0.2099982942
0.2099983051
0.2099983064
0.2099982958
0.2099982754
0.2099982503
0.2099982268
0.2099982105
0.2099982032
0.2099982014
0.2099981995
0.2099981945
0.2099981879
0.2099981835
0.2099981847
0.2099981942
0.2099982134
0.2099982435
0.2099982864
0.2099983458
0.2099984279
0.2099985407
0.2099986926
0.209998888
0.2099991295
0.2099994428
0.2099999501
0.210001005
0.2099984684
0.209998461
0.2099984067
0.2099983771
0.2099983543
0.2099983412
0.2099983449
0.2099983511
0.2099983512
0.2099983398
0.2099983167
0.2099982882
0.2099982649
0.2099982584
0.2099982739
0.209998304
0.2099983345
0.2099983547
0.2099983633
0.2099983648
0.2099983647
0.2099983675
0.2099983754
0.2099983896
0.2099984113
0.2099984437
0.2099984935
0.209998572
0.2099986948
0.2099988789
0.20999914
0.2099995141
0.2100001257
0.2100012785
0.2099985097
0.2099985209
0.2099984602
0.209998434
0.2099984012
0.2099983663
0.2099983658
0.2099983731
0.2099983772
0.2099983697
0.2099983483
0.209998319
0.2099982941
0.2099982891
0.2099983138
0.2099983625
0.209998416
0.2099984558
0.2099984769
0.2099984838
0.2099984848
0.209998487
0.2099984937
0.2099985053
0.2099985215
0.2099985441
0.2099985782
0.2099986347
0.2099987319
0.2099988965
0.2099991611
0.2099995769
0.2100002749
0.2100015174
0.2099985147
0.2099985244
0.2099984933
0.2099984702
0.2099984313
0.2099983914
0.2099983865
0.2099983951
0.2099984086
0.2099984155
0.209998406
0.2099983822
0.2099983564
0.2099983459
0.2099983649
0.209998414
0.2099984759
0.2099985271
0.2099985575
0.20999857
0.2099985748
0.2099985814
0.2099985936
0.2099986104
0.2099986298
0.2099986515
0.2099986785
0.2099987191
0.2099987908
0.2099989245
0.2099991661
0.2099995821
0.2100002963
0.2100015604
0.2099985283
0.2099985391
0.2099985291
0.2099985066
0.2099984757
0.2099984549
0.2099984449
0.2099984478
0.2099984607
0.2099984789
0.209998485
0.2099984716
0.2099984473
0.2099984295
0.2099984351
0.2099984716
0.2099985279
0.2099985815
0.2099986173
0.2099986351
0.209998646
0.2099986608
0.2099986825
0.2099987091
0.2099987371
0.2099987647
0.2099987927
0.2099988262
0.2099988785
0.2099989795
0.2099991808
0.2099995593
0.2100002271
0.2100013699
0.209998562
0.2099985737
0.2099985717
0.2099985632
0.2099985559
0.2099985633
0.2099985496
0.2099985426
0.2099985429
0.2099985567
0.2099985706
0.2099985685
0.2099985485
0.2099985257
0.2099985181
0.2099985377
0.2099985809
0.2099986295
0.2099986668
0.2099986896
0.2099987081
0.2099987329
0.2099987658
0.2099988051
0.209998845
0.2099988815
0.2099989156
0.2099989515
0.2099989955
0.2099990733
0.2099992373
0.2099995696
0.2100001777
0.2100012039
0.2099986045
0.2099986195
0.2099986301
0.2099986481
0.2099986703
0.2099987159
0.2099986971
0.2099986692
0.2099986503
0.2099986479
0.2099986548
0.2099986584
0.2099986436
0.2099986191
0.2099986028
0.209998608
0.2099986361
0.2099986755
0.2099987115
0.2099987391
0.2099987663
0.2099988022
0.2099988482
0.2099989009
0.2099989544
0.2099990039
0.2099990471
0.2099990898
0.2099991371
0.2099992073
0.2099993523
0.2099996607
0.2100002415
0.2100011976
0.2099986542
0.2099986782
0.2099987128
0.2099987514
0.2099988119
0.209998892
0.2099988667
0.2099988134
0.209998769
0.2099987447
0.2099987352
0.2099987363
0.2099987232
0.2099986973
0.2099986804
0.209998679
0.209998695
0.209998723
0.2099987547
0.2099987857
0.2099988213
0.209998869
0.2099989274
0.2099989934
0.2099990616
0.2099991267
0.2099991847
0.209999239
0.2099992985
0.2099993763
0.2099995272
0.2099998519
0.21000047
0.2100014272
0.2099987128
0.2099987539
0.2099988112
0.20999887
0.2099989654
0.2099990651
0.2099990333
0.2099989572
0.2099988896
0.2099988434
0.209998814
0.2099988062
0.209998787
0.2099987563
0.2099987493
0.2099987536
0.2099987647
0.2099987811
0.2099988037
0.2099988333
0.2099988741
0.2099989315
0.209999004
0.2099990845
0.2099991686
0.2099992506
0.2099993258
0.2099993971
0.2099994756
0.2099995756
0.2099997602
0.2100001521
0.2100008892
0.2100019403
0.2099987829
0.2099988443
0.209998925
0.2099989974
0.2099991191
0.2099992138
0.2099991786
0.2099990871
0.2099990035
0.2099989415
0.2099988951
0.2099988764
0.209998849
0.209998832
0.2099988368
0.2099988482
0.2099988563
0.2099988622
0.2099988717
0.2099988928
0.2099989326
0.2099989966
0.2099990849
0.2099991828
0.2099992834
0.2099993816
0.2099994734
0.2099995642
0.209999665
0.2099998015
0.2100000534
0.210000571
0.2100014853
0.2100026192
0.2099988645
0.2099989456
0.2099990489
0.2099991233
0.2099992663
0.2099993241
0.2099992894
0.2099991908
0.2099991004
0.2099990305
0.2099989801
0.2099989581
0.209998956
0.2099990252
0.2099990159
0.2099990091
0.2099989871
0.2099989731
0.2099989689
0.2099989786
0.2099990123
0.2099990802
0.2099991854
0.209999304
0.20999942
0.2099995299
0.2099996331
0.2099997399
0.2099998613
0.2100000503
0.2100004105
0.2100011031
0.2100021569
0.2100031474
0.2099989576
0.2099990564
0.2099991812
0.2099992408
0.2099994134
0.2099993947
0.209999361
0.2099992606
0.2099991721
0.2099991054
0.209999065
0.2099990746
0.2099991586
0.2099993488
0.2099993004
0.2099992469
0.2099991621
0.2099991091
0.2099990926
0.2099991006
0.2099991312
0.2099992033
0.2099993256
0.2099994649
0.2099995926
0.2099997054
0.209999811
0.2099999182
0.2100000596
0.2100003206
0.2100008226
0.2100016736
0.2100026873
0.2100033788
0.2099990598
0.2099991739
0.2099993303
0.2099993762
0.2099996125
0.2099994731
0.2099994385
0.2099993358
0.2099992477
0.2099991867
0.2099991499
0.2099992416
0.2099993826
0.2099996397
0.2099995583
0.2099994821
0.2099993471
0.2099992513
0.2099992302
0.2099992637
0.2099993063
0.2099993857
0.2099995192
0.2099996747
0.2099998074
0.2099999159
0.2100000102
0.2100001058
0.2100002714
0.2100006219
0.2100012473
0.2100021163
0.2100029058
0.2100034301
0.2099991725
0.2099992966
0.20999948
0.2099995303
0.209999883
0.2099996084
0.2099995627
0.2099994438
0.2099993536
0.2099992679
0.2099992692
0.2099994172
0.2099995676
0.2099998357
0.2099997299
0.2099996328
0.2099994881
0.2099993782
0.2099993696
0.2099994723
0.2099995474
0.209999641
0.2099997729
0.2099999256
0.2100000612
0.2100001656
0.2100002461
0.2100003371
0.2100005395
0.2100009647
0.2100016139
0.210002333
0.2100028881
0.2100033759
0.2099992945
0.2099994083
0.2099995581
0.2099996159
0.2099997955
0.2099996828
0.2099996367
0.2099995459
0.2099994285
0.2099993247
0.209999393
0.2099995304
0.2099996768
0.2099998266
0.2099997308
0.2099996233
0.209999502
0.209999438
0.2099995008
0.209999725
0.2099998473
0.2099999637
0.2100000937
0.2100002328
0.2100003647
0.2100004806
0.210000576
0.2100006804
0.2100009078
0.2100013319
0.2100018931
0.2100024234
0.2100028105
0.2100032401
0.2099994486
0.2099995471
0.2099996653
0.209999731
0.2099998474
0.2099997987
0.2099997385
0.2099996757
0.2099995267
0.2099994599
0.2099995555
0.2099996667
0.2099997853
0.2099997778
0.2099996669
0.2099996007
0.2099995123
0.2099995015
0.2099996716
0.2100000285
0.2100001984
0.2100003489
0.210000497
0.2100006336
0.2100007772
0.2100009302
0.2100010505
0.2100011508
0.2100013412
0.2100016747
0.2100020883
0.2100024733
0.2100027585
0.2100030625
0.2099996522
0.2099997303
0.2099998184
0.2099998785
0.2099999472
0.2099999312
0.2099998708
0.2099997942
0.209999616
0.2099995469
0.2099996797
0.2099996888
0.2099997927
0.2099997883
0.2099996203
0.2099995156
0.2099994335
0.2099995779
0.2099998781
0.2100002649
0.2100005032
0.2100007267
0.2100009612
0.2100011266
0.2100012948
0.2100014635
0.210001554
0.2100016058
0.2100017113
0.2100018982
0.2100021512
0.2100024487
0.2100027037
0.2100028806
0.2099999077
0.2099999601
0.2100000153
0.2100000631
0.2100000986
0.2100001117
0.2100000886
0.2099999968
0.2099998566
0.2099998508
0.2100000125
0.2099997875
0.2099996269
0.2099996733
0.2099994608
0.2099994425
0.2099994882
0.2099998936
0.2100002736
0.2100006065
0.2100008798
0.2100011557
0.2100015407
0.2100016723
0.2100018104
0.2100019119
0.2100019131
0.2100018899
0.2100018892
0.2100019562
0.2100021123
0.2100023535
0.2100026129
0.210002717
0.2100002062
0.2100002155
0.2100002204
0.2100002275
0.2100002482
0.2100003132
0.2100002893
0.2100001442
0.2099999728
0.2099998029
0.2099998723
0.209999616
0.209999375
0.2099995002
0.2099988903
0.2099992903
0.2099996524
0.2100003582
0.2100007003
0.2100009866
0.2100012907
0.2100015537
0.2100023468
0.2100021945
0.2100022283
0.2100021936
0.2100020739
0.2100019456
0.2100018674
0.2100018804
0.2100020084
0.2100022393
0.2100024992
0.21000259
0.2100004846
0.2100004541
0.2100003994
0.2100003788
0.2100004147
0.2100005518
0.2100005611
0.2100003498
0.2100001131
0.2099998857
0.2099996643
0.2099994984
0.2099987789
0.2099995311
0.210001466
0.2099992012
0.2100001313
0.210000836
0.2100010637
0.2100013103
0.2100016939
0.2100018314
0.2100039364
0.2100026764
0.2100024916
0.2100022803
0.2100020184
0.2100018139
0.2100017127
0.2100017165
0.2100018541
0.2100021068
0.210002382
0.2100025118
0.210000702
0.2100006398
0.2100005306
0.2100004911
0.210000504
0.2100010538
0.2100006166
0.2100003564
0.2100000621
0.2099998092
0.2099996175
0.2099993517
0.2099990572
0.2099990691
0.2099993113
0.2099991491
0.21000047
0.2100011729
0.2100014144
0.2100015546
0.2100020433
0.2100019993
0.2100038231
0.2100027644
0.2100025067
0.2100021277
0.2100017712
0.21000157
0.2100014831
0.2100014968
0.2100016554
0.2100019427
0.2100022701
0.2100024779
0.2100007458
0.2100007374
0.2100005931
0.2100004673
0.210000421
0.2100004508
0.2100003984
0.2100001854
0.2099999823
0.2099997796
0.2099994529
0.2099994222
0.2099994874
0.2100000427
0.2100003352
0.2100015269
0.2100014124
0.2100017413
0.2100017315
0.2100017574
0.210001883
0.210002013
0.2100023262
0.210002066
0.2100018605
0.2100015901
0.2100013665
0.2100012616
0.2100012174
0.2100012606
0.210001443
0.2100017471
0.2100021596
0.2100024539
0.2100010029
0.2100008186
0.2100006285
0.2100004649
0.2100003676
0.2100003514
0.2100002501
0.2100000514
0.2099998725
0.2099996897
0.2099995557
0.2099997499
0.2100001177
0.2100009103
0.2100009524
0.2100016197
0.2100017593
0.2100019386
0.2100019484
0.2100019639
0.2100020679
0.2100020971
0.2100022783
0.2100018328
0.2100014961
0.2100012006
0.2100010363
0.2100009975
0.2100009994
0.210001102
0.2100013218
0.2100016045
0.2100020353
0.2100023535
0.2099996829
0.2100011636
0.2100008271
0.2100006568
0.2100004857
0.2100003653
0.2100002336
0.2100000437
0.2099999353
0.209999924
0.2100001442
0.210000699
0.2100011591
0.2100016132
0.2100017557
0.2100019311
0.2100019502
0.2100019605
0.2100019131
0.2100019142
0.2100019214
0.2100018083
0.2100016237
0.2100013217
0.2100010613
0.2100008636
0.2100007885
0.2100008294
0.2100009111
0.2100011231
0.2100014211
0.2100016828
0.2100020169
0.2100020105
0.210002962
0.21000289
0.2100029284
0.2100025862
0.2100021799
0.210001652
0.2100011669
0.210000658
0.2100003682
0.2100005768
0.2100012502
0.2100017919
0.2100019055
0.2100018287
0.2100021759
0.2100019101
0.2100019942
0.2100019029
0.2100018292
0.2100017226
0.210001703
0.2100016354
0.2100014633
0.2100013069
0.2100010238
0.2100008456
0.2100007026
0.2100006943
0.2100008072
0.2100009857
0.2100011673
0.2100014282
0.2100016876
0.2100018171
0.2100016898
0.2100041535
0.2100040314
0.2100040597
0.2100039229
0.2100037298
0.2100033469
0.2100026147
0.2100019924
0.2100017026
0.2100021587
0.21000282
0.210002789
0.2100021896
0.2100017992
0.2100017746
0.2100017596
0.2100017677
0.2100016981
0.210001568
0.2100014361
0.2100013679
0.2100012367
0.2100011036
0.2100010427
0.2100009199
0.21000077
0.21000065
0.2100007079
0.2100008654
0.2100010942
0.2100012369
0.2100013923
0.2100015114
0.2100014927
0.2100012037
0.2100045517
0.2100045647
0.2100044721
0.2100044254
0.2100043644
0.210004257
0.2100041288
0.2100039752
0.2100039299
0.2100038979
0.2100037297
0.2100032756
0.2100024574
0.2100016929
0.2100015852
0.2100015197
0.2100015232
0.2100014717
0.2100012918
0.2100011578
0.2100010717
0.2100008831
0.2100006907
0.2100006194
0.210000451
0.2100005192
0.2100004471
0.2100007517
0.2100009264
0.2100011016
0.2100011195
0.2100011789
0.2100012156
0.2100011204
0.2100008393
0.2100044459
0.2100045314
0.210004648
0.21000451
0.210004502
0.2100044546
0.2100043813
0.2100042854
0.2100041639
0.2100039743
0.2100036368
0.2100031364
0.2100024122
0.2100015751
0.2100012081
0.2100011873
0.210001152
0.2100011842
0.2100009551
0.2100008478
0.210000771
0.2100006045
0.2100004257
0.2100000546
0.2099998326
0.210000805
0.2100007067
0.2100008612
0.2100009145
0.2100009394
0.2100009073
0.2100008753
0.2100008671
0.2100008288
0.210000592
0.2100043097
0.2100043871
0.2100044065
0.210004393
0.2100043383
0.2100042489
0.2100041096
0.2100039265
0.2100036726
0.2100032953
0.2100028123
0.210002195
0.2100014454
0.2100009161
0.2100008404
0.210000766
0.2100013864
0.2100005666
0.2100004885
0.2100003822
0.2100001498
0.2100000353
0.2099993745
0.210002018
0.209998244
0.2099999278
0.2100006378
0.2100006694
0.2100007512
0.2100006391
0.2100006153
0.210000653
0.2100006434
0.2100004344
0.2100041303
0.2100041765
0.2100041761
0.2100041456
0.2100040753
0.2100039603
0.2100037936
0.2100035798
0.2100033054
0.2100029417
0.2100024818
0.2100019023
0.2099995316
0.2100001167
0.2100003507
0.2100005483
0.2100004619
0.2100003883
0.2100003601
0.2100004147
0.2100004799
0.2100004834
0.2100003071
0.2100038519
0.2100038165
0.210003727
0.2100035842
0.2100033896
0.2100031447
0.2099983737
0.2099983534
0.2099983203
0.2099983059
0.2099983025
0.2099983098
0.20999832
0.2099983274
0.2099983276
0.2099983188
0.2099983025
0.2099982824
0.2099982637
0.209998251
0.2099982459
0.2099982459
0.2099982467
0.2099982456
0.2099982435
0.2099982427
0.2099982463
0.2099982565
0.2099982753
0.209998305
0.2099983485
0.2099984105
0.2099984975
0.2099986167
0.2099987735
0.2099989691
0.2099992053
0.2099995117
0.2100000199
0.2100010771
0.2099984604
0.2099984583
0.2099984217
0.209998401
0.2099983849
0.2099983758
0.2099983759
0.2099983782
0.2099983771
0.2099983687
0.2099983531
0.2099983346
0.2099983206
0.2099983191
0.2099983331
0.2099983578
0.2099983838
0.2099984029
0.2099984139
0.2099984193
0.2099984226
0.2099984275
0.2099984365
0.2099984518
0.2099984762
0.2099985145
0.2099985743
0.2099986665
0.2099988035
0.2099989969
0.209999259
0.2099996283
0.2100002249
0.2100013479
0.209998466
0.2099984959
0.2099984706
0.2099984566
0.2099984371
0.2099984195
0.2099984155
0.2099984176
0.2099984188
0.2099984142
0.2099984018
0.2099983857
0.2099983742
0.2099983771
0.2099984
0.2099984386
0.2099984812
0.2099985138
0.2099985342
0.2099985448
0.2099985502
0.2099985553
0.2099985632
0.2099985758
0.2099985949
0.2099986242
0.2099986707
0.2099987458
0.2099988661
0.2099990523
0.2099993301
0.2099997494
0.2100004302
0.2100016158
0.2099985081
0.2099985136
0.209998513
0.2099985028
0.2099984834
0.2099984647
0.2099984603
0.2099984661
0.2099984754
0.2099984804
0.2099984763
0.2099984651
0.2099984548
0.2099984563
0.2099984775
0.2099985176
0.2099985666
0.209998605
0.2099986313
0.2099986464
0.2099986558
0.2099986651
0.2099986776
0.2099986943
0.2099987156
0.2099987435
0.2099987831
0.2099988447
0.2099989456
0.2099991125
0.2099993827
0.2099998156
0.2100005256
0.2100017361
0.2099985441
0.2099985579
0.2099985609
0.2099985554
0.2099985431
0.2099985356
0.2099985323
0.2099985394
0.2099985548
0.2099985694
0.2099985749
0.2099985696
0.2099985598
0.2099985564
0.2099985688
0.2099985998
0.2099986422
0.2099986821
0.2099987119
0.2099987315
0.2099987464
0.209998763
0.2099987841
0.2099988098
0.2099988391
0.2099988721
0.2099989116
0.2099989654
0.2099990488
0.2099991895
0.2099994308
0.2099998371
0.2100005047
0.210001616
0.2099985909
0.2099986083
0.2099986195
0.2099986251
0.2099986339
0.209998652
0.2099986496
0.2099986483
0.2099986599
0.2099986754
0.2099986863
0.2099986859
0.2099986764
0.2099986676
0.2099986696
0.209998688
0.2099987197
0.2099987545
0.209998784
0.2099988068
0.209998828
0.2099988532
0.2099988851
0.2099989226
0.2099989641
0.2099990083
0.2099990549
0.2099991089
0.2099991826
0.2099993017
0.2099995105
0.209999876
0.21000048
0.2100014511
0.2099986425
0.2099986666
0.2099986912
0.2099987196
0.2099987684
0.2099988245
0.2099988212
0.2099987987
0.2099987879
0.2099987922
0.2099988005
0.2099988012
0.2099987917
0.209998779
0.2099987726
0.2099987788
0.2099987981
0.2099988245
0.2099988512
0.2099988763
0.2099989037
0.2099989379
0.2099989813
0.2099990333
0.2099990899
0.2099991486
0.2099992097
0.2099992732
0.2099993487
0.2099994598
0.209999652
0.2099999952
0.2100005659