/*--------------------------------*- C++ -*----------------------------------*\
  =========                 |
  \\      /  F ield         | OpenFOAM: The Open Source CFD Toolbox
   \\    /   O peration     | Website:  https://openfoam.org
    \\  /    A nd           | Version:  8
     \\/     M anipulation  |
\*---------------------------------------------------------------------------*/
FoamFile
{
    version     2.0;
    format      ascii;
    class       volScalarField;
    location    "1.4";
    object      p_rgh;
}
// * * * * * * * * * * * * * * * * * * * * * * * * * * * * * * * * * * * * * //

dimensions      [1 -1 -2 0 0 0 0];

internalField   nonuniform List<scalar> 
67193
(
100003.9582
100003.9608
100003.9565
100003.9582
100003.9574
100003.9633
100003.957
100003.9477
100003.9367
100003.9267
100003.9184
100003.9117
100003.9062
100003.9018
100003.8987
100003.8971
100003.8971
100003.8988
100003.9022
100003.9072
100003.9137
100003.9212
100003.9295
100003.9382
100003.9469
100003.9556
100003.9645
100003.9739
100003.9842
100003.9958
100004.0091
100004.0256
100004.0398
100004.0714
100003.915
100003.9224
100003.9162
100003.9178
100003.917
100003.9203
100003.9152
100003.9084
100003.8996
100003.8908
100003.8831
100003.8771
100003.8727
100003.8696
100003.8675
100003.8662
100003.8657
100003.866
100003.8676
100003.8706
100003.875
100003.8805
100003.8869
100003.894
100003.902
100003.9113
100003.9223
100003.9356
100003.9514
100003.9695
100003.9888
100004.0097
100004.0249
100004.0502
100003.8847
100003.8973
100003.8874
100003.8889
100003.8861
100003.8849
100003.8805
100003.8754
100003.8685
100003.861
100003.854
100003.8486
100003.845
100003.843
100003.8421
100003.842
100003.8422
100003.8429
100003.8445
100003.8472
100003.8511
100003.8561
100003.862
100003.8688
100003.8766
100003.8862
100003.8983
100003.9135
100003.9322
100003.9538
100003.9768
100004.0004
100004.0173
100004.0375
100003.8524
100003.8632
100003.8564
100003.8564
100003.8499
100003.8433
100003.8406
100003.8376
100003.8337
100003.8284
100003.8228
100003.8182
100003.8153
100003.8142
100003.8142
100003.8148
100003.8157
100003.8165
100003.8178
100003.8201
100003.8236
100003.8281
100003.8336
100003.84
100003.8478
100003.8574
100003.8699
100003.8861
100003.9066
100003.9312
100003.9579
100003.9851
100004.0051
100004.0252
100003.8319
100003.8382
100003.8352
100003.8316
100003.8218
100003.8137
100003.8135
100003.8098
100003.8071
100003.804
100003.7998
100003.7958
100003.7931
100003.7924
100003.7926
100003.7935
100003.7946
100003.7957
100003.7972
100003.7995
100003.8028
100003.8072
100003.8129
100003.8196
100003.8275
100003.837
100003.849
100003.8649
100003.8856
100003.9112
100003.94
100003.9699
100003.9927
100004.0154
100003.8221
100003.8256
100003.8236
100003.8195
100003.8123
100003.8161
100003.8154
100003.8013
100003.792
100003.7881
100003.7848
100003.7813
100003.7783
100003.7778
100003.7775
100003.7779
100003.7787
100003.7797
100003.7812
100003.7834
100003.7866
100003.7908
100003.7968
100003.8041
100003.8124
100003.8217
100003.8329
100003.8477
100003.8677
100003.893
100003.9223
100003.9538
100003.9781
100004.0039
100003.8224
100003.8253
100003.8236
100003.8255
100003.835
100003.852
100003.8486
100003.8204
100003.7948
100003.7821
100003.7775
100003.7748
100003.7716
100003.7717
100003.7696
100003.7683
100003.7679
100003.7685
100003.7699
100003.7721
100003.775
100003.7792
100003.785
100003.7927
100003.8014
100003.8107
100003.8212
100003.8349
100003.8538
100003.8784
100003.9075
100003.9395
100003.9647
100003.9929
100003.8332
100003.8367
100003.8379
100003.8525
100003.8804
100003.9063
100003.8986
100003.8562
100003.8126
100003.7872
100003.7788
100003.7775
100003.7737
100003.7746
100003.7683
100003.7643
100003.7619
100003.7613
100003.7625
100003.7647
100003.7677
100003.7714
100003.7768
100003.7842
100003.7929
100003.8023
100003.8126
100003.8257
100003.844
100003.8681
100003.8968
100003.9289
100003.9539
100003.9826
100003.853
100003.8588
100003.8661
100003.8913
100003.9298
100003.9571
100003.9436
100003.8899
100003.8345
100003.8018
100003.7909
100003.7924
100003.7847
100003.7813
100003.7702
100003.7641
100003.7597
100003.7578
100003.7584
100003.7607
100003.7639
100003.7675
100003.7721
100003.7787
100003.787
100003.7963
100003.8066
100003.8198
100003.8381
100003.8625
100003.8912
100003.9232
100003.9481
100003.9754
100003.879
100003.8886
100003.9021
100003.9279
100003.9672
100003.9867
100003.9675
100003.9081
100003.8525
100003.8251
100003.8162
100003.8189
100003.7969
100003.7761
100003.7687
100003.7643
100003.7608
100003.7579
100003.7575
100003.7595
100003.763
100003.7669
100003.7709
100003.7765
100003.784
100003.7929
100003.8033
100003.8171
100003.8362
100003.8613
100003.8904
100003.9226
100003.947
100003.972
100003.9073
100003.9216
100003.9401
100003.9571
100003.9905
100003.9911
100003.9661
100003.909
100003.868
100003.8579
100003.8519
100003.8451
100003.7977
100003.7657
100003.7745
100003.765
100003.7639
100003.762
100003.7607
100003.7619
100003.7653
100003.7695
100003.7735
100003.7782
100003.7846
100003.7929
100003.8033
100003.8178
100003.8382
100003.8642
100003.8931
100003.9245
100003.9463
100003.9691
100003.9342
100003.9513
100003.9779
100003.9828
100004.021
100003.989
100003.959
100003.9142
100003.8947
100003.8976
100003.8822
100003.8527
100003.8052
100003.8372
100003.852
100003.7909
100003.7688
100003.7688
100003.7695
100003.7702
100003.772
100003.7758
100003.7801
100003.7844
100003.7896
100003.7973
100003.8079
100003.8232
100003.8442
100003.8698
100003.8955
100003.923
100003.9391
100003.9611
100003.9565
100003.9747
100004.0087
100004.0084
100004.06
100003.9945
100003.9682
100003.9364
100003.93
100003.9281
100003.8879
100003.8607
100003.8827
100004.0141
100004.0082
100003.8587
100003.7814
100003.7776
100003.7856
100003.7885
100003.7857
100003.7869
100003.7915
100003.7959
100003.8009
100003.8094
100003.8194
100003.8345
100003.854
100003.8751
100003.8927
100003.9148
100003.9256
100003.9513
100003.9674
100003.9858
100004.0212
100004.0226
100004.0987
100004.0088
100003.9901
100003.9578
100003.9531
100003.9254
100003.8735
100003.9031
100004.0158
100004.1619
100004.1171
100003.9115
100003.7901
100003.7851
100003.8089
100003.8205
100003.8104
100003.8059
100003.8099
100003.8152
100003.8209
100003.8293
100003.84
100003.852
100003.8655
100003.8771
100003.8855
100003.9034
100003.9107
100003.9461
100003.963
100003.9758
100003.9999
100003.9986
100004.0392
100003.9884
100003.9789
100003.9587
100003.9449
100003.8988
100003.8883
100003.9697
100004.1043
100004.1704
100004.0816
100003.8845
100003.7828
100003.8024
100003.836
100003.8561
100003.8451
100003.8385
100003.842
100003.8487
100003.8555
100003.8633
100003.8694
100003.8712
100003.8734
100003.8754
100003.8772
100003.8938
100003.8999
100003.9488
100003.945
100003.9511
100003.9645
100003.9648
100003.9888
100003.9637
100003.9571
100003.9485
100003.9278
100003.8823
100003.9331
100004.0292
100004.1244
100004.0866
100003.9957
100003.8367
100003.7898
100003.8361
100003.8652
100003.8781
100003.8804
100003.8867
100003.8995
100003.9044
100003.9069
100003.9076
100003.9
100003.8855
100003.8763
100003.8727
100003.8727
100003.8894
100003.8959
100003.9586
100003.92
100003.9219
100003.9307
100003.933
100003.9503
100003.9403
100003.9268
100003.9309
100003.9008
100003.877
100004.0048
100004.0568
100004.1057
100003.9892
100004.0503
100003.8564
100003.8328
100003.8693
100003.8982
100003.9139
100003.9315
100003.9611
100003.9949
100003.988
100003.9743
100003.9565
100003.9282
100003.8974
100003.8814
100003.8804
100003.8803
100003.8946
100003.9007
100003.976
100003.8943
100003.8939
100003.9022
100003.9111
100003.9205
100003.9217
100003.9125
100003.9351
100003.916
100003.8811
100004.0506
100004.0326
100004.1037
100003.9252
100004.0846
100003.8781
100003.8899
100003.9343
100003.9488
100003.9664
100004.0094
100004.069
100004.159
100004.1086
100004.0604
100004.0122
100003.9587
100003.917
100003.9015
100003.9054
100003.903
100003.9118
100003.9158
100004.0016
100003.8678
100003.8657
100003.8792
100003.8898
100003.8966
100003.9134
100003.9153
100003.9089
100003.9159
100003.8808
100003.9477
100003.9038
100004.1123
100003.9664
100004.2007
100003.9731
100003.9393
100003.9608
100003.9637
100004.0106
100004.0916
100004.1788
100004.4303
100004.2654
100004.1621
100004.0729
100003.9953
100003.9512
100003.9398
100003.9436
100003.9376
100003.9396
100003.9402
100004.0355
100003.8594
100003.8452
100003.8591
100003.8603
100003.8676
100003.9203
100003.928
100003.9135
100003.8996
100003.8848
100004.0381
100003.965
100004.4758
100004.0438
100004.441
100004.0255
100003.7978
100004.078
100004.0283
100004.0643
100004.1644
100004.2434
100004.8707
100004.4144
100004.2548
100004.1255
100004.036
100003.9971
100003.9872
100003.9909
100003.9838
100003.9778
100003.972
100004.0776
100003.8341
100003.8275
100003.8408
100003.8427
100003.8408
100003.9752
100003.8884
100003.8706
100003.8387
100003.8154
100003.883
100003.8553
100003.6773
100003.8345
100003.846
100003.8869
100003.7981
100003.9393
100003.9572
100004.0416
100004.1895
100004.2384
100004.8488
100004.4194
100004.2877
100004.1435
100004.0699
100004.043
100004.0355
100004.0431
100004.0395
100004.0256
100004.0056
100004.1261
100003.9902
100003.8378
100003.8721
100003.8274
100003.8099
100003.8086
100003.8106
100003.8075
100003.8477
100003.8257
100004.3558
100003.8684
100003.9186
100003.8143
100003.7088
100003.9583
100003.9138
100003.9521
100003.9272
100003.9583
100004.0053
100004.0474
100004.2086
100004.1491
100004.1188
100004.089
100004.0766
100004.0732
100004.0742
100004.0896
100004.094
100004.0761
100004.0316
100004.1727
100003.9104
100003.8405
100003.8461
100003.8287
100003.8164
100003.8089
100003.7923
100003.7955
100003.8257
100003.8176
100003.8893
100003.8743
100003.9056
100003.9193
100003.8434
100003.9123
100003.8826
100003.898
100003.9108
100003.9476
100003.9984
100004.0639
100004.2068
100004.1183
100004.0889
100004.0883
100004.0915
100004.0938
100004.0911
100004.1136
100004.1335
100004.1225
100004.0604
100004.1936
100004.7482
100003.9893
100004.0134
100003.896
100003.8753
100003.8493
100003.8351
100003.8302
100003.8515
100003.8508
100003.9234
100003.89
100003.9152
100003.8963
100003.9313
100003.8963
100003.8821
100003.8804
100003.8864
100003.9029
100003.935
100003.9646
100003.9927
100004.0228
100004.0442
100004.0751
100004.0894
100004.0884
100004.073
100004.0705
100004.0573
100004.0345
100003.9815
100004.1541
100003.855
100003.8484
100003.8603
100003.8659
100003.8711
100003.8726
100003.8686
100003.8665
100003.8584
100003.8642
100003.8597
100003.8902
100003.9146
100003.9448
100004.0604
100003.9331
100003.927
100003.8948
100003.8862
100003.8884
100003.9045
100003.9191
100003.9641
100003.954
100004.0443
100004.0484
100004.0846
100004.081
100004.0565
100004.0258
100003.9959
100003.9753
100003.9784
100004.0086
100004.0651
100003.8721
100004.0246
100003.8734
100003.8977
100003.8784
100003.8858
100003.8908
100003.9026
100003.8745
100003.8592
100003.8488
100003.8686
100003.8758
100003.8792
100003.8828
100003.8773
100003.8685
100003.8651
100003.8632
100003.8698
100003.8919
100003.8801
100003.9593
100003.8926
100004.0984
100004.0011
100004.0357
100004.0133
100003.9887
100003.9692
100003.9686
100003.9781
100004.0225
100004.051
100004.0875
100003.8994
100003.899
100003.8747
100003.8625
100003.8571
100003.8572
100003.8709
100003.8658
100003.8605
100003.858
100003.8542
100003.8648
100003.8852
100003.8918
100003.9147
100003.883
100003.8894
100003.888
100003.8811
100003.8781
100003.9117
100003.8673
100003.9861
100003.8127
100004.0342
100004.1135
100004.0974
100004.0661
100004.0213
100003.9944
100003.9917
100004.0028
100004.0296
100004.0309
100004.0405
100004.0877
100003.9648
100003.9821
100003.9032
100003.871
100003.8515
100003.8464
100003.842
100003.8378
100003.8378
100003.842
100003.8526
100003.8666
100003.8769
100003.8748
100003.8743
100003.8621
100003.8674
100003.8591
100003.8655
100003.9018
100003.8598
100003.9424
100003.8268
100004.1963
100004.2025
100004.1058
100003.9858
100003.9499
100003.9607
100003.9837
100004.0033
100004.0198
100004.0171
100004.029
100004.0043
100003.9828
100003.9177
100003.8783
100003.8489
100003.8321
100003.824
100003.8222
100003.8259
100003.8333
100003.8444
100003.8602
100003.8733
100003.8937
100003.893
100003.876
100003.9667
100003.9112
100003.9163
100003.9846
100003.8856
100004.0186
100003.7811
100004.4701
100004.3209
100004.058
100004.2314
100004.1376
100004.075
100004.0377
100004.0113
100004.005
100003.9978
100004.0073
100003.9968
100003.9763
100003.931
100003.8871
100003.8515
100003.8279
100003.8164
100003.8144
100003.8192
100003.828
100003.8396
100003.8535
100003.9344
100003.8663
100003.9206
100003.9578
100003.9677
100003.9788
100003.9831
100003.9832
100003.9858
100003.9822
100003.9936
100003.9629
100003.9022
100003.8579
100003.83
100003.8171
100003.8148
100003.9582
100003.962
100003.9541
100003.9514
100003.9477
100003.9455
100003.9411
100003.9356
100003.9292
100003.9225
100003.9162
100003.9109
100003.9068
100003.9041
100003.9027
100003.9022
100003.9027
100003.9041
100003.9067
100003.9106
100003.9156
100003.9214
100003.9275
100003.9337
100003.9401
100003.9472
100003.9555
100003.9658
100003.9783
100003.9928
100004.0087
100004.0271
100004.0423
100004.0733
100003.9091
100003.9243
100003.9102
100003.9082
100003.9044
100003.9006
100003.8979
100003.8951
100003.8911
100003.8859
100003.8805
100003.876
100003.8731
100003.8716
100003.8711
100003.8708
100003.8706
100003.8704
100003.871
100003.8729
100003.876
100003.88
100003.8848
100003.8902
100003.8967
100003.9049
100003.9158
100003.9301
100003.9477
100003.968
100003.9892
100004.011
100004.0267
100004.052
100003.8814
100003.9045
100003.8777
100003.8758
100003.8679
100003.8563
100003.855
100003.8562
100003.8558
100003.8526
100003.8481
100003.8442
100003.842
100003.8416
100003.8425
100003.8437
100003.8445
100003.8446
100003.8452
100003.8469
100003.8497
100003.8533
100003.8576
100003.8628
100003.8695
100003.8783
100003.8904
100003.9064
100003.9265
100003.9502
100003.9751
100003.9998
100004.0169
100004.0356
100003.8459
100003.8622
100003.8441
100003.8386
100003.8235
100003.804
100003.8045
100003.8085
100003.8142
100003.8163
100003.8145
100003.8117
100003.8101
100003.8104
100003.8122
100003.8146
100003.8167
100003.8173
100003.8179
100003.8194
100003.8217
100003.8248
100003.8286
100003.8334
100003.8399
100003.8488
100003.8612
100003.8779
100003.8996
100003.9257
100003.9541
100003.9827
100004.0032
100004.0216
100003.8221
100003.8285
100003.8177
100003.8039
100003.7855
100003.7666
100003.7673
100003.7694
100003.7771
100003.7845
100003.7873
100003.7866
100003.7855
100003.786
100003.7879
100003.7906
100003.7931
100003.7946
100003.7959
100003.7976
100003.7999
100003.8028
100003.8062
100003.8112
100003.8179
100003.827
100003.8393
100003.8558
100003.8774
100003.9044
100003.9345
100003.9661
100003.99
100004.0105
100003.8097
100003.8108
100003.7973
100003.7793
100003.7657
100003.7502
100003.7504
100003.7488
100003.751
100003.7593
100003.7662
100003.7687
100003.7684
100003.7686
100003.77
100003.7723
100003.7746
100003.7766
100003.7783
100003.7804
100003.7828
100003.7856
100003.7889
100003.7938
100003.8006
100003.8096
100003.8221
100003.838
100003.8587
100003.8851
100003.9156
100003.9486
100003.9744
100003.9973
100003.8061
100003.8038
100003.787
100003.7735
100003.7644
100003.7524
100003.7505
100003.7437
100003.7411
100003.7445
100003.7516
100003.7573
100003.7583
100003.7579
100003.7582
100003.7592
100003.7607
100003.7627
100003.765
100003.7676
100003.7702
100003.773
100003.7763
100003.7812
100003.788
100003.7968
100003.8087
100003.8245
100003.8445
100003.87
100003.9002
100003.9336
100003.9606
100003.9855
100003.8124
100003.8081
100003.7941
100003.7849
100003.7811
100003.7711
100003.7658
100003.7516
100003.7417
100003.7397
100003.7443
100003.7525
100003.754
100003.7504
100003.7493
100003.7488
100003.7493
100003.7512
100003.7544
100003.7582
100003.7617
100003.7648
100003.768
100003.7726
100003.7792
100003.7879
100003.7995
100003.815
100003.8346
100003.8595
100003.8894
100003.9229
100003.9502
100003.9756
100003.8277
100003.8256
100003.8166
100003.81
100003.8117
100003.7988
100003.7891
100003.7675
100003.751
100003.7445
100003.7469
100003.7561
100003.7521
100003.7323
100003.7325
100003.735
100003.7373
100003.7403
100003.7451
100003.7508
100003.7561
100003.7602
100003.7633
100003.7675
100003.7736
100003.7821
100003.7936
100003.809
100003.8287
100003.8538
100003.8838
100003.9177
100003.9452
100003.9701
100003.8501
100003.8545
100003.853
100003.8456
100003.8524
100003.8282
100003.8142
100003.7868
100003.7679
100003.7602
100003.7637
100003.7672
100003.7406
100003.6864
100003.6961
100003.7086
100003.7208
100003.7291
100003.7366
100003.7446
100003.7524
100003.7585
100003.762
100003.7654
100003.7708
100003.779
100003.7906
100003.8063
100003.8266
100003.8525
100003.883
100003.9173
100003.945
100003.9689
100003.8751
100003.8891
100003.9014
100003.8923
100003.9076
100003.8592
100003.8419
100003.8111
100003.7947
100003.791
100003.7937
100003.7715
100003.7105
100003.6401
100003.6604
100003.6772
100003.6986
100003.7165
100003.7298
100003.7402
100003.7501
100003.7586
100003.7633
100003.7658
100003.7704
100003.7784
100003.7904
100003.8066
100003.8277
100003.8546
100003.8849
100003.9189
100003.9448
100003.9674
100003.8985
100003.9208
100003.9552
100003.9489
100003.9903
100003.9024
100003.8839
100003.8502
100003.8379
100003.838
100003.817
100003.7514
100003.6803
100003.6201
100003.6433
100003.6519
100003.6747
100003.7014
100003.7252
100003.7388
100003.7491
100003.7597
100003.7666
100003.7691
100003.7732
100003.7809
100003.7933
100003.8101
100003.832
100003.8585
100003.8856
100003.9163
100003.9366
100003.9602
100003.9174
100003.9443
100003.9983
100003.9882
100004.0946
100003.9584
100003.9441
100003.8999
100003.8856
100003.868
100003.7989
100003.7233
100003.6792
100003.632
100003.6473
100003.6379
100003.6513
100003.6837
100003.723
100003.7408
100003.7495
100003.7612
100003.7718
100003.7778
100003.7819
100003.7887
100003.8023
100003.8191
100003.8391
100003.8605
100003.8786
100003.9035
100003.9169
100003.9456
100003.9251
100003.953
100004.0215
100004.0055
100004.2013
100004.0048
100003.9882
100003.93
100003.9123
100003.8561
100003.7634
100003.7241
100003.6974
100003.6633
100003.6558
100003.6288
100003.6324
100003.6717
100003.7288
100003.7482
100003.7553
100003.7667
100003.7807
100003.7923
100003.8005
100003.8097
100003.8217
100003.8345
100003.8462
100003.8557
100003.8627
100003.8815
100003.8895
100003.926
100003.9149
100003.9352
100003.9809
100003.9692
100004.0575
100003.9714
100003.9636
100003.9285
100003.9046
100003.814
100003.7448
100003.7421
100003.7214
100003.6929
100003.6588
100003.6251
100003.6286
100003.6792
100003.7496
100003.7604
100003.7682
100003.7833
100003.8015
100003.8193
100003.8327
100003.8434
100003.8506
100003.8508
100003.8465
100003.8454
100003.846
100003.8601
100003.8614
100003.9066
100003.894
100003.9074
100003.9352
100003.932
100003.9823
100003.9396
100003.9214
100003.9103
100003.8651
100003.7611
100003.7279
100003.7483
100003.727
100003.6934
100003.6465
100003.625
100003.634
100003.7058
100003.7801
100003.7757
100003.7939
100003.8198
100003.848
100003.8686
100003.8809
100003.8852
100003.8769
100003.8572
100003.8416
100003.8407
100003.8398
100003.8496
100003.8441
100003.8949
100003.8692
100003.8788
100003.8978
100003.8995
100003.9273
100003.9112
100003.8656
100003.8774
100003.8172
100003.7331
100003.6998
100003.7361
100003.7206
100003.6823
100003.634
100003.6169
100003.6454
100003.7473
100003.8133
100003.8271
100003.8574
100003.8884
100003.9354
100003.946
100003.9446
100003.9283
100003.8953
100003.859
100003.844
100003.8449
100003.8418
100003.8505
100003.8406
100003.897
100003.844
100003.8518
100003.8665
100003.8757
100003.8935
100003.8769
100003.8193
100003.8373
100003.7878
100003.691
100003.6492
100003.6382
100003.5976
100003.5892
100003.4756
100003.5922
100003.6431
100003.8206
100003.8488
100003.8818
100003.9202
100003.9529
100004.062
100004.044
100004.0227
100003.9733
100003.9136
100003.8718
100003.8586
100003.8552
100003.8491
100003.8578
100003.8482
100003.9115
100003.8189
100003.8265
100003.8413
100003.8522
100003.8445
100003.853
100003.7892
100003.7899
100003.7886
100003.7594
100003.6796
100003.6491
100003.6282
100003.7186
100003.1985
100003.5002
100003.62
100003.8403
100003.8517
100003.9054
100003.9864
100004.0114
100004.3496
100004.1721
100004.1177
100004.0203
100003.9419
100003.8972
100003.8802
100003.8728
100003.8639
100003.8725
100003.8626
100003.9346
100003.8012
100003.8047
100003.8149
100003.8087
100003.7847
100003.8029
100003.7539
100003.7517
100003.7339
100003.721
100003.666
100003.6403
100003.1763
100003.6214
100003.3802
100003.1647
100003.2612
100003.7957
100003.7958
100003.9123
100004.0635
100003.9871
100005.0676
100004.3213
100004.2025
100004.0556
100003.9735
100003.9293
100003.911
100003.8987
100003.8847
100003.8904
100003.8778
100003.9589
100003.7759
100003.7853
100003.7984
100003.8109
100003.7729
100004.0994
100003.7406
100003.7522
100003.7149
100003.7102
100003.7438
100003.7117
100003.506
100003.6588
100003.2653
100003.5888
100003.609
100003.8339
100003.8476
100003.9325
100004.1858
100004.0565
100004.9996
100004.3679
100004.2665
100004.0906
100004.0039
100003.9609
100003.9448
100003.9264
100003.9041
100003.9058
100003.8848
100003.973
100003.7389
100003.7825
100003.7954
100003.7796
100003.7451
100003.7346
100003.7193
100003.7228
100003.7299
100003.7325
100003.7561
100003.7524
100003.7264
100003.7576
100003.5959
100004.0911
100003.702
100003.8577
100003.8171
100003.8682
100003.9225
100003.9198
100004.1053
100004.0262
100004.0093
100003.9876
100003.9764
100003.9693
100003.967
100003.9436
100003.9144
100003.9132
100003.8873
100003.9704
100003.8238
100003.7978
100003.7935
100003.7901
100003.7708
100003.7717
100003.7379
100003.7373
100003.7439
100003.7565
100003.7234
100003.822
100003.8149
100003.871
100003.7093
100003.8568
100003.791
100003.859
100003.8547
100003.893
100003.9493
100003.9601
100004.1869
100004.0429
100004.0077
100003.9784
100003.9738
100003.9751
100003.9775
100003.9434
100003.9126
100003.9134
100003.8921
100003.9553
100002.7707
100003.7969
100003.7645
100003.8195
100003.8224
100003.8099
100003.7907
100003.7907
100003.8089
100003.8228
100003.8537
100003.843
100003.8239
100003.8146
100003.7966
100003.8331
100003.7986
100003.8336
100003.8441
100003.8593
100003.8802
100003.8917
100003.9038
100003.9018
100003.9198
100003.9333
100003.9498
100003.959
100003.9636
100003.916
100003.8777
100003.8821
100003.8441
100003.9006
100003.8073
100003.7723
100003.8029
100003.8118
100003.8291
100003.8417
100003.8457
100003.8379
100003.8363
100003.8434
100003.8462
100003.8601
100003.9102
100003.8669
100004.0552
100003.8477
100003.8965
100003.8358
100003.848
100003.854
100003.8657
100003.8794
100003.8782
100003.8763
100003.8415
100003.882
100003.8965
100003.9175
100003.9236
100003.923
100003.9156
100003.9052
100003.9014
100003.924
100003.9874
100003.7872
100003.7635
100003.7882
100003.818
100003.8256
100003.8508
100003.863
100003.8987
100003.8586
100003.8567
100003.8519
100003.8582
100003.8662
100003.8436
100003.8504
100003.8201
100003.8303
100003.8185
100003.8307
100003.8411
100003.8521
100003.8456
100003.8458
100003.8423
100003.8431
100003.8331
100003.8297
100003.8687
100003.8805
100003.893
100003.9001
100003.9112
100003.9385
100003.9879
100004.0285
100003.7664
100003.8234
100003.7842
100003.8091
100003.8131
100003.8266
100003.8666
100003.847
100003.8464
100003.8482
100003.8486
100003.8567
100003.88
100003.8697
100003.9161
100003.8518
100003.8629
100003.8689
100003.8503
100003.8469
100003.8346
100003.8029
100003.7338
100003.7179
100003.432
100003.6715
100003.6515
100003.845
100003.8669
100003.8974
100003.9269
100003.9582
100003.9961
100004.0056
100004.0203
100003.8198
100003.8553
100003.8729
100003.8253
100003.8151
100003.8154
100003.8217
100003.8243
100003.8238
100003.828
100003.8334
100003.8413
100003.8553
100003.8596
100003.8631
100003.8314
100003.8384
100003.8482
100003.8396
100003.8505
100003.8417
100003.8305
100003.7645
100003.7724
100003.2185
100003.827
100003.7375
100003.8336
100003.8374
100003.8945
100003.9428
100003.976
100003.9939
100003.9983
100004.0112
100003.8642
100003.8643
100003.8411
100003.8196
100003.8085
100003.8066
100003.8045
100003.8066
100003.814
100003.8224
100003.8321
100003.8481
100003.8632
100003.8712
100003.9087
100003.7986
100004.3232
100003.8534
100003.8928
100003.8294
100003.783
100003.5964
100003.4418
100002.8866
100002.5624
100003.1026
100003.7601
100003.7927
100003.9425
100003.9713
100003.9798
100003.986
100003.9856
100003.9971
100003.8763
100003.8731
100003.8452
100003.822
100003.8056
100003.7972
100003.7938
100003.7969
100003.8057
100003.8164
100003.8287
100003.845
100003.33
100003.7155
100003.7628
100003.892
100003.8962
100003.9446
100003.9568
100003.9638
100003.9726
100003.974
100003.987
100003.8473
100003.8265
100003.8074
100003.796
100003.792
100003.7955
100003.9243
100003.9295
100003.9235
100003.9209
100003.9176
100003.9146
100003.9107
100003.9064
100003.9017
100003.8971
100003.8928
100003.8892
100003.8864
100003.8847
100003.8841
100003.8845
100003.8859
100003.8877
100003.8903
100003.8936
100003.8974
100003.9015
100003.9055
100003.9094
100003.9136
100003.9184
100003.9248
100003.9333
100003.9443
100003.9579
100003.9736
100003.9925
100004.0083
100004.039
100003.872
100003.8851
100003.8771
100003.8767
100003.8748
100003.8725
100003.87
100003.8673
100003.8642
100003.861
100003.8581
100003.8558
100003.8542
100003.8535
100003.8536
100003.8542
100003.8552
100003.856
100003.8573
100003.8593
100003.8622
100003.8657
100003.8697
100003.8744
100003.8801
100003.8874
100003.8969
100003.9091
100003.924
100003.9412
100003.9596
100003.9792
100003.9946
100004.0198
100003.8151
100003.851
100003.8434
100003.846
100003.8438
100003.8409
100003.8385
100003.8363
100003.8342
100003.8319
100003.8296
100003.8279
100003.8271
100003.8273
100003.8283
100003.8298
100003.8317
100003.8321
100003.833
100003.8349
100003.8377
100003.8411
100003.8454
100003.8507
100003.8574
100003.8662
100003.8776
100003.892
100003.9093
100003.9288
100003.9489
100003.9692
100003.984
100004.0016
100003.7986
100003.8182
100003.8149
100003.8166
100003.8133
100003.8094
100003.8068
100003.8048
100003.8034
100003.8018
100003.8002
100003.799
100003.7987
100003.7996
100003.8015
100003.8042
100003.8078
100003.8072
100003.8078
100003.8094
100003.812
100003.8154
100003.8197
100003.8252
100003.8323
100003.8417
100003.854
100003.8697
100003.8887
100003.9103
100003.9326
100003.9547
100003.9705
100003.9858
100003.7887
100003.7969
100003.7955
100003.795
100003.7906
100003.7857
100003.7827
100003.7805
100003.7795
100003.7783
100003.777
100003.776
100003.7757
100003.7766
100003.7783
100003.7806
100003.7832
100003.7844
100003.7859
100003.7881
100003.7909
100003.7945
100003.799
100003.8048
100003.8123
100003.822
100003.8346
100003.8508
100003.8706
100003.8933
100003.9172
100003.9409
100003.9585
100003.9737
100003.7822
100003.7864
100003.7857
100003.7833
100003.7767
100003.77
100003.7664
100003.7641
100003.7644
100003.7626
100003.7611
100003.7599
100003.7592
100003.7596
100003.7608
100003.7625
100003.7645
100003.7662
100003.7683
100003.7708
100003.7739
100003.7777
100003.7825
100003.7885
100003.7963
100003.8061
100003.8183
100003.8342
100003.854
100003.8771
100003.9014
100003.926
100003.9441
100003.9602
100003.7808
100003.7852
100003.7853
100003.7809
100003.775
100003.768
100003.7629
100003.7574
100003.7548
100003.754
100003.753
100003.7515
100003.7501
100003.7496
100003.7495
100003.7499
100003.751
100003.7526
100003.7549
100003.7577
100003.7609
100003.7648
100003.7697
100003.7759
100003.7838
100003.7936
100003.8059
100003.8212
100003.8406
100003.8636
100003.8881
100003.9132
100003.9316
100003.9479
100003.7871
100003.7925
100003.7937
100003.7903
100003.7882
100003.78
100003.7725
100003.7619
100003.7554
100003.7531
100003.7529
100003.7511
100003.7486
100003.7467
100003.7444
100003.7426
100003.7421
100003.743
100003.7452
100003.7482
100003.7517
100003.7557
100003.7606
100003.7666
100003.7743
100003.7842
100003.7965
100003.8116
100003.8309
100003.8539
100003.8783
100003.9037
100003.9219
100003.938
100003.8005
100003.8082
100003.8136
100003.8106
100003.8165
100003.8023
100003.792
100003.7754
100003.7652
100003.7613
100003.761
100003.7592
100003.755
100003.7506
100003.7453
100003.7402
100003.7373
100003.7369
100003.7387
100003.742
100003.7459
100003.75
100003.7549
100003.7605
100003.7679
100003.7776
100003.79
100003.8054
100003.8248
100003.8481
100003.8727
100003.8983
100003.9165
100003.9319
100003.82
100003.8316
100003.8462
100003.8393
100003.8625
100003.831
100003.8192
100003.7957
100003.7834
100003.779
100003.7774
100003.7754
100003.7669
100003.7579
100003.7495
100003.7412
100003.7361
100003.7343
100003.7354
100003.7388
100003.7431
100003.7475
100003.7522
100003.7572
100003.7643
100003.774
100003.7864
100003.8022
100003.8222
100003.8459
100003.8705
100003.8962
100003.9143
100003.9288
100003.8436
100003.861
100003.8908
100003.8777
100003.9367
100003.8661
100003.8566
100003.8232
100003.8105
100003.8059
100003.8016
100003.7954
100003.7759
100003.7579
100003.7482
100003.7401
100003.7356
100003.7345
100003.7358
100003.739
100003.7434
100003.748
100003.7525
100003.7569
100003.7635
100003.7729
100003.7854
100003.8018
100003.8222
100003.8461
100003.8699
100003.8948
100003.9115
100003.9246
100003.8684
100003.8932
100003.9481
100003.9253
100004.0582
100003.9108
100003.9103
100003.8594
100003.8461
100003.8376
100003.8279
100003.8098
100003.7776
100003.7565
100003.7476
100003.739
100003.7358
100003.737
100003.7401
100003.7439
100003.7476
100003.752
100003.7563
100003.7599
100003.7667
100003.7751
100003.7875
100003.804
100003.8242
100003.8471
100003.8683
100003.8913
100003.9044
100003.9167
100003.8901
100003.9226
100004.011
100003.9756
100004.2393
100003.9628
100003.9799
100003.9007
100003.8833
100003.8665
100003.8462
100003.8137
100003.7791
100003.7613
100003.7508
100003.7378
100003.7356
100003.7417
100003.7485