/*--------------------------------*- C++ -*----------------------------------*\
  =========                 |
  \\      /  F ield         | OpenFOAM: The Open Source CFD Toolbox
   \\    /   O peration     | Website:  https://openfoam.org
    \\  /    A nd           | Version:  8
     \\/     M anipulation  |
\*---------------------------------------------------------------------------*/
FoamFile
{
    version     2.0;
    format      ascii;
    class       scalarField;
    location    "1.8/lagrangian/reactingCloud1";
    object      age;
}
// * * * * * * * * * * * * * * * * * * * * * * * * * * * * * * * * * * * * * //


126
(
0.2499550578
0.2476829373
0.2473028029
0.2463516177
0.2459716864
0.2451191992
0.2429707857
0.2425116995
0.2419649309
0.2415125306
0.2275555926
0.2271272442
0.2271272442
0.2256762482
0.2229415303
0.2219105502
0.2196281384
0.2185972717
0.2182015448
0.2144019592
0.210572358
0.2059889921
0.2018082726
0.1995302673
0.2471124495
0.1946707582
0.2477779232
0.2042193027
0.2250992539
0.1982579552
0.2274135535
0.1755337382
0.1748741116
0.1901096909
0.1612974464
0.2124364944
0.1780932364
0.2153115566
0.211598371
0.2103279187
0.2173830866
0.1701613393
0.2407935163
0.2092601048
0.2084484917
0.1481562897
0.164102459
0.1501628018
0.1142979241
0.113921663
0.1136206541
0.1224942226
0.1219582863
0.1226655325
0.1123124501
0.1201290326
0.1106098807
0.1101043317
0.1097014968
0.109105243
0.1072496766
0.1067699715
0.2343947749
0.1189958038
0.1038120683
0.1027353772
0.1020951826
0.1014258881
0.1010475913
0.1004073966
0.0999704579
0.0995863494
0.1231470869
0.09899502501
0.09813703663
0.09751545195
0.09493931895
0.09408054158
0.09363641178
0.09224503923
0.08887151598
0.08798400407
0.1181981335
0.1096745482
0.1040448664
0.07008682316
0.06751737222
0.08405128246
0.06555226463
0.06515431869
0.06449873619
0.0607718025
0.1996872551
0.2467317429
0.1200273067
0.06403033578
0.2373822349
0.04645197136
0.07004005184
0.04477438358
0.07204622108
0.04134043441
0.248062881
0.1135203177
0.06004436308
0.1856382698
0.1815372893
0.09588693536
0.02734144434
0.2193732275
0.1996872551
0.05003197968
0.2109469464
0.09864006268
0.02030651067
0.04003893813
0.08771783397
0.1386305122
0.03208129327
0.0131717907
0.09955678978
0.08003237709
0.02808984154
0.1739296803
0.0300855674
0.1897058587
)


// ************************************************************************* //
