/*--------------------------------*- C++ -*----------------------------------*\
  =========                 |
  \\      /  F ield         | OpenFOAM: The Open Source CFD Toolbox
   \\    /   O peration     | Website:  https://openfoam.org
    \\  /    A nd           | Version:  8
     \\/     M anipulation  |
\*---------------------------------------------------------------------------*/
FoamFile
{
    version     2.0;
    format      ascii;
    class       scalarField;
    location    "1.8/lagrangian/reactingCloud1";
    object      d;
}
// * * * * * * * * * * * * * * * * * * * * * * * * * * * * * * * * * * * * * //


126
(
0.0008152325116
0.00098843301
0.0005599482459
0.0007766928132
0.0005701707177
0.0007677139732
0.001088070239
0.0006532976282
0.0007005168229
0.0006819192539
0.0007983696265
0.0006850986111
0.0006326076717
0.0005322388684
0.0006012222707
0.001095608298
0.0005076926026
0.0008369074052
0.001056081987
0.0005148438807
0.001101941221
0.000774625838
0.00059870943
0.0009987472802
0.0005106728316
0.0006735200017
0.0005897284902
0.001013159963
0.0005229638781
0.001079517179
0.0005046288517
0.0009051639926
0.0005263981898
0.0010238286
0.0006269447177
0.0008360779192
0.0009958626345
0.0007536054643
0.0005262765102
0.0006339923465
0.000743927162
0.0008821999386
0.001002573067
0.0005870379264
0.0005445437915
0.0007190552656
0.0007703243993
0.0009036278942
0.0008628293842
0.0005398100285
0.0005024124484
0.0005303089386
0.0007682525413
0.0007745705433
0.0008283353735
0.001004951516
0.0008907809922
0.0005895893902
0.0005441147299
0.000618010942
0.0008982024474
0.000576447648
0.0006288177801
0.0006855429825
0.001035868636
0.0007445044238
0.0006248934187
0.0006328282245
0.0005232357339
0.0006189195734
0.0005481650781
0.0005210367794
0.0009508009289
0.0005911114442
0.0006664293631
0.0005923430939
0.0009208682284
0.000634194334
0.0005059930105
0.000721850824
0.0009225920591
0.0005776957509
0.0005316617117
0.0005718688557
0.0005091584852
0.001198197942
0.0005118607698
0.0006793931064
0.0007819127826
0.0006423601368
0.0005298021088
0.0007413046884
0.001157474487
0.0005218808504
0.0006895470064
0.0009004955051
0.0005349872093
0.0009014753975
0.001134489781
0.0008011401
0.0005324230473
0.0007550400969
0.001069276583
0.0006711407057
0.0006575140475
0.0005858459327
0.0006103275135
0.0007802988997
0.0009068670067
0.001136688786
0.00119877496
0.0007215256633
0.0005113215736
0.0005159993845
0.0007959481728
0.000877008831
0.0008345603007
0.0008803736221
0.0005086276528
0.0005735753434
0.00087844051
0.000754398436
0.0008749823519
0.0007468425502
0.001116264143
0.000622127734
)


// ************************************************************************* //
