/*--------------------------------*- C++ -*----------------------------------*\
  =========                 |
  \\      /  F ield         | OpenFOAM: The Open Source CFD Toolbox
   \\    /   O peration     | Website:  https://openfoam.org
    \\  /    A nd           | Version:  8
     \\/     M anipulation  |
\*---------------------------------------------------------------------------*/
FoamFile
{
    version     2.0;
    format      ascii;
    class       scalarField;
    location    "1.8/lagrangian/reactingCloud1";
    object      mass0;
}
// * * * * * * * * * * * * * * * * * * * * * * * * * * * * * * * * * * * * * //


126
(
2.821323538e-07
5.02863532e-07
9.142228767e-08
2.439811526e-07
9.652129659e-08
2.356170721e-07
6.707786233e-07
1.451916576e-07
1.790045734e-07
1.651228886e-07
2.649844793e-07
1.674432635e-07
1.318292502e-07
7.851057895e-08
1.131653829e-07
6.84816723e-07
6.814138007e-08
3.052394417e-07
6.133400497e-07
7.106161677e-08
6.96760796e-07
2.420384457e-07
1.117523627e-07
5.18770471e-07
6.93484372e-08
1.590962383e-07
1.067983999e-07
5.44543628e-07
7.447722654e-08
6.586994419e-07
6.69151799e-08
3.861803994e-07
7.595416272e-08
5.61927639e-07
1.283205349e-07
3.043327425e-07
5.171266686e-07
2.228643148e-07
7.59015031e-08
1.326968041e-07
2.143876014e-07
3.595006599e-07
5.2475492e-07
1.053432952e-07
8.408273908e-08
1.946639068e-07
2.393423683e-07
3.863380723e-07
3.344900466e-07
8.190893219e-08
6.603734328e-08
7.765961988e-08
2.361132912e-07
2.419866174e-07
2.959559274e-07
5.284984865e-07
3.68062221e-07
1.067228459e-07
8.388414216e-08
1.229127433e-07
3.773385017e-07
9.974428765e-08
1.29474087e-07
1.67769298e-07
5.787919324e-07
2.148870611e-07
1.270650965e-07
1.319671813e-07
7.4593435e-08
1.234556786e-07
8.577140258e-08
7.365692102e-08
4.475867384e-07
1.075515122e-07
1.54124184e-07
1.082252024e-07
4.066313761e-07
1.328236747e-07
6.745932194e-08
1.95862272e-07
4.089192495e-07
1.003935792e-07
7.825544655e-08
9.738627504e-08
6.911265541e-08
8.957650764e-07
6.983352342e-08
1.641957947e-07
2.489335067e-07
1.380206805e-07
7.743716873e-08
2.121283232e-07
8.075003138e-07
7.401547021e-08
1.716683585e-07
3.823343081e-07
7.973309363e-08
3.814784898e-07
7.645403079e-07
2.677526817e-07
7.902584758e-08
2.241395345e-07
6.366175199e-07
1.57416104e-07
1.488379671e-07
1.047028916e-07
1.183851594e-07
2.473952755e-07
3.883642312e-07
7.647740525e-07
8.970598255e-07
1.966771791e-07
6.961306712e-08
7.154115854e-08
2.625806922e-07
3.531917266e-07
3.026785077e-07
3.553116794e-07
6.889671676e-08
9.826069688e-08
3.529762496e-07
2.248024087e-07
3.507490496e-07
2.169179933e-07
7.282819494e-07
1.253854392e-07
)


// ************************************************************************* //
