/*--------------------------------*- C++ -*----------------------------------*\
  =========                 |
  \\      /  F ield         | OpenFOAM: The Open Source CFD Toolbox
   \\    /   O peration     | Website:  https://openfoam.org
    \\  /    A nd           | Version:  8
     \\/     M anipulation  |
\*---------------------------------------------------------------------------*/
FoamFile
{
    version     2.0;
    format      ascii;
    class       labelField;
    location    "1.8/lagrangian/reactingCloud1";
    object      origId;
}
// * * * * * * * * * * * * * * * * * * * * * * * * * * * * * * * * * * * * * //


126
(
492
493
494
495
496
497
498
499
500
501
502
503
504
505
506
507
508
509
510
511
514
515
517
518
1174
519
1173
873
1185
878
1182
521
522
882
524
1198
888
1195
1199
1201
1194
892
1175
1202
1203
903
895
902
527
528
529
1266
1269
1265
530
1274
531
532
533
534
535
536
1177
1276
537
538
539
540
541
542
543
544
1263
545
546
547
548
549
550
551
552
553
1279
1284
928
556
557
938
559
560
561
563
1211
748
917
955
757
565
952
566
951
567
1172
1282
957
795
798
1295
568
1192
779
962
513
1292
569
967
1307
828
971
570
1291
941
973
803
972
791
)


// ************************************************************************* //
