/*--------------------------------*- C++ -*----------------------------------*\
  =========                 |
  \\      /  F ield         | OpenFOAM: The Open Source CFD Toolbox
   \\    /   O peration     | Website:  https://openfoam.org
    \\  /    A nd           | Version:  8
     \\/     M anipulation  |
\*---------------------------------------------------------------------------*/
FoamFile
{
    version     2.0;
    format      ascii;
    class       Cloud<basicReactingMultiphaseParcel>;
    location    "1.8/lagrangian/reactingCloud1";
    object      positions;
}
// * * * * * * * * * * * * * * * * * * * * * * * * * * * * * * * * * * * * * //

126
(
(0.1131689148 0.7240500661 0.02833654047 0.1344444785) 414 1227 2
(0.09133774319 0.6572402678 0.08073601789 0.1706859711) 1264 3722 2
(0.1664631309 0.1872717859 0.553602964 0.09266211918) 1296 3719 1
(0.6967744968 0.0219927884 0.05331488244 0.2279178324) 1297 3816 1
(0.1913173592 0.03464247899 0.541927727 0.2321124348) 1297 3816 1
(0.5966231252 0.2117156238 0.1540740375 0.03758721347) 1330 3917 2
(0.4582938287 0.02185343192 0.01664982427 0.5032029151) 1364 4020 2
(0.1470019827 0.2840585523 0.4285806571 0.1403588079) 1396 4115 1
(0.3770408702 0.1751998219 0.3706362084 0.07712309952) 2380 4115 1
(0.5648193197 0.2454622704 0.1784170949 0.01130131503) 2380 6998 2
(0.5497550536 0.04894447948 0.3299076057 0.0713928612) 4953 14530 2
(0.1245563225 0.2182305907 0.2829881239 0.3742249629) 4983 14618 1
(0.09856041654 0.6918080566 0.2068713315 0.002760195394) 4984 14621 1
(0.1986196118 0.2246142046 0.06386675265 0.512899431) 7072 17921 1
(0.1120154936 0.3546489288 0.2482090004 0.2851265772) 6140 18012 2
(0.1100762421 0.1535836113 0.6817320382 0.05460810836) 6245 15491 1
(0.5009780111 0.05123125417 0.1224409171 0.3253498176) 7101 20828 2
(0.8920631654 0.05215167948 0.02730368089 0.02848147423) 6213 18223 2
(0.4834738759 0.04145395653 0.3393046101 0.1357675575) 6890 20118 2
(0.5904153659 0.03765326672 0.2251704613 0.1467609061) 8030 23554 1
(0.3998191328 0.4393369291 0.1253775266 0.03546641148) 8134 23862 1
(0.01025701205 0.5560513259 0.3020413057 0.1316503563) 9061 23766 2
(0.191391506 0.0932003538 0.2168970411 0.4985110992) 10788 31632 1
(0.004036631137 0.05160672456 0.2919639139 0.6523927304) 9889 28998 2
(0.4344702691 0.1453241028 0.402625051 0.01758057715) 2210 3610 2
(0.003163142647 0.0590751724 0.1614641355 0.7762975495) 11790 31790 1
(0.2394049449 0.6286341577 0.09726237506 0.03469852238) 2210 6489 1
(0.4599931412 0.0957891501 0.3891777131 0.05503999563) 5634 16547 1
(0.1843165278 0.4383850939 0.2920797432 0.08521863514) 5493 16129 2
(0.295686336 0.5212940368 0.141004622 0.04201500514) 6531 19167 2
(0.6591803586 0.128549274 0.1225343913 0.08973597614) 5398 15748 1
(0.4476269632 0.1879116597 0.3012422937 0.06321908336) 14488 39780 1
(0.5267425167 0.3684970938 0.09782334112 0.006937048322) 14485 39771 1
(0.2265312921 0.2750139184 0.4265756418 0.07187914775) 4328 12612 1
(0.4490372669 0.1407998889 0.2063329306 0.2038299137) 16290 47720 2
(0.1613802975 0.124211339 0.5670011823 0.1474071812) 8187 24019 1
(0.01536706305 0.3528452981 0.559677379 0.07211025977) 13075 38322 2
(0.08924620299 0.3790277239 0.1165417635 0.4151843096) 7228 21205 2
(0.4179917 0.3313935247 0.07013268538 0.1804820899) 8189 23931 2
(0.2468078232 0.2287756918 0.1589871128 0.3654293722) 8189 24025 2
(0.4261616542 0.2046121149 0.135776547 0.2334496839) 7198 18299 1
(0.1307681512 0.3481201706 0.2542379585 0.2668737197) 12173 35582 2
(0.07974350861 0.1686681495 0.3487088022 0.4028795397) 2183 6413 1
(0.3908486968 0.1455554825 0.002708994965 0.4608868258) 8159 23936 1
(0.1008997336 0.2867988325 0.06345389014 0.5488475438) 8161 23848 2
(0.1074880111 0.009489468184 0.2346032511 0.6484192695) 21259 62677 2
(0.02959840236 0.3224785364 0.6425956385 0.005327422678) 9990 29296 2
(0.08290465621 0.01210185216 0.7166772989 0.1883161927) 15655 45866 2
(0.04731811465 0.04536672979 0.3095449863 0.5977701693) 20884 61326 2
(0.3050409476 0.3132369453 0.2518924866 0.1298296205) 20947 61603 2
(0.3004683717 0.1625959605 0.1304120348 0.406523633) 20947 61603 2
(0.5326187735 0.2811394637 0.06472948649 0.1215122763) 20067 58798 2
(0.08823614313 0.05709060697 0.2079541761 0.6467190738) 20095 58791 1
(0.1751952603 0.2046008352 0.2488528797 0.3713510248) 20066 58795 1
(0.1279771138 0.3657366321 0.405348145 0.1009381091) 21869 64611 1
(0.4089955682 0.1500725496 0.07725730786 0.3636745743) 21014 58881 2
(0.8191081452 0.03365795031 0.1210817348 0.0261521697) 55807 169460 1
(0.3004336415 0.1003284132 0.4143603061 0.1848776393) 21868 64603 2
(0.009602758802 0.1464715779 0.6297868811 0.2141387822) 55707 64603 2
(0.05205776114 0.03109529363 0.8448204319 0.07202651332) 55707 169206 1
(0.6270054229 0.0841484525 0.2722193415 0.01662678309) 55705 169189 2
(0.1082664781 0.4053184411 0.1660647968 0.320350284) 55704 169197 1
(0.4229776468 0.01246607977 0.5401657894 0.02439048403) 3327 9772 1
(0.2490280749 0.6465871825 0.07401115806 0.03037358453) 20107 58917 1
(0.06877818008 0.05547568841 0.3906844248 0.4850617067) 55704 169199 1
(0.02088418297 0.1694530412 0.218236548 0.5914262278) 22759 67568 2
(0.3948478669 0.04669786042 0.3919832062 0.1664710665) 56573 67568 2
(0.5850471258 0.1935917264 0.2143800705 0.006981077277) 56573 171359 1
(0.585677677 0.2685121308 0.003933427719 0.1418767644) 56573 171359 1
(0.650881351 0.2258371713 0.1023840844 0.02089739326) 56573 171360 1
(0.4782305983 0.2155526468 0.1964536582 0.1097630967) 56573 171360 1
(0.3320246713 0.2275548951 0.2520962009 0.1883242326) 56573 171360 1
(0.3657827482 0.000982953308 0.4387123444 0.194521954) 20024 58670 1
(0.120082506 0.3208130065 0.221565664 0.3375388235) 56573 171360 1
(0.1790536162 0.2466705002 0.353596485 0.2206793986) 56577 171360 1
(0.4277902177 0.03816578833 0.2309718239 0.3030721701) 56577 171360 1
(0.3374871248 0.2775193263 0.2107042781 0.1742892709) 56577 171366 1
(0.08661556509 0.430681138 0.1390221873 0.3436811097) 56577 171366 1
(0.04435262201 0.4861476466 0.3935507184 0.07594901303) 56576 171366 1
(0.04932814431 0.09177432294 0.4487854959 0.4101120368) 23681 70721 1
(0.2091712936 0.5303115771 0.2545176639 0.005999465355) 23681 70721 2
(0.3485168954 0.01669386554 0.4100629767 0.2247262623) 23681 70723 2
(0.5089254699 0.07101190414 0.237101719 0.182960907) 20088 58861 1
(0.3118177789 0.3734364761 0.101205045 0.2135407001) 21005 61854 2
(0.2188714956 0.2398544487 0.1494720908 0.3918019649) 61325 183005 1
(0.03150678267 0.1287199785 0.6422795367 0.1974937021) 58338 175525 1
(0.1466417733 0.09286699872 0.5585660866 0.2019251414) 58331 175732 1
(0.4084194255 0.2682052423 0.2665397165 0.05683561578) 33890 105507 1
(0.02029664791 0.155120511 0.5532745833 0.2713082577) 59120 175511 1
(0.5572815963 0.02202297612 0.2410180426 0.179677385) 14622 42749 2
(0.3651382095 0.08456167978 0.1279224265 0.4223776842) 13685 40001 2
(0.6155754729 0.12632178 0.09165925983 0.1664434874) 58938 177209 2
(0.002365630183 0.09059516475 0.4403757392 0.4666634659) 10021 29385 1
(0.06749301018 0.02704918756 0.06179571416 0.8436620881) 1983 5820 2
(0.1765076462 0.06027115818 0.3592832801 0.4039379155) 58992 76750 2
(0.4516682467 0.2099450298 0.1006054193 0.2377813041) 38501 120087 1
(0.4551124352 0.3052182062 0.1956123793 0.04405697934) 3975 11660 2
(0.1281790315 0.0747277297 0.01800780671 0.779085432) 58946 79812 1
(0.03515069105 0.03067356201 0.2159028897 0.7182728572) 36522 114205 2
(0.06306485483 0.2853235866 0.5514614594 0.1001500992) 54791 166857 2
(0.2442631024 0.09367156007 0.6116081744 0.05045716314) 65682 193786 2
(0.06071175484 0.6109071235 0.2455296216 0.0828515001) 26363 79808 2
(0.4420360656 0.1589912638 0.3475077013 0.05146496936) 1204 3446 1
(0.248636009 0.2300843804 0.2202550671 0.3010245435) 21013 61762 1
(0.3226639729 0.2520278833 0.3989282337 0.02637990999) 36530 114229 1
(0.2109618766 0.1209636 0.2235875204 0.4444870031) 12587 36873 2
(0.07635778658 0.006503543703 0.04889174317 0.8682469265) 12587 36874 1
(0.2378029127 0.4243369755 0.2316152814 0.1062448304) 22920 68310 1
(0.3343928016 0.1191335924 0.3884636124 0.1580099936) 54627 166421 2
(0.002692907813 0.6266885064 0.001065502369 0.3695530835) 6149 18039 1
(0.4543776019 0.02401928295 0.02029306812 0.5013100471) 9767 28638 1
(0.3820080087 0.1404828998 0.4462774779 0.03123161355) 38347 119635 2
(0.2460930856 0.1643537474 0.2001980241 0.3893551429) 8782 25750 1
(0.05016910314 0.2074914588 0.1399359162 0.6024035219) 22920 65153 1
(0.6605897969 0.13833071 0.01667548002 0.1844040131) 54625 166428 1
(0.2048401207 0.05550827104 0.03920815662 0.7004434517) 40130 124859 1
(0.3440138753 0.0299215128 0.3367987167 0.2892658952) 57707 174194 2
(0.08917389582 0.1802115648 0.5572250276 0.1733895118) 18961 52866 1
(0.1547484166 0.06386231909 0.4317298544 0.3496594099) 42914 133004 1
(0.1378590711 0.2136953075 0.4743724726 0.1740731488) 54625 166430 1
(0.3853133378 0.3368029693 0.1931879122 0.08469578074) 57042 68168 2
(0.5158715751 0.2482068254 0.1858584106 0.05006318897) 67205 107676 2
(0.446391089 0.08786806862 0.01085319817 0.4548876442) 42884 132915 1
(0.1012902813 0.4698492047 0.3955715598 0.03328895428) 14415 206143 1
(0.1307559295 0.02604152776 0.09618807734 0.7470144654) 41982 208122 2
(0.009125990002 0.02576546465 0.2122786795 0.7528298658) 11646 34123 1
)


// ************************************************************************* //
