/*--------------------------------*- C++ -*----------------------------------*\
  =========                 |
  \\      /  F ield         | OpenFOAM: The Open Source CFD Toolbox
   \\    /   O peration     | Website:  https://openfoam.org
    \\  /    A nd           | Version:  8
     \\/     M anipulation  |
\*---------------------------------------------------------------------------*/
FoamFile
{
    version     2.0;
    format      ascii;
    class       scalarField;
    location    "1.8/lagrangian/reactingCloud1";
    object      T;
}
// * * * * * * * * * * * * * * * * * * * * * * * * * * * * * * * * * * * * * //


126
(
299.9999911
299.9999912
299.9999913
299.9999913
299.9999913
299.9999913
299.9999915
299.9999915
299.9999916
299.9999916
299.9999929
299.999994
299.999993
299.9999931
299.9999946
299.999994
299.9999949
299.9999944
299.9999936
299.9999951
299.9999948
299.9999965
299.9999995
299.9999948
299.9999994
299.9999948
299.9999994
300
299.9999991
300
299.999999
299.9999888
299.999989
300
299.9999962
299.9999992
300
299.9999991
299.9999993
299.9999993
299.999999
300
299.9999978
299.9999993
299.9999993
300
300
300
299.9999948
299.9999949
299.9999949
299.9999978
299.9999977
299.9999977
299.999995
299.999997
299.9999951
299.9999951
299.9999951
299.9999952
299.9999954
299.9999954
299.999999
299.9999957
299.9999957
299.9999959
299.9999959
299.999996
299.999996
299.9999961
299.9999961
299.9999962
299.9999976
299.9999962
299.9999963
299.9999963
299.9999965
299.9999965
299.9999966
299.9999966
299.9999968
299.9999968
299.9999942
299.9999917
300
299.9999967
299.9999975
300
299.999999
299.9999944
299.9999986
299.999995
299.9999992
299.9999967
300
300
299.9999965
299.9999949
300
299.9999976
300
299.9999949
299.9999968
299.9999927
300
299.9999959
299.9999959
299.9999979
299.9999952
299.9999989
299.9999965
300
299.9999953
299.999998
299.9999952
300
299.9999958
299.9999963
300
299.999996
299.9999979
300
300
299.9999967
300
299.9999958
)


// ************************************************************************* //
