/*--------------------------------*- C++ -*----------------------------------*\
  =========                 |
  \\      /  F ield         | OpenFOAM: The Open Source CFD Toolbox
   \\    /   O peration     | Website:  https://openfoam.org
    \\  /    A nd           | Version:  8
     \\/     M anipulation  |
\*---------------------------------------------------------------------------*/
FoamFile
{
    version     2.0;
    format      ascii;
    class       vectorField;
    location    "1.8/lagrangian/reactingCloud1";
    object      U;
}
// * * * * * * * * * * * * * * * * * * * * * * * * * * * * * * * * * * * * * //


126
(
(0.08121548942 0.2853058447 -2.355270707)
(0.05919482401 0.1656642338 -2.309728619)
(0.0139947685 0.1719212225 -2.163075337)
(0.05538555134 0.1956546307 -2.288431997)
(0.03322018494 0.2054229222 -2.220299758)
(0.06797701602 0.2296719652 -2.304853979)
(0.1003844325 0.2819315979 -2.336374562)
(0.06417591764 0.2877415745 -2.268445651)
(0.06487209239 0.2961916755 -2.250986504)
(0.05709286844 0.2956196419 -2.22067802)
(-0.08347790066 -0.06616660291 -2.101313547)
(-0.117036289 -0.01170645106 -2.055336666)
(-0.09659806828 -0.06440751045 -2.070881853)
(-0.03652705391 0.1507943543 -1.916977167)
(-0.08105684422 0.2323667532 -1.985442448)
(0.2625889264 0.3035226276 -2.15405752)
(-0.103371469 0.2208999318 -1.918438276)
(0.2376475443 0.2560049752 -2.134377137)
(-0.09130662606 -0.1057175771 -2.064318937)
(-0.1131385712 0.2009976676 -1.885119476)
(0.2780499163 0.2610701157 -2.060348099)
(0.1997945146 0.2213745694 -2.002583555)
(0.0435060994 -0.03085098572 -1.672413746)
(-0.09460453028 0.09830061079 -1.875617938)
(-0.4257022538 0.1157548644 -2.011405663)
(-0.09596244827 0.1141631358 -1.788847619)
(-0.4502025999 0.1017524246 -2.05999434)
(-0.2705437918 1.006886864 -3.162693057)
(-0.5956304141 0.472895015 -1.798365829)
(-0.4641411134 0.9350380568 -3.20513746)
(-0.486395707 0.357311718 -1.856155406)
(1.258710312 0.001709731309 -1.537373771)
(-0.7669918526 -0.002250266233 -1.436710846)
(-0.4742031845 0.5990293499 -3.399474196)
(0.1247623248 -0.05768005887 -1.395623171)
(-0.5980392342 0.3474233553 -1.970046916)
(-0.6272896018 0.8966118306 -2.928506568)
(-0.5488475974 0.3215858891 -2.029244075)
(-0.4915589777 0.2979024816 -1.926046167)
(-0.5081190988 0.3170057194 -1.941812382)
(-0.4811422838 0.2911604024 -2.03893253)
(0.02480065234 0.93446484 -3.147589941)
(-0.287416275 0.09240168048 -2.203366228)
(-0.4312347641 0.2930331167 -1.935550419)
(-0.3658558287 0.2759247299 -1.95417163)
(-0.5689731553 0.9915437195 -2.619697166)
(-0.05797090879 0.5054889364 -3.339121447)
(-0.1185603901 0.8054292312 -3.095322207)
(-0.02526296652 -0.01742112623 -1.11500872)
(0.2219769247 0.1316721296 -1.145384009)
(0.2151902958 0.1377624457 -1.147832801)
(-1.824706187 0.2513378438 -1.130501353)
(2.148016499 0.3126256934 -1.137617722)
(-2.071077396 0.2733650641 -1.153701447)
(0.2375794966 0.1496777304 -1.115617224)
(-2.270341636 0.3835146011 -1.139065997)
(0.2056264791 0.1368996306 -1.091346042)
(0.166744979 0.118098949 -1.085474226)
(0.1530866175 0.1117128487 -1.08033535)
(0.1498154424 0.1088786427 -1.0732503)
(0.1371733733 0.1011893228 -1.053497371)
(0.1060735169 0.08713783534 -1.047947844)
(-0.3432940634 0.2884528388 -2.173503711)
(-1.408407441 0.313422029 -1.181051599)
(0.09512415658 0.07706667955 -1.018500709)
(0.07277185687 0.06471423962 -1.007253615)
(0.06356668451 0.06196768321 -1.002211936)
(0.05962499223 0.06015788435 -0.9961647216)
(0.05289803465 0.06018142264 -0.9942447747)
(0.05348077214 0.05824439115 -0.9868581392)
(0.04876119398 0.05828584795 -0.9836100399)
(0.04585043621 0.05819742456 -0.9803287721)
(-0.9837329834 0.1620562596 -1.229562267)
(0.04622109832 0.05661140619 -0.9733997235)
(0.04501284012 0.05495860764 -0.9641975387)
(0.04071158457 0.05515710148 -0.9584381758)
(0.03907072984 0.05124464807 -0.931398401)
(0.03205123393 0.05308141586 -0.9240899849)
(0.02791009602 0.0549470078 -0.9222637936)
(0.02986311689 0.05216851542 -0.9061519074)
(0.02721906027 0.05045169309 -0.872947622)
(0.02160907745 0.05349168113 -0.8685944881)
(-0.6351465837 0.2692876426 -1.253568424)
(-0.7775689826 0.2800814352 -1.161533476)
(-0.4656784064 0.7053958624 -2.629213118)
(0.02825885693 0.04095640742 -0.6884886009)
(-0.09751546419 0.05526991081 -0.6858417746)
(-0.4020355641 1.045464949 -2.274982409)
(-0.1682327143 0.001214247431 -0.6440733512)
(-0.01359868721 0.5474920299 -2.770639414)
(-0.01328655375 0.4058003983 -2.620459882)
(-0.06233214145 -0.1443644747 -0.5923470278)
(-0.299317804 0.2726615197 -1.952738159)
(-0.1257705581 0.08775257665 -1.916075959)
(-0.948517321 0.273391047 -2.676591901)
(-0.2477832033 1.292243231 -1.980483704)
(-0.1903626696 0.1372938072 -1.940167653)
(-0.04570699029 -0.1745401433 -0.4534214774)
(-1.150270852 0.553242 -2.10095207)
(0.5086797676 -0.006932458237 -0.4390570137)
(-0.3000264313 0.5257547863 -2.524287283)
(-0.03069813965 -0.1762236331 -0.4036129425)
(-0.08472487091 0.05433999621 -2.210166311)
(-0.2111413648 0.2792738588 -1.178456809)
(-0.2217327427 0.6734413027 -2.394146335)
(-0.2526101703 0.2749934545 -1.686327775)
(-0.2577168702 0.2895702473 -1.672173554)
(-0.5788113325 0.6956477877 -0.9968929991)
(0.01989410459 -0.2212906685 -0.2671259444)
(-0.2173628271 0.1797568295 -2.083162233)
(-0.2714791488 0.2822861902 -1.896791393)
(-0.07181041755 0.7185281941 -2.306605276)
(-0.08673476654 -0.03777938408 -1.864353806)
(-0.4734329077 0.5861400515 -1.060076562)
(0.03099819097 -0.2527982497 -0.198700862)
(-0.4913014122 0.4648027119 -2.236837002)
(-0.3286033013 0.3166058073 -0.9054073247)
(-0.2602852733 0.3284812345 -1.350085372)
(-0.02097175944 1.171286052 -1.848534957)
(-0.1801683804 -0.2942518926 -0.1285345231)
(-0.4735538116 0.5616642622 -1.010733622)
(-1.183520751 0.285382972 -2.185210977)
(0.2163704369 0.9777503993 -1.980813789)
(-0.2648880555 0.2793520443 -1.65380947)
(-0.2531983255 0.6844565085 -2.14781216)
(-0.04686044796 0.2256214549 -1.727380341)
)


// ************************************************************************* //
