/*--------------------------------*- C++ -*----------------------------------*\
  =========                 |
  \\      /  F ield         | OpenFOAM: The Open Source CFD Toolbox
   \\    /   O peration     | Website:  https://openfoam.org
    \\  /    A nd           | Version:  8
     \\/     M anipulation  |
\*---------------------------------------------------------------------------*/
FoamFile
{
    version     2.0;
    format      ascii;
    class       volScalarField;
    location    "0.1/wallFilmRegion";
    object      delta;
}
// * * * * * * * * * * * * * * * * * * * * * * * * * * * * * * * * * * * * * //

dimensions      [0 1 0 0 0 0 0];

internalField   nonuniform List<scalar> 
1342
(
0
0
0
0
0
0
0
0
0
0
0
0
0
0
0
0
0
0
0
0
0
0
0
0
0
0
0
0
0
0
0
0
0
0
0
0
0
0
0
0
0
0
0
0
0
0
0
0
0
0
0
0
0
0
0
0
0
0
0
0
0
0
0
0
0
0
0
0
0
0
0
0
0
0
0
0
0
0
0
0
0
0
0
0
0
0
0
0
0
0
0
0
0
0
0
0
0
0
0
0
0
0
0
0
0
0
0
0
0
0
0
0
0
0
0
0
0
0
0
0
0
0
0
0
0
0
0
0
0
0
0
0
0
0
0
0
0
0
0
0
0
0
0
0
0
0
0
0
0
0
0
0
0
0
0
0
0
0
0
0
0
0
0
0
0
0
0
0
0
0
0
0
0
0
0
0
0
0
0
0
0
0
0
0
0
0
0
0
0
0
0
0
0
0
0
0
0
0
0
0
0
0
0
0
0
0
0
0
0
0
0
0
0
0
0
0
0
0
0
0
0
0
0
0
0
0
0
0
0
0
0
0
0
0
0
0
0
0
0
0
0
0
0
0
0
0
0
0
0
0
0
0
0
0
0
0
0
0
0
0
0
0
0
0
0
0
0
0
0
0
0
0
0
0
0
0
0
0
0
0
0
0
0
0
0
0
0
0
0
0
0
0
0
0
0
0
0
0
0
0
0
0
0
0
0
0
0
0
0
0
0
0
0
0
0
0
0
0
0
0
0
0
0
0
0
0
0
0
0
0
0
0
0
0
0
0
0
0
0
0
0
0
0
0
0
0
0
0
0
0
0
0
0
0
0
0
0
0
0
0
0
0
0
0
0
0
0
0
0
0
0
0
0
0
0
0
0
0
0
0
0
0
0
0
0
0
0
0
0
0
0
0
0
0
0
0
0
0
0
0
0
0
0
0
0
0
0
0
0
0
0
0
0
0
0
0
0
0
0
0
0
0
0
0
0
0
0
0
0
0
0
0
0
0
0
0
0
0
0
0
0
0
0
0
0
0
0
0
0
0
0
0
0
0
0
0
0
0
0
0
0
0
0
0
0
0
0
0
0
0
0
0
0
0
0
0
0
0
0
0
0
0
0
0
0
0
0
0
0
0
0
0
0
0
0
0
0
0
0
0
0
0
0
0
0
0
0
0
0
0
0
0
0
0
0
0
0
0
0
0
0
0
0
0
0
0
0
0
0
0
0
0
0
0
0
0
0
0
0
0
0
0
0
0
0
0
0
0
0
0
0
0
0
0
0
0
0
0
0
0
0
0
0
0
0
0
0
0
0
0
0
0
0
0
0
0
0
0
0
0
0
0
0
0
0
0
0
0
0
0
0
0
0
0
0
0
0
0
0
0
0
0
0
0
0
0
0
0
0
0
0
0
0
0
0
0
0
0
0
0
0
0
0
0
0
0
0
0
0
0
0
0
0
0
0
0
0
0
0
0
0
0
0
0
0
0
0
0
0
0
0
0
0
0
0
0
0
0
0
0
0
0
0
0
0
0
0
0
0
0
0
0
0
0
0
0
0
0
0
0
0
0
0
0
0
0
0
0
0
0
0
0
0
0
0
0
0
0
0
0
0
0
0
0
0
0
0
0
0
0
0
0
0
0
0
0
0
0
0
0
0
0
0
0
0
0
0
0
0
0
0
0
0
0
0
0
0
0
0
0
0
0
0
0
0
0
0
0
0
0
0
0
0
0
0
0
0
0
0
0
0
0
0
0
0
0
0
0
0
0
0
0
0
0
0
0
0
0
0
0
0
0
0
0
0
0
0
0
0
0
0
0
0
0
0
0
0
0
0
0
0
0
0
0
0
0
0
0
0
0
0
0
0
0
0
0
0
0
0
0
0
0
0
0
0
0
0
0
0
0
0
0
0
0
0
0
0
0
0
0
0
0
0
0
0
0
0
0
0
0
0
0
0
0
0
0
0
0
0
0
0
0
3.077923215e-79
1.026771839e-57
1.523462235e-53
3.251673835e-32
2.316961806e-28
3.280072256e-09
9.019807277e-47
5.593527739e-21
4.952813919e-05
0.0001519668136
0.0002822455029
0.0004646226204
3.360054999e-05
0.0001807399646
0.0003661452182
0.0004815480946
0.0001074703275
5.69723824e-05
0.0007998025086
4.800737302e-05
0.0002176486443
0.0001225681817
9.052255917e-05
0.00012100977
1.513653605e-05
0.0001061045474
6.684676903e-05
4.517828317e-10
1.59059028e-05
2.097712036e-06
1.303575547e-05
5.147439451e-05
8.027100748e-05
1.201611953e-06
7.125397811e-05
3.343722307e-05
8.286692851e-18
4.797271297e-06
1.529108533e-08
2.412752319e-44
7.209664901e-18
1.935591222e-31
2.844136334e-72
1.981407097e-45
2.039984731e-59
1.731520389e-95
2.070588532e-73
1.59762994e-82
1.386057267e-89
4.591217897e-81
1.305453163e-76
6.112433706e-81
1.42405597e-77
6.699441791e-68
0.0001117672872
0.0001288448769
0.0001411260693
1.380660829e-54
1.007471757e-51
6.516734487e-42
0.000136956446
0.0001073700482
5.848881303e-28
1.434703641e-26
6.424987551e-05
5.906434475e-05
3.828121044e-05
4.476271257e-05
7.736316639e-13
2.134997429e-08
2.161690647e-07
2.607552344e-05
5.728502695e-05
2.246735674e-05
3.500428481e-05
6.074327521e-06
4.994304455e-05
4.651060329e-05
0.000453108556
0.001118567253
0.0003566917755
0.0002226679588
6.117986505e-26
1.728895012e-21
3.561814352e-35
6.49626859e-32
1.106799585e-42
1.44426225e-46
6.094709714e-46
4.974988196e-53
1.976130212e-60
3.666771293e-17
1.328236503e-07
1.363769064e-15
6.617692418e-46
9.486848051e-30
3.488120143e-44
9.24334181e-18
4.929893899e-11
5.28109863e-24
2.615829098e-46
4.126046807e-38
1.76207666e-52
6.466637986e-33
6.467828929e-31
2.041801097e-44
2.153475015e-61
1.59808359e-58
6.94664377e-73
2.19202819e-57
1.784821403e-57
5.306785447e-71
7.166961094e-86
3.874358888e-85
1.571444472e-99
5.319755843e-85
1.892828319e-85
4.829472216e-99
1.000779104e-113
2.911599014e-113
9.744328908e-128
3.438385705e-113
1.070339665e-108
2.254591305e-122
2.525661715e-127
4.936291808e-121
7.596493398e-103
1.323462935e-108
1.863838623e-98
8.025407437e-05
0.0001557716321
7.685626375e-05
0.0001227222152
0.0001164594655
0.0001522905387
6.248039968e-05
0.0001667873127
0.0001503838324
9.859848766e-05
2.53802132e-05
9.134114983e-05
5.546073446e-05
0.0001534048127
0.0001238858868
0.0002085198493
0.0001312162479
0.0002385083693
0.0002201473649
6.51236097e-06
0.0001586651329
5.934124159e-05
1.450874374e-18
3.745003127e-06
1.548268764e-09
9.549016159e-47
1.693426565e-21
2.422395522e-35
1.476613449e-69
3.490025922e-49
1.326914226e-56
1.217334006e-63
3.478880867e-55
9.204570309e-51
7.107922922e-05
0.0001696549324
0.0002146906031
6.687460408e-05
0.0002688867014
0.000312456558
6.173508167e-05
8.923397469e-05
6.274416623e-05
0.0002427023053
0.0001502102633
0.0002430149421
0.0002798279775
0.0002901822932
0.0003016726613
0.0001410057469
0.000271733789
0.0001938070438
7.838145929e-07
8.001650251e-05
7.097803918e-06
2.500399011e-25
1.519504589e-08
7.732122781e-18
9.255610759e-44
2.639438524e-31
4.923283003e-31
5.510142632e-38
1.233454184e-29
2.599293105e-25
7.870002959e-05
3.590553788e-05
8.903572968e-05
0.0002175620538
0.000165645181
0.0002297708748
0.0003625165429
0.0001986682307
7.994352058e-05
0.0001234664951
0.0002802179286
0.0001689139876
0.000225225654
0.0002150648528
0.0002659367097
0.0002157402396
1.884392461e-05
0.0001172454678
2.583927461e-05
3.140000512e-13
7.823984406e-07
1.369163263e-09
2.033571996e-18
4.212014336e-10
7.099400522e-09
5.707109855e-05
0.0001416494476
0.0002301145594
0.0001503069324
0.0001756935178
0.0005281973144
0.0004752132473
0.0001658737279
4.241911148e-05
0.0001481721231
0.000224474437
0.0004410188577
0.0003296897487
2.217098553e-05
0.0001254645731
3.026457551e-05
3.836132695e-06
2.442153016e-05
8.082094984e-05
6.096943007e-05
7.646703467e-05
0.0005616819971
0.0003412885473
7.467971169e-07
2.307194495e-05
4.049736268e-11
1.080741525e-06
6.789945531e-27
6.659921534e-14
3.835041669e-07
1.263971835e-12
5.650501277e-28
1.787914294e-38
7.555547802e-06
2.842652015e-08
2.151209736e-31
7.388554372e-06
2.124963357e-08
6.706093846e-32
4.634535011e-09
2.050743695e-19
5.018023634e-47
9.256409838e-31
7.076477875e-44
1.680861365e-71
2.771274406e-58
1.957502105e-71
3.588772554e-99
3.140875011e-86
1.943368667e-99
1.784735022e-127
4.898704549e-94
2.879514195e-107
1.407984898e-90
6.592024602e-104
3.29777533e-84
0.0001447320124
0.0001866685521
0.0001096124762
0.0001080974793
6.102017834e-05
9.538656995e-05
0.000164788098
5.948669731e-05
1.052329892e-08
1.066630546e-32
9.121297483e-61
4.248219406e-68
1.333410612e-64
6.732663922e-05
0.0001043871866
0.0001208138001
0.0001305736086
0.0002026891122
0.0002324110588
0.0002088653928
9.813468853e-05
0.0001450113295
0.0002843939748
0.0002317522439
3.134390643e-05
9.620583595e-12
6.126003688e-39
2.332364207e-42
4.495084922e-39
6.885609807e-05
0.0001270317116
0.0002473465918
0.0002784868432
0.0001115249787
2.962924474e-07
5.805945261e-21
5.038731285e-17
1.664307523e-14
4.619287839e-08
8.314893689e-06
4.514702129e-05
1.366649711e-24
2.44198082e-14
9.655720418e-07
3.506066459e-05
9.042037138e-05
0.0002757395799
0.0001095836593
8.884719651e-07
2.468852961e-06
5.849214011e-06
0.000154499488
0.0001379359787
6.740292463e-06
0.0001042421412
0.0001034756396
0.0001088892092
3.598127112e-06
0.001618486385
2.99405864e-05
1.074158811e-05
0.00163107857
0.0004210502651
3.579225263e-07
0.00198466924
1.736032113e-06
0.0005706061063
0.0002719555636
0.0001144176683
8.70901719e-05
1.709515545e-05
0.0002706125943
0.0002037876258
0.0001108452306
0.0001001775342
5.793609576e-05
3.293477905e-06
3.602184146e-05
3.297942436e-07
3.131271517e-11
0.000210324767
7.472216689e-05
3.001246751e-08
7.838439886e-06
1.560505393e-13
1.43385443e-17
8.284503767e-05
6.37740317e-05
2.770213944e-18
1.042042302e-08
3.075106633e-24
9.053960783e-32
2.958005089e-05
5.880034547e-06
2.466658713e-40
1.789311829e-07
2.416165256e-94
2.296289697e-92
1.04473162e-80
1.455930853e-67
2.585182897e-66
2.033678978e-54
9.630293706e-71
6.037154626e-45
1.263652502e-41
7.231246424e-41
5.908729294e-29
1.333157908e-19
1.882152393e-40
1.587873696e-58
1.55535462e-45
1.557159887e-32
6.966417307e-05
0.0001873416277
4.826768601e-16
3.428700908e-08
1.93449509e-16
5.630072558e-16
4.408851091e-28
3.982855875e-06
1.608253892e-35
6.765316556e-34
9.282704249e-23
4.010309404e-10
0.0003108061871
0.0004240800426
0.0005186443962
0.0001162349996
6.994578392e-05
6.07469175e-05
0.0001368549673
9.89471276e-05
6.016285149e-11
4.485055533e-08
1.155859914e-05
1.972987499e-05
8.699023849e-05
8.274906835e-06
3.854196515e-12
5.508083385e-12
1.876268587e-07
0.0005453633915
0.0001829815056
0.0001060699111
7.648534075e-05
2.522298665e-05
4.855205393e-05
0.000239154154
0.001044226269
0.0001984626437
0.000141131267
0.0002093835235
0.0001599104702
2.47341564e-05
0.0001484591357
0.0001358208507
8.328633467e-09
2.43620454e-06
4.789829395e-05
0.0001157496863
0.0001377593255
0.000138951564
0.0001694568072
2.919957997e-10
6.738982935e-05
1.581684283e-05
0.0002404231738
7.447978853e-06
2.724120464e-05
1.2403079e-06
1.752875667e-05
0.0002013987623
0.001949088932
0.000208850334
5.350460326e-06
2.214101079e-06
0.0003972097609
5.013444203e-05
1.068235206e-05
0.0001038539461
0.0001401268821
0.0001869581995
0.0001139926834
3.383697563e-05
6.357336229e-06
6.51078313e-05
0.0002084100905
7.556344793e-05
0.0001275991411
0.0001132306633
0.0001181333776
3.847045696e-05
8.958427961e-05
5.437708955e-05
3.485281532e-05
8.937940857e-05
0.000212030146
0.0001070367478
0.0001054997596
0.000110218949
8.08275174e-05
7.504533948e-05
0.0001106760655
9.725672131e-05
0.0001154247379
8.360740342e-05
)
;

boundaryField
{
    walls
    {
        type            zeroGradient;
    }
    wallFilmFace_top
    {
        type            zeroGradient;
    }
    region0_to_wallFilmRegion_wallFilmFace
    {
        type            zeroGradient;
    }
    mirrorFace_top
    {
        type            zeroGradient;
    }
    region0_to_wallFilmRegion_mirrorFace
    {
        type            zeroGradient;
    }
    procBoundary2to0
    {
        type            processor;
        value           uniform 0;
    }
    procBoundary2to1
    {
        type            processor;
        value           uniform 0;
    }
    procBoundary2to3
    {
        type            processor;
        value           nonuniform List<scalar> 
64
(
2.598770011e-78
5.862486119e-53
8.838553618e-71
1.281457245e-44
3.139815368e-09
0.0003574021181
0.0001731465273
3.487587943e-05
0.0001262172032
1.904546481e-54
1.11162956e-60
6.372350002e-69
4.072546481e-75
1.11162956e-60
6.751509599e-59
5.381231647e-61
4.00502283e-67
4.965647984e-76
1.635191409e-87
1.549809005e-100
2.901938884e-114
3.989567228e-129
1.047562846e-142
1.789119193e-142
1.789119193e-142
1.948208842e-141
8.504216303e-113
8.504216303e-113
3.354374741e-113
8.504216303e-113
1.543492721e-05
7.462656239e-05
1.543492721e-05
0.0001975985783
0.0002952659265
1.195706839e-29
1.110551841e-16
1.904546481e-54
4.365217652e-100
1.543492721e-05
4.481432672e-05
2.132823663e-05
4.848167292e-06
3.249113235e-07
1.123809952e-05
4.985055254e-05
4.696996027e-43
2.830900591e-08
3.338674021e-91
1.394606379e-65
5.862486119e-53
1.164608356e-57
1.737305179e-19
3.672812832e-06
0.0003067038028
0.0001095557753
0.0001644152389
8.031408332e-05
0.0001776144276
0.0001525608993
1.79602994e-06
3.188049162e-06
2.692089303e-05
7.71888973e-05
)
;
    }
}


// ************************************************************************* //
