/*--------------------------------*- C++ -*----------------------------------*\
  =========                 |
  \\      /  F ield         | OpenFOAM: The Open Source CFD Toolbox
   \\    /   O peration     | Website:  https://openfoam.org
    \\  /    A nd           | Version:  8
     \\/     M anipulation  |
\*---------------------------------------------------------------------------*/
FoamFile
{
    version     2.0;
    format      ascii;
    class       volVectorField;
    location    "0.1/wallFilmRegion";
    object      U;
}
// * * * * * * * * * * * * * * * * * * * * * * * * * * * * * * * * * * * * * //

dimensions      [0 1 -1 0 0 0 0];

internalField   nonuniform List<vector> 
1342
(
(5.877140602e-17 1.636298352e-18 0)
(6.3489211e-17 4.116887283e-17 0)
(7.102188312e-17 9.172864774e-17 0)
(7.932651206e-17 1.530598705e-16 0)
(8.725308888e-17 2.228237801e-16 0)
(9.408060503e-17 2.975068093e-16 0)
(9.946583765e-17 3.729545686e-16 0)
(1.031886594e-16 4.449823229e-16 0)
(1.052506341e-16 5.096875517e-16 0)
(1.057254682e-16 5.635913258e-16 0)
(1.046210194e-16 6.03669701e-16 0)
(1.021982601e-16 6.278620879e-16 0)
(9.857520179e-17 6.351696322e-16 0)
(9.389644483e-17 6.251622059e-16 0)
(8.838963319e-17 5.985632238e-16 0)
(8.218124485e-17 5.569540992e-16 0)
(7.546859949e-17 5.026502181e-16 0)
(6.84018397e-17 4.386750065e-16 0)
(6.107302883e-17 3.684790754e-16 0)
(5.364064158e-17 2.958286862e-16 0)
(4.617842456e-17 2.245556108e-16 0)
(3.877509039e-17 1.583857026e-16 0)
(3.151888337e-17 1.007434031e-16 0)
(2.454273868e-17 5.459348937e-17 0)
(1.814616306e-17 2.226536406e-17 0)
(1.290757531e-17 4.420868726e-18 0)
(9.520691812e-17 -3.39328242e-17 0)
(9.324224077e-17 3.603416892e-18 0)
(9.825185221e-17 4.61803356e-17 0)
(1.073514147e-16 9.800485332e-17 0)
(1.181164902e-16 1.59481735e-16 0)
(1.288321589e-16 2.287075627e-16 0)
(1.384596028e-16 3.025602809e-16 0)
(1.463992176e-16 3.770540143e-16 0)
(1.522041479e-16 4.480992081e-16 0)
(1.558041676e-16 5.119603171e-16 0)
(1.571813061e-16 5.651210539e-16 0)
(1.563459329e-16 6.046514528e-16 0)
(1.535259801e-16 6.285136567e-16 0)
(1.488823979e-16 6.356227231e-16 0)
(1.426099128e-16 6.256171769e-16 0)
(1.349778009e-16 5.991775352e-16 0)
(1.261882405e-16 5.578582107e-16 0)
(1.165029086e-16 5.03985048e-16 0)
(1.061578683e-16 4.404859749e-16 0)
(9.5286524e-17 3.708114211e-16 0)
(8.415464062e-17 2.98710839e-16 0)
(7.28781192e-17 2.279315683e-16 0)
(6.164904726e-17 1.621801435e-16 0)
(5.065572085e-17 1.04817491e-16 0)
(4.020563413e-17 5.871566463e-17 0)
(3.097300286e-17 2.595132471e-17 0)
(2.401438033e-17 6.288972205e-18 0)
(1.523583832e-16 -8.516716455e-17 0)
(1.39704747e-16 -3.796740064e-17 0)
(1.36343445e-16 5.311959764e-18 0)
(1.407216108e-16 5.17669193e-17 0)
(1.502055157e-16 1.056086689e-16 0)
(1.622101392e-16 1.677185243e-16 0)
(1.74622471e-16 2.366615035e-16 0)
(1.861608297e-16 3.097780035e-16 0)
(1.958558626e-16 3.8325171e-16 0)
(2.03158842e-16 4.531838123e-16 0)
(2.078246252e-16 5.16024553e-16 0)
(2.097418377e-16 5.68262173e-16 0)
(2.08897096e-16 6.070609449e-16 0)
(2.054842364e-16 6.304184889e-16 0)
(1.996893571e-16 6.372103079e-16 0)
(1.917507258e-16 6.271223429e-16 0)
(1.819788873e-16 6.008001124e-16 0)
(1.706359056e-16 5.597696115e-16 0)
(1.580757141e-16 5.06383764e-16 0)
(1.445334486e-16 4.434212957e-16 0)
(1.303061894e-16 3.743581651e-16 0)
(1.156751354e-16 3.028918994e-16 0)
(1.008670275e-16 2.326833491e-16 0)
(8.617102912e-17 1.67401866e-16 0)
(7.191965312e-17 1.102878388e-16 0)
(5.865791832e-17 6.406126309e-17 0)
(4.743615117e-17 3.040079068e-17 0)
(3.94024301e-17 8.230069441e-18 0)
(2.062235202e-16 -9.623800911e-17 0)
(1.919395346e-16 -4.274119506e-17 0)
(1.870580974e-16 6.377823106e-18 0)
(1.902421168e-16 5.715277153e-17 0)
(1.992740744e-16 1.136010961e-16 0)
(2.114329092e-16 1.767896482e-16 0)
(2.245764835e-16 2.457630218e-16 0)
(2.371170547e-16 3.182597009e-16 0)
(2.478062437e-16 3.907407238e-16 0)
(2.559671668e-16 4.59560863e-16 0)
(2.61166047e-16 5.212484121e-16 0)
(2.632195482e-16 5.724365842e-16 0)
(2.620464048e-16 6.103642754e-16 0)
(2.578232696e-16 6.330894462e-16 0)
(2.507338727e-16 6.394739209e-16 0)
(2.410534831e-16 6.292487345e-16 0)
(2.291459816e-16 6.030259093e-16 0)
(2.152973644e-16 5.623232146e-16 0)
(1.999788505e-16 5.094256891e-16 0)
(1.833851309e-16 4.470718286e-16 0)
(1.660269526e-16 3.787312836e-16 0)
(1.481613361e-16 3.079612236e-16 0)
(1.301816741e-16 2.384012099e-16 0)
(1.124404815e-16 1.735920279e-16 0)
(9.545504816e-17 1.166605702e-16 0)
(8.000042265e-17 7.007849496e-17 0)
(6.742411279e-17 3.511358645e-17 0)
(5.859721727e-17 1.011778334e-17 0)
(2.660302961e-16 -1.077154934e-16 0)
(2.502334306e-16 -4.818953754e-17 0)
(2.437847416e-16 6.607233188e-18 0)
(2.454912911e-16 6.184774432e-17 0)
(2.534366843e-16 1.211757486e-16 0)
(2.649709522e-16 1.857764789e-16 0)
(2.78047454e-16 2.55125225e-16 0)
(2.907699123e-16 3.27167312e-16 0)
(3.017691818e-16 3.987389221e-16 0)
(3.101320114e-16 4.663991324e-16 0)
(3.153396427e-16 5.26899634e-16 0)
(3.171334178e-16 5.769698214e-16 0)
(3.153061194e-16 6.13932162e-16 0)
(3.100577352e-16 6.359463556e-16 0)
(3.015365287e-16 6.418574114e-16 0)
(2.900532439e-16 6.314782227e-16 0)
(2.760467874e-16 6.053572028e-16 0)
(2.597864937e-16 5.650211754e-16 0)
(2.417808689e-16 5.126547472e-16 0)
(2.223889223e-16 4.509848207e-16 0)
(2.021432819e-16 3.834518306e-16 0)
(1.813726777e-16 3.134722709e-16 0)
(1.605865706e-16 2.446059892e-16 0)
(1.402381563e-16 1.802550599e-16 0)
(1.210227632e-16 1.234144956e-16 0)
(1.038943756e-16 7.628305037e-17 0)
(9.040888333e-17 3.976773446e-17 0)
(8.090782868e-17 1.189291098e-17 0)
(3.554421683e-16 -1.937561849e-16 0)
(3.297592918e-16 -1.193560424e-16 0)
(3.126004033e-16 -5.422555638e-17 0)
(3.045478623e-16 5.910131586e-18 0)
(3.046270804e-16 6.547658423e-17 0)
(3.110704412e-16 1.277821177e-16 0)
(3.215516007e-16 1.940469216e-16 0)
(3.338668181e-16 2.639265832e-16 0)
(3.46137702e-16 3.356695563e-16 0)
(3.567527258e-16 4.063878313e-16 0)
(3.647864297e-16 4.72922117e-16 0)
(3.695606033e-16 5.32246976e-16 0)
(3.706728408e-16 5.811493828e-16 0)
(3.679199107e-16 6.170904985e-16 0)
(3.614667592e-16 6.383650247e-16 0)
(3.514067126e-16 6.437678009e-16 0)
(3.381369853e-16 6.332789991e-16 0)
(3.220061845e-16 6.072887305e-16 0)
(3.034604962e-16 5.672804656e-16 0)
(2.829418602e-16 5.155306809e-16 0)
(2.610090209e-16 4.547069966e-16 0)
(2.381685759e-16 3.880409497e-16 0)
(2.148369222e-16 3.189173772e-16 0)
(1.915991409e-16 2.50785569e-16 0)
(1.690844685e-16 1.869121362e-16 0)
(1.48075179e-16 1.301004229e-16 0)
(1.297002119e-16 8.230471666e-17 0)
(1.156107262e-16 4.41517389e-17 0)
(1.054997254e-16 1.351834461e-17 0)
(4.218338397e-16 -2.09897947e-16 0)
(3.951687229e-16 -1.309282363e-16 0)
(3.767837485e-16 -6.0741076e-17 0)
(3.671653272e-16 4.249709942e-18 0)
(3.655586698e-16 6.786062453e-17 0)
(3.703022359e-16 1.330585499e-16 0)
(3.793759137e-16 2.010119428e-16 0)
(3.904538413e-16 2.715127173e-16 0)
(4.017685015e-16 3.430252803e-16 0)
(4.115037008e-16 4.129483918e-16 0)
(4.187653087e-16 4.784396915e-16 0)
(4.227152007e-16 5.365450749e-16 0)
(4.227961427e-16 5.842541232e-16 0)
(4.189047784e-16 6.192254915e-16 0)
(4.111305777e-16 6.397479053e-16 0)
(3.994639064e-16 6.446713433e-16 0)
(3.844044248e-16 6.340110124e-16 0)
(3.662155146e-16 6.0818734e-16 0)
(3.455431272e-16 5.686753833e-16 0)
(3.227744072e-16 5.176169656e-16 0)
(2.98566928e-16 4.577333677e-16 0)
(2.733893071e-16 3.920246817e-16 0)
(2.478552655e-16 3.238150636e-16 0)
(2.225567704e-16 2.564893575e-16 0)
(1.982719546e-16 1.931257797e-16 0)
(1.758500356e-16 1.363247699e-16 0)
(1.56584633e-16 8.786823518e-17 0)
(1.42086702e-16 4.812774615e-17 0)
(1.313985743e-16 1.496758173e-17 0)
(4.873041511e-16 -2.251833239e-16 0)
(4.598730637e-16 -1.422056698e-16 0)
(4.404174835e-16 -6.760262414e-17 0)
(4.293113439e-16 1.670704089e-18 0)
(4.260411666e-16 6.888085846e-17 0)
(4.290789307e-16 1.367505737e-16 0)
(4.364108451e-16 2.062709919e-16 0)
(4.46012476e-16 2.773628989e-16 0)
(4.559134938e-16 3.486498945e-16 0)
(4.64487367e-16 4.178131697e-16 0)
(4.706348738e-16 4.822794799e-16 0)
(4.734449915e-16 5.391617457e-16 0)
(4.723226035e-16 5.856916649e-16 0)
(4.671718157e-16 6.197584339e-16 0)
(4.578843021e-16 6.395112345e-16 0)
(4.44632384e-16 6.439579466e-16 0)
(4.278254956e-16 6.331980183e-16 0)
(4.077973919e-16 6.076417813e-16 0)
(3.851670365e-16 5.686974117e-16 0)
(3.603984221e-16 5.184693177e-16 0)
(3.341663913e-16 4.595638131e-16 0)
(3.069781549e-16 3.94913771e-16 0)
(2.796005125e-16 3.277714444e-16 0)
(2.526258533e-16 2.613202899e-16 0)
(2.269060588e-16 1.985192323e-16 0)
(2.034519292e-16 1.418114907e-16 0)
(1.835481034e-16 9.275509043e-17 0)
(1.687885341e-16 5.157542436e-17 0)
(1.575680748e-16 1.621348707e-17 0)
(5.494548462e-16 -2.393145598e-16 0)
(5.214429642e-16 -1.529576057e-16 0)
(5.010623654e-16 -7.465587394e-17 0)
(4.886426717e-16 -1.762744786e-18 0)
(4.837976473e-16 6.858025966e-17 0)
(4.851032363e-16 1.386765627e-16 0)
(4.905870635e-16 2.095125419e-16 0)
(4.985529924e-16 2.810872343e-16 0)
(5.068313356e-16 3.520801372e-16 0)
(5.140300187e-16 4.205345763e-16 0)
(5.188405268e-16 4.839313046e-16 0)
(5.203192422e-16 5.396020151e-16 0)
(5.178909689e-16 5.850133077e-16 0)
(5.113813621e-16 6.180828109e-16 0)
(5.005564651e-16 6.37102051e-16 0)
(4.858173011e-16 6.412394389e-16 0)
(4.673819514e-16 6.304212084e-16 0)
(4.456762003e-16 6.052178827e-16 0)
(4.21352253e-16 5.669515153e-16 0)
(3.948426092e-16 5.176303613e-16 0)
(3.668662746e-16 4.598247532e-16 0)
(3.380807833e-16 3.963993094e-16 0)
(3.091610353e-16 3.30409334e-16 0)
(2.808628686e-16 2.649303222e-16 0)
(2.540660356e-16 2.028198251e-16 0)
(2.298722814e-16 1.463168603e-16 0)
(2.095450243e-16 9.680609767e-17 0)
(1.946472502e-16 5.44409456e-17 0)
(1.829622135e-16 1.72462391e-17 0)
(6.059540023e-16 -2.520223121e-16 0)
(5.775460191e-16 -1.629902663e-16 0)
(5.563911758e-16 -8.171263194e-17 0)
(5.428239596e-16 -5.897493972e-18 0)
(5.365219306e-16 6.691740727e-17 0)
(5.36090233e-16 1.387742855e-16 0)
(5.398715467e-16 2.106376956e-16 0)
(5.460937543e-16 2.824556246e-16 0)
(5.527610125e-16 3.530624995e-16 0)
(5.584077718e-16 4.206988217e-16 0)
(5.617868395e-16 4.829983796e-16 0)
(5.618533064e-16 5.374493963e-16 0)
(5.580672508e-16 5.817486173e-16 0)
(5.501912306e-16 6.138660962e-16 0)
(5.380168262e-16 6.322408421e-16 0)
(5.218667628e-16 6.360954422e-16 0)
(5.019854988e-16 6.253075268e-16 0)
(4.788677809e-16 6.005948542e-16 0)
(4.530312465e-16 5.630952206e-16 0)
(4.251129772e-16 5.147857787e-16 0)
(3.957587893e-16 4.582381467e-16 0)
(3.65715034e-16 3.961451641e-16 0)
(3.35581895e-16 3.314293341e-16 0)
(3.063295042e-16 2.670938217e-16 0)
(2.787932308e-16 2.058117761e-16 0)
(2.540894797e-16 1.49673384e-16 0)
(2.335449527e-16 9.992209528e-17 0)
(2.186068675e-16 5.666749968e-17 0)
(2.06539697e-16 1.805575812e-17 0)
(6.546376958e-16 -2.630605971e-16 0)
(6.260110415e-16 -1.720840511e-16 0)
(6.042620373e-16 -8.861918919e-17 0)
(5.896721965e-16 -1.063169732e-17 0)
(5.820588584e-16 6.401720234e-17 0)
(5.801313069e-16 1.371029598e-16 0)
(5.822181367e-16 2.095702641e-16 0)
(5.868261909e-16 2.813627131e-16 0)
(5.918532511e-16 3.513701814e-16 0)
(5.959779224e-16 4.18086721e-16 0)
(5.979268146e-16 4.792269933e-16 0)
(5.966187385e-16 5.324294673e-16 0)
(5.915230414e-16 5.756343629e-16 0)
(5.824401494e-16 6.06863302e-16 0)
(5.69021385e-16 6.246317541e-16 0)
(5.516713495e-16 6.282809095e-16 0)
(5.305908307e-16 6.176564755e-16 0)
(5.063097581e-16 5.934498034e-16 0)
(4.79274908e-16 5.568454808e-16 0)
(4.503097482e-16 5.097629371e-16 0)
(4.19948293e-16 4.545925528e-16 0)
(3.889193477e-16 3.939284076e-16 0)
(3.58004462e-16 3.306604963e-16 0)
(3.281030089e-16 2.676370794e-16 0)
(3.001242975e-16 2.073333621e-16 0)
(2.751725559e-16 1.517652396e-16 0)
(2.545605975e-16 1.020417607e-16 0)
(2.396957113e-16 5.824465566e-17 0)
(2.273353018e-16 1.864083071e-17 0)
(6.936065138e-16 -2.722169507e-16 0)
(6.649316783e-16 -1.800540827e-16 0)
(6.427543874e-16 -9.519149261e-17 0)
(6.274265247e-16 -1.579267627e-17 0)
(6.186333863e-16 6.001526074e-17 0)
(6.152764121e-16 1.337208096e-16 0)
(6.159788599e-16 2.063594217e-16 0)
(6.189715427e-16 2.777727412e-16 0)
(6.225371424e-16 3.469384813e-16 0)
(6.252735632e-16 4.125938375e-16 0)
(6.258903556e-16 4.724835152e-16 0)
(6.233495495e-16 5.244010642e-16 0)
(6.171652953e-16 5.665661192e-16 0)
(6.069227883e-16 5.969013716e-16 0)
(5.925166326e-16 6.141082596e-16 0)
(5.742273308e-16 6.176440747e-16 0)
(5.522312238e-16 6.072641197e-16 0)
(5.270786254e-16 5.837015321e-16 0)
(4.992847946e-16 5.481489544e-16 0)
(4.69605707e-16 5.024048814e-16 0)
(4.385543021e-16 4.486902699e-16 0)
(4.069174651e-16 3.896332663e-16 0)
(3.75609295e-16 3.28002382e-16 0)
(3.453639579e-16 2.664306435e-16 0)
(3.172235432e-16 2.073268698e-16 0)
(2.922636233e-16 1.525470841e-16 0)
(2.717429701e-16 1.031347109e-16 0)
(2.570239737e-16 5.915953025e-17 0)
(2.444712951e-16 1.899667311e-17 0)
(7.212948697e-16 -2.793033588e-16 0)
(6.927263763e-16 -1.867099369e-16 0)
(6.703032451e-16 -1.012086373e-16 0)
(6.544247676e-16 -2.119836338e-17 0)
(6.446661323e-16 5.498498672e-17 0)
(6.400906566e-16 1.28800221e-16 0)
(6.396597567e-16 2.01103044e-16 0)
(6.412222765e-16 2.717205497e-16 0)
(6.435527665e-16 3.398652482e-16 0)
(6.451085444e-16 4.0424794e-16 0)
(6.445395275e-16 4.627691452e-16 0)
(6.410024343e-16 5.134029257e-16 0)
(6.339243302e-16 5.544145435e-16 0)
(6.227616337e-16 5.838849087e-16 0)
(6.077054244e-16 6.007093603e-16 0)
(5.887120956e-16 6.041473693e-16 0)
(5.661553381e-16 5.941171693e-16 0)
(5.40508555e-16 5.713163168e-16 0)
(5.123323657e-16 5.369533343e-16 0)
(4.822154319e-16 4.926161964e-16 0)
(4.508871234e-16 4.405101787e-16 0)
(4.191065318e-16 3.83262327e-16 0)
(3.876642784e-16 3.233893585e-16 0)
(3.574487262e-16 2.634552178e-16 0)
(3.293878767e-16 2.0574606e-16 0)
(3.046152464e-16 1.520023337e-16 0)
(2.843468699e-16 1.031985413e-16 0)
(2.698576541e-16 5.941355953e-17 0)
(2.572351944e-16 1.912906987e-17 0)
(7.365650387e-16 -2.84180036e-16 0)
(7.082411804e-16 -1.91894833e-16 0)
(6.857418505e-16 -1.065343563e-16 0)
(6.694431447e-16 -2.667184576e-17 0)
(6.590088124e-16 4.919766002e-17 0)
(6.536285129e-16 1.225193977e-16 0)
(6.520485449e-16 1.939615346e-16 0)
(6.526532863e-16 2.634174571e-16 0)
(6.539344748e-16 3.302397973e-16 0)
(6.545437819e-16 3.931250156e-16 0)
(6.530478695e-16 4.501472182e-16 0)
(6.487851459e-16 4.994684852e-16 0)
(6.410369948e-16 5.393150627e-16 0)
(6.294044191e-16 5.680054466e-16 0)
(6.139309918e-16 5.844096807e-16 0)
(5.945855965e-16 5.878430797e-16 0)
(5.718564315e-16 5.783113623e-16 0)
(5.460896325e-16 5.563902233e-16 0)
(5.178505477e-16 5.232203496e-16 0)
(4.876938515e-16 4.804365461e-16 0)
(4.565523693e-16 4.301847011e-16 0)
(4.249315134e-16 3.747983777e-16 0)
(3.937153389e-16 3.168510478e-16 0)
(3.63787416e-16 2.587291777e-16 0)
(3.36088318e-16 2.026049965e-16 0)
(3.117023744e-16 1.50156239e-16 0)
(2.918237812e-16 1.022682582e-16 0)
(2.776587846e-16 5.903596538e-17 0)
(2.65091584e-16 1.90452291e-17 0)
(7.387547159e-16 -2.867370349e-16 0)
(7.108068517e-16 -1.954717391e-16 0)
(6.883950805e-16 -1.109980702e-16 0)
(6.718786678e-16 -3.202126386e-17 0)
(6.610490891e-16 4.288407684e-17 0)
(6.550524954e-16 1.150368558e-16 0)
(6.527031696e-16 1.851285762e-16 0)
(6.52537305e-16 2.530753305e-16 0)
(6.531035687e-16 3.182439297e-16 0)
(6.530440243e-16 3.794291579e-16 0)
(6.509847053e-16 4.348430935e-16 0)
(6.462849306e-16 4.827721889e-16 0)
(6.382008064e-16 5.214518023e-16 0)
(6.263947309e-16 5.493732173e-16 0)
(6.108595312e-16 5.654069669e-16 0)
(5.915719525e-16 5.689362324e-16 0)
(5.690626233e-16 5.59980861e-16 0)
(5.43508958e-16 5.389835255e-16 0)
(5.155888558e-16 5.071362358e-16 0)
(4.859243612e-16 4.660949826e-16 0)
(4.551837394e-16 4.177325988e-16 0)
(4.240913484e-16 3.643459315e-16 0)
(3.93455588e-16 3.08453281e-16 0)
(3.640951392e-16 2.523112403e-16 0)
(3.37014663e-16 1.979963131e-16 0)
(3.132048249e-16 1.47067246e-16 0)
(2.938348102e-16 1.00389192e-16 0)
(2.800649372e-16 5.805633599e-17 0)
(2.677013068e-16 1.875633449e-17 0)
(7.27695483e-16 -2.869060694e-16 0)
(7.002369359e-16 -1.973298208e-16 0)
(6.780655565e-16 -1.144556443e-16 0)
(6.615157339e-16 -3.704430467e-17 0)
(6.50563299e-16 3.621907337e-17 0)
(6.44164607e-16 1.066347058e-16 0)
(6.414485864e-16 1.74881917e-16 0)
(6.407597357e-16 2.408871572e-16 0)
(6.410179686e-16 3.041779312e-16 0)
(6.404989387e-16 3.634186132e-16 0)
(6.38232665e-16 4.17097096e-16 0)
(6.334526134e-16 4.635713742e-16 0)
(6.253793113e-16 5.010688926e-16 0)
(6.137592323e-16 5.282526205e-16 0)
(5.985136973e-16 5.439540374e-16 0)
(5.797212802e-16 5.476842503e-16 0)
(5.576867758e-16 5.393272204e-16 0)
(5.327832521e-16 5.193419451e-16 0)
(5.056156656e-16 4.889701582e-16 0)
(4.767408647e-16 4.496565762e-16 0)
(4.467581325e-16 4.032849837e-16 0)
(4.165891065e-16 3.520884828e-16 0)
(3.868131595e-16 2.983564767e-16 0)
(3.583328841e-16 2.443447908e-16 0)
(3.320557126e-16 1.920002635e-16 0)
(3.089965829e-16 1.428155217e-16 0)
(2.902562147e-16 9.761980759e-17 0)
(2.769486822e-16 5.652250862e-17 0)
(2.649222894e-16 1.828309971e-17 0)
(7.037421375e-16 -2.846614191e-16 0)
(6.768742689e-16 -1.973905007e-16 0)
(6.550902898e-16 -1.167771436e-16 0)
(6.387344919e-16 -4.157183402e-17 0)
(6.277965252e-16 2.943588771e-17 0)
(6.213492651e-16 9.753827952e-17 0)
(6.184867657e-16 1.634678294e-16 0)
(6.177587973e-16 2.272319627e-16 0)
(6.178365697e-16 2.882595334e-16 0)
(6.172537452e-16 3.453572423e-16 0)
(6.151504929e-16 3.972667121e-16 0)
(6.10612109e-16 4.421979085e-16 0)
(6.029101528e-16 4.784997059e-16 0)
(5.918382786e-16 5.049582397e-16 0)
(5.772350162e-16 5.204043836e-16 0)
(5.592775456e-16 5.243154193e-16 0)
(5.380781251e-16 5.166124368e-16 0)
(5.142412414e-16 4.978060539e-16 0)
(4.88136687e-16 4.689127486e-16 0)
(4.603836807e-16 4.314018096e-16 0)
(4.316332928e-16 3.871643814e-16 0)
(4.025920391e-16 3.381989137e-16 0)
(3.739914206e-16 2.867273033e-16 0)
(3.466189171e-16 2.349616135e-16 0)
(3.213593929e-16 1.847445392e-16 0)
(2.991959854e-16 1.375080955e-16 0)
(2.81196418e-16 9.404254814e-17 0)
(2.684215545e-16 5.447624151e-17 0)
(2.568373254e-16 1.763517017e-17 0)
(6.677597581e-16 -2.800210309e-16 0)
(6.415669244e-16 -1.956044796e-16 0)
(6.202903919e-16 -1.178362383e-16 0)
(6.043058014e-16 -4.546503003e-17 0)
(5.936401756e-16 2.27165235e-17 0)
(5.87400277e-16 8.802000112e-17 0)
(5.846730262e-16 1.512170931e-16 0)
(5.841109015e-16 2.122952082e-16 0)
(5.843325812e-16 2.708063871e-16 0)
(5.841400819e-16 3.256980101e-16 0)
(5.824517988e-16 3.756640936e-16 0)
(5.784965608e-16 4.190092459e-16 0)
(5.714887843e-16 4.54121181e-16 0)
(5.612857348e-16 4.798564641e-16 0)
(5.476750727e-16 4.9507548e-16 0)
(5.30838627e-16 4.992331045e-16 0)
(5.109180489e-16 4.922699395e-16 0)
(4.884204408e-16 4.746414181e-16 0)
(4.63720075e-16 4.472948921e-16 0)
(4.374430871e-16 4.116850632e-16 0)
(4.101867413e-16 3.695590789e-16 0)
(3.825535657e-16 3.228843492e-16 0)
(3.554028213e-16 2.737987411e-16 0)
(3.293431892e-16 2.243488951e-16 0)
(3.052854213e-16 1.763810183e-16 0)
(2.841557343e-16 1.312577973e-16 0)
(2.669860997e-16 8.974606747e-17 0)
(2.547946164e-16 5.19704287e-17 0)
(2.43779567e-16 1.682656646e-17 0)
(6.210980152e-16 -2.730541833e-16 0)
(5.956517628e-16 -1.919714986e-16 0)
(5.749962606e-16 -1.175790458e-16 0)
(5.595386212e-16 -4.854982255e-17 0)
(5.493271269e-16 1.628954439e-17 0)
(5.434943983e-16 7.82717129e-17 0)
(5.412080334e-16 1.383123983e-16 0)
(5.410133909e-16 1.964337401e-16 0)
(5.418453091e-16 2.522612946e-16 0)
(5.422364672e-16 3.047279091e-16 0)
(5.413142298e-16 3.527033257e-16 0)
(5.381258114e-16 3.944020633e-16 0)
(5.321549915e-16 4.283212255e-16 0)
(5.231053404e-16 4.533674376e-16 0)
(5.107896995e-16 4.683920796e-16 0)
(4.953827889e-16 4.728405304e-16 0)
(4.770187039e-16 4.666520175e-16 0)
(4.561501451e-16 4.502399057e-16 0)
(4.331657357e-16 4.244776982e-16 0)
(4.086342654e-16 3.907794352e-16 0)
(3.831127867e-16 3.507904404e-16 0)
(3.572242712e-16 3.064653979e-16 0)
(3.31643317e-16 2.597661314e-16 0)
(3.071065953e-16 2.126980712e-16 0)
(2.844068356e-16 1.670762136e-16 0)
(2.644349141e-16 1.242007111e-16 0)
(2.481728961e-16 8.481816359e-17 0)
(2.366092093e-16 4.906527704e-17 0)
(2.262693144e-16 1.588467929e-17 0)
(5.655408456e-16 -2.638814848e-16 0)
(5.409087821e-16 -1.865215009e-16 0)
(5.209709033e-16 -1.159427452e-16 0)
(5.061779606e-16 -5.076460475e-17 0)
(4.965157223e-16 1.025323756e-17 0)
(4.913468872e-16 6.855706199e-17 0)
(4.896697358e-16 1.250717566e-16 0)
(4.902135447e-16 1.799666924e-16 0)
(4.917835293e-16 2.329116732e-16 0)
(4.930437632e-16 2.828616352e-16 0)
(4.931120174e-16 3.287153592e-16 0)
(4.90942952e-16 3.687621017e-16 0)
(4.862629403e-16 4.01585477e-16 0)
(4.785757503e-16 4.259212909e-16 0)
(4.678071448e-16 4.407983515e-16 0)
(4.540650217e-16 4.455804316e-16 0)
(4.37512331e-16 4.401832318e-16 0)
(4.184998556e-16 4.249980597e-16 0)
(3.974823372e-16 4.008450561e-16 0)
(3.749219427e-16 3.690553355e-16 0)
(3.513597787e-16 3.312100945e-16 0)
(3.273838512e-16 2.891695804e-16 0)
(3.035802386e-16 2.448705584e-16 0)
(2.807286885e-16 2.002497273e-16 0)
(2.595143841e-16 1.57013443e-16 0)
(2.407897017e-16 1.164747684e-16 0)
(2.25498921e-16 7.93634668e-17 0)
(2.146039219e-16 4.581830486e-17 0)
(2.0501087e-16 1.482163318e-17 0)
(5.031722703e-16 -2.526432706e-16 0)
(4.794270935e-16 -1.793281569e-16 0)
(4.602907428e-16 -1.129418114e-16 0)
(4.462442045e-16 -5.202505497e-17 0)
(4.373412425e-16 4.792203366e-18 0)
(4.32974487e-16 5.901275838e-17 0)
(4.320793356e-16 1.117150678e-16 0)
(4.335665526e-16 1.63184596e-16 0)
(4.360184072e-16 2.130690397e-16 0)
(4.383297929e-16 2.604484466e-16 0)
(4.395260117e-16 3.041565291e-16 0)
(4.386544873e-16 3.425828957e-16 0)
(4.353597299e-16 3.742938312e-16 0)
(4.292183403e-16 3.979924325e-16 0)
(4.201819074e-16 4.127614783e-16 0)
(4.082533035e-16 4.179035889e-16 0)
(3.936837913e-16 4.133086029e-16 0)
(3.767264627e-16 3.993535214e-16 0)
(3.578499349e-16 3.768003507e-16 0)
(3.374224276e-16 3.46868469e-16 0)
(3.159837333e-16 3.111257252e-16 0)
(2.940693083e-16 2.713448083e-16 0)
(2.722503206e-16 2.294226309e-16 0)
(2.511656463e-16 1.872093799e-16 0)
(2.315484063e-16 1.463791039e-16 0)
(2.141409076e-16 1.082234154e-16 0)
(1.998667073e-16 7.34809839e-17 0)
(1.896588132e-16 4.228759404e-17 0)
(1.808825629e-16 1.365842678e-17 0)
(4.363441749e-16 -2.395582241e-16 0)
(4.135539289e-16 -1.704937328e-16 0)
(3.952939557e-16 -1.085938477e-16 0)
(3.820866315e-16 -5.227962355e-17 0)
(3.740257484e-16 -2.01324719e-20 0)
(3.705303299e-16 4.981806618e-17 0)
(3.706803245e-16 9.848217144e-17 0)
(3.731382142e-16 1.463142745e-16 0)
(3.76659346e-16 1.930588252e-16 0)
(3.80083305e-16 2.378413395e-16 0)
(3.825346665e-16 2.794364753e-16 0)
(3.829973297e-16 3.162685064e-16 0)
(3.812181746e-16 3.469408264e-16 0)
(3.767104278e-16 3.700705689e-16 0)
(3.694682817e-16 3.847492974e-16 0)
(3.594695198e-16 3.902780231e-16 0)
(3.469776234e-16 3.865104549e-16 0)
(3.32193956e-16 3.73764142e-16 0)
(3.155526768e-16 3.527540153e-16 0)
(2.973833853e-16 3.246234648e-16 0)
(2.78195356e-16 2.909179733e-16 0)
(2.584649381e-16 2.533254761e-16 0)
(2.387164835e-16 2.136836085e-16 0)
(2.195251141e-16 1.738281315e-16 0)
(2.015471107e-16 1.353690907e-16 0)
(1.855258483e-16 9.959381301e-17 0)
(1.722990896e-16 6.727071259e-17 0)
(1.627899912e-16 3.853354079e-17 0)
(1.548692737e-16 1.241617979e-17 0)
(3.675967106e-16 -2.249011472e-16 0)
(3.458425535e-16 -1.601926439e-16 0)
(3.285115521e-16 -1.029772392e-16 0)
(3.162159642e-16 -5.15454474e-17 0)
(3.090521253e-16 -4.136106311e-18 0)
(3.065598418e-16 4.110435869e-17 0)
(3.076846027e-16 8.552393304e-17 0)
(3.112472809e-16 1.296130343e-16 0)
(3.158911732e-16 1.731914567e-16 0)
(3.205041488e-16 2.154227934e-16 0)
(3.241031789e-16 2.549556493e-16 0)
(3.259544302e-16 2.902972678e-16 0)
(3.256405611e-16 3.200086475e-16 0)
(3.227672967e-16 3.42625402e-16 0)
(3.173138654e-16 3.57277321e-16 0)
(3.092780611e-16 3.632298043e-16 0)
(2.988839755e-16 3.602698138e-16 0)
(2.863184507e-16 3.486936448e-16 0)
(2.719312981e-16 3.29155771e-16 0)
(2.561010171e-16 3.027460037e-16 0)
(2.392346283e-16 2.709700097e-16 0)
(2.217633218e-16 2.354512023e-16 0)
(2.041579628e-16 1.97982676e-16 0)
(1.869364262e-16 1.60352504e-16 0)
(1.7066133e-16 1.241794705e-16 0)
(1.560555684e-16 9.074918579e-17 0)
(1.438987555e-16 6.083562839e-17 0)
(1.350913589e-16 3.461179189e-17 0)
(1.280324594e-16 1.111106242e-17 0)
(2.995057275e-16 -2.090346788e-16 0)
(2.788919425e-16 -1.486570391e-16 0)
(2.625473489e-16 -9.621512016e-17 0)
(2.511976546e-16 -4.985476651e-17 0)
(2.449923852e-16 -7.511225452e-18 0)
(2.435411284e-16 3.290009394e-17 0)
(2.456443355e-16 7.297381966e-17 0)
(2.502587429e-16 1.13341828e-16 0)
(2.559297694e-16 1.537895623e-16 0)
(2.616611199e-16 1.935168213e-16 0)
(2.663221428e-16 2.311291283e-16 0)
(2.694456855e-16 2.651565404e-16 0)
(2.704592013e-16 2.939915104e-16 0)
(2.691173255e-16 3.162213576e-16 0)
(2.653516109e-16 3.308878678e-16 0)
(2.591879407e-16 3.372829365e-16 0)
(2.508557136e-16 3.351315755e-16 0)
(2.404552399e-16 3.246279078e-16 0)
(2.283261033e-16 3.064766676e-16 0)
(2.148508132e-16 2.817015405e-16 0)
(2.00327935e-16 2.517017492e-16 0)
(1.851558053e-16 2.180985344e-16 0)
(1.697407733e-16 1.826376534e-16 0)
(1.54530877e-16 1.470786991e-16 0)
(1.400358835e-16 1.130442962e-16 0)
(1.268669788e-16 8.183983087e-17 0)
(1.157948876e-16 5.428438346e-17 0)
(1.076868759e-16 3.057731809e-17 0)
(1.014720128e-16 9.759145852e-18 0)
(2.345405118e-16 -1.924113694e-16 0)
(2.152371542e-16 -1.361957464e-16 0)
(1.999591733e-16 -8.849797295e-17 0)
(1.895665864e-16 -4.730346171e-17 0)
(1.843082099e-16 -1.018087613e-17 0)
(1.838353506e-16 2.528483036e-17 0)
(1.86954593e-16 6.096176525e-17 0)
(1.924504836e-16 9.764397884e-17 0)
(1.989928436e-16 1.35154844e-16 0)
(2.055986854e-16 1.725929835e-16 0)
(2.11161148e-16 2.084830437e-16 0)
(2.152352707e-16 2.413435338e-16 0)
(2.173956681e-16 2.694759794e-16 0)
(2.173329515e-16 2.914054726e-16 0)
(2.150653558e-16 3.06152366e-16 0)
(2.106453413e-16 3.130380414e-16 0)
(2.041742678e-16 3.116342994e-16 0)
(1.958515411e-16 3.021235655e-16 0)
(1.85952831e-16 2.852674336e-16 0)
(1.747880533e-16 2.61966437e-16 0)
(1.625947985e-16 2.335645637e-16 0)
(1.497358019e-16 2.016803767e-16 0)
(1.36545602e-16 1.680174901e-16 0)
(1.233984789e-16 1.343192984e-16 0)
(1.107267292e-16 1.022151549e-16 0)
(9.906061887e-17 7.305793342e-17 0)
(8.909092866e-17 4.773011344e-17 0)
(8.168668869e-17 2.648786255e-17 0)
(7.627662126e-17 8.375732585e-18 0)
(1.749216749e-16 -1.756143396e-16 0)
(1.571999619e-16 -1.23206287e-16 0)
(1.431208527e-16 -8.007491815e-17 0)
(1.33714581e-16 -4.40498597e-17 0)
(1.293916108e-16 -1.223831725e-17 0)
(1.29791403e-16 1.825577225e-17 0)
(1.337856593e-16 4.963167075e-17 0)
(1.399818385e-16 8.282661706e-17 0)
(1.471227521e-16 1.176802154e-16 0)
(1.541632012e-16 1.530990238e-16 0)
(1.602336863e-16 1.87524522e-16 0)
(1.649159056e-16 2.194835557e-16 0)
(1.677984715e-16 2.470772338e-16 0)
(1.687181223e-16 2.688225132e-16 0)
(1.676852769e-16 2.83757865e-16 0)
(1.647444856e-16 2.910707571e-16 0)
(1.59948e-16 2.903677812e-16 0)
(1.535710614e-16 2.818211264e-16 0)
(1.457790916e-16 2.660998306e-16 0)
(1.368499132e-16 2.440833122e-16 0)
(1.269519158e-16 2.170584113e-16 0)
(1.164091021e-16 1.866597634e-16 0)
(1.05478676e-16 1.545407592e-16 0)
(9.445715338e-17 1.224386104e-16 0)
(8.368924654e-17 9.200011936e-17 0)
(7.361033066e-17 6.463125752e-17 0)
(6.481595058e-17 4.131804236e-17 0)
(5.813320616e-17 2.241052448e-17 0)
(5.347853019e-17 6.97720514e-18 0)
(1.224630171e-16 -1.594438101e-16 0)
(1.06776454e-16 -1.102533065e-16 0)
(9.413437938e-17 -7.129139303e-17 0)
(8.577438244e-17 -4.028839021e-17 0)
(8.238292738e-17 -1.379381038e-17 0)
(8.353485697e-17 1.181299361e-17 0)
(8.813783622e-17 3.915688283e-17 0)
(9.462660927e-17 6.923836994e-17 0)
(1.018414028e-16 1.01815483e-16 0)
(1.087666801e-16 1.35611677e-16 0)
(1.148065731e-16 1.689785164e-16 0)
(1.195576814e-16 2.002393196e-16 0)
(1.226901212e-16 2.274950931e-16 0)
(1.241922315e-16 2.492418985e-16 0)
(1.240204787e-16 2.643860358e-16 0)
(1.222376827e-16 2.721210252e-16 0)
(1.189311613e-16 2.720670308e-16 0)
(1.142838612e-16 2.643360193e-16 0)
(1.084669918e-16 2.495890125e-16 0)
(1.016447226e-16 2.286318522e-16 0)
(9.40141142e-17 2.027435288e-16 0)
(8.579324027e-17 1.735609516e-16 0)
(7.717315213e-17 1.426932086e-16 0)
(6.837211618e-17 1.118766312e-16 0)
(5.964037542e-17 8.277863291e-17 0)
(5.130099115e-17 5.686764937e-17 0)
(4.382881443e-17 3.524988614e-17 0)
(3.795716738e-17 1.843693705e-17 0)
(3.40099686e-17 5.585544539e-18 0)
(7.832099564e-17 -1.450068199e-16 0)
(6.544224171e-17 -9.817344045e-17 0)
(5.471187952e-17 -6.266946985e-17 0)
(4.756408614e-17 -3.631895866e-17 0)
(4.506051121e-17 -1.500136785e-17 0)
(4.682554312e-17 6.006137204e-18 0)
(5.152536262e-17 2.983337371e-17 0)
(5.765240523e-17 5.740577363e-17 0)
(6.415776672e-17 8.827871674e-17 0)
(7.025489054e-17 1.209600825e-16 0)
(7.551930259e-17 1.536491566e-16 0)
(7.967798822e-17 1.84501944e-16 0)
(8.25502391e-17 2.116234858e-16 0)
(8.412711523e-17 2.33452135e-16 0)
(8.441008247e-17 2.48833222e-16 0)
(8.346137254e-17 2.569594184e-16 0)
(8.136358642e-17 2.57448741e-16 0)
(7.824315686e-17 2.503851928e-16 0)
(7.423712306e-17 2.36368113e-16 0)
(6.943892738e-17 2.162372673e-16 0)
(6.403784074e-17 1.912515338e-16 0)
(5.814934122e-17 1.629752416e-16 0)
(5.191104482e-17 1.330387192e-16 0)
(4.546428448e-17 1.031670897e-16 0)
(3.896607022e-17 7.504372998e-17 0)
(3.261902939e-17 5.019380969e-17 0)
(2.67397161e-17 2.984855761e-17 0)
(2.190038796e-17 1.473483545e-17 0)
(1.865226168e-17 4.234005796e-18 0)
(4.257104828e-17 -1.337849107e-16 0)
(3.372823384e-17 -8.824392003e-17 0)
(2.587665565e-17 -5.504901811e-17 0)
(2.038519098e-17 -3.259981285e-17 0)
(1.879716281e-17 -1.603979574e-17 0)
(2.080038873e-17 1.066655516e-18 0)
(2.477382465e-17 2.231379234e-17 0)
(2.948742778e-17 4.826338061e-17 0)
(3.423172902e-17 7.811566947e-17 0)
(3.855943311e-17 1.101938747e-16 0)
(4.222861031e-17 1.425525414e-16 0)