/*--------------------------------*- C++ -*----------------------------------*\
  =========                 |
  \\      /  F ield         | OpenFOAM: The Open Source CFD Toolbox
   \\    /   O peration     | Website:  https://openfoam.org
    \\  /    A nd           | Version:  8
     \\/     M anipulation  |
\*---------------------------------------------------------------------------*/
FoamFile
{
    version     2.0;
    format      ascii;
    class       volScalarField;
    location    "0.5";
    object      alphat;
}
// * * * * * * * * * * * * * * * * * * * * * * * * * * * * * * * * * * * * * //

dimensions      [1 -1 -1 0 0 0 0];

internalField   nonuniform List<scalar> 
67193
(
0.0001608705376
0.0001457093538
0.0001397080272
0.0001448249205
0.0001555576604
0.00017080432
0.000177458266
0.0001739895094
0.0001598372578
0.0001386695972
0.0001272648787
0.0001234368953
0.000121442322
0.0001197335886
0.0001185890446
0.0001173685972
0.000114485463
0.0001084359674
0.0001005577089
9.316600367e-05
0.0001401667755
0.0002787301985
0.00018532937
9.566071195e-05
3.478823762e-05
8.963396764e-06
1.969448265e-06
6.749946341e-07
4.997107882e-07
4.809642633e-07
4.789743782e-07
4.784990675e-07
4.76369085e-07
3.794913731e-07
0.0001763460432
0.0001633677113
0.0001617430649
0.0001664298602
0.0001739538186
0.0001883257212
0.0001969058298
0.0001966294244
0.0001834238168
0.000153866511
0.0001381765867
0.0001326538507
0.0001282313273
0.000124959318
0.0001245637495
0.0001259777141
0.0001270947458
0.0001253710723
0.0001213720173
0.0001171923946
0.0001127992362
0.0001066114107
9.606623642e-05
0.0003042542429
0.0001622662976
6.00523285e-05
1.539148764e-05
3.191015955e-06
9.083599608e-07
5.865022247e-07
5.489349012e-07
5.44382004e-07
5.383548893e-07
4.114047098e-07
0.0001815672681
0.0001768477013
0.0001765713457
0.0001792968187
0.0001840158898
0.0001966266652
0.0002055015822
0.0002068374071
0.0001965241589
0.0001650649756
0.0001452498911
0.0001366222561
0.0001277507102
0.0001218977535
0.0001222108744
0.0001257789765
0.000129425989
0.0001293516935
0.0001267653336
0.0001247545079
0.0001229836025
0.0001199126863
0.0001139729626
0.0001028550058
0.0003469629725
0.0001829091457
6.716076812e-05
1.75392351e-05
3.839994009e-06
1.077190182e-06
6.259904462e-07
5.656463285e-07
5.4917851e-07
4.165088575e-07
0.0001880292764
0.0001878285127
0.0001870846069
0.0001884744717
0.0001921886075
0.0002038405723
0.0002121004713
0.0002136050218
0.0002055319007
0.0001770569399
0.0001547665732
0.0001412564515
0.0001250468124
0.0001156951771
0.0001174286197
0.000123373381
0.0001292161971
0.0001295014513
0.0001270982005
0.0001273468355
0.0001281394864
0.0001267844349
0.0001228689315
0.000115765614
0.000103300761
0.0003408838847
0.0001776991158
6.81497629e-05
2.007105894e-05
5.047958638e-06
1.419720515e-06
7.802841408e-07
6.639501435e-07
4.918131284e-07
0.0001955545311
0.0001970787782
0.0001968997599
0.000199698866
0.0002049410228
0.0002149214924
0.0002192130361
0.0002187580407
0.0002119778882
0.0001894214552
0.0001681733931
0.000147819241
0.0001221154191
0.0001093757436
0.000112680314
0.0001206918797
0.0001283790731
0.0001283854635
0.000126466009
0.0001302845918
0.0001348338616
0.0001344671499
0.0001301339549
0.0001232726111
0.000114018495
0.0001004816625
0.0003235144695
0.0001798312766
7.868196345e-05
2.677854929e-05
7.444133934e-06
2.753841999e-06
1.802166774e-06
1.322792348e-06
0.0002015316355
0.0002053765782
0.0002076236296
0.0002122743247
0.0002191381983
0.0002273509203
0.0002261223554
0.0002219402067
0.0002167036255
0.0001991458845
0.0001807017604
0.0001546310131
0.000121231365
0.000106774695
0.0001100916163
0.0001185331454
0.0001274043701
0.0001292646844
0.0001305242423
0.0001393873614
0.0001466277906
0.0001463910078
0.0001400270735
0.0001306853868
0.0001208548922
0.0001108408494
9.877117594e-05
0.0003371135131
0.0002080975707
0.0001013311098
3.745019473e-05
1.48138235e-05
9.218049162e-06
7.154147745e-06
0.0002043944661
0.0002116610526
0.0002174553087
0.0002242764239
0.0002324197861
0.0002387633674
0.000232250407
0.0002220960696
0.0002220259474
0.0002066164587
0.000190321961
0.0001615019424
0.0001243372428
0.0001089543989
0.0001101281437
0.0001169908375
0.0001260942696
0.0001320922969
0.0001416733472
0.0001562197526
0.0001630099111
0.0001611639808
0.0001521581313
0.0001393599676
0.0001268195682
0.0001170848518
0.0001094227577
0.0001013012424
8.885346818e-05
0.0002503957306
0.0001294504693
6.24191166e-05
4.04387287e-05
3.237569266e-05
0.0002027298308
0.0002135281733
0.000223946777
0.0002342387598
0.000243728192
0.0002483320497
0.0002377573567
0.0002254416131
0.0002335135028
0.000215997216
0.0001989297767
0.0001704590738
0.0001331385348
0.0001150905613
0.0001126349026
0.0001162683947
0.0001246107731
0.0001372581629
0.0001631340182
0.0001781465749
0.0001801972792
0.0001742532652
0.0001626796966
0.000146964836
0.0001314754761
0.0001204241094
0.0001143387021
0.0001115242329
0.0001053928089
9.513274051e-05
0.0002940148228
0.0001780364842
0.0001229912227
9.746248046e-05
0.0001971244616
0.0002088117938
0.0002230777772
0.0002394391989
0.0002522572525
0.0002549391332
0.0002404046498
0.000226630037
0.0002533065204
0.0002329953295
0.000211812761
0.0001845511619
0.0001490655088
0.000125132643
0.0001176995622
0.0001178625376
0.0001307123157
0.0001569440845
0.0001935529123
0.00019926127
0.000193723659
0.0001821304629
0.0001675202768
0.0001501431904
0.0001327592407
0.0001207521113
0.0001161015006
0.000118627257
0.0001156356039
0.0001113553097
0.0001007247921
0.0003478058428
0.0002577483399
0.0001988238908
0.0001940152968
0.0001992879042
0.0002130369941
0.0002346466194
0.0002564392985
0.0002582034347
0.0002392547363
0.0002354758939
0.0002811444028
0.0002581817962
0.0002335435272
0.0002030181512
0.0001725925225
0.0001452513891
0.0001268465151
0.0001262416758
0.0001568710486
0.0001893185167
0.000216057713
0.0002138212495
0.0002004695481
0.0001822317158
0.000164616916
0.0001466153968
0.0001291627678
0.0001184747777
0.0001190373077
0.0001291447255
0.0001264123327
0.0001238396932
0.0001169521441
0.0001046847857
9.192734966e-05
0.0003024481382
0.0002001244015
0.000195678637
0.000197790729
0.0002168274506
0.0002523905094
0.0002566208899
0.000244293304
0.0002751519263
0.000323790746
0.0002942814124
0.0002617500393
0.0002269342467
0.0001892408626
0.0001553937773
0.0001301762526
0.0001422464196
0.0001676356929
0.0001962765944
0.0002272654909
0.0002193736036
0.0001975949575
0.0001721951463
0.0001524764799
0.0001356265952
0.0001213263413
0.0001170380181
0.0001284541147
0.0001429396448
0.0001400802269
0.0001369995085
0.0001303653564
0.0001188342174
0.0001053913855
0.0001502450542
0.0002085579558
0.0002006996257
0.0001925631338
0.0001990543231
0.0002249513518
0.0002454195204
0.0002818093112
0.0003361819625
0.0003701794593
0.0003378636315
0.0002901510892
0.0002508926178
0.000207448366
0.000162961646
0.0001384432177
0.0001509453343
0.0001595596909
0.0001749502157
0.0002142368626
0.0002088526054
0.0001756213664
0.0001471010867
0.000130424112
0.0001196733188
0.0001140701233
0.000124502328
0.0001424970958
0.0001566599945
0.0001529954576
0.0001498261238
0.0001425136276
0.0001302514369
0.0001147673556
9.544059306e-05
0.000216848929
0.0002052360308
0.0001954164612
0.000191871535
0.0001977915363
0.0002072465295
0.0002180718173
0.0002868585869
0.0003739084341
0.0003188526472
0.0002488219397
0.0001853527593
0.0001489384619
0.0001357089474
0.0001488472494
0.0001609857868
0.0001545640597
0.0001365965761
0.0001481583341
0.0001426278163
0.0001178767785
0.0001108689875
0.0001088302807
0.0001086333184
0.0001149786499
0.0001366130477
0.0001575551754
0.0001634332372
0.0001599376535
0.0001559805504
0.0001491606821
0.0001366879542
0.0001202338129
9.836949384e-05
0.0002235065355
0.0002082057935
0.0001986269607
0.0001869852447
0.0001921806755
0.000193312402
0.0001957195697
0.0002052427409
0.0002865593092
0.0002483571193
0.0001818110547
0.0001400817392
0.0001359579616
0.0001459086311
0.0001609579474
0.0001651553803
0.00015880815
0.0001290781941
0.0001055120544
0.0001020700348
0.0001027803522
0.0001044959785
0.0001065183946
0.000107806022
0.0001109268104
0.0001301352534
0.0001618222393
0.0001516690487
0.0001481938691
0.0001456067105
0.0001374357432
0.0001256640743
0.0001124448229
9.559408022e-05
0.0002278879353
0.0002105491832
0.0002022843846
0.0001769234307
0.0001829157661
0.000188738874
0.0001888628163
0.0001849017016
0.000218217647
0.0001765301142
0.0001340443856
0.0001309850065
0.0001441035535
0.0001585286379
0.0001662726456
0.0001648497044
0.0001610125965
0.0001357961913
0.0001019991348
9.666559042e-05
9.982733724e-05
0.0001033308881
0.0001061408472
0.0001079002688
0.0001079631804
0.0001098922315
0.0001319395047
0.0001503210846
0.0001783275807
0.0001679282919
0.0001440153988
0.000119634138
0.000104941756
0.0001580367132
0.0002299536293
0.0002146523131
0.0002059392087
0.0001753202087
0.0001793590754
0.0001862640562
0.0001858204231
0.0001778391529
0.0001706434168
0.000130288454
0.0001214437992
0.0001347656358
0.000153300654
0.0001651741858
0.0001709821068
0.0001636200032
0.0001574918455
0.0001395511735
0.0001050871644
9.686352328e-05
9.970941084e-05
0.000103819687
0.0001066986338
0.0001080636015
0.0001086173059
0.0001228808049
0.0001545410894
0.00020298804
0.000221124887
0.0002086894027
0.0001796785782
0.0001482806147
0.0001191026592
9.566700705e-05
0.0002288067533
0.000222010209
0.0002134997094
0.0001962176282
0.0001874250889
0.0001840316244
0.000172219637
0.0001356783222
0.0001252366632
0.0001196075289
0.0001244011196
0.0001356174677
0.0001524256682
0.0001638356911
0.0001754483787
0.0001654129583
0.0001516444122
0.0001366272075
0.0001206999184
0.0001093072165
0.0001058535031
0.0001060679509
0.0001071689401
0.0001082841573
0.000109001009
0.0001271781915
0.0001722741579
0.0002288202516
0.0002242482563
0.0001900348172
0.0001461810057
0.0001139033672
0.0001036462265
9.386843174e-05
0.0002248544907
0.0002227691602
0.0002178675899
0.0002086436323
0.0002002701751
0.0001910471686
0.0001711300236
0.0001274800484
0.0001242558238
0.0001314193585
0.0001329754653
0.0001282590622
0.000123977259
0.0001358240947
0.0001564473773
0.0001499305847
0.0001389343607
0.0001308512158
0.0001254934367
0.0001201123345
0.0001145819815
0.0001115183149
0.0001104622879
0.0001102841981
0.0001100332245
0.0001145905415
0.0001336863663
0.0001928436155
0.0001796666164
0.0001446384738
0.0001174170329
0.0001091026737
0.0001075536167
9.859488282e-05
0.0002172202466
0.0002172293931
0.0002148887034
0.0002106550547
0.0002043369476
0.000193045872
0.0001643949981
0.0001296998287
0.0001378588613
0.0001447736578
0.000144793119
0.0001390954558
0.0001315544234
0.0001251208068
0.0001315333548
0.0001372090393
0.0001361438248
0.0001266320255
0.0001262863119
0.0001237880191
0.0001203035709
0.0001165452046
0.0001136802847
0.0001119782673
0.0001107240446
0.0001105947595
0.0001116859645
0.0001466717205
0.0001293149988
0.0001166276175
0.0001161047362
0.0001171939057
0.00011616638
0.0001057385629
0.0001953528423
0.0001999290997
0.0002029603716
0.0002040330345
0.0002004532537
0.0001879377789
0.0001512782928
0.0001303365339
0.0001433928501
0.000148496192
0.0001476987391
0.0001406199931
0.0001330968262
0.0001251223018
0.0001260200091
0.0001310106959
0.0001325754415
0.000129409917
0.0001264493937
0.0001061673884
0.0001107999202
0.0001136988045
0.0001129982689
0.0001112244465
0.0001091834349
0.0001064586657
9.812855049e-05
0.0001131773352
0.000126563209
0.0001321983562
0.0001332965482
0.0001316607875
0.0001274821366
0.0001132823653
0.0001695035096
0.0001795756335
0.0001878433044
0.0001923008878
0.0001897768129
0.0001727009908
0.0001282221337
0.0001251049234
0.0001362791744
0.0001415558726
0.0001404749136
0.0001192776133
0.0001205618975
0.0001190285215
0.0001097265086
0.0001200909131
0.0001243362251
0.0001243001958
0.000121222218
0.0001114888148
0.0001085365291
0.0001075125311
0.0001059745515
0.0001041189468
0.000101373721
9.662144822e-05
0.0001130760317
0.0001340842469
0.0001442487038
0.0001471661176
0.0001458071276
0.0001416796905
0.0001354298063
0.0001187019508
0.0001579975681
0.0001678399365
0.0001763643362
0.000180433978
0.0001754584056
0.0001493705573
0.000113476148
0.0001199665307
0.0001272195812
0.0001294459051
0.0001252878276
9.445101505e-05
0.0001069754264
0.0001114599533
0.0001119296662
0.0001137890313
0.0001135659295
0.0001085865933
0.000101434472
9.586566666e-05
9.486869213e-05
8.981529781e-05
9.058405873e-05
9.200801506e-05
0.0001035586989
0.0001236848612
0.000143171557
0.000151898343
0.0001572285706
0.0001569147822
0.0001526000286
0.0001465565112
0.000139366101
0.0001215568142
0.0001547088259
0.0001620315861
0.0001677502602
0.0001669294104
0.0001539846947
0.0001196670177
0.0001074294512
0.0001138406501
0.000118040135
0.0001154395568
0.0001025984683
0.0002862282343
8.881573576e-05
9.742482674e-05
0.0001021639222
0.0001006837535
8.896873005e-05
0.0002033266307
0.0001554145968
9.197578925e-05
0.0001550401726
0.0001213922424
0.0001172440884
0.0001180622565
0.0001295865081
0.0001451639361
0.0001638887746
0.0001767863966
0.0001764797114
0.000169770536
0.000160170534
0.0001501934597
0.0001407294052
0.000122628199
0.0001537639788
0.0001575637402
0.0001546870523
0.0001435185678
0.0001182665125
9.425780627e-05
9.801233112e-05
0.0001054587561
0.0001100718037
0.0001081955934
0.0001001030314
0.0001023157085
9.099604487e-05
0.0003665571417
0.0003507521484
0.0003259318889
0.0001814065549
0.0001054134408
0.000108644026
0.0002043397722
0.0002722508686
0.0002082710056
0.000164836843
0.0001422443278
0.0001392590743
0.0001480923349
0.0001762584052
0.000194207772
0.000191300837
0.0001827465048
0.0001699853403
0.0001553884132
0.0001417271818
0.0001228924358
0.000150665808
0.0001503583049
0.0001430335177
0.0001225727066
9.919332704e-05
0.0002692922595
0.0001951371562
0.0003170768072
9.148063637e-05
0.0001007978777
0.0001045079728
0.0001022786712
9.885574133e-05
8.877701382e-05
0.0003264679338
8.835861585e-05
9.5693475e-05
0.000331637207
0.000106888119
0.000224068524
0.0003515551293
0.0003754795631
0.0003014734317
0.0002271558476
0.0001708764164
0.0001501672689
0.0001429412774
0.0001419727172
0.0001797881912
0.0001796938148
0.0001688383611
0.0001576351836
0.0001468855127
0.0001367662311
0.0001197600404
0.0001444253171
0.0001320547247
0.0001122244179
0.0003226712855
0.0001600993384
8.973408457e-05
0.0001644115014
0.0001423709862
0.0002207554419
0.0003339767427
9.189592789e-05
9.274593672e-05
8.769026233e-05
0.0002584632521
0.0003690978269
0.0001106073836
0.0001216016961
0.0001228279765
0.0002083048818
0.0003531772569
0.0004828044476
0.0004972465808
0.0003997282611
0.0003037947301
0.0002171092862
0.0001675109926
0.0001531184752
0.0001448603684
0.0001437994905
0.0001546759524
0.000146897927
0.0001412469277
0.0001347951471
0.0001264143962
0.0001135600459
0.0001229989095
9.492896056e-05
0.0002939013601
0.0001248577704
0.0001000991897
0.0002254552554
9.615152143e-05
0.0001480060723
0.000226773451
0.0002431102267
0.0002646471294
8.994323087e-05
0.0001135146876
0.0003646038208
0.0001228581624
0.0001167874114
0.0001139523965
0.0001309096538
9.435957817e-05
0.0001280188582
0.0002347619241
0.0003148782356
0.000212112621
0.0001754308943
0.0001669716504
0.0001634597653
0.0001586474455
0.0001534687162
0.0001454903681
0.0001395484266
0.0001356768949
0.0001338701758
0.000130005897
0.0001230924894
0.0001092157276
8.898581809e-05
0.0001871243787
0.0001117769195
4.096501705e-05
6.213904042e-05
0.000160481275
0.0002647064459
7.132603764e-05
0.0001130381944
0.0001296289263
0.0001609090085
0.0002422655999
0.0003243163326
9.114052927e-05
9.905085323e-05
0.0001013479754
0.0001156828742
0.0001607426398
0.0001447344785
0.0001438386522
0.0001781686405
0.0002247621846
0.0001846984477
0.0001874216381
0.0001879417774
0.0001836094144
0.0001712870824
0.0001610978462
0.0001541144785
0.0001456086661
0.0001348200917
0.0001284276518
0.0001240716039
0.0001174518463
0.0001032731769
5.581963289e-05
3.150349194e-05
1.110476881e-05
2.291332172e-05
6.924619387e-05
0.0001211327846
2.712998044e-05
5.09654271e-05
6.619828105e-05
9.91213569e-05
0.0001834203892
8.978132455e-05
0.0001322418193
0.0001705869802
0.0001774887812
0.0001717579911
0.0002106185742
0.0002224642467
0.0001613827193
0.0001716845793
0.0001841183617
0.0001988358801
0.0002123827376
0.000212458758
0.0002046787373
0.0001908362478
0.0001835847565
0.0001718880427
0.0001631287305
0.0001510881951
0.0001335278297
0.0001187549797
0.0001077146723
9.566696663e-05
8.603413908e-06
5.762238648e-06
2.182815829e-06
4.879742042e-06
1.711692305e-05
3.565792971e-05
6.426714556e-06
1.550413845e-05
2.534866743e-05
6.219137282e-05
0.0001711168571
9.432418228e-05
0.0002326966061
0.0002253062131
0.000208815474
0.0002239465328
0.0002060388556
0.0001837501385
0.0001613861703
0.0001328263217
0.0001100267683
0.0001113036857
0.0001132633396
3.720876014e-06
1.510260654e-05
4.373830968e-05
6.767368815e-05
2.886919797e-05
3.4831576e-06
0.0001520882479
0.0001398737701
0.0001307253766
0.0001301012521
0.0001373617709
0.0001515037826
0.0001607326322
0.0001603877529
0.0001468231521
0.0001288904385
0.0001171135064
0.000112048721
0.0001101250571
0.0001088512797
0.0001073111105
0.0001051213565
9.955959589e-05
8.981973504e-05
0.0002986198684
0.0002279115651
0.0001716503999
0.0001165146625
6.506282349e-05
2.773190413e-05
8.861871033e-06
2.423917e-06
8.819219316e-07
6.016633692e-07
5.516396865e-07
5.356755319e-07
5.266536724e-07
5.197653038e-07
5.002225315e-07
3.377191616e-07
0.0002313267062
0.0002317320517
0.0002051723693
0.0001808845763
0.0001665736357
0.0001776878893
0.0002127235455
0.0002203967422
0.0001928320277
0.0001487530927
0.0001199454339
0.0001122522333
0.0001130872076
0.0001177575845
0.0001248392293
0.0001334581481
0.0001286245171
0.0001146251847
0.0001016644334
9.178369598e-05
8.448963804e-05
7.896126096e-05
7.961406428e-05
8.41828614e-05
4.771144861e-05
1.787632557e-05
6.24821016e-06
3.933806402e-06
4.132140994e-06
4.269953712e-06
4.239150688e-06
4.066680661e-06
2.971929871e-06
3.82123173e-07
0.0002464431399
0.000270719248
0.000258780867
0.0002293748284
0.0002017639754
0.0002044481391
0.0002417152047
0.0002474146708
0.0002103180429
0.000141936858
9.678071417e-05
9.394152059e-05
9.654678367e-05
0.0001043978133
0.0001206002934
0.0001422738998
0.0001367366932
0.0001165888716
0.0001059891732
0.0001030225084
0.0001001879136
9.392738177e-05
8.561922464e-05
7.799352751e-05
8.577783568e-05
5.264045681e-05
2.061569968e-05
7.648543752e-06
5.278499694e-06
5.991958615e-06
6.340031326e-06
5.845739227e-06
3.69724699e-06
3.930251053e-07
0.000255589473
0.0002947076562
0.0003002389472
0.0002629186201
0.0002340026798
0.0002363004267
0.0002730231083
0.0002770899845
0.000234749195
0.0001600058196
9.472570164e-05
8.333902499e-05
7.423681221e-05
7.504420036e-05
9.673559769e-05
0.0001362228328
0.0001336861742
0.0001047447867
9.512227795e-05
0.0001027806258
0.000112085634
0.0001112872726
0.0001030727867
9.193123255e-05
8.137154958e-05
8.613278633e-05
5.316028122e-05
2.19032363e-05
8.617925404e-06
5.630827474e-06
6.114865063e-06
5.859528613e-06
3.666070954e-06
4.212245364e-07
0.0002698385239
0.0003110831683
0.0003125552425
0.0002924054151
0.0002828834599
0.0002802077941
0.0003020178695
0.0003025899382
0.0002679936477
0.0001961398926
0.0001172067556
9.048290871e-05
6.611062294e-05
5.700511195e-05
7.987598806e-05
0.0001310084224
0.0001338149442
0.0001012626004
8.943798686e-05
9.414506681e-05
0.0001073099572
0.0001170527602
0.0001161872976
0.0001076237837
9.529231966e-05
8.493709494e-05
8.748361484e-05
5.63462801e-05
2.562571634e-05
1.041038934e-05
5.842079434e-06
4.949766118e-06
3.32488188e-06
7.196239051e-07
0.0002859719765
0.0003283051098
0.0003363530658
0.0003363609827
0.0003451072367
0.0003388552567
0.0003264224039
0.0003146134908
0.0002934077456
0.0002300468161
0.0001444320858
0.0001061909374
7.211344159e-05
5.629307349e-05
7.516556523e-05
0.0001285377077
0.0001392173363
0.0001157732547
0.0001042252232
9.832951219e-05
0.0001088827906
0.0001205741451
0.0001238110317
0.0001184934508
0.0001084296553
9.619333688e-05
8.7938068e-05
9.31267011e-05
6.525242815e-05
3.223772332e-05
1.354430301e-05
7.866165181e-06
5.418746448e-06
3.066622505e-06
0.0002954624278
0.0003477397254
0.0003709665329
0.000385978723
0.0004083960022
0.0003994975556
0.0003518969535
0.0003082183395
0.0003019531946
0.0002525079045
0.0001705310382
0.0001255239425
8.758361657e-05
6.765321872e-05
7.823151601e-05
0.0001260546253
0.0001510370793
0.0001431574836
0.0001349205751
0.0001266123649
0.0001314668157
0.0001362928131
0.0001336718199
0.0001259379347
0.0001170666705
0.0001069996252
9.679578065e-05
8.890822857e-05
9.62078292e-05
7.539824178e-05
4.208606235e-05
2.520587452e-05
1.811302939e-05
1.498999712e-05
0.0002912701347
0.0003462471406
0.0003990439214
0.0004324565728
0.0004665325806
0.0004561695977
0.0003841330445
0.0003256970385
0.0002999230311
0.000265382734
0.0001971301604
0.0001506859448
0.0001091383826
8.448497243e-05
8.787708614e-05
0.0001256008525
0.0001614428613
0.0001747537321
0.0001686509587
0.0001589469104
0.0001579555242
0.0001521256103
0.0001389417438
0.0001270634083
0.0001191662318
0.0001127855469
0.0001055311087
9.876350097e-05
9.030624326e-05
9.026970606e-05
8.9535991e-05
7.02896056e-05
5.494857507e-05
5.249675552e-05
0.0002819300352
0.0003181266571
0.0003992331171
0.0004684010865
0.0005165298362
0.0005010511074
0.0004151598121
0.0003103905398
0.0002605622184
0.0002594400227
0.0002193731026
0.0001816328461
0.0001319052766
0.0001017263144
0.0001052016174
0.0001311918066
0.0001615119505
0.0001945140644
0.0001980138902
0.0001909214648
0.0001781018476
0.0001544319407
0.0001285031143
0.0001147492712
0.0001105912189
0.0001102734041
0.0001040123244
0.0001085348935
0.0001023140775
9.556505542e-05
9.823777734e-05
0.0001221801991
0.0001111018897
0.0001241940411
0.0002943123168
0.0002887537696
0.0003567678596
0.0004857833031
0.0005548231264
0.0005304507307
0.000438962729
0.0002961609726
0.0002212705213
0.0002190159138
0.0002184888507
0.0002042016956
0.0001590774172
0.0001239530862
0.0001280166363
0.0001382180254
0.000161723727
0.0002124741828
0.0002416989833
0.0002285084802
0.0001924776517
0.0001447091192
0.0001092192169
9.396837584e-05
9.399605816e-05
9.921562925e-05
8.047953268e-05
0.0001048946446
0.0001089515952
0.0001114690855
0.0001091897927
0.0001120455441
0.0001248672831
0.0002101331749
0.0003410450028
0.0002950822669
0.000313904744
0.0004630659692
0.0005735846092
0.0005467229662
0.0004247272453
0.0002920919889
0.0002966446881
0.0002324147036
0.0001959431783
0.0001951424815
0.0001768669065
0.0001579413024
0.0001472449501
0.0001488552981
0.0001721098549
0.0002409967824
0.0002800384511
0.000248033292
0.000191116166
0.0001299432815
9.354708005e-05
7.991418831e-05
8.199471974e-05
8.52195544e-05
5.231881686e-05
7.199113776e-05
9.428380712e-05
0.0001191839075
0.0001242329849
0.0001143622673
0.0001079289429
0.0002803032385
0.0003964665864
0.0003353126449
0.0003159541939
0.0003920736925
0.000544639109
0.0005339374375
0.0004066622531
0.0004326858074
0.0004238314863
0.0003411277954
0.0002031049456
0.0001787685147
0.0001659363795
0.000147500362
0.0001408027921
0.0001609852696
0.0001827807634
0.0002186515205
0.0002568402518
0.0002189315061
0.0001576954008
0.0001071210234
8.449014617e-05
7.853477789e-05
8.340461671e-05
7.827549144e-05
4.849330213e-05
6.035808975e-05
8.081229223e-05
0.0001193846572
0.0001310652387
0.0001165523396
0.000109193984
0.0003224494597
0.0004429758046
0.0003806329721
0.000345771366
0.0003639609057
0.0004317351258
0.0004110339002
0.0003449618049
0.00050800733
0.0004749115276
0.0003335953796
0.0001732163026
0.0001653880477
0.000171577911
0.0001617125291
0.0001653606382
0.0001929210619
0.0001900420106
0.000155619537
0.0001873732122
0.0001518310886
0.0001081095884
8.897502271e-05
8.501178956e-05
8.863795307e-05
9.353264855e-05
8.005101171e-05
5.906832507e-05
5.726354962e-05
7.179468501e-05
9.760824595e-05
0.0001213768047
0.0001038815268
0.000106310214
0.0003403266887
0.0004821054753
0.0004181914607
0.0003566726727
0.000295817471
0.0003322961364
0.0003436984205
0.0002916448209
0.0002721924351
0.000276587369
0.0002252649861
0.0002150675692
0.0002466512842
0.0002290661363
0.0002130193452
0.0002175115447
0.0002199867663
0.0001918304572
0.0001128624605
8.57535943e-05
7.800569325e-05
8.079214508e-05
8.662996158e-05
9.386243583e-05
0.0001018962838
9.787548699e-05
7.435919576e-05
6.815272955e-05
6.758457669e-05
6.987416764e-05
8.337982469e-05
9.369691449e-05
8.78197686e-05
9.741746896e-05
0.0003380027673
0.0004987803979
0.0004368643959
0.0003319580365
0.0002010165719
0.0002293250143
0.000274592548
0.0002764464037
0.0002311561173
0.0001963276365
0.0002109896283
0.0002568040689
0.0002869474061
0.0002663684948
0.0002605263894
0.0002245883091
0.0001968653654
0.0001734754637
9.404108893e-05
6.648141216e-05
6.897657534e-05
7.877354049e-05
9.006373634e-05
9.962255722e-05
0.0001055791132
0.0001035885536
0.0001126839747
9.251821088e-05
8.149736863e-05
9.519296064e-05
0.0001280818185
0.00011607598
9.447815335e-05
9.876113378e-05
0.0003345429611
0.0004859964595
0.0004382905111
0.0003080990945
0.000166401598
0.0001731258447
0.0002168643969
0.0002309193934
0.0001863337967
0.0001772400602
0.0002170013356
0.0002559200631
0.0002755036997
0.0002618556207
0.0002450861833
0.0002158678588
0.0001767328804
0.0001505694666
8.864101852e-05
6.515672744e-05
6.659232848e-05
7.850520273e-05
9.161802742e-05
0.000100986917
0.0001054037522
0.0001067538556
0.0001071317804
0.0001551314264
0.0001238720589
0.0001364570029
0.0001264658725
9.30666958e-05
0.0001080250111
0.0001109140628
0.0003437875465
0.0004475283658
0.0004082808394
0.0002907125094
0.0001821252593
0.0001606604328
0.0001738709046
0.0001511754018
0.0001401787581
0.0001665467718
0.0002064714765
0.0002465962574
0.0002352239652
0.0002131613808
0.0002144264774
0.000226703062
0.0001876350385
0.0001370815884
9.231311298e-05
7.118984668e-05
6.870811072e-05
7.66593311e-05
8.417461652e-05
9.007129663e-05
9.232418648e-05
8.765059049e-05
8.843676581e-05
0.0001196876921
0.0001441624122
0.0001574506584
0.000119779936
9.361755454e-05
0.0001091934129
0.0001233099302
0.0003486756197
0.0003912614678
0.0003735536328
0.0003000417685
0.0002296815335
0.0002205586536
0.0002035079504
0.0001487871921
0.0001430838747
0.0001905960916
0.0002410730377
0.0002554094257
0.0002290137017
0.0001780075329
0.0001773743877
0.0001716098211
0.0001404182898
9.790291946e-05
7.507065062e-05
6.718267926e-05
6.374098296e-05
6.455107607e-05
7.172435532e-05
7.817518182e-05
7.898221309e-05
8.334706278e-05
8.514339073e-05
8.880017414e-05
0.0001197787248
0.0001319796304
0.0001416940225
0.0001524487804
0.0001443695799
0.0001316218495
0.0003606143506
0.0003155604716
0.0003156499427
0.0002829851057
0.0002489841015
0.0002342668867
0.0001989335446
0.0001426655806
0.0001635323542
0.0002404384411
0.0002831128894
0.0002874432052
0.0002572604146
0.0002096023661
0.0001340279389
0.0001025597716
9.355241526e-05
9.395520003e-05
7.238068862e-05
8.037573179e-05
9.53133713e-05
8.376344217e-05
8.366459766e-05
8.782489288e-05
8.874460513e-05
9.216171089e-05
9.771886534e-05
9.283219752e-05
7.97556463e-05
0.0001105597546
0.0001392104765
0.0001617219546
0.0001558443596
0.0001373342512
8.965650285e-05
0.000204866142
0.0002275081788
0.0002410815994
0.0002403987287
0.0002249342121
0.0001760210864
0.0001265551481
0.0001645684232
0.0002612818686
0.0002926279782
0.0002885968228
0.000250340258
0.0001929893631
0.0001185056687
9.489070955e-05
8.628853044e-05
9.080159165e-05
9.938327782e-05
0.000126786424
8.032541196e-05
8.941821274e-05
9.546875459e-05
9.896498458e-05
9.69398e-05
9.611097227e-05
9.744489292e-05
9.467089342e-05
8.697157128e-05
0.0001052076621
0.0001475529227
0.0001757212482
0.0001610100391
0.0001341155392
9.354881604e-05
0.000105497345
0.0001585699009
0.0002065329819
0.0002158876081
0.0001867471262
0.0001410708782
6.746847825e-05
0.0001054657677
0.0002127699049
0.0002522804079
0.0002443525894
0.0001777022875
0.0001376234832
0.0001051609872
5.789471175e-05
7.936127038e-05
9.355952902e-05
0.0001018288017
0.0001059163906
0.0001070380349
9.814560236e-05
9.855755652e-05
9.646548793e-05
9.172242412e-05
9.105128101e-05
9.486400421e-05
9.419186494e-05
8.884716615e-05
0.000109671826
0.0001569267928
0.0001670253987
0.0001369360121
0.0001167130324
9.689239946e-05
9.216431821e-05
0.000138529269
0.0001687774482
0.0001717958302
0.0001463897459
0.0001091673701
6.276451167e-05
7.473753002e-05
0.0001291220345
0.0001625993366
0.0001552731691
7.962456002e-05
8.891426739e-05
8.183342603e-05
8.198257477e-05
8.878129551e-05
8.684225166e-05
8.499016404e-05
8.727847497e-05
7.508921225e-05
9.775148436e-05
0.0001379106362
0.0001273761443
0.0001134960586
9.171444967e-05
9.109779062e-05
8.066531592e-05
9.202677916e-05
0.0001177727231
0.0001289955436
0.0001196259712
0.0001052889177
0.0001024887525
9.83818222e-05
0.0001084441448
0.0001216227728
0.0001316790309
0.0001343359694
0.000117582211
8.965751862e-05
6.976460897e-05
6.495965571e-05
7.159883106e-05
8.703250833e-05
8.86410815e-05
5.589961703e-05
7.322075818e-05
8.233519721e-05
9.244313347e-05
9.309044089e-05
7.771343013e-05
0.000112386486
3.282552614e-05
1.582910473e-05
4.366092722e-05
7.265921654e-05
8.097501497e-05
8.332807304e-05
8.875772097e-05
9.347138652e-05
0.000164141962
0.0002006649681
0.0001999622537
0.0001729346467
0.0001367800501
0.0001103905574
0.0001000774586
9.794099726e-05
0.0001033912481
0.0001055633882
0.0001041667064
0.0001010805121
9.067226789e-05
8.731456462e-05
6.969887737e-05
6.506806077e-05
5.805614503e-05
5.963828802e-05
7.789460631e-05
0.000148031757
0.0001041116329
0.0001329089658
0.0001940953325
0.0002594535999
0.000122955656
1.258271553e-05
1.384192957e-05
7.80505008e-05
5.12160091e-05
7.391264673e-05
8.958327549e-05
8.631520846e-05
0.0001007110615
0.0001277097227
0.0002457295051
0.000263327704
0.0002545695479
0.0002252645578
0.0001839592835
0.0001416672896
0.0001161272272
9.718048338e-05
9.277767215e-05
0.0001123372105
0.0001371339681
9.163827756e-05
7.256001819e-05
0.0001288779239
0.0001108036995
0.0001375774769