/*--------------------------------*- C++ -*----------------------------------*\
  =========                 |
  \\      /  F ield         | OpenFOAM: The Open Source CFD Toolbox
   \\    /   O peration     | Website:  https://openfoam.org
    \\  /    A nd           | Version:  8
     \\/     M anipulation  |
\*---------------------------------------------------------------------------*/
FoamFile
{
    version     2.0;
    format      ascii;
    class       volScalarField;
    location    "0.5";
    object      htcConv;
}
// * * * * * * * * * * * * * * * * * * * * * * * * * * * * * * * * * * * * * //

dimensions      [1 0 -1 1 0 0 0];

internalField   uniform 0;

boundaryField
{
    walls
    {
        type            calculated;
        value           uniform 0;
    }
    region0_to_wallFilmRegion_wallFilmFace
    {
        type            convectiveHeatTransfer;
        L               1;
        value           nonuniform List<scalar> 
1019
(
2.486314938
2.332963022
2.130991492
1.920218451
2.123399933
2.270562157
2.56490092
2.760128314
2.914338412
2.964301603
2.912491389
2.75165273
2.586117681
2.596584261
2.64837752
2.654202801
2.588708222
2.469138885
2.301925229
2.165308908
2.224906339
2.323305014
2.472533765
2.586043633
2.591627618
2.590009362
2.545591837
2.458292285
2.277744317
1.916222224
1.603633041
1.812329148
1.479140746
1.206120416
1.942925699
2.067659097
2.456172288
2.705678332
2.859013519
2.91675313
2.901275114
2.79457054
2.60710817
2.480968144
2.582745718
2.62898105
2.606266359
2.481513813
2.250574158
2.04175888
2.233291086
2.425941982
2.649955893
2.731945297
2.706680565
2.633386187
2.526347247
2.349265662
2.074338135
1.780035722
1.635734514
1.535656338
1.330314009
1.108542438
1.85782141
2.036739334
2.451474676
2.625530903
2.735134758
2.787285925
2.781113481
2.707894747
2.575675489
2.397630328
2.302298455
2.287881214
2.267324692
2.236003702
2.073468018
1.676325952
1.867108029
2.479342989
2.767387117
2.837555311
2.772501543
2.642013884
2.454374784
2.18146296
1.82953114
1.437322473
1.403024661
1.51357883
1.360092958
1.177455513
1.091630525
1.959364154
2.137739507
2.539757675
2.654874674
2.725452224
2.736608565
2.698544909
2.602325559
2.46378008
2.282913386
2.115581687
1.955516866
2.178706882
2.399186052
2.46853783
2.476725832
2.173051038
2.659341531
2.857172513
2.874076817
2.75692598
2.569765328
2.342199161
2.125714038
1.698401922
1.485751312
1.373472638
1.487809581
1.351040603
1.239252737
1.240546256
2.057186803
2.218137432
2.619632793
2.712695145
2.774766398
2.772638606
2.710207588
2.580156808
2.390871913
2.10515603
1.758999566
1.558325732
1.492585118
2.094974828
2.339451362
2.465938398
2.520472245
2.783926148
2.819980313
2.746815719
2.521698767
2.423720728
2.301539249
2.115555383
1.745343185
1.388633018
1.369238704
1.566480203
1.431893576
1.351064774
1.341257981
2.188186509
2.44191461
2.820382263
2.897319686
2.925667306
2.866988379
2.74317671
2.588997658
2.38768641
2.054457795
1.6876342
1.879415485
1.794659556
2.051591509
2.344275414
2.453522005
2.443819822
2.51893471
2.542830536
2.435177446
2.265945442
2.332339964
2.161994328
1.930531628
1.574905332
1.00920596
1.434164168
1.506293453
1.454658356
1.344236304
1.379684384
2.303863717
2.596342022
2.95804456
3.035563357
3.02821474
2.925252747
2.761820165
2.645693279
2.460503961
2.176926766
1.930460882
2.75376231
2.002454388
2.167851849
2.309944009
2.397955888
1.896564789
2.045005854
2.049144124
1.923059526
1.881936247
2.01408248
1.976074675
1.820594847
1.671883173
1.277299974
1.327209778
1.50563944
1.496331491
1.396552002
1.332599241
2.433857969
2.702281495
3.049666522
3.179909375
3.291668907
3.459315184
2.655739769
2.440201216
2.383026804
2.343483919
3.073584743
3.539335123
1.838090077
2.022000081
2.142135086
2.005694471
1.484813759
1.605233486
1.333429708
1.407275045
1.629925415
1.815048718
1.853408784
1.817028279
1.723321442
1.446183473
1.557435171
1.73600414
1.717506287
1.624616911
1.49785975
2.456578958
2.693779861
3.014222632
3.080203556
3.095908222
3.117709687
3.101711816
3.227856469
3.50767074
3.795876739
3.987975539
4.133366271
3.400403916
2.809278079
2.262505028
1.957887981
1.428274552
1.349601187
1.280764543
1.431676898
1.640284872
1.824824067
1.889691764
1.92523934
1.802319922
1.470475317
1.576799227
1.788576583
1.791626499
1.761077208
2.282692815
2.463257569
2.781462619
2.820159309
2.817010318
2.793506452
2.825150922
2.975849618
3.26779431
3.63712557
3.852925811
3.989342796
3.170443493
2.570667809
2.118473214
1.507678784
1.076747945
1.120440203
1.267214912
1.419107366
1.528409309
1.68301639
1.862982335
2.050195902
1.90574547
1.63389589
1.675682404
2.02552373
2.069105608
2.051450675
2.172838714
2.347441389
2.652035505
2.701135889
2.733972985
2.731181725
2.724882772
2.777766039
2.959387175
3.338636477
3.72530437
3.940296921
2.844755522
2.188161545
1.815124484
1.44010052
1.001884681
1.114498549
1.270586617
1.381003114
1.467792615
1.517464935
1.977347352
2.361827309
2.105461199
1.790737708
2.174595682
2.100259652
2.277866658
2.256527137
2.175998376
2.372291167
2.656373157
2.682911292
2.642465359
2.535238751
2.400282979
2.317628536
2.475926962
2.862670086
3.325971005
3.600696664
2.288213277
2.037972337
1.641167412
1.564586972
1.198359202
1.132082338
1.27635751
1.313538666
1.095392638
1.729660368
2.350198661
2.752607745
2.217143366
1.717197441
2.115875042
2.143748397
2.245850232
2.329655578
2.238347233
2.437917399
2.703156438
2.715803676
2.647141501
2.511614367
2.332984573
2.106882372
2.047566073
2.535479219
2.923004511
3.064463175
2.096790842
1.952022064
1.668896062
1.693241765
1.649289908
1.047313518
1.266605253
1.517452378
1.608007193
1.573958672
1.99201334
1.71590674
1.395879535
1.859633742
1.857696686
1.805591458
2.059877327
2.312444716
2.500580138
2.757725513
2.777156228
2.728986718
2.631004737
2.501973408
2.320941723
2.155931064
2.248079428
2.498495336
2.640353321
1.931824499
1.769160417
1.879153264
2.04174346
1.992019127
1.272454127
1.250783551
1.649248164
1.466677123
1.637702005
1.672420126
0.8337370105
1.568306336
2.21129547
2.763029865
1.611357444
1.698654886
2.383681693
2.55502553
2.806577985
2.839888576
2.807434177
2.718110675
2.5922231
2.420980772
2.20751374
1.968395559
2.040644571
2.206660005
1.757797118
2.054112567
2.210775596
2.223621639
2.16337447
1.886529818
2.028096455
1.845037309
1.759601185
1.85810753
1.631284793
1.336153833
1.660281115
1.827125798
1.701663375
1.461642239
1.407648982
2.461545485
2.608336584
2.840799779
2.869254646
2.823470605
2.70367346
2.551689102
2.364799425
2.055554169
1.947271978
2.160140262
2.111335469
2.257935396
2.373649872
2.342777956
2.252970216
2.221557489
2.160464165
2.307805012
2.207990929
2.168081499
1.883645096
1.712901022
1.670496678
1.816728191
1.838026144
0.980272355
1.602256688
1.65407054
2.525950937
2.636696412
2.839470291
2.840450519
2.741569314
2.544099513
2.319243714
2.093650693
1.948765014
2.33231422
2.452025834
2.410941653
2.382180125
2.341541057
2.259009018
2.092072258
2.018168195
2.097332389
2.276629155
2.28381049
2.21743164
1.882599179
1.75061325
1.880657365
2.142284575
2.032510132
1.357166055
1.643430636
1.818645947
2.523378644
2.602656053
2.788283473
2.784682468
2.659986829
2.471005364
2.252908978
2.043118267
2.004125429
2.442923466
2.599007951
2.441731951
2.310112682
2.347507911
2.045892972
1.684395423
1.828464375
2.24124162
2.32040457
2.431808661
2.350218162
1.965978763
1.786707494
1.805651542
2.362327699
2.581112157
1.485797427
2.132622684
2.388593219
2.44297739
2.502005525
2.682674747
2.703175303
2.621390149
2.503683774
2.377079671
2.323074964
2.517083205
2.695339717
2.668004085
2.384377815
1.59421965
2.143348182
1.743366517
1.274703787
1.788103235
2.320232899
2.39989459
2.194687136
2.289465315
1.942729848
2.006882797
2.423840125
2.933041726
3.492260421
1.79878555
2.1845047
1.774003707
2.33496349
2.408175337
2.608556612
2.693502367
2.716625527
2.743066061
2.794092387
2.895248375
3.012377243
3.005294882
2.826530303
2.529009357
0.9962457046
1.901795857
1.845420379
1.725900896
1.957358725
2.309354031
2.245486149
2.321341971
2.386039345
1.782104717
2.259403802
2.938801852
3.60774171
4.490338063
2.448189809
2.460133999
1.862065655
2.248731392
2.353823779
2.58663751
2.73313653
2.872964267
3.00550259
3.126354006
3.216073981
3.226193397
3.115398296
2.854925977
2.3256455
1.689382941
1.976312063
1.990821857
2.005753597
2.232382999
2.526198475
2.578396396
2.614452345
2.306804435
2.084049717
2.83043866
4.225092012
5.186864208
6.050775807
4.442422692
2.436906465
1.350688122
2.171902603
2.312962716
2.572520627
2.75770285
2.951209065
3.141386759
3.300568049
3.389467876
3.386376403
3.273240609
3.024735586
2.604186017
2.08279917
2.044650964
2.05656285
2.140352379
2.385552542
2.642382496
2.718152606
2.723932273
2.405087033
2.124199482
2.662685104
3.568337584
4.558530217
5.296203396
2.931815593
1.752853283
1.899355128
2.063063396
2.239134476
2.522746221
2.738918368
2.954316051
3.162998413
3.331047112
3.430472767
3.431701335
3.330683887
3.106341617
2.7304752
2.296248789
2.066191922
2.040927793
2.149415684
2.418726561
2.658169667
2.731667219
2.71610268
2.406678932
2.136757626
2.551774097
3.126986903
3.816106276
4.455188496
1.625523099
2.224186316
2.238977816
1.902039014
2.107601019
2.40672939
2.656524086
2.882540759
3.096273315
3.266745936
3.361703784
3.365701823
3.269439169
3.053189833
2.701421511
2.24794159
1.80298738
1.930553853
1.96784867
2.370012123
2.629259058
2.682707028
2.631578888
2.320422756
2.101735412
2.343261349
2.71562259
3.181894437
3.513864986
2.110036915
2.39313327
2.448323354
2.441618649
1.708258413
1.92034341
2.22044515
2.490519512
2.737354718
2.957039127
3.138282845
3.245444285
3.26056754
3.188041364
3.035714425
2.758071274
2.323300431
1.346772524
1.500902691
1.79840714
2.380564419
2.569740747
2.538110174
2.432691061
2.207388682
2.061829104
2.232009357
2.457100524
2.787527982
2.943650538
2.440076992
2.539968414
2.590597501
2.401769137
1.518939917
1.700746503
1.984477753
2.259099186
2.521266221
2.765134085
2.970950815
3.115133654
3.184569644
3.183489851
3.097004963
3.103584002
3.251229305
2.575903043
1.459713645
1.999376254
2.407271227
2.60938588
2.508041791
2.352881695
2.216117474
1.825777825
2.021279977
2.154365301
2.400993184
2.619252138
2.608625361
2.598727759
2.586259815
2.174331862
1.350356899
1.498131627
1.731086426
2.001239429
2.274984359
2.545382632
2.785856587
2.953566214
3.069114012
3.254111841
3.605639811
3.861788913
4.03330949
3.387066278
2.668257219
2.850466088
2.759809569
2.372332356
2.0988323
2.13286439
1.649645704
1.862987551
1.994837973
1.699585832
1.691340565
2.299112394
2.587013272
2.761103299
2.813106279
3.133564311
1.203186598
1.328047633
1.518335685
1.758537926
2.047309922
2.36829617
2.718786719
3.089686692
3.527269404
4.138159043
4.727469435
4.978148879
5.173785426
3.128778754
1.48552561
3.495234403
3.831635705
3.250713059
2.280307148
1.901411184
1.806675615
2.1373809
2.18175352
2.081093215
1.211973068
1.700573944
2.368947602
2.742648025
3.072270686
3.369924158
1.072187105
1.186612048
1.35403735
1.567873463
1.836682878
2.170254032
2.54670375
2.969445636
3.458199366
4.052455082
4.640376135
4.86196464
4.809878068
3.065918497
3.527679641
4.229536857
3.730899894
3.183533832
2.08901016
1.479505216
2.234694197
2.419044838
2.386214877
2.283898428
1.950338583
1.864953874
2.017622359
2.528364455
2.986692
3.251530541
0.9521348045
1.066186545
1.227474251
1.426954289
1.671779873
1.985019603
2.376161074
2.833066958
3.346819974
3.886445556
4.43381848
4.737935697
4.627181461
3.528837277
3.798053696
4.36653021
3.573275138
2.661373037
2.006485445
1.915476652
2.429279765
2.582985028
2.536246375
2.411311566
2.108333156
2.044187407
1.972283987
2.311666434
2.669614341
2.948431285
0.8396061801
0.9622960586
1.12800993
1.319560554
1.541106833
1.812559859
2.167516035
2.614384034
3.12794466
3.638140319
4.102997966
4.470860996
4.439752724
3.691858435
3.607827763
4.242416792
3.072367426
2.305447577
1.957799331
2.207038222
2.563794871
2.681876959
2.62500583
2.477866466
2.171579452
2.072272805
2.102385229
2.236667438
2.296798337
2.535939732
0.7355089963
0.8776387666
1.0568261
1.249438069
1.459863256
1.701798286
1.997594944
2.378097627
2.834069497
3.305403688
3.699066501
3.997559981
4.091534226
3.50600311
3.20065673
3.695814182
2.388335101
2.136324567
2.061569156
2.433965676
2.666665646
2.73742599
2.66443311
2.502634487
2.225314412
2.095588836
2.198165889
2.233826165
2.039594293
2.198922847
0.6451347102
0.8153412174
1.009705711
1.203857801
1.406183283
1.628606477
1.886883266
2.197203304
2.56282315
2.939689547
3.2495247
3.407034033
3.404413773
2.915857859
2.684412273
2.92417213
1.83378997
2.121694537
2.249608662
2.535552474
2.638042706
2.635036051
2.514719101
2.315797643
2.051012028
1.942752409
2.055470124
2.043443387
1.930287703
1.949454697
0.5812173225
0.7725609401
0.9748511368
1.172928554
1.381438745
1.617330059
1.895598586
2.205583412
2.507865701
2.77158309
2.960120794
2.994738535
2.820351005
2.425106297
2.365602607
2.399066895
1.957886335
2.4595103
2.607189594
2.7318394
2.709216823
2.59557908
2.379530078
2.119734766
1.895994194
2.033770106
2.13557759
2.119924697
2.096553034
2.098735666
)
;
    }
    region0_to_wallFilmRegion_mirrorFace
    {
        type            convectiveHeatTransfer;
        L               1;
        value           nonuniform List<scalar> 
133
(
3.919514172
4.305928286
4.654719991
4.397186766
4.186985624
4.809461843
4.764788738
4.529943312
4.434743497
4.415232346
4.349954691
4.26709009
3.834041123
3.875944666
3.57219999
3.920720399
4.053252612
3.364038632
4.109592984
3.737647297
3.632032862
3.521807428
4.530763333
4.696070458
4.648327871
4.479451845
4.440370278
4.316463207
4.097934853
4.788116051
4.761602798
4.569118211
4.738639421
4.776251505
4.574510556
4.668797826
4.413894359
4.560668405
4.454104121
4.793580331
4.705926448
4.612701809
4.570678496
4.551813596
4.521851124
4.345412486
4.430391959
4.139204189
4.388118532
3.973977587
4.129706825
3.679551384
3.670159498
2.247823613
3.956042326
3.887775297
3.311911676
4.253143203
3.30817332
3.574867636
3.194014634
4.507602319
4.494440019
4.313865154
4.417453047
4.061419821
3.939175476
3.917745145
4.797208082
4.775121654
4.758075926
4.575835554
4.309446847
4.387091151
4.079777921
4.257813903
3.133561569
3.314140985
2.73223222
4.126681635
2.049419244
2.235506877
4.224954308
4.326188741
2.190915391
1.501235631
4.370080448
2.241191115
3.827188778
4.086688153
4.10682105
3.851381368
4.029242895
4.183867714
4.438550232
4.543794094
4.477509997
4.358512164
4.222499592
4.283323359
4.640213935
4.627777568
4.601652024
4.560794058
4.447532166
4.250603647
4.185685794
4.143958685
4.142770746
4.144907433
4.130199974
3.854507736
3.499549927
3.52427344
3.911712589
3.567409127
4.063826596
3.793577405
4.004647715
3.888736344
4.081418422
4.214789199
3.810454695
4.117979218
3.911708094
4.201520568
3.204909957
2.667249569
2.780673927
3.456244618
2.959588726
3.206332287
3.460372588
)
;
    }
    procBoundary3to0
    {
        type            processor;
        value           uniform 0;
    }
    procBoundary3to1
    {
        type            processor;
        value           uniform 0;
    }
    procBoundary3to2
    {
        type            processor;
        value           uniform 0;
    }
}


// ************************************************************************* //
