/*--------------------------------*- C++ -*----------------------------------*\
  =========                 |
  \\      /  F ield         | OpenFOAM: The Open Source CFD Toolbox
   \\    /   O peration     | Website:  https://openfoam.org
    \\  /    A nd           | Version:  8
     \\/     M anipulation  |
\*---------------------------------------------------------------------------*/
FoamFile
{
    version     2.0;
    format      ascii;
    class       volScalarField;
    location    "0.5";
    object      k;
}
// * * * * * * * * * * * * * * * * * * * * * * * * * * * * * * * * * * * * * //

dimensions      [0 2 -2 0 0 0 0];

internalField   nonuniform List<scalar> 
67193
(
0.01448777648
0.01188549766
0.01092567902
0.01173858171
0.01354612825
0.01634038245
0.01763486356
0.01694094849
0.01428206924
0.01074809036
0.009060755517
0.008529560392
0.008258430923
0.008028238884
0.007874457933
0.007709904923
0.007329458835
0.006567444201
0.005643084909
0.004842170509
0.004110686073
0.00322515827
0.002142750149
0.00110469864
0.0004011791619
0.000103250211
2.269366411e-05
7.803979426e-06
5.789927406e-06
5.574680411e-06
5.551810119e-06
5.546321107e-06
5.521647003e-06
5.086648598e-06
0.01632201168
0.01399486785
0.01371521395
0.0145244316
0.0158737089
0.01861248688
0.02034750207
0.02028071521
0.01762882238
0.01239329388
0.01000178335
0.009225627
0.008625074958
0.008193118226
0.008142174764
0.008326743936
0.008471717032
0.008239065642
0.007718569946
0.007193979956
0.006662022265
0.005946877694
0.004821302226
0.003292840337
0.001754004068
0.0006481701004
0.0001659099893
3.438870514e-05
9.816270215e-06
6.355564433e-06
5.952011566e-06
5.903065215e-06
5.837798185e-06
5.251095226e-06
0.01730045502
0.01640222904
0.01635155383
0.01686303115
0.0177671653
0.02029197422
0.022167889
0.02245081823
0.02025068165
0.01426204276
0.01104516813
0.009781535566
0.008558968435
0.007797242597
0.007839684117
0.00830371958
0.008790038553
0.008776881509
0.008427418905
0.008159985493
0.007926902141
0.007532451678
0.006799411533
0.005529841728
0.003755623467
0.001977415425
0.0007249835252
0.0001890782359
4.137743915e-05
1.163181239e-05
6.780212062e-06
6.132046134e-06
5.954416196e-06
5.315704444e-06
0.01854890476
0.01850800556
0.01836250234
0.0186367649
0.01937909651
0.02180626297
0.02361567293
0.02394980646
0.02216175372
0.01641696218
0.01253760147
0.01045074043
0.008196711453
0.007022910792
0.007239007526
0.007990770991
0.00876398231
0.008799580987
0.008473984848
0.00850362872
0.008604591914
0.008419715214
0.007905225999
0.007013654542
0.00557708551
0.003689619483
0.001921027065
0.0007356704709
0.0002163778976
5.437801598e-05
1.531372618e-05
8.439908591e-06
7.189058834e-06
6.268681457e-06
0.02006639522
0.02038047771
0.02034179746
0.02092397206
0.02203727654
0.02424268958
0.02522808291
0.02512530318
0.02358182444
0.01880495859
0.01480960621
0.01144090662
0.007811332561
0.006273519556
0.006664912558
0.007647706164
0.008652299441
0.00864856493
0.008387910261
0.008897422497
0.009521806598
0.009463359695
0.00886096424
0.007951298733
0.006800147776
0.005274587637
0.003501324439
0.001944058467
0.0008494286509
0.0002886713485
8.016504427e-05
2.968245029e-05
1.944731703e-05
1.679887997e-05
0.02131676333
0.02213616239
0.02262033332
0.02364526471
0.02520092327
0.0271345726
0.02684872755
0.02587066828
0.02464625836
0.02079666299
0.01710800538
0.01251694154
0.007691713467
0.005974555058
0.006360356154
0.00737620727
0.008522519805
0.008766986174
0.008929638209
0.01017992465
0.0112581533
0.01121089296
0.01025110908
0.008928917173
0.007638970369
0.006425022075
0.005096569607
0.003648673884
0.002250065631
0.001093964274
0.0004036742882
0.0001596491678
9.941695887e-05
9.080979722e-05
0.02193197208
0.02351638444
0.02481693701
0.02639812107
0.02835412895
0.02993372598
0.0283275833
0.02591154395
0.02585841718
0.02238371761
0.01898475758
0.01365049551
0.008084643577
0.006217764214
0.006361945941
0.007184177166
0.008348609071
0.009153901823
0.01051239331
0.01278773094
0.01392086293
0.01359552396
0.01210608193
0.01015032787
0.008409114259
0.007172880296
0.00626527104
0.005362009981
0.00411521092
0.002707330609
0.001397416987
0.0006733961658
0.0004365440027
0.0004114749093
0.02158112586
0.02393974665
0.02632730072
0.02879931858
0.03118460646
0.03238451475
0.02968990465
0.02668956584
0.02858480584
0.02443750404
0.02072984884
0.01520236688
0.00926530573
0.006934788524
0.006651490533
0.007092656295
0.008148024253
0.009874795468
0.01393397187
0.01664071986
0.01702655697
0.01591152501
0.01385280763
0.01129498197
0.009039902848
0.007590705164
0.006846577735
0.0065047914
0.005801528721
0.004715179817
0.003178162764
0.001923098179
0.00132917653
0.001240424925
0.02040430835
0.02289903263
0.02613235871
0.03009707721
0.03340744053
0.03413156167
0.03035770892
0.02695709757
0.03366052398
0.02842057881
0.02346721472
0.01781377854
0.01161223528
0.008192660711
0.007259273317
0.007283255285
0.008946542364
0.01288966022
0.01964124536
0.02084247133
0.01969895889
0.01740248279
0.01470911727
0.01180185619
0.009224173621
0.007635582293
0.007057987469
0.007348368192
0.006978611238
0.006467764839
0.005280573002
0.003760547038
0.002787969995
0.002533221356
0.01975593262
0.02085395233
0.02383382089
0.02890814539
0.03452602478
0.0350117319
0.03006102958
0.02905588712
0.04151473551
0.03492875182
0.02851087684
0.02152760707
0.01556852587
0.01103101741
0.008423056334
0.008350304893
0.01288569888
0.01879584365
0.02451554804
0.024023301
0.02111273645
0.01743818311
0.01421936125
0.01126637259
0.008739284135
0.007351339945
0.007406562107
0.008696666802
0.008321582284
0.007993101066
0.007124868666
0.005702713442
0.004401096964
0.003855905346
0.02101545144
0.02009436872
0.02053762684
0.02467895298
0.03344654765
0.0345875144
0.0312771819
0.03964134936
0.055119024
0.04542655612
0.03586415038
0.0268779083
0.01867215499
0.01260158018
0.008861629343
0.01061288064
0.01474364002
0.02023868892
0.02715911494
0.02530635529
0.02052432743
0.01557820073
0.01220798145
0.009648721206
0.007715712038
0.007164870502
0.008616581261
0.01067851718
0.01022803314
0.00978113444
0.008854491991
0.00735133687
0.005787011787
0.004906780161
0.02282490444
0.02113770355
0.01946185317
0.02079880842
0.02656233834
0.03157568991
0.0415995165
0.05926284206
0.07210240843
0.0599725231
0.04414251077
0.03292680999
0.02242931349
0.01382899155
0.01002372918
0.01195690457
0.01336345726
0.01608486928
0.02415157965
0.02295105782
0.01621703602
0.0113665162
0.008930907958
0.007513384665
0.006816243123
0.008091621745
0.01063463091
0.01289146549
0.01224845262
0.01172432428
0.01059563016
0.008838609287
0.006860762668
0.005570477733
0.02467707201
0.02210312175
0.02004424807
0.01933288721
0.02054694354
0.02253875602
0.0249306667
0.04289500967
0.07347492546
0.05326498872
0.03230607317
0.01789106006
0.01158404101
0.0096461692
0.0116252828
0.01360455532
0.01253885255
0.009787336918
0.01152292391
0.01067675912
0.007286655071
0.006446842612
0.006212768275
0.00618982455
0.006915824721
0.009759159647
0.01304391841
0.01408661021
0.01344434091
0.01275854429
0.011641976
0.009756165283
0.007537811957
0.005918804882
0.0262171674
0.02274541416
0.02071135224
0.01835423271
0.01939825733
0.01962433104
0.02010539498
0.02204850904
0.0431124412
0.03221492935
0.01720743317
0.0102630931
0.009693422776
0.01116805194
0.01359846947
0.01432174164
0.01324286431
0.008744596704
0.005839676269
0.005465664029
0.005542602667
0.005729557694
0.005953666963
0.006098000877
0.006446078232
0.00884647755
0.01375200665
0.01204529396
0.01149486627
0.01108763312
0.009870532504
0.008247835409
0.00660571368
0.005599658364
0.02725907624
0.02325898131
0.02148287752
0.0164229833
0.01756991198
0.01871016995
0.01873114106
0.01793819637
0.02494609559
0.01623776316
0.009393892177
0.008999504363
0.01089211713
0.01318840753
0.01451322366
0.01426939455
0.01361494071
0.00968299384
0.005457893466
0.004902703995
0.005229360556
0.00560316901
0.005912057562
0.006109436059
0.006116237428
0.006327489193
0.009100254617
0.01183209859
0.01666257469
0.01469585574
0.01075762218
0.007422007603
0.005744999289
0.005339669696
0.02776438512
0.0241791098
0.02226548511
0.01612769281
0.01689561867
0.01822307538
0.01813400444
0.01660283434
0.01524742651
0.008876823453
0.007734991279
0.009527025559
0.01233340694
0.01432298911
0.01534837288
0.01405558885
0.01302594709
0.01022779415
0.005796611517
0.004923599773
0.005217333008
0.005656260749
0.005974037563
0.00612765293
0.006188210258
0.007887405651
0.01248088607
0.02164425857
0.02574143546
0.02282677018
0.01683302883
0.01141179041
0.007368887874
0.005600739295
0.02749723934
0.02588020674
0.02392786488
0.02021369668
0.01844355959
0.01778092684
0.01556214878
0.009645564941
0.008217365515
0.007502929169
0.00811885166
0.009650552832
0.01219956484
0.01409305141
0.01616346546
0.01436617376
0.01207365508
0.009803161322
0.007645980299
0.006269922936
0.005879516017
0.005902967524
0.00602594332
0.006151572196
0.006231353153
0.008447662138
0.01552836076
0.02757410372
0.02640789694
0.01884989861
0.01108999177
0.006755901058
0.005626720529
0.005405077279
0.02656174957
0.02606629928
0.02492202267
0.02285453545
0.02105491575
0.01915443606
0.01535209952
0.008513317806
0.008099884173
0.009060961397
0.0092765522
0.008630837358
0.008063734945
0.009669168295
0.01284639842
0.01180090017
0.01013482193
0.008998549543
0.008268625439
0.007572417752
0.006888556587
0.006524113556
0.006400761526
0.00637997824
0.006350207176
0.006873928602
0.009328607613
0.01948644902
0.01684228007
0.01086877388
0.007184086662
0.006234832768
0.006062055282
0.005958101995
0.02479744493
0.02479250848
0.02425436171
0.02330310583
0.02191924639
0.01955157248
0.01415076683
0.008818820983
0.009973197464
0.01099893786
0.01100181421
0.01015377249
0.009082111246
0.00821492036
0.009081278875
0.009883246129
0.009729938493
0.00842128753
0.008373386107
0.008041371197
0.007592638603
0.007123763056
0.006777061085
0.006575746361
0.006429396812
0.006410565187
0.006518471202
0.01121069488
0.008697388126
0.007108078623
0.007064433494
0.007196632299
0.007067886691
0.006850954492
0.02005745126
0.02100186779
0.02163794918
0.02186223114
0.02109280722
0.01852401027
0.01197021737
0.0089109328
0.01079070103
0.0115734474
0.0114495771
0.01037935934
0.009296919047
0.008214832778
0.008333306645
0.009006564612
0.009222328232
0.008787573042
0.008388956146
0.005905190907
0.006440709526
0.00678063151
0.006694687976
0.006485174375
0.006249424532
0.005939394873
0.005038702764
0.006691353468
0.008396024023
0.009161730727
0.009311977533
0.009082353328
0.008512947079
0.007865234928
0.0150943095
0.01694020695
0.01853154789
0.01941647711
0.01890018246
0.01562934336
0.008584933596
0.008209491201
0.009744629661
0.01051563565
0.0103574665
0.007470086499
0.007628231709
0.007434130378
0.00631650591
0.007567518834
0.008109359353
0.008102455051
0.007703514466
0.006515873602
0.006175841206
0.006057480386
0.005883517269
0.00567922614
0.005383385577
0.004886798947
0.006698076232
0.009424013786
0.01091171338
0.01135722944
0.01114689361
0.01052289523
0.009612766648
0.008639878492
0.01311413798
0.01479621477
0.01633348133
0.01708856565
0.0161433321
0.01166505355
0.006740009236
0.007547580843
0.008489201316
0.008791554971
0.008239717783
0.004685382117
0.006009195305
0.006520690946
0.0065749167
0.00679255427
0.006762114471
0.006176954542
0.00538688436
0.004811616571
0.004664459629
0.004207935355
0.004287190508
0.004425770658
0.00561040936
0.008011924595
0.01074400561
0.01209706461
0.01296467454
0.01291337117
0.01221239656
0.01126319126
0.01018337938
0.009063943925
0.01257257992
0.01378863089
0.01477212045
0.01461543407
0.01241368574
0.007481663013
0.006048214569
0.006795341302
0.00730859382
0.006994189297
0.005527545259
0.003103070888
0.004140199868
0.004984195854
0.005479612179
0.005319497024
0.004152337572
0.002205280313
0.001675515232
0.004282401594
0.01214904222
0.007524584245
0.007136673194
0.007283612794
0.008798996556
0.01105241486
0.01408884296
0.01639568983
0.01633858491
0.01511776493
0.01345483269
0.01183007008
0.01038533385
0.009226697627
0.01241833407
0.01303254584
0.01254762919
0.01078286959
0.007303546445
0.004643179267
0.005032449312
0.005829170283
0.006354318025
0.006143724586
0.005258072149
0.005475844555
0.0043428669
0.003974823422
0.003802784708
0.003532767824
0.001963919893
0.001128685604
0.005929010649
0.02130307143
0.03819604815
0.0221798229
0.01400771501
0.01054536982
0.01015970475
0.01151115695
0.01632210545
0.01980067788
0.01921086133
0.01752845987
0.01516061429
0.01266442759
0.01053366038
0.009267959979
0.01192137949
0.01186516389
0.01072254772
0.007854563274
0.005131153545
0.00291305644
0.002112252062
0.003436223637
0.004382802532
0.005325602519
0.00572957277
0.005489712349
0.005126065741
0.004137838398
0.003538449731
0.004080627733
0.004789290978
0.003584519349
0.00574396341
0.02564619128
0.06407858887
0.07358034785
0.0469999292
0.02647408983
0.01507937867
0.01177973162
0.01070407243
0.01056962605
0.01696040517
0.01693790773
0.01495243294
0.01303507066
0.01131807687
0.009811498574
0.00880380116
0.01094297473
0.009133667865
0.006584287931
0.003492173431
0.001731172056
0.0009702061963
0.001782552866
0.001541843127
0.002391745913
0.003619994444
0.00442679439
0.004511220707
0.004030319926
0.002798589479
0.003991309451
0.006397059808
0.007751563819
0.007794964939
0.02227255346
0.06512135712
0.1227831134
0.1305517999
0.0836806247
0.04789185306
0.02427247987
0.01457823252
0.01227613108
0.01099602313
0.01084651407
0.01255334183
0.01131389406
0.01046478204
0.009530781206
0.008381403807
0.007914406359
0.007917530331
0.004706740158
0.003181753753
0.001350702803
0.001083842646
0.002444404743
0.004856495022
0.001603028898
0.002457911036
0.002634820748
0.002866292723
0.004217149244
0.006728588378
0.00393477598
0.007838217414
0.007116557339
0.006795822448
0.008962446566
0.004627154039
0.008472868405
0.02842046566
0.05169864366
0.02329412474
0.01610269043
0.01461709088
0.01401224119
0.01319796576
0.01234767215
0.01109335466
0.01020847086
0.009651320451
0.00939901233
0.008863729364
0.007944836932
0.007318436023
0.004130682622
0.002024826994
0.001209456462
0.0004430243108
0.0006725625632
0.001738682556
0.002870580747
0.0007720084981
0.001224383689
0.001404088279
0.001741987283
0.002620266312
0.003507307166
0.004326681267
0.005109198779
0.005344247741
0.006948745728
0.01346231297
0.01088099866
0.01081913423
0.01657558778
0.02619128168
0.01787956316
0.01842802476
0.01853486584
0.0176851667
0.01538272544
0.01358910312
0.01243620494
0.01110372869
0.009520728955
0.00864402159
0.00806909598
0.007230124424
0.006541367317
0.0006032357452
0.0003407570795
0.0001200357183
0.0002477516369
0.0007495876224
0.001312960704
0.0002934267473
0.0005516964477
0.0007164779433
0.001071926114
0.001982469278
0.004192507118
0.00912546959
0.01523271407
0.01646288712
0.01536389585
0.02318183019
0.02588065858
0.01362350244
0.01546994774
0.01777119655
0.02076866371
0.0236950676
0.02369969368
0.02198642744
0.01910878228
0.01762716476
0.01544085438
0.01393264572
0.01195316035
0.009331756977
0.007383669604
0.006076943598
0.005610281447
9.285716121e-05
6.231254069e-05
2.359323345e-05
5.271798865e-05
0.0001851073034
0.0003862267481
6.944701499e-05
0.0001676462387
0.0002737932974
0.0006711505427
0.0018480057
0.004621787291
0.02845860375
0.02666601175
0.02288496518
0.02615573552
0.02207111401
0.017613262
0.01361478
0.009213564304
0.006329033953
0.006495107897
0.00787419699
4.022486537e-05
0.0001632549324
0.0004733511592
0.0007330737892
0.0003126338406
3.763746201e-05
0.01379416543
0.01167187465
0.01019287367
0.01009262626
0.01124793718
0.01368772206
0.01540274022
0.01532685847
0.01283489538
0.009891150066
0.008170672663
0.007483549093
0.007230585037
0.007063686258
0.006862091988
0.0065792116
0.005893827736
0.004789009877
0.00367705387
0.00280578479
0.002112751233
0.00143324916
0.0007996344782
0.0003404387464
0.0001086837168
2.973277811e-05
1.084668064e-05
7.41670128e-06
6.803765276e-06
6.60750611e-06
6.496441633e-06
6.411624061e-06
6.170878779e-06
4.958865003e-06
0.01765430942
0.01520125777
0.01277069722
0.01154955822
0.01135065393
0.01345886693
0.01766164957
0.01900202161
0.01564859989
0.01051020567
0.007725454478
0.006836067973
0.006669782814
0.006838581868
0.007337068074
0.008139367262
0.007849412698
0.006663143443
0.005498176238
0.004581123383
0.003873835682
0.003207798813
0.002438872367
0.001502686732
0.0006738629369
0.0002211125445
6.43819604e-05
2.721504396e-05
1.996405131e-05
1.793730288e-05
1.684008891e-05
1.58596638e-05
1.320651159e-05
5.610437508e-06
0.01877822635
0.01796786861
0.01528221877
0.01314714387
0.01196365094
0.01399949138
0.01938471012
0.02112714536
0.01721314425
0.009770011698
0.006272813914
0.00596766468
0.005948687785
0.00626506452
0.007374888074
0.009160545887
0.008762687968
0.007135336261
0.006094506973
0.005523031404
0.005069914307
0.004551097242
0.003886137159
0.0029675498
0.001850969612
0.0008229312752
0.0002676853398
7.966250926e-05
3.511037846e-05
2.605909269e-05
2.321053517e-05
2.069897485e-05
1.538220222e-05
5.770182412e-06
0.01925370001
0.01928870352
0.01672378172
0.01488352491
0.014294941
0.01657004288
0.02170993827
0.02343638254
0.01935405149
0.01144097734
0.006423042432
0.005492813859
0.004730564022
0.004633479849
0.00611579548
0.009073932659
0.00880595259
0.006531840149
0.005624895117
0.005714742252
0.005927569273
0.005736550217
0.005205392127
0.004360704744
0.003213977773
0.001935988145
0.0008543144665
0.0002907744369
9.33365122e-05
4.078939264e-05
2.859901387e-05
2.380770368e-05
1.692267796e-05
6.180914475e-06
0.02022602952
0.02018585473
0.01824014804
0.01783356167
0.01878712607
0.02070821777
0.0241848255
0.0250848806
0.02215407801
0.01443674497
0.008195078622
0.006069649812
0.004277653727
0.003606508011
0.00517430981
0.008801643026
0.008981144435
0.006479157869
0.005555324275
0.005648047607
0.006156531569
0.006540656348
0.006340450513
0.005618449838
0.004539227095
0.00324239158
0.001945253482
0.000915275209
0.0003497505246
0.0001196819711
4.912079198e-05
3.237528942e-05
2.265263522e-05
1.052827355e-05
0.02182782884
0.02237309582
0.0212679366
0.02197111876
0.02410297481
0.02584495714
0.02608064474
0.02557125675
0.02400465141
0.01712845058
0.01038344469
0.007291444608
0.004786125393
0.003723814203
0.004948148063
0.008452236909
0.009325799252
0.007517705894
0.006715130224
0.006187767495
0.006697062357
0.007313348861
0.00728789909
0.006616976745
0.00563445325
0.004462956738
0.003256024116
0.002097079851
0.001102278348
0.0004562414607
0.0001654142667
8.497094741e-05
5.9584886e-05
4.477025724e-05
0.02335114294
0.02522921182
0.02535783745
0.02681676925
0.02942401266
0.03090819004
0.02824084102
0.02387254338
0.02447795799
0.018900888
0.01286495596
0.009001113258
0.005992858027
0.004596021931
0.005201463957
0.007959032906
0.009902603242
0.009425504759
0.009053853635
0.008431427781
0.008777721416
0.008990350471
0.008446573214
0.007429648336
0.006406758855
0.005406780735
0.004447243143
0.003474795162
0.002440463193
0.001366499732
0.0006223084236
0.0003323549034
0.0002420582994
0.0002190201488
0.02384428902
0.02707266079
0.02963310223
0.03206598994
0.03459620429
0.03554758215
0.03105615582
0.02581995887
0.02510454949
0.02012539441
0.01589956087
0.01152947047
0.007763281069
0.005858653419
0.00588340556
0.007572748013
0.01025659449
0.01191763235
0.01211683128
0.01162613534
0.01183612621
0.01117328111
0.009415262792
0.007814867888
0.006726320782
0.005935369195
0.005322097891
0.004732873197
0.003879178472
0.002844781602
0.00176880286
0.001095942912
0.0008362172339
0.0007681188417
0.02309249427
0.02656337739
0.03212287709
0.03737308149
0.0397355034
0.03941434218
0.03433922783
0.0243107953
0.02386078751
0.01980428766
0.01839112601
0.01498359295
0.009846321399
0.007205037546
0.007066833403
0.007748602497
0.0101315448
0.01415464796
0.01586681094
0.01601650009
0.01514309338
0.0126159009
0.009350992447
0.007243632257
0.006344242568
0.005942510654
0.005780385331
0.005824816719
0.005300591575
0.004481818328
0.00351866464
0.0025862072
0.002061759422
0.001819504727
0.02255778429
0.02435844284
0.03072147214
0.04184302614
0.04497364563
0.04312672915
0.03785737502
0.02612141939
0.02717866917
0.01981063526
0.01820992644
0.01774794516
0.01280326713
0.009106439197
0.008480861833
0.008310849261
0.01095801776
0.01727898486
0.02248031786
0.02147763631
0.01779920097
0.01258158825
0.008338217547
0.006011076495
0.005482285205
0.005616267207
0.00593925545
0.006888796726
0.00678127358
0.006496903453
0.005534584232
0.004314606125
0.003575822334
0.003081366805
0.02425863581
0.0235619285
0.02706408687
0.04222236526
0.04982578343
0.04784830423
0.03886158661
0.03856574282
0.04795802827
0.03490253227
0.02051866604
0.01645307319
0.01355074638
0.01061959686
0.009008267785
0.009555807814
0.01262150339
0.02177472137
0.02845202034
0.02465417463
0.01838070682
0.01153962728
0.00719282948
0.005121680086
0.004923942416
0.005677148948
0.006308522526
0.007987387109
0.00845089891
0.009280436267
0.008234170358
0.005854496629
0.004645266403
0.004112483114
0.0274999546
0.02556962517
0.02577705101
0.03490064524
0.05157755761
0.05206449391
0.04121435399
0.07580273804
0.07476859036
0.05926044904
0.02869663637
0.01676267419
0.01274908105
0.009682153579
0.008609824878
0.01068838391
0.01378515865
0.02057885131
0.02705046794
0.02222811589
0.01511058224
0.009179227998
0.006147579678
0.00487334895
0.005272765834
0.007531340963
0.008276445129
0.01038712651
0.01078930673
0.01267401123
0.01174429243
0.007376982997
0.005324639552
0.004731907155
0.03149940552
0.02882855291
0.0267952184
0.03077126089
0.03869253246
0.03760462455
0.03868674947
0.09867678629
0.08878283858
0.05856472697
0.02274958884
0.01325395366
0.01058585158
0.009446842915
0.0101641106
0.01297849978
0.01429253836
0.01290869778
0.02029313527
0.01523791901
0.009516915425
0.006761412414
0.005547688797
0.005314006228
0.006508995863
0.01149498294
0.01158114634
0.01128180782
0.01164365454
0.01215395873
0.01271730374
0.00792021373
0.005490557342
0.004994816031
0.03528027435
0.03194462352
0.0273070728
0.02368242553
0.02827833242
0.02993016894
0.02719857174
0.03258382926
0.03920528901
0.02332156462
0.0140892226
0.01302088249
0.01230172197
0.01193988934
0.01276526061
0.01506717107
0.01486142463
0.007717514988
0.006345460102
0.005596077897
0.005363424318
0.005395344222
0.005579249206
0.006029309409
0.007280294412
0.01193375189
0.01332238277
0.01319282759
0.01190259922
0.01147597633
0.01000362357
0.006728612904
0.005059588886
0.004961709897
0.03701074857
0.0335392818
0.0270283431
0.01720146771
0.01971321723
0.0242190866
0.0253606327
0.02125397546
0.01954467159
0.01390060636
0.01276475849
0.01397955252
0.01384900543
0.01414129896
0.01386201918
0.01413515212
0.0139907533
0.00687740671
0.0048276411
0.00454142238
0.004878133533
0.005339120753
0.005700582173
0.005911773386
0.005830270494
0.008735077752
0.0115717373
0.01139727512
0.01220553758
0.01365901673
0.009076416864
0.005250295985
0.00454146538
0.004911442201
0.03581158181
0.03395284877
0.02771553945
0.01530521769
0.01688074083
0.02117219897
0.02041247626
0.01429547724
0.01239702945
0.01119095023
0.01162978301
0.01397741043
0.01381536646
0.01525191844
0.01536201674
0.01367078967
0.01210766634
0.006637154207
0.004562895355
0.004296165819
0.004858481026
0.005489862241
0.005816159978
0.005849069275
0.005932811467
0.007183692166
0.02079475556
0.02099888682
0.02415933952
0.02147581203
0.0110137032
0.006588357081
0.00539330669
0.005046662916
0.0324318234
0.0309367528
0.029693633
0.01847131286
0.01622765736
0.01483597373
0.01084036096
0.008034851772
0.008905773187
0.009805303455
0.01137255939
0.01208345792
0.01123189309
0.0160517762
0.0175523315
0.01465860897
0.01062910114
0.006756537321
0.004988992355
0.004732910539
0.005150323003
0.005326513728
0.005260137385
0.005048200102
0.005215698623
0.008844332259
0.02157902997
0.0245196729
0.02638818304
0.01788398565
0.01002989425
0.006659368369
0.006001023244
0.005118899193
0.02959808359
0.02829096112
0.02724523011
0.02306958373
0.02097173184
0.01822552097
0.01085764865
0.007795172244
0.009421638207
0.01132738458
0.01147512546
0.0103847054
0.008954715422
0.01427854831
0.01384074142
0.01139205294
0.007732505716
0.005561614322
0.004455259144
0.004031209648
0.00408909337
0.004320488601
0.004363729864
0.004127711955
0.004434024972
0.006053016295
0.007917446189
0.01672878487
0.01238305521
0.008869857956
0.007916233985
0.007251735458
0.006543004747
0.005292807889
0.02595932323
0.02483413115
0.0233175386
0.0221055843
0.02134682502
0.0175609177
0.009952986373
0.008753642585
0.01211562107
0.0132270033
0.01300055082
0.01179010643
0.009913156219
0.007847303524
0.00665122896
0.006251810146
0.006137592007
0.004216326513
0.004493093774
0.006305354709
0.005208224143
0.004805993274
0.004738643291
0.004614911982
0.004713579379
0.005330529902
0.005441845457
0.007225546202
0.006560922089
0.007070298631
0.008151011051
0.008280908083
0.007280201066
0.005695425192
0.01852855213
0.01876456916
0.01940931704
0.0203390183
0.02018418996
0.01494978786
0.008059433057
0.008233275856
0.01284995761
0.01340071031
0.01314204842
0.01166169382
0.008863475907
0.00586743794
0.004998473644
0.004729704963
0.004940626842
0.005486413773
0.00822785351
0.004368402817
0.004820741323
0.005005484122
0.005122095869
0.004938845821
0.004802228538
0.004786528444
0.00404735612
0.004482557936
0.00549681379
0.008020668017
0.01024240933
0.00993865769
0.007455015187
0.006200704949
0.009279989816
0.01268658943
0.01626249336
0.01799744981
0.015984788
0.01090713187
0.003553247126
0.004820732203
0.01008655293
0.011808236
0.0114990657
0.008162933755
0.006168739438
0.005021034279
0.002640338604
0.003860755658
0.004916592837
0.00553396088
0.005735876528
0.005193553814
0.004401528857
0.004504023381
0.004410119969
0.004256363307
0.004166724892
0.003955076504
0.0043348408
0.004819041117
0.006073337552
0.009940463641
0.01148089737
0.008652259705
0.006287421291
0.006655605797
0.006750271424
0.009983150499
0.01254589399
0.0135198909
0.01127329721
0.007104085275
0.002861256157
0.0033338356
0.005747849241
0.00731445094
0.007104712299
0.00354662027
0.003908825279
0.003813961931
0.00396182505
0.004408804148
0.004230603383
0.003871411398
0.003508425078
0.003141541885
0.002876651815
0.002907259416
0.00314018915
0.003328417717
0.003806384246
0.004662792492
0.004948113113
0.007338338011
0.009211620032
0.009966383662
0.008847935797
0.00696688266
0.005569754305
0.006865654878
0.00734740952
0.008109831027
0.009191617572
0.009717180114
0.007889430717
0.004721013041
0.003146104113
0.002964774933
0.003236047834
0.003972425547
0.00440493574
0.002599895186
0.003399071054
0.003385403548
0.004235992569
0.00393691546
0.002954812499
0.001649710109
0.001043463668
0.002489178417
0.002534154331
0.002778301756
0.003482063295
0.00405087599
0.005175013171
0.00646077784
0.01499182874
0.01733054898
0.01695009581
0.01438319116
0.01099886091
0.008256341516
0.006125145158
0.006806269106
0.006466967643
0.006654280957
0.00669342566
0.006234080918
0.004507875145
0.002870736496
0.002705265073
0.002811643958
0.002578078472
0.002662709328
0.003795430092
0.006772417845
0.004067237469
0.003592039256
0.004493546085
0.004143619043
0.001834188094
0.0006656506016
0.001750098052
0.01835165474
0.008935567725
0.006976480178
0.006002329276
0.005270697372
0.006778677389
0.009891203034
0.02310566482
0.02271130361
0.02098143425
0.01823528672
0.01474128889
0.01103543596
0.008054349531
0.006701065263
0.005639008917
0.006372703803
0.006613858188
0.003794911765
0.002682904248
0.002668080179
0.001616959043
0.002138872833
0.00285049433
0.0031301769
0.003324198297
0.003305041585
0.004342042156
0.003948989362
0.005382542243
0.00912913334
0.009208948725
0.00500774323
0.003070838866
0.0131913887
0.08719223592
0.05954394929
0.02058775592
0.007896503807
0.00483140883
0.006644455588
0.009361911812
0.02174504973
0.02524654518
0.0209946955
0.01655607591
0.01321383249
0.01064533141
0.008873701553
0.006510819551
0.005062204487
0.006697429557
0.00680301804
0.002914427649
0.001172835618
0.001991470174
0.00327272406
0.00163265581
0.002102009256
0.002875242059
0.002945125437
0.003692226562
0.004892535605
0.005329326426
0.009676827597
0.01500827685
0.01607760586
0.01478662374
0.01107661811
0.05463738899
0.1329289536
0.1295227519
0.06364694915
0.01817094499
0.007497952839
0.004518721554
0.00587672668
0.00868580708
0.01056331044
0.007301139466
0.006243155219
0.008055837382
0.008071957329
0.006840216811
0.005618120757
0.00326651264
0.004272294895
0.003729403367
0.001503147815
0.001139000042
0.004110254267
0.006950605195
0.003759552135
0.004191837601
0.00432601841
0.00414270952
0.008689558369
0.01391408999
0.01418783859
0.0166738023
0.01916928372
0.02002215847
0.02028207305
0.009577463608
0.03643569049
0.087546287
0.04445623863
0.01221671354
0.005549990878
0.005619694745
0.005295211438
0.004909346102
0.00473969865
0.00668179391
0.006872404895
0.005938814917
0.005925538703
0.005524864417
0.00524728507
0.005516020635
0.001383031577
0.001024672964
0.001085647687
0.0003697025844
0.0004887663677
0.002272658071
0.004009545819
0.001604001463
0.002072314588
0.001873122615
0.0024627194
0.006498891676
0.007833792716
0.01228619997
0.01937219627
0.02557188507
0.03061945859
0.03755374423
0.02909613381
0.01208737509
0.01549092563
0.01184862972
0.01028963859
0.01155272363
0.01477628182
0.01495839111
0.01044820182
0.006155132357
0.00374311478
0.005510395799
0.006387703781
0.006556271719
0.005590373162
0.004959305409
0.005185833033
0.0001986371912
0.0002285334124
6.766515096e-05
0.0001017209118
0.0003917756529
0.000716665539
0.0002459376402
0.0003749707237
0.000440140614
0.0007726421544
0.002478221164
0.007094268749
0.01801823863
0.03222265763
0.04121138472
0.04445560248
0.04419736121
0.04434616046
0.0198543865
0.01027739297
0.01400959215
0.02113000485
0.02507943863
0.02574419394
0.0232251224
0.01811044826
0.01330691917
0.008613918169
0.007381414271
0.007568446244
0.006631898403
0.005493069266
0.00489628561
0.004814040886
3.842257109e-05
4.330023512e-05
2.262476664e-05
2.901422668e-05
6.127161973e-05
0.00010828396
3.851900376e-05
6.625984346e-05
0.0001146589261