/*--------------------------------*- C++ -*----------------------------------*\
  =========                 |
  \\      /  F ield         | OpenFOAM: The Open Source CFD Toolbox
   \\    /   O peration     | Website:  https://openfoam.org
    \\  /    A nd           | Version:  8
     \\/     M anipulation  |
\*---------------------------------------------------------------------------*/
FoamFile
{
    version     2.0;
    format      ascii;
    class       volScalarField;
    location    "0.5";
    object      nut;
}
// * * * * * * * * * * * * * * * * * * * * * * * * * * * * * * * * * * * * * //

dimensions      [0 2 -1 0 0 0 0];

internalField   nonuniform List<scalar> 
67193
(
0.0001394901482
0.0001263440387
0.0001211403318
0.0001255771774
0.0001348834902
0.000148103787
0.0001538733271
0.0001508655056
0.0001385941638
0.0001202398652
0.0001103509204
0.000107031694
0.0001053021981
0.0001038205473
0.000102828099
0.0001017698294
9.926985058e-05
9.402434791e-05
8.719314847e-05
8.078384077e-05
0.0001215380134
0.0002416857586
0.000160698292
8.294698734e-05
3.016473136e-05
7.772123549e-06
1.707700426e-06
5.852850817e-07
4.332971933e-07
4.170421682e-07
4.153167537e-07
4.14904618e-07
4.130577211e-07
3.290554469e-07
0.0001529090365
0.0001416556586
0.0001402469717
0.0001443109128
0.000150834939
0.0001632967904
0.0001707365411
0.0001704967995
0.0001590462464
0.0001334172578
0.0001198125876
0.0001150238284
0.000111189065
0.0001083519084
0.0001080089007
0.0001092349224
0.0001102034651
0.0001087088531
0.0001052412817
0.0001016171445
9.78078444e-05
9.244238444e-05
8.329867663e-05
0.0002638176459
0.0001407004332
5.207112163e-05
1.334589485e-05
2.766916814e-06
7.876352212e-07
5.085537039e-07
4.759792383e-07
4.720314445e-07
4.668053594e-07
3.567273687e-07
0.0001574364267
0.0001533441865
0.0001531046002
0.0001554678811
0.0001595597976
0.0001704945801
0.0001781899734
0.0001793482074
0.0001704055889
0.000143127434
0.000125945844
0.000118464835
0.0001107723467
0.0001056972664
0.0001059687687
0.0001090626444
0.000112224932
0.0001121605008
0.0001099178819
0.0001081743026
0.0001066387457
0.0001039759415
9.882559296e-05
8.918521216e-05
0.0003008502527
0.000158599771
5.823482146e-05
1.520819791e-05
3.329643023e-06
9.340272129e-07
5.427937747e-07
4.904696411e-07
4.76190464e-07
3.611531439e-07
0.0001630396967
0.000162865681
0.0001622206631
0.0001634258252
0.0001666463596
0.0001767497604
0.0001839118964
0.0001852164491
0.000178216233
0.0001535256329
0.0001341977322
0.0001224831311
0.0001084278143
0.0001003190446
0.0001018221105
0.0001069767888
0.0001120430541
0.0001122903931
0.0001102065543
0.0001104221483
0.0001111094414
0.0001099344559
0.0001065393022
0.0001003799986
8.957172554e-05
0.0002955790993
0.0001540821761
5.909237456e-05
1.740353158e-05
4.377064069e-06
1.231033826e-06
6.765811838e-07
5.757084542e-07
4.264491508e-07
0.0001695648589
0.0001708865755
0.0001707313484
0.000173158441
0.0001777039159
0.000186357964
0.0001900791699
0.0001896845904
0.0001838055577
0.0001642468485
0.0001458227264
0.000128173686
0.0001058860027
9.483947295e-05
9.770486392e-05
0.000104651671
0.0001113171903
0.0001113227313
0.0001096583934
0.0001129694793
0.0001169141262
0.0001165961257
0.0001128387953
0.0001068893137
9.886506429e-05
8.712728844e-05
0.0002805181399
0.0001559309626
6.822480051e-05
2.321956744e-05
6.454777374e-06
2.387844921e-06
1.562651317e-06
1.146987739e-06
0.0001747475867
0.0001780815581
0.0001800299619
0.0001840625443
0.0001900141941
0.0001971354347
0.0001960701711
0.0001924436918
0.0001879032262
0.0001726788548
0.0001566860119
0.0001340801277
0.0001051194277
9.258409728e-05
9.546019991e-05
0.0001027798325
0.0001104720215
0.0001120850946
0.0001131772662
0.0001208624558
0.0001271406036
0.0001269352659
0.0001214170896
0.0001133169181
0.0001047929049
9.610973479e-05
8.56441354e-05
0.0002923098289
0.0001804405556
8.786377717e-05
3.247290366e-05
1.284500305e-05
7.992931186e-06
6.203330985e-06
0.00017722991
0.00018353077
0.0001885549472
0.0001944694792
0.0002015305498
0.0002070310728
0.0002013837264
0.0001925788585
0.0001925181209
0.0001791565403
0.0001650276343
0.0001400378608
0.0001078125022
9.447409314e-05
9.549185713e-05
0.0001014424894
0.0001093360254
0.0001145368887
0.0001228445928
0.0001354577573
0.0001413454863
0.000139744872
0.0001319359014
0.0001208386342
0.0001099648816
0.0001015239262
9.488013196e-05
8.783795724e-05
7.70445092e-05
0.000217117121
0.0001122459475
5.412334309e-05
3.506424491e-05
2.807282053e-05
0.0001757864705
0.0001851496862
0.0001941836386
0.000203107749
0.000211335971
0.0002153279899
0.0002061587272
0.0001954798335
0.0002024787913
0.0001872905085
0.0001724914205
0.0001478045319
0.0001154440463
9.979472127e-05
9.766544618e-05
0.0001008160416
0.0001080496641
0.0001190161529
0.000141453037
0.0001544704328
0.0001562485965
0.0001510945623
0.0001410591381
0.0001274328131
0.0001140020324
0.0001044194217
9.91427837e-05
9.67023218e-05
9.138575747e-05
8.248924766e-05
0.0002549390532
0.0001543746626
0.0001066451455
8.4509276e-05
0.0001709260434
0.000181060036
0.0001934300776
0.0002076170036
0.0002187314488
0.0002210569104
0.0002084541011
0.0001965102381
0.0002196411138
0.0002020294333
0.0001836621921
0.0001600237047
0.0001292542467
0.000108502174
0.0001020569924
0.0001021982771
0.0001133402188
0.0001360856989
0.0001678291751
0.000172778907
0.000167977246
0.0001579248424
0.0001452563986
0.0001301887694
0.000115115202
0.0001047038561
0.0001006713443
0.0001028613564
0.0001002672899
9.655582008e-05
8.733809033e-05
0.0003015810103
0.0002234924706
0.0001723992893
0.0001682300944
0.0001728018534
0.0001847236797
0.0002034613372
0.0002223576636
0.0002238873175
0.0002074569028
0.0002041803374
0.0002437790791
0.0002238684164
0.0002025048446
0.0001760363627
0.0001496544095
0.0001259470444
0.0001099882508
0.0001094637004
0.0001360222687
0.0001641574751
0.0001873430382
0.0001854037325
0.0001738265079
0.0001580125861
0.0001427388816
0.0001271298249
0.0001119967149
0.0001027291893
0.0001032169908
0.0001119809955
0.0001096117374
0.0001073809953
0.0001014087868
9.077176791e-05
7.970982124e-05
0.0002622514032
0.0001735272822
0.0001696722612
0.0001715036431
0.0001880103811
0.0002188469748
0.0002225150485
0.0002118256983
0.0002385830158
0.0002807570514
0.000255169815
0.0002269625117
0.0001967738701
0.0001640901036
0.0001347414427
0.0001128753852
0.0001233413169
0.0001453562754
0.0001701908291
0.0001970611993
0.0001902180435
0.0001713338888
0.0001493098432
0.0001322119047
0.0001176014415
0.0001052017444
0.000101483342
0.0001113821937
0.0001239423009
0.0001214629216
0.0001187917522
0.0001130393113
0.0001030406824
9.138443662e-05
0.000130276787
0.0001808399625
0.000174025948
0.0001669708274
0.0001725993818
0.0001950544725
0.0002128022435
0.0002443557529
0.0002915019279
0.0003209803026
0.0002929596128
0.0002515890719
0.0002175481922
0.0001798777496
0.000141303437
0.0001200435726
0.0001308841534
0.0001383536269
0.0001516987779
0.0001857641139
0.0001810953643
0.0001522806567
0.0001275508398
0.000113090334
0.000103768371
9.89098353e-05
0.0001079555239
0.0001235584889
0.0001358382368
0.0001326609854
0.0001299133615
0.0001235729447
0.0001129404742
9.951429085e-05
8.275607201e-05
0.0001880290014
0.0001779594387
0.000169445002
0.0001663713429
0.0001715044738
0.0001797027806
0.0001890893593
0.0002487339317
0.0003242145003
0.0002764759175
0.0002157527829
0.0001607188087
0.0001291440676
0.0001176727576
0.0001290649565
0.0001395902845
0.0001340219666
0.0001184424133
0.0001284675755
0.0001236720731
0.0001022105459
9.613412452e-05
9.436638765e-05
9.419559115e-05
9.969757489e-05
0.0001184565909
0.0001366148185
0.0001417108703
0.0001386801074
0.0001352495241
0.0001293364686
0.0001185215362
0.0001042542362
8.529570414e-05
0.0001938017505
0.0001805344914
0.0001722288666
0.0001621345012
0.0001666394452
0.0001676207217
0.0001697078869
0.0001779653358
0.0002484746406
0.0002153495779
0.0001576477325
0.0001214644222
0.0001178887136
0.0001265168965
0.0001395661988
0.0001432057627
0.0001377020284
0.0001119232136
9.148911698e-05
8.850455042e-05
8.912047127e-05
9.060809102e-05
9.236174385e-05
9.34782492e-05
9.618427317e-05
0.000112839787
0.0001403149166
0.0001315109482
0.0001284976961
0.000126254616
0.0001191698843
0.0001089628467
9.750048884e-05
8.288920158e-05
0.0001976008213
0.0001825664226
0.0001754002092
0.0001534098941
0.0001586058789
0.0001636551053
0.0001637625345
0.000160327763
0.0001892157521
0.0001530686244
0.0001162294695
0.0001135766998
0.0001249517507
0.0001374597381
0.0001441745938
0.0001429406886
0.0001396135064
0.0001177483225
8.844305576e-05
8.38183662e-05
8.655990723e-05
8.959783924e-05
9.203437494e-05
9.355998597e-05
9.36145556e-05
9.528721041e-05
0.0001144042308
0.0001303425752
0.0001546266822
0.0001456096243
0.0001248751074
0.000103734334
9.099465779e-05
0.0001370330425
0.0001993919735
0.0001861242285
0.0001785692419
0.0001520196926
0.0001555218705
0.0001615092171
0.000161124549
0.0001542039132
0.0001479643596
0.0001129727143
0.0001053035627
0.0001168548599
0.0001329265559
0.0001432220976
0.0001482581132
0.0001418743437
0.0001365606443
0.0001210042085
9.11206386e-05
8.39899684e-05
8.645764433e-05
9.00216737e-05
9.251802794e-05
9.370161476e-05
9.41817036e-05
0.0001065494949
0.0001340018827
0.0001760094283
0.0001917355157
0.0001809533211
0.0001557985354
0.0001285735197
0.0001032734554
8.295243204e-05
0.0001983975289
0.0001925042921
0.0001851248428
0.0001701396971
0.0001625158884
0.0001595734916
0.0001493312329
0.0001176462879
0.000108592362
0.0001037113636
0.0001078678655
0.0001175934918
0.0001321678831
0.0001420614703
0.0001521307571
0.0001434289487
0.0001314903026
0.0001184688209
0.0001046583825
9.477983797e-05
9.178517335e-05
9.197115599e-05
9.292585473e-05
9.389287705e-05
9.451445235e-05
0.0001102757962
0.0001493782829
0.0001984087685
0.0001944441758
0.0001647784021
0.0001267531201
9.876532187e-05
8.987136852e-05
8.139301228e-05
0.0001949705119
0.0001931623577
0.0001889120259
0.0001809141953
0.0001736537847
0.0001656565459
0.0001483863456
0.000110537563
0.0001077418859
0.0001139533732
0.0001153026742
0.0001112130788
0.0001075003227
0.0001177726444
0.0001356550349
0.0001300042087
0.000120469461
0.0001134603349
0.0001088148213
0.000104148916
9.93536225e-05
9.669716804e-05
9.578152236e-05
9.562711862e-05
9.540951474e-05
9.936113877e-05
0.0001159191456
0.0001672141621
0.0001557883653
0.0001254155906
0.0001018119681
9.46026145e-05
9.325939967e-05
8.549126868e-05
0.0001883509432
0.000188358965
0.0001863293983
0.000182658435
0.0001771800466
0.0001673895128
0.0001425463669
0.0001124623316
0.000119537052
0.0001255328522
0.000125549734
0.0001206092901
0.0001140704734
0.0001084918634
0.000114052157
0.0001189735008
0.0001180498589
0.0001098020488
0.000109502394
0.0001073361045
0.0001043148029
0.0001010559666
9.857182802e-05
9.709602692e-05
9.600850396e-05
9.589638308e-05
9.684254286e-05
0.0001271784961
0.0001121285497
0.0001011274166
0.0001006740507
0.0001016184665
0.0001007274938
9.168553316e-05
0.0001693898948
0.0001733580224
0.0001759864708
0.0001769165639
0.0001738124962
0.0001629602334
0.000131172905
0.0001130144288
0.000124335572
0.0001287606653
0.0001280692032
0.0001219312293
0.0001154079204
0.0001084932061
0.0001092716011
0.0001135989877
0.0001149557701
0.0001122108672
0.0001096438405
9.205727852e-05
9.607419792e-05
9.858784122e-05
9.798042261e-05
9.644235047e-05
9.467259762e-05
9.230993767e-05
8.508689346e-05
9.813564704e-05
0.0001097425526
0.000114628787
0.0001155810337
0.0001141626647
0.0001105393588
9.822673121e-05
0.0001469761091
0.0001557096627
0.0001628785552
0.0001667436587
0.000164554918
0.0001497480488
0.0001111809774
0.0001084781022
0.0001181673141
0.0001227427266
0.0001218054375
0.0001034252889
0.0001045389102
0.0001032093149
9.514352602e-05
0.0001041304882
0.0001078115705
0.0001077802813
0.0001051113691
9.667156973e-05
9.411160986e-05
9.322370739e-05
9.189012516e-05
9.028113077e-05
8.790074155e-05
8.378004397e-05
9.804779337e-05
0.0001162640377
0.0001250776715
0.0001276073647
0.0001264289863
0.0001228500772
0.000117430798
0.0001029260437
0.0001369993941
0.00014553371
0.0001529251892
0.0001564538936
0.0001521394916
0.0001295187007
9.839483037e-05
0.0001040226595
0.0001103117786
0.000112242219
0.0001086367616
8.189822524e-05
9.275813438e-05
9.664664027e-05
9.705393103e-05
9.866615465e-05
9.847267415e-05
9.415504622e-05
8.795343228e-05
8.312470962e-05
8.226015875e-05
7.787841659e-05
7.854500669e-05
7.977971648e-05
8.979527516e-05
0.0001072466426
0.0001241436351
0.000131710657
0.0001363324979
0.000136060418
0.0001323191128
0.0001270787834
0.0001208439772
0.000105401495
0.0001341477505
0.0001404973065
0.0001454559261
0.0001447440824
0.0001335196425
0.000103762859
9.315176848e-05
9.871092619e-05
0.0001023523042
0.0001000973481
8.896286074e-05
0.0002481876092
7.7011887e-05
8.447679267e-05
8.85860345e-05
8.730254312e-05
7.714443514e-05
0.0001763036113
0.0001347592362
7.975177161e-05
0.0001344345152
0.0001052586063
0.0001016617987
0.000102371278
0.0001123639611
0.0001258711555
0.0001421074867
0.0001532909918
0.0001530250509
0.0001472075459
0.0001388834341
0.0001302323506
0.0001220260962
0.0001063304884
0.0001333284709
0.0001366232129
0.0001341287696
0.0001244445059
0.0001025484577
8.173060173e-05
8.498618728e-05
9.144299151e-05
9.544297657e-05
9.381612557e-05
8.679907077e-05
8.871760589e-05
7.890242019e-05
0.0003178405153
0.0003041360046
0.000282614291
0.0001572968988
9.140356256e-05
9.420477629e-05
0.0001771823245
0.0002360675145
0.000180590924
0.000142929416
0.0001233395729
0.0001207510872
0.0001284103607
0.0001528331131
0.0001683970021
0.0001658763767
0.0001584589353
0.000147393789
0.0001347368542
0.0001228912642
0.0001065596236
0.0001306420398
0.0001303753643
0.0001240239932
0.0001062824049
8.601017657e-05
0.0002335022521
0.0001692026433
0.0002749361505
7.932255595e-05
8.740154562e-05
9.061858122e-05
8.868556904e-05
8.57175275e-05
7.697826451e-05
0.0002830791677
7.661544663e-05
8.297546395e-05
0.0002875613956
9.26822475e-05
0.0001942887999
0.0003048314264
0.0003255744881
0.0002614053901
0.0001969659173
0.0001481664123
0.0001302096308
0.0001239439391
0.0001231040285
0.0001558937652
0.0001558119762
0.0001463992543
0.0001366850261
0.0001273640237
0.0001185896461
0.0001038435538
0.0001252308558
0.0001145042718
9.730943943e-05
0.0002797872003
0.0001388215604
7.780807451e-05
0.0001425606133
0.0001234493404
0.0001914162694
0.0002895901364
7.968267107e-05
8.041971078e-05
7.603591644e-05
0.0002241125398
0.0003200433965
9.590728871e-05
0.0001054404143
0.000106503668
0.0001806201965
0.000306238135
0.0004186361231
0.0004311543894
0.0003465992862
0.000263418309
0.0001882545197
0.0001452482671
0.0001327686263
0.0001256079811
0.0001246880305
0.0001341190481
0.0001273747801
0.0001224748375
0.0001168805218
0.0001096136051
9.846756186e-05
0.000106651987
8.231258297e-05
0.0002548408933
0.0001082637406
8.679564919e-05
0.0001954915072
8.337271847e-05
0.0001283355783
0.0001966346076
0.0002108001433
0.0002294746184
7.79894599e-05
9.842815081e-05
0.0003161466601
0.0001065298212
0.0001012659582
9.880771842e-05
0.0001135113249
8.181883413e-05
0.0001110045738
0.0002035610145
0.000273028701
0.0001839219518
0.000152115685
0.0001447807342
0.0001417356206
0.0001375628962
0.0001330724161
0.0001261543085
0.0001210019865
0.0001176450118
0.0001160784535
0.0001127277636
0.000106733168
9.470060146e-05
7.715929007e-05
0.0001622548924
9.692137786e-05
3.552061804e-05
5.388053462e-05
0.0001391527826
0.0002295261591
6.184655756e-05
9.801505792e-05
0.0001124008119
0.0001395236356
0.0002100676375
0.0002812135226
7.902762527e-05
8.5886618e-05
8.787842563e-05
0.0001003081324
0.0001393793653
0.0001254985772
0.0001247218857
0.0001544894302
0.0001948902891
0.0001601513058
0.0001625126897
0.0001629637537
0.0001592072237
0.0001485226214
0.0001396875815
0.0001336323143
0.0001262568667
0.0001169020345
0.0001113591611
0.0001075820665
0.0001018421103
8.954779989e-05
4.840099286e-05
2.731656033e-05
9.628902742e-06
1.986805332e-05
6.004312357e-05
0.0001050338204
2.352430335e-05
4.41919375e-05
5.740028221e-05
8.594774951e-05
0.0001590431339
7.78490553e-05
0.000114666408
0.0001479153368
0.0001538998523
0.0001489306876
0.0001826266343
0.0001928979701
0.000139934305
0.000148867143
0.0001596483522
0.0001724099864
0.0001841563754
0.0001842223234
0.00017747632
0.0001654736335
0.0001591857582
0.0001490436578
0.0001414485154
0.0001310081127
0.0001157814961
0.0001029719887
9.339897372e-05
8.295244719e-05
7.459986936e-06
4.996414809e-06
1.89271112e-06
4.231205171e-06
1.48420173e-05
3.091885277e-05
5.572578545e-06
1.344357697e-05
2.197972768e-05
5.392589164e-05
0.0001483747804
8.17881614e-05
0.0002017705001
0.0001953623022
0.0001810633076
0.0001941831273
0.0001786555694
0.0001593291583
0.0001399373314
0.0001151730933
9.540369474e-05
9.651097428e-05
9.821021663e-05
3.226357044e-06
1.309541056e-05
3.792531654e-05
5.867958869e-05
2.503236515e-05
3.020231632e-06
0.0001318752811
0.0001212842192
0.0001133516788
0.0001128105024
0.0001191060815
0.0001313685803
0.0001393708298
0.0001390717049
0.0001273098883
0.0001117605551
0.0001015488397
9.715718253e-05
9.548917434e-05
9.438467415e-05
9.304918005e-05
9.115042651e-05
8.632781852e-05
7.788240701e-05
0.0002589323491
0.0001976214221
0.000148837551
0.000101029523
5.641578868e-05
2.404625878e-05
7.684105954e-06
2.101772751e-06
7.647125777e-07
5.217010631e-07
4.783256798e-07
4.644832267e-07
4.566604128e-07
4.506875366e-07
4.337420442e-07
2.928356761e-07
0.0002005828842
0.0002009344979
0.0001779046845
0.0001568448029
0.0001444358121
0.0001540729691
0.000184452297
0.0001911056555
0.0001672043476
0.0001289836296
0.0001040045419
9.733376187e-05
9.805775842e-05
0.0001021074271
0.0001082478953
0.0001157213211
0.0001115300624
9.939125396e-05
8.81530078e-05
7.95854395e-05
7.326077384e-05
6.846712186e-05
6.903315394e-05
7.299473819e-05
4.137047328e-05
1.5500518e-05
5.417808731e-06
3.41099508e-06
3.582971006e-06
3.702468443e-06
3.675759414e-06
3.526211121e-06
2.576954853e-06
3.313383021e-07
0.0002136904023
0.0002347403245
0.0002243886301
0.0001988907076
0.0001749493588
0.0001772767805
0.0002095909833
0.0002145329685
0.0001823665506
0.0001230733379
8.391847533e-05
8.145659444e-05
8.371560694e-05
9.052321672e-05
0.0001045723521
0.0001233654873
0.0001185641767
0.0001010940325
9.190304216e-05
8.933063955e-05
8.687275541e-05
8.1444247e-05
7.424024382e-05
6.762799995e-05
7.437774084e-05
4.564440487e-05
1.787582295e-05
6.632034882e-06
4.576975764e-06
5.195615016e-06
5.497428539e-06
5.068829086e-06
3.20587578e-06
3.407913287e-07
0.0002216212787
0.0002555407193
0.0002603369324
0.000227976534
0.0002029035512
0.0002048959213
0.0002367380887
0.0002402644891
0.0002035508541
0.0001387409346
8.213658436e-05
7.226319527e-05
6.437067759e-05
6.507076021e-05
8.38793375e-05
0.0001181186536
0.0001159191282
9.082409742e-05
8.248042464e-05
8.912095073e-05
9.718928949e-05
9.649701214e-05
8.937422389e-05
7.971337743e-05
7.055707489e-05
7.468551698e-05
4.609514331e-05
1.899224278e-05
7.472583396e-06
4.882478285e-06
5.302186722e-06
5.080785322e-06
3.178842802e-06
3.652429688e-07
0.0002339766665
0.0002697399198
0.0002710163712
0.0002535445024
0.0002452880395
0.0002429679804
0.0002618794341
0.0002623754935
0.0002323771079
0.0001700727492
0.0001016298729
7.845763998e-05
5.732446351e-05
4.942908391e-05
6.926039507e-05
0.0001135972549
0.0001160308096
8.780471905e-05
7.755160774e-05
8.163310576e-05
9.304834804e-05
0.0001014962951
0.0001007458251
9.332038366e-05
8.262776284e-05
7.364874653e-05
7.58568155e-05
4.885771436e-05
2.221999553e-05
9.026824301e-06
5.065654041e-06
4.291931473e-06
2.882998027e-06
6.239843854e-07
0.0002479659717
0.0002846730377
0.0002916514282
0.0002916583058
0.000299242196
0.0002938211485
0.0002830405546
0.0002728010937
0.000254413634
0.0001994733915
0.0001252369065
9.207803891e-05
6.252949678e-05
4.881167357e-05
6.517598781e-05
0.0001114548979
0.0001207152185
0.0001003868978
9.037361547e-05
8.526145115e-05
9.441217931e-05
0.0001045497177
0.0001073563867
0.0001027454838
9.401914825e-05
8.340903154e-05
7.625088632e-05
8.074992592e-05
5.658021307e-05
2.795324911e-05
1.174423239e-05
6.820733342e-06
4.698582586e-06
2.659061376e-06
0.0002561951031
0.0003015247296
0.0003216646908
0.0003346817396
0.0003541197533
0.0003464039648
0.0003051294544
0.0002672556944
0.0002618233504
0.0002189493395
0.000147867256
0.0001088416376
7.594365611e-05
5.866203604e-05
6.783446184e-05
0.0001093018078
0.0001309640835
0.000124131721
0.0001169895181
0.0001097854911
0.0001139947732
0.0001181793733
0.0001159066901
0.0001092006187
0.0001015083265
9.277918163e-05
8.393142675e-05
7.709213071e-05
8.342157706e-05
6.537762386e-05
3.649271612e-05
2.185594919e-05
1.5705762e-05
1.299778813e-05
0.0002525599367
0.0003002304283
0.0003460104996
0.0003749825561
0.0004045298275
0.0003955441749
0.0003330813184
0.0002824115366
0.0002600630005
0.0002301131348
0.0001709313615
0.0001306595624
9.463375664e-05
7.325682096e-05
7.619811659e-05
0.0001089083234
0.0001399868814
0.0001515287583
0.0001462370809
0.0001378227347
0.0001369631003
0.0001319079752
0.0001204762474
0.0001101765456
0.0001033288928
9.779619255e-05
9.150586965e-05
8.563768821e-05
7.830437862e-05
7.827266487e-05
7.763643262e-05
6.0947928e-05
4.764575907e-05
4.551978628e-05
0.000244461151
0.0002758470863
0.000346174469
0.0004061499175
0.0004478822964
0.0004344607901
0.0003599845227
0.0002691392422
0.0002259332497
0.0002249602604
0.000190218271
0.0001574935995
0.0001143749027
8.820676384e-05
9.122018851e-05
0.0001137561978
0.0001400467052
0.000168662838
0.0001716976303
0.0001655478229
0.0001544319519
0.0001339077959
0.0001114249294
9.949899024e-05
9.589354116e-05
9.56179633e-05
9.018899768e-05
9.411058306e-05
8.871646406e-05
8.286434495e-05
8.518179079e-05
0.0001059421499
9.6336142e-05
0.0001076882765
0.0002551978403
0.0002503778393
0.0003093527821
0.0004212219342
0.0004810862869
0.0004599531038
0.0003806239893
0.0002568007835
0.0001918634533
0.0001899085427
0.0001894516451
0.0001770631345
0.0001379358767
0.000107479575
0.0001110030444
0.0001198485414
0.0001402302486
0.0001842360099
0.000209576942
0.0001981394644
0.0001668971826
0.0001254771463
9.47038871e-05
8.147990725e-05
8.15039159e-05
8.602981807e-05
6.978378507e-05
9.095423205e-05
9.447200053e-05
9.665486301e-05
9.46783921e-05
9.715450472e-05
0.0001082721229
0.0001822058644
0.0002957197417
0.0002558653029
0.0002721861631
0.0004015236918
0.0004973542838
0.0004740626804
0.0003682803678
0.0002532724775
0.0002572202843
0.0002015265199
0.0001699022356
0.0001692079494
0.0001533611357
0.0001369506758
0.000127675817
0.0001290720613
0.0001492360463
0.0002089679216
0.0002428210559
0.0002150693465
0.000165716591
0.0001126736793
8.111458704e-05
6.929353756e-05
7.109757661e-05
7.389387071e-05
4.536566878e-05
6.242359553e-05
8.175358806e-05
0.0001033444753
0.0001077224808
9.916347521e-05
9.358501783e-05
0.0002430502415
0.0003437757173
0.0002907490617
0.0002739633066
0.0003399664131
0.000472255635
0.0004629764088
0.0003526165013
0.0003751809118
0.0003675038
0.0002957914518
0.0001761121475
0.0001550100844
0.0001438833181
0.0001278973109
0.000122089783
0.0001395899726
0.0001584887835
0.000189592342
0.0002227058569
0.0001898351759
0.0001367374405
9.288449499e-05
7.326131381e-05
6.809744511e-05
7.23200899e-05
6.787268976e-05
4.20485568e-05
5.233650405e-05
7.007237501e-05
0.0001035184887
0.0001136467389
0.0001010625722
9.46820349e-05
0.0002795953008
0.0003841037499
0.000330046283
0.0002998178535
0.0003155900264
0.000374356888
0.0003564068496
0.0002991158196
0.0004404919629
0.0004117956005
0.0002892601688
0.0001501957215
0.0001434077671
0.0001487749342
0.0001402206056
0.0001433839038
0.0001672814942
0.0001647850203
0.0001349373772
0.0001624709725
0.0001316524275
9.374162183e-05
7.715009426e-05
7.371361138e-05
7.685788519e-05
8.110209328e-05
6.94122052e-05
5.121810227e-05
4.965310103e-05
6.225309103e-05
8.463607634e-05
0.0001052458493
9.007570642e-05
9.218157533e-05
0.0002950967525
0.0004180329663
0.000362613193
0.0003092703938
0.0002565030393
0.0002881336612
0.0002980205294
0.0002528848739
0.0002360175046
0.0002398285138
0.0001953269909
0.0001864848501
0.0002138710212
0.0001986229296
0.0001847087377
0.0001886039717
0.0001907501546
0.0001663358152
9.786280628e-05
7.435678303e-05
6.763859392e-05
7.005472269e-05
7.511669345e-05
8.138798745e-05
8.835415185e-05
8.486775447e-05
6.447677481e-05
5.909520983e-05
5.860236302e-05
6.058771831e-05
7.229855438e-05
8.124457743e-05
7.61485131e-05
8.4470625e-05
0.0002930816161
0.0004324917082
0.0003788044294
0.000287840316
0.000174301304
0.0001988475695
0.0002380989609
0.0002397063792
0.0002004350735
0.0001702353596
0.0001829487682
0.0002226744949
0.0002488117304
0.0002309677752
0.0002259020817
0.0001947402331
0.0001707016208
0.0001504202523
8.154280881e-05
5.764590048e-05
5.980944223e-05
6.830437767e-05
7.80941008e-05
8.638256949e-05
9.154752262e-05
8.982153677e-05
9.770815048e-05
8.02224215e-05
7.066621098e-05
8.254174257e-05
0.000111059759
0.0001006495441
8.192201003e-05
8.563570941e-05
0.0002900816489
0.0004214067562
0.0003800409996
0.0002671522047
0.0001442866974
0.0001501173131
0.0001880429101
0.0002002299308
0.0001615697937
0.000153684591
0.0001881615653
0.0002219079861
0.0002388888771
0.0002270546576
0.0002125138669
0.0001871787338
0.0001532447319
0.0001305585054
7.686034928e-05
5.649724587e-05
5.774205004e-05
6.807169684e-05
7.944182431e-05
8.756560361e-05
9.139546982e-05
9.256616009e-05
9.289388405e-05
0.0001345142421
0.0001074093288
0.0001183216391
0.0001096585162
8.069820445e-05
9.366860992e-05
9.617358383e-05
0.0002980976213
0.0003880511275
0.0003540196808
0.0002520762196
0.0001579206717
0.0001393085706
0.0001507632915
0.0001310840199
0.0001215487913
0.0001444124938
0.0001790311683
0.0002138233054
0.0002039623612
0.0001848319224
0.0001859288361
0.0001965738927
0.0001626979167
0.0001188631592
8.004434489e-05
6.172852412e-05
5.957663006e-05
6.647114817e-05
7.298766546e-05
7.810069766e-05
8.005420345e-05
7.600174088e-05
7.668341955e-05
0.0001037810992
0.0001250032476
0.0001365253408
0.0001038611272
8.117576415e-05
9.468157587e-05
0.0001069219269
0.0003023360139
0.0003392622062
0.0003239077636
0.0002601656216
0.0001991566658
0.0001912463385
0.000176461551
0.0001290131526
0.000124067808
0.0001652656412
0.0002090341177
0.0002214651888
0.0001985774781
0.00015435009
0.0001538010161
0.0001488026262
0.0001217563268
8.489141365e-05
6.509325045e-05
5.825387774e-05
5.526961342e-05
5.597209704e-05
6.219206181e-05
6.778558672e-05
6.848537786e-05
7.22701448e-05
7.382771552e-05
7.69985491e-05
0.0001038600728
0.0001144395458
0.0001228629331
0.0001321883232
0.0001251827919
0.0001141291235
0.0003126879949
0.0002736221152
0.0002736997575
0.0002453761825
0.0002158939659
0.0002031326508
0.0001724949407
0.0001237050716
0.0001417986496
0.0002084838735
0.0002454868186
0.0002492416427
0.0002230701708
0.0001817459513
0.00011621541
8.892942197e-05
8.111910701e-05
8.146835169e-05
6.276102295e-05
6.96935823e-05
8.264594125e-05
7.26310843e-05
7.254540416e-05
7.615281167e-05
7.695030587e-05
7.991327999e-05
8.47318661e-05
8.049462104e-05
6.915601976e-05
9.586625003e-05
0.0001207092792
0.0001402289615
0.0001351324534
0.0001190823011
7.774097762e-05
0.0001776392692
0.0001972721624
0.0002090416602
0.000208449532
0.0001950402079
0.0001526275498
0.0001097357464
0.0001426970531
0.0002265572014
0.0002537373737
0.0002502419718
0.0002170697452
0.0001673408637
0.0001027561075
8.227960053e-05
7.482062199e-05
7.87338862e-05
8.617496846e-05
0.0001099362129
6.964999901e-05
7.753435271e-05
8.278077052e-05
8.581234763e-05
8.405631259e-05
8.333763559e-05
8.449425213e-05
8.208890327e-05
7.541288798e-05
9.122543576e-05
0.0001279430007
0.0001523677194
0.0001396115738
0.0001162913882
8.111601144e-05
9.14766832e-05
0.0001374958211
0.0001790845596
0.000187195841
0.000161928144
0.0001223220679
5.850181591e-05
9.144916537e-05
0.0001844925059
0.0002187520075
0.000211877838
0.0001540854392
0.0001193331693
9.118493962e-05
5.020041471e-05
6.881402217e-05
8.112529318e-05
8.829552169e-05
9.183985272e-05
9.281243591e-05
8.510183457e-05
8.545903361e-05
8.364499589e-05
7.953228781e-05
7.895032464e-05
8.225630306e-05
8.167352885e-05
7.703921316e-05
9.509627101e-05
0.0001360710214
0.0001448275227
0.0001187370502
0.0001012017502
8.401524866e-05
7.991559079e-05
0.0001201185643
0.0001463467107
0.000148963871
0.0001269343127
9.465886741e-05
5.442300531e-05
6.48047942e-05
0.0001119615475
0.0001409897006
0.0001346371925
6.904237192e-05
7.709744613e-05
7.095763429e-05
7.10869628e-05
7.69821051e-05
7.530075217e-05
7.369476909e-05
7.567895026e-05
6.510967151e-05
8.476008641e-05
0.0001195819439
0.0001104474986
9.841208344e-05
7.952531584e-05
7.899064714e-05
6.994472838e-05
7.979628414e-05
0.0001021205804
0.000111851891
0.0001037275594
9.129591736e-05
8.88679179e-05
8.53067385e-05
9.403178291e-05
0.0001054589291
0.0001141786993
0.0001164824923
0.0001019552898
7.774182653e-05
6.049276463e-05
5.632640187e-05
6.208323424e-05
7.546576773e-05
7.686056988e-05
4.847048851e-05
6.348961683e-05
7.139271282e-05
8.015727861e-05
8.071851714e-05
6.738511423e-05
9.745001133e-05
2.846292212e-05
1.372537299e-05
3.785833621e-05
6.300263305e-05
7.021323255e-05
7.225355268e-05
7.696160663e-05
8.104884413e-05
0.0001423272823
0.0001739963819
0.0001733870654
0.0001499514576
0.0001186018536
9.57195479e-05
8.677709274e-05
8.492450369e-05
8.965039662e-05
9.153385599e-05
9.032276829e-05
8.764668563e-05
7.862169258e-05
7.571024472e-05
6.043575065e-05
5.642039528e-05
5.03403887e-05
5.171227434e-05
6.75423126e-05
0.0001283581714
9.027506235e-05
0.0001152451596
0.0001682996993
0.0002249716177
0.0001066145829
1.091044951e-05
1.200231805e-05
6.767752419e-05
4.440947482e-05
6.408970994e-05
7.76776524e-05
7.484381607e-05
8.732640685e-05
0.0001107368844
0.0002130717848
0.000228331174
0.0002207369799
0.0001953266528
0.0001595109066
0.0001228395652
0.0001006938282
8.426507107e-05
8.044737972e-05
9.740742409e-05
0.0001189086396
7.945937471e-05
6.291663601e-05
0.0001117497484
9.607759361e-05
0.0001192930945
8.161526352e-05