/*--------------------------------*- C++ -*----------------------------------*\
  =========                 |
  \\      /  F ield         | OpenFOAM: The Open Source CFD Toolbox
   \\    /   O peration     | Website:  https://openfoam.org
    \\  /    A nd           | Version:  8
     \\/     M anipulation  |
\*---------------------------------------------------------------------------*/
FoamFile
{
    version     2.0;
    format      ascii;
    class       volScalarField;
    location    "0.5";
    object      p;
}
// * * * * * * * * * * * * * * * * * * * * * * * * * * * * * * * * * * * * * //

dimensions      [1 -1 -2 0 0 0 0];

internalField   nonuniform List<scalar> 
67193
(
100003.8719
100003.8477
100003.8461
100003.856
100003.8743
100003.9134
100003.9523
100003.9766
100003.9591
100003.9142
100003.8837
100003.8735
100003.8721
100003.8753
100003.88
100003.8836
100003.8789
100003.8631
100003.8433
100003.8296
100003.8226
100003.8199
100003.818
100003.8153
100003.8116
100003.8067
100003.8021
100003.7982
100003.7954
100003.7933
100003.792
100003.7911
100003.7907
100003.7905
100003.7954
100003.7863
100003.7833
100003.7831
100003.786
100003.8006
100003.8198
100003.8371
100003.8258
100003.8076
100003.7912
100003.7884
100003.7866
100003.7867
100003.7891
100003.7925
100003.7909
100003.7835
100003.7765
100003.7747
100003.7778
100003.7833
100003.7901
100003.7961
100003.8011
100003.803
100003.8013
100003.7986
100003.7962
100003.7944
100003.7931
100003.7924
100003.7919
100003.7919
100003.7714
100003.7617
100003.7585
100003.7588
100003.7597
100003.7701
100003.782
100003.7977
100003.7874
100003.7877
100003.771
100003.7678
100003.764
100003.7612
100003.762
100003.7646
100003.7622
100003.7537
100003.7466
100003.7473
100003.7544
100003.7642
100003.7746
100003.7845
100003.792
100003.7979
100003.8007
100003.8002
100003.7986
100003.7971
100003.7961
100003.7954
100003.7951
100003.7952
100003.7515
100003.7426
100003.7478
100003.7539
100003.7546
100003.762
100003.7601
100003.7741
100003.7655
100003.7845
100003.761
100003.7578
100003.753
100003.7473
100003.7442
100003.7448
100003.7445
100003.7377
100003.7286
100003.7263
100003.7325
100003.7437
100003.7563
100003.7695
100003.7812
100003.7898
100003.7966
100003.8012
100003.8019
100003.8016
100003.8009
100003.8005
100003.8003
100003.8006
100003.7457
100003.7429
100003.7583
100003.7735
100003.7744
100003.7843
100003.7664
100003.7795
100003.7589
100003.7985
100003.7664
100003.7644
100003.7628
100003.7571
100003.7483
100003.744
100003.7477
100003.7433
100003.7311
100003.7219
100003.7206
100003.7289
100003.7406
100003.7536
100003.7676
100003.7799
100003.7891
100003.7992
100003.8048
100003.8077
100003.8082
100003.8082
100003.8079
100003.8088
100003.7503
100003.7536
100003.7729
100003.7974
100003.8056
100003.8161
100003.7921
100003.8139
100003.7594
100003.8115
100003.7789
100003.7801
100003.7838
100003.7776
100003.7628
100003.753
100003.7599
100003.7568
100003.7437
100003.7298
100003.7173
100003.7176
100003.7262
100003.7374
100003.7504
100003.7649
100003.7773
100003.7947
100003.8051
100003.8134
100003.8176
100003.8189
100003.8184
100003.8202
100003.7631
100003.7702
100003.789
100003.8221
100003.8429
100003.8498
100003.8217
100003.839
100003.7767
100003.8217
100003.7971
100003.8053
100003.8141
100003.805
100003.7823
100003.7664
100003.7725
100003.7704
100003.7597
100003.742
100003.7217
100003.7098
100003.7139
100003.7228
100003.7329
100003.7464
100003.7578
100003.7876
100003.8026
100003.8168
100003.8265
100003.8317
100003.8316
100003.835
100003.7784
100003.7932
100003.8037
100003.8391
100003.8734
100003.8806
100003.844
100003.8297
100003.8051
100003.8262
100003.8118
100003.8348
100003.8454
100003.8309
100003.8004
100003.783
100003.7869
100003.7833
100003.7738
100003.7552
100003.7359
100003.7115
100003.7058
100003.7129
100003.7192
100003.7301
100003.7312
100003.7698
100003.7912
100003.8135
100003.8312
100003.843
100003.8459
100003.8536
100003.7894
100003.8307
100003.8185
100003.8465
100003.8911
100003.9076
100003.8755
100003.8471
100003.8139
100003.8156
100003.8031
100003.8547
100003.8644
100003.8376
100003.8076
100003.8047
100003.8121
100003.7883
100003.7755
100003.7814
100003.7722
100003.7348
100003.7128
100003.7133
100003.7135
100003.7189
100003.6958
100003.7151
100003.7524
100003.7884
100003.8239
100003.8499
100003.86
100003.8773
100003.7966
100003.8377
100003.8341
100003.8534
100003.8961
100003.9295
100003.9156
100003.8722
100003.8754
100003.8223
100003.7629
100003.8272
100003.8527
100003.8383
100003.8221
100003.8353
100003.8279
100003.7902
100003.7964
100003.8453
100003.8315
100003.7801
100003.7402
100003.7311
100003.724
100003.7192
100003.6515
100003.5999
100003.6664
100003.7224
100003.7905
100003.8464
100003.8771
100003.9105
100003.8022
100003.8352
100003.8494
100003.8584
100003.8817
100003.9365
100003.9427
100003.9268
100004.1083
100003.9943
100003.7686
100003.7994
100003.8276
100003.8366
100003.8426
100003.8507
100003.8351
100003.8019
100003.8564
100003.9182
100003.8841
100003.8334
100003.7842
100003.7703
100003.7672
100003.7381
100003.6553
100003.5968
100003.6214
100003.618
100003.7136
100003.8201
100003.8913
100003.9602
100003.8129
100003.8267
100003.8498
100003.8793
100003.9026
100003.9138
100003.8579
100003.9341
100004.2549
100004.083
100003.7469
100003.7184
100003.7858
100003.845
100003.874
100003.8696
100003.851
100003.8253
100003.8722
100003.9094
100003.9008
100003.8686
100003.8296
100003.8244
100003.8438
100003.7656
100003.8706
100004.2077
100003.9908
100003.679
100003.6293
100003.7637
100003.8908
100004.0167
100003.8268
100003.8238
100003.8308
100003.8439
100003.8776
100003.8772
100003.8369
100003.9227
100003.9988
100003.8717
100003.7406
100003.7667
100003.7899
100003.8292
100003.8548
100003.8587
100003.863
100003.8615
100003.8877
100003.9004
100003.8961
100003.8841
100003.861
100003.8828
100003.8647
100003.8063
100004.2422
100004.5146
100004.2967
100003.8823
100003.6489
100003.6958
100003.8559
100004.0346
100003.8453
100003.8324
100003.8248
100003.8213
100003.8315
100003.84
100003.8322
100003.8238
100003.8053
100003.8037
100003.8195
100003.8302
100003.8269
100003.8463
100003.8431
100003.8648
100003.884
100003.9065
100003.9101
100003.9268
100003.9272
100003.9159
100003.8873
100003.8879
100003.8641
100003.8662
100004.1557
100004.3506
100004.2401
100004.0086
100003.79
100003.742
100003.8445
100003.9885
100003.8652
100003.8487
100003.8382
100003.8488
100003.818
100003.8022
100003.8112
100003.8304
100003.8318
100003.8495
100003.841
100003.8339
100003.8312
100003.8417
100003.8511
100003.901
100003.9137
100003.9766
100003.9675
100003.9773
100003.9663
100003.9379
100003.8994
100003.8738
100003.8565
100003.8508
100003.8283
100003.9449
100003.9731
100003.8935
100003.8164
100003.8317
100003.8716
100003.9299
100003.8848
100003.8695
100003.8679
100003.9022
100003.8261
100003.7896
100003.7896
100003.8169
100003.8386
100003.8551
100003.8446
100003.8428
100003.8428
100003.859
100003.8971
100003.9744
100003.9604
100004.0637
100004.0233
100004.0122
100003.9824
100003.9411
100003.9005
100003.8667
100003.8965
100003.8615
100003.8546
100004.1915
100004.2253
100003.8771
100003.661
100003.7537
100003.8841
100004.0038
100003.9042
100003.8777
100003.8906
100003.9032
100003.8007
100003.7701
100003.8151
100003.8261
100003.8302
100003.8466
100003.8356
100003.8437
100003.8436
100003.8815
100003.9429
100004.0393
100004.019
100004.1331
100004.0593
100004.0172
100003.962
100003.9083
100003.8633
100003.8355
100003.8452
100003.811
100003.8054
100004.0509
100004.087
100003.7873
100003.7326
100003.7694
100003.7946
100003.8303
100003.9322
100003.9197
100004.0517
100003.9005
100003.7964
100003.802
100003.8385
100003.8523
100003.8398
100003.8445
100003.84
100003.8432
100003.8507
100003.8979
100003.9469
100004.0721
100004.0225
100004.3062
100004.0676
100004.0081
100003.9318
100003.8753
100003.8354
100003.8115
100003.7978
100003.779
100003.6589
100003.6381
100003.6724
100003.7256
100003.7879
100003.807
100003.8173
100003.8427
100003.9106
100003.8534
100003.8269
100003.8069
100003.7951
100003.84
100003.8598
100003.8672
100003.841
100003.8488
100003.844
100003.8456
100003.8482
100003.8819
100003.9112
100003.9512
100003.9524
100004.1042
100003.9768
100003.9725
100003.9089
100003.8651
100003.8322
100003.812
100003.7992
100003.7952
100003.768
100003.7708
100003.8335
100003.8219
100003.8102
100003.7978
100003.7909
100003.8174
100003.8761
100003.8224
100003.7933
100003.7949
100003.8185
100003.8857
100003.8735
100003.8709
100003.8398
100003.845
100003.8374
100003.8367
100003.8288
100003.8449
100003.8532
100003.8822
100003.8898
100003.9574
100003.9164
100003.9615
100003.8834
100003.8523
100003.8366
100003.8288
100003.8228
100003.8244
100003.8126
100003.8134
100003.8211
100003.8087
100003.7942
100003.7874
100003.7849
100003.8167
100003.8157
100003.7801
100003.772
100003.8102
100003.8778
100004.2365
100003.8912
100003.8847
100003.8377
100003.8387
100003.8326
100003.8444
100003.826
100003.8336
100003.8566
100003.8485
100003.8638
100003.8958
100003.8867
100003.8522
100003.8956
100003.8746
100003.8683
100003.8666
100003.8675
100003.8582
100003.824
100003.8099
100003.7815
100003.7714
100003.767
100003.7717
100003.7756
100003.8172
100003.7601
100003.7475
100003.7589
100003.801
100003.824
100003.8681
100003.8427
100003.8275
100003.815
100003.8147
100003.8161
100003.8145
100003.7995
100003.8113
100003.8048
100003.8214
100003.8352
100003.8616
100003.873
100003.8884
100003.9752
100003.9169
100003.9104
100003.8986
100003.8784
100003.8578
100003.7981
100003.7906
100003.7835
100003.7766
100003.7685
100003.7711
100003.7768
100003.8274
100003.7381
100003.7362
100003.7516
100003.779
100003.8032
100003.8378
100003.8147
100003.8091
100003.8034
100003.8057
100003.8194
100003.8588
100003.8035
100003.8131
100003.8183
100003.8386
100003.8579
100003.8707
100003.8888
100003.8491
100003.9064
100003.9326
100003.9216
100003.9002
100003.8688
100003.8384
100003.8167
100003.8344
100003.8416
100003.8331
100003.8129
100003.802
100003.7967
100003.8501
100003.7328
100003.7394
100003.757
100003.7767
100003.7924
100003.8071
100003.7976
100003.7951
100003.7921
100003.7865
100003.7946
100003.8574
100003.7925
100003.8177
100003.8001
100003.8116
100003.8104
100003.8019
100003.778
100003.6329
100003.6048
100003.7893
100003.8524
100003.875
100003.8616
100003.8534
100003.8499
100003.8595
100003.8778
100003.8742
100003.8548
100003.8374
100003.8168
100003.8562
100003.7276
100003.7423
100003.7523
100003.7657
100003.7761
100003.7835
100003.7939
100003.7888
100003.7891
100003.7877
100003.7848
100003.7802
100003.7985
100003.7943
100003.8072
100003.7984
100003.8104
100003.8149
100003.8124
100003.7796
100003.8762
100004.0263
100003.8964
100003.8039
100003.8552
100003.8464
100003.8541
100003.8595
100003.8648
100003.851
100003.8485
100003.8448
100003.843
100003.8252
100003.8532
100003.7407
100003.7648
100003.7596
100003.767
100003.7715
100003.7768
100003.7814
100003.7812
100003.7823
100003.7828
100003.7845
100003.7866
100003.8102
100003.7989
100003.8078
100003.8101
100003.8242
100003.845
100003.8019
100003.7621
100004.1422
100004.7719
100004.1678
100003.7871
100003.8527
100003.8735
100003.849
100003.8521
100003.8501
100003.8333
100003.8229
100003.8199
100003.8241
100003.8121
100003.8346
100003.7505
100003.7773
100003.7591
100003.7675
100003.7689
100003.7719
100003.7714
100003.7737
100003.7784
100003.7878
100003.789
100003.7982
100003.8357
100003.8159
100003.841
100003.821
100003.829
100003.8196
100003.8022
100003.8451
100003.8666
100003.9061
100003.9336
100003.8412
100003.8174
100003.7933
100003.772
100003.7759
100003.8116
100003.83
100003.8211
100003.8097
100003.8105
100003.8078
100003.8383
100003.7541
100003.7528
100003.7555
100003.7625
100003.7634
100003.7658
100003.7689
100003.7703
100003.7729
100003.7737
100003.77
100003.7873
100003.8107
100003.8202
100003.8406
100003.8356
100003.8773
100003.8301
100003.9431
100003.8708
100003.817
100003.9052
100003.9878
100003.8982
100003.8703
100003.851
100003.818
100003.7962
100003.7966
100003.8222
100003.8508
100003.856
100003.8546
100003.85
100003.8715
100003.7566
100003.7585
100003.7612
100003.7624
100003.7644
100003.7659
100003.7707
100003.7734
100003.7778
100003.7763
100003.7808
100003.8
100003.8212
100003.8584
100003.8487
100003.8648
100003.8593
100003.8435
100003.8729
100003.8808
100003.9922
100003.9009
100003.9243
100003.9056
100003.8995
100003.8533
100003.9091
100003.8627
100003.8305
100003.8448
100003.8607
100003.8737
100003.8938
100003.9122
100003.7593
100003.7603
100003.7618
100003.7647
100003.7689
100003.7736
100003.7773
100003.7797
100003.7841
100003.7832
100003.7819
100003.7929
100003.9153
100003.9058
100003.8619
100003.8503
100003.8304
100003.8295
100003.8672
100003.9153
100003.9444
100003.9437
100003.947
100003.761
100003.7644
100003.7694
100003.7755
100003.7815
100003.787
100003.7223
100003.7013
100003.6878
100003.6826
100003.6797
100003.6928
100003.7314
100003.773
100003.7644
100003.7165
100003.6887
100003.6797
100003.6765
100003.6769
100003.6811
100003.6891
100003.6916
100003.6843
100003.6737
100003.6665
100003.6649
100003.6684
100003.6738
100003.6775
100003.6779
100003.6759
100003.6733
100003.6709
100003.669
100003.6677
100003.6668
100003.6663
100003.6661
100003.666
100003.656
100003.6404
100003.6238
100003.6091
100003.6009
100003.6029
100003.6246
100003.6463
100003.647
100003.6241
100003.6144
100003.615
100003.613
100003.6106
100003.6123
100003.6179
100003.6209
100003.617
100003.6117
100003.6111
100003.6171
100003.6289
100003.6452
100003.6602
100003.6697
100003.6729
100003.6723
100003.6708
100003.6693
100003.6682
100003.6675
100003.6672
100003.6671
100003.6671
100003.6276
100003.6109
100003.6031
100003.6018
100003.6027
100003.6058
100003.6133
100003.6148
100003.6148
100003.6156
100003.6092
100003.6118
100003.609
100003.606
100003.6066
100003.6073
100003.6042
100003.5962
100003.5921
100003.5935
100003.6002
100003.6105
100003.6244
100003.6423
100003.6584
100003.6679
100003.6711
100003.6711
100003.6703
100003.6697
100003.6694
100003.6693
100003.6694
100003.6696
100003.6014
100003.5918
100003.5994
100003.604
100003.6058
100003.6042
100003.607
100003.5909
100003.5953
100003.6134
100003.6083
100003.6122
100003.6041
100003.599
100003.5987
100003.5973
100003.5935
100003.5861
100003.5826
100003.5831
100003.5862
100003.5937
100003.6062
100003.6234
100003.6429
100003.6581
100003.6667
100003.6702
100003.6712
100003.6717
100003.6721
100003.6727
100003.6732
100003.6738
100003.5944
100003.5965
100003.6088
100003.6132
100003.6134
100003.6087
100003.6137
100003.5918
100003.5955
100003.6199
100003.619
100003.6255
100003.6171
100003.6096
100003.6037
100003.6005
100003.5982
100003.5954
100003.591
100003.5842
100003.5778
100003.5779
100003.5882
100003.6055
100003.6253
100003.6431
100003.6566
100003.6652
100003.6701
100003.6731
100003.6752
100003.677
100003.6782
100003.6796
100003.5989
100003.6061
100003.6168
100003.624
100003.6256
100003.6164
100003.6281
100003.6092
100003.6019
100003.6246
100003.6282
100003.6387
100003.6303
100003.6226
100003.6139
100003.6077
100003.6089
100003.6071
100003.5993
100003.5852
100003.5687
100003.5594
100003.5644
100003.581
100003.6013
100003.6196
100003.6351
100003.6493
100003.6616
100003.6705
100003.6768
100003.6814
100003.6841
100003.6871
100003.6097
100003.6196
100003.6282
100003.6385
100003.6445
100003.6401
100003.6417
100003.6416
100003.6091
100003.6356
100003.6339
100003.6583
100003.6477
100003.6393
100003.6268
100003.6171
100003.6205
100003.618
100003.6063
100003.5864
100003.5694
100003.5531
100003.5457
100003.5542
100003.5718
100003.5874
100003.5987
100003.6107
100003.635
100003.6554
100003.6718
100003.6834
100003.6893
100003.6956
100003.619
100003.6381
100003.6401
100003.6524
100003.6627
100003.6557
100003.6433
100003.638
100003.5967
100003.6071
100003.6035
100003.6634
100003.6576
100003.6524
100003.6358
100003.6255
100003.631
100003.6253
100003.6063
100003.589
100003.5764
100003.5605
100003.5448
100003.5371
100003.5454
100003.5521
100003.5488
100003.5349
100003.5711
100003.6071
100003.6465
100003.676
100003.6906
100003.703
100003.6192
100003.6624
100003.6504
100003.665
100003.678
100003.6731
100003.6544
100003.6416
100003.5866
100003.5728
100003.5497
100003.641
100003.654
100003.6545
100003.6381
100003.6361
100003.6484
100003.6288
100003.5996
100003.5992
100003.5905
100003.5727
100003.5547
100003.5347
100003.5286
100003.5175
100003.4804
100003.3875
100003.4386
100003.4912
100003.5669
100003.6383
100003.6796
100003.7055
100003.6263
100003.6769
100003.6712
100003.6765
100003.6895
100003.6823
100003.6547
100003.6413
100003.5996
100003.5713
100003.4993
100003.5571
100003.6123
100003.6398
100003.6353
100003.6592
100003.65
100003.608
100003.6028
100003.6221
100003.6147
100003.5914
100003.5674
100003.5419
100003.5211
100003.4865
100003.3902
100003.2571
100003.2557
100003.32
100003.4242
100003.5452
100003.6375
100003.6954
100003.6299
100003.6715
100003.6897
100003.6888
100003.6971
100003.6868
100003.6484
100003.653
100003.6274
100003.593
100003.524
100003.4996
100003.5543
100003.6247
100003.6509
100003.6682
100003.6442
100003.616
100003.6224
100003.6564
100003.6482
100003.6217
100003.591
100003.559
100003.5257
100003.4529
100003.304
100003.2673
100003.2113
100003.2238
100003.2746
100003.4
100003.5507
100003.6629
100003.6379
100003.6598
100003.6782
100003.6904
100003.7012
100003.6568
100003.5827
100003.7074
100003.6674
100003.6087
100003.5558
100003.489
100003.4995
100003.6162
100003.6665
100003.67
100003.6637
100003.6505
100003.6508
100003.6792
100003.6804
100003.657
100003.6247
100003.5913
100003.5474
100003.4462
100003.3538
100003.4013
100003.3046
100003.2833
100003.2683
100003.317
100003.4521
100003.6194
100003.6471
100003.65
100003.6498
100003.6555
100003.6752
100003.6747
100003.6538
100003.7212
100003.5889
100003.5694
100003.5171
100003.572
100003.6217
100003.671
100003.663
100003.6749
100003.6857
100003.7021
100003.7057
100003.7277
100003.7164
100003.6923
100003.6586
100003.6277
100003.5503
100003.5197
100003.5006
100003.5886
100003.4774
100003.3922
100003.3439
100003.3364
100003.4069
100003.5896
100003.6593
100003.6497
100003.6416
100003.6308
100003.6316
100003.6311
100003.6271
100003.6928
100003.603
100003.585
100003.6088
100003.6455
100003.6539
100003.6681
100003.6559
100003.6989
100003.7028
100003.7336
100003.7308
100003.7385
100003.732
100003.7153
100003.6802
100003.6552
100003.5817
100003.5749
100003.4724
100003.6599
100003.5705
100003.4612
100003.4093
100003.4114
100003.4971
100003.629
100003.6712
100003.6613
100003.6577
100003.6338
100003.6062
100003.6112
100003.6045
100003.6524
100003.6095
100003.6664
100003.6665
100003.6751
100003.6653
100003.6746
100003.6883
100003.7426
100003.7292
100003.8124
100003.7791
100003.7858
100003.7618
100003.7315
100003.6942
100003.6643
100003.6441
100003.653
100003.6248
100003.6104
100003.4802
100003.3719
100003.3656
100003.452
100003.5537
100003.6388
100003.6771
100003.6694
100003.685
100003.6594
100003.6
100003.6191
100003.6125
100003.6338
100003.6593
100003.6891
100003.6799
100003.6861
100003.6766
100003.7007
100003.7132
100003.7983
100003.7618
100003.949
100003.8336
100003.8246
100003.7754
100003.7323
100003.6929
100003.6553
100003.6457
100003.5717
100003.6226
100003.6005
100003.6468
100003.5068
100003.4055
100003.3333
100003.4585
100003.6291
100003.6821
100003.6721
100003.7271
100003.6628
100003.5987
100003.6001
100003.6134
100003.6661
100003.6689
100003.6804
100003.6828
100003.6879
100003.6872
100003.7299
100003.7387
100003.8547
100003.8032
100004.0589
100003.8819
100003.848
100003.773
100003.7165
100003.6715
100003.6367
100003.617
100003.5665
100003.5148
100003.4898
100003.5268
100003.4554
100003.4563
100003.526
100003.5813
100003.6393
100003.6876
100003.6951
100003.7255
100003.6173
100003.5607
100003.6048
100003.6472
100003.6844
100003.6768
100003.6886
100003.6862
100003.693
100003.6959
100003.7549
100003.7422
100003.9246
100003.8115
100004.5153
100003.9531
100003.89
100003.7629
100003.6964
100003.6538
100003.6263
100003.6098
100003.6097
100003.5155
100003.4581
100003.4401
100003.4288
100003.5085
100003.5575
100003.6086
100003.6545
100003.6462
100003.6189
100003.5704
100003.5738
100003.5793
100003.6765
100003.6767
100003.7034
100003.6848
100003.6938
100003.6891
100003.694
100003.695
100003.7304
100003.7236
100003.7831
100003.769
100003.9911
100003.8144
100003.8157
100003.7297
100003.6833
100003.6492
100003.6298
100003.6187
100003.6116
100003.6026
100003.4939
100003.5503
100003.5715
100003.5963
100003.6113
100003.62
100003.6515
100003.6165
100003.604
100003.594
100003.5991
100003.6113
100003.6944
100003.684
100003.6888
100003.6809
100003.6833
100003.6788
100003.677
100003.6751
100003.6914
100003.6812
100003.7195
100003.7048
100003.8155
100003.7352
100003.7363
100003.6761
100003.642
100003.6347
100003.6389
100003.6406
100003.6484
100003.6401
100003.5989
100003.5755
100003.5655
100003.5727
100003.591
100003.5986
100003.6331
100003.5897
100003.5991
100003.5927
100003.6564
100003.6549
100003.904
100003.6596
100003.739
100003.6869
100003.6956
100003.6795
100003.6806
100003.6704
100003.6815
100003.682
100003.6758
100003.6826
100003.7231
100003.7029
100003.6724
100003.6403
100003.6423
100003.6551
100003.6681
100003.6763
100003.6757
100003.637
100003.5935
100003.5876
100003.5806
100003.5785
100003.5872
100003.5811
100003.6128
100003.586
100003.5978
100003.6004
100003.6707
100003.6252
100003.5988
100003.6527
100003.6608
100003.6613
100003.6555
100003.6581
100003.6389
100003.6422
100003.6484
100003.6396
100003.6484
100003.6448
100003.6705
100003.6505
100003.6194
100003.5918
100003.6314
100003.6519
100003.684
100003.6763
100003.652
100003.6164
100003.6098
100003.6031
100003.5964
100003.5896
100003.598
100003.584
100003.6092
100003.585
100003.5902
100003.5818
100003.6102
100003.6362
100003.6891
100003.6524
100003.6635
100003.654
100003.6487
100003.6572
100003.6562
100003.6475
100003.6409
100003.6461
100003.6681
100003.6804
100003.6809
100003.6471
100003.6219
100003.3996
100003.5746
100003.6031
100003.6442
100003.636
100003.6276
100003.6214
100003.6222
100003.6216
100003.6169
100003.6098
100003.6174
100003.6016
100003.6254
100003.5904
100003.5775
100003.5903
100003.6281
100003.6546
100003.6631
100003.6524
100003.6474
100003.64
100003.6238
100003.6289
100003.6238
100003.6252
100003.6317
100003.6314
100003.6425
100003.6023
100003.5857
100003.4636
100003.332
100003.0644
100003.1625
100003.3218
100003.495
100003.5595
100003.6043
100003.6174
100003.6326
100003.6401
100003.641
100003.6359
100003.6377
100003.6224
100003.6433
100003.5865
100003.5801
100003.5895
100003.6209
100003.6398
100003.6548
100003.661
100003.6557
100003.6496
100003.6404
100003.625
100003.6208
100003.6002
100003.6323
100003.6259
100003.6283
100003.6335
100003.6107
100003.6044
100003.4545
100003.3792
100003.3218
100003.1822
100003.2319
100003.4539
100003.5248
100003.5758
100003.6298
100003.6116
100003.6186
100003.625
100003.6274
100003.6369
100003.6289
100003.646
100003.5924
100003.6119
100003.6172
100003.6334
100003.637
100003.6483
100003.6467
100003.6534
100003.6511
100003.6513
100003.6459
100003.6377
100003.6327
100003.6384
100003.6252
100003.6298
100003.6231
100003.6065
100003.473
100003.4846
100003.4118
100003.5015
100003.2708
100003.137
100003.2803
100003.4335
100003.5342
100003.5675
100003.6105
100003.6051
100003.6135
100003.6178
100003.6345
100003.6225
100003.6445
100003.6063
100003.6222
100003.6245
100003.6425
100003.6352
100003.6392
100003.6328
100003.6352
100003.6319
100003.6368
100003.6303
100003.6361
100003.6105
100003.6429
100003.5948
100003.6451
100003.6524
100003.65
100003.6591
100003.6958
100003.7034
100003.4778
100003.5467
100003.5139
100003.5494
100003.5353
100003.5372
100003.5346
100003.5543
100003.5859
100003.6102
100003.6196
100003.6294
100003.6257
100003.6533
100003.6197
100003.6194
100003.626
100003.6321
100003.6325
100003.634
100003.6343
100003.6373
100003.6359
100003.6371
100003.6301
100003.6302
100003.6419
100003.6519
100003.6638
100003.678
100003.6638
100003.6343
100003.5022
100003.5918
100003.4805
100003.3015
100003.4946
100003.4431
100003.53
100003.5316
100003.5389
100003.5096
100003.5157
100003.5303
100003.6069
100003.6391
100003.662
100003.6629
100003.6941
100003.6251
100003.6308
100003.634
100003.6346
100003.6345
100003.6344
100003.6385
100003.6361
100003.639
100003.6321
100003.6284
100003.6339
100003.6552
100003.6713
100003.6842
100003.6888
100003.674
100003.6344
100003.6416
100003.6465
100003.622
100003.6214
100003.6102
100003.6231
100003.603
100003.5777
100003.5253
100003.5064
100003.5032
100003.5711
100003.6318
100003.6737
100003.7084
100003.7432
100003.6304
100003.6326
100003.635
100003.6372
100003.6392
100003.6412
100003.6468
100003.6473
100003.6499
100003.6442
100003.6331
100003.6365
100003.5914
100003.5461
100003.5208
100003.3187
100003.3
100003.3612
100003.5322
100003.656
100003.7402
100003.7591
100003.7708
100003.6339
100003.6365
100003.6407
100003.6449
100003.6507
100003.655
100003.5527
100003.5383
100003.5306
100003.5267
100003.5278
100003.5329
100003.5516
100003.5702
100003.5466
100003.5182
100003.5077
100003.5051
100003.5049
100003.5068
100003.5108
100003.5167
100003.5169
100003.5139
100003.5138
100003.5158
100003.5189
100003.5227
100003.527
100003.5308
100003.5335
100003.535
100003.5358
100003.5361
100003.5362
100003.5363
100003.5364
100003.5366
100003.5368
100003.5368
100003.5158
100003.5087
100003.5037
100003.4963
100003.4954
100003.4964
100003.5068
100003.5078
100003.4863
100003.465
100003.4631
100003.4696
100003.4747
100003.4786
100003.4834
100003.4899
100003.487
100003.4835
100003.485
100003.492
100003.4999
100003.5071
100003.5143
100003.5215
100003.5276
100003.5316
100003.5338
100003.535
100003.5356
100003.5361
100003.5365
100003.5369
100003.5372
100003.5374
100003.5057
100003.5026
100003.5032
100003.4983
100003.4978
100003.4982
100003.5038
100003.4982
100003.4753
100003.4647
100003.4681
100003.4718
100003.4741
100003.4759
100003.4815
100003.4878
100003.4816
100003.4754
100003.4765
100003.4846
100003.4934
100003.5005
100003.5065
100003.5131
100003.5203
100003.5264
100003.5306
100003.533
100003.5346
100003.5357
100003.5367
100003.5376
100003.5383
100003.5387
100003.4918
100003.4924
100003.4946
100003.4928
100003.4917
100003.4917
100003.4952
100003.488
100003.4732
100003.4746
100003.4771
100003.4795
100003.4773
100003.4751
100003.4744
100003.4784
100003.4723
100003.4688
100003.4694
100003.4738
100003.4816
100003.4888
100003.4952
100003.5022
100003.5101
100003.5181
100003.5245
100003.5292
100003.5324
100003.5349
100003.5368
100003.5386
100003.5398
100003.5407
100003.4841
100003.4905
100003.4974
100003.5
100003.4993
100003.4988
100003.5001
100003.4915
100003.4875
100003.4916
100003.4916
100003.49
100003.4862
100003.4833
100003.4805
100003.4792
100003.4755
100003.4726
100003.4726
100003.4742
100003.4755
100003.4795
100003.4847
100003.4908
100003.4983
100003.507
100003.5149
100003.5221
100003.5279
100003.5326
100003.5363
100003.5395
100003.5416
100003.5433
100003.4806
100003.4931
100003.5009
100003.5068
100003.5074
100003.5081
100003.5087
100003.5037
100003.5072
100003.5089
100003.5095
100003.5017
100003.4974
100003.4924
100003.4877
100003.4864
100003.4853
100003.4823
100003.4779
100003.4738
100003.4719
100003.4714
100003.4746
100003.4789
100003.485
100003.4924
100003.5003
100003.5094
100003.5185
100003.5267
100003.5335
100003.5392
100003.5428
100003.546
100003.4835
100003.5015
100003.5079
100003.5161
100003.52
100003.521
100003.5229
100003.5198
100003.5329
100003.5265
100003.5324
100003.5245
100003.5177
100003.5099
100003.5018
100003.4998
100003.499
100003.4949
100003.4865
100003.4764
100003.4689
100003.4663
100003.4675
100003.4691
100003.4721
100003.4771
100003.4817
100003.4914
100003.5021
100003.5143
100003.5257
100003.536
100003.5422
100003.548
100003.4873
100003.5102
100003.5178
100003.5273
100003.5347
100003.5382
100003.5411
100003.5503
100003.554
100003.5422
100003.549
100003.5448
100003.5346
100003.5253
100003.5158
100003.516
100003.5163
100003.5096
100003.4967
100003.4832
100003.4698
100003.4637
100003.4637
100003.4629
100003.4622
100003.4645
100003.4602
100003.4711
100003.4799
100003.4957
100003.5107
100003.5271
100003.5374
100003.5473
100003.4825
100003.5157
100003.5302
100003.5403
100003.549
100003.5534
100003.5576
100003.5577
100003.5634
100003.5491
100003.5547
100003.553
100003.5419
100003.5316
100003.5217
100003.527
100003.531
100003.5242
100003.5052
100003.4922
100003.4772
100003.4663
100003.4632
100003.4615
100003.4557
100003.4564
100003.4361
100003.446
100003.4512
100003.4713
100003.4884
100003.5118
100003.5258
100003.542
100003.4837
100003.5245
100003.5419
100003.5576
100003.563
100003.5694
100003.572
100003.5778
100003.5688
100003.5502
100003.5501
100003.5416
100003.531
100003.5229
100003.5188
100003.5318
100003.5327
100003.5244
100003.5046
100003.5061
100003.4944
100003.4784
100003.471
100003.4679
100003.4544
100003.4569
100003.3997
100003.4201
100003.4178
100003.4479
100003.4622
100003.4935
100003.5094
100003.5317
100003.4783
100003.517
100003.5503
100003.5798
100003.5754
100003.5837
100003.5896
100003.5956
100003.5802
100003.5201
100003.5216
100003.5306
100003.5312
100003.5287
100003.5272
100003.5398
100003.5268
100003.531
100003.513
100003.5282
100003.5197
100003.5006
100003.4846
100003.4832
100003.4623
100003.4719
100003.3871
100003.3866
100003.3862
100003.4281
100003.4385
100003.4758
100003.4906
100003.5197
100003.4876
100003.508
100003.5466
100003.5868
100003.5828
100003.585
100003.5962
100003.6041
100003.5971
100003.523
100003.5076
100003.5264
100003.5236
100003.5313
100003.5402
100003.5531
100003.5374
100003.5524
100003.5372
100003.5518
100003.5448
100003.5268
100003.506
100003.5024
100003.4729
100003.479
100003.3755
100003.4074
100003.3621
100003.3818
100003.4008
100003.4602
100003.4739
100003.51
100003.498
100003.5043
100003.5336
100003.5671
100003.5765
100003.5729
100003.6026
100003.5623
100003.5245
100003.4722
100003.5166
100003.5151
100003.5295
100003.5441
100003.5472
100003.5697
100003.5481
100003.5811
100003.5627