/*--------------------------------*- C++ -*----------------------------------*\
  =========                 |
  \\      /  F ield         | OpenFOAM: The Open Source CFD Toolbox
   \\    /   O peration     | Website:  https://openfoam.org
    \\  /    A nd           | Version:  8
     \\/     M anipulation  |
\*---------------------------------------------------------------------------*/
FoamFile
{
    version     2.0;
    format      ascii;
    class       volScalarField;
    location    "0.5";
    object      p_rgh;
}
// * * * * * * * * * * * * * * * * * * * * * * * * * * * * * * * * * * * * * //

dimensions      [1 -1 -2 0 0 0 0];

internalField   nonuniform List<scalar> 
67193
(
100003.9323
100003.908
100003.9065
100003.9163
100003.9347
100003.9737
100004.0126
100004.0369
100004.0194
100003.9746
100003.944
100003.9338
100003.9325
100003.9357
100003.9404
100003.944
100003.9392
100003.9234
100003.9036
100003.8899
100003.883
100003.8803
100003.8783
100003.8757
100003.872
100003.8671
100003.8624
100003.8586
100003.8557
100003.8537
100003.8523
100003.8515
100003.851
100003.8508
100003.8558
100003.8466
100003.8436
100003.8434
100003.8463
100003.861
100003.8802
100003.8974
100003.8861
100003.8679
100003.8516
100003.8488
100003.847
100003.847
100003.8494
100003.8528
100003.8512
100003.8439
100003.8368
100003.8351
100003.8382
100003.8437
100003.8504
100003.8564
100003.8614
100003.8634
100003.8616
100003.8589
100003.8565
100003.8547
100003.8534
100003.8527
100003.8523
100003.8522
100003.8317
100003.8221
100003.8189
100003.8191
100003.8201
100003.8304
100003.8424
100003.858
100003.8478
100003.8481
100003.8313
100003.8281
100003.8243
100003.8216
100003.8223
100003.825
100003.8226
100003.814
100003.8069
100003.8076
100003.8147
100003.8245
100003.8349
100003.8448
100003.8523
100003.8582
100003.8611
100003.8606
100003.8589
100003.8575
100003.8564
100003.8558
100003.8554
100003.8555
100003.8119
100003.8029
100003.8081
100003.8142
100003.8149
100003.8224
100003.8204
100003.8344
100003.8259
100003.8449
100003.8214
100003.8182
100003.8133
100003.8077
100003.8046
100003.8051
100003.8048
100003.7981
100003.789
100003.7866
100003.7928
100003.8041
100003.8166
100003.8298
100003.8415
100003.8501
100003.8569
100003.8615
100003.8623
100003.862
100003.8613
100003.8609
100003.8606
100003.8609
100003.8061
100003.8032
100003.8186
100003.8338
100003.8347
100003.8446
100003.8267
100003.8398
100003.8193
100003.8588
100003.8267
100003.8247
100003.8232
100003.8174
100003.8086
100003.8043
100003.808
100003.8036
100003.7915
100003.7823
100003.7809
100003.7893
100003.801
100003.814
100003.828
100003.8402
100003.8494
100003.8595
100003.8651
100003.868
100003.8685
100003.8685
100003.8683
100003.8691
100003.8107
100003.8139
100003.8332
100003.8577
100003.8659
100003.8764
100003.8524
100003.8742
100003.8198
100003.8718
100003.8392
100003.8405
100003.8442
100003.8379
100003.8231
100003.8133
100003.8203
100003.8171
100003.804
100003.7901
100003.7776
100003.778
100003.7866
100003.7978
100003.8107
100003.8253
100003.8376
100003.855
100003.8654
100003.8737
100003.878
100003.8792
100003.8788
100003.8805
100003.8235
100003.8306
100003.8493
100003.8824
100003.9032
100003.9102
100003.8821
100003.8994
100003.837
100003.882
100003.8574
100003.8657
100003.8744
100003.8653
100003.8427
100003.8267
100003.8329
100003.8307
100003.82
100003.8024
100003.7821
100003.7701
100003.7742
100003.7831
100003.7933
100003.8068
100003.8181
100003.8479
100003.8629
100003.8772
100003.8869
100003.8921
100003.8919
100003.8953
100003.8388
100003.8536
100003.8641
100003.8995
100003.9337
100003.9409
100003.9044
100003.8901
100003.8655
100003.8865
100003.8722
100003.8951
100003.9058
100003.8912
100003.8608
100003.8433
100003.8472
100003.8436
100003.8342
100003.8155
100003.7963
100003.7718
100003.7662
100003.7732
100003.7796
100003.7905
100003.7915
100003.8301
100003.8515
100003.8738
100003.8915
100003.9034
100003.9062
100003.9139
100003.8497
100003.8911
100003.8788
100003.9068
100003.9515
100003.968
100003.9358
100003.9074
100003.8742
100003.876
100003.8634
100003.915
100003.9247
100003.898
100003.8679
100003.8651
100003.8725
100003.8487
100003.8358
100003.8417
100003.8325
100003.7951
100003.7731
100003.7736
100003.7739
100003.7792
100003.7562
100003.7754
100003.8127
100003.8487
100003.8843
100003.9102
100003.9204
100003.9376
100003.857
100003.898
100003.8945
100003.9137
100003.9565
100003.9899
100003.9759
100003.9325
100003.9358
100003.8826
100003.8233
100003.8875
100003.913
100003.8986
100003.8825
100003.8957
100003.8882
100003.8506
100003.8567
100003.9056
100003.8919
100003.8404
100003.8005
100003.7914
100003.7844
100003.7795
100003.7119
100003.6602
100003.7268
100003.7827
100003.8508
100003.9067
100003.9375
100003.9708
100003.8625
100003.8955
100003.9097
100003.9187
100003.9421
100003.9968
100004.003
100003.9872
100004.1686
100004.0546
100003.829
100003.8597
100003.8879
100003.8969
100003.903
100003.9111
100003.8954
100003.8622
100003.9168
100003.9786
100003.9445
100003.8938
100003.8445
100003.8307
100003.8275
100003.7984
100003.7156
100003.6572
100003.6817
100003.6783
100003.774
100003.8804
100003.9517
100004.0206
100003.8733
100003.8871
100003.9101
100003.9397
100003.963
100003.9742
100003.9182
100003.9944
100004.3152
100004.1433
100003.8073
100003.7788
100003.8461
100003.9053
100003.9343
100003.9299
100003.9113
100003.8857
100003.9325
100003.9698
100003.9611
100003.929
100003.89
100003.8847
100003.9041
100003.8259
100003.9309
100004.268
100004.0511
100003.7393
100003.6897
100003.824
100003.9512
100004.0771
100003.8871
100003.8842
100003.8912
100003.9042
100003.938
100003.9376
100003.8972
100003.9831
100004.0592
100003.9321
100003.8009
100003.827
100003.8503
100003.8895
100003.9151
100003.919
100003.9233
100003.9218
100003.9481
100003.9607
100003.9565
100003.9444
100003.9214
100003.9431
100003.925
100003.8666
100004.3026
100004.5749
100004.357
100003.9427
100003.7093
100003.7561
100003.9163
100004.0949
100003.9057
100003.8927
100003.8852
100003.8816
100003.8918
100003.9004
100003.8926
100003.8841
100003.8656
100003.864
100003.8799
100003.8905
100003.8873
100003.9066
100003.9034
100003.9252
100003.9443
100003.9668
100003.9705
100003.9872
100003.9876
100003.9763
100003.9476
100003.9482
100003.9245
100003.9266
100004.2161
100004.411
100004.3004
100004.069
100003.8503
100003.8023
100003.9049
100004.0489
100003.9255
100003.9091
100003.8985
100003.9091
100003.8783
100003.8626
100003.8715
100003.8907
100003.8922
100003.9098
100003.9014
100003.8942
100003.8915
100003.902
100003.9115
100003.9614
100003.974
100004.037
100004.0279
100004.0376
100004.0266
100003.9982
100003.9597
100003.9342
100003.9168
100003.9112
100003.8886
100004.0052
100004.0335
100003.9538
100003.8768
100003.8921
100003.932
100003.9902
100003.9451
100003.9298
100003.9283
100003.9625
100003.8865
100003.8499
100003.8499
100003.8773
100003.899
100003.9155
100003.905
100003.9031
100003.9032
100003.9194
100003.9574
100004.0347
100004.0207
100004.124
100004.0837
100004.0726
100004.0428
100004.0015
100003.9608
100003.9271
100003.9569
100003.9219
100003.915
100004.2519
100004.2856
100003.9375
100003.7213
100003.814
100003.9445
100004.0641
100003.9645
100003.938
100003.951
100003.9636
100003.8611
100003.8305
100003.8755
100003.8865
100003.8905
100003.9069
100003.8959
100003.904
100003.9039
100003.9418
100004.0032
100004.0996
100004.0794
100004.1935
100004.1196
100004.0775
100004.0223
100003.9687
100003.9237
100003.8959
100003.9055
100003.8714
100003.8658
100004.1113
100004.1473
100003.8477
100003.7929
100003.8298
100003.855
100003.8906
100003.9925
100003.98
100004.1121
100003.9608
100003.8567
100003.8623
100003.8988
100003.9127
100003.9001
100003.9049
100003.9003
100003.9036
100003.911
100003.9583
100004.0073
100004.1325
100004.0828
100004.3665
100004.1279
100004.0684
100003.9921
100003.9356
100003.8958
100003.8719
100003.8582
100003.8394
100003.7192
100003.6984
100003.7328
100003.7859
100003.8482
100003.8673
100003.8777
100003.9031
100003.971
100003.9137
100003.8873
100003.8673
100003.8555
100003.9003
100003.9201
100003.9275
100003.9014
100003.9092
100003.9043
100003.906
100003.9085
100003.9422
100003.9716
100004.0115
100004.0127
100004.1646
100004.0371
100004.0329
100003.9692
100003.9254
100003.8925
100003.8723
100003.8596
100003.8555
100003.8284
100003.8312
100003.8938
100003.8822
100003.8706
100003.8582
100003.8512
100003.8777
100003.9364
100003.8827
100003.8537
100003.8553
100003.8788
100003.946
100003.9339
100003.9313
100003.9002
100003.9053
100003.8977
100003.8971
100003.8891
100003.9052
100003.9136
100003.9425
100003.9501
100004.0178
100003.9767
100004.0218
100003.9437
100003.9126
100003.8969
100003.8891
100003.8831
100003.8847
100003.8729
100003.8737
100003.8815
100003.869
100003.8545
100003.8478
100003.8452
100003.877
100003.876
100003.8404
100003.8323
100003.8705
100003.9382
100004.2968
100003.9516
100003.945
100003.8981
100003.8991
100003.893
100003.9048
100003.8864
100003.8939
100003.917
100003.9089
100003.9241
100003.9561
100003.9471
100003.9125
100003.9559
100003.935
100003.9287
100003.9269
100003.9279
100003.9185
100003.8843
100003.8702
100003.8418
100003.8318
100003.8273
100003.8321
100003.8359
100003.8775
100003.8205
100003.8078
100003.8193
100003.8614
100003.8844
100003.9285
100003.9031
100003.8878
100003.8753
100003.875
100003.8764
100003.8749
100003.8599
100003.8716
100003.8651
100003.8817
100003.8955
100003.9219
100003.9333
100003.9488
100004.0356
100003.9772
100003.9707
100003.959
100003.9387
100003.9182
100003.8584
100003.8509
100003.8438
100003.837
100003.8288
100003.8315
100003.8371
100003.8877
100003.7984
100003.7965
100003.8119
100003.8394
100003.8635
100003.8982
100003.8751
100003.8694
100003.8638
100003.866
100003.8797
100003.9191
100003.8638
100003.8734
100003.8786
100003.8989
100003.9183
100003.9311
100003.9491
100003.9094
100003.9668
100003.993
100003.9819
100003.9606
100003.9291
100003.8987
100003.8771
100003.8947
100003.9019
100003.8934
100003.8733
100003.8624
100003.857
100003.9104
100003.7931
100003.7998
100003.8173
100003.837
100003.8527
100003.8674
100003.8579
100003.8555
100003.8524
100003.8468
100003.8549
100003.9178
100003.8528
100003.878
100003.8604
100003.8719
100003.8707
100003.8623
100003.8383
100003.6932
100003.6651
100003.8497
100003.9127
100003.9353
100003.9219
100003.9137
100003.9102
100003.9198
100003.9381
100003.9345
100003.9151
100003.8978
100003.8771
100003.9166
100003.7879
100003.8026
100003.8126
100003.8261
100003.8365
100003.8438
100003.8542
100003.8492
100003.8494
100003.848
100003.8452
100003.8405
100003.8588
100003.8547
100003.8676
100003.8588
100003.8708
100003.8753
100003.8728
100003.84
100003.9366
100004.0866
100003.9567
100003.8643
100003.9155
100003.9067
100003.9144
100003.9198
100003.9252
100003.9113
100003.9088
100003.9051
100003.9033
100003.8856
100003.9135
100003.801
100003.8252
100003.82
100003.8273
100003.8319
100003.8371
100003.8417
100003.8415
100003.8426
100003.8431
100003.8448
100003.8469
100003.8705
100003.8593
100003.8682
100003.8704
100003.8845
100003.9054
100003.8622
100003.8224
100004.2025
100004.8323
100004.2281
100003.8474
100003.913
100003.9338
100003.9093
100003.9124
100003.9105
100003.8937
100003.8832
100003.8802
100003.8845
100003.8725
100003.8949
100003.8108
100003.8377
100003.8194
100003.8278
100003.8292
100003.8322
100003.8317
100003.8341
100003.8387
100003.8481
100003.8494
100003.8585
100003.8961
100003.8762
100003.9013
100003.8813
100003.8894
100003.8799
100003.8626
100003.9054
100003.9269
100003.9665
100003.9939
100003.9015
100003.8777
100003.8537
100003.8324
100003.8362
100003.872
100003.8904
100003.8815
100003.87
100003.8708
100003.8681
100003.8986
100003.8145
100003.8131
100003.8158
100003.8228
100003.8237
100003.8261
100003.8292
100003.8307
100003.8333
100003.8341
100003.8303
100003.8477
100003.8711
100003.8805
100003.901
100003.8959
100003.9376
100003.8904
100004.0034
100003.9311
100003.8774
100003.9655
100004.0482
100003.9586
100003.9306
100003.9114
100003.8783
100003.8565
100003.8569
100003.8825
100003.9111
100003.9163
100003.915
100003.9104
100003.9318
100003.8169
100003.8188
100003.8215
100003.8228
100003.8248
100003.8263
100003.8311
100003.8338
100003.8382
100003.8367
100003.8412
100003.8603
100003.8816
100003.9187
100003.9091
100003.9251
100003.9196
100003.9038
100003.9332
100003.9411
100004.0525
100003.9613
100003.9846
100003.9659
100003.9598
100003.9136
100003.9694
100003.9231
100003.8909
100003.9052
100003.9211
100003.9341
100003.9541
100003.9725
100003.8197
100003.8206
100003.8221
100003.8251
100003.8292
100003.8339
100003.8376
100003.84
100003.8444
100003.8435
100003.8423
100003.8532
100003.9757
100003.9662
100003.9222
100003.9106
100003.8908
100003.8898
100003.9275
100003.9756
100004.0048
100004.0041
100004.0073
100003.8214
100003.8248
100003.8298
100003.8358
100003.8419
100003.8473
100003.9034
100003.8823
100003.8688
100003.8637
100003.8608
100003.8738
100003.9124
100003.954
100003.9454
100003.8975
100003.8697
100003.8608
100003.8575
100003.8579
100003.8621
100003.8701
100003.8726
100003.8653
100003.8547
100003.8475
100003.846
100003.8494
100003.8548
100003.8585
100003.8589
100003.8569
100003.8543
100003.8519
100003.85
100003.8487
100003.8478
100003.8473
100003.8471
100003.847
100003.837
100003.8214
100003.8049
100003.7901
100003.7819
100003.7839
100003.8057
100003.8273
100003.828
100003.8051
100003.7954
100003.796
100003.794
100003.7917
100003.7933
100003.799
100003.8019
100003.7981
100003.7927
100003.7921
100003.7981
100003.8099
100003.8262
100003.8412
100003.8508
100003.8539
100003.8533
100003.8518
100003.8503
100003.8493
100003.8486
100003.8482
100003.8481
100003.8481
100003.8086
100003.7919
100003.7841
100003.7829
100003.7837
100003.7868
100003.7943
100003.7958
100003.7958
100003.7966
100003.7902
100003.7929
100003.79
100003.7871
100003.7876
100003.7883
100003.7852
100003.7772
100003.7731
100003.7745
100003.7812
100003.7915
100003.8054
100003.8233
100003.8394
100003.8489
100003.8521
100003.8521
100003.8514
100003.8507
100003.8504
100003.8504
100003.8505
100003.8506
100003.7824
100003.7728
100003.7804
100003.785
100003.7868
100003.7852
100003.788
100003.7719
100003.7763
100003.7944
100003.7894
100003.7932
100003.7851
100003.7801
100003.7797
100003.7783
100003.7745
100003.7671
100003.7636
100003.7642
100003.7672
100003.7748
100003.7872
100003.8044
100003.8239
100003.8392
100003.8477
100003.8512
100003.8523
100003.8527
100003.8531
100003.8537
100003.8542
100003.8548
100003.7754
100003.7775
100003.7898
100003.7942
100003.7944
100003.7897
100003.7947
100003.7728
100003.7765
100003.8009
100003.8
100003.8066
100003.7981
100003.7907
100003.7847
100003.7815
100003.7792
100003.7764
100003.772
100003.7653
100003.7588
100003.7589
100003.7692
100003.7866
100003.8063
100003.8241
100003.8376
100003.8462
100003.8511
100003.8541
100003.8562
100003.8581
100003.8593
100003.8607
100003.7799
100003.7871
100003.7978
100003.805
100003.8066
100003.7974
100003.8091
100003.7902
100003.7829
100003.8056
100003.8093
100003.8198
100003.8113
100003.8036
100003.795
100003.7887
100003.7899
100003.7881
100003.7803
100003.7662
100003.7497
100003.7404
100003.7455
100003.762
100003.7823
100003.8006
100003.8162
100003.8303
100003.8426
100003.8515
100003.8578
100003.8624
100003.8651
100003.8682
100003.7907
100003.8006
100003.8092
100003.8195
100003.8255
100003.8212
100003.8227
100003.8226
100003.7902
100003.8166
100003.815
100003.8393
100003.8287
100003.8203
100003.8078
100003.7982
100003.8015
100003.799
100003.7873
100003.7675
100003.7505
100003.7341
100003.7267
100003.7352
100003.7528
100003.7684
100003.7797
100003.7917
100003.816
100003.8364
100003.8528
100003.8644
100003.8704
100003.8766
100003.8
100003.8191
100003.8211
100003.8334
100003.8437
100003.8367
100003.8244
100003.819
100003.7777
100003.7881
100003.7845
100003.8444
100003.8386
100003.8334
100003.8169
100003.8065
100003.812
100003.8063
100003.7873
100003.77
100003.7574
100003.7415
100003.7258
100003.7181
100003.7264
100003.7331
100003.7299
100003.7159
100003.7521
100003.7881
100003.8275
100003.857
100003.8716
100003.8841
100003.8002
100003.8435
100003.8314
100003.846
100003.8591
100003.8541
100003.8354
100003.8227
100003.7676
100003.7538
100003.7307
100003.822
100003.8351
100003.8355
100003.8191
100003.8171
100003.8294
100003.8098
100003.7806
100003.7802
100003.7715
100003.7538
100003.7357
100003.7157
100003.7097
100003.6985
100003.6614
100003.5685
100003.6196
100003.6723
100003.7479
100003.8193
100003.8606
100003.8865
100003.8073
100003.8579
100003.8522
100003.8575
100003.8705
100003.8633
100003.8357
100003.8223
100003.7806
100003.7524
100003.6803
100003.7381
100003.7933
100003.8209
100003.8163
100003.8402
100003.831
100003.7891
100003.7838
100003.8032
100003.7957
100003.7724
100003.7484
100003.7229
100003.7022
100003.6675
100003.5712
100003.4381
100003.4367
100003.501
100003.6052
100003.7262
100003.8186
100003.8764
100003.8109
100003.8525
100003.8707
100003.8698
100003.8781
100003.8678
100003.8294
100003.834
100003.8084
100003.774
100003.705
100003.6806
100003.7353
100003.8057
100003.8319
100003.8492
100003.8252
100003.797
100003.8034
100003.8374
100003.8292
100003.8027
100003.772
100003.74
100003.7067
100003.6339
100003.485
100003.4483
100003.3923
100003.4048
100003.4556
100003.581
100003.7317
100003.8439
100003.8189
100003.8408
100003.8592
100003.8714
100003.8822
100003.8378
100003.7637
100003.8884
100003.8484
100003.7897
100003.7368
100003.67
100003.6805
100003.7972
100003.8475
100003.851
100003.8447
100003.8315
100003.8318
100003.8602
100003.8615
100003.838
100003.8058
100003.7724
100003.7284
100003.6272
100003.5348
100003.5823
100003.4856
100003.4643
100003.4493
100003.498
100003.6331
100003.8004
100003.8281
100003.831
100003.8309
100003.8365
100003.8562
100003.8557
100003.8349
100003.9022
100003.7699
100003.7504
100003.6981
100003.753
100003.8027
100003.852
100003.844
100003.8559
100003.8667
100003.8831
100003.8867
100003.9087
100003.8974
100003.8733
100003.8396
100003.8087
100003.7313
100003.7007
100003.6816
100003.7696
100003.6584
100003.5733
100003.5249
100003.5174
100003.5879
100003.7706
100003.8403
100003.8308
100003.8226
100003.8118
100003.8126
100003.8121
100003.8081
100003.8738
100003.784
100003.7661
100003.7898
100003.8265
100003.8349
100003.8491
100003.8369
100003.8799
100003.8838
100003.9146
100003.9119
100003.9195
100003.913
100003.8963
100003.8613
100003.8362
100003.7627
100003.7559
100003.6535
100003.841
100003.7516
100003.6422
100003.5903
100003.5924
100003.6782
100003.81
100003.8522
100003.8424
100003.8387
100003.8148
100003.7872
100003.7922
100003.7856
100003.8335
100003.7905
100003.8474
100003.8475
100003.8561
100003.8463
100003.8556
100003.8693
100003.9236
100003.9102
100003.9934
100003.9602
100003.9668
100003.9428
100003.9126
100003.8753
100003.8454
100003.8251
100003.834
100003.8058
100003.7914
100003.6612
100003.5529
100003.5467
100003.6331
100003.7347
100003.8198
100003.8581
100003.8505
100003.866
100003.8404
100003.781
100003.8001
100003.7935
100003.8149
100003.8403
100003.8701
100003.8609
100003.8671
100003.8577
100003.8817
100003.8942
100003.9794
100003.9428
100004.13
100004.0147
100004.0056
100003.9564
100003.9134
100003.8739
100003.8364
100003.8267
100003.7527
100003.8036
100003.7815
100003.8278
100003.6878
100003.5866
100003.5143
100003.6396
100003.8102
100003.8632
100003.8531
100003.9082
100003.8438
100003.7798
100003.7811
100003.7944
100003.8471
100003.85
100003.8614
100003.8638
100003.8689
100003.8682
100003.911
100003.9197
100004.0357
100003.9842
100004.2399
100004.0629
100004.029
100003.954
100003.8975
100003.8525
100003.8177
100003.7981
100003.7475
100003.6958
100003.6708
100003.7079
100003.6365
100003.6374
100003.707
100003.7623
100003.8203
100003.8687
100003.8761
100003.9065
100003.7984
100003.7417
100003.7858
100003.8282
100003.8654
100003.8578
100003.8696
100003.8672
100003.874
100003.8769
100003.9359
100003.9232
100004.1057
100003.9926
100004.6963
100004.1341
100004.071
100003.9439
100003.8774
100003.8348
100003.8073
100003.7908
100003.7907
100003.6965
100003.6391
100003.6211
100003.6098
100003.6895
100003.7385
100003.7896
100003.8355
100003.8272
100003.7999
100003.7514
100003.7549
100003.7604
100003.8575
100003.8577
100003.8844
100003.8658
100003.8748
100003.8701
100003.875
100003.876
100003.9114
100003.9046
100003.9641
100003.9501
100004.1722
100003.9954
100003.9967
100003.9107
100003.8643
100003.8302
100003.8108
100003.7997
100003.7927
100003.7836
100003.675
100003.7314
100003.7525
100003.7773
100003.7923
100003.801
100003.8325
100003.7976
100003.785
100003.775
100003.7801
100003.7924
100003.8754
100003.865
100003.8698
100003.8619
100003.8643
100003.8598
100003.8581
100003.8562
100003.8724
100003.8622
100003.9006
100003.8858
100003.9965
100003.9162
100003.9174
100003.8571
100003.823
100003.8157
100003.8199
100003.8216
100003.8294
100003.8211
100003.7799
100003.7566
100003.7465
100003.7538
100003.772
100003.7796
100003.8141
100003.7707
100003.7801
100003.7737
100003.8374
100003.8359
100004.085
100003.8406
100003.9201
100003.8679
100003.8766
100003.8605
100003.8616
100003.8514
100003.8625
100003.8631
100003.8569
100003.8636
100003.9041
100003.8839
100003.8534
100003.8213
100003.8234
100003.8361
100003.8491
100003.8573
100003.8568
100003.818
100003.7745
100003.7686
100003.7616
100003.7595
100003.7683
100003.7621
100003.7939
100003.7671
100003.7788
100003.7814
100003.8517
100003.8062
100003.7798
100003.8337
100003.8418
100003.8423
100003.8365
100003.8391
100003.82
100003.8232
100003.8294
100003.8207
100003.8294
100003.8258
100003.8515
100003.8315
100003.8004
100003.7728
100003.8124
100003.8329
100003.865
100003.8573
100003.833
100003.7974
100003.7909
100003.7841
100003.7774
100003.7706
100003.779
100003.765
100003.7902
100003.766
100003.7712
100003.7628
100003.7912
100003.8172
100003.8701
100003.8334
100003.8445
100003.835
100003.8297
100003.8382
100003.8372
100003.8285
100003.822
100003.8271
100003.8491
100003.8614
100003.862
100003.8281
100003.8029
100003.5806
100003.7556
100003.7841
100003.8252
100003.8171
100003.8086
100003.8024
100003.8033
100003.8026
100003.7979
100003.7908
100003.7984
100003.7826
100003.8065
100003.7714
100003.7585
100003.7713
100003.8091
100003.8357
100003.8441
100003.8334
100003.8284
100003.8211
100003.8048
100003.8099
100003.8048
100003.8062
100003.8128
100003.8124
100003.8236
100003.7833
100003.7667
100003.6446
100003.5131
100003.2454
100003.3435
100003.5028
100003.676
100003.7405
100003.7853
100003.7984
100003.8136
100003.8211
100003.822
100003.8169
100003.8187
100003.8034
100003.8243
100003.7675
100003.7611
100003.7705
100003.802
100003.8208
100003.8359
100003.8421
100003.8367
100003.8306
100003.8214
100003.806
100003.8019
100003.7812
100003.8133
100003.8069
100003.8093
100003.8146
100003.7917
100003.7854
100003.6355
100003.5602
100003.5028
100003.3632
100003.4129
100003.635
100003.7058
100003.7568
100003.8108
100003.7926
100003.7996
100003.806
100003.8084
100003.8179
100003.8099
100003.827
100003.7734
100003.7929
100003.7982
100003.8144
100003.818
100003.8293
100003.8277
100003.8344
100003.8322
100003.8323
100003.8269
100003.8187
100003.8137
100003.8194
100003.8062
100003.8108
100003.8042
100003.7876
100003.654
100003.6656
100003.5928
100003.6825
100003.4519
100003.3181
100003.4613
100003.6145
100003.7152
100003.7485
100003.7916
100003.7861
100003.7946
100003.7988
100003.8156
100003.8036
100003.8255
100003.7874
100003.8032
100003.8055
100003.8235
100003.8162
100003.8203
100003.8138
100003.8162
100003.8129
100003.8178
100003.8113
100003.8171
100003.7915
100003.8239
100003.7759
100003.8262
100003.8334
100003.831
100003.8401
100003.8769
100003.8844
100003.6589
100003.7277
100003.6949
100003.7304
100003.7163
100003.7182
100003.7156
100003.7353
100003.767
100003.7912
100003.8006
100003.8104
100003.8067
100003.8343
100003.8007
100003.8004
100003.807
100003.8131
100003.8135
100003.815
100003.8153
100003.8183
100003.8169
100003.8181
100003.8111
100003.8112
100003.8229
100003.8329
100003.8448
100003.8591
100003.8448
100003.8153
100003.6833
100003.7729
100003.6615
100003.4826
100003.6756
100003.6241
100003.7111
100003.7126
100003.7199
100003.6907
100003.6967
100003.7114
100003.7879
100003.8201
100003.843
100003.8439
100003.8751
100003.8061
100003.8118
100003.8151
100003.8157
100003.8156
100003.8154
100003.8195
100003.8171
100003.82
100003.8131
100003.8094
100003.8149
100003.8362
100003.8524
100003.8652
100003.8698
100003.855
100003.8154
100003.8227
100003.8275
100003.803
100003.8024
100003.7913
100003.8041
100003.784
100003.7587
100003.7063
100003.6874
100003.6842
100003.7521
100003.8128
100003.8547
100003.8894
100003.9243
100003.8114
100003.8137
100003.816
100003.8182
100003.8202
100003.8222
100003.8278
100003.8283
100003.8309
100003.8252
100003.8142
100003.8176
100003.7724
100003.7271
100003.7018
100003.4997
100003.481
100003.5422
100003.7132
100003.8371
100003.9213
100003.9401
100003.9518
100003.8149
100003.8175
100003.8217
100003.8259
100003.8317
100003.836
100003.8544
100003.84
100003.8323
100003.8284
100003.8295
100003.8346
100003.8533
100003.8719
100003.8483
100003.8199
100003.8094
100003.8068
100003.8066
100003.8085
100003.8125
100003.8184
100003.8186
100003.8156
100003.8154
100003.8175
100003.8206
100003.8244
100003.8287
100003.8325
100003.8352
100003.8367
100003.8375
100003.8378
100003.8379
100003.838
100003.8381
100003.8383
100003.8385
100003.8385
100003.8175
100003.8104
100003.8054
100003.798
100003.7971
100003.7981
100003.8085
100003.8095
100003.788
100003.7667
100003.7648
100003.7713
100003.7764
100003.7803
100003.7851
100003.7915
100003.7887
100003.7852
100003.7867
100003.7936
100003.8015
100003.8088
100003.816
100003.8232
100003.8293
100003.8333
100003.8355
100003.8367
100003.8373
100003.8378
100003.8382
100003.8386
100003.8389
100003.8391
100003.8074
100003.8043
100003.8049
100003.8
100003.7995
100003.7999
100003.8055
100003.7999
100003.777
100003.7664
100003.7698
100003.7735
100003.7758
100003.7776
100003.7832
100003.7895
100003.7833
100003.7771
100003.7782
100003.7863
100003.7951
100003.8022
100003.8082
100003.8148
100003.822
100003.8281
100003.8323
100003.8347
100003.8363
100003.8374
100003.8384
100003.8393
100003.84
100003.8404
100003.7935
100003.7941
100003.7963
100003.7945
100003.7934
100003.7934
100003.7969
100003.7897
100003.7749
100003.7763
100003.7788
100003.7812
100003.779
100003.7768
100003.7761
100003.7801
100003.774
100003.7705
100003.7711
100003.7755
100003.7833
100003.7904
100003.7969
100003.8039
100003.8118
100003.8198
100003.8262
100003.8309
100003.8341
100003.8366
100003.8385
100003.8403
100003.8415
100003.8424
100003.7858
100003.7922
100003.7991
100003.8017
100003.8009
100003.8005
100003.8018
100003.7932
100003.7891
100003.7933
100003.7933
100003.7917
100003.7879
100003.785
100003.7822
100003.7809
100003.7772
100003.7742
100003.7743
100003.7759
100003.7772
100003.7812
100003.7864
100003.7925
100003.8
100003.8087
100003.8166
100003.8238
100003.8296
100003.8343
100003.838
100003.8412
100003.8433
100003.845
100003.7823
100003.7948
100003.8026
100003.8085
100003.8091
100003.8098
100003.8104
100003.8054
100003.8089
100003.8106
100003.8112
100003.8034
100003.7991
100003.7941
100003.7894
100003.7881
100003.787
100003.784
100003.7796
100003.7755
100003.7736
100003.7731
100003.7763
100003.7806
100003.7866
100003.7941
100003.802
100003.8111
100003.8202
100003.8284
100003.8352
100003.8409
100003.8445
100003.8477
100003.7852
100003.8032
100003.8096
100003.8178
100003.8217
100003.8227
100003.8246
100003.8215
100003.8346
100003.8282
100003.8341
100003.8262
100003.8194
100003.8116
100003.8035
100003.8015
100003.8007
100003.7966
100003.7882
100003.7781
100003.7706
100003.768
100003.7692
100003.7708
100003.7738
100003.7788
100003.7834
100003.7931
100003.8038
100003.8159
100003.8274
100003.8377
100003.8439
100003.8497
100003.789
100003.8119
100003.8195
100003.829
100003.8364
100003.8399
100003.8428
100003.852
100003.8557
100003.8439
100003.8507
100003.8465
100003.8363
100003.827
100003.8175
100003.8177
100003.818
100003.8113
100003.7984
100003.7849
100003.7715
100003.7653
100003.7654
100003.7646
100003.7639
100003.7662
100003.7619
100003.7728
100003.7816
100003.7974
100003.8124
100003.8288
100003.8391
100003.849
100003.7842
100003.8174
100003.8319
100003.842
100003.8507
100003.8551
100003.8593
100003.8594
100003.8651
100003.8508
100003.8564
100003.8547
100003.8436
100003.8333
100003.8234
100003.8287
100003.8327
100003.8259
100003.8068
100003.7939
100003.7789
100003.768
100003.7649
100003.7632
100003.7574
100003.7581
100003.7378
100003.7477
100003.7529
100003.773
100003.7901
100003.8135
100003.8275
100003.8437
100003.7854
100003.8262
100003.8436
100003.8593
100003.8647
100003.8711
100003.8737
100003.8795
100003.8705
100003.8519
100003.8518
100003.8433
100003.8327
100003.8246
100003.8205
100003.8335
100003.8344
100003.8261
100003.8063
100003.8078
100003.7961
100003.7801
100003.7727
100003.7696
100003.7561
100003.7586
100003.7014
100003.7218
100003.7195
100003.7496
100003.7639
100003.7952
100003.8111
100003.8334
100003.78
100003.8187
100003.852
100003.8815
100003.8771
100003.8853
100003.8913
100003.8973
100003.8819
100003.8218
100003.8233
100003.8323
100003.8329
100003.8304
100003.8289
100003.8415
100003.8285
100003.8327
100003.8147
100003.8299
100003.8214
100003.8023
100003.7863
100003.7849
100003.764
100003.7736
100003.6888
100003.6883
100003.6879
100003.7298
100003.7402
100003.7775
100003.7923
100003.8214
100003.7893
100003.8097
100003.8483
100003.8885
100003.8845
100003.8867
100003.8979
100003.9058
100003.8987
100003.8247
100003.8093
100003.8281
100003.8252
100003.833
100003.8419
100003.8548
100003.8391
100003.854
100003.8389
100003.8535
100003.8465
100003.8285
100003.8076
100003.8041
100003.7746
100003.7806
100003.6772
100003.7091
100003.6638
100003.6835
100003.7025
100003.7619
100003.7756
100003.8117
100003.7997
100003.806
100003.8353
100003.8688
100003.8782
100003.8746
100003.9043
100003.864
100003.8262
100003.7739
100003.8183
100003.8168
100003.8312
100003.8458
100003.8489
100003.8714
100003.8498