/*--------------------------------*- C++ -*----------------------------------*\
  =========                 |
  \\      /  F ield         | OpenFOAM: The Open Source CFD Toolbox
   \\    /   O peration     | Website:  https://openfoam.org
    \\  /    A nd           | Version:  8
     \\/     M anipulation  |
\*---------------------------------------------------------------------------*/
FoamFile
{
    version     2.0;
    format      ascii;
    class       surfaceScalarField;
    location    "0.5";
    object      phi;
}
// * * * * * * * * * * * * * * * * * * * * * * * * * * * * * * * * * * * * * //

dimensions      [1 0 -1 0 0 0 0];

internalField   nonuniform List<scalar> 
196504
(
8.72561714e-06
-2.499702888e-05
2.78370079e-05
2.790771968e-06
-1.907198521e-05
2.500701655e-05
-2.913739885e-06
-1.927164932e-05
2.497633725e-05
-6.496663713e-06
-2.345038997e-05
2.703348129e-05
-7.163458439e-06
-2.722899551e-05
2.789595435e-05
-1.379496818e-06
-3.428869954e-05
2.850489992e-05
7.38648231e-06
-3.856455255e-05
2.979874126e-05
1.478652001e-05
-4.010907004e-05
3.270920243e-05
1.861962496e-05
-3.816535367e-05
3.433241241e-05
2.060220123e-05
-3.18532625e-05
2.987084586e-05
2.108622811e-05
-2.729852479e-05
2.681467453e-05
2.186611483e-05
-2.714898324e-05
2.636929634e-05
2.372606464e-05
-2.85863926e-05
2.672667074e-05
2.638299255e-05
-2.990230135e-05
2.724563469e-05
2.942949774e-05
-3.081876967e-05
2.777256371e-05
3.267086476e-05
-3.15666023e-05
2.832557687e-05
3.49827602e-05
-3.151456174e-05
2.920305256e-05
3.49679234e-05
-2.921331747e-05
2.922858441e-05
3.297879037e-05
-2.55552057e-05
2.75448157e-05
3.07535674e-05
-2.273964466e-05
2.496539569e-05
2.903811994e-05
-2.084374526e-05
2.255977698e-05
2.728520485e-05
-1.879086323e-05
2.054442005e-05
2.47442544e-05
-1.564919448e-05
1.819084056e-05
2.144448534e-05
-1.181491334e-05
1.511543009e-05
1.789095574e-05
-8.342402683e-06
1.189673212e-05
1.453640086e-05
-5.83649248e-06
9.191900286e-06
1.164328592e-05
-4.37878834e-06
7.272807143e-06
9.224791234e-06
-3.580675937e-06
6.000120763e-06
7.185313682e-06
-3.116136026e-06
5.156604364e-06
5.427037067e-06
-2.828827351e-06
4.588129299e-06
3.874909764e-06
-2.64892152e-06
4.202102247e-06
2.48193482e-06
-2.553469465e-06
3.94751916e-06
1.202253232e-06
-2.505860999e-06
3.786631675e-06
-2.40882244e-06
3.612171965e-06
-4.482902007e-06
-3.829768226e-05
1.963323151e-05
-6.696526804e-06
-3.303069256e-05
1.617252668e-05
-5.259200388e-06
-3.413386115e-05
1.342506381e-05
-2.143154736e-06
-3.891046177e-05
1.234419035e-05
1.983483526e-06
-4.212878495e-05
1.077330774e-05
6.958028719e-06
-4.942169671e-05
1.015860042e-05
1.109511457e-05
-5.483364405e-05
1.213215738e-05
1.196330772e-05
-5.816929158e-05
1.71921903e-05
1.097477536e-05
-5.715310324e-05
1.997643827e-05
1.529224401e-05
-4.86575382e-05
1.248695292e-05
1.995260665e-05
-4.180047074e-05
9.841747324e-06
2.307458636e-05
-4.102866934e-05
1.075789179e-05
2.565556819e-05
-4.221971229e-05
1.105254964e-05
2.802992195e-05
-4.32964226e-05
1.10200113e-05
3.003184356e-05
-4.41327251e-05
1.131231519e-05
3.118108037e-05
-4.519372102e-05
1.247820732e-05
3.11228651e-05
-4.608725281e-05
1.463128035e-05
3.037709399e-05
-4.434322324e-05
1.58760997e-05
2.94750229e-05
-4.00634892e-05
1.541082626e-05
2.924290821e-05
-3.657633758e-05
1.406933175e-05
2.937103709e-05
-3.427996927e-05
1.330867593e-05
2.884571662e-05
-3.202723832e-05
1.376233598e-05
2.69733713e-05
-2.850564433e-05
1.472949432e-05
2.382371169e-05
-2.336155312e-05
1.469705223e-05
2.006615571e-05
-1.764640996e-05
1.306236378e-05
1.630286678e-05
-1.278533359e-05
1.071297579e-05
1.294701842e-05
-9.480271034e-06
8.458223951e-06
1.015696183e-05
-7.610063527e-06
6.820382971e-06
7.850568251e-06
-6.553740413e-06
5.744977857e-06
5.894380109e-06
-5.913237379e-06
5.041613063e-06
4.181381259e-06
-5.508727519e-06
4.573848196e-06
2.659331759e-06
-5.294462544e-06
4.264107518e-06
1.275157528e-06
-5.177396974e-06
4.056789668e-06
-4.980700441e-06
3.848122273e-06
-1.699114459e-05
-4.503508664e-05
1.487384583e-05
-1.685464832e-05
-4.181982068e-05
8.652821613e-06
-1.1803938e-05
-4.222695036e-05
3.042548343e-06
-4.786997045e-06
-4.636754205e-05
4.402903429e-07
3.532444796e-06
-4.920398093e-05
-1.244105889e-06
1.099876301e-05
-5.601558998e-05
-8.722948363e-07
1.49226865e-05
-6.160288235e-05
2.845443988e-06
1.438175774e-05
-6.659050219e-05
8.962284487e-06
1.031869527e-05
-6.503394041e-05
1.194404145e-05
1.497517468e-05
-5.513608066e-05
1.822198894e-06
2.063738171e-05
-4.748549367e-05
2.296393469e-08
2.312979043e-05
-4.669536997e-05
3.174461991e-06
2.542262369e-05
-4.779541875e-05
3.283066567e-06
2.806145995e-05
-4.85953896e-05
2.660353184e-06
3.007412467e-05
-4.929422577e-05
3.149093123e-06
3.002939845e-05
-5.035666313e-05
5.207967572e-06
2.84303716e-05
-5.159141191e-05
7.103531609e-06
2.725099862e-05
-5.008399519e-05
6.920536319e-06
2.688527465e-05
-4.592513088e-05
6.227805597e-06
2.792174187e-05
-4.348873549e-05
5.876424089e-06
2.996601445e-05
-4.255160045e-05
6.227909592e-06
3.148773211e-05
-4.132697669e-05
7.778631894e-06
3.12096893e-05
-3.865792238e-05
1.043099424e-05
2.859321128e-05
-3.386214287e-05
1.311780102e-05
2.422830887e-05
-2.723863269e-05
1.395791191e-05
1.940312989e-05
-2.054630829e-05
1.258698618e-05
1.499606832e-05
-1.547466162e-05
1.040232655e-05
1.143793025e-05
-1.236262394e-05
8.31161563e-06
8.640087435e-06
-1.055798287e-05
6.803043566e-06
6.382739504e-06
-9.475075987e-06
5.82018067e-06
4.452892837e-06
-8.756537823e-06
5.178680308e-06
2.789629665e-06
-8.380783124e-06
4.750629239e-06
1.309773682e-06
-8.146091536e-06
4.449610935e-06
-7.86502498e-06
4.195166051e-06
-2.877844573e-05
-4.891098255e-05
1.020444217e-05
-2.615252553e-05
-4.613006535e-05
1.684498982e-06
-1.790221178e-05
-4.473435014e-05
-5.742761107e-06
-8.124237964e-06
-4.831082728e-05
-7.834554864e-06
3.396618555e-06
-5.134998926e-05
-9.374726216e-06
1.358835609e-05
-5.782920906e-05
-8.378005283e-06
1.756001894e-05
-6.291968237e-05
-2.654760335e-06
1.823449478e-05
-7.080653628e-05
3.541683616e-06
1.338676123e-05
-6.607455762e-05
5.888469854e-06
1.731975582e-05
-5.550333691e-05
-3.565609591e-06
2.146493774e-05
-4.813689476e-05
-3.493645276e-06
2.176076604e-05
-4.700536245e-05
1.431258161e-08
2.364558661e-05
-4.794870721e-05
-1.731362522e-06
2.732514095e-05
-4.86161637e-05
-3.658584692e-06
2.964013119e-05
-4.931605226e-05
-2.292936814e-06
2.789488621e-05
-5.026567183e-05
1.654520769e-06
2.481640644e-05
-5.118431775e-05
2.671696992e-06
2.41622102e-05
-4.915767421e-05
-2.717712075e-07
2.52731679e-05
-4.578932238e-05
-1.246367281e-06
2.78022673e-05
-4.60512574e-05
3.387271591e-08
3.121873668e-05
-4.826156084e-05
2.293999237e-06
3.393559101e-05
-4.884695113e-05
4.803687258e-06
3.47529973e-05
-4.724179941e-05
7.767099591e-06
3.302704178e-05
-4.319730618e-05
1.106181117e-05
2.882309731e-05
-3.681030976e-05
1.377637487e-05
2.325485673e-05
-2.921279432e-05
1.423553294e-05
1.785805225e-05
-2.269888519e-05
1.262187868e-05
1.340866286e-05
-1.842527146e-05
1.051292645e-05
9.940584303e-06
-1.564136587e-05
8.552389652e-06
7.222148526e-06
-1.388465017e-05
7.128973797e-06
4.937709692e-06
-1.263784499e-05
6.166739946e-06
3.032738239e-06
-1.200796005e-05
5.53316533e-06
1.36555182e-06
-1.158216574e-05
5.104293062e-06
-1.128845895e-05
4.790025862e-06
-3.700860833e-05
-5.044074826e-05
6.730135565e-06
-3.363668927e-05
-4.679095448e-05
-2.710872773e-06
-2.428857609e-05
-4.418051724e-05
-9.901810232e-06
-1.301366106e-05
-4.72023743e-05
-1.238325028e-05
1.157502819e-06
-5.085905806e-05
-1.466199036e-05
1.355754338e-05
-5.630567653e-05
-1.392346629e-05
1.757565267e-05
-6.076477511e-05
-6.172947772e-06
2.224941075e-05
-7.080747658e-05
-4.67270597e-06
1.895151079e-05
-6.427793659e-05
1.501354336e-06
2.206503262e-05
-5.315368092e-05
-5.463059568e-06
2.277256434e-05
-4.615850719e-05
-2.685806145e-06
1.932582638e-05
-4.395906501e-05
4.005622349e-07
2.11383773e-05
-4.44939816e-05
-5.267139441e-06
2.674562279e-05
-4.503466666e-05
-9.188579542e-06
2.969396358e-05
-4.565015059e-05
-6.614051006e-06
2.595951084e-05
-4.621944099e-05
-3.115497967e-07
2.141761105e-05
-4.597151437e-05
-6.70632897e-07
2.15566425e-05
-4.357150905e-05
-5.72488742e-06
2.469764336e-05
-4.216375325e-05
-6.766218106e-06
2.94852809e-05
-4.652952014e-05
-4.308970626e-06
3.435912364e-05
-5.286982995e-05
-2.65112387e-07
3.760494357e-05
-5.59495993e-05
3.857346895e-06
3.845288695e-05
-5.550998974e-05
7.42082471e-06
3.673290786e-05
-5.209290538e-05
1.061621837e-05
3.278592851e-05
-4.623827536e-05
1.337564946e-05
2.718738721e-05
-3.878965484e-05
1.517616692e-05
2.124060019e-05
-3.163200659e-05
1.488072585e-05
1.626623666e-05
-2.667375034e-05
1.322370154e-05
1.205289824e-05
-2.259653383e-05
1.116940098e-05
8.675604894e-06
-1.981081846e-05
9.304388767e-06
5.820275191e-06
-1.761139947e-05
7.82984057e-06
3.470481788e-06
-1.649372422e-05
6.836537604e-06
1.450619145e-06
-1.575257136e-05
6.191264629e-06
-1.562464623e-05
5.787810579e-06
-4.121787892e-05
-5.012605366e-05
6.184579694e-06
-3.885742383e-05
-4.556183185e-05
-3.589434484e-06
-2.995586017e-05
-4.20844536e-05
-1.099750557e-05
-1.780674598e-05
-4.398036759e-05
-1.537101768e-05
-1.57312951e-06
-4.78102443e-05
-1.928234161e-05
1.179865751e-05
-5.121891712e-05
-1.845845313e-05
1.43143487e-05
-5.447533404e-05
-8.805083947e-06
2.362255277e-05
-5.541111911e-05
-2.47043443e-05
2.501614975e-05
-6.366564396e-05
-2.005870067e-06
2.803245012e-05
-5.055223406e-05
-5.617656375e-06
2.474281518e-05
-4.252742146e-05
-3.413673156e-07
1.755949559e-05
-3.886579533e-05
2.090137043e-06
1.972953724e-05
-3.878138949e-05
-7.882537235e-06
2.705782511e-05
-3.910621199e-05
-1.325661912e-05
3.040102085e-05
-3.930026754e-05
-9.692929571e-06
2.494317721e-05
-3.936202674e-05
-1.399388258e-06
1.965801293e-05
-3.779123118e-05
-2.89489592e-06
2.034484925e-05
-3.613542615e-05
-8.122661555e-06
2.5029336e-05
-3.833332374e-05
-8.514619278e-06
3.229547465e-05
-4.716667559e-05
-6.628631017e-06
3.838931619e-05
-5.663283879e-05
-2.330421238e-06
4.203517686e-05
-6.199130923e-05
2.396319647e-06
4.244095853e-05
-6.284829321e-05
6.933048765e-06
3.995554517e-05
-6.019791274e-05
1.059100625e-05
3.567938988e-05
-5.509699142e-05
1.31355202e-05
3.038565281e-05
-4.84957944e-05
1.50005896e-05
2.463201702e-05
-4.193257184e-05
1.605497468e-05
2.01177492e-05
-3.819738062e-05
1.603872113e-05
1.55083045e-05
-3.245504454e-05
1.446881679e-05
1.136522605e-05
-2.82867965e-05
1.261994798e-05
7.632886787e-06
-2.447695898e-05
1.059881433e-05
4.419349872e-06
-2.228073773e-05
9.001487518e-06
1.721877222e-06
-2.101344367e-05
7.95929874e-06
-2.136603017e-05
7.464222471e-06
-4.078309984e-05
-4.863748168e-05
8.542211688e-06
-4.119034569e-05
-4.338636608e-05
-1.768082793e-06
-3.380539278e-05
-3.864122267e-05
-1.082807263e-05
-2.125993963e-05
-3.873777078e-05
-1.778796136e-05
-3.28062594e-06
-4.195388077e-05
-2.38356056e-05
1.235708721e-05
-4.352107966e-05
-2.333548804e-05
1.65002773e-05
-4.693237894e-05
-1.168610739e-05
2.474048306e-05
-4.04526276e-05
-2.319863927e-05
2.881877476e-05
-6.707995441e-05
-6.639923064e-07
3.440161276e-05
-5.127665751e-05
-4.858387002e-06
2.779860374e-05
-3.906015891e-05
3.135789929e-06
1.793043226e-05
-3.204082465e-05
3.043246943e-06
2.036987843e-05
-3.065580355e-05
-1.056498217e-05
2.847985024e-05
-3.053326186e-05
-1.668284488e-05
3.174757732e-05
-3.047320427e-05
-1.209468964e-05
2.548555138e-05
-3.104593306e-05
-2.053938538e-06
1.931582571e-05
-2.930961388e-05
-2.311726731e-06
1.837914453e-05
-2.912133233e-05
-6.077215922e-06
2.39613601e-05
-3.730256428e-05
-6.612738142e-06
3.408587508e-05
-4.895219019e-05
-8.338705124e-06
4.188154136e-05
-5.910197104e-05
-5.326180887e-06
4.61502882e-05
-6.522066209e-05
-1.038980263e-06
4.641209385e-05
-6.719811831e-05
4.08849027e-06
4.304599245e-05
-6.562008919e-05
8.788803677e-06
3.797659539e-05
-6.180465665e-05
1.177764871e-05
3.251868719e-05
-5.676717156e-05
1.372993614e-05
2.718795086e-05
-5.181401187e-05
1.521289383e-05
2.480178695e-05
-5.356783536e-05
1.775739559e-05
2.085454025e-05
-4.638412698e-05
1.787715192e-05
1.645718644e-05
-4.086585334e-05
1.697726963e-05
1.163204274e-05
-3.445069515e-05
1.479976044e-05
6.876408472e-06
-2.998320497e-05
1.245899631e-05
2.856849918e-06
-2.772005213e-05
1.072707575e-05
-2.871784486e-05
1.020957935e-05
-3.380715204e-05
-4.666894955e-05
1.321666071e-05
-3.932845135e-05
-4.158949869e-05
3.724575788e-06
-3.525240965e-05
-3.508396975e-05
-7.633187373e-06
-2.327392531e-05
-3.269864933e-05
-1.801753282e-05
-4.30790291e-06
-3.434026392e-05
-2.657958879e-05
1.549663029e-05
-3.583882106e-05
-2.748676138e-05
2.178567249e-05
-4.090743124e-05
-1.2313979e-05
2.283783263e-05
-3.830448332e-05
-3.200328858e-06
3.017597385e-05
-7.216392399e-05
-2.254172934e-06
4.101196102e-05
-5.659767389e-05
-5.515001119e-06
3.359220274e-05
-3.894222197e-05
7.301808799e-06
2.227553734e-05
-2.494791665e-05
4.223751763e-06
2.310435276e-05
-2.007742693e-05
-1.140719409e-05
3.020224486e-05
-1.920951188e-05
-1.842161782e-05
3.230449101e-05
-1.981066557e-05
-1.276474016e-05
2.513842345e-05
-2.324810248e-05
-6.316969777e-07
1.682499762e-05
-2.425121313e-05
3.25511783e-06
1.1795588e-05
-2.580200465e-05
1.710211217e-06
1.880899957e-05
-4.009188586e-05
-4.223908536e-06
3.342887454e-05
-5.158864729e-05
-1.198318932e-05
4.373971899e-05
-5.957197389e-05
-9.840560558e-06
4.905158135e-05
-6.503551474e-05
-5.496671954e-06
4.949133107e-05
-6.734441491e-05
-2.930554546e-07
4.539955769e-05
-6.695753976e-05
5.429678777e-06
3.920702527e-05
-6.496861877e-05
9.357009463e-06
3.262359425e-05
-6.234658738e-05
1.216342663e-05
2.73676838e-05
-6.031188391e-05
1.375442794e-05
2.93994168e-05
-7.379132001e-05
1.819246117e-05
2.849288429e-05
-6.585236028e-05
2.03755302e-05
2.509000507e-05
-5.884289025e-05
2.138073323e-05
1.958655815e-05
-4.915095443e-05
2.020455489e-05
1.266225444e-05
-4.047438335e-05
1.741634265e-05
6.10370826e-06
-3.595269641e-05
1.479205748e-05
-3.696502443e-05
1.435175618e-05
-1.798407646e-05
-4.572886342e-05
1.696074803e-05
-3.179149078e-05
-4.025768939e-05
1.247579505e-05
-3.393724255e-05
-3.295390572e-05
1.57974681e-08
-2.436998588e-05
-2.799140213e-05
-1.427445209e-05
-6.714712044e-06
-2.584956932e-05
-2.614594463e-05
1.302208922e-05
-2.726014417e-05
-2.831547725e-05
1.707574005e-05
-3.483243247e-05
-1.01286755e-05
1.831653185e-05
-3.683098564e-05
-2.714350206e-06
3.330760493e-05
-7.327123938e-05
-1.388373287e-05
4.942994773e-05
-6.117767254e-05
-1.15423993e-05
4.509196606e-05
-4.249617718e-05
7.89186693e-06
3.433918986e-05
-2.125001993e-05
7.054813629e-06
2.985962285e-05
-8.197794219e-06
-7.400132147e-06
3.145896313e-05
-5.000192182e-06
-1.580870301e-05
2.80908854e-05
-7.310407913e-06
-9.132203631e-06
1.656143826e-05
-1.855298739e-05
6.834325258e-06
4.652492845e-06
-2.765979444e-05
1.531753798e-05
-1.30282455e-06
-3.188633574e-05
1.203971756e-05
1.015624253e-05
-4.329743752e-05
-8.253396451e-06
3.040746384e-05
-5.182381729e-05
-2.001590258e-05
4.37205984e-05
-5.605086374e-05
-1.683404527e-05
5.048366322e-05
-6.101512762e-05
-1.078320346e-05
5.069163565e-05
-6.368360467e-05
-3.868473875e-06
4.566658463e-05
-6.447915027e-05
2.54703274e-06
3.793602408e-05
-6.474834626e-05
7.510722339e-06
2.885208467e-05
-6.533054364e-05
1.206839727e-05
2.506890439e-05
-6.937594916e-05
1.284780021e-05
3.44877284e-05
-9.803367473e-05
1.482415249e-05
3.942533348e-05
-9.124206014e-05
2.045274995e-05
3.866829968e-05
-8.113387538e-05
2.30487548e-05
3.288341871e-05
-6.782858753e-05
2.446330811e-05
2.312657475e-05
-5.407037716e-05
2.335365987e-05
1.222546901e-05
-4.539089259e-05
2.034012883e-05
-4.462384716e-05
1.988511245e-05
1.046663264e-06
-4.561524866e-05
1.277349432e-05
-1.741054239e-05
-4.135556605e-05
1.955520211e-05
-2.759017441e-05
-3.331286536e-05
1.053863054e-05
-2.321159967e-05
-2.599414832e-05
-6.375820118e-06
-9.697028987e-06
-1.737393639e-05
-2.199021704e-05
6.138625743e-06
-1.850217472e-05
-2.45936574e-05
1.253269645e-06
-2.628059803e-05
-3.666542812e-06
5.511545375e-06
-3.421251614e-05
-6.876842877e-06
3.779885713e-05
-6.51739994e-05
-4.038451259e-05
6.028972211e-05
-5.844036087e-05
-2.522823412e-05
6.166023676e-05
-4.195423617e-05
-1.912548496e-06
5.31943039e-05
-2.204316131e-05
9.258952733e-06
4.347566816e-05
-3.382693253e-06
4.903410642e-06
3.476872969e-05
4.954915351e-06
-1.24828673e-06
2.018190896e-05
2.076495687e-06
5.199816539e-06
6.154609701e-07
-2.102013518e-05
2.203352138e-05
-1.445843014e-05
-3.632164686e-05
2.373569135e-05
-1.434403215e-05
-3.911060399e-05
7.109858441e-06
4.339201643e-06
-4.126518228e-05
-2.071547313e-05
2.75426596e-05
-4.405964648e-05
-3.096756178e-05
4.230532003e-05
-4.637287506e-05
-2.444053416e-05
4.988776133e-05
-5.249518837e-05
-1.610222316e-05
4.923324678e-05
-5.663799027e-05
-6.390889611e-06
4.236326266e-05
-5.908775377e-05
1.47886594e-06
3.213465575e-05
-6.232093836e-05
7.801540508e-06
1.859226714e-05
-6.642055287e-05
1.463280699e-05
2.230366438e-05
-8.142480514e-05
8.33789254e-06
4.413908022e-05
-0.0001160186585
-3.849891603e-06
5.69875655e-05
-0.0001138107323
9.720681605e-06
5.916366613e-05
-0.0001002445043
1.693513505e-05
5.278613968e-05
-8.387436493e-05
2.242400465e-05
3.894491002e-05
-6.687374287e-05
2.664534984e-05
2.094456671e-05
-5.395223758e-05
2.656246376e-05
-5.03216658e-05
2.664314891e-05
1.666709187e-05
-4.517199651e-05
4.425857811e-06
1.280786235e-08
-4.31851108e-05
1.848395181e-05
-1.583662402e-05
-3.496504416e-05
1.750153745e-05
-1.756710543e-05
-2.679503118e-05
2.531323865e-06
-1.374747492e-05
-7.209305195e-06
-1.398431407e-05
-1.462473655e-05
-1.32369477e-06
-1.630129242e-05
-3.039006372e-05
-1.019346111e-05
-3.218892339e-07
-1.180702866e-05
-2.741717168e-05
-2.537842794e-05
4.24917024e-05
-4.439211535e-05
-7.508047749e-05
7.329473044e-05
-4.065916963e-05
-4.858419815e-05
7.973150486e-05
-3.014254841e-05
-1.824850509e-05
7.324621442e-05
-1.643440545e-05
8.763900318e-07
5.596539275e-05
-9.389010461e-07
1.483684266e-05
3.554615822e-05
8.243892005e-06
1.713006554e-05
1.442845284e-05
1.939338629e-06
2.125468408e-05
-4.441208843e-06
-2.764114691e-05
2.549051013e-05
-1.946017763e-05
-4.064827779e-05
1.934544922e-05
-1.992088209e-05
-3.807959603e-05
-5.704371515e-07
1.774884846e-06
-3.137970861e-05
-3.15813278e-05
2.462791821e-05
-2.896436355e-05
-3.794833442e-05
3.786481211e-05
-3.22458429e-05
-2.736390522e-05
4.521682609e-05
-4.056520903e-05
-1.928192143e-05
4.311218296e-05
-4.676756277e-05
-7.7656642e-06
3.331966567e-05
-5.115693746e-05
1.861884672e-06
1.785024731e-05
-5.739899477e-05
1.05477162e-05
-2.057603832e-06
-6.447476658e-05
1.796237474e-05
1.708419432e-05
-8.823899273e-05
-1.23272761e-05
5.949294601e-05
-0.0001180046926
-4.042216434e-05
8.224254952e-05
-0.0001183839711
-1.817591576e-05
8.688551874e-05
-0.0001036418548
-1.245157731e-06
7.848411796e-05
-8.694240593e-05
1.147003627e-05
5.982911878e-05
-7.069960721e-05
2.248152482e-05
3.278759895e-05
-5.674854482e-05
2.983852765e-05
-5.104226599e-05
3.350889134e-05
2.254759745e-05
-4.25679967e-05
-1.221551406e-06
9.309631329e-06
-4.301382949e-05
1.306670008e-05
-5.057165141e-06
-3.581158732e-05
1.521329551e-05
-1.148650784e-05
-2.736673317e-05
7.000980702e-06
-1.915625005e-05
-3.50464186e-06
3.964992811e-06
-3.355344563e-05
1.243542783e-05
6.379848358e-07
-4.516618973e-05
1.070687813e-05
-9.287653647e-06
-1.332296207e-05
-4.248715665e-06
-5.501177889e-05
4.337971886e-05
-5.129710608e-06
-9.596495931e-05
7.547180131e-05
-1.54506762e-06
-7.120615393e-05
8.403242772e-05
-2.142477944e-06
-3.656084057e-05
7.891730825e-05
-8.600208574e-07
-1.045939809e-05
6.057803736e-05
5.345680181e-06
1.205448491e-05
3.662046886e-05
6.882281069e-06
2.531892647e-05
1.705902729e-05
-8.76376641e-06
3.026427116e-05
2.060994792e-06
-3.169660934e-05
1.905320764e-05
-1.38649044e-05
-4.050465033e-05
1.57819913e-05
-1.699951891e-05
-3.490537198e-05
-3.989985464e-08
5.280908383e-07
-1.7706498e-05
-3.120105831e-05
1.677678972e-05
-8.733037379e-06
-3.64801942e-05
2.691157394e-05
-2.078717072e-05
-2.159356299e-05
3.397961467e-05
-2.929656325e-05
-1.833671681e-05
3.080349124e-05
-3.610505034e-05
-7.486363519e-06
1.777056771e-05
-4.056977747e-05
2.445855016e-06
-9.507584889e-06
-4.43434091e-05
1.422272131e-05
-2.947582952e-05
-5.329241758e-05
8.7861188e-06
1.132134029e-05
-7.426119381e-05
-5.477450386e-05
7.518757245e-05
-9.053342313e-05
-9.133638847e-05
0.000105608326
-9.017319501e-05
-5.863073866e-05
0.0001142609734
-8.392501688e-05
-2.836897449e-05
0.0001050983637
-7.210247739e-05
-5.676781393e-06
8.201506983e-05
-5.890372369e-05
1.12879894e-05
4.602558278e-05
-4.7862805e-05
2.710436541e-05
-4.299586188e-05
3.797979482e-05
2.423295932e-05
-3.855208197e-05
-4.375711169e-06
1.231616473e-05
-4.044714802e-05
9.350089139e-06
4.936718419e-06
-3.576791153e-05
7.335703629e-06
9.621854797e-06
-3.07952684e-05
-1.256696347e-06
1.607999934e-05
-1.192945508e-05
1.966563472e-06
1.649267168e-05
3.421247692e-06
8.601375631e-06
-1.060292232e-06
1.392862862e-05
1.433105807e-05
6.921101683e-06
1.521011629e-05
-2.74404134e-05
3.981964085e-05
3.292323009e-05
-7.095157898e-05
5.342141205e-05
2.810891085e-05
-4.325590184e-05
4.571885907e-05
1.126298483e-05
-5.703138648e-06
3.148380432e-05
2.699112548e-07
1.310484259e-05
1.802803375e-05
-3.007402276e-06
2.180853682e-05
8.122013861e-06
-8.139922493e-06
2.492788462e-05
5.175465463e-06
-2.385057581e-05
1.803298725e-05
2.520763541e-06
-3.639406899e-05
7.351744813e-06
-9.819567728e-06
-3.956286205e-05
1.139811145e-05
-1.866909789e-05
-3.434887573e-05
8.292577383e-06
-8.445257334e-06
-1.760584863e-05
-1.032490451e-05
5.994459137e-06
-1.04511091e-05
-1.272199545e-05
1.520077066e-05
-2.118923348e-05
-8.80451969e-06
2.101944997e-05
-2.44368325e-05
-1.067859061e-05
1.747654029e-05
-2.625383663e-05
-6.308388085e-06
1.484323972e-06
-2.527914695e-05
7.01584897e-07
-3.352215036e-05
-2.248093769e-05
1.314409724e-05
-3.838776363e-05
-2.968365888e-05
-1.87429074e-05
2.119037837e-05
-3.616995907e-05
-9.766872562e-05
7.494057263e-05
-1.098401387e-05
-0.0001332981188
0.0001065673125
-2.732765626e-05
-9.447101219e-05
0.0001218225044
-4.1219012e-05
-5.796041218e-05
0.0001179441456
-4.308469688e-05
-2.513884621e-05
9.543477145e-05
-3.627882631e-05
-1.150078817e-07
5.493637144e-05
-2.884382598e-05
2.147998035e-05
-2.646281346e-05
3.840388027e-05
2.360155457e-05
-3.27961471e-05
-6.899535413e-06
1.08397306e-05
-3.424744177e-05
6.562071547e-06
7.38470666e-06
-3.22734877e-05
-3.949940797e-08
1.837139388e-05
-3.038335314e-05
-1.13987193e-05
2.670121507e-05
-1.558140006e-05
-4.678007421e-06
3.324318234e-05
-5.6709178e-06
2.550048555e-06
3.040733444e-05
2.150760908e-06
1.461354803e-05
2.771566996e-05
6.030835043e-06
1.187075032e-05
3.30531863e-05
3.306585304e-05
-5.480294339e-06
3.26022006e-05
2.009675332e-05
8.462932767e-06
2.136296895e-05
-1.025203506e-07
2.260444271e-05
1.205511995e-05
-1.054657382e-05
2.012399421e-05
4.213471407e-06
-1.51522652e-05
1.998613589e-05
6.092600845e-07
-2.004347857e-05
1.550734272e-05
2.824308407e-06
-2.950745166e-05
3.441344183e-06
3.531983793e-06
-3.585823334e-05
-1.244094894e-06
-6.39231239e-06
-3.620188356e-05
6.562694684e-06
-1.699961535e-05
-3.296936633e-05
9.227115037e-06
-1.399289771e-05
-2.319799837e-05
2.584800537e-06
1.300333469e-06
-2.004188979e-05
-5.702996274e-06
1.380081769e-05
-1.90850897e-05
-1.460505837e-05
2.058765129e-05
-1.669500634e-05
-1.452897001e-05
1.896187351e-05
-1.353281661e-05
-1.109543203e-05
9.330865699e-06
-1.035624959e-05
-5.291979158e-06
-2.13118862e-05
-2.559979639e-06
1.072183943e-05
-2.167198294e-05
-5.120898909e-06
-2.420255818e-05
1.456743355e-05
1.35451293e-05
-8.595391347e-05
4.532443966e-05
2.487211661e-05
-6.661272805e-05
7.921771813e-05
-1.26819385e-05
-4.853853431e-05
9.789048261e-05
-2.457297034e-05
-3.531831623e-05
9.635988173e-05
-2.482285556e-05
-1.673077585e-05
7.590443117e-05
-2.247903898e-05
6.656136046e-06
4.23668157e-05
-2.015545266e-05
2.484974788e-05
-2.034804644e-05
3.625256224e-05
2.286046123e-05
-2.558716545e-05
-9.459905324e-06
8.938783404e-06
-2.447115993e-05
4.145337023e-06
5.662635437e-06
-2.387615264e-05
-5.121301059e-06
2.32874094e-05
-2.274804932e-05
-2.526019808e-05
3.429947526e-05
-1.100439995e-05
-1.558921051e-05
3.825093139e-05
-4.557095016e-06
-5.065446059e-06
3.741694849e-05
-2.630569058e-06
5.615130836e-06
3.255918243e-05
-1.086463082e-06
1.197485976e-05
2.720102747e-05
1.802472621e-05
2.039908925e-05
2.159118218e-05
5.165989437e-06
2.054033556e-05
1.11418492e-05
-5.128946914e-06
1.547543485e-05
1.697275219e-06
-1.222637971e-05
1.112400793e-05
-7.047633398e-06
-1.673161122e-05
1.032382684e-05
-6.582193894e-06
-2.216640936e-05
1.656980017e-06
1.54368154e-06
-2.820304088e-05
-9.43089991e-06
7.278829968e-06
-3.102243561e-05
-1.057174241e-05
3.112133053e-07
-2.946517157e-05
2.30067133e-07
-7.669442443e-06
-2.44284044e-05
-5.613194187e-07
-4.609205791e-06
-1.304361362e-05
-1.321552675e-05
6.435176817e-06
-7.39630022e-06
-2.369076731e-05
1.662480697e-05
-3.120848412e-06
-2.615449348e-05
2.337492539e-05
7.571888284e-07
-2.420276538e-05
2.568038297e-05
3.994125089e-06
-1.983270047e-05
2.188542259e-05
6.386883211e-06
-1.294834094e-05
1.124852865e-05
1.06474983e-05
-2.57064594e-06
-1.217178405e-05
9.664982086e-06
8.63446357e-06
-2.50342544e-05
2.57676502e-05
6.399696837e-07
2.347477131e-05
-1.276240181e-05
-1.087419574e-05
7.834930612e-05
-4.033026289e-05
-2.7225729e-05
9.588888866e-05
-3.610773856e-05
-6.004369262e-06
8.503932552e-05
-2.530292607e-05
1.132997327e-05
5.872075786e-05
-2.001690769e-05
2.385677239e-05
2.940840243e-05
-1.883004955e-05
2.798735111e-05
-2.251907793e-05
3.1579859e-05
2.550517474e-05
-1.822231909e-05
-1.343593439e-05
1.308946848e-05
-1.337890483e-05
1.323386249e-06
7.065321068e-06
-9.283060747e-06
-8.569084181e-06
2.496747009e-05
-3.895567708e-06
-3.675476048e-05
3.589164872e-05
2.660479472e-06
-2.45892125e-05
3.846128844e-05
4.164395049e-06
-1.129130966e-05
3.423379856e-05
-1.588525069e-07
1.755574241e-06
2.548184953e-05
-8.269655945e-07
8.492239727e-06
1.442595774e-05
8.79954622e-06
2.028084086e-05
8.15301517e-06
-6.851191491e-07
1.212375274e-05
2.166599486e-06
-6.118198058e-06
6.975325572e-06
-8.178211821e-06
-1.007585875e-05
8.193895135e-06
-1.51320667e-05
-1.332553467e-05
3.547305559e-06
-1.226343768e-05
-1.84369533e-05
-6.598685827e-06
4.106662828e-07
-2.072761189e-05
-2.015026023e-05
1.093192697e-05
-2.115217353e-05
-2.039256315e-05
6.642628733e-06
-1.813225656e-05
-7.044731329e-06
1.60540611e-06
-1.149309237e-05
-7.899543462e-06
4.74944109e-06
1.574163895e-06
-1.776305246e-05
1.420242247e-05
8.10839127e-06
-2.495873914e-05
2.221555519e-05
1.525396146e-05
-2.638875955e-05
2.638600017e-05
2.024175275e-05
-2.365560061e-05
2.536595347e-05
2.310154841e-05
-1.808778188e-05
1.748358974e-05
2.454544258e-05
-1.027645169e-05
-3.662640619e-06
2.890577415e-05
2.887825978e-06
-3.825562037e-05
2.797651377e-05
1.628138752e-05
-2.498941688e-05
2.131838784e-05
-8.816840855e-06
3.843239649e-05
-2.849142215e-06
-7.333457478e-05
8.571667621e-05
-3.643639312e-06
-8.397021648e-05
0.0001055507648
1.489296247e-06
-5.743061262e-05
0.0001023844818
2.062148974e-06
-2.419833797e-05
8.105945961e-05
7.02490342e-08
1.238217771e-06
4.222473192e-05
-4.440133033e-06
2.44451684e-05
-1.559524964e-05
3.530127733e-05
3.352299095e-05
-1.176213705e-05
-1.964679309e-05
3.185394928e-05
-5.436177432e-06
-6.273733452e-06
2.74840389e-05
3.209479065e-06
-8.122698372e-06
3.750069318e-05
1.427865397e-05
-2.819099679e-05
4.235944695e-05
1.705939393e-05
-1.925784059e-05
3.369950579e-05
1.376447371e-05
-9.403295868e-07
1.265940601e-05
7.779641567e-06
1.310141505e-05
-6.424904975e-06
6.900023222e-07
1.756711575e-05
-9.189885823e-06
2.126605513e-06
9.437657852e-06
-1.568655643e-06
-1.856330925e-06
-6.450315316e-06
-2.830409134e-07
-4.814319683e-06
-2.58984211e-06
-9.873491165e-06
-5.440358028e-06
4.954539206e-06
-1.724907843e-05
-6.488911936e-06
5.384576092e-07
-1.288772669e-05
-9.830505913e-06
-1.296846427e-05
7.902063002e-07
-5.807005984e-06
-2.85993534e-05
1.295168119e-05
-2.387092862e-06
-3.092775846e-05
1.567285543e-05
1.863532859e-06
-2.271833136e-05
1.909022344e-05
3.356182721e-06
-1.826853351e-05
1.966378567e-05
1.624364503e-05
-1.524463734e-05
2.365614935e-05
2.040418644e-05
-1.628946371e-05
2.80086167e-05
2.740851082e-05
-1.650799482e-05
2.960518622e-05
3.237284155e-05
-1.372836189e-05
2.782222619e-05
3.484206975e-05
-9.958048516e-06
2.031820265e-05
3.60198328e-05
-3.970679234e-06
2.488531869e-06
4.005670935e-05
6.67854878e-06
-2.660189451e-05
4.099107078e-05
1.607579652e-05
-7.580554904e-06
3.581772478e-05
-3.352060818e-05
4.249970511e-05
3.774903032e-05
-9.067802766e-05
6.882112395e-05
4.718873882e-05
-7.715338018e-05
6.831776698e-05
3.872375227e-05
-3.673083431e-05
4.917216643e-05
2.45427122e-05
-3.33471488e-06
2.913192703e-05
9.8127469e-06
1.029802058e-05
1.395699225e-05
-6.295591672e-06
1.703072478e-05
-2.647391157e-05
2.483600094e-05
3.81984864e-05
-3.459602736e-06
-2.452920456e-05
4.285086089e-05
3.838012309e-06
-1.392667025e-05
4.84334278e-05
1.375876534e-05
-1.613225621e-05
5.37830453e-05
2.295116565e-05
-1.402233509e-05
4.975190571e-05
2.281433516e-05
-1.724000864e-06
3.526351279e-05
1.864964052e-05
9.603032762e-06
9.418546446e-06
1.224769512e-05
2.137672507e-05
-9.735725111e-06
2.368581655e-06
1.747546648e-05
-1.035941465e-05
-7.763578373e-07
3.526394477e-06
-1.508782783e-06
-1.604719603e-06
-9.102537807e-06
6.434256939e-06
-2.352157669e-06
-1.040554654e-05
7.881590488e-06
-3.391402069e-06
-3.49670635e-06
-2.383261012e-06
-4.332079092e-07
4.208636857e-06
-4.03470848e-06
1.609824636e-06
-9.789573108e-06
8.04199279e-06
9.284569712e-06
-2.716912386e-05
1.825855319e-05
1.880701415e-05
-3.141202418e-05
2.063125815e-05
2.142526426e-05
-2.193594657e-05
3.037469231e-05
1.94920857e-05
-2.588205309e-05
3.015350286e-05
2.581268242e-05
-9.349699686e-06
3.391297706e-05
1.901175471e-05
-2.36850474e-06
3.64221945e-05
2.699954711e-05
-2.101310629e-06
3.617260934e-05
3.420206694e-05
-1.580389111e-06
3.343932681e-05
3.791793304e-05
-3.431002163e-07
2.790692882e-05
3.914975847e-05