/*--------------------------------*- C++ -*----------------------------------*\
  =========                 |
  \\      /  F ield         | OpenFOAM: The Open Source CFD Toolbox
   \\    /   O peration     | Website:  https://openfoam.org
    \\  /    A nd           | Version:  8
     \\/     M anipulation  |
\*---------------------------------------------------------------------------*/
FoamFile
{
    version     2.0;
    format      ascii;
    class       volScalarField;
    location    "0.5";
    object      T;
}
// * * * * * * * * * * * * * * * * * * * * * * * * * * * * * * * * * * * * * //

dimensions      [0 0 0 1 0 0 0];

internalField   nonuniform List<scalar> 
67193
(
300.0030151
300.0031533
300.0031953
300.0032313
300.0032655
300.0033254
300.0033014
300.0032195
300.0031935
300.0032747
300.0032995
300.0032801
300.003251
300.0032201
300.0031833
300.0031266
300.0030448
300.0029732
300.0029372
300.0029314
300.0029297
300.0029177
300.0029032
300.0029004
300.0029118
300.0029262
300.0029357
300.0029404
300.0029425
300.0029435
300.0029442
300.0029446
300.0029448
300.0029451
300.0030466
300.0032128
300.0032855
300.0033528
300.0034037
300.0034635
300.0034454
300.0033673
300.0033186
300.003418
300.0034319
300.0034024
300.0033853
300.0033713
300.0033483
300.003295
300.0032037
300.003132
300.0031079
300.0031086
300.0031017
300.0030687
300.0030121
300.0029539
300.0029189
300.0029151
300.0029264
300.0029363
300.0029415
300.0029441
300.0029455
300.0029462
300.0029462
300.0029456
300.0031226
300.0032607
300.0033337
300.0033936
300.0034377
300.003478
300.0034617
300.0034084
300.0033309
300.0033884
300.0033956
300.0033699
300.0033833
300.0033926
300.003385
300.0033428
300.0032583
300.0032094
300.0032121
300.0032251
300.0032229
300.003194
300.0031352
300.0030533
300.0029744
300.0029256
300.002916
300.0029265
300.0029368
300.0029428
300.0029459
300.0029474
300.0029475
300.0029469
300.0032104
300.0033116
300.0033709
300.0034163
300.0034483
300.0034812
300.0034629
300.0034365
300.0033549
300.0033653
300.0033495
300.0033273
300.0033836
300.0034108
300.0034082
300.0033728
300.0032925
300.0032627
300.0032795
300.0032856
300.0032732
300.0032448
300.0031982
300.0031311
300.0030464
300.0029684
300.002923
300.0029162
300.002927
300.0029379
300.0029444
300.0029477
300.0029486
300.0029487
300.0032505
300.0033281
300.0033764
300.0034118
300.0034367
300.0034774
300.0034529
300.0034085
300.0033753
300.003356
300.0033
300.0032854
300.0033944
300.003429
300.0034215
300.0033901
300.0033157
300.0033031
300.0033175
300.0032981
300.0032595
300.003222
300.003185
300.0031437
300.0030896
300.0030214
300.0029601
300.0029274
300.0029211
300.00293
300.0029401
300.0029464
300.0029489
300.0029502
300.0032539
300.0033206
300.0033645
300.0033966
300.003423
300.0034735
300.0034411
300.0032819
300.00337
300.0033581
300.0032737
300.0032653
300.0034177
300.0034492
300.0034334
300.0034047
300.0033374
300.0033241
300.0033215
300.0032829
300.0032223
300.0031712
300.0031379
300.0031182
300.003101
300.0030714
300.0030261
300.0029861
300.0029508
300.002934
300.0029352
300.0029424
300.0029469
300.0029492
300.0032393
300.0032989
300.0033432
300.003378
300.0034119
300.0034679
300.0034297
300.0033833
300.0033054
300.0033469
300.0032789
300.003274
300.0034373
300.0034614
300.0034395
300.0034119
300.0033464
300.003308
300.0032801
300.0032591
300.0032
300.0031414
300.0031086
300.0031024
300.0031127
300.0031219
300.0031102
300.0030902
300.0030419
300.0029874
300.0029516
300.0029434
300.0029455
300.0029454
300.0032184
300.0032694
300.0033155
300.0033588
300.003403
300.0034673
300.0034028
300.0034534
300.0031565
300.0032768
300.0032866
300.0033019
300.0034412
300.0034641
300.003442
300.003405
300.0033232
300.0032371
300.0032194
300.0032588
300.0032096
300.0031511
300.0031122
300.0031122
300.0031372
300.0031705
300.0031821
300.0031753
300.003159
300.0030923
300.0030223
300.0029775
300.0029636
300.0029532
300.0032045
300.003233
300.003275
300.0033344
300.0033928
300.0034606
300.0033715
300.0033955
300.0029787
300.0031213
300.0032329
300.0033079
300.0034194
300.0034565
300.0034408
300.00335
300.003203
300.0031219
300.003222
300.0032897
300.0032411
300.0031812
300.0031399
300.0031392
300.0031688
300.003205
300.0032033
300.0030958
300.0031725
300.0031533
300.0031122
300.0030604
300.0030268
300.0029993
300.0032241
300.0031706
300.0032184
300.0033029
300.0033783
300.0034505
300.0033347
300.0033045
300.0029452
300.0029706
300.0030749
300.0032257
300.0033139
300.0033715
300.0033761
300.0031589
300.003021
300.0031405
300.0033013
300.0033225
300.0032755
300.0032121
300.0031738
300.0031774
300.0032097
300.0032138
300.0031197
300.0026874
300.0028813
300.0029978
300.0030818
300.0031241
300.0031232
300.0030897
300.0032394
300.0031462
300.003179
300.003299
300.0033456
300.0034142
300.0032455
300.0031134
300.0031071
300.0029473
300.0029285
300.0030552
300.0032025
300.0032947
300.0032507
300.0031046
300.0030848
300.0032182
300.0033675
300.0033491
300.0033046
300.0032403
300.0032147
300.0032316
300.0032647
300.0031628
300.002893
300.0020929
300.0022352
300.0025052
300.0028008
300.0030477
300.003188
300.0031994
300.0032162
300.0031251
300.0032063
300.0034055
300.0032642
300.003164
300.0030841
300.0031668
300.0034315
300.0030947
300.002984
300.0029425
300.0030472
300.0031554
300.003173
300.0032515
300.003178
300.0032654
300.0034152
300.0033917
300.0033364
300.0032768
300.0032704
300.0033026
300.003304
300.0029642
300.0027051
300.0018225
300.0017484
300.0019625
300.0023285
300.0027894
300.003159
300.0032904
300.0031905
300.0030936
300.0032637
300.003554
300.0034956
300.0033466
300.003246
300.0032656
300.0034651
300.0031731
300.0031142
300.0031414
300.0031756
300.0031894
300.00331
300.0034109
300.0032879
300.0032638
300.0033476
300.0033585
300.0033625
300.0033535
300.0033431
300.0033776
300.0032397
300.0028279
300.002786
300.0018983
300.0017463
300.0018367
300.002098
300.0025286
300.0030587
300.0033306
300.0031796
300.003085
300.0033372
300.0035882
300.0036129
300.0035583
300.003384
300.0032544
300.0031425
300.0030662
300.0031501
300.0032651
300.0032683
300.0032975
300.0034777
300.0035087
300.0034075
300.0032921
300.0033389
300.003365
300.003385
300.0033709
300.0033619
300.003396
300.003332
300.0031813
300.0028533
300.0030288
300.0028065
300.0026408
300.0026442
300.0028445
300.0031745
300.0033443
300.003198
300.0031097
300.0033852
300.0036161
300.0036138
300.0036037
300.0035472
300.0034204
300.0031454
300.0031897
300.003336
300.0033345
300.0033214
300.0034422
300.0035788
300.0035726
300.0035235
300.0034001
300.0034349
300.0034704
300.003438
300.0034065
300.0033938
300.0033961
300.0034152
300.0033511
300.0030395
300.0027998
300.0025235
300.0025194
300.0028319
300.0031996
300.0034232
300.003408
300.0032529
300.0031671
300.0033846
300.0036708
300.0036252
300.0036166
300.0036197
300.0035187
300.0032888
300.0033806
300.003401
300.0033241
300.0034147
300.0035482
300.0036311
300.0036352
300.0036054
300.0035628
300.0034832
300.003486
300.003455
300.0034143
300.003395
300.0033904
300.0034074
300.0032083
300.0028909
300.0028638
300.0025675
300.0023814
300.0024023
300.0027852
300.0032473
300.0033729
300.0033288
300.0032912
300.003305
300.0035063
300.0035347
300.0035733
300.0034959
300.0033844
300.0034123
300.0034773
300.003415
300.0033486
300.0034734
300.0035718
300.0036699
300.0036988
300.0036662
300.0037109
300.0035881
300.0035046
300.0034483
300.0034018
300.0033811
300.0033687
300.0033927
300.003204
300.0030249
300.0030655
300.0028174
300.0028215
300.0030975
300.0033432
300.0033709
300.0032704
300.003382
300.0033983
300.0034974
300.0034129
300.0034272
300.003461
300.003392
300.003392
300.003449
300.0034672
300.0034617
300.0034403
300.0034267
300.0034952
300.0036546
300.0037231
300.0036687
300.0038504
300.0036295
300.0035091
300.0034311
300.0033801
300.0033594
300.0033442
300.0033556
300.0032689
300.0030961
300.0028256
300.0028377
300.0030587
300.0032663
300.0033298
300.0032615
300.0031945
300.0034123
300.0033941
300.0033841
300.0033634
300.0033754
300.0033887
300.0033385
300.0034391
300.003463
300.0034695
300.003469
300.0034453
300.0034428
300.0034519
300.003533
300.0035994
300.0036167
300.0036479
300.0035654
300.0034613
300.0034082
300.0033597
300.0033312
300.0033104
300.003307
300.0032446
300.0031083
300.0029133
300.003119
300.0032223
300.0032525
300.003215
300.0031681
300.0031363
300.0035093
300.0034728
300.0034583
300.0034457
300.003435
300.0034095
300.0033651
300.0034829
300.0034902
300.0034895
300.0034836
300.0034656
300.0034773
300.0034697
300.0034912
300.0035218
300.0035423
300.0035236
300.0034896
300.0032794
300.0032722
300.0032691
300.0032585
300.0032446
300.0032354
300.0031765
300.0030464
300.0030807
300.0032702
300.0032704
300.0032435
300.0032046
300.0031663
300.0031086
300.0035439
300.0035136
300.0035131
300.003523
300.003507
300.0036591
300.003406
300.0034997
300.0034741
300.0034699
300.003472
300.003461
300.0034705
300.0034713
300.0034313
300.0034614
300.0034672
300.0034339
300.0033868
300.0032896
300.0032867
300.0032265
300.0031854
300.0031591
300.0031168
300.0030198
300.0030734
300.0032817
300.0033427
300.003334
300.0033127
300.0032755
300.0032287
300.003126
300.0035236
300.0035225
300.0035318
300.0035145
300.003397
300.0033316
300.0034084
300.0034557
300.0034566
300.0034507
300.0034635
300.0034355
300.0034701
300.0034509
300.0034464
300.0034146
300.0033693
300.0032611
300.0031829
300.0031122
300.0031023
300.0030379
300.0030222
300.0030024
300.0029875
300.0030988
300.0032909
300.0033774
300.0033814
300.0033693
300.0033572
300.0033349
300.0032972
300.0031722
300.0035086
300.0035109
300.0034877
300.0033901
300.0032225
300.0032383
300.0033615
300.0034124
300.0034354
300.0034384
300.0034496
300.003409
300.0034059
300.0033812
300.0033467
300.0032681
300.00314
300.0030104
300.002932
300.0028707
300.0028648
300.003023
300.0030781
300.0031449
300.0031789
300.003247
300.0033639
300.0034292
300.0034148
300.003394
300.0033837
300.0033723
300.0033553
300.0032308
300.0034885
300.0034538
300.0033439
300.0031724
300.0030286
300.0030924
300.0032336
300.0033247
300.003389
300.0033935
300.0033742
300.0033091
300.0033465
300.0032589
300.0031642
300.0030449
300.0029975
300.0029441
300.0028346
300.0026822
300.002229
300.0028954
300.0032123
300.0033646
300.0033485
300.0032799
300.0033678
300.0034653
300.0034564
300.0034348
300.003422
300.0034106
300.0034067
300.0032895
300.0034454
300.003397
300.0032756
300.0031231
300.0030178
300.0029259
300.0029338
300.0030445
300.0031402
300.0032684
300.0033341
300.0033567
300.003315
300.0032038
300.0031087
300.003122
300.0031114
300.0031121
300.0029712
300.0027212
300.0025593
300.0013856
300.002083
300.0029772
300.00343
300.0035042
300.0033789
300.0032204
300.0033836
300.0034144
300.0034223
300.0034392
300.003446
300.0034482
300.0033286
300.0033288
300.0032185
300.0031177
300.0030926
300.0030191
300.0029344
300.0030293
300.0029734
300.0030701
300.0031409
300.0031933
300.0032011
300.0031401
300.003073
300.0031176
300.003197
300.0032204
300.0031517
300.0027426
300.0023553
300.00268
300.0013461
300.0008773
300.0018777
300.0029962
300.0034754
300.0035308
300.0033751
300.0032217
300.0033411
300.0033853
300.0034232
300.0034415
300.0034311
300.0032889
300.0031414
300.0031027
300.0030673
300.003052
300.0030182
300.0031157
300.0032898
300.0031199
300.0032683
300.0032492
300.0031163
300.003117
300.0031055
300.0031454
300.0030609
300.0031922
300.0031908
300.0032378
300.0030489
300.0029127
300.0029762
300.0021689
300.0032509
300.0035555
300.0035609
300.0035582
300.0035509
300.0035234
300.0033879
300.0032472
300.0032704
300.0033382
300.0033728
300.003367
300.0032605
300.002987
300.0029918
300.0030093
300.0029883
300.0029766
300.0030964
300.003199
300.0030459
300.0031543
300.0031159
300.0030399
300.0030712
300.003125
300.0031542
300.0031487
300.0030743
300.0031178
300.0031778
300.0031234
300.0030714
300.0031981
300.0030912
300.0035212
300.0034519
300.0034638
300.0035003
300.0035208
300.0035073
300.0034951
300.0033819
300.0032376
300.003225
300.0032706
300.0032961
300.0032568
300.0029186
300.0029387
300.0029233
300.0029163
300.0029897
300.0030534
300.0029566
300.0030182
300.0029935
300.0029607
300.0030021
300.0030686
300.0031614
300.003217
300.0031731
300.0031844
300.0032986
300.0032366
300.0031459
300.0034253
300.0036076
300.003538
300.0035112
300.0035017
300.0035344
300.0035742
300.0035205
300.0035556
300.0035237
300.0033676
300.0032173
300.0031929
300.003236
300.0032659
300.0029
300.0028993
300.0029003
300.0028963
300.0029173
300.0029371
300.0029113
300.0029255
300.002922
300.0029306
300.0029937
300.0030884
300.0035229
300.0034866
300.0034872
300.0030445
300.0031981
300.0032924
300.0031824
300.0030672
300.0031251
300.0033359
300.0034361
300.0028905
300.0028873
300.0029045
300.0029174
300.0029076
300.0029003
300.0030772
300.0032049
300.003187
300.0031655
300.0031524
300.0031739
300.00315
300.0030955
300.0030848
300.0031237
300.0031363
300.0031298
300.0031088
300.0030769
300.0030378
300.0029896
300.0029311
300.0028881
300.0028773
300.0028934
300.0029198
300.0029511
300.0029958
300.0030555
300.0031194
300.0031752
300.0032184
300.0032502
300.0032732
300.0032898
300.0033016
300.0033097
300.0033152
300.0033221
300.0031083
300.0032769
300.0033033
300.0033159
300.0033101
300.0033186
300.0032994
300.0032585
300.0032822
300.0033587
300.003336
300.0032972
300.0032673
300.0032366
300.0032001
300.0031522
300.0030895
300.0030365
300.0030069
300.0030025
300.0030075
300.0030082
300.0030096
300.003027
300.0030699
300.0031278
300.0031819
300.0032233
300.0032526
300.0032731
300.0032873
300.0032972
300.0033052
300.0033148
300.0031384
300.003294
300.0033551
300.0033909
300.0033928
300.0033819
300.0033547
300.0033236
300.0033617
300.003474
300.0034467
300.0033943
300.0033594
300.0033234
300.0032837
300.003236
300.0032006
300.0031793
300.0031479
300.0031179
300.0031
300.0030844
300.0030607
300.0030377
300.003037
300.0030718
300.0031282
300.0031822
300.0032228
300.0032508
300.0032697
300.0032831
300.0032949
300.0033067
300.0032
300.0033221
300.0033845
300.0034351
300.0034562
300.0034498
300.0034081
300.0033694
300.0034175
300.0034889
300.0034698
300.0034493
300.0034442
300.0034189
300.0033719
300.0033051
300.0033038
300.0033227
300.0032996
300.0032448
300.0031894
300.0031507
300.0031159
300.0030742
300.0030383
300.003033
300.0030681
300.0031248
300.0031783
300.0032185
300.003246
300.0032646
300.0032795
300.0032931
300.0032491
300.003344
300.0033937
300.0034416
300.0034665
300.0034705
300.0034395
300.0033926
300.0034327
300.0034688
300.0034427
300.0034416
300.0034651
300.0034517
300.0034146
300.0033404
300.0033808
300.0034188
300.0034153
300.0033754
300.0032883
300.0032101
300.0031553
300.0031057
300.003056
300.0030216
300.0030225
300.0030606
300.0031162
300.0031689
300.0032087
300.0032351
300.0032543
300.0032697
300.0032701
300.0033565
300.0033989
300.0034296
300.0034552
300.003476
300.0034458
300.0034347
300.0034261
300.0034362
300.0033999
300.0034176
300.0034684
300.0034645
300.0034184
300.0033498
300.0034084
300.0034516
300.0034525
300.0034268
300.0033451
300.0032465
300.0031728
300.0031205
300.0030743
300.0030329
300.0030097
300.0030169
300.0030517
300.0031021
300.0031521
300.0031884
300.0032134
300.0032288
300.0032666
300.0033489
300.0033903
300.003408
300.0034323
300.0034677
300.0034237
300.0033374
300.0034068
300.0034071
300.0033616
300.0033924
300.0034502
300.003454
300.0034077
300.0033394
300.0033873
300.0034298
300.0034285
300.0034184
300.0033522
300.0032609
300.003182
300.0031317
300.0030961
300.0030626
300.0030308
300.0030126
300.0030163
300.0030394
300.0030808
300.0031227
300.003153
300.0031616
300.0032506
300.0033186
300.0033686
300.0033841
300.003408
300.0034537
300.003407
300.0034215
300.0033764
300.0033794
300.0033347
300.0033695
300.0034255
300.0034352
300.0033936
300.0033093
300.0033255
300.0033732
300.0033758
300.0033837
300.0033453
300.0032779
300.0032096
300.0031619
300.0031309
300.0031028
300.0030634
300.0030278
300.0030128
300.0030056
300.0030193
300.0030538
300.0030835
300.0030775
300.0032521
300.0032707
300.0033297
300.0033635
300.0033899
300.0034342
300.003376
300.0033793
300.003321
300.0033441
300.0032953
300.0033433
300.0034101
300.0034225
300.0033714
300.0032492
300.0032032
300.0032472
300.0033233
300.0033729
300.003369
300.0033216
300.0032584
300.0032138
300.0031781
300.0031428
300.0030668
300.0030071
300.0029904
300.0029853
300.0029818
300.0030088
300.0030344
300.0030183
300.0033088
300.0032325
300.0032728
300.0033471
300.0033842
300.003422
300.0033691
300.0033597
300.0033606
300.0033554
300.0033268
300.0032912
300.0033872
300.003399
300.0033195
300.0031193
300.0030187
300.0031597
300.0033508
300.0033978
300.0034069
300.0033735
300.0033138
300.003278
300.0032359
300.0031885
300.0030131
300.0029702
300.0029109
300.0029359
300.0029513
300.002991
300.0030234
300.0030156
300.0033665
300.0032567
300.0032314
300.0033316
300.0033804
300.0034082
300.0033136
300.0032898
300.0033947
300.0032735
300.0033054
300.0032214
300.0032483
300.0032784
300.0032036
300.003061
300.0030194
300.0032054
300.0034036
300.0034056
300.0034125
300.0033971
300.0033613
300.0033452
300.003296
300.0032517
300.0029779
300.0031165
300.002916
300.002907
300.0029067
300.0029805
300.0030369
300.0030534
300.0033687
300.003292
300.0032746
300.0033411
300.003373
300.0033591
300.0033527
300.0032591
300.0034938
300.0032503
300.0033236
300.0031867
300.0031571
300.0031598
300.0031261
300.0031579
300.0031108
300.0032443
300.0034014
300.0033947
300.0034032
300.0033996
300.0033925
300.0034017
300.0033201
300.0032996
300.0030704
300.0031634
300.003
300.0029288
300.0029101
300.0029845
300.0030574
300.0031049
300.0033434
300.003292
300.0033237
300.0034017
300.0033979
300.0033662
300.0032867
300.0032221
300.0035157
300.0031923
300.0031796
300.0031783
300.00322
300.0032177
300.003257
300.0032953
300.0032265
300.0032954
300.0033797
300.003363
300.0033851
300.0033801
300.0034013
300.0034382
300.003294
300.0033592
300.0031436
300.0029371
300.0029772
300.0029906
300.0030199
300.0030453
300.0031014
300.0031564
300.0033217
300.0032887
300.0033346
300.0034466
300.003462
300.0034187
300.0033594
300.0032633
300.0032181
300.0032279
300.0033416
300.0034037
300.0033833
300.0033595
300.0034165
300.0034303
300.0033472
300.0033907
300.0034475
300.0034589
300.003431
300.0034197
300.0034194
300.0034417
300.0033432
300.0032259
300.0031827
300.0027053
300.0027623
300.0029227
300.0030839
300.0031176
300.003186
300.0032023
300.0033125
300.0032931
300.0033359
300.0035132
300.0034968
300.0034424
300.0033425
300.0032599
300.0031337
300.0033433
300.0034697
300.0034765
300.0034402
300.0034592
300.0035267
300.0035502
300.0034611
300.0035315
300.003524
300.0034764
300.0034286
300.0034028
300.0034109
300.0034383
300.0034791
300.0034694
300.0033436
300.0030865
300.0030992
300.003074
300.0031994
300.0032822
300.0033296
300.0032542
300.0033189
300.0033104
300.0033554
300.0035953
300.003495
300.0034406
300.0033366
300.0033537
300.0033582
300.0034948
300.0035177
300.0034681
300.00346
300.0034935
300.0035843
300.0036232
300.0035605
300.0036681
300.0035585
300.0035038
300.0034442
300.0034091
300.0034091
300.0034225
300.0034646
300.0033408
300.0032994
300.0033324
300.003268
300.0033244
300.0034055
300.0032987
300.0032828
300.0032309
300.0033356
300.0033438
300.0033556
300.0036035
300.0035045
300.0033715
300.0033497
300.0033795
300.00346
300.0035019
300.0034853
300.0034472
300.0034494
300.0035043
300.0035995
300.0036762
300.0035929
300.0037628
300.0036036
300.0035523
300.0034772
300.0034273
300.0034162
300.0034238
300.0034076
300.0032125
300.0031572
300.0034131
300.0031785
300.0030947
300.0031984
300.0033708
300.0033275
300.0032107
300.0033746
300.0034103
300.0033806
300.0034522
300.0034705
300.0033844
300.0033251
300.0034178
300.0034969
300.0034753
300.0034752
300.0034959
300.0035064
300.0035413
300.0036101
300.0037548
300.003606
300.004156
300.0036342
300.0035381
300.0034388
300.0033807
300.0033629
300.0033508
300.0033513
300.0032598
300.0031413
300.0031245
300.003249
300.0032936
300.0033826
300.003399
300.0032535
300.0031913
300.0033955
300.0033974
300.003354
300.0034104
300.0033876
300.0033438
300.0033178
300.0034643
300.0034931
300.0034771
300.0034765
300.00349
300.0035329
300.0035296
300.0035532
300.0035561
300.003489
300.0036179
300.0034503
300.0033477
300.0033014
300.0032722
300.0032633
300.003257
300.003249
300.0031759
300.0030649
300.0029594
300.0032081
300.0033077
300.0033795
300.0033177
300.0031952
300.003185
300.003462
300.0034358
300.0034058
300.0034056
300.0033538
300.0033308
300.0033531
300.0034857
300.0034986
300.0034851
300.003483
300.0034875
300.0035236
300.003517
300.0034689
300.0034278
300.0033792
300.003435
300.0033279
300.0034266
300.0032649
300.0031763
300.003162
300.0031693
300.0031666
300.0031064
300.0030167
300.0030875
300.0032301
300.0032871
300.0032873
300.0031905
300.0031994
300.00319
300.0034684
300.0034072
300.0033768
300.0033965
300.0033379
300.0034337
300.0033832
300.0034715
300.0034867
300.003492
300.0034902
300.0035099
300.0035264
300.0034567
300.0034381
300.0033659
300.0033283
300.003308
300.0032204
300.0031656
300.0030899
300.0030733
300.0030763
300.0030834
300.0030456
300.0029601
300.0029786
300.003076
300.0031626
300.0032267
300.0032433
300.003255
300.0032898
300.0032013
300.003348
300.0033101
300.003286
300.0033411
300.0032301
300.0032118
300.0033221
300.0033595
300.0034367
300.003466
300.003485
300.0034678
300.0034005
300.0033239
300.0033064
300.003261
300.0032055
300.0031201
300.0030334
300.0029487
300.0029196
300.0029135
300.0029332
300.0029344
300.0029047
300.0029608
300.0030762
300.0032463
300.003299
300.0033238
300.0033411
300.0033621
300.003379
300.0032308
300.0032559
300.0031995
300.0031769
300.0031671
300.0031082
300.0031945
300.0032538
300.0033045
300.0033452
300.0033862
300.0034551
300.0034555
300.0033908
300.0032808
300.0032586
300.0031769
300.0030858
300.0030368
300.0029333
300.0028684
300.0027244
300.0028508
300.0028899
300.0029636
300.003012
300.0030971
300.0033259
300.0033928
300.0033979
300.0033952
300.0034074
300.0034221
300.0034434
300.003286
300.0031912
300.0031492
300.0030956
300.0030427
300.0030219
300.00308
300.0031685
300.0032351
300.0032887
300.0033093
300.0033705
300.003389
300.0033542
300.0032944
300.0031828
300.0030701
300.0030059
300.0030706
300.0028683
300.0026482
300.0026319
300.0026686
300.0028697
300.0030086
300.003072
300.0031507
300.003369
300.0034084
300.0034154
300.0034183
300.0034333
300.0034502
300.0034756
300.003362
300.0031753
300.0031479
300.0031381
300.0031419
300.0031241
300.0031097
300.0030155
300.0030667
300.0031126
300.0032029
300.0032528
300.003253
300.0032172
300.0031886
300.0031956
300.0032827
300.0032293
300.0031719
300.0030724
300.0029288
300.0025907
300.0028194
300.002625
300.0028719
300.0030704
300.003131
300.0031522
300.0032261
300.0033482
300.0033723
300.0034025
300.0034444
300.0034754
300.003497
300.003421
300.0031406
300.0031707
300.0032647
300.0032747
300.0031991
300.0031794
300.0031883
300.0031393
300.0031864
300.0032035
300.0031949
300.0031759
300.0031523
300.0031346
300.0032411
300.0033497
300.00335
300.0033355
300.002977
300.0030705
300.0035419
300.0037995
300.003034
300.0027756
300.0029486
300.0031356
300.00321
300.0031063
300.0031087
300.0032774
300.0033803
300.0034764
300.003526
300.0035141
300.003395
300.0030994
300.0032935
300.0033213
300.0032497
300.0031733
300.0032958
300.0033697
300.0033317
300.0034019
300.0033963
300.0032864
300.0032671
300.0033616
300.0032641
300.0033819
300.0033548
300.0033633
300.0033458
300.0031715
300.003109
300.0028815
300.0030359
300.0030486
300.0032027
300.0033974
300.0034327
300.0034375
300.0033368
300.0031553
300.0031085
300.0031829
300.0033302
300.0034355
300.0034421
300.0033574
300.003078
300.0031989
300.0032408
300.0031926
300.0031588
300.0033025
300.0033478
300.0032956
300.0033329
300.0032855
300.0032473
300.0032733
300.0033119
300.0033373
300.0033398
300.0033181
300.0032996
300.0033049
300.0031412
300.0030266
300.0029716
300.0029577
300.0031577
300.0032554
300.0033934
300.0034572
300.0035011
300.0034381
300.0032771
300.0031247
300.003087
300.003176
300.003296
300.0033498
300.0033349
300.0031434
300.0031629
300.0031545
300.003127
300.003194
300.0031972
300.0031581
300.0031576
300.0031336
300.003098
300.0031478
300.0032494
300.0033572
300.0034265
300.0033801
300.003361
300.0033877
300.0033683
300.0031962
300.0031941
300.0033166
300.0033918
300.0034233
300.003466
300.0035229
300.0035611
300.0035618
300.0034212
300.0031706
300.0030736
300.003095
300.0031902
300.0032557
300.0032942
300.0031681
300.0031476
300.0031669
300.0031482
300.0031585
300.003135
300.0031464
300.0031262
300.0031149
300.0030914
300.0031229
300.0032589
300.0034794
300.0034642
300.00335
300.0031887
300.0029988
300.002932
300.0028904
300.0029506
300.0031018
300.0032687
300.003378
300.0031563
300.0031295
300.0031226
300.0030978
300.0031241
300.0031212
300.0031139
300.0032242
300.0031617
300.0030939
300.0030441
300.0030364
300.0030098
300.0029632
300.0029334
300.0029377
300.0029532
300.0029647
300.0029587
300.0029371
300.0029094
300.0028824
300.0028566
300.0028527
300.0028811
300.0029285
300.0029806
300.0030371
300.0031006
300.0031644
300.0032201
300.0032637
300.0032959
300.003319
300.0033355
300.0033472
300.0033556
300.0033613
300.0033653
300.0033707
300.0031664
300.0033104
300.0033028
300.0032662
300.0032133
300.0031855
300.0031579
300.0031292
300.0031326
300.0031322
300.0031019
300.0030928
300.0030912
300.0030755
300.0030484
300.003015
300.002971
300.0029471
300.0029542
300.0029853
300.003017
300.0030439
300.0030756
300.00312
300.0031742
300.0032259
300.0032669
300.0032964
300.0033171
300.0033317
300.0033419
300.0033496
300.0033569
300.0033651
300.0031659
300.003315
300.0033386
300.0033478
300.0033228
300.0032758
300.0032263
300.0032117
300.003236
300.0032559
300.0032116
300.0031791
300.0031717
300.0031551
300.003132
300.0031037
300.0030739
300.0030552
300.0030482
300.0030581
300.0030702
300.0030738
300.0030745
300.0030875
300.0031223
300.0031733
300.003224
300.0032634
300.0032912
300.0033105
300.0033241
300.0033355
300.0033482
300.0033593
300.0031719
300.0033035
300.0033386
300.0033739
300.003406
300.003356
300.0032744
300.0032741
300.0033079
300.0033741
300.0033707
300.0033018
300.0032714
300.0032386
300.0032013
300.0031755
300.0031818
300.0031863
300.0031657
300.0031476
300.0031349
300.0031164
300.0030937
300.0030774
300.0030825
300.0031166
300.0031688
300.0032197
300.0032587
300.003286
300.003305
300.0033206
300.0033365
300.0033495
300.0031909
300.0032942
300.0033324
300.0033624
300.0033934
300.0033902
300.0032982
300.0033076
300.0033389
300.0033801
300.0033664
300.0033624
300.0033708
300.0033357
300.0032457
300.0032193
300.0032769
300.0033241
300.0033166
300.0032684
300.0032172
300.0031673
300.0031214
300.0030817
300.0030588
300.0030667
300.0031056
300.0031601
300.0032112
300.0032505
300.0032781
300.0032989
300.0033177
300.0033325
300.0032167
300.003295
300.0033233
300.0033413
300.0033699
300.0033814
300.0033134
300.0032995
300.0033319
300.0033434
300.0033154
300.0033483
300.0033849
300.0033699
300.0032828
300.0032398
300.0033268
300.003372
300.0033851
300.0033741
300.0033023
300.0032215
300.003152
300.0030942
300.0030519
300.0030359
300.0030514
300.0030937
300.0031464
300.0031966
300.0032358
300.0032638
300.0032864
300.0033019
300.0032273
300.0032956
300.0033147
300.0033114
300.003334
300.0033629
300.0033041
300.0033019
300.0033066
300.0033017
300.0032652
300.0033047
300.003349
300.0033581
300.0032998
300.0032397
300.0033118
300.0033494
300.0033648
300.0033782
300.003348
300.0032649
300.0031828
300.0031157
300.0030641
300.0030341
300.0030268
300.003046
300.0030803
300.0031265
300.0031727
300.0032089
300.0032357
300.0032462
300.0032232
300.0032763
300.0033
300.0032785
300.003294
300.0033284
300.0032762
300.0032651
300.0032886
300.0032666
300.0032469
300.0032714
300.0033058
300.0033325
300.0032985
300.0032245
300.0032781
300.0033112
300.0033262
300.003345
300.0033412
300.0032839
300.0032113
300.0031482
300.0030956
300.0030611
300.0030352
300.0030331
300.003037
300.0030604
300.0030959
300.0031353
300.0031636
300.0031575
300.0032284
300.0032411
300.0032776
300.0032516
300.0032638
300.0032949
300.0032398
300.00328
300.0032574
300.0032501
300.0032605
300.0032732
300.0033003
300.003326
300.0032746
300.0031842
300.0032267
300.0032703
300.0032958
300.0033188
300.0033309
300.003301
300.0032458
300.0031936
300.0031418
300.0031068
300.0030599
300.0030422
300.003018
300.0030174
300.0030294
300.0030638
300.0030844
300.0030568
300.0032712
300.0032177
300.0032489
300.0032367
300.0032523
300.0032655
300.0032061
300.0032232
300.0032127
300.0032375
300.0033172
300.0032922
300.0033111
300.0033166
300.003216
300.0030871
300.0030905
300.003204
300.0032799
300.0033043
300.0033306
300.0033279
300.0032921
300.0032524
300.0032017
300.0031646
300.0030803
300.0030428
300.0030054
300.0029979
300.0029927
300.0030223
300.0030305
300.0029935
300.0033249
300.0032385
300.0032211
300.0032337
300.0032584
300.0032496
300.0031821
300.0031111
300.0031482
300.0031389
300.0033028
300.0032818
300.0032879
300.0032513
300.0031426
300.0030255
300.0030248
300.0031784
300.0032732
300.0032789
300.0033073
300.0033284
300.0033316
300.0033234
300.0032817
300.0032504
300.003128
300.003056
300.0029969
300.0029951
300.0029826
300.0030207
300.0030201
300.0029905
300.0033248
300.0032902
300.0032458
300.0032474
300.0032738
300.0032337
300.0031329
300.0030303
300.0031431
300.003048
300.0031955
300.0031778
300.0031797
300.0031463
300.0030929
300.0030861
300.003057
300.0031788
300.0032531
300.0032573
300.0032832
300.0033092
300.0033467
300.003384
300.0033523
300.0032883
300.003171
300.0029538
300.0029882
300.0029754
300.0029832
300.0030415
300.0030473
300.0030288
300.003295
300.0032958
300.0032888
300.0032931
300.0032713
300.0032066
300.0031942
300.0032166
300.0032871
300.0031031
300.0032123
300.0032039
300.0032492
300.0032325
300.0032229
300.0032031
300.0031322
300.0032188
300.003276
300.0032683
300.0032719