/*--------------------------------*- C++ -*----------------------------------*\
  =========                 |
  \\      /  F ield         | OpenFOAM: The Open Source CFD Toolbox
   \\    /   O peration     | Website:  https://openfoam.org
    \\  /    A nd           | Version:  8
     \\/     M anipulation  |
\*---------------------------------------------------------------------------*/
FoamFile
{
    version     2.0;
    format      ascii;
    class       volScalarField;
    location    "0.7";
    object      htcConv;
}
// * * * * * * * * * * * * * * * * * * * * * * * * * * * * * * * * * * * * * //

dimensions      [1 0 -1 1 0 0 0];

internalField   uniform 0;

boundaryField
{
    walls
    {
        type            calculated;
        value           uniform 0;
    }
    region0_to_wallFilmRegion_wallFilmFace
    {
        type            convectiveHeatTransfer;
        L               1;
        value           nonuniform List<scalar> 
1019
(
1.941594241
1.268180241
1.544627362
1.530038107
2.620400782
2.51120709
2.572800432
2.678077807
2.838536129
2.997637586
3.137823996
3.191195614
3.150315757
3.046644444
3.004821946
2.927314039
2.454877601
2.027039213
2.241689896
2.197340764
2.207953108
2.058765564
2.017895546
2.062394292
2.131130844
2.285773806
2.384371319
2.349082542
2.201828935
1.980130718
1.892924371
1.731219037
1.584825884
1.338782025
2.567819516
2.487276996
2.557972645
2.693527635
2.909968632
3.076386501
3.178461243
3.224553734
3.244375382
3.26738661
3.494455359
4.148209843
2.980783904
2.496657953
2.37233882
2.154725724
2.225186835
2.179219221
2.142587737
2.166214007
2.257075232
2.377499089
2.426634757
2.380577897
2.23632918
2.082167666
1.977295286
1.808876935
1.613617178
1.567079219
2.476372317
2.411526765
2.478567787
2.594641284
2.800132335
2.979027706
3.148394969
3.330196319
3.535736041
3.801851846
4.464845106
4.735636093
3.780050586
2.648939127
2.414114568
1.856899427
2.083059667
2.197107204
2.170288456
2.159703909
2.284196918
2.407526447
2.419563953
2.357653505
2.134668097
1.880354273
1.948468639
1.731515443
1.603266192
1.569094537
1.759846586
2.358335299
2.299843197
2.380955547
2.503329934
2.696147557
2.822194219
2.902459427
2.935869901
2.957353002
3.050497513
3.300877863
4.055614728
2.717391075
2.129025259
1.879673359
1.890147986
2.178974043
2.129261273
1.962825006
1.858811586
2.103844509
2.316911499
2.351108949
2.296889133
1.998028843
1.925991895
1.847931224
1.558859517
1.591171125
1.725898906
1.933515815
2.229162716
2.166836779
2.28864666
2.465638818
2.713053417
2.881331654
3.001573557
3.075469908
3.077130601
2.970414649
2.845441869
2.514041959
1.956178986
1.665304251
1.652942395
1.855699754
2.080395154
1.890474008
1.429473535
1.778488288
2.16076818
2.279845849
2.300444535
2.248731883
1.940444597
1.690081815
1.719655053
1.625892655
1.683974199
1.841295249
1.991522257
2.117400157
2.048269446
2.219877142
2.446585227
2.725638879
2.897895379
2.990918564
3.008856051
2.940902535
2.767499574
2.487851223
2.010668497
1.623472837
1.704287718
1.548449748
1.626131119
1.999379336
1.929425053
1.777127572
1.864167049
2.068507117
2.16362739
2.172549888
2.110742237
2.002301738
1.928001751
1.966740163
1.868945712
1.817617496
1.969775259
2.199271503
2.046258981
2.025252354
2.246319371
2.48395477
2.756019221
2.919423033
2.995584522
2.998021064
2.940938955
2.811319193
2.59268453
2.233995535
1.97258758
1.853824392
1.817597291
1.783162919
1.80167227
1.970941837
1.820402375
1.812273494
1.839675531
1.939131595
2.034479168
2.104191517
2.142110917
2.176584544
2.176750237
2.012978018
1.879998287
2.026254094
2.335560803
1.909888788
2.005519724
2.267179879
2.489461413
2.737359618
2.872518462
2.926114339
2.918891024
2.85369354
2.72087259
2.511095594
2.230962033
1.988802534
1.922431364
1.928038876
2.119806486
2.178633288
2.223248525
1.966294059
1.54035478
1.458490621
1.934753566
2.152899064
2.189664942
2.204190207
2.187412345
2.147929793
2.02199257
1.906547854
2.027141059
2.344913977
1.632241565
1.868212692
2.198297718
2.422042619
2.657392084
2.789145456
2.841896009
2.832088606
2.765642968
2.637647166
2.449261036
2.219915749
1.978738583
1.82307832
1.876695338
2.071141373
2.164713505
2.207973127
2.042236333
1.725060855
1.823834874
2.114420185
2.130867088
2.045051441
2.092451016
2.163288273
2.135367473
2.084046617
1.974645666
2.081482103
1.557877715
1.920001818
2.278284121
2.462502492
2.641977755
2.743087081
2.785274313
2.77609956
2.716024329
2.599213273
2.429630411
2.222731531
1.904735032
1.480711733
1.485241763
1.851838582
1.985932601
2.035168999
1.912240234
1.57702592
1.893663829
2.097737189
2.049371018
1.977387211
2.086523319
2.207595155
2.125635144
2.139745146
2.008089737
2.195524061
1.835741289
2.121705115
2.454897434
2.596727403
2.705376784
2.747919315
2.763311569
2.764998502
2.735038056
2.655153251
2.516928386
2.312317996
1.958017119
1.336062804
1.592001771
1.826076821
1.991842522
2.03269809
1.650550723
1.2307283
2.061135708
2.102060982
1.991158999
1.823815835
2.023256246
2.167658069
2.0361297
2.105134517
1.954888758
2.2714571
2.152626641
2.365584789
2.654015947
2.75540237
2.792163184
2.766475916
2.743012372
2.77990051
2.813827907
2.80301698
2.713422071
2.505834763
2.048246692
1.554881185
2.267206101
1.82947241
1.894711378
1.81684609
1.267267295
1.657824282
1.992967953
1.952583743
1.707722918
1.520841842
1.948273147
2.076008362
1.922805956
2.163393954
1.914793282
2.684204251
2.339755129
2.463770806
2.698812013
2.763012093
2.768335886
2.70291543
2.643791363
2.762863479
2.918338837
2.984085006
2.960810378
2.835834932
2.656018723
2.75323581
2.928363954
2.598652682
2.331920603
1.931451777
1.428226572
1.757232206
1.9514087
1.869279457
1.402626887
1.53168528
1.869265367
1.928276785
1.738110339
1.969699973
1.937782516
2.526332234
2.630139586
2.864124832
2.935572484
2.90637554
2.721254749
2.497568707
2.733016745
3.031851527
3.194006068
3.279730761
3.332730065
3.338010214
3.251730094
3.216029949
2.783394497
2.647472525
2.221084674
1.772873291
1.86161702
1.979970141
1.764714607
1.291127355
1.600636327
1.835798441
1.859563471
1.674333734
2.025044043
1.552817323
2.628261755
2.654390964
2.801081981
2.757149857
2.649593981
2.528733864
2.249923505
2.332526735
3.140304929
3.343320597
3.494871627
3.602410011
3.570245459
3.399786032
3.237781343
2.464635766
2.067746604
1.921848796
1.803730343
1.902350054
1.948513278
1.615089118
1.476512637
1.780697947
1.882079344
1.756185448
1.808446057
2.532434307
1.577724383
2.777405515
2.881524524
3.14656775
3.24029764
3.304555164
3.296939551
3.107306123
2.715804361
3.189189057
3.407048431
3.565703467
3.673372882
3.656417134
3.3946817
3.013884439
1.502029156
1.56631311
1.113807933
1.643074293
1.863146638
1.870703446
1.536779743
1.545207819
1.760288976
1.765347105
1.666328807
1.227610541
1.561303901
1.2244147
2.990601967
3.127575979
3.440472714
3.575295841
3.614298718
3.522286927
3.341040877
3.135058682
3.269548633
3.425228629
3.49322162
3.538804436
3.508182461
3.255984582
2.752118225
1.531833527
1.456375024
1.522084097
1.559533086
1.822868137
1.572074806
1.123832173
1.377797384
1.726362235
1.72093803
1.48699918
1.182580551
1.396231311
1.518362577
3.145389327
3.245180985
3.541535632
3.706351006
3.78653322
3.739498444
3.591639552
3.354108625
3.30967892
3.399925326
3.328965044
3.313784537
3.244468428
3.032923127
2.589303776
1.878614226
1.814263298
1.780564464
1.693133847
1.611392982
1.509986669
1.802738168
1.675267332
1.443810791
1.477159512
1.475779062
1.386011365
1.547164738
1.594612391
3.213012081
3.264204783
3.520931373
3.710175993
3.8241433
3.821900851
3.689094608
3.370056725
3.237356024
3.286610375
3.141385269
3.103637562
3.041817241
2.877279018
2.5626849
2.168042407
2.086444972
1.936998111
1.878226071
1.732018018
2.02507537
2.000351766
1.925690228
1.424637145
1.472383982
1.482998449
1.262377315
1.378784189
1.544684968
3.20161654
3.209512941
3.428023519
3.606987045
3.750187631
3.773711011
3.633179027
3.266712872
3.137184893
3.136775597
3.01673847
2.983271459
2.925340266
2.814520782
2.623750967
2.389734328
2.294529697
2.11052997
2.080088627
2.006673648
2.271659563
2.118811788
1.898864848
1.435919699
1.634129531
1.443534703
1.193710858
1.405852803
1.224884619
3.125324382
3.097215275
3.277189228
3.433339733
3.563943637
3.592533843
3.446310756
3.134885895
3.056131686
3.033095165
2.96580025
2.936277859
2.888734787
2.817105594
2.696661025
2.533226604
2.428135636
2.206699335
2.295435372
1.840023827
2.434887272
2.037455867
1.613618348
1.736307876
1.502104805
1.084548696
1.359915279
1.629207721
1.706353536
2.996742243
2.944562623
3.087103347
3.214448529
3.330932935
3.356063496
3.239849064
3.042204605
3.00698037
2.984255077
2.944273154
2.914436582
2.880098114
2.831216159
2.746337761
2.611711035
2.464895826
2.177255067
2.213955782
1.604785882
2.398415045
1.726443383
1.505391966
1.889035377
1.762348088
1.18590413
1.537118669
1.784795399
1.869460141
2.827149758
2.7708531
2.887547876
2.988704492
3.092290483
3.130848853
3.076021247
2.985174524
2.977037798
2.95923618
2.926721541
2.900084882
2.870642679
2.832024362
2.772503895
2.693764209
2.610422027
2.599499469
2.698319518
2.386563889
2.490020645
1.859631985
1.620641709
2.113389726
2.135194093
1.8482721
1.853905288
1.916330564
1.876276242
2.630767551
2.598328571
2.708858416
2.799113481
2.896410392
2.95258786
2.956926849
2.939079721
2.946722956
2.937836422
2.914272482
2.886495713
2.853239104
2.810714547
2.739302226
2.602586462
2.314967768
1.95383672
2.748573643
4.001168026
2.448470232
2.065154806
2.221593236
2.475990366
2.459072775
2.298010635
2.293576458
2.144356521
1.972204915
1.909991708
2.432178543
2.45006787
2.573729807
2.665036404
2.760234425
2.826208953
2.86229169
2.878314992
2.892589653
2.889522293
2.873298428
2.850378687
2.825330492
2.806994102
2.816571418
2.915919345
3.266710218
4.461726752
6.044769908
6.87698468
4.525876544
2.106841364
2.101068927
2.496783307
2.610859867
2.596268095
2.580588525
2.381889944
2.121876659
1.987931589
2.264873105
2.340443582
2.486284729
2.580516519
2.669142551
2.730474193
2.770047673
2.790344405
2.798202145
2.788121082
2.763123105
2.729756021
2.700188677
2.696776758
2.76001954
2.943089937
3.359820633
4.042529649
5.241829767
6.015918235
3.738519222
3.090329737
2.74955227
2.838993268
2.793799966
2.742990056
2.692574837
2.483793244
2.220354001
2.044090318
2.152341655
2.263762554
2.428450369
2.52208723
2.598446425
2.644165905
2.668977379
2.674277305
2.662478049
2.630587194
2.57943876
2.515744727
2.458901768
2.445691116
2.527033085
2.710890813
3.076972987
3.599976461
4.371801746
5.212912725
2.924530708
3.281581912
2.880398736
2.963408646
2.875188555
2.753995749
2.676697828
2.463568291
2.244423059
2.042568857
2.077815631
2.197687865
2.372407183
2.467298224
2.535217076
2.570199103
2.584040981
2.578040328
2.551599201
2.499388811
2.415959059
2.302186408
2.181459366
2.113101187
2.184796037
2.358382518
2.711260119
3.17535991
3.68047323
4.328430638
2.816491244
3.13082476
2.828957358
2.965766312
2.89524427
2.657302803
2.555366713
2.388114321
2.195263101
1.994105041
1.986314716
2.109939094
2.295206082
2.40384285
2.479861307
2.522118281
2.542838299
2.541904812
2.516350291
2.461109526
2.370191643
2.241814953
2.090181642
1.953136921
1.919926255
2.01683363
2.317972749
2.772583341
3.123562877
3.635925496
2.688973155
2.862247547
2.535230759
2.835882261
2.836188714
2.465056747
2.370183213
2.281496155
2.109368662
1.955229066
1.848500085
1.977736519
2.202266075
2.34198161
2.444022646
2.504712354
2.536914196
2.539772792
2.518585981
2.470497419
2.391024792
2.279675937
2.147427144
2.010726822
1.897025811
1.836120344
1.977852564
2.374937213
2.677423722
3.022144497
2.459423047
2.32151159
1.71994085
2.621330965
2.68467288
2.20932168
2.191291444
2.128055557
2.034493544
1.948048487
1.62817326
1.804974174
2.094106338
2.281748093
2.413672974
2.492866751
2.533996813
2.539069236
2.521634177
2.479512589
2.409495189
2.311606017
2.192754269
2.057401524
1.892302245
1.71324134
1.717476291
2.078373939
2.387036066
2.455208636
2.119335591
1.987062085
1.518132935
2.335790586
2.350093421
1.970467815
1.981874591
1.909301472
1.940612032
1.923421582
1.402067568
1.683152794
2.034632926
2.267953242
2.41934076
2.510023475
2.557220072
2.566588063
2.544464873
2.497913733
2.425735331
2.330093648
2.214193841
2.074238609
1.87150493
1.630206915
1.742992468
2.164157332
2.462393486
2.572152432
2.623541786
2.564237784
2.447702814
2.094971409
2.046657452
1.883906345
1.788263387
1.704849362
1.824452233
1.886516275
1.247005252
1.646271924
2.019384634
2.25335913
2.40157498
2.486871115
2.524892373
2.523644617
2.487566483
2.419016331
2.319043491
2.194252927
2.05338807
1.898865778
1.744185896
1.896741254
2.386609192
2.787152648
3.023234992
3.048145208
2.916901244
2.691429477
2.536938183
2.442546217
2.43119203
2.281310802
1.896502313
1.653121712
1.606825744
1.717514931
1.3455457
1.838608123
2.198578008
2.389154873
2.48796384
2.536285421
2.546120832
2.518016573
2.454567173
2.354624357
2.216941101
2.051797192
1.889283201
1.788696314
1.888123042
2.423001307
3.051851085
3.389443531
3.474835838
3.374333265
3.094866957
2.664966043
2.325632222
2.720918726
2.874661037
2.862898916
2.558034327
1.973340282
1.705105866
1.701610115
)
;
    }
    region0_to_wallFilmRegion_mirrorFace
    {
        type            convectiveHeatTransfer;
        L               1;
        value           nonuniform List<scalar> 
133
(
3.0441823
3.927053744
4.261283746
4.165076539
4.151799846
4.455354642
4.346247921
4.247976148
4.201389244
4.122960978
4.07143169
4.53911152
3.890589213
3.919034443
4.016514505
4.508694537
3.525818124
3.211544525
3.631837932
3.580746703
3.67776514
3.662751332
4.158159822
4.335713265
4.257378955
4.115864151
4.104709075
4.083303689
4.02050634
4.425514368
4.376420331
4.16580569
4.32676468
4.34623512
4.203629258
4.254609861
4.135174085
4.224341939
4.157513313
4.400984348
4.273652817
4.249828851
4.21085372
4.238409529
4.391166236
4.361628521
4.165642792
4.042266565
4.088893681
4.095169052
4.389697905
3.91882501
4.15359858
2.039869176
3.768437329
3.285677496
3.294800144
3.706070743
3.406738173
3.508565309
3.305224786
4.201642739
4.094299226
3.912516527
4.053223328
3.923318313
3.917566219
3.932990579
4.486237572
4.431820413
4.357520151
4.157946746
4.421443733
4.207068954
4.78011229
4.566186864
3.472674142
3.632891889
2.74625565
3.725095916
2.383347587
2.646470063
3.969220225
3.966982185
2.8982509
3.144247351
3.927651747
2.752930995
3.725782423
3.885244135
3.948309008
3.91591959
4.034546065
4.032216648
4.104077456
4.155895093
4.124577355
4.227555575
4.15800228
4.216515197
4.324004798
4.277445601
4.226718014
4.182310206
4.310141558
4.551388041
4.753693124
4.022913592
3.997516752
3.991269157
4.10032801
3.899179164
3.727951142
3.741125361
3.994432314
3.775898025
4.618010483
4.195245427
4.861319954
4.495837158
4.895756245
4.726966233
4.362051731
4.623708868
4.346285301
4.360004791
3.532265435
3.200549888
3.283398196
3.803225217
3.413689392
3.631653355
3.892781335
)
;
    }
    procBoundary3to0
    {
        type            processor;
        value           uniform 0;
    }
    procBoundary3to1
    {
        type            processor;
        value           uniform 0;
    }
    procBoundary3to2
    {
        type            processor;
        value           uniform 0;
    }
}


// ************************************************************************* //
