/*--------------------------------*- C++ -*----------------------------------*\
  =========                 |
  \\      /  F ield         | OpenFOAM: The Open Source CFD Toolbox
   \\    /   O peration     | Website:  https://openfoam.org
    \\  /    A nd           | Version:  8
     \\/     M anipulation  |
\*---------------------------------------------------------------------------*/
FoamFile
{
    version     2.0;
    format      ascii;
    class       volScalarField;
    location    "0.7";
    object      k;
}
// * * * * * * * * * * * * * * * * * * * * * * * * * * * * * * * * * * * * * //

dimensions      [0 2 -2 0 0 0 0];

internalField   nonuniform List<scalar> 
67193
(
0.0165032944
0.01713675636
0.01754714536
0.01782456814
0.01806439684
0.01842726651
0.01912280375
0.01999757109
0.02067325167
0.01998999727
0.01938195269
0.01898178925
0.01863885722
0.01838916498
0.01799256771
0.01821191759
0.01806667733
0.01723315744
0.01598676558
0.01447631694
0.01268952352
0.01068399411
0.008740078065
0.007224952821
0.006309639775
0.005867507972
0.005613409216
0.005258396708
0.004617684723
0.003643264373
0.002465499721
0.00148494254
0.001009243882
0.001181357197
0.0154388351
0.01632183908
0.01705654806
0.01762822692
0.01804263135
0.0183846554
0.01915733393
0.02057884626
0.02235081582
0.02199083144
0.02071574845
0.02010821468
0.01965860627
0.01943424677
0.01894769707
0.02109962436
0.02170074476
0.02032123187
0.01808539911
0.01574951986
0.01352432277
0.01136266838
0.009367163046
0.007832896398
0.006922370379
0.006500519094
0.006289181313
0.006045100978
0.005615140473
0.004947212663
0.004183747528
0.00352430796
0.003103994169
0.00324791794
0.01498040199
0.01570946217
0.01653615912
0.01721225974
0.01781208638
0.01835408092
0.01945402471
0.02132130378
0.02362536641
0.02457572497
0.02348200467
0.02282906879
0.0221638652
0.02172246835
0.0213014709
0.02672457564
0.02818082006
0.02630537211
0.0228589917
0.01905782041
0.01562520007
0.0127388374
0.01037023165
0.00861879788
0.007544112919
0.006978766309
0.006647779358
0.006338784592
0.005971160774
0.005573221836
0.005184832609
0.004884528216
0.00471628185
0.004911118691
0.01613128248
0.01598781005
0.01646887527
0.0167884708
0.01781960242
0.01919303359
0.02119620174
0.02373829388
0.02667738286
0.02889628722
0.02834385963
0.02713350635
0.02575192359
0.02454008624
0.02494516552
0.03440362214
0.03592130889
0.03323895843
0.02905072971
0.02393273012
0.01880233987
0.01454181074
0.0114019399
0.009299462307
0.008022833576
0.007275987641
0.006770272189
0.0063244534
0.005909628519
0.005596115994
0.005418164783
0.005371632215
0.005406348675
0.005694510434
0.02018877957
0.01876521154
0.0185394222
0.01747642999
0.01930972804
0.0220471516
0.02526064362
0.02862322783
0.03222088581
0.03513905111
0.03467366743
0.03267520409
0.03007418778
0.02764976204
0.03064077624
0.04511364993
0.04570856027
0.04121714431
0.03552290678
0.02944050998
0.02278908318
0.01685543962
0.0125906564
0.009979030614
0.008460299731
0.007508172456
0.00679480692
0.006178235919
0.005676541805
0.005369429359
0.005263678736
0.005321301676
0.005467371024
0.005846343144
0.02603046596
0.02408619529
0.02372574639
0.01984530983
0.02222795963
0.02643098572
0.03081533816
0.03504456695
0.03931736952
0.04263793467
0.0418472131
0.03887295123
0.03480276701
0.03105544921
0.03828069066
0.05757563117
0.05672486328
0.04978188401
0.04175481711
0.03407139679
0.02618487507
0.01883931684
0.01358699272
0.01055524664
0.008851827923
0.007712546561
0.006780860524
0.005983149175
0.005389211353
0.00505935908
0.004969560873
0.00507175763
0.005281135937
0.005722608242
0.03114625234
0.03007924621
0.030927586
0.02398977407
0.0259322852
0.03137210779
0.03673189853
0.04186387771
0.04708732921
0.05098754874
0.04984683557
0.04594036444
0.04069054538
0.03549563791
0.04360529983
0.06526332662
0.06469571948
0.05579450628
0.04546440853
0.03594115398
0.02672666005
0.01877043519
0.0135700034
0.01075569388
0.009127321143
0.007892659225
0.006766037595
0.005796463663
0.005119280346
0.004754955385
0.004655556238
0.004780697271
0.005033939833
0.005513340894
0.03466028562
0.03549629886
0.03814072771
0.02966202331
0.02985381416
0.03613393545
0.04246536332
0.0488761392
0.05551235364
0.06023862358
0.05888343597
0.05417841097
0.04849385054
0.04204413597
0.04001313418
0.05820334492
0.06188195592
0.05361881673
0.04243166925
0.03145060599
0.02191575955
0.01566289878
0.01234084933
0.01053839667
0.00925458867
0.008034592331
0.006763573401
0.005649556512
0.004904399372
0.004497035168
0.004377933741
0.004527112767
0.004816979336
0.005292465519
0.03754569344
0.0405643779
0.04488566468
0.03615402168
0.03342124437
0.04011187026
0.0478355144
0.05608723529
0.06445169988
0.06999141972
0.0684688819
0.0630131879
0.05653995843
0.05055618751
0.04563864699
0.04233518658
0.03899942799
0.03378892572
0.02685319187
0.0202764154
0.01573708462
0.01313287268
0.0115608819
0.01040457831
0.009339736099
0.0081499252
0.006781053414
0.005558935596
0.004761598158
0.004340635978
0.004211543669
0.004352209308
0.004671438601
0.005117849079
0.04109595218
0.0465761585
0.05667889322
0.04316505268
0.03652862551
0.04277613627
0.05249107696
0.06296442237
0.07277922294
0.07870440015
0.07692609896
0.07079592288
0.06335413192
0.05728263513
0.05184326212
0.04552187849
0.03823364863
0.03059150904
0.02343780621
0.01795081911
0.01456550981
0.01261822095
0.01132285457
0.01031385464
0.009359822301
0.008222144494
0.006812702399
0.005528418168
0.004712589466
0.004307586464
0.00417954629
0.004302229644
0.004614988052
0.005019273102
0.04571574116
0.05813673378
0.09957335591
0.05234343277
0.04003193282
0.0436787121
0.05571845235
0.06829594477
0.07867023962
0.08429356717
0.08175796956
0.07462441761
0.06679585098
0.06219341652
0.05704880731
0.04941415735
0.03972037834
0.0295899028
0.02140206337
0.01637994269
0.01373438998
0.01218798281
0.01103239808
0.01012468019
0.009293398317
0.008244313348
0.006854644944
0.005558575217
0.004770674384
0.004398846012
0.004275818034
0.004374045431
0.004644449813
0.004992411701
0.05274850117
0.09162548199
0.2352918613
0.0802164494
0.04551462979
0.04262524878
0.05675275561
0.07093073968
0.08078840562
0.08526343885
0.08083618627
0.07181445101
0.0683975031
0.06903227296
0.06399183292
0.05427639148
0.0419295053
0.02930082833
0.02023449136
0.01552667764
0.01323984737
0.01184182442
0.01076447555
0.009898549403
0.009168279898
0.00822530804
0.006909455816
0.005652755362
0.004934196361
0.004604262873
0.004486327694
0.004554970673
0.004754489973
0.005031657404
0.0526954478
0.09010036451
0.1810909321
0.07597351418
0.04484835496
0.04025282254
0.05539248358
0.07043448102
0.07878643406
0.08066303624
0.07235366683
0.06281266496
0.07664052122
0.08158655094
0.07285327086
0.05896056318
0.0451537385
0.03097165403
0.02076892381
0.01552311364
0.0130417183
0.01159175345
0.01051644251
0.009659187901
0.008999568383
0.008175475283
0.006984346464
0.005814519966
0.005178766279
0.004890944818
0.004779089803
0.004818292804
0.004939116214
0.005135309189
0.03470844673
0.05774433914
0.08327920781
0.0508874168
0.0355233788
0.03674172469
0.05179416728
0.0666114911
0.0724003091
0.07062556081
0.05757057062
0.06208313323
0.09668619094
0.09726828486
0.08023560605
0.06091455271
0.04512199876
0.03133059692
0.02119385934
0.01564769272
0.0129150529
0.01133953425
0.01023608594
0.009390811389
0.008781678255
0.008097924844
0.007084305173
0.006019295736
0.005454529331
0.005206684799
0.005102315729
0.005118190582
0.005188672456
0.005310472402
0.02905428275
0.04106769966
0.05137778938
0.03754935715
0.03219153923
0.02921537865
0.04091578639
0.05659780296
0.06110211642
0.05800607009
0.06136492464
0.08352852259
0.1106906425
0.1079656137
0.08217282406
0.05530759258
0.03804662404
0.02662851086
0.01905154108
0.01477521934
0.01239537933
0.01088597471
0.009826001437
0.009041326272
0.008516371099
0.007992762906
0.00719994349
0.0062362449
0.005696079618
0.005482193771
0.005384060604
0.005389948747
0.005523709901
0.005726915356
0.02567513652
0.03089163883
0.03542963536
0.03589797938
0.03406402144
0.03093349117
0.03262064183
0.04482570041
0.05063378863
0.0497818689
0.04558690766
0.0578104045
0.0976071854
0.09035698629
0.0565788614
0.02754955713
0.01797391903
0.0156498787
0.01408703647
0.01260472043
0.01124847943
0.01010225198
0.009230382286
0.008581654577
0.008324976231
0.007885391629
0.007290878421
0.006453557212
0.005822921647
0.005596217449
0.005533697607
0.005611870017
0.006396872788
0.007500629551
0.02449620002
0.02808640281
0.0344828599
0.0393725865
0.03627196133
0.03218001963
0.02903845666
0.03543286378
0.04060390761
0.04202358052
0.03745270082
0.03681666963
0.06351202573
0.06098332646
0.03598654129
0.01758866889
0.01514783352
0.01433666591
0.01314141241
0.01178935053
0.0105200218
0.009469006087
0.008713659952
0.0082594595
0.009788442144
0.008465864613
0.007557176849
0.006799858407
0.006110815643
0.005743022358
0.005673584059
0.006155890145
0.009294702377
0.01198647817
0.01999229735
0.02419671503
0.03126259073
0.03597379874
0.02918808898
0.02422282832
0.02245736488
0.02656101052
0.03206765996
0.03349423636
0.02955957568
0.02509635864
0.03705731795
0.03599659078
0.01984602732
0.01450304604
0.01422979064
0.0133603755
0.0121858326
0.01100010837
0.01001085391
0.009371427588
0.008973345915
0.009821130689
0.0178051424
0.01298685733
0.009404503798
0.007731363512
0.006756727477
0.006138287557
0.006065812864
0.008405091906
0.0142244025
0.01768449052
0.01653685248
0.02024344999
0.02453561604
0.02710255206
0.019862918
0.01770329852
0.01747873097
0.01944729429
0.02345083174
0.02591682625
0.02239345314
0.01769147292
0.0182538761
0.01826196494
0.01429460212
0.0128213974
0.01283841768
0.01229437476
0.01209192773
0.01229012168
0.01228253959
0.01207183314
0.01221531917
0.01966456755
0.03653094008
0.02510931132
0.01587893931
0.01085819322
0.008385310202
0.007081394138
0.007491393013
0.0133089062
0.01945571015
0.02281849924
0.01457981207
0.01736786958
0.01983584397
0.02115035683
0.01819628591
0.01711899925
0.01637164345
0.01621321968
0.01710416404
0.01869011617
0.01746596919
0.0164771676
0.01545511479
0.01450580671
0.01360501859
0.01273965324
0.01221169661
0.01291806482
0.01509864828
0.01596178483
0.01591792503
0.01577271987
0.02580359805
0.04856149599
0.07333310833
0.05046152413
0.03133750251
0.01940353686
0.0128551213
0.009561684921
0.01084112982
0.01946192139
0.02398489628
0.02691298655
0.01298080819
0.01558098168
0.01733187262
0.01886423904
0.01961783098
0.01800682197
0.01604784809
0.01477152173
0.01489163878
0.01616699915
0.01621198829
0.01372889916
0.01321806757
0.0124416492
0.01171664824
0.01151414216
0.01171629156
0.01600163839
0.01923803939
0.01943840028
0.01875796085
0.01815453893
0.01762812362
0.01927913618
0.03055778454
0.02393436473
0.02028249322
0.01810318192
0.01472451024
0.01192660744
0.01662992497
0.025573881
0.02880976781
0.03008347519
0.01214450199
0.01446610617
0.01568568253
0.01693344059
0.0181419747
0.01621863708
0.01521620949
0.01369926071
0.0137285681
0.01446701353
0.01449516081
0.0139335059
0.0131842774
0.01252858446
0.01216356522
0.01297637876
0.01578250003
0.02396583653
0.02491875824
0.02384730076
0.02231080229
0.02021689511
0.02003413285
0.0234615503
0.02477884985
0.02456228343
0.02376017369
0.02162078434
0.01780139249
0.01499540622
0.02312655559
0.03123805866
0.03384993394
0.03255017675
0.01181690624
0.01372376822
0.01454455968
0.01516838198
0.01607519778
0.01490358398
0.0142791553
0.01245581122
0.01225887232
0.01245866092
0.01302414429
0.0131951878
0.01277565124
0.01457632246
0.01975232167
0.01882388759
0.01762490455
0.01919369653
0.02051474411
0.01995525647
0.0176550599
0.01817436331
0.02465401408
0.02950384509
0.02879570157
0.0271491225
0.02521184308
0.02316073922
0.01981266237
0.01778741496
0.02618213448
0.03233746795
0.03480430777
0.03407195666
0.01093191107
0.01276390836
0.01369940612
0.01421000862
0.01485543733
0.01359059688
0.01289468189
0.01080726929
0.01050743404
0.01113555419
0.01219994248
0.0139832703
0.01874868339
0.02560005317
0.02983287429
0.0275058846
0.02416691712
0.0188705996
0.01770232351
0.01653410277
0.01758693012
0.0249483184
0.03137017209
0.03468353217
0.03290794128
0.02970540816
0.02653068444
0.02426273468
0.02195753224
0.01858123964
0.01483688171
0.01949186538
0.02571725554
0.0293778376
0.006848782471
0.009238389234
0.01116504868
0.01220225448
0.01276015411
0.01313730537
0.0121340786
0.01103364547
0.009321393139
0.009885423177
0.01217493548
0.01596260341
0.0218757853
0.02837532204
0.03384935035
0.03600567408
0.03450563372
0.03058261642
0.02163948727
0.01650081055
0.01596660574
0.02118774199
0.02766097682
0.03380980855
0.03653294797
0.03479341425
0.03095363495
0.0268293515
0.02413138325
0.02228016899
0.01995312742
0.01562570315
0.01532165106
0.02128929436
0.02550931194
0.005439879766
0.007104727865
0.009003095034
0.009737553149
0.01079076647
0.01019218889
0.009999326493
0.009162532116
0.009003306367
0.01159946409
0.01590512577
0.02101335545
0.02645464551
0.03115753472
0.03476979498
0.03565914399
0.03440592363
0.0293421292
0.0214319074
0.01631756447
0.01459770809
0.01509523769
0.02223266095
0.02810856551
0.0311393317
0.03040753407
0.02700323902
0.02303686921
0.01962690704
0.01656280021
0.01295879241
0.00939584916
0.009872028625
0.01663336204
0.020242821
0.005035748665
0.005730299985
0.006883342288
0.007763083339
0.00795418916
0.007214713116
0.007654740687
0.007828190437
0.009169749659
0.01244298516
0.01658380412
0.02129008901
0.02516101837
0.02784104067
0.03108054025
0.03408681457
0.02935872751
0.01992301821
0.01564303489
0.01530632939
0.0164045435
0.01621827432
0.01686292685
0.01957063652
0.02297874354
0.02400403008
0.0229282006
0.020729802
0.01781730915
0.01411769749
0.01044347596
0.007899403895
0.006998187801
0.01056003295
0.01322414159
0.004650924943
0.004893715221
0.005303617813
0.005727972957
0.00532536408
0.00497252956
0.005853492017
0.006984568068
0.009032957693
0.01195133508
0.01509700001
0.01823989515
0.02105809513
0.02335123645
0.02977437899
0.03757267338
0.02465463911
0.01919311344
0.01742342212
0.01731629672
0.0180759833
0.01743196817
0.01555975864
0.01502802929
0.0171453899
0.01901141306
0.01891945911
0.01705825911
0.01400094818
0.01068997623
0.008513486324
0.007652376295
0.007321182108
0.007223890868
0.007520572006
0.004341627786
0.004086479109
0.003862401554
0.003610981777
0.004001858332
0.005333569437
0.007357043359
0.009918490597
0.0126559245
0.01528560425
0.01774261862
0.01918366862
0.019426435
0.02025532173
0.02381463692
0.02357610388
0.02548245889
0.02294592597
0.01850626572
0.01571017691
0.01712108793
0.01492144599
0.01270980575
0.01269960058
0.0137117368
0.01351246854
0.01183532751
0.009615977027
0.00826067092
0.007888037043
0.007876242891
0.007922009224
0.007784653777
0.007378271137
0.003523192068
0.00255645566
0.00221685636
0.002669964702
0.003795973747
0.005344499552
0.007254987569
0.00924491899
0.01129539642
0.01331052951
0.01522715352
0.01826748587
0.008304636749
0.008362723896
0.008288140882
0.007947692399
0.007860486291
0.007981358593
0.00812974258
0.008230640318
0.00825355909
0.008067194908
0.007620385175
0.002482312304
0.003452895023
0.004440821336
0.005530173784
0.006733996386
0.007852897027
0.01653064197
0.01755853291
0.0184752979
0.01932855716
0.01999334171
0.02023944958
0.0201796074
0.02131921878
0.02289736857
0.0227766416
0.02193766248
0.02095858354
0.02014739682
0.01943785484
0.01861697164
0.01780476668
0.01692010157
0.01587831577
0.01462763288
0.01310812236
0.01134105381
0.00950923199
0.007902868477
0.0067423024
0.006048827175
0.00567377616
0.00538606507
0.004940264293
0.004208252015
0.003109506879
0.001847557736
0.0009340284268
0.0006390239373
0.0009473960504
0.01635281894
0.01793274574
0.01964523554
0.02162278091
0.02349707946
0.02421625138
0.02316754015
0.02514390862
0.02888754267
0.02989510391
0.02825342674
0.02571936205
0.02390288213
0.02230127988
0.02031883941
0.01818194419
0.01619150364
0.01451983199
0.01317367399
0.01189392616
0.01049448391
0.009020653094
0.00772744094
0.006866617996
0.00648059309
0.006391331858
0.006357411493
0.006189633946
0.005730290494
0.00496701761
0.004062414778
0.003226989505
0.002837729609
0.002898038657
0.01494771202
0.01645403217
0.01827541287
0.02037916789
0.02240019149
0.02328922851
0.02262899863
0.0255357835
0.03074822667
0.03265965156
0.03184269496
0.02975600542
0.02801440257
0.0264194345
0.02390255071
0.02103988055
0.01805073747
0.01528389005
0.01350471343
0.01216612931
0.01078186517
0.009306093042
0.00798419691
0.007067911788
0.00661573957
0.006460221126
0.006384518798
0.006309694202
0.006234490485
0.0060380511
0.005511353159
0.004962615335
0.004820121645
0.004709142966
0.01496693952
0.01619130158
0.01787520507
0.01981136549
0.02190426023
0.02302668152
0.02356202746
0.02799529201
0.03455718893
0.03727327332
0.0371107876
0.03607252446
0.03468551602
0.03360484535
0.03080949512
0.0281146607
0.02448663428
0.0198219161
0.01611491841
0.01388167818
0.01198171103
0.01009218247
0.008480173587
0.007338411578
0.006671232228
0.006314276443
0.006077853954
0.005925231516
0.005952913554
0.006171520654
0.006274786638
0.006187152722
0.006091924653
0.005800820543
0.01671889287
0.01731360416
0.01838883379
0.01957182144
0.02180387281
0.02371850629
0.02617796127
0.03230882518
0.03972034489
0.04326258024
0.04364906483
0.04322638225
0.04242093402
0.04197920391
0.03990307245
0.03999803703
0.0366896971
0.02895068597
0.0219186127
0.01687344414
0.01378255056
0.01122955827
0.009192292586
0.007769617736
0.006870841651
0.006296091501
0.005853860448
0.005511566457
0.005398220343
0.005654777962
0.006110886985
0.006470127823
0.006497600279
0.006162970372
0.02007647783
0.01994683589
0.0202369342
0.02018645493
0.02268985039
0.02573008494
0.03021793505
0.03786106491
0.04602537986
0.05050782792
0.05109006597
0.0503003815
0.04952996882
0.04886724879
0.05045121119
0.05654250024
0.05388643631
0.04209867837
0.02961998323
0.02050545838
0.01541527832
0.01218336239
0.009792719847
0.008149438994
0.007073904486
0.006326624054
0.0056996859
0.005152222766
0.004797008565
0.004809236485
0.005190541118
0.005704641612
0.006007488552
0.006008655694
0.02497911667
0.02376498389
0.02353819211
0.0222811058
0.02496672166
0.02908605769
0.03529639805
0.044624628
0.05430522511
0.05978690785
0.06004635864
0.05733956609
0.05466462691
0.05346792825
0.06159830212
0.07175487013
0.067981257
0.05188683457
0.03403467532
0.02192262721
0.01586052441
0.01242914561
0.009988175568
0.00829546516
0.007154319522
0.006319400293
0.005564175006
0.004847497277
0.004265373254
0.003971058908
0.004039280672
0.004417502593
0.005028251779
0.0056059651
0.03162826806
0.02841068359
0.02837878673
0.02564899983
0.02812803595
0.03339937944
0.04133560351
0.05326202359
0.06549123146
0.07206639932
0.07170656735
0.06587757099
0.05882583717
0.05591280176
0.06754610015
0.07582523327
0.06928545551
0.05076384199
0.03184206065
0.02059065549
0.01519903341
0.01197442598
0.009724015486
0.008129778772
0.0070484575
0.00623666018
0.005432439568
0.004605875808
0.003873858873
0.003392262404
0.003209466516
0.003369743579
0.004173501622
0.005164638797
0.03989464246
0.0352954087
0.03859284643
0.03019691999
0.03142877703
0.03812011338
0.04862281991
0.06420108934
0.07928498827
0.08673000891
0.0859679906
0.07773369218
0.06617395127
0.05619093452
0.05543467542
0.05897461258
0.05112803577
0.03693260132
0.02537585225
0.01814687766
0.01401195737
0.01130535949
0.009223779478
0.007727997298
0.006788793146
0.006111435606
0.005350643702
0.00448040336
0.003685012361
0.003128261797
0.002857484744
0.002920553754
0.003766798994
0.004886244371
0.04868657813
0.05013512641
0.07465387078
0.03906872708
0.03478094387
0.04281724135
0.05733107063
0.07651558989
0.09318416222
0.1007429552
0.0998278566
0.0905922332
0.07653103598
0.06297182976
0.05154023734
0.04254041756
0.03425665066
0.02675960248
0.02068712636
0.01618685499
0.01294101921
0.01046882798
0.008505354336
0.007146523507
0.006445817343
0.00601350595
0.005396676971
0.00454145834
0.003720952668
0.003150694894
0.002876120525
0.002940028022
0.003762685625
0.004805510806
0.05870058046
0.09245923285
0.2263100047
0.07007180461
0.03993024195
0.0469427712
0.0665829231
0.08765694015
0.1037962476
0.1106499647
0.1093912256
0.09997961638
0.08480495377
0.06970387473
0.05561186158
0.04271118575
0.03216181671
0.02414533739
0.0183792521
0.01437047976
0.01155117094
0.009444254357
0.007790139668
0.00660893405
0.006147593915
0.006025062944
0.005645004024
0.004828731268
0.004003639621
0.003449552808
0.00319284058
0.003265615498
0.004042781604
0.004877803904
0.07856260954
0.2229805678
0.4511269789
0.187559215
0.05508183101
0.04987082948
0.0746591613
0.09538857904
0.1091980636
0.1147766771
0.1125882659
0.1024773772
0.08874685242
0.07550819059
0.06103972389
0.04385761645
0.03122161121
0.02286935105
0.01733819503
0.01356719727
0.01086238168
0.00888388281
0.007363671735
0.006289122618
0.00598980426
0.006198922053
0.006124233293
0.005360583746
0.004525910215
0.003986171806
0.003740004871
0.003803687623
0.004506162616
0.005056219513
0.07563131368
0.1957805671
0.4255720581
0.162673643
0.05492909974
0.05154390629
0.07980779742
0.09873356914
0.1092180736
0.1134530206
0.1093863797
0.09924743954
0.09367044127
0.08575467184
0.06848770046
0.04333006279
0.02963753812
0.02262950468
0.01746550897
0.01366717866
0.01085428166
0.008762875884
0.007221752775
0.006201864744
0.005991037254
0.006524777632
0.006755809468
0.006080059346
0.005211959623
0.004662042835
0.004415879341
0.004457839417
0.005058687217
0.005289267321
0.03856411878
0.09273792465
0.1495127045
0.08027936973
0.041794658
0.05009333594
0.08101423244
0.09701373634
0.1041420815
0.1070379238
0.1001056411
0.09608741409
0.1082236588
0.1045220436
0.0741240816
0.04117305842
0.02877459567
0.02313167382
0.01829826798
0.01434125556
0.01123620067
0.008901365271
0.007271580336
0.006299493905
0.006178016406
0.006910454585
0.007437250192
0.006894534733
0.005974651083
0.005382009872
0.005118011992
0.00514759637
0.005638047819
0.005526201241
0.02337785344
0.0420246128
0.06815836163
0.05001387694
0.0381386953
0.04437025877
0.06819696317
0.09050436316
0.09498762512
0.09735250608
0.08833106631
0.09923662667
0.1233251193
0.119059981
0.0751889767
0.03724384091
0.02706183134
0.02253510287
0.01833664915
0.01451649307
0.01132391182
0.008875497056
0.007231808836
0.006343843001
0.00641800661
0.007233806643
0.008090845224
0.00777355855
0.00678119373
0.00606377628
0.005744622746
0.005862466066
0.006182813145
0.005844044316
0.01837328514
0.02215204131
0.04014746525
0.04163605458
0.03936351262
0.03876379824
0.05074571126
0.0719055304
0.07672986838
0.07631145408
0.07473264096
0.09068655162
0.1165255385
0.1098191281
0.06200619048
0.03446458755
0.02493697248
0.02025373625
0.01676046076
0.01353983784
0.01067603954
0.00834473537
0.006864356688
0.006067927328
0.006493921876
0.006970502366
0.007617215078
0.007869179288
0.007217608675
0.006458708407
0.006153612759
0.006416005984
0.006582041664
0.006460887107
0.01567662053
0.02117474341
0.04007972772
0.04458916061
0.04063391514
0.03377717538
0.03650871592
0.04883094383
0.05918687532
0.05813817413
0.05428813781
0.05081422925
0.06865375869
0.04634866173
0.02758955856
0.0255595953
0.02124671612
0.01816891128
0.01525353177
0.01230974999
0.009654794827
0.007536671106
0.006281583234
0.00583110177
0.006941700685
0.007154806153
0.007214335874
0.007102300069
0.006775014948
0.006399580966
0.00627301526
0.006483360093
0.007180602327
0.008255545064
0.01368567744
0.01910373233
0.03692705639
0.04118591596
0.03297302297
0.02356595436
0.02458868085
0.03089049594
0.03761341266
0.04087166962
0.0345726849
0.02337522698
0.02496776712
0.02094311223
0.01985744568
0.01980530073
0.01766769245
0.0157351804
0.01353254869
0.01107228403
0.008817118042
0.006946162776
0.006274207267
0.008481383741
0.008781182941
0.008539173038
0.007826855959
0.00727631571
0.006710458528
0.00637725482
0.006201949437
0.006822729848
0.00855835852
0.01082855986
0.01226039889
0.01453171103
0.02409804418
0.02596758332
0.02054976524
0.01636997119
0.01781878169
0.02062822258
0.02274539888
0.02528517505
0.02245006745
0.01826711777
0.01696556397
0.01590581556
0.01683923975
0.01886546164
0.01660226406
0.01452404314
0.01261343633
0.01084270748
0.009258484831
0.008311549915
0.01108853498
0.0268325287
0.03528063544
0.01678919342
0.01059696823
0.008708343088
0.007433945902
0.006719192094
0.006739294498
0.008374385302
0.01033308708
0.01341140099
0.01078794999
0.01184093287
0.01597764973
0.0196418257
0.01919207978
0.01690908569
0.01469013907
0.01575589192
0.01677348908
0.02010880854
0.0235543132
0.0191305739
0.01632342992
0.01364787395
0.01218126928
0.01292057497
0.01258560189
0.01230167925
0.01179123297
0.01078448925
0.01021864566
0.01192754356
0.02471029336
0.05373088561
0.07500781958
0.05148803361
0.02158783555
0.01363271144
0.0101792295
0.008394602998
0.008883739421
0.01134990562
0.0145181558
0.01693630728
0.008999759697
0.01043908115
0.01327147896
0.01928744003
0.02090917561
0.01860335849
0.01335699082
0.0136566079
0.01547532011
0.01954372241
0.01748764422
0.01410390203
0.01331995383
0.01124445399
0.00938639733
0.009661989897
0.0121201777
0.01952997266
0.02182442333
0.01972121696
0.01616126848
0.01426997709
0.01588596111
0.02852880701
0.03637863862
0.02321709714
0.01704104939
0.0142039422
0.01178174369
0.01072027325
0.01401359933
0.01985036564
0.0236770226
0.02280014866
0.007595141464
0.009287337932
0.01134681438
0.01644141866
0.01879500696
0.01513286553
0.01193355473
0.01249208539
0.0137449259
0.01568513087
0.01524148368
0.01619542223
0.01520176697
0.01513525958
0.01372717647
0.01399791572
0.01990337065
0.0284586403
0.02828838541
0.02565370642
0.02348279604
0.02226527351
0.02174421572
0.02515849224
0.02423741814
0.02156076339
0.01907882729
0.01637837355
0.01396538848
0.01471321729
0.02462804023
0.0307246875
0.03378853768
0.02870668838
0.007024949827
0.008454814017
0.009789072041
0.0124668023
0.01382742955
0.01153071287
0.01095740922
0.01102047391
0.01127178631
0.01142807061
0.01485553579
0.02012533855
0.02190755118
0.02422608324
0.02751097426
0.02819740293
0.02853400456
0.02932154089
0.02653250025
0.02396235058
0.01990256906
0.01994712687
0.02659048987
0.02940545666
0.02882858589
0.02331759188
0.01912171178
0.01598299121
0.0150356932
0.01892155368
0.02716765596
0.03053905396
0.03267688114
0.0288008914
0.006959532812
0.008275906282
0.009537735012
0.01107725671
0.01165350622
0.009358122073
0.00981637326
0.00929227295
0.009117345527
0.01161273857
0.01763885111
0.02415792701
0.03170484042
0.03971766402
0.04413863231
0.04340144561
0.03933722566
0.03342961137
0.02661741664
0.02119246096
0.01961163955
0.02624249139
0.03519583282
0.03677050913
0.03372803803
0.0268790156
0.02031635952
0.0181273153
0.01639313347
0.01572996513
0.0183416893
0.02132969529
0.0213741149
0.01628450042
0.006066766187
0.006644061026
0.008061267751
0.01087945933
0.0113302963
0.01083069474
0.008652874968
0.008608671834
0.00835724324
0.01050671462
0.01558864923
0.02325017983
0.03313019356
0.04264497106
0.04812135728
0.04988793799
0.0487141399
0.04465291925
0.03730636405
0.02725360512
0.02332605916
0.02554328908
0.03261647379
0.03838156417
0.03924874992
0.03600007423
0.02836274817
0.01989465455
0.01588579176
0.01468296579
0.01297375309
0.01168000066
0.01134890959
0.01080879649
0.01238591983
0.006572723512
0.006342356941
0.00797372979
0.009645665584
0.01385631507
0.01016585607
0.008158276302
0.00779624354
0.008939955371
0.01329167121
0.02027772563
0.02926058618
0.03746640242
0.0434908613
0.0475682206
0.04933527455
0.04769975033
0.04463040142
0.03702286333
0.02930727059
0.02750631735
0.02873932783
0.03195482311
0.0356426701
0.03689605633
0.03293807698
0.02417563544
0.01600283871
0.01162338515
0.009764458353
0.008839708618
0.007639000141
0.00757106819
0.008820392527
0.01010614184
0.005673487544
0.005669204159
0.006230128507
0.007930199187
0.008764415903
0.007628227859
0.0071338943
0.007416147621
0.009806820923
0.01527963408
0.02289154906
0.03007822634
0.03616595434
0.04196044004
0.04733050622
0.05000020031
0.0484101994
0.04399035541
0.03541056394
0.03110721934
0.02858696499
0.02701427036
0.02666881591
0.02726261066
0.02547434894
0.02098504769
0.01650618536
0.01306450911
0.01063752325
0.009105589815
0.007880199229
0.007036442811
0.006524108144
0.00723911518
0.007576857593
0.005059787721
0.004921703554
0.004917505581
0.005455270018
0.005542724993
0.005682656073
0.006258191739
0.007500455791
0.01075110915
0.01613869868
0.02251852389
0.02879127206
0.03471167334
0.04047912816
0.0470661044
0.04955846234
0.04947382245
0.0404477823
0.03497706986
0.03117915429
0.02794527316
0.02504555726
0.02194808113
0.01837293084
0.01559843128
0.01391415914
0.01276821575
0.01144900715
0.009894176411
0.008416462776
0.007533556913
0.007414732457
0.007515444121
0.007315109598
0.006511396268
0.004440292762
0.003949457875
0.003956807169
0.00414751089
0.004648119978
0.005895640828
0.008207665872
0.01214881004
0.01733503242
0.02281812465
0.02793305483
0.03277697812
0.03857641646
0.04062696978
0.04492116672
0.04340991407
0.03817245545
0.03424459931
0.03082296914
0.02850908006
0.02509357594
0.02019100783
0.01432054805
0.0115427686
0.01097068905
0.01057823893
0.009829994251
0.008882864492
0.008111390997
0.007762761485
0.007958682166
0.008581735468
0.008753056297
0.007611219888
0.003270829502
0.002533476316
0.002584056156
0.003147266693
0.004148089701
0.005787113257
0.008461085347
0.01209162976
0.01623920358
0.02056620853
0.02529768025
0.03359776991
0.008509375396
0.008569175307
0.008703504597
0.008740848636
0.008684359987
0.008495640448
0.008289785218
0.008317086927
0.008744198729
0.008824387146
0.007724409162
0.002665691774
0.003463519628
0.004437963453
0.005674677698
0.007350665968
0.009570905782
0.0157150455
0.01691423581
0.01811944582
0.01934525914
0.02033057207
0.02081345972
0.02085771825
0.02201564128
0.02289036552
0.02281477863
0.02202210377
0.02097348047
0.02001945014
0.01911850755
0.01811101113
0.01700734594
0.01584615396
0.01463208082
0.01328057269
0.01173152148
0.0100675024
0.008500574213
0.007241507758
0.006369024038
0.005805588116
0.005395257927
0.004964385374
0.004366969982
0.00351347148
0.002350413819