/*--------------------------------*- C++ -*----------------------------------*\
  =========                 |
  \\      /  F ield         | OpenFOAM: The Open Source CFD Toolbox
   \\    /   O peration     | Website:  https://openfoam.org
    \\  /    A nd           | Version:  8
     \\/     M anipulation  |
\*---------------------------------------------------------------------------*/
FoamFile
{
    version     2.0;
    format      ascii;
    class       volScalarField;
    location    "0.7";
    object      N2;
}
// * * * * * * * * * * * * * * * * * * * * * * * * * * * * * * * * * * * * * //

dimensions      [0 0 0 0 0 0 0];

internalField   nonuniform List<scalar> 
67193
(
0.7899957599
0.7899958059
0.7899958552
0.7899959348
0.7899960652
0.7899962207
0.789996281
0.7899961861
0.7899960766
0.7899961333
0.7899962052
0.7899962036
0.7899961543
0.7899960742
0.7899959624
0.7899958002
0.7899955689
0.7899953851
0.7899952437
0.7899950848
0.7899948755
0.7899946456
0.7899944678
0.7899943917
0.7899944022
0.7899944494
0.7899944826
0.7899944441
0.7899942726
0.7899939566
0.7899935462
0.7899931811
0.7899929935
0.7899930008
0.7899956166
0.7899956359
0.7899956678
0.7899957262
0.7899958343
0.7899959821
0.7899960236
0.7899958886
0.7899957726
0.7899959843
0.789996147
0.7899961746
0.7899961249
0.7899960519
0.7899959243
0.789995797
0.7899954878
0.7899952499
0.7899951452
0.789995096
0.789994995
0.7899948038
0.7899945895
0.7899944555
0.7899944399
0.7899945056
0.7899945941
0.7899946546
0.7899946397
0.7899945034
0.7899942579
0.7899940014
0.7899938155
0.7899937805
0.789995551
0.789995553
0.7899956012
0.7899956666
0.7899957716
0.7899959213
0.7899960061
0.7899959693
0.7899959742
0.7899961819
0.7899963078
0.7899962921
0.7899961998
0.7899961129
0.7899959542
0.7899960144
0.7899956508
0.7899952573
0.7899950248
0.7899949665
0.7899949621
0.789994876
0.7899947054
0.7899945638
0.7899945296
0.789994584
0.7899946674
0.7899947322
0.7899947561
0.7899947305
0.7899946553
0.7899945554
0.7899944649
0.7899944213
0.7899956113
0.7899955415
0.7899955997
0.7899956754
0.7899957947
0.7899959384
0.7899960561
0.7899961314
0.7899962225
0.7899963923
0.789996444
0.7899964045
0.7899962832
0.7899961897
0.7899960229
0.7899964097
0.7899960703
0.7899955546
0.7899951375
0.7899949216
0.7899948874
0.7899948814
0.789994795
0.7899946894
0.7899946547
0.7899946938
0.7899947541
0.7899947929
0.7899947991
0.7899947777
0.7899947452
0.7899947194
0.789994713
0.7899947295
0.7899958698
0.7899956888
0.7899956965
0.7899956855
0.7899958122
0.7899959754
0.7899961377
0.7899962924
0.7899964382
0.7899965968
0.7899965924
0.7899965375
0.7899963807
0.7899962812
0.7899961598
0.7899968304
0.7899965258
0.7899959663
0.789995446
0.7899950687
0.7899948928
0.7899948715
0.7899948581
0.7899948168
0.789994802
0.7899948278
0.7899948542
0.7899948567
0.7899948391
0.789994803
0.7899947631
0.7899947417
0.7899947529
0.7899948129
0.7899962053
0.7899960026
0.7899959084
0.7899956635
0.7899957639
0.7899959987
0.7899962267
0.7899964297
0.7899966198
0.789996791
0.7899967496
0.789996674
0.7899964748
0.789996398
0.7899963895
0.7899970606
0.7899968
0.7899962568
0.789995745
0.789995324
0.7899950329
0.7899949315
0.789994937
0.7899949537
0.7899949685
0.7899949834
0.7899949663
0.7899949276
0.789994894
0.7899948506
0.7899948027
0.7899947746
0.7899947794
0.7899948449
0.7899963928
0.7899963599
0.7899961508
0.7899957401
0.7899957303
0.7899960673
0.7899963471
0.7899965769
0.7899967898
0.7899969564
0.7899968893
0.7899967807
0.7899965729
0.7899965098
0.7899965214
0.7899969656
0.7899968107
0.7899963103
0.7899958506
0.7899954796
0.7899951905
0.7899950577
0.7899950592
0.7899951046
0.7899951418
0.7899951478
0.7899950843
0.7899950078
0.7899949717
0.7899949295
0.7899948767
0.7899948422
0.7899948362
0.7899948883
0.7899963663
0.7899965516
0.7899961146
0.7899959597
0.7899957368
0.7899961687
0.7899964659
0.7899967131
0.7899969333
0.7899970729
0.7899969811
0.7899968231
0.7899965949
0.7899964654
0.7899962253
0.7899964714
0.7899964324
0.7899960855
0.7899957241
0.789995392
0.7899951715
0.7899951185
0.7899951687
0.7899952414
0.7899952967
0.7899953014
0.7899952012
0.7899951
0.7899950753
0.7899950376
0.789994979
0.7899949376
0.7899949189
0.7899949491
0.7899962112
0.789996414
0.7899954998
0.7899961318
0.7899957435
0.7899962539
0.7899965387
0.7899968134
0.7899970404
0.789997136
0.7899970124
0.789996794
0.7899965679
0.7899963709
0.7899961245
0.7899960284
0.7899959621
0.7899957066
0.7899953731
0.7899951406
0.7899950771
0.7899951352
0.789995238
0.7899953369
0.7899954122
0.7899954283
0.7899953121
0.7899952047
0.7899952018
0.7899951751
0.7899951119
0.7899950524
0.7899950175
0.7899950213
0.7899959672
0.7899958896
0.7899942755
0.7899959778
0.7899957231
0.7899962774
0.7899965483
0.7899968637
0.7899970958
0.7899971342
0.7899969656
0.7899966796
0.7899964228
0.7899962115
0.7899959308
0.7899956492
0.7899954058
0.7899951674
0.7899950059
0.7899949819
0.7899950645
0.7899951889
0.789995312
0.7899954167
0.7899954993
0.7899955288
0.7899954166
0.7899953194
0.7899953463
0.7899953339
0.7899952644
0.7899951824
0.7899951234
0.7899950967
0.7899956394
0.7899951047
0.7899921013
0.7899953722
0.789995637
0.7899962134
0.7899964872
0.7899968429
0.7899970709
0.7899970472
0.7899968274
0.789996478
0.7899962316
0.7899960625
0.7899957995
0.7899954254
0.7899951253
0.7899949707
0.7899949782
0.7899950736
0.7899951877
0.789995299
0.7899954029
0.7899954927
0.7899955677
0.789995607
0.7899955137
0.7899954369
0.7899954986
0.7899955016
0.7899954221
0.7899953125
0.789995224
0.7899951663
0.7899947881
0.789993395
0.7899899531
0.7899939566
0.789994988
0.7899959112
0.7899962866
0.7899967255
0.789996949
0.7899968809
0.7899966182
0.7899962917
0.7899961635
0.7899960887
0.789995901
0.7899954618
0.789995133
0.7899949808
0.7899950766
0.7899952301
0.7899953385
0.7899954197
0.7899954952
0.7899955638
0.7899956217
0.7899956656
0.7899956
0.7899955474
0.7899956407
0.7899956564
0.7899955625
0.7899954234
0.7899953035
0.7899952189
0.7899959352
0.7899954243
0.7899957984
0.7899955352
0.789996039
0.7899961008
0.789996322
0.7899965811
0.7899967557
0.7899966594
0.7899964014
0.7899962026
0.7899962867
0.7899961629
0.7899959932
0.7899953806
0.7899953446
0.7899951756
0.7899952696
0.7899954223
0.7899955061
0.7899955489
0.7899955881
0.7899956308
0.7899956617
0.7899957031
0.7899956679
0.7899956328
0.7899957387
0.789995758
0.7899956479
0.7899954837
0.7899953372
0.7899952345
0.7899956746
0.7899955326
0.7899947561
0.7899956274
0.7899957327
0.7899959131
0.7899960416
0.7899962751
0.7899964307
0.789996389
0.7899962449
0.7899962666
0.7899963845
0.7899962699
0.7899961532
0.7899959378
0.7899956869
0.7899954967
0.7899955421
0.7899956486
0.7899956884
0.7899956854
0.7899956806
0.7899956957
0.7899956805
0.789995711
0.7899957037
0.789995667
0.7899957471
0.7899957549
0.789995631
0.789995455
0.7899952842
0.7899951705
0.7899959295
0.7899958999
0.7899956388
0.7899957471
0.7899959898
0.7899961319
0.7899958708
0.7899960758
0.7899961834
0.7899962326
0.7899963552
0.7899963419
0.7899962226
0.789996241
0.7899960799
0.7899959613
0.7899958781
0.7899958289
0.7899958785
0.7899959086
0.7899958774
0.7899958206
0.7899957571
0.7899957558
0.7899956372
0.7899956597
0.7899956789
0.7899956296
0.7899956359
0.7899956119
0.7899954788
0.7899952999
0.7899950825
0.7899949349
0.7899960085
0.7899959359
0.7899956009
0.7899954181
0.7899955097
0.7899959258
0.7899959936
0.7899960194
0.7899959937
0.7899959779
0.7899959033
0.7899957525
0.789996034
0.7899959451
0.7899956873
0.7899956955
0.7899960261
0.7899961833
0.7899961992
0.7899961271
0.7899960244
0.7899959339
0.7899957951
0.7899958172
0.7899954538
0.7899954956
0.7899955509
0.7899954987
0.789995364
0.7899952567
0.7899951329
0.7899949602
0.7899947516
0.7899945993
0.7899957807
0.7899955225
0.7899952808
0.7899952419
0.7899952653
0.7899956239
0.7899958995
0.7899960169
0.7899959418
0.7899959187
0.7899958687
0.789995842
0.7899960866
0.7899959118
0.7899956974
0.7899958944
0.7899962144
0.7899963172
0.789996284
0.7899961774
0.7899960404
0.7899959499
0.7899957043
0.7899956776
0.7899946253
0.7899947711
0.7899951197
0.7899952643
0.7899951802
0.7899950011
0.7899948371
0.7899946885
0.7899946659
0.7899945409
0.7899957442
0.7899954898
0.7899952763
0.7899952263
0.7899952515
0.7899954477
0.7899956474
0.7899958807
0.7899959662
0.7899958935
0.7899958782
0.789995854
0.7899959532
0.7899957799
0.7899956773
0.789995933
0.7899961542
0.7899961872
0.7899961342
0.7899960296
0.7899958711
0.7899958299
0.7899955129
0.7899955131
0.7899939075
0.7899932353
0.789994161
0.7899947344
0.7899948863
0.7899947661
0.7899946057
0.7899946282
0.7899948755
0.7899948354
0.7899957126
0.7899955111
0.789995275
0.7899951995
0.7899951359
0.7899952091
0.7899953497
0.7899955969
0.7899958582
0.7899959494
0.789995842
0.7899957061
0.7899956277
0.7899956096
0.7899956633
0.7899957662
0.7899958258
0.7899958343
0.7899957442
0.7899956099
0.7899954117
0.7899953129
0.789994963
0.7899945738
0.7899977367
0.7899926886
0.7899922787
0.7899936127
0.7899943493
0.7899945272
0.7899945602
0.7899948209
0.7899951948
0.7899953861
0.7899955468
0.7899953863
0.7899952009
0.7899950831
0.7899949967
0.7899950506
0.7899951218
0.7899953364
0.7899957126
0.7899959236
0.7899957637
0.7899955209
0.789995352
0.7899952879
0.7899953808
0.7899955516
0.7899956575
0.7899956782
0.7899954964
0.7899953816
0.7899952248
0.7899951523
0.7899955772
0.7899967843
0.7900031201
0.7899972551
0.7899925241
0.7899922988
0.7899934291
0.7899940473
0.7899944937
0.789995063
0.7899954084
0.7899959669
0.7899953657
0.7899952026
0.7899950545
0.7899950185
0.7899953348
0.7899953232
0.7899952162
0.7899954589
0.7899958135
0.7899958086
0.7899956774
0.7899952769
0.7899949666
0.7899949495
0.7899949648
0.78999518
0.789995386
0.7899952408
0.7899950089
0.7899949338
0.7899949255
0.789995056
0.7899949393
0.789994861
0.7899947274
0.7899936228
0.7899942185
0.7899944098
0.7899943916
0.7899944843
0.789994992
0.7899953573
0.7899955726
0.7899963878
0.7899952084
0.789995057
0.7899949186
0.7899949042
0.7899951652
0.7899951229
0.7899951671
0.7899955486
0.7899956955
0.789995492
0.7899952361
0.789994946
0.7899948435
0.7899949511
0.7899950297
0.7899953162
0.7899953314
0.7899945699
0.7899945152
0.7899944979
0.7899945673
0.7899947968
0.7899947722
0.7899950683
0.7899946716
0.789994466
0.7899945596
0.7899945268
0.7899944201
0.7899945972
0.7899952943
0.7899955275
0.7899957276
0.7899965499
0.7899951306
0.7899949926
0.7899948587
0.7899948197
0.7899950153
0.7899950376
0.7899951833
0.7899955395
0.7899955649
0.7899953278
0.789995091
0.7899949262
0.7899948711
0.7899947759
0.7899946269
0.7899946529
0.7899946671
0.7899945867
0.7899945641
0.7899945883
0.7899945022
0.7899945434
0.7899947737
0.7899950373
0.7899947312
0.7899947511
0.7899947917
0.7899948252
0.7899947687
0.789995029
0.7899955992
0.7899957855
0.7899960157
0.7899969424
0.7899950592
0.7899949749
0.7899948988
0.789994865
0.7899950079
0.7899950664
0.7899952045
0.7899953898
0.789995346
0.7899951137
0.7899949217
0.7899946736
0.7899945283
0.7899945585
0.7899946863
0.7899946493
0.7899945751
0.7899945923
0.7899946099
0.7899945193
0.7899945229
0.7899949388
0.7899951324
0.7899953899
0.7899952557
0.7899950559
0.7899949156
0.7899948757
0.7899948412
0.7899946997
0.7899946073
0.7899951205
0.7899956884
0.7899967766
0.7899949768
0.7899949118
0.7899949013
0.7899948913
0.7899949053
0.7899950277
0.789995051
0.7899951091
0.7899950824
0.7899949626
0.7899948054
0.7899946587
0.7899945715
0.7899946571
0.7899948107
0.7899949431
0.7899949045
0.7899947733
0.789994546
0.7899944438
0.7899945085
0.7899949083
0.7899951965
0.7899954253
0.7899956307
0.7899954826
0.7899952595
0.7899950915
0.7899950474
0.789995077
0.7899950284
0.7899948445
0.7899950517
0.7899956836
0.7899964002
0.789994634
0.7899946772
0.7899947255
0.7899946937
0.789994754
0.7899948204
0.789994889
0.7899948447
0.7899946654
0.7899945287
0.789994479
0.789994521
0.7899946514
0.7899948185
0.7899949981
0.7899951235
0.7899950787
0.7899948508
0.7899945869
0.7899944668
0.7899945186
0.7899946969
0.7899950391
0.7899953191
0.7899953999
0.7899952328
0.7899950104
0.7899948458
0.7899947319
0.7899946233
0.7899945316
0.7899945535
0.7899948436
0.7899954535
0.7899957473
0.7899943078
0.7899944042
0.7899944943
0.7899944736
0.7899944411
0.7899943834
0.7899945335
0.7899944593
0.789994302
0.7899942714
0.7899943633
0.7899945247
0.7899946986
0.7899948018
0.7899949117
0.7899950446
0.7899948608
0.7899945179
0.7899944039
0.7899945841
0.7899947642
0.7899948363
0.7899948777
0.7899949487
0.7899950405
0.7899950317
0.7899949692
0.7899948772
0.7899947362
0.7899945772
0.789994508
0.7899945732
0.7899947168
0.7899950358
0.7899951041
0.7899941513
0.7899942338
0.7899942678
0.7899941905
0.7899940293
0.7899939437
0.7899941016
0.7899941087
0.7899940794
0.7899941508
0.7899942809
0.7899944118
0.7899945291
0.7899946282
0.789994805
0.789995356
0.789994673
0.7899945474
0.789994527
0.7899946722
0.7899948371
0.7899948586
0.7899947701
0.789994762
0.7899948554
0.7899949265
0.7899949126
0.7899948076
0.7899946562
0.789994556
0.7899945431
0.7899945744
0.7899946384
0.7899947614
0.7899948196
0.7899940291
0.7899939632
0.789993747
0.789993599
0.7899936193
0.7899938014
0.7899939581
0.7899940886
0.7899942282
0.7899943613
0.7899944705
0.7899945396
0.7899944767
0.7899945608
0.7899946429
0.7899947024
0.7899948875
0.7899947843
0.7899946687
0.7899946037
0.7899948107
0.7899947506
0.789994711
0.7899947583
0.7899948135
0.7899947955
0.7899947239
0.7899946644
0.7899946242
0.7899945731
0.7899945264
0.7899945191
0.7899945907
0.7899946801
0.7899937234
0.7899935235
0.789993405
0.789993466
0.7899936377
0.7899937942
0.7899939889
0.7899941074
0.7899941794
0.7899942318
0.7899942818
0.7899942331
0.7899946041
0.7899946772
0.789994706
0.7899946811
0.7899946212
0.7899945472
0.7899944715
0.7899944084
0.7899943793
0.7899944234
0.7899945392
0.7899936876
0.7899938616
0.78999406
0.7899941635
0.7899943007
0.7899943639
0.7899954352
0.789995403
0.7899953809
0.7899953865
0.7899954318
0.789995512
0.7899955495
0.7899953454
0.7899951779
0.7899953981
0.789995559
0.7899956564
0.789995675
0.7899956385
0.7899955632
0.7899954664
0.7899953437
0.7899952164
0.7899950713
0.7899948894
0.789994683
0.7899944987
0.7899943842
0.78999435
0.7899943632
0.7899943802
0.7899943618
0.7899942563
0.789994028
0.7899936554
0.7899932054
0.7899928753
0.7899927704
0.7899928465
0.7899953317
0.7899952801
0.7899952441
0.7899952292
0.7899952392
0.7899952904
0.789995386
0.789995293
0.7899953983
0.7899955883
0.7899956564
0.7899957025
0.7899956649
0.7899955807
0.7899954498
0.7899953025
0.7899951534
0.7899950405
0.7899949462
0.789994836
0.7899946887
0.7899945225
0.7899943894
0.7899943321
0.7899943505
0.789994415
0.7899944867
0.7899945137
0.7899944326
0.7899941993
0.7899938425
0.789993521
0.7899933802
0.7899935388
0.7899953811
0.7899953538
0.7899953563
0.7899953684
0.7899953806
0.7899954151
0.7899955173
0.7899955339
0.7899957358
0.789995962
0.7899959904
0.7899959794
0.7899958979
0.7899957785
0.7899956029
0.7899953772
0.7899951587
0.7899950079
0.7899949399
0.7899948754
0.7899947614
0.7899946023
0.7899944562
0.7899943841
0.7899943982
0.7899944709
0.7899945592
0.7899946213
0.7899946234
0.7899945335
0.7899943409
0.7899941301
0.7899940562
0.7899941917
0.7899954532
0.7899954223
0.7899954488
0.7899954852
0.7899955264
0.7899955855
0.789995695
0.7899958073
0.7899960725
0.7899963095
0.7899963431
0.7899963027
0.7899962054
0.7899960526
0.7899958497
0.7899955692
0.7899952843
0.7899950744
0.7899950031
0.7899949823
0.7899949029
0.7899947474
0.7899945911
0.7899945074
0.7899945119
0.7899945738
0.7899946448
0.789994687
0.7899946853
0.7899946331
0.7899945307
0.7899944246
0.7899944246
0.7899945624
0.7899955583
0.7899955176
0.7899955354
0.7899955713
0.7899956421
0.7899957379
0.7899958691
0.7899960703
0.7899963763
0.7899966077
0.7899966458
0.7899965987
0.7899964786
0.7899962744
0.7899960405
0.7899957099
0.7899953463
0.7899950552
0.7899949668
0.7899949945
0.7899949911
0.7899948787
0.7899947464
0.7899946704
0.7899946718
0.7899947176
0.7899947569
0.7899947605
0.7899947248
0.7899946544
0.7899945617
0.7899944878
0.7899945153
0.7899946804
0.7899956256
0.7899956323
0.7899956056
0.7899956048
0.7899956855
0.7899958374
0.7899960177
0.7899963045
0.7899966295
0.7899968404
0.7899968592
0.7899967821
0.7899966251
0.7899963686
0.789996108
0.7899958
0.789995433
0.789995058
0.7899949072
0.789994938
0.7899950044
0.7899949696
0.7899948946
0.7899948522
0.7899948616
0.78999489
0.7899948894
0.7899948502
0.7899947785
0.7899946768
0.789994566
0.7899944908
0.7899945217
0.7899947021
0.789995569
0.7899956742
0.7899955975
0.7899956223
0.7899956847
0.7899959225
0.7899961782
0.7899965182
0.789996837
0.7899970068
0.7899969789
0.7899968393
0.7899966365
0.7899963504
0.7899960863
0.7899958361
0.7899955353
0.7899951238
0.7899948996
0.7899948937
0.7899949878
0.7899950222
0.7899950233
0.7899950335
0.7899950603
0.7899950713
0.7899950281
0.7899949523
0.7899948559
0.789994731
0.789994603
0.7899945174
0.7899945427
0.7899947235
0.7899954544
0.7899955855
0.7899954166
0.7899956553
0.7899956716
0.789995997
0.7899963158
0.7899966892
0.789996999
0.7899971117
0.7899970196
0.7899967865
0.7899965297
0.7899962696
0.789996065
0.7899957724
0.7899955014
0.7899951716
0.7899949924
0.7899949695
0.789995011
0.7899950714
0.7899951443
0.7899952084
0.789995252
0.7899952454
0.7899951635
0.7899950659
0.7899949636
0.7899948353
0.7899947041
0.789994605
0.7899946066
0.7899947671
0.7899954514
0.7899954346
0.7899952026
0.7899956175
0.7899956508
0.7899960327
0.7899963895
0.7899968067
0.7899971141
0.7899971575
0.7899969893
0.7899966307
0.789996302
0.7899959911
0.7899957878
0.7899955819
0.7899953595
0.7899951358
0.7899949761
0.7899949113
0.789994971
0.7899951221
0.7899952762
0.7899953776
0.7899954255
0.7899954002
0.7899952912
0.7899951938
0.7899951088
0.7899949882
0.7899948592
0.7899947563
0.7899947116
0.7899948302
0.7899955399
0.7899953577
0.7899951638
0.7899954564
0.7899956349
0.7899960253
0.7899964022
0.7899968711
0.7899971688
0.7899971339
0.7899968807
0.7899963768
0.7899959557
0.7899955832
0.7899953631
0.7899951964
0.7899950645
0.7899949142
0.7899948231
0.7899948506
0.7899950064
0.7899952315
0.7899954269
0.7899955362
0.7899955737
0.7899955311
0.7899954129
0.7899953431
0.7899952946
0.7899951972
0.789995068
0.7899949397
0.7899948403
0.7899949047
0.7899956323
0.7899951481
0.7899955459
0.7899952763
0.7899956052
0.7899959788
0.7899963626
0.7899968657
0.7899971405
0.7899970265
0.7899966816
0.7899960158
0.7899955816
0.7899952009
0.7899950155
0.7899948566
0.7899948551
0.7899948133
0.7899948349
0.7899949377
0.7899951235
0.7899953564
0.7899955557
0.7899956659
0.7899956929
0.7899956394
0.7899955348
0.7899955226
0.7899955277
0.789995456
0.7899953113
0.7899951325
0.7899949701
0.7899949769
0.7899958369
0.7899954337
0.7900008069
0.789995751
0.7899957377
0.78999589
0.7899962775
0.7899967765
0.7899970285
0.7899968759
0.7899964442
0.7899957958
0.7899953643
0.789994996
0.7899948216
0.7899946551
0.7899948696
0.7899949311
0.7899950338
0.7899951379
0.7899952816
0.789995468
0.789995651
0.7899957647
0.7899957883
0.7899957316
0.7899956638
0.7899957296
0.7899957873
0.7899957267
0.7899955442
0.7899952982
0.7899950722
0.7899950324
0.7899960912
0.789996177
0.7899994241
0.7899958845
0.7899957454
0.7899958306
0.7899961903
0.7899966082
0.7899968293
0.7899966407
0.7899961466
0.7899955198
0.78999522
0.7899948459
0.7899947246
0.7899939643
0.7899949614
0.789995162
0.7899953657
0.7899954326
0.7899954922
0.7899955934
0.7899957332
0.7899958432
0.7899958693
0.7899958151
0.7899958025
0.789995925
0.7899960015
0.7899959213
0.7899956846
0.7899953742
0.7899951049
0.7899950502
0.7899959133
0.789995808
0.7899964542
0.7899955349
0.7899954409
0.789995655
0.7899959214
0.7899963256
0.7899965432
0.789996369
0.7899958643
0.7899953945
0.789995259
0.7899950954
0.7899949086
0.789995023
0.7899954063
0.7899956606
0.7899957691
0.7899957698
0.7899957439
0.7899957516
0.7899958259
0.789995917
0.7899959499
0.7899958973
0.7899959097
0.7899960219
0.7899960665
0.7899959382
0.789995648
0.7899953007
0.7899950309
0.7899949949
0.7899959225
0.7899956235
0.789995825
0.7899952588
0.7899952027
0.7899955275
0.7899956795
0.7899959891
0.7899962262
0.7899961306
0.7899957352
0.7899954596
0.7899954766
0.7899954821
0.789995159
0.7899951573
0.7899957126
0.7899959884
0.7899960961
0.78999606
0.7899959734
0.7899959038
0.7899959005
0.7899959415
0.7899959765
0.7899959167
0.7899958991
0.7899959332
0.7899959144
0.7899957293
0.7899954118
0.7899950695
0.7899948566
0.7899948333
0.7899959257
0.7899955735
0.7899953172
0.7899951193
0.7899949268
0.7899953018
0.7899956198
0.78999572
0.7899959241
0.7899959699
0.7899956764
0.7899955353
0.7899956182
0.7899956453
0.7899954402
0.7899955774
0.7899959739
0.7899962253
0.7899963024
0.7899962378
0.789996127
0.7899960319
0.789996005
0.7899960159
0.789996071
0.7899959783
0.7899958496
0.7899956695
0.7899955481
0.7899953301
0.7899950421
0.7899947844
0.7899946654
0.7899946407
0.7899959146
0.7899954352
0.789995236
0.78999506
0.7899948594
0.7899949426
0.7899955455
0.7899956729
0.789995703
0.7899959007
0.7899957789
0.7899954531
0.7899955428
0.789995251
0.7899953966
0.7899957398
0.789996127
0.7899963061
0.7899962996
0.7899961769
0.7899960362
0.7899959138
0.7899958843
0.789995746
0.7899959579
0.7899958397
0.7899957534
0.7899954599
0.7899952047
0.7899949354
0.7899947205
0.7899946006
0.7899946207
0.7899946065
0.789995837
0.7899953724
0.7899952495
0.7899950333
0.789994807
0.7899947651
0.7899952995
0.7899956443
0.7899956625
0.7899957609
0.789995579
0.7899953984
0.7899954409
0.7899954001
0.7899954576
0.7899957565
0.7899960109
0.7899960528
0.7899959568
0.7899957973
0.7899956491
0.789995561
0.789995541
0.789995421
0.7899956259
0.7899959745
0.78999586
0.7899954481
0.7899951232
0.7899947659
0.7899945661
0.7899945574
0.7899946373
0.7899946074
0.7899957145
0.7899952874
0.7899949955
0.789994852
0.7899946626
0.7899947161
0.7899950503
0.78999545
0.7899956327
0.7899956776
0.7899954567
0.7899952308
0.7899950345
0.7899950418
0.7899952212
0.7899954217
0.789995459
0.7899953542
0.7899951946
0.7899950643
0.7899950075
0.7899949272
0.7899949325
0.7899950504
0.7899938128
0.7899954641
0.7899955437
0.7899951881
0.7899949708
0.789994701
0.7899945539
0.7899945974
0.789994546
0.7899945194
0.7899955295
0.7899951555
0.7899948139
0.7899947186
0.7899948066
0.7899948798
0.789994928
0.7899952921
0.7899955263
0.7899956127
0.789995458
0.7899953
0.7899949118
0.7899946949
0.7899946469
0.7899948888
0.7899949816
0.78999488
0.7899947145
0.7899946423
0.7899946123
0.7899946962
0.7899944108
0.7899948869
0.7899919962
0.7899940741
0.7899948358
0.7899950072
0.7899947657
0.7899945416
0.7899945213
0.7899945742
0.7899944891
0.7899943907
0.7899952139
0.7899949594
0.7899946906
0.7899948202
0.7899952899
0.7899952968
0.7899950062
0.7899953028
0.7899954707
0.7899955001
0.7899954151
0.7899949899
0.7899942781
0.7899943064
0.7899942126
0.7899944751
0.789994685
0.7899945267
0.7899944242
0.789994337
0.7899943143
0.7899943122
0.7899943317
0.7899940568
0.7899940123
0.7899945421
0.7899946232
0.7899946002
0.7899945706
0.7899945217
0.7899946301
0.7899946678
0.7899946493
0.7899943778
0.7899949426
0.7899948034
0.7899946086
0.7899947699
0.789995131
0.7899950156
0.7899950173
0.7899952844
0.7899952916
0.78999518
0.7899948389
0.7899943812
0.789994036
0.7899941363
0.7899943882
0.7899946477
0.7899943857
0.7899942831
0.7899942192
0.7899940838
0.7899939865
0.7899941094
0.7899942414
0.7899944545
0.7899943658
0.7899943553
0.7899944665
0.7899945161
0.7899945411
0.7899946086
0.7899948496
0.78999498
0.7899949322
0.7899945936
0.7899948227
0.7899946961
0.789994552
0.7899946172
0.7899948521
0.7899948616
0.7899950373
0.789995235
0.7899951271
0.7899948449
0.7899943731
0.7899941146
0.7899941449
0.78999431
0.7899943394
0.7899944193
0.7899943834
0.7899942543
0.7899941184
0.7899940384
0.7899941168
0.7899942641
0.789994417
0.789994451
0.7899943787
0.789994283
0.789994303
0.7899944367
0.7899946235
0.7899948669
0.7899950616
0.7899951407
0.7899951299
0.7899949838
0.7899947332
0.7899946449
0.789994543
0.7899945319
0.7899946729
0.7899947551
0.7899949733
0.7899949893
0.789994724
0.7899944173
0.7899942402
0.789994213
0.7899942656
0.7899944052
0.7899944976
0.7899945563
0.7899944875
0.7899943449
0.7899942217
0.7899942295
0.7899943336
0.7899945548
0.7899948815
0.7899950779
0.789994976
0.7899946479
0.7899944392
0.7899944177
0.7899945765
0.7899946797
0.7899947309
0.7899947826
0.7899947688
0.7899946104
0.7899946383
0.78999458
0.7899945747
0.7899945321
0.7899944055
0.7899944137
0.7899946814
0.7899948384
0.7899947056
0.789994461
0.7899943862
0.7899943626
0.7899944344
0.7899946002
0.7899948119
0.7899949626
0.7899949998
0.7899948777
0.7899946125
0.789994426
0.7899944385
0.7899946044
0.7899949247
0.7899953256
0.7899954904
0.7899952901
0.7899948528
0.7899945326
0.7899944234
0.7899944846
0.7899946084
0.7899946984
0.7899947997
0.7899947117
0.7899948685
0.7899941557
0.7899943458
0.789994397
0.7899942863
0.7899941454
0.7899942429
0.7899945364
0.7899945955
0.789994401
0.7899942567
0.7899942745
0.7899944141
0.7899946271
0.7899948778
0.7899951205
0.7899952924
0.7899952925
0.7899951149
0.7899948128
0.7899946417
0.7899946796
0.7899948589
0.789995204
0.7899955292
0.7899955798
0.7899952321
0.7899947221
0.7899944248
0.7899943579
0.7899944404
0.7899945277
0.7899945609
0.7899946366
0.7899947388
0.7899949224
0.7899939179
0.7899941215
0.789994226
0.7899940836
0.7899939444
0.7899939905
0.7899942257
0.7899942775
0.7899941593
0.7899941522
0.7899942919
0.7899945204
0.7899947617
0.7899949998
0.7899952258
0.7899954285
0.7899952958
0.7899950859
0.7899948774
0.7899949133
0.789995018
0.7899950712
0.7899950913
0.7899950647
0.789994928
0.7899947161
0.7899945344
0.7899944372
0.7899944267
0.7899944443
0.7899944742
0.7899945571
0.7899946442
0.7899947852
0.7899948714
0.7899938876
0.7899940013
0.789993987
0.7899938628
0.7899936964
0.7899936914
0.789993871
0.7899939755
0.7899939991
0.7899941196
0.7899943221
0.7899945545
0.7899947547
0.7899949631
0.7899951613
0.7899953868
0.7899952201
0.7899950154
0.7899949625
0.7899950054
0.7899950567
0.7899950414
0.7899948901
0.789994747
0.7899946863
0.789994656
0.7899946494
0.7899946333
0.7899945736
0.78999449
0.7899944459
0.7899944781
0.7899945679
0.7899946721
0.7899947342
0.7899937171
0.789993675
0.7899935133
0.789993421
0.7899934721
0.789993644
0.7899938131
0.789993955
0.7899941272
0.7899943167
0.7899945048
0.7899946478
0.7899948198
0.789994869
0.7899950351
0.7899950853
0.7899950935
0.7899950104
0.7899948844
0.7899948089
0.78999483
0.7899947461
0.789994683
0.7899947132
0.7899947516
0.7899947567
0.7899947121
0.7899946299
0.7899945275
0.7899944296
0.789994377
0.7899944047
0.789994531
0.7899946521
0.7899934408
0.789993315
0.7899932452
0.7899932946
0.7899934368
0.7899936224
0.7899938214
0.7899939864
0.7899941295
0.7899942681
0.7899944575
0.7899945856
0.7899946327
0.7899946909
0.7899946895
0.7899946322
0.7899945411
0.7899944393
0.7899943392
0.789994266
0.789994254
0.789994342
0.7899944893
0.7899934724
0.7899935853
0.7899937314
0.7899939553
0.7899941209
0.7899942226
0.7899952615
0.7899952051
0.7899951588
0.789995137
0.7899951453
0.7899951822
0.7899952166
0.7899950966
0.789995053
0.7899951768
0.7899952617
0.7899953261
0.7899953451
0.7899953208
0.789995258
0.7899951749
0.7899950733
0.7899949581
0.7899948224
0.7899946653
0.7899945101
0.7899943943
0.7899943419
0.7899943371
0.7899943359
0.7899942978
0.7899942009
0.789994031
0.7899937478
0.7899933372
0.7899929336
0.7899927194
0.7899926905
0.7899927503
0.7899952368
0.7899951955
0.7899951752
0.7899951738
0.7899951722
0.7899951641
0.7899951874
0.789995188
0.7899953554
0.7899955211
0.7899955465
0.7899955285
0.7899954655
0.7899953629
0.7899952106
0.7899950477
0.7899948902
0.7899947577
0.7899946454
0.7899945391
0.7899944329
0.7899943399
0.7899942831
0.7899942718
0.7899942918
0.7899943255
0.7899943488
0.7899943107
0.7899941499
0.7899938228
0.7899934186
0.7899931287
0.7899930572
0.7899932891
0.7899953413
0.7899953449
0.7899953805
0.7899954203
0.7899954298
0.7899953993
0.7899953989
0.7899955098
0.7899957784
0.789995986
0.7899960197
0.7899959688
0.789995862
0.7899957064
0.7899954756
0.789995221
0.7899949815
0.7899947996
0.7899946741
0.7899945718
0.7899944697
0.7899943729
0.7899943073
0.7899942909
0.7899943215
0.7899943845
0.7899944526
0.7899944835
0.7899944274
0.7899942368
0.7899939309
0.7899936661
0.7899936473
0.7899939435
0.7899954531
0.7899954779
0.7899955502
0.7899956266
0.789995667
0.789995653
0.7899956624
0.7899958857
0.7899962129
0.7899964279
0.7899964788
0.7899964281
0.7899963038
0.7899961075
0.7899958206
0.7899954956
0.789995189
0.7899949696
0.7899948259
0.7899947118
0.789994599
0.7899944925
0.7899944212
0.7899944017
0.7899944302
0.7899944888
0.7899945477
0.7899945744
0.7899945429
0.7899944278
0.7899942295
0.7899940556
0.7899941045
0.7899943748
0.7899955517
0.7899955739
0.7899956548
0.7899957545
0.7899958406
0.789995889
0.7899959642
0.7899962656
0.7899966081
0.7899968088
0.7899968585
0.7899967972
0.7899966464
0.7899963978
0.7899960679
0.7899956957
0.7899953366
0.7899950942
0.7899949551
0.7899948435
0.7899947372
0.7899946407
0.7899945808
0.7899945681
0.7899945919
0.7899946329
0.7899946618
0.7899946542
0.7899946
0.7899944931
0.7899943405
0.7899942244
0.7899942963
0.789994553
0.7899956278
0.7899956486
0.7899957168
0.7899958228
0.7899959471
0.7899960966
0.7899962712
0.7899966059
0.7899969292
0.7899970987
0.7899971194
0.7899970133
0.7899968183
0.789996518
0.7899962031
0.7899958429
0.789995466
0.7899951587
0.7899950294
0.7899949213
0.7899948408
0.7899947825
0.7899947581
0.7899947655
0.7899947886
0.7899948081
0.7899947994
0.7899947481
0.7899946527
0.7899945187
0.789994366
0.7899942715
0.7899943451
0.7899945905
0.7899956755
0.7899957055
0.7899957616
0.7899958689
0.7899960143
0.7899962765
0.7899965378
0.7899968802
0.7899971702
0.7899972933
0.7899972623
0.7899970747
0.7899968313
0.7899965011
0.7899962708
0.7899959702
0.7899955994
0.7899952116
0.7899950356
0.789994929
0.7899948953
0.7899949042
0.7899949389
0.7899949777
0.789995002
0.789994999
0.7899949521
0.7899948596
0.7899947229
0.7899945514
0.7899943799
0.7899942933
0.7899943671
0.7899946043