/*--------------------------------*- C++ -*----------------------------------*\
  =========                 |
  \\      /  F ield         | OpenFOAM: The Open Source CFD Toolbox
   \\    /   O peration     | Website:  https://openfoam.org
    \\  /    A nd           | Version:  8
     \\/     M anipulation  |
\*---------------------------------------------------------------------------*/
FoamFile
{
    version     2.0;
    format      ascii;
    class       volScalarField;
    location    "0.7";
    object      O2;
}
// * * * * * * * * * * * * * * * * * * * * * * * * * * * * * * * * * * * * * //

dimensions      [0 0 0 0 0 0 0];

internalField   nonuniform List<scalar> 
67193
(
0.2100042401
0.2100041941
0.2100041448
0.2100040652
0.2100039348
0.2100037793
0.210003719
0.2100038139
0.2100039234
0.2100038667
0.2100037948
0.2100037964
0.2100038457
0.2100039258
0.2100040376
0.2100041998
0.2100044311
0.2100046149
0.2100047563
0.2100049152
0.2100051245
0.2100053544
0.2100055322
0.2100056083
0.2100055978
0.2100055506
0.2100055174
0.2100055559
0.2100057274
0.2100060434
0.2100064538
0.2100068189
0.2100070065
0.2100069992
0.2100043834
0.2100043641
0.2100043322
0.2100042738
0.2100041657
0.2100040179
0.2100039764
0.2100041114
0.2100042274
0.2100040157
0.210003853
0.2100038254
0.2100038751
0.2100039481
0.2100040757
0.210004203
0.2100045122
0.2100047501
0.2100048548
0.210004904
0.210005005
0.2100051962
0.2100054105
0.2100055445
0.2100055601
0.2100054944
0.2100054059
0.2100053454
0.2100053603
0.2100054966
0.2100057421
0.2100059986
0.2100061845
0.2100062195
0.210004449
0.210004447
0.2100043988
0.2100043334
0.2100042284
0.2100040787
0.2100039939
0.2100040307
0.2100040258
0.2100038181
0.2100036922
0.2100037079
0.2100038002
0.2100038871
0.2100040458
0.2100039856
0.2100043492
0.2100047427
0.2100049752
0.2100050335
0.2100050379
0.210005124
0.2100052946
0.2100054362
0.2100054704
0.210005416
0.2100053326
0.2100052678
0.2100052439
0.2100052695
0.2100053447
0.2100054446
0.2100055351
0.2100055787
0.2100043887
0.2100044585
0.2100044003
0.2100043246
0.2100042053
0.2100040616
0.2100039439
0.2100038686
0.2100037775
0.2100036077
0.210003556
0.2100035955
0.2100037168
0.2100038103
0.2100039771
0.2100035903
0.2100039297
0.2100044454
0.2100048625
0.2100050784
0.2100051126
0.2100051186
0.210005205
0.2100053106
0.2100053453
0.2100053062
0.2100052459
0.2100052071
0.2100052009
0.2100052223
0.2100052548
0.2100052806
0.210005287
0.2100052705
0.2100041302
0.2100043112
0.2100043035
0.2100043145
0.2100041878
0.2100040246
0.2100038623
0.2100037076
0.2100035618
0.2100034032
0.2100034076
0.2100034625
0.2100036193
0.2100037188
0.2100038402
0.2100031696
0.2100034742
0.2100040337
0.210004554
0.2100049313
0.2100051072
0.2100051285
0.2100051419
0.2100051832
0.210005198
0.2100051722
0.2100051458
0.2100051433
0.2100051609
0.210005197
0.2100052369
0.2100052583
0.2100052471
0.2100051871
0.2100037947
0.2100039974
0.2100040916
0.2100043365
0.2100042361
0.2100040013
0.2100037733
0.2100035703
0.2100033802
0.210003209
0.2100032504
0.210003326
0.2100035252
0.210003602
0.2100036105
0.2100029394
0.2100032
0.2100037432
0.210004255
0.210004676
0.2100049671
0.2100050685
0.210005063
0.2100050463
0.2100050315
0.2100050166
0.2100050337
0.2100050724
0.210005106
0.2100051494
0.2100051973
0.2100052254
0.2100052206
0.2100051551
0.2100036072
0.2100036401
0.2100038492
0.2100042599
0.2100042697
0.2100039327
0.2100036529
0.2100034231
0.2100032102
0.2100030436
0.2100031107
0.2100032193
0.2100034271
0.2100034902
0.2100034786
0.2100030344
0.2100031893
0.2100036897
0.2100041494
0.2100045204
0.2100048095
0.2100049423
0.2100049408
0.2100048954
0.2100048582
0.2100048522
0.2100049157
0.2100049922
0.2100050283
0.2100050705
0.2100051233
0.2100051578
0.2100051638
0.2100051117
0.2100036337
0.2100034484
0.2100038854
0.2100040403
0.2100042632
0.2100038313
0.2100035341
0.2100032869
0.2100030667
0.2100029271
0.2100030189
0.2100031769
0.2100034051
0.2100035346
0.2100037747
0.2100035286
0.2100035676
0.2100039145
0.2100042759
0.210004608
0.2100048285
0.2100048815
0.2100048313
0.2100047586
0.2100047033
0.2100046986
0.2100047988
0.2100049
0.2100049247
0.2100049624
0.210005021
0.2100050624
0.2100050811
0.2100050509
0.2100037888
0.210003586
0.2100045002
0.2100038682
0.2100042565
0.2100037461
0.2100034613
0.2100031866
0.2100029596
0.210002864
0.2100029876
0.210003206
0.2100034321
0.2100036291
0.2100038755
0.2100039716
0.2100040379
0.2100042934
0.2100046269
0.2100048594
0.2100049229
0.2100048648
0.210004762
0.2100046631
0.2100045878
0.2100045717
0.2100046879
0.2100047953
0.2100047982
0.2100048249
0.2100048881
0.2100049476
0.2100049825
0.2100049787
0.2100040328
0.2100041104
0.2100057245
0.2100040222
0.2100042769
0.2100037226
0.2100034517
0.2100031363
0.2100029042
0.2100028658
0.2100030344
0.2100033204
0.2100035772
0.2100037885
0.2100040692
0.2100043508
0.2100045942
0.2100048326
0.2100049941
0.2100050181
0.2100049355
0.2100048111
0.210004688
0.2100045833
0.2100045007
0.2100044712
0.2100045834
0.2100046806
0.2100046537
0.2100046661
0.2100047356
0.2100048176
0.2100048766
0.2100049033
0.2100043606
0.2100048953
0.2100078987
0.2100046278
0.210004363
0.2100037866
0.2100035128
0.2100031571
0.2100029291
0.2100029528
0.2100031726
0.210003522
0.2100037684
0.2100039375
0.2100042005
0.2100045746
0.2100048747
0.2100050293
0.2100050218
0.2100049264
0.2100048123
0.210004701
0.2100045971
0.2100045073
0.2100044323
0.210004393
0.2100044863
0.2100045631
0.2100045014
0.2100044984
0.2100045779
0.2100046875
0.210004776
0.2100048337
0.2100052119
0.210006605
0.2100100469
0.2100060434
0.210005012
0.2100040888
0.2100037134
0.2100032745
0.210003051
0.2100031191
0.2100033818
0.2100037083
0.2100038365
0.2100039113
0.210004099
0.2100045382
0.210004867
0.2100050192
0.2100049234
0.2100047699
0.2100046615
0.2100045803
0.2100045048
0.2100044362
0.2100043783
0.2100043344
0.2100044
0.2100044526
0.2100043593
0.2100043436
0.2100044375
0.2100045766
0.2100046965
0.2100047811
0.2100040648
0.2100045757
0.2100042016
0.2100044648
0.210003961
0.2100038992
0.210003678
0.2100034189
0.2100032443
0.2100033406
0.2100035986
0.2100037974
0.2100037133
0.2100038371
0.2100040068
0.2100046194
0.2100046554
0.2100048244
0.2100047304
0.2100045777
0.2100044939
0.2100044511
0.2100044119
0.2100043692
0.2100043383
0.2100042969
0.2100043321
0.2100043672
0.2100042613
0.210004242
0.2100043521
0.2100045163
0.2100046628
0.2100047655
0.2100043254
0.2100044674
0.2100052439
0.2100043726
0.2100042673
0.2100040869
0.2100039584
0.2100037249
0.2100035693
0.210003611
0.2100037551
0.2100037334
0.2100036155
0.2100037301
0.2100038468
0.2100040622
0.2100043131
0.2100045033
0.2100044579
0.2100043514
0.2100043116
0.2100043146
0.2100043194
0.2100043043
0.2100043195
0.210004289
0.2100042963
0.210004333
0.2100042529
0.2100042451
0.210004369
0.210004545
0.2100047158
0.2100048295
0.2100040705
0.2100041001
0.2100043612
0.2100042529
0.2100040102
0.2100038681
0.2100041292
0.2100039242
0.2100038166
0.2100037674
0.2100036448
0.2100036581
0.2100037774
0.210003759
0.2100039201
0.2100040387
0.2100041219
0.2100041711
0.2100041215
0.2100040914
0.2100041226
0.2100041794
0.2100042429
0.2100042442
0.2100043628
0.2100043403
0.2100043211
0.2100043704
0.2100043641
0.2100043881
0.2100045212
0.2100047001
0.2100049175
0.2100050651
0.2100039915
0.2100040641
0.2100043991
0.2100045819
0.2100044903
0.2100040742
0.2100040064
0.2100039806
0.2100040063
0.2100040221
0.2100040967
0.2100042475
0.210003966
0.2100040549
0.2100043127
0.2100043045
0.2100039739
0.2100038167
0.2100038008
0.2100038729
0.2100039756
0.2100040661
0.2100042049
0.2100041828
0.2100045462
0.2100045044
0.2100044491
0.2100045013
0.210004636
0.2100047433
0.2100048671
0.2100050398
0.2100052484
0.2100054007
0.2100042193
0.2100044775
0.2100047192
0.2100047581
0.2100047347
0.2100043761
0.2100041005
0.2100039831
0.2100040582
0.2100040813
0.2100041313
0.210004158
0.2100039134
0.2100040882
0.2100043026
0.2100041056
0.2100037856
0.2100036828
0.210003716
0.2100038226
0.2100039596
0.2100040501
0.2100042957
0.2100043224
0.2100053747
0.2100052289
0.2100048803
0.2100047357
0.2100048198
0.2100049989
0.2100051629
0.2100053115
0.2100053341
0.2100054591
0.2100042558
0.2100045102
0.2100047237
0.2100047737
0.2100047485
0.2100045523
0.2100043526
0.2100041193
0.2100040338
0.2100041065
0.2100041218
0.210004146
0.2100040468
0.2100042201
0.2100043227
0.210004067
0.2100038458
0.2100038128
0.2100038658
0.2100039704
0.2100041289
0.2100041701
0.2100044871
0.2100044869
0.2100060925
0.2100067647
0.210005839
0.2100052656
0.2100051137
0.2100052339
0.2100053943
0.2100053718
0.2100051245
0.2100051646
0.2100042874
0.2100044889
0.210004725
0.2100048005
0.2100048641
0.2100047909
0.2100046503
0.2100044031
0.2100041418
0.2100040506
0.210004158
0.2100042939
0.2100043723
0.2100043904
0.2100043367
0.2100042338
0.2100041742
0.2100041657
0.2100042558
0.2100043901
0.2100045883
0.2100046871
0.210005037
0.2100054262
0.2100022633
0.2100073114
0.2100077213
0.2100063873
0.2100056507
0.2100054728
0.2100054398
0.2100051791
0.2100048052
0.2100046139
0.2100044532
0.2100046137
0.2100047991
0.2100049169
0.2100050033
0.2100049494
0.2100048782
0.2100046636
0.2100042874
0.2100040764
0.2100042363
0.2100044791
0.210004648
0.2100047121
0.2100046192
0.2100044484
0.2100043425
0.2100043218
0.2100045036
0.2100046184
0.2100047752
0.2100048477
0.2100044228
0.2100032157
0.2099968799
0.2100027449
0.2100074759
0.2100077012
0.2100065709
0.2100059527
0.2100055063
0.210004937
0.2100045916
0.2100040331
0.2100046343
0.2100047974
0.2100049455
0.2100049815
0.2100046652
0.2100046768
0.2100047838
0.2100045411
0.2100041865
0.2100041914
0.2100043226
0.2100047231
0.2100050334
0.2100050505
0.2100050352
0.21000482
0.210004614
0.2100047592
0.2100049911
0.2100050662
0.2100050745
0.210004944
0.2100050607
0.210005139
0.2100052726
0.2100063772
0.2100057815
0.2100055902
0.2100056084
0.2100055157
0.210005008
0.2100046427
0.2100044274
0.2100036122
0.2100047916
0.210004943
0.2100050814
0.2100050958
0.2100048348
0.2100048771
0.2100048329
0.2100044514
0.2100043045
0.210004508
0.2100047639
0.210005054
0.2100051565
0.2100050489
0.2100049703
0.2100046838
0.2100046686
0.2100054301
0.2100054848
0.2100055021
0.2100054327
0.2100052032
0.2100052278
0.2100049317
0.2100053284
0.210005534
0.2100054404
0.2100054732
0.2100055799
0.2100054028
0.2100047057
0.2100044725
0.2100042724
0.2100034501
0.2100048694
0.2100050074
0.2100051413
0.2100051803
0.2100049847
0.2100049624
0.2100048167
0.2100044605
0.2100044351
0.2100046722
0.210004909
0.2100050738
0.2100051289
0.2100052241
0.2100053731
0.2100053471
0.2100053329
0.2100054133
0.2100054359
0.2100054117
0.2100054978
0.2100054566
0.2100052263
0.2100049627
0.2100052688
0.2100052489
0.2100052083
0.2100051748
0.2100052313
0.210004971
0.2100044008
0.2100042145
0.2100039843
0.2100030576
0.2100049408
0.2100050251
0.2100051012
0.210005135
0.2100049921
0.2100049336
0.2100047955
0.2100046102
0.210004654
0.2100048863
0.2100050783
0.2100053264
0.2100054717
0.2100054415
0.2100053137
0.2100053507
0.2100054249
0.2100054077
0.2100053901
0.2100054807
0.2100054771
0.2100050612
0.2100048676
0.2100046101
0.2100047443
0.2100049441
0.2100050844
0.2100051243
0.2100051588
0.2100053003
0.2100053927
0.2100048795
0.2100043116
0.2100032234
0.2100050232
0.2100050882
0.2100050987
0.2100051087
0.2100050947
0.2100049723
0.210004949
0.2100048909
0.2100049176
0.2100050374
0.2100051946
0.2100053413
0.2100054285
0.2100053429
0.2100051893
0.2100050569
0.2100050955
0.2100052267
0.210005454
0.2100055562
0.2100054915
0.2100050917
0.2100048035
0.2100045747
0.2100043693
0.2100045174
0.2100047405
0.2100049085
0.2100049526
0.210004923
0.2100049716
0.2100051555
0.2100049483
0.2100043164
0.2100035998
0.210005366
0.2100053228
0.2100052745
0.2100053063
0.210005246
0.2100051796
0.210005111
0.2100051553
0.2100053346
0.2100054713
0.210005521
0.210005479
0.2100053486
0.2100051815
0.2100050019
0.2100048765
0.2100049213
0.2100051492
0.2100054131
0.2100055332
0.2100054814
0.2100053031
0.2100049609
0.2100046809
0.2100046001
0.2100047672
0.2100049896
0.2100051542
0.2100052681
0.2100053767
0.2100054684
0.2100054465
0.2100051564
0.2100045465
0.2100042527
0.2100056922
0.2100055958
0.2100055057
0.2100055264
0.2100055589
0.2100056166
0.2100054665
0.2100055407
0.210005698
0.2100057286
0.2100056367
0.2100054753
0.2100053014
0.2100051982
0.2100050883
0.2100049554
0.2100051392
0.2100054821
0.2100055961
0.2100054159
0.2100052358
0.2100051637
0.2100051223
0.2100050513
0.2100049595
0.2100049683
0.2100050308
0.2100051228
0.2100052638
0.2100054228
0.210005492
0.2100054268
0.2100052832
0.2100049642
0.2100048959
0.2100058487
0.2100057662
0.2100057322
0.2100058095
0.2100059707
0.2100060563
0.2100058984
0.2100058913
0.2100059206
0.2100058492
0.2100057191
0.2100055882
0.2100054709
0.2100053718
0.210005195
0.210004644
0.210005327
0.2100054526
0.210005473
0.2100053278
0.2100051629
0.2100051414
0.2100052299
0.210005238
0.2100051446
0.2100050735
0.2100050874
0.2100051924
0.2100053438
0.210005444
0.2100054569
0.2100054256
0.2100053616
0.2100052386
0.2100051804
0.2100059709
0.2100060368
0.210006253
0.210006401
0.2100063807
0.2100061986
0.2100060419
0.2100059114
0.2100057718
0.2100056387
0.2100055295
0.2100054604
0.2100055233
0.2100054392
0.2100053571
0.2100052976
0.2100051125
0.2100052157
0.2100053313
0.2100053963
0.2100051893
0.2100052494
0.210005289
0.2100052417
0.2100051865
0.2100052045
0.2100052761
0.2100053356
0.2100053758
0.2100054269
0.2100054736
0.2100054809
0.2100054093
0.2100053199
0.2100062766
0.2100064765
0.210006595
0.210006534
0.2100063623
0.2100062058
0.2100060111
0.2100058926
0.2100058206
0.2100057682
0.2100057182
0.2100057669
0.2100053959
0.2100053228
0.210005294
0.2100053189
0.2100053788
0.2100054528
0.2100055285
0.2100055916
0.2100056207
0.2100055766
0.2100054608
0.2100063124
0.2100061384
0.21000594
0.2100058365
0.2100056993
0.2100056361
0.2100045648
0.210004597
0.2100046191
0.2100046135
0.2100045682
0.210004488
0.2100044505
0.2100046546
0.2100048221
0.2100046019
0.210004441
0.2100043436
0.210004325
0.2100043615
0.2100044368
0.2100045336
0.2100046563
0.2100047836
0.2100049287
0.2100051106
0.210005317
0.2100055013
0.2100056158
0.21000565
0.2100056368
0.2100056198
0.2100056382
0.2100057437
0.210005972
0.2100063446
0.2100067946
0.2100071247
0.2100072296
0.2100071535
0.2100046683
0.2100047199
0.2100047559
0.2100047708
0.2100047608
0.2100047096
0.210004614
0.210004707
0.2100046017
0.2100044117
0.2100043436
0.2100042975
0.2100043351
0.2100044193
0.2100045502
0.2100046975
0.2100048466
0.2100049595
0.2100050538
0.210005164
0.2100053113
0.2100054775
0.2100056106
0.2100056679
0.2100056495
0.210005585
0.2100055133
0.2100054863
0.2100055674
0.2100058007
0.2100061575
0.210006479
0.2100066198
0.2100064612
0.2100046189
0.2100046462
0.2100046437
0.2100046316
0.2100046194
0.2100045849
0.2100044827
0.2100044661
0.2100042642
0.210004038
0.2100040096
0.2100040206
0.2100041021
0.2100042215
0.2100043971
0.2100046228
0.2100048413
0.2100049921
0.2100050601
0.2100051246
0.2100052386
0.2100053977
0.2100055438
0.2100056159
0.2100056018
0.2100055291
0.2100054408
0.2100053787
0.2100053766
0.2100054665
0.2100056591
0.2100058699
0.2100059438
0.2100058083
0.2100045468
0.2100045777
0.2100045512
0.2100045148
0.2100044736
0.2100044145
0.210004305
0.2100041927
0.2100039275
0.2100036905
0.2100036569
0.2100036973
0.2100037946
0.2100039474
0.2100041503
0.2100044308
0.2100047157
0.2100049256
0.2100049969
0.2100050177
0.2100050971
0.2100052526
0.2100054089
0.2100054926
0.2100054881
0.2100054262
0.2100053552
0.210005313
0.2100053147
0.2100053669
0.2100054693
0.2100055754
0.2100055754
0.2100054376
0.2100044417
0.2100044824
0.2100044646
0.2100044287
0.2100043579
0.2100042621
0.2100041309
0.2100039297
0.2100036237
0.2100033923
0.2100033542
0.2100034013
0.2100035214
0.2100037256
0.2100039595
0.2100042901
0.2100046537
0.2100049448
0.2100050332
0.2100050055
0.2100050089
0.2100051213
0.2100052536
0.2100053296
0.2100053282
0.2100052824
0.2100052431
0.2100052395
0.2100052752
0.2100053456
0.2100054383
0.2100055122
0.2100054847
0.2100053196
0.2100043744
0.2100043677
0.2100043944
0.2100043952
0.2100043145
0.2100041626
0.2100039823
0.2100036955
0.2100033705
0.2100031596
0.2100031408
0.2100032179
0.2100033749
0.2100036314
0.210003892
0.2100042
0.210004567
0.210004942
0.2100050928
0.210005062
0.2100049956
0.2100050304
0.2100051054
0.2100051478
0.2100051384
0.21000511
0.2100051106
0.2100051498
0.2100052215
0.2100053232
0.210005434
0.2100055092
0.2100054783
0.2100052979
0.210004431
0.2100043258
0.2100044025
0.2100043777
0.2100043153
0.2100040775
0.2100038218
0.2100034818
0.210003163
0.2100029932
0.2100030211
0.2100031607
0.2100033635
0.2100036496
0.2100039137
0.2100041639
0.2100044647
0.2100048762
0.2100051004
0.2100051063
0.2100050122
0.2100049778
0.2100049767
0.2100049665
0.2100049397
0.2100049287
0.2100049719
0.2100050477
0.2100051441
0.210005269
0.210005397
0.2100054826
0.2100054573
0.2100052765
0.2100045456
0.2100044145
0.2100045834
0.2100043447
0.2100043284
0.210004003
0.2100036842
0.2100033108
0.210003001
0.2100028883
0.2100029804
0.2100032135
0.2100034703
0.2100037304
0.210003935
0.2100042276
0.2100044986
0.2100048284
0.2100050076
0.2100050305
0.210004989
0.2100049286
0.2100048557
0.2100047916
0.210004748
0.2100047546
0.2100048365
0.2100049341
0.2100050364
0.2100051647
0.2100052959
0.210005395
0.2100053934
0.2100052329
0.2100045486
0.2100045654
0.2100047974
0.2100043825
0.2100043492
0.2100039673
0.2100036105
0.2100031933
0.2100028859
0.2100028425
0.2100030107
0.2100033693
0.210003698
0.2100040089
0.2100042122
0.2100044181
0.2100046405
0.2100048642
0.2100050239
0.2100050887
0.210005029
0.2100048779
0.2100047238
0.2100046224
0.2100045745
0.2100045998
0.2100047088
0.2100048062
0.2100048912
0.2100050118
0.2100051408
0.2100052437
0.2100052884
0.2100051698
0.2100044601
0.2100046423
0.2100048362
0.2100045436
0.2100043651
0.2100039747
0.2100035978
0.2100031289
0.2100028312
0.2100028661
0.2100031193
0.2100036232
0.2100040443
0.2100044168
0.2100046369
0.2100048036
0.2100049355
0.2100050858
0.2100051769
0.2100051494
0.2100049936
0.2100047685
0.2100045731
0.2100044638
0.2100044263
0.2100044689
0.2100045871
0.2100046569
0.2100047054
0.2100048028
0.210004932
0.2100050603
0.2100051597
0.2100050953
0.2100043677
0.2100048519
0.2100044541
0.2100047237
0.2100043948
0.2100040212
0.2100036374
0.2100031343
0.2100028595
0.2100029735
0.2100033184
0.2100039842
0.2100044184
0.2100047991
0.2100049845
0.2100051434
0.2100051449
0.2100051867
0.2100051651
0.2100050623
0.2100048765
0.2100046436
0.2100044443
0.2100043341
0.2100043071
0.2100043606
0.2100044652
0.2100044774
0.2100044723
0.210004544
0.2100046887
0.2100048675
0.2100050299
0.2100050231
0.2100041631
0.2100045663
0.2099991931
0.210004249
0.2100042623
0.21000411
0.2100037225
0.2100032235
0.2100029715
0.2100031241
0.2100035558
0.2100042042
0.2100046357
0.210005004
0.2100051784
0.2100053449
0.2100051304
0.2100050689
0.2100049662
0.2100048621
0.2100047184
0.210004532
0.210004349
0.2100042353
0.2100042117
0.2100042684
0.2100043362
0.2100042704
0.2100042127
0.2100042733
0.2100044558
0.2100047018
0.2100049278
0.2100049676
0.2100039088
0.210003823
0.2100005759
0.2100041155
0.2100042546
0.2100041694
0.2100038097
0.2100033918
0.2100031707
0.2100033593
0.2100038534
0.2100044802
0.21000478
0.2100051541
0.2100052754
0.2100060357
0.2100050386
0.210004838
0.2100046343
0.2100045674
0.2100045078
0.2100044066
0.2100042668
0.2100041568
0.2100041307
0.2100041849
0.2100041975
0.210004075
0.2100039985
0.2100040787
0.2100043154
0.2100046258
0.2100048951
0.2100049498
0.2100040867
0.210004192
0.2100035458
0.2100044651
0.2100045591
0.210004345
0.2100040786
0.2100036744
0.2100034568
0.210003631
0.2100041357
0.2100046055
0.210004741
0.2100049046
0.2100050914
0.210004977
0.2100045937
0.2100043394
0.2100042309
0.2100042302
0.2100042561
0.2100042484
0.2100041741
0.210004083
0.2100040501
0.2100041027
0.2100040903
0.2100039781
0.2100039335
0.2100040618
0.210004352
0.2100046993
0.2100049691
0.2100050051
0.2100040775
0.2100043765
0.210004175
0.2100047412
0.2100047973
0.2100044725
0.2100043205
0.2100040109
0.2100037738
0.2100038694
0.2100042648
0.2100045404
0.2100045234
0.2100045179
0.210004841
0.2100048427
0.2100042874
0.2100040116
0.2100039039
0.21000394
0.2100040266
0.2100040962
0.2100040995
0.2100040585
0.2100040235
0.2100040833
0.2100041009
0.2100040668
0.2100040856
0.2100042707
0.2100045882
0.2100049305
0.2100051434
0.2100051667
0.2100040743
0.2100044265
0.2100046828
0.2100048807
0.2100050732
0.2100046982
0.2100043802
0.21000428
0.2100040759
0.2100040301
0.2100043236
0.2100044647
0.2100043818
0.2100043547
0.2100045598
0.2100044226
0.2100040261
0.2100037747
0.2100036976
0.2100037622
0.210003873
0.2100039681
0.210003995
0.2100039841
0.210003929
0.2100040217
0.2100041504
0.2100043305
0.2100044519
0.2100046699
0.2100049579
0.2100052156
0.2100053346
0.2100053593
0.2100040854
0.2100045648
0.210004764
0.21000494
0.2100051406
0.2100050574
0.2100044545
0.2100043271
0.210004297
0.2100040993
0.2100042211
0.2100045469
0.2100044572
0.210004749
0.2100046034
0.2100042602
0.210003873
0.2100036939
0.2100037004
0.2100038231
0.2100039638
0.2100040862
0.2100041157
0.210004254
0.2100040421
0.2100041603
0.2100042466
0.2100045401
0.2100047953
0.2100050646
0.2100052795
0.2100053994
0.2100053793
0.2100053935
0.210004163
0.2100046276
0.2100047505
0.2100049667
0.210005193
0.2100052349
0.2100047005
0.2100043557
0.2100043375
0.2100042391
0.210004421
0.2100046016
0.2100045591
0.2100045999
0.2100045424
0.2100042435
0.2100039891
0.2100039472
0.2100040432
0.2100042027
0.2100043509
0.210004439
0.210004459
0.210004579
0.2100043741
0.2100040255
0.21000414
0.2100045519
0.2100048768
0.2100052341
0.2100054339
0.2100054426
0.2100053627
0.2100053926
0.2100042855
0.2100047126
0.2100050045
0.210005148
0.2100053374
0.2100052839
0.2100049497
0.21000455
0.2100043673
0.2100043224
0.2100045433
0.2100047692
0.2100049655
0.2100049582
0.2100047788
0.2100045783
0.210004541
0.2100046458
0.2100048054
0.2100049357
0.2100049925
0.2100050728
0.2100050675
0.2100049496
0.2100061872
0.2100045359
0.2100044563
0.2100048119
0.2100050292
0.210005299
0.2100054461
0.2100054026
0.210005454
0.2100054806
0.2100044705
0.2100048445
0.2100051861
0.2100052814
0.2100051934
0.2100051202
0.210005072
0.2100047079
0.2100044737
0.2100043873
0.210004542
0.2100047
0.2100050882
0.2100053051
0.2100053531
0.2100051112
0.2100050184
0.21000512
0.2100052855
0.2100053577
0.2100053877
0.2100053038
0.2100055892
0.2100051131
0.2100080038
0.2100059259
0.2100051642
0.2100049928
0.2100052343
0.2100054584
0.2100054787
0.2100054258
0.2100055109
0.2100056093
0.2100047861
0.2100050406
0.2100053094
0.2100051798
0.2100047101
0.2100047032
0.2100049938
0.2100046972
0.2100045293
0.2100044999
0.2100045849
0.2100050101
0.2100057219
0.2100056936
0.2100057874
0.2100055249
0.210005315
0.2100054733
0.2100055758
0.210005663
0.2100056857
0.2100056878
0.2100056683
0.2100059432
0.2100059877
0.2100054579
0.2100053768
0.2100053998
0.2100054294
0.2100054783
0.2100053699
0.2100053322
0.2100053507
0.2100056222
0.2100050574
0.2100051966
0.2100053914
0.2100052301
0.210004869
0.2100049844
0.2100049827
0.2100047156
0.2100047084
0.21000482
0.2100051611
0.2100056188
0.210005964
0.2100058637
0.2100056118
0.2100053523
0.2100056143
0.2100057169
0.2100057808
0.2100059162
0.2100060135
0.2100058906
0.2100057586
0.2100055455
0.2100056342
0.2100056447
0.2100055335
0.2100054839
0.2100054589
0.2100053914
0.2100051504
0.21000502
0.2100050678
0.2100054064
0.2100051773
0.2100053039
0.210005448
0.2100053828
0.2100051479
0.2100051384
0.2100049627
0.210004765
0.2100048729
0.2100051551
0.2100056269
0.2100058854
0.2100058551
0.21000569
0.2100056606
0.2100055807
0.2100056166
0.2100057457
0.2100058816
0.2100059616
0.2100058832
0.2100057359
0.210005583
0.210005549
0.2100056213
0.210005717
0.210005697
0.2100055633
0.2100053765
0.2100051331
0.2100049384
0.2100048593
0.2100048701
0.2100050162
0.2100052668
0.2100053551
0.210005457
0.2100054681
0.2100053271
0.2100052449
0.2100050267
0.2100050107
0.210005276
0.2100055827
0.2100057598
0.210005787
0.2100057344
0.2100055948
0.2100055024
0.2100054437
0.2100055125
0.2100056551
0.2100057783
0.2100057705
0.2100056664
0.2100054452
0.2100051185
0.2100049221
0.210005024
0.2100053521
0.2100055608
0.2100055823
0.2100054235
0.2100053203
0.2100052691
0.2100052174
0.2100052312
0.2100053896
0.2100053617
0.21000542
0.2100054253
0.2100054679
0.2100055945
0.2100055863
0.2100053186
0.2100051616
0.2100052944
0.210005539
0.2100056138
0.2100056374
0.2100055656
0.2100053998
0.2100051881
0.2100050374
0.2100050002
0.2100051223
0.2100053875
0.210005574
0.2100055615
0.2100053956
0.2100050753
0.2100046744
0.2100045096
0.2100047099
0.2100051472
0.2100054674
0.2100055766
0.2100055154
0.2100053916
0.2100053016
0.2100052003
0.2100052883
0.2100051315
0.2100058443
0.2100056542
0.210005603
0.2100057137
0.2100058546
0.2100057571
0.2100054636
0.2100054045
0.210005599
0.2100057433
0.2100057255
0.2100055859
0.2100053729
0.2100051222
0.2100048795
0.2100047076
0.2100047075
0.2100048851
0.2100051872
0.2100053583
0.2100053204
0.2100051411
0.210004796
0.2100044708
0.2100044202
0.2100047679
0.2100052779
0.2100055752
0.2100056421
0.2100055596
0.2100054723
0.2100054391
0.2100053634
0.2100052612
0.2100050776
0.2100060821
0.2100058785
0.210005774
0.2100059164
0.2100060556
0.2100060095
0.2100057743
0.2100057225
0.2100058407
0.2100058478
0.2100057081
0.2100054796
0.2100052383
0.2100050002
0.2100047742
0.2100045715
0.2100047042
0.2100049141
0.2100051226
0.2100050867
0.210004982
0.2100049288
0.2100049087
0.2100049353
0.210005072
0.2100052839
0.2100054656
0.2100055628
0.2100055733
0.2100055557
0.2100055258
0.2100054429
0.2100053558
0.2100052148
0.2100051286
0.2100061124
0.2100059987
0.210006013
0.2100061372
0.2100063036
0.2100063086
0.210006129
0.2100060245
0.2100060009
0.2100058804
0.2100056779
0.2100054455
0.2100052453
0.2100050369
0.2100048387
0.2100046132
0.2100047799
0.2100049846
0.2100050375
0.2100049946
0.2100049433
0.2100049586
0.2100051099
0.210005253
0.2100053137
0.210005344
0.2100053506
0.2100053667
0.2100054264
0.21000551
0.2100055541
0.2100055219
0.2100054321
0.2100053279
0.2100052658
0.2100062829
0.210006325
0.2100064867
0.210006579
0.2100065279
0.210006356
0.2100061869
0.210006045
0.2100058728
0.2100056833
0.2100054952
0.2100053522
0.2100051802
0.210005131
0.2100049649
0.2100049147
0.2100049065
0.2100049896
0.2100051156
0.2100051911
0.21000517
0.2100052539
0.210005317
0.2100052868
0.2100052484
0.2100052433
0.2100052879
0.2100053701
0.2100054725
0.2100055704
0.210005623
0.2100055953
0.210005469
0.2100053479
0.2100065592
0.210006685
0.2100067548
0.2100067054
0.2100065632
0.2100063776
0.2100061786
0.2100060136
0.2100058705
0.2100057319
0.2100055425
0.2100054144
0.2100053673
0.2100053091
0.2100053105
0.2100053678
0.2100054589
0.2100055607
0.2100056608
0.210005734
0.210005746
0.210005658
0.2100055107
0.2100065276
0.2100064147
0.2100062686
0.2100060447
0.2100058791
0.2100057774
0.2100047385
0.2100047949
0.2100048412
0.210004863
0.2100048547
0.2100048178
0.2100047834
0.2100049034
0.210004947
0.2100048232
0.2100047383
0.2100046739
0.2100046549
0.2100046792
0.210004742
0.2100048251
0.2100049267
0.2100050419
0.2100051776
0.2100053347
0.2100054899
0.2100056057
0.2100056581
0.2100056629
0.2100056641
0.2100057022
0.2100057991
0.210005969
0.2100062522
0.2100066628
0.2100070664
0.2100072806
0.2100073095
0.2100072497
0.2100047632
0.2100048045
0.2100048248
0.2100048262
0.2100048278
0.2100048359
0.2100048126
0.210004812
0.2100046446
0.2100044789
0.2100044535
0.2100044715
0.2100045345
0.2100046371
0.2100047894
0.2100049523
0.2100051098
0.2100052423
0.2100053546
0.2100054609
0.2100055671
0.2100056601
0.2100057169
0.2100057282
0.2100057082
0.2100056745
0.2100056512
0.2100056893
0.2100058501
0.2100061772
0.2100065814
0.2100068713
0.2100069428
0.2100067109
0.2100046587
0.2100046551
0.2100046195
0.2100045797
0.2100045702
0.2100046007
0.2100046011
0.2100044902
0.2100042216
0.210004014
0.2100039803
0.2100040312
0.210004138
0.2100042936
0.2100045244
0.210004779
0.2100050185
0.2100052004
0.2100053259
0.2100054282
0.2100055303
0.2100056271
0.2100056927
0.2100057091
0.2100056785
0.2100056155
0.2100055474
0.2100055165
0.2100055726
0.2100057632
0.2100060691
0.2100063339
0.2100063527
0.2100060565
0.2100045469
0.2100045221
0.2100044498
0.2100043734
0.210004333
0.210004347
0.2100043376
0.2100041143
0.2100037871
0.2100035721
0.2100035212
0.2100035719
0.2100036962
0.2100038925
0.2100041794
0.2100045044
0.210004811
0.2100050304
0.2100051741
0.2100052882
0.210005401
0.2100055075
0.2100055788
0.2100055983
0.2100055698
0.2100055112
0.2100054523
0.2100054256
0.2100054571
0.2100055722
0.2100057705
0.2100059444
0.2100058955
0.2100056252
0.2100044483
0.2100044261
0.2100043452
0.2100042455
0.2100041594
0.210004111
0.2100040358
0.2100037344
0.2100033919
0.2100031912
0.2100031415
0.2100032028
0.2100033536
0.2100036022
0.2100039321
0.2100043043
0.2100046634
0.2100049058
0.2100050449
0.2100051565
0.2100052628
0.2100053593
0.2100054192
0.2100054319
0.2100054081
0.2100053671
0.2100053382
0.2100053458
0.2100054
0.2100055069
0.2100056595
0.2100057756
0.2100057037
0.210005447
0.2100043722
0.2100043514
0.2100042832
0.2100041772
0.2100040529
0.2100039034
0.2100037288
0.2100033941
0.2100030708
0.2100029013
0.2100028806
0.2100029867
0.2100031817
0.210003482
0.2100037969
0.2100041571
0.210004534
0.2100048413
0.2100049706
0.2100050787
0.2100051592
0.2100052175
0.2100052419
0.2100052345
0.2100052114
0.2100051919
0.2100052006
0.2100052519
0.2100053473
0.2100054813
0.210005634
0.2100057285
0.2100056549
0.2100054095
0.2100043245
0.2100042945
0.2100042384
0.2100041311
0.2100039857
0.2100037235
0.2100034622
0.2100031198
0.2100028298
0.2100027067
0.2100027377
0.2100029253
0.2100031687
0.2100034989
0.2100037292
0.2100040298
0.2100044006
0.2100047884
0.2100049644
0.210005071
0.2100051047
0.2100050958
0.2100050611
0.2100050223
0.210004998
0.210005001
0.2100050479
0.2100051404
0.2100052771
0.2100054486
0.2100056201
0.2100057067
0.2100056329
0.2100053957