/*--------------------------------*- C++ -*----------------------------------*\
  =========                 |
  \\      /  F ield         | OpenFOAM: The Open Source CFD Toolbox
   \\    /   O peration     | Website:  https://openfoam.org
    \\  /    A nd           | Version:  8
     \\/     M anipulation  |
\*---------------------------------------------------------------------------*/
FoamFile
{
    version     2.0;
    format      ascii;
    class       volScalarField;
    location    "0.7";
    object      p_rgh;
}
// * * * * * * * * * * * * * * * * * * * * * * * * * * * * * * * * * * * * * //

dimensions      [1 -1 -2 0 0 0 0];

internalField   nonuniform List<scalar> 
67193
(
100003.9441
100003.944
100003.9466
100003.9523
100003.9617
100003.9741
100003.989
100004.0115
100004.0287
100004.0457
100004.0641
100004.0682
100004.0628
100004.059
100004.0414
100004.0447
100004.0353
100004.0093
100003.9768
100003.9475
100003.9252
100003.9096
100003.8988
100003.8912
100003.8865
100003.8846
100003.8847
100003.8855
100003.8841
100003.884
100003.885
100003.8918
100003.8905
100003.9034
100003.9019
100003.9018
100003.9042
100003.9096
100003.9191
100003.9316
100003.9432
100003.9577
100003.9725
100003.9829
100003.9906
100003.9861
100003.9729
100003.9588
100003.9363
100003.9208
100003.9031
100003.8855
100003.8719
100003.863
100003.8586
100003.857
100003.8564
100003.8552
100003.8537
100003.853
100003.8536
100003.8558
100003.8591
100003.862
100003.8638
100003.8694
100003.8698
100003.8794
100003.8974
100003.9001
100003.903
100003.9072
100003.9165
100003.9286
100003.9383
100003.9512
100003.9672
100003.9764
100003.978
100003.9709
100003.9557
100003.9393
100003.9147
100003.8905
100003.8692
100003.8474
100003.8404
100003.8397
100003.8411
100003.8431
100003.8437
100003.8425
100003.8402
100003.8386
100003.8384
100003.8396
100003.8417
100003.8456
100003.8494
100003.8566
100003.8584
100003.8695
100003.8798
100003.8888
100003.8947
100003.8954
100003.9031
100003.9116
100003.9185
100003.9309
100003.9496
100003.9615
100003.9623
100003.9565
100003.9417
100003.9254
100003.8983
100003.8797
100003.87
100003.8203
100003.7954
100003.797
100003.8071
100003.8155
100003.8201
100003.8203
100003.8185
100003.8171
100003.8171
100003.8182
100003.8197
100003.8228
100003.8265
100003.8361
100003.8392
100003.858
100003.8668
100003.8849
100003.9011
100003.8964
100003.9014
100003.9042
100003.9097
100003.9241
100003.9489
100003.9675
100003.9725
100003.9704
100003.9563
100003.9442
100003.9182
100003.9167
100003.9418
100003.8552
100003.7943
100003.7735
100003.7865
100003.7995
100003.806
100003.806
100003.8034
100003.8016
100003.8011
100003.8012
100003.8015
100003.804
100003.8076
100003.8183
100003.8219
100003.8462
100003.8577
100003.8785
100003.9167
100003.8981
100003.9057
100003.8997
100003.9058
100003.9267
100003.9621
100003.9893
100004.0002
100003.9999
100003.9842
100003.977
100003.9583
100003.9716
100004.0366
100003.9154
100003.8196
100003.7686
100003.7755
100003.7897
100003.7955
100003.7941
100003.7905
100003.7884
100003.7877
100003.787
100003.7859
100003.7878
100003.7914
100003.8036
100003.8077
100003.8362
100003.8742
100003.8742
100003.9611
100003.902
100003.9326
100003.9063
100003.9161
100003.9465
100003.992
100004.028
100004.0431
100004.0407
100004.0202
100004.013
100003.9925
100004.0078
100004.071
100003.9472
100003.8329
100003.7746
100003.7804
100003.7906
100003.7909
100003.7856
100003.7807
100003.7785
100003.778
100003.7767
100003.7741
100003.7758
100003.7797
100003.7934
100003.7973
100003.8299
100003.9296
100003.8844
100004.0567
100003.9137
100003.9952
100003.9249
100003.9422
100003.9809
100004.0352
100004.0799
100004.0953
100004.0861
100004.0486
100004.0328
100004.0177
100004.0144
100003.9834
100003.8746
100003.8061
100003.7931
100003.7979
100003.796
100003.7879
100003.7793
100003.7736
100003.772
100003.772
100003.7704
100003.7668
100003.7692
100003.774
100003.7884
100003.7917
100003.8272
100004.0416
100003.9403
100004.2617
100003.9608
100004.1045
100003.9565
100003.9865
100004.0245
100004.0858
100004.138
100004.1508
100004.1322
100004.0779
100004.0415
100004.0164
100003.9839
100003.9352
100003.8781
100003.848
100003.8343
100003.8207
100003.8051
100003.7901
100003.7783
100003.7711
100003.7695
100003.7703
100003.7686
100003.765
100003.7688
100003.7743
100003.7884
100003.7912
100003.8288
100004.2149
100004.0818
100004.707
100004.0572
100004.255
100004.0071
100004.042
100004.0691
100004.1332
100004.1882
100004.1954
100004.1708
100004.1056
100004.0604
100004.0278
100004.0068
100003.9757
100003.9335
100003.893
100003.8602
100003.8329
100003.8102
100003.7921
100003.7788
100003.7713
100003.7703
100003.7726
100003.7719
100003.7694
100003.7748
100003.7801
100003.793
100003.7948
100003.8352
100004.365
100004.2802
100005.5412
100004.1236
100004.3847
100004.0716
100004.0949
100004.103
100004.1631
100004.2134
100004.2145
100004.1956
100004.1331
100004.0818
100004.0379
100004.0177
100003.9697
100003.9274
100003.8913
100003.8601
100003.8329
100003.8108
100003.7937
100003.7805
100003.7737
100003.7743
100003.779
100003.7804
100003.78
100003.7862
100003.7903
100003.8008
100003.8013
100003.8444
100004.8581
100004.9697
100009.9516
100004.4617
100004.8468
100004.2329
100004.1782
100004.1156
100004.1616
100004.1921
100004.1897
100004.1713
100004.1443
100004.0956
100004.0474
100004.0655
100003.9786
100003.9362
100003.8979
100003.8634
100003.8346
100003.8122
100003.7957
100003.7835
100003.7787
100003.7813
100003.7892
100003.7937
100003.7949
100003.8002
100003.8019
100003.8094
100003.8088
100003.8538
100004.0211
100004.1674
100004.5188
100004.0347
100004.0459
100004.0118
100004.0252
100004.0595
100004.1217
100004.1502
100004.1557
100004.1616
100004.1682
100004.1497
100004.117
100004.3415
100003.9961
100003.9421
100003.9005
100003.8654
100003.836
100003.8138
100003.7985
100003.7875
100003.787
100003.7912
100003.8026
100003.8097
100003.8102
100003.8123
100003.811
100003.8168
100003.8172
100003.8629
100004.1785
100004.093
100004.6888
100004.0502
100004.1888
100004.0239
100004.0109
100004.0181
100004.0736
100004.0917
100004.1375
100004.1481
100004.1859
100004.2404
100004.1473
100004.069
100003.9687
100003.9316
100003.898
100003.8678
100003.8396
100003.8171
100003.8028
100003.7901
100003.8004
100003.8043
100003.818
100003.8258
100003.8243
100003.8216
100003.8175
100003.8242
100003.8288
100003.8744
100003.9283
100003.8804
100003.9918
100003.8937
100003.9129
100003.9361
100003.9692
100003.969
100004.0191
100004.0655
100004.0853
100004.112
100004.2052
100004.2497
100004.1095
100004.0515
100003.9974
100003.9538
100003.9147
100003.8812
100003.8505
100003.8255
100003.8167
100003.7902
100003.8339
100003.8233
100003.8363
100003.8419
100003.8344
100003.8265
100003.8226
100003.837
100003.8496
100003.8955
100003.8602
100003.8586
100003.9765
100003.9094
100003.9142
100003.9098
100003.9439
100003.9387
100003.9687
100004.0143
100004.0373
100004.053
100004.1109
100004.112
100004.0234
100004.0158
100003.9706
100003.9488
100003.9221
100003.8924
100003.8598
100003.8263
100003.8339
100003.7631
100003.8626
100003.8322
100003.8578
100003.8683
100003.8597
100003.8486
100003.8429
100003.8601
100003.8708
100003.9047
100003.83
100003.8356
100003.9167
100003.8888
100003.8754
100003.8647
100003.9286
100003.9326
100003.9396
100003.9816
100004.0048
100004.0132
100004.023
100004.0105
100004.0108
100003.9993
100003.9664
100003.9483
100003.9243
100003.8962
100003.8732
100003.8219
100003.8805
100003.7951
100003.9366
100003.9042
100003.9183
100003.9101
100003.8893
100003.8693
100003.8567
100003.8721
100003.8644
100003.8932
100003.7972
100003.8032
100003.8657
100003.8697
100003.8602
100003.8478
100003.8863
100003.9168
100003.9291
100003.9533
100003.9927
100004.0249
100004.0373
100004.0357
100004.0237
100003.9952
100003.9653
100003.9448
100003.9178
100003.8945
100003.8816
100003.7985
100003.8457
100003.6272
100003.6105
100003.7716
100003.8795
100003.9297
100003.9327
100003.9223
100003.8997
100003.8895
100003.8592
100003.8862
100003.7853
100003.7882
100003.8285
100003.8419
100003.8533
100003.8416
100003.8634
100003.909
100003.9421
100003.9724
100004.0398
100004.0648
100004.1032
100004.0829
100004.0434
100003.9991
100003.9611
100003.9285
100003.9039
100003.8739
100003.8946
100003.8227
100003.9254
100003.9266
100003.9959
100003.9144
100003.802
100003.9068
100003.9167
100003.9066
100003.8866
100003.8919
100003.848
100003.9031
100003.7748
100003.7782
100003.8068
100003.8307
100003.8531
100003.8359
100003.8375
100003.8969
100003.951
100004.0006
100004.074
100004.0998
100004.1322
100004.1037
100004.0645
100004.017
100003.9677
100003.9335
100003.9119
100003.9043
100003.9332
100003.9581
100003.8047
100003.8562
100004.836
100004.2914
100003.6
100003.8937
100004.0308
100004.0407
100003.981
100003.931
100003.8765
100003.9459
100003.7704
100003.7716
100003.7912
100003.8333
100003.8695
100003.8423
100003.8347
100003.895
100003.9458
100004.0011
100004.1183
100004.1297
100004.2069
100004.1111
100004.0674
100004.0069
100003.964
100003.9332
100003.9005
100003.873
100003.8704
100003.8126
100003.8815
100003.7471
100003.7347
100003.8262
100003.7993
100003.8227
100003.8556
100003.8906
100003.8723
100003.8921
100003.9258
100003.9972
100003.7632
100003.7618
100003.7715
100003.8026
100003.836
100003.8122
100003.8385
100003.8865
100003.923
100003.9818
100004.0729
100004.0552
100004.1127
100004.0701
100004.0595
100004.0058
100003.9634
100003.9235
100003.9085
100003.8951
100003.8999
100003.8794
100003.9352
100003.8458
100003.9767
100004.0275
100003.9192
100003.9069
100003.9397
100003.9604
100003.9518
100003.9803
100004.0189
100004.0474
100003.756
100003.7546
100003.7567
100003.7726
100003.7898
100003.7902
100003.8272
100003.8606
100003.8832
100003.923
100003.9645
100003.9862
100004.0529
100004.0308
100004.0116
100003.9616
100003.9345
100003.8932
100003.8703
100003.853
100003.8841
100003.853
100003.8995
100003.8392
100004.0941
100003.9269
100003.8532
100003.823
100003.8563
100003.8912
100003.9174
100003.9469
100003.9934
100004.0355
100003.7617
100003.7597
100003.761
100003.7676
100003.7788
100003.7927
100003.8236
100003.8548
100003.8846
100003.9413
100003.9635
100003.9858
100004.0111
100003.9855
100003.9608
100003.9299
100003.9126
100003.8929
100003.8771
100003.895
100003.8917
100003.8769
100003.9065
100003.9314
100004.0205
100003.957
100003.9014
100003.8628
100003.8596
100003.8841
100003.8929
100003.9068
100003.8902
100003.9562
100003.7883
100003.7765
100003.7699
100003.7725
100003.7758
100003.7799
100003.794
100003.8168
100003.8371
100003.8497
100003.874
100003.896
100003.9107
100003.9253
100003.9261
100003.9286
100003.9082
100003.8911
100003.8681
100003.8653
100003.8579
100003.8405
100003.8307
100003.8952
100003.9431
100003.9838
100003.9151
100003.8519
100003.8094
100003.7991
100003.8262
100003.8542
100003.8812
100003.8573
100003.9201
100003.8023
100003.7934
100003.7813
100003.785
100003.7931
100003.7928
100003.807
100003.8251
100003.8369
100003.8466
100003.863
100003.8777
100003.8853
100003.9147
100003.9195
100003.9278
100003.9052
100003.8884
100003.8685
100003.8633
100003.8591
100003.8524
100003.8567
100003.888
100003.9154
100003.912
100003.8672
100003.833
100003.8151
100003.8191
100003.8415
100003.8521
100003.8656
100003.8569
100003.8982
100003.81
100003.7994
100003.7922
100003.7819
100003.791
100003.7979
100003.806
100003.8209
100003.8213
100003.8185
100003.821
100003.8325
100003.8501
100003.879
100003.8852
100003.9098
100003.8788
100003.8678
100003.8585
100003.8528
100003.846
100003.8404
100003.8354
100003.8408
100003.8332
100003.8204
100003.8089
100003.8077
100003.8173
100003.8325
100003.8512
100003.8694
100003.8933
100003.89
100003.9183
100003.8036
100003.8088
100003.8099
100003.8094
100003.8144
100003.8165
100003.8211
100003.8277
100003.8249
100003.8245
100003.8254
100003.845
100003.8359
100003.8999
100003.8846
100003.9198
100003.8882
100003.8861
100003.8696
100003.8619
100003.8559
100003.8505
100003.844
100003.8338
100003.823
100003.8164
100003.8174
100003.825
100003.8363
100003.848
100003.8627
100003.8774
100003.9103
100003.9289
100003.9615
100003.8154
100003.8257
100003.8274
100003.8315
100003.8307
100003.8348
100003.8365
100003.8269
100003.8202
100003.8159
100003.8269
100003.827
100003.8754
100003.8444
100003.8663
100003.8655
100003.8613
100003.8534
100003.8447
100003.838
100003.8348
100003.8328
100003.8377
100003.8427
100003.8433
100003.8443
100003.848
100003.853
100003.8585
100003.8668
100003.8793
100003.9037
100003.9216
100003.9703
100003.8257
100003.8341
100003.839
100003.8422
100003.8399
100003.8432
100003.8452
100003.8389
100003.8417
100003.8347
100003.8575
100003.8306
100003.853
100003.8527
100003.8525
100003.8525
100003.8533
100003.8568
100003.8664
100003.8794
100003.9026
100003.9157
100003.951
100003.8325
100003.8318
100003.8347
100003.8321
100003.8375
100003.8313
100003.9185
100003.9229
100003.9299
100003.9397
100003.9509
100003.9617
100003.9675
100003.9794
100003.9947
100004.0114
100004.0258
100004.0311
100004.023
100004.006
100003.9735
100003.9304
100003.8925
100003.8693
100003.8628
100003.8679
100003.8761
100003.8814
100003.8827
100003.8812
100003.8788
100003.8773
100003.8773
100003.8779
100003.8797
100003.8815
100003.8805
100003.8869
100003.8852
100003.9007
100003.8745
100003.8769
100003.8822
100003.8913
100003.9015
100003.9116
100003.9142
100003.9211
100003.9343
100003.9483
100003.9561
100003.9545
100003.9399
100003.9168
100003.8788
100003.8226
100003.7821
100003.7621
100003.7669
100003.7855
100003.8085
100003.8277
100003.8391
100003.8444
100003.846
100003.8469
100003.8484
100003.8518
100003.8543
100003.8572
100003.8601
100003.8686
100003.8689
100003.8828
100003.8691
100003.8734
100003.8779
100003.8857
100003.8954
100003.9053
100003.9071
100003.9124
100003.9256
100003.9392
100003.9456
100003.9414
100003.9262
100003.9069
100003.8692
100003.8154
100003.7828
100003.751
100003.7353
100003.75
100003.7799
100003.8068
100003.8232
100003.8293
100003.831
100003.8315
100003.8322
100003.8336
100003.8355
100003.8384
100003.841
100003.8489
100003.8516
100003.8673
100003.8476
100003.862
100003.8679
100003.8747
100003.8828
100003.8889
100003.887
100003.8926
100003.9076
100003.921
100003.9285
100003.9273
100003.914
100003.9001
100003.858
100003.8023
100003.7822
100003.7494
100003.7122
100003.6975
100003.7245
100003.7648
100003.7927
100003.8038
100003.8072
100003.8087
100003.8098
100003.8104
100003.8108
100003.8132
100003.8162
100003.825
100003.8277
100003.8481
100003.821
100003.8508
100003.8648
100003.8741
100003.8791
100003.8775
100003.8739
100003.8838
100003.9027
100003.9183
100003.9293
100003.9344
100003.9247
100003.9183
100003.8644
100003.8111
100003.8004
100003.7678
100003.7337
100003.6956
100003.6949
100003.7366
100003.771
100003.7865
100003.7909
100003.7925
100003.7929
100003.7919
100003.7905
100003.7925
100003.7963
100003.8067
100003.8094
100003.8337
100003.7901
100003.823
100003.8484
100003.8669
100003.8761
100003.8637
100003.8641
100003.8818
100003.9041
100003.9243
100003.9392
100003.9478
100003.9393
100003.9357
100003.8746
100003.8262
100003.8167
100003.776
100003.7457
100003.706
100003.6887
100003.7191
100003.7537
100003.7708
100003.7763
100003.7784
100003.7785
100003.7756
100003.7723
100003.7747
100003.7796
100003.792
100003.7949
100003.823
100003.7852
100003.7976
100003.83
100003.8499
100003.8814
100003.8546
100003.8642
100003.8877
100003.9142
100003.9406
100003.959
100003.9689
100003.9568
100003.9493
100003.9019
100003.8468
100003.8274
100003.783
100003.7512
100003.7154
100003.703
100003.7275
100003.7517
100003.7624
100003.7661
100003.7682
100003.7679
100003.7633
100003.7591
100003.7623
100003.7675
100003.7817
100003.7832
100003.8162
100003.8073
100003.7804
100003.8442
100003.8179
100003.8991
100003.8486
100003.8725
100003.8994
100003.9313
100003.9651
100003.9854
100003.9975
100003.9736
100003.9556
100003.9388
100003.8717
100003.8064
100003.7526
100003.7282
100003.7245
100003.7422
100003.7584
100003.7624
100003.7607
100003.7597
100003.7611
100003.7609
100003.7554
100003.7513
100003.7552
100003.7598
100003.7756
100003.7757
100003.8128
100003.844
100003.7773
100003.8736
100003.7849
100003.921
100003.8468
100003.8851
100003.9148
100003.9517
100003.9946
100004.0155
100004.0327
100003.9951
100003.9647
100003.9365
100003.9113
100003.8712
100003.8372
100003.8208
100003.8123
100003.8016
100003.7867
100003.7723
100003.7615
100003.756
100003.7567
100003.7575
100003.7523
100003.7486
100003.7533
100003.7575
100003.7735
100003.7736
100003.8118
100003.8791
100003.8052
100003.7914
100003.7616
100003.9212
100003.851
100003.8975
100003.9293
100003.97
100004.0217
100004.0405
100004.0693
100004.0135
100003.9748
100003.9357
100003.9151
100003.8948
100003.885
100003.8707
100003.8469
100003.8198
100003.7956
100003.7758
100003.7617
100003.7538
100003.7544
100003.7574
100003.7537
100003.7507
100003.7556
100003.76
100003.7756
100003.7749
100003.8147
100003.8875
100003.8986
100004.053
100003.7515
100003.8962
100003.8588
100003.9067
100003.937
100003.9794
100004.0383
100004.0548
100004.1191
100004.0338
100003.9863
100003.9388
100003.9629
100003.9102
100003.9014
100003.879
100003.8493
100003.8206
100003.7961
100003.7769
100003.7625
100003.7528
100003.7538
100003.7605
100003.7597
100003.7582
100003.7626
100003.7661
100003.7807
100003.7791
100003.8209
100003.7573
100003.8588
100002.865
100003.3835
100003.709
100003.8666
100003.9028
100003.9306
100003.97
100004.0148
100004.0303
100004.057
100004.006
100003.9641
100003.9041
100003.935
100003.863
100003.8867
100003.8674
100003.8426
100003.8166
100003.7943
100003.7762
100003.7624
100003.752
100003.7541
100003.7652
100003.7692
100003.7686
100003.7721
100003.774
100003.7865
100003.7843
100003.8273
100003.5974
100003.7407
100002.8655
100003.6756
100003.6237
100003.8294
100003.8547
100003.9075
100003.9518
100003.9963
100004.0181
100004.0604
100003.9966
100004.0075
100003.8902
100004.3888
100003.8119
100003.9094
100003.8525
100003.8331
100003.8108
100003.79
100003.7724
100003.7598
100003.7498
100003.7532
100003.7682
100003.7774
100003.7781
100003.7804
100003.7805
100003.7913
100003.7902
100003.8324
100003.8052
100003.7688
100003.5222
100003.7395
100003.8149
100003.8597
100003.8578
100003.8907
100003.9321
100003.9773
100004.025
100004.0501
100003.9569
100003.9626
100003.89
100003.814
100003.8267
100003.8439
100003.8407
100003.8284
100003.8057
100003.7827
100003.7613
100003.7468
100003.7346
100003.7433
100003.7641
100003.7817
100003.7836
100003.7853
100003.7846
100003.7954
100003.7975
100003.8391
100003.7287
100003.7262
100003.5815
100003.7374
100003.7262
100003.8085
100003.8591
100003.8683
100003.9182
100003.9655
100003.9698
100003.9662
100003.9403
100003.9568
100003.91
100003.9593
100003.8724
100003.8736
100003.8558
100003.8346
100003.8084
100003.7846
100003.7653
100003.7555
100003.7338
100003.7459
100003.7566
100003.7774
100003.7804
100003.7847
100003.7866
100003.8032
100003.809
100003.8552
100003.7643
100003.7661
100003.7705
100003.7592
100003.7646
100003.788
100003.8446
100003.851
100003.8904
100003.9329
100003.9696
100003.9768
100003.9322
100003.9464
100003.9216
100003.9437
100003.8987
100003.8818
100003.8561
100003.8262
100003.7877
100003.7511
100003.7057
100003.6751
100003.6019
100003.6462
100003.6774
100003.748
100003.7723
100003.7885
100003.7955
100003.8189
100003.8245
100003.8677
100003.7537
100003.7563
100003.758
100003.7536
100003.7611
100003.7731
100003.8237
100003.8504
100003.8686
100003.9115
100003.9457
100003.963
100003.9564
100003.9493
100003.9421
100003.9491
100003.9117
100003.8879
100003.862
100003.8327
100003.8002
100003.7699
100003.7123
100003.7353
100003.478
100003.6174
100003.6327
100003.7418
100003.7684
100003.7918
100003.7995
100003.8271
100003.8029
100003.8362
100003.7456
100003.7556
100003.7627
100003.7554
100003.762
100003.7703
100003.8182
100003.8597
100003.8703
100003.9043
100003.9523
100003.978
100003.9836
100003.9579
100003.9789
100003.9372
100003.9074
100003.8772
100003.8409
100003.8083
100003.7601
100003.7217
100003.6185
100003.5321
100003.0262
100003.14
100003.2939
100003.6171
100003.7145
100003.7961
100003.816
100003.8234
100003.76
100003.7848
100003.743
100003.7536
100003.7633
100003.7579
100003.7733
100003.7668
100003.802
100003.8562
100003.9018
100003.9216
100004.0017
100004.0291
100004.0951
100004.0615
100004.0341
100003.9843
100003.9298
100003.8881
100003.8525
100003.8199
100003.7858
100003.7906
100003.7001
100003.7294
100003.4864
100003.1438
100003.1169
100003.5488
100003.6877
100003.7891
100003.8078
100003.7856
100003.751
100003.7816
100003.7399
100003.7498
100003.7593
100003.7637
100003.7612
100003.7599
100003.7757
100003.8343
100003.9169
100003.9598
100004.0528
100004.0577
100004.1371
100004.0734
100004.0483
100003.9859
100003.9341
100003.8952
100003.8498
100003.8258
100003.7857
100003.7636
100003.6382
100003.3571
100003.5821
100003.2712
100002.8353
100003.1686
100003.5502
100003.7798
100003.8076
100003.7836
100003.8033
100003.8307
100003.7375
100003.7423
100003.7525
100003.7621
100003.7636
100003.7644
100003.7783
100003.836
100003.8997
100003.9418
100004.0739
100004.0711
100004.2972
100004.1188
100004.0889
100003.9911
100003.9484
100003.9033
100003.8604
100003.8196
100003.7914
100003.7521
100003.7612
100003.7175
100003.4156
100003.4523
100003.5045
100003.6438
100003.7095
100003.7876
100003.7759
100003.7873
100003.8136
100003.8625
100003.733
100003.7354
100003.7436
100003.7516
100003.7575
100003.763
100003.7789
100003.8334
100003.8837
100003.9433
100004.016
100004.01
100004.115
100004.0268
100004.0358
100003.9744
100003.9283
100003.8773
100003.8407
100003.815
100003.7822
100003.7615
100003.7201
100003.6454
100003.5075
100003.5589
100003.5263
100003.6289
100003.7127
100003.801
100003.8103
100003.8293
100003.8464
100003.9069
100003.7248
100003.7282
100003.7341
100003.7383
100003.7426
100003.7511
100003.7728
100003.8178
100003.8405
100003.8776
100003.9251
100003.9426
100004.0223
100003.9938
100003.9847
100003.9435
100003.915
100003.8659
100003.8291
100003.7969
100003.7887
100003.7777
100003.7547
100003.7338
100003.7331
100003.6989
100003.6855
100003.6956
100003.7044
100003.7815
100003.7645
100003.7955
100003.8148
100003.8769
100003.7305
100003.7281
100003.7333
100003.7395
100003.7506
100003.7563
100003.7845
100003.8312
100003.8404
100003.9173
100003.9173
100003.9361
100003.9739
100003.9348
100003.9152
100003.892
100003.8736
100003.8545
100003.8261
100003.8173
100003.8206
100003.7682
100003.7559
100003.7521
100003.7462
100003.7382
100003.7289
100003.7497
100003.7591
100003.7817
100003.8159
100003.8201
100003.8132
100003.8352
100003.7667
100003.7499
100003.7424
100003.7428
100003.7447
100003.7464
100003.7515
100003.7828
100003.81
100003.8111
100003.8275
100003.8441
100003.8573
100003.8705
100003.8687
100003.8691
100003.859
100003.8511
100003.8439
100003.8376
100003.831
100003.7848
100003.7637
100003.7712
100003.7725
100003.7719
100003.7539
100003.7427
100003.7436
100003.7461
100003.7435
100003.7613
100003.7979
100003.7767
100003.7869
100003.7756
100003.7686
100003.7619
100003.7546
100003.7602
100003.7566
100003.7688
100003.8015
100003.8176
100003.8248
100003.8399
100003.8373
100003.8371
100003.8456
100003.8453
100003.8454
100003.8437
100003.8439
100003.8423
100003.8468
100003.8413
100003.8261
100003.7993
100003.7926
100003.7888
100003.7787
100003.7682
100003.7678
100003.7706
100003.7608
100003.7836
100003.8154
100003.8395
100003.7801
100003.795
100003.7751
100003.7691
100003.7707
100003.7653
100003.7632
100003.7728
100003.7869
100003.8047
100003.8014
100003.7918
100003.7887
100003.7938
100003.8066
100003.8258
100003.836
100003.8381
100003.8434
100003.8496
100003.846
100003.8378
100003.8253
100003.8123
100003.8011
100003.7861
100003.767
100003.7572
100003.7565
100003.7555
100003.7533
100003.7696
100003.8121
100003.8405
100003.8737
100003.8295
100003.8591
100003.771
100003.7805
100003.7928
100003.7913
100003.7945
100003.8038
100003.8099
100003.8157
100003.8088
100003.8016
100003.7948
100003.7918
100003.7985
100003.7792
100003.8054
100003.7542
100003.835
100003.8359
100003.8375
100003.832
100003.8222
100003.813
100003.8019
100003.7891
100003.7741
100003.7641
100003.7606
100003.7641
100003.7826
100003.813
100003.8421
100003.8612
100003.8919
100003.8996
100003.9355
100003.7864
100003.806
100003.813
100003.8187
100003.8197
100003.8215
100003.8196
100003.8087
100003.7991
100003.7923
100003.794
100003.8046
100003.8177
100003.8289
100003.8231
100003.8345
100003.8121
100003.8181
100003.8139
100003.8127
100003.7896
100003.781
100003.7772
100003.7791
100003.7777
100003.7832
100003.7993
100003.8188
100003.8346
100003.8499
100003.8631
100003.8873
100003.8943
100003.9333
100003.7966
100003.8169
100003.8246
100003.8313
100003.8268
100003.8311
100003.8285
100003.819
100003.8092
100003.7925
100003.749
100003.7629
100003.802
100003.8037
100003.8101
100003.8189
100003.8287
100003.8387
100003.8513
100003.8627
100003.8856
100003.8955
100003.9309
100003.8166
100003.8171
100003.8166
100003.8186
100003.8184
100003.8168
100003.8803
100003.8861
100003.8953
100003.909
100003.9261
100003.944
100003.9569
100003.9673
100003.9782
100003.9886
100003.9899
100003.9843
100003.9703
100003.9508
100003.9265
100003.9029
100003.8813
100003.863
100003.8495
100003.8401
100003.834
100003.8304
100003.8279
100003.8272
100003.8279
100003.8294
100003.8303
100003.8323
100003.8351
100003.838
100003.8403
100003.8481
100003.8472
100003.8593
100003.8495
100003.8518
100003.857
100003.8666
100003.8798
100003.8954
100003.9045
100003.9124
100003.9199
100003.9302
100003.93
100003.9221
100003.9075
100003.8902
100003.8713
100003.8541
100003.8394
100003.8269
100003.818
100003.811
100003.8063
100003.8043
100003.805
100003.8069
100003.8096
100003.8127
100003.8162
100003.8188
100003.8208
100003.8249
100003.8278
100003.8346
100003.8331
100003.8426
100003.8431
100003.846
100003.8511
100003.8599
100003.8725
100003.8875
100003.8941
100003.9031
100003.9106
100003.9205
100003.9224
100003.9172
100003.9048
100003.89
100003.8737
100003.8567
100003.8416
100003.8295
100003.8199
100003.8114
100003.8043
100003.7993
100003.7974
100003.7978
100003.7992
100003.801
100003.8031
100003.8064
100003.8103
100003.8155
100003.8186
100003.8246
100003.8229
100003.83
100003.8274
100003.8313
100003.8368
100003.8453
100003.8582
100003.872
100003.8786
100003.887
100003.8954
100003.9047
100003.9077
100003.9045
100003.893
100003.8802
100003.8628
100003.8424
100003.8221
100003.8062
100003.7998
100003.7939
100003.7877
100003.7828
100003.7802
100003.7802
100003.7814
100003.7831
100003.7855
100003.7886
100003.7923
100003.7973
100003.8009
100003.8071
100003.8067
100003.8141
100003.8186
100003.8245
100003.8322
100003.841
100003.8531
100003.8645
100003.8737
100003.884
100003.8952
100003.9067
100003.9127
100003.9141
100003.9045
100003.8958
100003.8787
100003.8576
100003.8312
100003.8008
100003.7944
100003.7901
100003.7837
100003.7769
100003.7721
100003.77
100003.77
100003.7709
100003.7724
100003.7746
100003.7775
100003.782
100003.7854
100003.7926
100003.7917
100003.8032
100003.8073
100003.8155
100003.8273
100003.8357
100003.8505
100003.8592
100003.8717
100003.886
100003.9018
100003.9183
100003.9282
100003.936
100003.9264
100003.9223
100003.9056
100003.8816
100003.8502
100003.8059
100003.7876
100003.7868
100003.7811
100003.772
100003.7651
100003.7613
100003.76
100003.7603
100003.761
100003.7618
100003.7634
100003.7669
100003.7699
100003.7786
100003.779
100003.7942
100003.796
100003.8034
100003.8199
100003.8279
100003.8518
100003.8569
100003.8749
100003.8942
100003.9154
100003.9406
100003.954
100003.9721
100003.9576
100003.954
100003.9343
100003.9053
100003.8692
100003.8206
100003.7935
100003.7909
100003.7829
100003.7714
100003.7625
100003.757
100003.7543
100003.7534
100003.7528
100003.7523
100003.7527
100003.7555
100003.7581
100003.7682
100003.7687
100003.7882
100003.7864
100003.7828
100003.7862
100003.8136
100003.8507
100003.8547
100003.8812
100003.9069
100003.9331
100003.9721
100003.9856
100004.0228
100003.9921
100003.9823
100003.9552
100003.9214
100003.8791
100003.8322
100003.8109
100003.801
100003.7882
100003.7744
100003.7635
100003.7563
100003.752
100003.7496
100003.7477
100003.7458
100003.7452
100003.7484
100003.7515
100003.7622
100003.7613
100003.7858
100003.7687
100003.758
100003.7168
100003.7949
100003.8312
100003.8516
100003.8857
100003.922
100003.9507
100004.0106
100004.0188
100004.0916
100004.0301
100004.0103
100003.9735
100003.9436
100003.9082
100003.8665
100003.8401
100003.8201
100003.8003
100003.7821
100003.7685
100003.7592
100003.753
100003.749
100003.7459
100003.7428
100003.7414
100003.7441
100003.7483
100003.7606
100003.7589
100003.7867
100003.7032
100003.7228
100003.2098
100003.748
100003.7452
100003.8424
100003.8811
100003.9356
100003.9626
100004.0482
100004.0467
100004.1665
100004.0644
100004.0426
100003.9931
100003.9732
100003.9468
100003.906
100003.8695
100003.8375
100003.8103
100003.7894
100003.7747
100003.7638
100003.7562
100003.7513
100003.7479
100003.7448
100003.7436
100003.7459
100003.7493
100003.7618
100003.7614
100003.7893
100003.6538
100003.7031
100002.9417
100003.7211
100003.7
100003.8487
100003.8691
100003.9446
100003.9644
100004.0832
100004.0709
100004.3403
100004.1165
100004.0944
100004.0162
100004.008
100003.9851
100003.9336
100003.8849
100003.8456
100003.8162
100003.7951
100003.7795
100003.7689
100003.7617
100003.7571
100003.7545
100003.7518
100003.7502
100003.7524
100003.7551
100003.7662
100003.7659
100003.7944
100003.2027
100003.4763
99999.88911
100003.355
100003.2895
100003.8114
100003.8159
100003.9282
100003.9418
100004.0202
100004.0256
100004.0971
100004.0417
100004.0366
100003.9895
100004.0376
100004.0367
100003.9579
100003.8975
100003.8526
100003.8205
100003.7987
100003.7844
100003.7755
100003.77
100003.7668
100003.766
100003.7632
100003.7611
100003.7621
100003.7632
100003.7719
100003.7715
100003.7982
100003.5405
100003.6376
100002.8692
100003.6207
100003.6048
100003.8271
100003.82
100003.9097
100003.924
100003.9902
100004.006
100004.0797
100004.0161
100004.0132
100003.9247
100003.6965
100003.8706
100003.9064
100003.8685