/*--------------------------------*- C++ -*----------------------------------*\
  =========                 |
  \\      /  F ield         | OpenFOAM: The Open Source CFD Toolbox
   \\    /   O peration     | Website:  https://openfoam.org
    \\  /    A nd           | Version:  8
     \\/     M anipulation  |
\*---------------------------------------------------------------------------*/
FoamFile
{
    version     2.0;
    format      ascii;
    class       surfaceScalarField;
    location    "0.7";
    object      phi;
}
// * * * * * * * * * * * * * * * * * * * * * * * * * * * * * * * * * * * * * //

dimensions      [1 0 -1 0 0 0 0];

internalField   nonuniform List<scalar> 
196504
(
-5.014124846e-05
-1.576051705e-05
1.482555116e-05
-4.738749293e-05
-1.53484957e-05
1.259354503e-05
-4.335609027e-05
-1.480386286e-05
1.077122763e-05
-3.877008998e-05
-1.413710231e-05
9.549853776e-06
-3.457613548e-05
-1.344130425e-05
9.246105995e-06
-3.150570801e-05
-1.273701497e-05
9.665364439e-06
-2.80288485e-05
-1.291749059e-05
9.439435086e-06
-1.918525856e-05
-1.490423188e-05
6.059475048e-06
-2.768677711e-06
-1.731787008e-05
9.00153464e-07
1.292275367e-05
-2.033191489e-05
4.639385478e-06
2.34372391e-05
-2.154586881e-05
1.103032582e-05
3.171561511e-05
-2.413812328e-05
1.585872508e-05
3.787487226e-05
-2.501780463e-05
1.885756026e-05
4.368280864e-05
-2.732144528e-05
2.151256314e-05
4.731591299e-05
-2.698487651e-05
2.335086663e-05
5.473906779e-05
-3.326485631e-05
2.584085909e-05
6.390844429e-05
-3.684413858e-05
2.767396403e-05
7.052913533e-05
-3.522411e-05
2.860266239e-05
7.311354781e-05
-3.102099416e-05
2.843587406e-05
7.191568944e-05
-2.626453437e-05
2.746174269e-05
6.77339386e-05
-2.193271975e-05
2.611388435e-05
6.148323727e-05
-1.824238705e-05
2.449257122e-05
5.398417436e-05
-1.524047116e-05
2.273908758e-05
4.618866845e-05
-1.316619805e-05
2.096132865e-05
3.91366469e-05
-1.236440591e-05
1.941611677e-05
3.359820199e-05
-1.2873688e-05
1.841186921e-05
2.96416561e-05
-1.413285079e-05
1.808915126e-05
2.635197621e-05
-1.502132497e-05
1.831074066e-05
2.241643739e-05
-1.443491934e-05
1.83701362e-05
1.7448131e-05
-1.259579875e-05
1.75636943e-05
1.136774513e-05
-1.02141669e-05
1.62940355e-05
5.10237694e-06
-8.802417119e-06
1.506716328e-05
3.324959237e-07
-9.523759904e-06
1.429293297e-05
-1.404849175e-05
1.438024097e-05
-4.378045062e-05
-2.516525312e-05
1.008821505e-05
-4.22374398e-05
-2.377932998e-05
6.886627176e-06
-3.887186667e-05
-2.217525673e-05
4.004585273e-06
-3.447005804e-05
-2.064259265e-05
2.102424611e-06
-3.009350019e-05
-1.990224625e-05
2.08312086e-06
-2.734257074e-05
-1.95578813e-05
4.068681517e-06
-2.536701658e-05
-2.07483494e-05
5.854060873e-06
-1.804857405e-05
-2.376770971e-05
1.543803125e-06
-3.063156749e-06
-2.683497952e-05
-5.469516762e-06
1.135824255e-05
-3.161994136e-05
-3.134545406e-06
2.108567947e-05
-3.496371717e-05
3.689277471e-06
2.761352175e-05
-3.919117963e-05
8.524120089e-06
3.276436361e-05
-4.000869307e-05
9.838991815e-06
3.759880326e-05
-4.33161183e-05
1.11592249e-05
4.125661432e-05
-4.163405184e-05
1.099040148e-05
4.970993932e-05
-5.158774314e-05
9.86867236e-06
6.009533443e-05
-5.751200164e-05
1.028162821e-05
6.760694048e-05
-5.521374537e-05
1.247723666e-05
7.039987563e-05
-4.854282531e-05
1.472815775e-05
6.877428095e-05
-4.081756786e-05
1.617795076e-05
6.39538016e-05
-3.405596496e-05
1.694311125e-05
5.743493056e-05
-2.892701179e-05
1.720294562e-05
5.067461233e-05
-2.517121981e-05
1.669057824e-05
4.460078662e-05
-2.258561466e-05
1.54928143e-05
3.955214607e-05
-2.137501441e-05
1.405887939e-05
3.529498752e-05
-2.16479193e-05
1.303106758e-05
3.133923614e-05
-2.294479695e-05
1.276740036e-05
2.738433117e-05
-2.420259583e-05
1.3135873e-05
2.329909506e-05
-2.416188502e-05
1.381185995e-05
1.876188945e-05
-2.245387916e-05
1.439487553e-05
1.397911779e-05
-2.008132768e-05
1.464943367e-05
9.583480063e-06
-1.893277421e-05
1.452540459e-05
5.171731747e-06
-2.005808852e-05
1.494541145e-05
-2.566329898e-05
1.67858355e-05
-3.950271685e-05
-3.466876065e-05
1.207062417e-05
-3.944532372e-05
-3.228740397e-05
8.449537462e-06
-3.716554334e-05
-2.901373329e-05
4.557513666e-06
-3.402535617e-05
-2.572694703e-05
1.942958409e-06
-3.056821864e-05
-2.518504637e-05
1.824434764e-06
-2.836650841e-05
-2.586941394e-05
4.108581681e-06
-2.671241599e-05
-2.853735171e-05
6.133656725e-06
-1.9961074e-05
-3.201741091e-05
1.497097509e-06
-6.128218715e-06
-3.495807824e-05
-5.711006478e-06
7.889043463e-06
-3.976228032e-05
-5.876140784e-06
1.779218507e-05
-4.391142557e-05
-9.566086558e-07
2.372283676e-05
-4.817891656e-05
3.055960212e-06
2.871647122e-05
-4.818165463e-05
3.178255741e-06
3.235142234e-05
-5.20254433e-05
5.073366541e-06
3.641564432e-05
-4.875713061e-05
3.057910943e-06
4.776035178e-05
-5.942457911e-05
-3.508716311e-06
6.111315942e-05
-6.674159931e-05
-4.123998625e-06
7.098257593e-05
-6.476980076e-05
-3.141120766e-07
7.516517926e-05
-5.831284553e-05
5.586715373e-06
7.339865098e-05
-4.978785691e-05
1.073615851e-05
6.724131503e-05
-4.175812624e-05
1.385888337e-05
5.915852466e-05
-3.587029197e-05
1.502550072e-05
5.139565994e-05
-3.204627277e-05
1.463738888e-05
4.517508637e-05
-2.954343833e-05
1.317791129e-05
4.045952073e-05
-2.823858782e-05
1.15787007e-05
3.648865111e-05
-2.828798481e-05
1.061054309e-05
3.249401582e-05
-2.942433766e-05
1.047381776e-05
2.831861771e-05
-3.069071861e-05
1.066317375e-05
2.436412815e-05
-3.09501776e-05
1.074241881e-05
2.1008741e-05
-2.999045856e-05
1.089156078e-05
1.792541032e-05
-2.851721265e-05
1.15187483e-05
1.461442785e-05
-2.805514486e-05
1.243281621e-05
9.420644983e-06
-2.910616873e-05
1.424126742e-05
-3.440404942e-05
1.816077014e-05
-3.457252761e-05
-4.622908619e-05
1.60863239e-05
-3.72121776e-05
-4.379568868e-05
1.414686234e-05
-3.718222591e-05
-3.891479332e-05
9.869994425e-06
-3.666607435e-05
-3.285458981e-05
6.610349928e-06
-3.474900293e-05
-3.273642996e-05
5.633143709e-06
-3.266317766e-05
-3.438727872e-05
6.430833969e-06
-3.010581318e-05
-3.775982454e-05
6.663861546e-06
-2.301622559e-05
-4.079590435e-05
1.687629123e-06
-9.836585152e-06
-4.280944999e-05
-5.329549644e-06
4.531469263e-06
-4.616759598e-05
-7.963997205e-06
1.558846746e-05
-4.919878179e-05
-5.770857309e-06
2.158073335e-05
-5.18876591e-05
-2.284675185e-06
2.608029852e-05
-5.091104806e-05
-1.771252185e-06
2.616578735e-05
-5.44916196e-05
2.379693278e-06
3.018752673e-05
-5.005834896e-05
-2.721436151e-06
4.631822027e-05
-5.934499271e-05
-1.621106037e-05
6.350458761e-05
-6.678180597e-05
-1.714687245e-05
7.591473332e-05
-6.518610938e-05
-1.199452019e-05
8.188381953e-05
-6.012379013e-05
-4.158784513e-06
8.046324111e-05
-5.299714951e-05
4.629260233e-06
7.274443036e-05
-4.557940698e-05
1.153950154e-05
6.235924416e-05
-3.999321755e-05
1.450753968e-05
5.286507549e-05
-3.67084905e-05
1.415583068e-05
4.582207381e-05
-3.472165482e-05
1.222068333e-05
4.081283177e-05
-3.352533945e-05
1.029549158e-05
3.652965407e-05
-3.338310344e-05
9.377835816e-06
3.207708309e-05
-3.430439903e-05
9.332212288e-06
2.768830568e-05
-3.550146496e-05
9.199132315e-06
2.412318092e-05
-3.590726369e-05
8.521828775e-06
2.168273185e-05
-3.539863399e-05
7.848229265e-06
1.975232568e-05
-3.460731715e-05
8.020082196e-06
1.719911665e-05
-3.472783877e-05
9.225429433e-06
1.19928027e-05
-3.576095991e-05
1.186059048e-05
-3.982899328e-05
1.741721628e-05
-2.581536886e-05
-5.805565775e-05
1.65001351e-05
-3.158837251e-05
-5.68270125e-05
1.880332613e-05
-3.421036946e-05
-5.16555094e-05
1.536165874e-05
-3.747299085e-05
-4.204600398e-05
1.245295302e-05
-3.793118536e-05
-4.206420911e-05
9.784860319e-06
-3.657400972e-05
-4.351375682e-05
7.768136656e-06
-3.334925946e-05
-4.626525224e-05
5.279452058e-06
-2.567829694e-05
-4.805907138e-05
-4.090659346e-07
-1.254464126e-05
-4.900805876e-05
-6.93633589e-06
2.60151016e-06
-5.056409314e-05
-1.075093204e-05
1.511421179e-05
-5.144092385e-05
-1.02717986e-05
2.114281079e-05
-5.154218495e-05
-6.375240028e-06
2.367595538e-05
-4.938091706e-05
-4.06435665e-06
1.676310806e-05
-5.055765786e-05
2.977916717e-06
2.068570782e-05
-4.632275399e-05
-7.659068381e-06
4.366659218e-05
-5.39652835e-05
-2.836130901e-05
6.498910123e-05
-5.947132608e-05
-2.863358781e-05
8.028536901e-05
-5.815333074e-05
-2.232965444e-05
8.791703654e-05
-5.471727877e-05
-1.303875905e-05
8.740859508e-05
-4.978609516e-05
-2.703159172e-06
7.901926527e-05
-4.456413735e-05
7.373524604e-06
6.663278993e-05
-4.081179811e-05
1.320451245e-05
5.525443337e-05
-3.905321625e-05
1.372252928e-05
4.708888702e-05
-3.812829307e-05
1.157163032e-05
4.13534482e-05
-3.734049393e-05
9.550054667e-06
3.626382749e-05
-3.712316624e-05
8.829176817e-06
3.092665728e-05
-3.785163946e-05
8.883944746e-06
2.610341328e-05
-3.894021582e-05
8.26156955e-06
2.291207166e-05
-3.935554724e-05
6.639231929e-06
2.137274398e-05
-3.906218019e-05
5.2024955e-06
2.039737938e-05
-3.863235629e-05
5.000019918e-06
1.836084486e-05
-3.899529891e-05
6.303589248e-06
1.308551069e-05
-3.992402381e-05
9.437967946e-06
-4.279198327e-05
1.604806779e-05
-1.443390279e-05
-6.678851959e-05
1.163744207e-05
-2.223732152e-05
-6.701442008e-05
1.798984159e-05
-2.608088449e-05
-6.391096686e-05
1.609795072e-05
-3.377898395e-05
-5.070477064e-05
1.63557635e-05
-3.791373849e-05
-5.031419504e-05
1.23835932e-05
-3.852726832e-05
-5.001373868e-05
7.112338322e-06
-3.52633296e-05
-5.126015964e-05
1.729748003e-06
-2.698326779e-05
-5.171195202e-05
-4.62844028e-06
-1.336499574e-05
-5.203863478e-05
-1.058897502e-05
2.914336849e-06
-5.241284864e-05
-1.443185251e-05
1.680795847e-05
-5.128536473e-05
-1.405042462e-05
2.321986445e-05
-4.861350386e-05
-9.341759618e-06
2.296427639e-05
-4.454579754e-05
-4.580608935e-06
8.439091286e-06
-4.077953356e-05
4.746126239e-06
1.266081211e-05
-3.808058659e-05
-1.246470007e-05
4.108181446e-05
-4.359766738e-05
-3.878926418e-05
6.523793795e-05
-4.444956873e-05
-3.917832149e-05
8.270824054e-05
-4.417780481e-05
-3.144632443e-05
9.095349776e-05
-4.322275343e-05
-1.974027597e-05
9.045552273e-05
-4.127220773e-05
-8.01638002e-06
8.202792186e-05
-3.928480797e-05
3.147812938e-06
6.896630652e-05
-3.862432672e-05
1.087366114e-05
5.687393048e-05
-3.934587884e-05
1.238452512e-05
4.821967983e-05
-3.994969587e-05
1.047511979e-05
4.189138718e-05
-3.981565126e-05
8.802914318e-06
3.579702923e-05
-3.967743358e-05
8.648107067e-06
2.935090689e-05
-4.026974444e-05
8.863741787e-06
2.40966898e-05
-4.122999914e-05
7.543558116e-06
2.137403089e-05
-4.15680162e-05
4.934731778e-06
2.072940967e-05
-4.129508668e-05
2.877167532e-06
2.062411283e-05
-4.096896131e-05
2.441559253e-06
1.911779993e-05
-4.13599655e-05
3.870635875e-06
1.375150752e-05
-4.20156204e-05
7.457535757e-06
-4.400012041e-05
1.495929917e-05
-6.426062738e-06
-7.112343741e-05
5.76747875e-06
-1.436469514e-05
-7.182584596e-05
1.274895777e-05
-1.624757739e-05
-7.362191696e-05
1.159261622e-05
-2.757394938e-05
-5.723577831e-05
1.785613873e-05
-3.630585266e-05
-5.658366608e-05
1.50001023e-05
-3.951046948e-05
-5.318518676e-05
6.374825426e-06
-3.643688754e-05
-5.242607411e-05
-1.908923091e-06
-2.723529048e-05
-5.192320141e-05
-8.99161078e-06
-1.242999728e-05
-5.195833095e-05
-1.488686394e-05
5.520081505e-06
-5.167469659e-05
-1.868949882e-05
2.113387904e-05
-4.929002408e-05
-1.761038509e-05
2.958218809e-05
-4.460895347e-05
-1.245404863e-05
2.946375406e-05
-3.853772867e-05
-5.890717234e-06
1.475248167e-05
-3.051476991e-05
4.445590097e-06
1.629024321e-05
-2.729524044e-05
-1.232389623e-05
4.146859199e-05
-2.83540484e-05
-4.042257147e-05
6.548980917e-05
-2.472848795e-05
-4.37426288e-05
8.257705193e-05
-2.570068469e-05
-3.556474471e-05
8.889831642e-05
-2.779643704e-05
-2.174798387e-05
8.629622309e-05
-3.04701904e-05
-8.200309773e-06
7.719720828e-05
-3.320185562e-05
3.015684978e-06
6.545733684e-05
-3.64672828e-05
9.582419338e-06
5.542957912e-05
-3.951011638e-05
1.019154578e-05
4.819950157e-05
-4.112507496e-05
8.40497444e-06
4.213856725e-05
-4.134517057e-05
7.589953401e-06
3.525730112e-05
-4.120394775e-05
8.407280311e-06
2.77263112e-05
-4.163326674e-05
8.894029861e-06
2.214120211e-05
-4.243107708e-05
6.785740841e-06
2.000116744e-05
-4.260942642e-05
3.181048944e-06
2.027652254e-05
-4.217257568e-05
6.017854835e-07
2.102093794e-05
-4.174499894e-05
3.130693193e-08
2.001828916e-05
-4.203429233e-05
1.67667505e-06
1.452953766e-05
-4.237743802e-05
5.850270891e-06
-4.360383366e-05
1.413296957e-05
-5.324048295e-06
-7.14750109e-05
1.73646105e-06
-1.12131149e-05
-7.2264861e-05
6.326572556e-06
-7.291249222e-06
-8.208188934e-05
4.536519135e-06
-1.95206954e-05
-6.097346966e-05
1.596551892e-05
-3.327481972e-05
-6.069379148e-05
1.786277675e-05
-3.976677109e-05
-5.320373743e-05
6.509115653e-06
-3.712099009e-05
-5.051375197e-05
-4.559457092e-06
-2.705656255e-05
-4.929419722e-05
-1.269472925e-05
-1.058872725e-05
-4.918815953e-05
-1.923927751e-05
9.431237105e-06
-4.844597324e-05
-2.324996078e-05
2.730362363e-05
-4.570738123e-05
-2.145629505e-05
3.975187754e-05
-4.067437111e-05
-1.638407118e-05
4.66813919e-05
-3.547638628e-05
-9.991989608e-06
4.289114141e-05
-2.846392541e-05
1.738443506e-06
4.007786793e-05
-2.381339325e-05
-6.693905278e-07
5.307121385e-05
-1.783821719e-05
-2.3509817e-05
6.949000385e-05
-9.219488502e-06
-3.192824737e-05
7.911993802e-05
-1.054050551e-05
-2.47905243e-05
7.975639073e-05
-1.811201736e-05
-1.032122395e-05
7.334232943e-05
-2.665236149e-05
2.59592343e-06
6.427766076e-05
-3.369122925e-05
9.553730079e-06
5.662166647e-05
-3.867473382e-05
9.863103515e-06
5.130430335e-05
-4.151123836e-05
7.318104963e-06
4.710497192e-05
-4.249796534e-05
5.571802891e-06
4.208113681e-05
-4.232086939e-05
5.999083022e-06
3.473945924e-05
-4.188975144e-05
8.027013211e-06
2.62794026e-05
-4.201915392e-05
8.845474746e-06
2.050985567e-05
-4.256207814e-05
5.900100971e-06
1.905749325e-05
-4.247859325e-05
1.321127792e-06
2.027610637e-05
-4.179051983e-05
-1.601019524e-06
2.1806453e-05
-4.113137818e-05
-2.144276532e-06
2.120239704e-05
-4.111981739e-05
-3.107041976e-07
1.543514327e-05
-4.118835506e-05
4.57789573e-06
-4.173589979e-05
1.356695865e-05
-1.103163344e-05
-6.775474432e-05
-1.703998615e-06
-1.286782339e-05
-6.988512536e-05
-5.458703917e-07
1.697586578e-06
-9.36608936e-05
-2.988915516e-06
-8.037284038e-06
-6.194680331e-05
1.07058667e-05
-2.746486925e-05
-6.159835655e-05
2.033036239e-05
-3.856195004e-05
-4.999824939e-05
7.889935497e-06
-3.704068221e-05
-4.59647072e-05
-6.071819606e-06
-2.643523427e-05
-4.407808043e-05
-1.582292427e-05
-8.462924275e-06
-4.377161526e-05
-2.339014797e-05
1.322645359e-05
-4.252181545e-05
-2.761483234e-05
3.247213659e-05
-3.988855113e-05
-2.506581652e-05
4.741739194e-05
-3.599074677e-05
-1.963019116e-05
5.804110246e-05
-3.396474132e-05
-1.213656294e-05
6.681553498e-05
-3.401780234e-05
-3.221615742e-06
7.385073681e-05
-3.341243639e-05
2.562922948e-06
8.028149883e-05
-2.734570666e-05
3.07595349e-06
8.436402426e-05
-1.860284549e-05
5.30027726e-06
8.142514405e-05
-1.834960638e-05
1.074759383e-05
7.318380175e-05
-2.534556228e-05
1.547460311e-05
6.397866502e-05
-3.324063453e-05
1.579316758e-05
5.696309323e-05
-3.868352526e-05
1.200762452e-05
5.262316793e-05
-4.15714609e-05
7.236382848e-06
4.991279962e-05
-4.264054247e-05
3.839360841e-06
4.721831127e-05
-4.271023868e-05
2.906400666e-06
4.256475247e-05
-4.220633304e-05
4.538614984e-06
3.460469102e-05
-4.153236758e-05
7.602236282e-06
2.52496043e-05
-4.132355707e-05
8.659028423e-06
1.938758759e-05
-4.152879977e-05
4.828281253e-06
1.86429535e-05
-4.107769513e-05
-6.566858235e-07
2.073758062e-05
-4.01520711e-05
-3.733450124e-06
2.296841865e-05
-3.92702511e-05
-4.092296796e-06
2.264414675e-05
-3.879279561e-05
-2.003053205e-06
1.650060151e-05
-3.851702398e-05
3.471925583e-06
-3.851127708e-05
1.327571956e-05
-2.325431692e-05
-5.901927093e-05
-5.309993064e-06
-1.817667519e-05
-6.545518548e-05
-9.51125697e-06
1.47413462e-05
-0.0001121357229
-1.444811062e-05
8.264250743e-06
-5.90983349e-05
3.625058522e-06
-1.735591554e-05
-5.740760926e-05
2.142706922e-05
-3.475271596e-05
-4.319426322e-05
1.059074577e-05
-3.554301834e-05
-3.867456553e-05
-6.501488199e-06
-2.492199757e-05
-3.628702653e-05
-1.841349606e-05
-5.954245916e-06
-3.583272077e-05
-2.690796637e-05
1.660088817e-05
-3.403470523e-05
-3.104357493e-05
3.617323993e-05
-3.192685743e-05
-2.753539748e-05
5.170429598e-05
-3.030156188e-05
-2.122165056e-05
6.2845482e-05
-3.399113383e-05
-1.111612072e-05
7.198599593e-05
-4.179715475e-05
-1.36242656e-06
7.794118937e-05
-4.616980378e-05
6.800873574e-06
8.108952075e-05
-4.497328867e-05
1.447791111e-05
8.103950454e-05
-4.000267758e-05
2.144899825e-05
7.596476554e-05
-3.705804138e-05
2.378272739e-05
6.748278177e-05
-3.736722401e-05
2.050339644e-05
5.940015158e-05
-3.929525836e-05
1.413707309e-05
5.392589515e-05
-4.109330622e-05
7.883858828e-06
5.102456512e-05
-4.198632432e-05
3.315982095e-06
4.952102437e-05
-4.194349628e-05
8.062304525e-07
4.765968778e-05
-4.160050711e-05
7.512786308e-07
4.321856135e-05
-4.103848611e-05
3.272892628e-06
3.475293605e-05
-4.014713002e-05
7.079951815e-06
2.467413682e-05
-3.948545939e-05
8.240228141e-06
1.882192432e-05
-3.916162985e-05
3.484555383e-06
1.88194541e-05
-3.822400791e-05
-2.851681723e-06
2.174804727e-05
-3.705433411e-05
-6.026755343e-06
2.452933774e-05
-3.597430758e-05
-6.077619993e-06
2.431808509e-05
-3.506864964e-05
-3.513250646e-06
1.770423684e-05
-3.439662806e-05
2.493111753e-06
-3.389953798e-05
1.309219018e-05
-4.219168521e-05
-4.298797602e-05
-8.873950326e-06
-2.908338819e-05
-5.335831251e-05
-2.52109671e-05
3.090244553e-05
-0.0001026383926
-6.949621042e-05
2.927048303e-05
-4.960549268e-05
-7.866214215e-06
-3.073707191e-06
-4.458597302e-05
1.951937647e-05
-2.803574783e-05
-3.254263154e-05
1.430792576e-05
-3.230499488e-05
-2.84865175e-05
-5.92053111e-06
-2.228922642e-05
-2.613002167e-05
-2.017420572e-05
-3.058785883e-06
-2.589571299e-05
-2.916877384e-05
1.929093556e-05
-2.372176598e-05
-3.266401969e-05
3.761882611e-05
-2.270300738e-05
-2.755314236e-05
5.143023324e-05
-2.411462171e-05
-1.999988391e-05
6.161532494e-05
-3.64620309e-05
-7.7157263e-06
7.126596291e-05
-5.100856741e-05
-4.410204745e-07
7.774503082e-05
-5.813034305e-05
5.478822023e-06
7.998482745e-05
-5.830108336e-05
1.10841171e-05
7.500363963e-05
-5.254034111e-05
1.75167171e-05
6.603703286e-05
-4.657684311e-05
1.848452503e-05
5.793305791e-05
-4.307759142e-05
1.3813989e-05
5.296647648e-05
-4.192514435e-05
7.596284688e-06
5.054798291e-05
-4.160267893e-05
2.927707991e-06
4.959606901e-05
-4.108141809e-05
4.681246998e-08
4.922854003e-05
-4.029158991e-05
-1.28463343e-06
4.81036398e-05
-3.966061208e-05
-8.15323788e-07
4.397192275e-05
-3.906378869e-05
2.15661873e-06
3.52396816e-05
-3.781962712e-05
6.404275921e-06
2.469321701e-05
-3.646587714e-05
7.526368533e-06
1.893442108e-05
-3.523924325e-05
1.835864923e-06
1.960568238e-05
-3.369576671e-05
-5.200038043e-06
2.322389883e-05
-3.227107341e-05
-8.401982819e-06
2.635591521e-05
-3.105475849e-05
-8.052037979e-06
2.605704618e-05
-2.990807892e-05
-4.862147958e-06
1.890632277e-05
-2.900358526e-05
1.757250778e-06
-2.808488344e-05
1.309127425e-05
-8.376733992e-05
-9.922588433e-06
-7.71040445e-06
-6.715157192e-05
-1.346256708e-05
-5.652237238e-05
6.876645206e-05
1.301775839e-05
-0.0002516232977
7.193896737e-05
-1.856861955e-05
-3.421787998e-05
2.036465822e-05
-1.323263487e-05
2.021703088e-05
-1.63575541e-05
-1.460503045e-05
1.878169461e-05
-2.746421989e-05
-1.326236945e-05
-4.119337027e-06
-1.894887781e-05
-1.378791641e-05
-2.085886855e-05
-2.47161922e-07
-1.490233961e-05
-2.969639784e-05
2.072139926e-05
-1.322735959e-05
-3.146431295e-05
3.585115432e-05
-1.419428853e-05
-2.363988128e-05
4.375439169e-05
-1.937295129e-05
-1.264644903e-05
5.282001455e-05
-4.067492393e-05
-4.854525162e-06
6.500039034e-05
-5.73111255e-05
-5.880766584e-06
7.295459989e-05
-6.302472362e-05
-3.066490438e-06
7.627730444e-05
-6.259493653e-05
9.568528507e-07
6.959553654e-05
-5.623915015e-05
1.03746636e-05
6.024276192e-05
-4.963321289e-05
1.240724e-05
5.350876498e-05
-4.442825168e-05
8.08404561e-06
5.051046668e-05
-4.153553571e-05
2.608429214e-06
4.957148039e-05
-3.997460966e-05
-6.892818549e-07
4.947474406e-05
-3.883622114e-05
-2.148691149e-06
4.95957093e-05
-3.778477966e-05
-2.628072799e-06
4.880274418e-05
-3.697955969e-05
-1.888463552e-06
4.500517996e-05
-3.643005134e-05
1.163371844e-06
3.629995234e-05
-3.468728266e-05
5.572358823e-06
2.561122123e-05
-3.232891017e-05
6.551178525e-06
1.995485513e-05
-2.97561268e-05
1.726178849e-07
2.098638457e-05
-2.751578176e-05
-7.212149244e-06
2.493705826e-05
-2.587162118e-05
-1.035074071e-05
2.810149056e-05
-2.467228387e-05
-9.54749574e-06
2.74803011e-05
-2.364136933e-05
-5.646086813e-06
1.981112351e-05
-2.294391385e-05
1.608953844e-06
-2.17595342e-05
1.348525917e-05
-4.650971647e-05
1.061382848e-05
-1.213422675e-05
-2.608495275e-05
1.450268798e-05
-4.839296044e-05
2.760858731e-05
5.382217404e-05
-9.450222111e-05
3.825834368e-05
7.010724481e-07
-2.992235263e-05
1.273629092e-05
1.004885343e-06
1.128260944e-05
-1.753131736e-05
-2.823773501e-06
1.848469146e-05
-2.601091827e-05
-1.439973056e-06
-3.344154835e-06
-1.703984449e-05
-2.162746468e-06
-2.059753238e-05
2.940433199e-07
-3.951245865e-06
-2.828627412e-05
1.856598005e-05
-4.535426173e-06
-2.69652804e-05
2.626654308e-05
-6.905201779e-06
-1.499118339e-05
2.62718089e-05
-1.624652862e-05
-3.133413034e-06
3.713482285e-05
-3.968184956e-05
-1.185824396e-05
5.512471017e-05
-5.252905094e-05
-2.277643691e-05
6.474798246e-05
-5.455071819e-05
-1.81116799e-05
7.262132418e-05
-5.045480476e-05
-2.006797929e-05
6.680086108e-05
-4.848776438e-05
-1.944030222e-06
5.855056433e-05
-4.331070908e-05
1.924657861e-06
5.238693747e-05
-3.925447252e-05
9.889676179e-07
5.00270234e-05
-3.704352432e-05
-2.132480307e-06
4.981854734e-05
-3.593373826e-05
-3.832693644e-06
5.018585934e-05
-3.514948329e-05
-4.054375854e-06
5.037680772e-05
-3.432990462e-05
-3.64621724e-06
4.96465041e-05
-3.361952699e-05
-2.630202112e-06
4.647821641e-05
-3.359526146e-05
3.329464406e-07
3.829018116e-05
-3.12072273e-05
4.707356371e-06
2.788449571e-05
-2.744329562e-05
5.519381473e-06
2.207083031e-05
-2.324890906e-05
-6.942983534e-07
2.28225887e-05
-2.019282823e-05
-8.075473513e-06
2.64744384e-05
-1.842239688e-05
-1.110182479e-05
2.914427346e-05
-1.752551604e-05
-9.817334746e-06
2.789235377e-05
-1.717225206e-05
-5.21791247e-06
1.986666126e-05
-1.755209785e-05
2.633172918e-06
-1.655156959e-05
1.4658029e-05
-2.750833873e-05
2.211353341e-05
1.144924464e-05
-1.981764913e-05
2.688193976e-05
-2.007206193e-05
1.759169076e-05
4.248744705e-05
-2.607735394e-05
2.483251598e-05
4.253649725e-06
-1.079553472e-05
6.629116812e-06
2.210306409e-06
1.699681421e-05
-1.751982373e-05
5.690529697e-07
2.075484469e-05
-2.473088475e-05
7.024848635e-06
-1.255069748e-06
-1.746582868e-05
9.592983361e-06
-1.902211332e-05
-4.207118022e-06
7.918672624e-06
-2.513008167e-05
7.568464085e-06
4.7503779e-06
-2.106305849e-05
2.209706474e-06
2.861272664e-06
-4.409547945e-06
-1.465863496e-07
-1.005689619e-05
-3.835365037e-06
2.141775977e-05
-2.743726282e-05
-3.381109383e-05
4.579052706e-05
-3.415303199e-05
-4.275157455e-05
5.890748584e-05
-3.596622518e-05
-3.170658193e-05
6.288148521e-05
-3.585293206e-05
-1.858583894e-05
5.984510446e-05
-3.43034457e-05
-1.115225252e-05
5.477476242e-05
-3.095015848e-05
-7.291827052e-06
5.066308677e-05
-2.94507278e-05
-5.692824372e-06
4.96715722e-05
-2.950783721e-05
-6.544681663e-06
5.032332373e-05
-2.984163253e-05
-6.744315688e-06
5.102480114e-05
-3.007526552e-05
-5.77617755e-06
5.11670584e-05
-3.011882729e-05
-4.35388211e-06
5.023772561e-05
-2.98112006e-05
-2.879618105e-06
4.857181899e-05
-3.211137879e-05
1.813335132e-07
4.164165552e-05
-2.852337743e-05
4.245549746e-06
3.183976586e-05
-2.294988659e-05
5.307647453e-06
2.533679295e-05
-1.684848701e-05
1.016460984e-07
2.479466684e-05
-1.281728923e-05
-6.83433484e-06
2.725298535e-05
-1.108470107e-05
-9.796930425e-06
2.871323679e-05
-1.087763899e-05
-8.109030522e-06
2.628985479e-05
-1.185236989e-05
-2.897390452e-06
1.806142413e-05
-1.491444996e-05
5.589900288e-06
-1.583081133e-05
1.733981343e-05
-2.671493801e-05
1.898280679e-05
1.934669249e-05
-1.887071752e-05
2.104260247e-05
-2.006020088e-06
9.476783948e-06
2.681001642e-05
-1.267141411e-05
2.145524224e-05
8.927536499e-07
-8.618989126e-06
1.722233835e-05
-7.652935777e-07
7.207393105e-06
-1.03623209e-06
1.44445781e-06
1.738203803e-05
-1.897175237e-05
1.275806373e-05
1.220107871e-05
-2.099231477e-05
2.11338443e-05
-9.521779073e-06
-1.528069407e-05
1.954998411e-05
-1.734473195e-05
-1.383237181e-05
1.588973484e-05
-1.25898398e-05
-1.921159043e-05
1.615800974e-05
-7.920039699e-06
-9.734908499e-06
6.660144943e-06
-2.619652561e-05
1.681018371e-05
-1.951204815e-06
-5.203399024e-05
3.905162604e-05
-6.275917391e-07
-5.576969643e-05
4.481467772e-05
-9.17004265e-07
-4.0815294e-05
4.448666458e-05
-1.008112316e-05
-2.544697768e-05
4.406470981e-05
-1.670646849e-05
-1.717712824e-05
4.407899024e-05
-1.796122688e-05
-1.300455562e-05
4.509034332e-05
-1.949873167e-05
-1.096430112e-05
4.740196004e-05
-2.133391922e-05
-1.048630278e-05
4.961668018e-05
-2.269657333e-05
-9.360481251e-06
5.084518716e-05
-2.400145531e-05
-7.303020447e-06
5.130059081e-05
-2.575614603e-05
-4.818846725e-06
4.988539229e-05
-2.555458849e-05
-2.84227711e-06
5.158902094e-05
-3.536492839e-05
1.549054832e-06
4.685601335e-05
-2.897487496e-05
5.183536849e-06
3.778566057e-05
-2.105247025e-05
7.171898497e-06
2.980974903e-05
-1.270169649e-05
3.82802211e-06
2.661146937e-05
-7.038708793e-06
-2.581430753e-06
2.644854168e-05
-5.252829005e-06
-5.670069175e-06
2.55194804e-05
-6.161080905e-06
-3.788602436e-06
2.094810682e-05
-9.315572262e-06
2.033483985e-06
1.247515991e-05
-1.777799513e-05
1.133540335e-05
-2.583326414e-05
2.247654568e-05
-3.200589571e-05
1.336537639e-05
7.120822398e-06
-2.31831134e-05
1.191946014e-05
2.996554855e-07
1.029557925e-06
1.282331071e-05
-1.022673772e-05
1.835717027e-05
1.003999518e-06
-1.743966669e-05
2.10476835e-05
5.480026288e-07
-4.004753619e-06
8.297052659e-06
4.196594299e-06
9.997382779e-06
-1.122403703e-05
1.413294206e-05
1.814482971e-05
-1.925019228e-05
2.776155759e-05
1.396601157e-06
-1.432302211e-05
2.724428457e-05
-1.262389209e-05
-3.186018315e-06
2.149254765e-05
-1.674287797e-05
-1.899336953e-06
2.495150411e-05
-1.008385645e-05
2.733508512e-06
2.158375997e-05
-1.956060785e-05
2.035093098e-05
2.386738426e-05
-4.344027574e-05
2.93109429e-05
3.167877704e-05
-4.127051352e-05
2.206182699e-05
2.501923846e-05
-1.869091187e-05
1.541826277e-05
3.864755074e-06
-7.305514292e-06
1.787116695e-05
-7.975077748e-06
-1.118680378e-05
2.571278305e-05
-1.085709316e-05
-1.494763319e-05
3.443651467e-05
-1.2423166e-05
-1.580073137e-05
4.168740474e-05
-1.414933228e-05
-1.443663122e-05
4.625607869e-05
-1.570546153e-05
-1.156081345e-05
4.827690542e-05
-1.810112239e-05
-7.922147049e-06
4.901967721e-05
-2.319893322e-05
-3.300972743e-06
4.67609375e-05
-2.275492372e-05
-5.42118232e-07
5.477431922e-05
-5.193621954e-05
8.556877731e-06
5.402549715e-05
-3.904576696e-05
1.081850112e-05
4.523039416e-05
-2.547758247e-05
1.321894618e-05
3.50350306e-05
-1.392307094e-05
1.141540198e-05
2.82023538e-05
-6.132825677e-06
5.925423838e-06
2.433096884e-05
-3.57430067e-06
2.191487361e-06
1.969316476e-05
-5.158941319e-06
3.634320707e-06
1.220691197e-05
-1.11714899e-05
9.340851261e-06
5.315972676e-06
-2.930495305e-05
1.841658751e-05
-4.853064714e-05
2.801205273e-05
-3.257468068e-05
1.452356404e-05
-5.128076999e-07
-2.482515934e-05
1.383596483e-05
-9.666469033e-06
-2.137616105e-06
1.406922823e-05
-2.393393773e-05
1.883184434e-05
9.16108162e-06
-2.912717565e-05
2.718931987e-05
6.295541901e-06
-1.410585739e-05
2.217008819e-05
5.558495269e-06
3.65614597e-06
3.903215446e-06
1.458769937e-05
1.781046232e-05
-1.228730922e-05
2.970335931e-05
1.424635208e-05
-1.243225238e-05
3.185104173e-05
-4.465094686e-06
2.683766451e-07
2.581568009e-05
-1.702800293e-05
8.595657298e-06
2.785045926e-05
-1.123139642e-05
9.338482611e-06
2.255396725e-05
-1.718846612e-06
1.661120796e-05
2.909061098e-05
-1.250204848e-05
1.934242053e-05
3.577593477e-05
-6.834311602e-06
1.463482367e-05
2.099132544e-05
8.730120197e-06
1.306968083e-05
2.744791579e-06
2.680522652e-06
1.753648507e-05
-2.065812358e-06
-1.0379714e-05
2.560163901e-05
-3.003283207e-06
-1.592173587e-05
3.382900731e-05
-4.002384624e-06
-1.665024709e-05
4.032340227e-05
-5.782669931e-06
-1.486270799e-05
4.420333144e-05
-7.840907857e-06
-1.174591104e-05
4.47827483e-05
-1.056809467e-05
-8.113867035e-06
4.267317062e-05
-1.95230719e-05
-1.567558436e-06
4.052723205e-05
-2.037880839e-05
-2.318029707e-07
6.075549862e-05
-8.215476082e-05
9.989038217e-06
6.706002505e-05
-6.058996195e-05
1.523801287e-05
5.81252647e-05
-3.424104122e-05
1.769657003e-05
4.525400433e-05
-1.802828434e-05
1.69747971e-05
3.338863594e-05
-8.597870157e-06
1.432870946e-05
2.400490384e-05
-5.607003372e-06
1.141474527e-05
1.508376717e-05
-8.712453701e-06
1.247301584e-05
7.121423336e-06
-2.022685397e-05
1.701613284e-05
4.330644948e-06
-4.665630432e-05
2.014058858e-05
-7.168276347e-05
2.748120296e-05
-2.664919451e-05
1.813216158e-05
-9.252284472e-07
-2.159405278e-05
1.977553843e-05
-1.099512366e-05
-4.713248288e-06
2.215351321e-05
-2.496558609e-05
1.416852311e-05
1.786832444e-05
-2.758967661e-05
2.541282419e-05
5.559064852e-06
-1.050877947e-05
2.539024504e-05
1.512539057e-06
4.06711748e-06
1.340275645e-05
9.289954107e-06
1.72831366e-05
-3.02856467e-06
2.299627906e-05
2.313535049e-05
-8.023938133e-06
2.899007825e-05
7.852077427e-06
2.714572308e-07
2.620980985e-05
-8.695046715e-06
7.368313121e-06
2.313835747e-05
-2.39142597e-06
7.706677504e-06
1.11092453e-05
1.109893227e-05
1.166776754e-05
1.270958785e-05
1.241212536e-05
1.378371729e-05
1.909328526e-05
1.455900941e-05
9.4697897e-06
1.071126282e-05
1.458682856e-05
9.762574714e-06
6.30304436e-06
-3.857224667e-06
1.538871983e-05
7.658290097e-06
-1.535521792e-05
2.27889252e-05
7.270095574e-06
-1.767737779e-05
2.979271729e-05
4.760593653e-06
-1.576961873e-05
3.53371318e-05
5.997836107e-07
-1.192905208e-05
3.78149569e-05
-3.601409619e-06
-6.719175676e-06
3.941520309e-05
-1.094636367e-05
-1.223882446e-06
3.063467061e-05
-2.297393355e-05
1.222977051e-05