/*--------------------------------*- C++ -*----------------------------------*\
  =========                 |
  \\      /  F ield         | OpenFOAM: The Open Source CFD Toolbox
   \\    /   O peration     | Website:  https://openfoam.org
    \\  /    A nd           | Version:  8
     \\/     M anipulation  |
\*---------------------------------------------------------------------------*/
FoamFile
{
    version     2.0;
    format      ascii;
    class       volScalarField;
    location    "1.9/wallFilmRegion";
    object      alpha;
}
// * * * * * * * * * * * * * * * * * * * * * * * * * * * * * * * * * * * * * //

dimensions      [0 0 0 0 0 0 0];

internalField   nonuniform List<scalar> 
1369
(
8.898954847
8.352091864
6.986302081
5.7456278
4.708901069
3.983968628
3.673410824
3.701177519
3.907109873
4.202837887
4.494573375
4.691648266
4.647361352
4.689067948
5.099741923
4.818767362
3.583553681
2.448737314
1.55278545
0.9361264224
1.558417818
2.978746529
0.4941631421
0.09352331361
0.08325159208
0.07830046028
0.0626730832
0.03995429202
0.01649669162
0.0008586838387
0.04627707491
0.8713752104
3.617537887
6.346858767
5.463640176
3.069579573
2.63918447
2.991963583
3.273198913
3.33018104
3.320679147
3.44660127
3.969410223
5.767903135
9.818628158
9.143289998
5.761294066
6.729294056
6.194284258
5.867604383
5.597619928
5.266716606
5.629533326
6.021492435
5.962021446
5.961450668
6.290823398
7.05605494
8.067407616
9.195906827
9.784854668
8.235024865
6.558732461
5.840127894
5.054770662
3.445788932
2.173257183
1.458263971
1.110580964
0.9440655268
0.8704178018
0.7946945592
0.5058751531
0.2600763707
0.4473836836
0.282690629
0.08597151447
0.0438477899
0.02054694779
0.1247616409
0.2951960004
0.6723129343
0.267441093
0.2105859914
0.254690273
0.3384863574
0.4474040557
0.5665299951
0.5663525625
0.009512127728
0.07139922435
0.2778831539
0.4043018569
0.4394711338
0.2841457132
0.08566222979
0.04937854083
0.09919813025
0.222850903
0.4261214234
0.6777571803
0.7721666209
0.773457411
0.9941183339
2.053432095
5.081438488
4.044692059
4.7834587
4.918879867
5.284817778
5.383708498
5.924253348
6.777053658
6.545799926
5.135360645
5.113795502
5.982699454
7.30919593
8.607928155
9.329933881
8.248730781
7.048898896
6.387004344
5.915275052
5.993326268
5.310165256
4.415646362
3.91640384
3.653426508
3.539047909
2.956006875
1.561273168
0.6044057643
0.4643081367
0.5051934752
0.2122841775
0.0973701973
0.1499627668
0.0714770302
0.3005647264
0.2174322644
0.2444123772
0.1844403735
0.1856121152
0.2216769227
0.3187797855
0.4782584733
0.8220402052
0.5062075376
0.06848952185
0.11059722
0.2401503727
0.3984023878
0.6107604777
0.6425644502
0.5143936703
0.6881864905
0.4104289389
0.3615965104
0.3071531981
0.17077246
0.1023626299
0.1113627174
0.8797195049
5.368385014
5.686529024
4.546694486
4.362116424
4.775043211
5.573851851
5.351505767
4.868582534
4.313758278
5.199036521
6.075733838
6.458334418
7.036500762
7.943507538
8.850153074
9.02826539
6.652313117
6.447420497
5.908702278
5.426018471
5.33884256
4.715875399
4.091247501
3.856932628
3.49338505
2.930560143
1.858780429
0.6550558624
0.3369774924
0.5891784105
0.2871530745
0.1701206711
0.165584517
0.3349440325
0.2230284024
0.3119628332
0.06805606402
0.05794890226
0.08668158742
0.1141500251
0.1035279323
0.1239621928
0.1898419044
0.1609522126
0.0008547385253
0.08747724668
0.1441128683
0.2697180212
0.5233346157
0.4399680928
0.1795499888
0.1479520095
0.1785120875
0.0003415986082
9.130892654e-05
0.003949168961
0.00589418341
0.004474953143
0.00869975115
0.02100286007
0.1015317496
2.091305797
3.26611099
3.023374787
3.326778791
3.672628644
3.699074057
3.733351755
4.105235408
5.002356624
5.861794286
6.386779272
7.061240846
7.835004557
8.18141141
7.529775826
5.726273565
5.136782388
5.336317103
4.791300695
4.805155145
4.568714139
4.219855014
4.209980068
4.14103076
2.970874198
1.274069036
0.6166813329
0.8307920706
1.378774575
0.9274205203
0.7190344597
0.6652781671
0.8009905989
1.843234228
0.08516277276
0.0313238486
0.04003965351
0.07028039291
0.1155304372
0.09787952738
0.0339893291
0.009553704149
0.002947072304
0.002612031124
0.1205602643
0.1804060757
0.4935648459
0.6057434691
0.07098032611
0.07027846876
0.286435481
0.005284391528
0.001736358493
0.0002548916691
0.003909049693
0.003956127649
0.002218102909
0.005292624984
0.01203115639
0.03368156401
0.1139608136
2.740945107
3.45194425
3.64050666
4.446821271
4.862548682
5.206488968
5.440235721
5.859514954
6.323975921
6.536341501
6.724859521
7.06644224
6.785870298
6.08891295
5.445317179
4.379308031
4.796753592
4.185514078
4.133945235
4.040176168
3.84782621
3.817215076
3.761821307
2.846710796
1.729668433
1.472517465
2.054191478
2.277369355
1.691251498
1.480122287
1.312577365
1.265705943
3.599465589
0.05469093599
0.02167012432
0.02624703493
0.04944359205
0.09920491644
0.1017501626
0.0279262519
0.006698582071
0.001961201321
0.002562315475
0.1562418874
0.2605329266
1.147399146
0.07697961748
0.01838808626
0.05040626991
0.4954050737
0.5146850279
0.02013231875
0.003298087619
0.006960479837
0.003474735967
0.001527245074
0.003926054883
0.009190661925
0.01775059368
0.03023962447
0.08388093895
0.2682168101
5.017815465
3.189562814
4.338926211
4.644738384
4.826590408
5.109811642
5.496598684
5.599321517
5.435841397
5.769039799
5.31521934
4.784781114
5.316758184
4.420027947
4.695103239
3.613666879
3.498221127
3.452108548
3.378010076
3.386299071
3.468343891
3.295135884
3.063783258
3.637522908
3.44106292
2.529297876
1.897120641
1.587579945
1.318723004
1.119414761
0.3875043242
0.01304026198
0.008759586411
0.009686999878
0.01136365819
0.05250135357
0.1619158577
0.1280358299
0.02383184691
0.007874481552
9.565311228e-05
0.1935030897
0.6299284626
0.6547892267
0.03883581609
0.05898239633
0.1747487361
0.7484605073
0.3197018704
0.1050518984
0.02950755607
0.0168405276
0.002658816397
0.001260533567
0.003228094528
0.007377372098
0.01393516003
0.02347929966
0.03691970519
0.07444193448
1.50689547
5.576223046
4.324480847
5.210131921
5.090504283
4.987180046
4.812663927
4.725938319
4.426342706
4.962669679
4.091265621
4.040955485
5.59115304
3.354103951
4.314144043
2.894097552
2.977666091
2.984776336
3.020585157
3.137930924
3.400542725
3.870410913
4.139603368
4.202026448
3.962458189
1.660802114
0.6326274987
0.3690109781
0.3478562592
0.2394321967
0.04122187658
0.004568766809
0.003083572421
0.002735675529
0.001573314826
0.006341447441
0.02329889036
0.1171908102
0.2274074219
0.05909285026
0.004426560371
0.3617134898
1.773986301
0.3427277947
0.1337365241
0.2141116526
0.3934887698
1.093943475
0.4671971201
0.215429357
0.09809938852
0.04922854687
0.004431604768
0.001608064884
0.00293362609
0.006244516732
0.01140716097
0.01869868324
0.02811155188
0.03762361294
0.1336169703
2.290545002
4.850920907
4.438415016
5.161984011
4.708734648
4.264573009
3.95175153
3.538341604
4.111548897
3.019328231
3.791694531
6.593322301
2.617434456
4.070447244
2.435080307
2.674576051
2.693531425
2.824768525
3.115236006
3.626395722
5.08615255
5.21758272
3.713323264
3.894618826
0.4737478556
0.1550810666
0.1173490505
0.1160019425
0.1573529506
0.02031237107
0.001706026092
0.0006577026312
0.0005335957659
0.0002805528042
0.0006394371664
0.001333976823
0.003202826047
0.008804791665
0.06512430707
0.393453457
1.533794746
1.786121362
0.4203496643
0.1302710564
0.02769220761
0.0337348688
0.7011607968
0.0001335768397
7.278462152e-06
2.062307234e-07
0.04692490854
0.004682252352
0.002441735344
0.002794401611
0.005529122671
0.009900278662
0.0157829192
0.02289910414
0.03022629477
0.06872762515
0.4713343623
4.239682502
5.763792138
4.582985733
5.451441607
3.9576265
3.693788836
2.853487011
3.496058185
2.326595294
3.987258327
8.288881887
2.561774939
3.786580392
2.160018066
2.889977871
3.067844022
3.558959013
4.342945103
5.458111864
5.368756464
2.675539642
2.021287583
0.5578770593
0.2090186296
0.1174389839
0.09183800725
0.08889363551
0.2542915909
0.02568628845
0.003312807386
0.001296888115
0.001107472749
0.0007900190968
0.0002920387366
0.0009242190094
0.001642368051
0.00502625193
0.01486179505
0.06779168785
2.34140017
1.514475156
0.5515797069
0.3043045234
0.08869042846
0.05318445691
0.7372279025
0.0001926185548
1.15522375e-05
6.175034961e-07
0.06431334835
0.007231437348
0.003453296694
0.002724261713
0.005105616679
0.009247511723
0.01454412954
0.02026637797
0.02575564158
0.06412405346
0.3301866294
1.497829752
5.350354087
6.301856277
4.891205084
4.614390116
3.716817606
2.799337619
3.213240477
1.880483385
4.536649018
10.49127262
3.308108808
4.421457205
2.160392033
3.138255499
3.239174494
3.856482278
4.274875372
4.554454391
3.983436774
2.012978531
1.556809017
0.9296986316
0.1735236415
0.1169313425
0.09511662705
0.1055414589
0.3607442358
0.01355290003
0.04744766094
0.09485733846
0.1158628949
0.4171904248
1.149706599
0.5056071013
0.06302583276
0.08859462737
0.2398579639
0.02837227716
0.3858063709
0.859404319
0.5465489649
0.4568962661
0.4606755177
0.1893985659
0.7169129836
0.0003747598585
2.51504803e-05
2.903229518e-06
0.06654272318
0.008952434768
0.003498148125
0.00262194812
0.004950570734
0.009415611107
0.01480219448
0.01984863859
0.0240000676
0.05760916593
0.2860755175
0.2267276632
0.6026261391
4.662581359
7.219018173
5.61911799
4.52938141
3.103852635
3.778092768
1.589180027
5.46954715
11.50054989
3.805520688
4.39384931
3.894506312
4.540718637
4.530642065
4.404112723
4.118533555
3.965129415
3.818598244
1.920974033
1.744150789
0.8319479352
0.1337693157
0.1048964345
0.09663572945
0.1374354474
0.4427869543
2.265962958e-05
1.637645045e-05
0.0002463895498
0.999136265
1.255667257
1.039255328
1.397397549
0.2391026604
0.2069050582
0.05609508456
0.02272963937
0.04178969775
0.2488791364
0.434629273
0.4650269814
0.6120581359
0.7489390814
0.7238765382
0.0004317467906
2.590002385e-05
0.0007805013837
0.06128828288
0.009004587979
0.002526625264
0.002282513154
0.00515832152
0.01051940622
0.01645539855
0.0211432664
0.02419075422
0.04808892995
0.2068493332
0.1437402767
0.09472328434
0.1577139241
1.215672913
6.643510162
6.36569259
4.417247757
4.710689066
1.9292569
6.873520516
2.154229309
2.756243231
3.978511531
2.6340619
1.902015348
0.302280206
0.09791948532
0.08758046402
0.09026555247
0.1587054287
0.4536572308
5.522512725e-06
1.842179995e-06
6.908394861e-05
1.64721089
1.629228148
1.065985149
0.6968870835
0.1972616283
0.7902380183
0.03389838867
0.02429861876
0.03541176353
0.04657972133
0.1700380793
0.3218355865
0.4979329116
0.6767355884
0.8208292832
0.007558688297
0.00613378649
0.03398520332
0.04243677803
0.00904010281
0.002170001126
0.002133876995
0.006058821521
0.01279460787
0.01937496465
0.02355603423
0.02549665206
0.03762573309
0.1014024518
0.1106744463
0.1124287123
0.154274554
0.09027265028
0.6475269078
4.261738185
5.104401255
5.874138544
2.276441373
8.03755453
0.5968489923
0.1208465848
0.07856676914
0.07585176137
0.08396054581
0.1628880305
0.3749617451
2.599653898e-06
1.979799347e-07
4.934885566e-05
1.695331404
1.626015774
1.390946038
1.272894054
0.4325275571
1.205242874
0.07127011575
0.02902652737
0.01381448814
0.02258184476
0.1088606135
0.1690616054
0.3049757042
0.4626000143
0.8893497392
0.1800823971
0.05716111328
0.1008745506
0.04025725487
0.01116026867
0.002735946284
0.002447616181
0.008101261713
0.01642001428
0.02312771459
0.02617995854
0.02682871268
0.03021542034
0.04445840863
0.06192207356
0.1280676201
0.2433649637
0.08084186426
0.1787804444
1.064263742
3.942977727
6.142678307
2.882587429
9.407462341
0.07346579275
0.0751750997
0.08780684277
0.162318322
0.2512834747
2.203996754e-06
1.585864149e-08
0.0001959342313
1.932007399
1.962835866
1.381030277
1.652671522
1.542139037
1.33641989
0.2076837527
0.2305396272
0.02196606458
0.05889797433
0.4558218108
0.365188243
0.1879975216
0.1719234511
0.604662378
1.147511913
0.2963401969
0.2188385367
0.05805877181
0.01655402859
0.004411874243
0.00354893427
0.01177594909
0.02123065025
0.02675133427
0.02771753343
0.02684148471
0.02698387611
0.03049265651
0.03946431367
0.1111498133
0.297626923
0.1035659064
0.08303802618
0.2222377689
0.9564736724
4.614586378
5.042981647
13.03526911
0.1455752949
1.054255984e-05
6.165033143e-05
1.715817142
2.67475731
2.369097107
1.294162099
1.870124078
3.237020752
1.593959211
0.5284108211
1.153439736
0.2083929715
0.7006587792
0.8644434272
0.8465539324
0.1635152231
0.008190086029
0.07079236235
0.7517023877
1.286109517
0.5354711025
0.1005050712
0.0265783173
0.007746640872
0.006501306225
0.01735277611
0.02639625789
0.02891840374
0.0270505378
0.02486207955
0.02510015648
0.02918821039
0.03764551165
0.05301023278
0.08356026622
0.114988428
0.1282640289
0.1414153642
0.2431753684
1.021515242
0.8255110656
9.343864559
1.612864815
1.963865307
2.526736609
1.893812365
1.468907112
1.658708994
2.797637941
1.445095126
1.831712655
1.506085707
0.3239401317
1.713369543
1.039935288
0.8835106272
0.6845093731
0.1850957042
0.05892045397
0.1324178081
0.9119432623
0.7113659365
0.1556458606
0.04315537098
0.01313521345
0.01315126212
0.02412199176
0.03012616756
0.02840036864
0.02399553757
0.02155427243
0.02321561368
0.03005839799
0.0418163525
0.05704402016
0.07827909881
0.1094457299
0.1880980091
0.2212160259
0.2259019568
0.2804756839
0.2149337277
6.568083321
1.263092563
1.620156405
1.546671649
1.624704602
1.791205706
1.633816882
1.200817485
2.240482742
0.8469608933
0.8865199035
1.150295221
0.4013904432
0.07236571471
0.04257381315
0.4068020009
0.7822493396
0.2085407123
0.06406356121
0.02195291746
0.02325982102
0.02966643492
0.03008170931
0.02458798752
0.01932626542
0.01823989277
0.02336962199
0.03712899356
0.05874170296
0.0788135573
0.08130666226
0.06944055449
0.1823063556
0.2229102905
0.1713827306
0.1194687726
0.1125346136
5.285486544
1.110209259
1.487856601
1.517542613
1.216720576
1.984467923
1.571614065
0.5369393254
0.8423009275
1.74507997
0.7198270835
0.1168314266
0.03888337683
0.2586429765
0.8388201277
0.2827927646
0.08780075968
0.04167011447
0.03534925171
0.0324096934
0.02617731569
0.01853136836
0.01417313583
0.01584847613
0.02809727342
0.05901957298
0.1139228066
0.1586166032
0.1393518235
0.08433542826
0.1197491194
0.1124078635
0.06027523741
0.0467481403
0.08467875547
4.600357325
1.242779706
1.800863534
1.463574666
1.703964529
1.035842068
0.7550919284
1.351774323
1.878299485
0.3067875822
0.1841193908
0.1072176754
0.4660824516
0.9378213492
0.3480579553
0.1390052396
0.08430706013
0.05645784556
0.03714111249
0.02360199183
0.01481994927
0.01164288959
0.01631203293
0.04627201418
0.12699652
0.2444922131
0.3290450209
0.2985231674
0.174027416
0.08879790751
0.04216230187
0.02177774876
0.03440228327
0.07812808459
4.019400519
1.236272694
0.4089562027
0.3324249846
1.32852252
1.499650432
1.700163049
1.506148524
0.6702004548
0.1093677653
0.05683723211
0.04553712898
0.8342250882
1.177336235
0.3463046781
0.2057291357
0.1723197195
0.1094511307
0.05436628038
0.02596032205
0.01568179135
0.01527927756
0.03183499498
0.1210013269
0.2711163925
0.4143173689
0.5254386884
0.5082916416
0.3507455876
0.177425151
0.08066434052
0.04737569198
0.06614402154
0.1041415822
3.554804465
0.04082218814
0.0527585624
0.6676102899
1.383603772
1.874945601
0.9287430507
0.3239774056
0.1400396101
0.1508218669
0.3937735676
1.396564399
1.197729824
0.415305485
0.2469853924
0.2432073716
0.2082988461
0.1067507924
0.04412956893
0.02523909789
0.02901295227
0.09741318063
0.2843594018
0.4226217902
0.5370861986
0.6339744907
0.6242241037
0.5141517372
0.4005980297
0.3299605366
0.283210962
0.2665707688
0.1959360046
3.288868815
0.03905805599
0.08030380723
0.595130513
1.290933346
1.802400316
0.6200508566
0.2761964289
0.3702902307
0.5535853027
1.457274262
1.826736722
1.204532881
0.4186617189
0.2055741215
0.1916148437
0.2395371207
0.2165559963
0.1252697633
0.1038120507
0.1506558902
0.3377221773
0.4016729198
0.4052265895
0.4242344862
0.4680582481
0.4883188946
0.4721100652
0.4512206545
0.427095922
0.3762401324
0.3428926211
0.252467879
3.254099778
0.1519716945
0.3156446307
1.470940828
1.190940988
1.69637715
0.6848388598
0.6065840711
0.7206519278
0.8220240454
1.271081523
1.774489212
0.9723845772
0.3271955236
0.1155581043
0.1148212725
0.1978938911
0.3503323665
0.5208338974
0.6087450504
0.6014410162
0.4465063583
0.2999929842
0.222371413
0.1976474858
0.2046301148
0.2288337021
0.2612425072
0.2950428816
0.3228797086
0.3358687229
0.3616715912
0.3939109237
3.478652845
0.7053395842
0.9382956643
1.076241571
1.308296894
1.309211566
0.9992333688
0.4316121806
0.8279942056
1.149737957
1.038563922
0.7714319744
0.2188684684
0.04622392654
0.05913908092
0.1152929659
0.1941932213
0.3079071109
0.4060506503
0.3187368864
0.1965790926
0.120719015
0.0874531956
0.07780621616
0.08134261596
0.09511108462
0.1181156551
0.1488369973
0.1848318011
0.222880617
0.286551289
0.4424630943
3.771036759
1.114954556
0.8588591954
0.9982855427
1.519516851
1.497273306
1.206942104
0.9650650367
0.7831977373
0.7096136032
0.6782938273
0.168692046
0.006876368132
0.0287551081
0.05472110109
0.07014599938
0.1389364116
0.3049267615
0.1304523439
0.06084062074
0.04183132469
0.03740542765
0.0375752667
0.04003457701
0.04553259367
0.0557355482
0.07184971356
0.0940894362
0.1232215873
0.1836057003
0.3847017677
3.848495922
0.8257567978
0.4255212225
0.8234554937
1.821661511
1.452907734
0.8491961662
0.6646373467
0.7384861819
0.7521983897
0.410838618
0.05420266209
0.002711502838
0.01436781599
0.02498474741
0.02536046511
0.07920099354
0.3547138549
0.01804954148
0.009250562904
0.01616612197
0.02215868177
0.02612518148
0.02880980275
0.03223736346
0.03844923523
0.04839021321
0.06119914192
0.0768813229
0.120700127
0.3373373717
4.250384537
0.6322636917
0.4043764205
0.4089356883
0.9544804954
0.9814742116
0.8550779501
0.9989064031
1.631527052
1.212457801
0.3476819514
0.0442975568
0.003302573396
0.004971870026
0.007854163091
0.009476791677
0.04870092039
0.2753479285
0.01132092295
0.009311562098
0.01575568837
0.02097039834
0.02379280846
0.02519357259
0.0276488912
0.03364822727
0.04342189907
0.05327275103
0.05989524289
0.08482677816
0.2646605711
4.239305557
1.706379105
2.097944175
2.117918041
0.8766221609
0.2659779378
0.08308276692
0.008440657963
0.005498747615
0.005569544198
0.006509545713
0.007291824824
0.008485924434
0.01127758993
0.01663845935
0.02461035001
0.03238901747
0.03635682929
0.03700220024
0.03809525134
0.04156254399
0.04540976886
0.0468733748
0.04549826421
0.05686477722
0.1606381608
3.879233575
1.537677934
1.533820534
1.743096129
1.927151367
0.8112711504
0.1752408099
0.0555717266
0.02603902294
0.01666416101
0.01518140702
0.01633648154
0.01889478472
0.0210457162
0.02151625468
0.02399909147
0.02990928989
0.03697868947
0.04429258851
0.05275280548
0.06007031466
0.06156442874
0.05578462842
0.04677492404
0.05206608718
0.142192897
3.994939845
)
;

boundaryField
{
    walls
    {
        type            zeroGradient;
    }
    wallFilmFace_top
    {
        type            zeroGradient;
    }
    region0_to_wallFilmRegion_wallFilmFace
    {
        type            zeroGradient;
    }
    mirrorFace_top
    {
        type            zeroGradient;
    }
    region0_to_wallFilmRegion_mirrorFace
    {
        type            zeroGradient;
    }
    procBoundary0to1
    {
        type            processor;
        value           nonuniform List<scalar> 
52
(
8.324223671
0.8602649602
0.7035235301
0.6553315251
0.998236321
1.372293389
1.758117997
1.758117997
0.4676083599
0.6335374157
0.8484308618
1.024268022
1.024268022
0.1490255641
0.07980344618
0.07980344618
0.08036167669
0.08640891428
0.1032443582
0.1537257014
0.1537257014
0.09543979478
0.5809299375
0.5809299375
2.779761014
2.057756832
1.922577147
1.307856324
1.307856324
1.191198001
1.114512202
1.114512202
1.641941205
1.641941205
2.012855372
0.7577642659
0.7577642659
0.4502770107
0.4572839314
0.509045554
0.509045554
1.135028262
1.135028262
1.250345095
0.9857121064
0.3740810205
0.1775410188
0.1883101035
0.5177092219
1.089041
1.089041
1.256291934
)
;
    }
    procBoundary0to2
    {
        type            processor;
        value           nonuniform List<scalar> 
26
(
1.700437683
1.380662153
0.7468918512
1.561039524
2.234071075
0.1560173874
0.03314396729
0.02492205851
0.03126336705
0.04483267226
0.05595687438
0.05899887431
0.05565038962
0.04273212338
0.03932546499
0.04446768549
0.05407429713
0.06501702843
0.07326852202
0.07424821816
0.06616861429
0.05346301318
0.04253576994
0.05145427214
0.1674499716
5.143443605
)
;
    }
}


// ************************************************************************* //
