/*--------------------------------*- C++ -*----------------------------------*\
  =========                 |
  \\      /  F ield         | OpenFOAM: The Open Source CFD Toolbox
   \\    /   O peration     | Website:  https://openfoam.org
    \\  /    A nd           | Version:  8
     \\/     M anipulation  |
\*---------------------------------------------------------------------------*/
FoamFile
{
    version     2.0;
    format      ascii;
    class       surfaceScalarField;
    location    "1.9/wallFilmRegion";
    object      phi;
}
// * * * * * * * * * * * * * * * * * * * * * * * * * * * * * * * * * * * * * //

dimensions      [1 0 -1 0 0 0 0];

internalField   nonuniform List<scalar> 
2648
(
-0.0022368411
0.001854253108
-0.009593551178
0.00851492548
-0.01284260014
0.004975558276
-0.01344571547
0.001813366749
-0.01293549759
0.0004574488267
-0.01274569521
0.000575162787
-0.01313253651
0.000825348396
-0.01362750945
0.0008031525377
-0.01386744123
0.0007436117029
-0.01348523772
0.0006597731819
-0.01232041774
0.0006454306363
-0.01062019024
0.0004302208272
-0.01038010485
0.000794548162
-0.01304937286
8.177521545e-05
-0.01513044289
-0.001295855254
-0.01263020945
-0.001204597413
-0.008292510467
-0.0003846397275
-0.00422779019
-0.0002207741987
-0.001238390862
-0.0001256449875
0.0006955805341
-0.000754637155
0.0009218250156
-0.001886644454
-0.001932061804
-0.004690814649
-0.0008452354125
-0.0003141074307
-0.0008873227742
0.0004872960342
-0.0007930237918
0.0004357163836
-0.0005938848996
0.0004042974499
-0.0003444039563
0.0003143754367
-0.0001239712459
0.0001917021361
-2.2531455e-06
7.56711752e-05
4.098903458e-06
1.005669028e-05
0.0003325222986
0.0002037257764
0.004922280797
0.0008000771242
0.01483747826
0.0008092102033
0.0177784801
0.001191352274
0.009778841532
0.0006713027904
0.003582413601
0.0001193953405
0.003000795878
0.0001428662953
0.004330478436
0.0002699374711
0.005669168565
0.0004647736812
0.006553473712
0.0006802356425
0.007265869296
0.0008972341057
0.008057140581
0.0009415573074
0.008327820627
0.0008820080595
0.007631420769
0.001232366162
0.005432271043
0.003720557855
0.007232090397
0.003667753952
0.006007194394
0.0005436735909
0.006670608709
0.001779747968
0.008279739367
0.002847594829
0.009264430704
0.003026914635
0.009796488618
0.002941533111
0.009851205211
0.002649105815
0.01125957913
0.0007011146049
0.01317220543
-0.0003411403839
0.01387764945
0.0007810440507
0.0134532854
0.002339450551
0.01219982547
0.003364386098
0.009558955732
0.004034301473
0.005182420181
0.004042932822
0.004561731105
0.003108848097
-0.00387380005
0.0004765147057
0.01067278356
-0.002102441729
0.008060469654
-0.005084469449
0.005367567412
-0.006260638616
0.002900266768
-0.005488439228
0.001138348102
-0.004248807044
0.000739891479
-0.003249044405
0.0006171801994
-0.002512107599
0.0004883758616
-0.001946446522
0.0003708204404
-0.001411347971
0.0003651426834
-0.0007117828629
0.0003932268293
-0.0003964982811
0.0004710480558
-0.00104520279
0.0004238302105
-0.001098544106
-0.0009531461163
-0.0004142222791
-0.0005817932258
-0.0001415719367
-0.0001796047936
-3.232195115e-05
-0.0001566031379
-0.0001303474003
-0.0001621182063
0.0001277773117
-0.001593780177
0.0003659858449
-0.001624868825
-0.001107970812
-0.001806982375
-0.001819735676
2.803566577e-05
-0.002212579649
0.0008881123823
-0.00256010636
0.0009532421138
-0.002813261109
0.001063952098
-0.002784379828
0.0009821544374
-0.002041866905
0.000652771991
-2.9447571e-06
-9.226478571e-05
4.517188913e-05
9.173503739e-05
0.0004997364764
0.0004674480418
0.001813168374
0.001071714303
0.002257747846
0.001499312546
0.001857746622
0.001674670376
0.000845881541
0.0009410428002
0.0001665828892
0.000310357236
9.639683627e-05
0.0001438096497
0.0002390050389
0.0002458982658
0.0005535128522
0.0004662808156
0.001212373944
0.0006087968878
0.002222978099
0.0001050091791
0.002897106927
-8.511108215e-05
0.003186456107
-0.0002416371958
0.002914669231
-0.0004329029792
0.0005177708642
0.00178237117
-0.003389304895
0.006956209828
-0.003267766443
0.0002731927844
-0.003026586408
-0.0006296477533
-0.001246946535
-0.0005921620471
0.000317263854
-5.588481402e-05
0.0009841547975
-1.025859978e-05
-0.0003918438024
0.0004724427221
-0.002640793676
-0.0005948594086
-0.001719030389
-0.0001337887637
-0.0007207079637
0.000845676134
-0.0007675053654
0.002266913251
-0.001638637843
0.00398894755
-0.003095884932
0.005263283435
-0.003887610643
0.004727085398
0.001497179926
0.002630172136
-0.009678723937
0.003368059158
0.008619774953
0.002530494498
0.00869234099
0.0007826961036
0.007580017504
-0.001400384692
0.006686605715
-0.002977033024
0.004329686253
-0.004639554897
0.002641955329
-0.006002634005
0.001473128817
-0.006108176302
-0.0001787886071
-0.004315610472
-0.001434226499
-0.001630151103
-0.001308259246
-0.0003953782392
-0.0007290449926
-0.0002755873137
-0.0005143111685
-0.0007304138366
-0.00101192783
-0.0006188051347
-0.000798337349
-0.0002463921803
-0.0004761990977
-1.663850658e-05
-0.0004049474504
4.103591608e-05
-0.0007281878119
-0.0004289129495
-0.0003772262495
-0.0002300511768
-0.002076610362
-0.0002352175598
-0.0006371299167
-0.0008164959622
-0.0004478880664
-0.001382431061
-9.170904888e-05
-0.001631672157
0.0006143744248
-0.001864347817
0.0005289404795
-0.001916537629
0.0002232778045
-0.001642662237
-0.0002238135545
-0.0002378458081
-0.0003513576159
0.0003271947962
-1.9830922e-06
0.0002333216391
0.0006007239101
0.0006534770721
0.0009201176344
0.001457496235
0.001482742446
0.002066979424
0.00188913113
0.002164477761
0.001442809008
0.001485003743
-0.0001670341882
0.0007365692904
-0.00118557692
0.0008540260332
-0.0004797448904
0.0008053164766
-1.183345452e-06
0.0009339241227
-3.656902536e-07
0.0009229020608
-1.713981226e-05
0.0006040044565
-2.904939923e-05
0.0004529123542
-2.59288248e-05
0.0001783445847
-7.254920276e-05
-0.009875676455
-0.0001621823482
-0.009892526973
-0.0001282512937
-0.006115157921
0.001065040412
-0.004988664602
-0.001144691415
-0.004903247971
-0.001421576669
-0.003783208782
-0.00118463162
-0.00206557247
-0.0007470607978
-0.002305986674
-0.0008399837393
-0.002922341468
-0.0005995410358
-0.003999741808
0.0003400402217
-0.004725607238
0.002501688421
-0.005427908846
0.00390627576
-0.006826139095
0.004270311899
-0.008007766142
0.004952593919
-0.007763392276
0.004897970881
-0.005151065668
0.002286327803
-0.004241006485
0.002038387739
-0.0127844896
0.004321443891
0.004392562021
0.004628175124
0.007439000822
0.003964383776
0.007815368115
0.003004713758
0.00799885434
0.001658533961
0.006678574577
-0.000600534714
0.005029330655
-0.002711101966
0.003621029978
-0.003009136
0.001517833156
-0.001822907425
-0.0001302159762
-0.0004816737564
-0.0003458585539
-5.613618722e-05
-0.0004994721471
0.0001213547638
-0.001078772911
0.0004368844605
-0.002800288211
0.0003618949678
-0.001709218612
0.0003145997123
-0.001140958713
0.00038777192
-0.001064584739
0.0005906032454
-0.001871402399
-0.0004176314302
0.0002792001927
-0.0002614339972
-0.0007823351496
-0.0002277851187
-0.0003151860989
-0.0003571212086
-0.0002971670874
-0.0005965493194
-0.0001472449797
-0.0005587751032
0.0002545355931
-0.000453588792
0.000203704087
-0.0004151096957
2.383838106e-06
-0.0003889727169
-1.186371244e-05
-1.372063046e-06
-8.985761942e-06
6.743932079e-07
5.219073698e-07
0.0002794602539
0.00102892661
0.0007313956205
0.00144563437
0.00138239112
0.002056541648
0.002016463799
0.001975330301
0.0006117555549
-4.231497855e-05
0.0001128859704
-0.0002514135381
7.149818742e-05
-0.005949177289
3.758582511e-09
-2.361127311e-05
6.53727123e-07
-1.522210731e-05
3.26207363e-07
-2.458351217e-06
1.289045757e-05
-3.286404472e-05
1.625274582e-05
-3.003460163e-05
1.368724036e-05
-1.709538146e-05
3.314066533e-05
-5.822741745e-05
8.628603777e-05
-0.0001518942263
0.000160118607
-0.0002445875009
-0.003882369976
-0.0006856584091
-0.004489304453
-0.002021288236
-0.004202103073
-0.001573983384
-0.003994786125
-0.0008332663853
-0.003954452086
0.0001280999778
-0.004564682186
6.723611836e-05
-0.005671413075
0.0007014200661
-0.007076477113
0.001787463961
-0.007770162694
0.003554168235
-0.008320874375
0.00519210481
-0.009610106822
0.005137213172
-0.009928401519
0.004664179019
-0.007224898979
0.002340853882
-0.002598955771
-0.00213580012
-0.00786832102
0.002264653886
-0.01418594478
0.003640835103
-0.0004970855629
0.004441323168
0.004943832704
0.004614764189
0.006614130618
0.004518412799
0.00756443138
0.003954748975
0.007275639802
0.002487072577
0.006203391808
0.000136549677
0.0054801348
-0.001242895324
0.004269552247
-0.0006936022444
0.001920841174
-0.0001592507892
0.0002391537401
0.0001747973255
-0.000998531105
0.0004408486105
-0.002343219169
0.001138802397
-0.004390652987
0.00122976034
-0.003169713116
0.001237903081
-0.002549271519
0.001203524185
-0.002439967592
0.001273788064
-0.003353522363
-0.000106631552
0.001071270097
-0.0001304555712
-0.0004866746413
-0.0001571085263
-0.0002085302228
-0.0002386991678
-0.0001948928565
-0.0004018390674
-0.000138653964
-0.0004272591214
0.0001489440934
-0.0001568160957
0.0001613400971
-3.540514599e-05
3.531824841e-05
-1.423423875e-05
9.812055182e-06
-1.086069445e-05
-7.631807835e-06
1.326830928e-07
5.480818685e-06
0.0003604084053
0.001625893394
0.0007535151393
0.002102341737
0.001463825681
0.00308462972
0.0003373467172
-3.812094747e-06
-3.997129906e-05
-5.926391382e-05
4.171215454e-05
-0.0003947108095
-9.059465952e-07
-0.01215405067
-4.910623033e-06
-0.0003420858341
3.502686908e-07
-0.0001932449755
8.990021946e-07
-3.285525723e-05
1.022932903e-05
-4.653105603e-05
8.53401937e-06
-2.371310688e-05
6.562039132e-06
-1.105265642e-05
2.154453127e-05
-4.767156118e-05
5.770182596e-05
-0.0001220650975
0.0001595042077
-0.0002363682187
0.0001830851343
-0.0003860416814
-0.004555497141
-0.000538676944
-0.005777007625
-0.001283437398
-0.007175715891
6.976657686e-05
-0.006973671051
0.0001407973653
-0.006723229673
0.001241463847
-0.006972911276
0.002094369433
-0.007433283496
0.003782716844
-0.007645117317
0.005173940267
-0.007901896824
0.006044243798
-0.008230873933
0.005157715178
-0.007297234891
0.003449483246
-0.004085395531
-0.0005201914929
-0.001282007215
-0.004491829167
-0.009337892106
0.001831464993
-0.01481612739
0.003223596809
-0.002946319408
0.004235878867
0.002198304268
0.004559845181
0.005122022635
0.004780939916
0.006421362749
0.004732122787
0.006717390666
0.004045194421
0.006203254351
0.002845598342
0.005746181925
0.00182162475
0.005245874983
0.00157164831
0.003149376114
0.001226542831
0.0009509076649
0.0009486861837
-0.001278028526
0.001095530533
-0.003206355909
0.001861865252
-0.004278535323
0.00225137691
-0.003651593807
0.002472400902
-0.003032082983
0.001904172496
-0.002901351562
0.001025336814
-0.003531590743
0.002077029683
-0.001158391936
-4.083673442e-05
-0.0001060343415
-0.000103034364
-8.360657282e-05
-0.0001602179613
-8.130838382e-05
-0.0003072504981
-6.092574644e-05
-0.0003226882466
-4.848470957e-05
-0.0001019416619
-0.0001703438585
-2.47848241e-05
-9.066239797e-06
-5.494084798e-06
3.303616977e-06
-4.233808705e-06
-4.887929589e-05
1.346751766e-06
-3.867553157e-08
0.0004304046496
0.002300527547
0.0006557563204
0.00322689986
-4.594961875e-05
0.002754737858
-4.917873663e-05
-8.163917279e-05
-0.0001774205023
-0.0003235964202
-0.0005839359273
-0.002008601929
0.000693265752
-0.01502965388
0.0009689728618
-0.001858342929
7.146621589e-05
-0.001115253526
8.867251179e-06
-0.0002935855793
8.5388643e-06
-7.579874209e-05
5.0018531e-06
-1.608864367e-05
4.33065359e-06
-8.483444175e-06
1.692745376e-05
-4.186788334e-05
4.575771854e-05
-9.998987795e-05
9.706457781e-05
-0.000186288916
0.0001802590939
-0.0003046549671
0.0003701150803
-0.0004322375655
0.0001773069128
-0.0007685928793
-0.003653618821
-0.0004791336586
-0.00539576201
0.001523686068
-0.006505801342
0.002183959397
-0.006749557497
0.003048773271
-0.006851512243
0.004286373887
-0.00666677937
0.005438732234
-0.006040827462
0.005634282404
-0.005297973571
0.004370782949
-0.003984976699
0.002161444363
-0.001987226315
-0.001863856217
-0.0009888199348
-0.005052053683
-0.01003825145
0.001570524855
-0.01641473932
0.003587125507
-0.003827136423
0.004317417101
0.0003596385127
0.004147107734
0.003881569673
0.00432689144
0.00524516233
0.004509311984
0.005753436591
0.004326263683
0.005618211384
0.003791370556
0.005319346348
0.003234088882
0.005069773419
0.002695521636
0.003549503971
0.002383934667
0.001217139496
0.002240162215
-0.001052357245
0.001681553251
-0.002166773977
0.001839045833
-0.003092202774
0.00219170773
-0.002125964355
0.002203137835
-0.001292727847
0.001033006219
-0.001246989341
-0.0005833308799
-0.001036849381
-6.097754319e-05
-0.0002035106068
-4.732722957e-05
-4.025587444e-05
-3.941837376e-05
-2.888812512e-05
-3.115814267e-05
-2.514818112e-05
-1.904731933e-05
-1.321495418e-05
9.289020522e-05
-2.975612242e-05
0.0002765582948
-0.0001060859384
3.846990363e-05
-0.0002909139147
-1.304927995e-05
-0.0003265106688
-1.725998813e-07
-0.0002302766083
5.147308373e-08
1.926866256e-07
0.0004567750437
0.003062672751
0.0004075147512
0.005725559119
-0.0001335500657
-0.0001592797384
-0.0004899611362
-0.0003891789498
-0.001598825359
-0.001556026583
-0.001874936777
-0.00383703077
0.004192725726
-0.01338952745
0.003580356005
-0.005259197859
0.001357912051
-0.002173461869
0.0001891186518
-0.0008827900331
3.082352444e-06
-0.0002017238637
1.551205721e-06
-2.401105032e-05
3.277613178e-06
-9.90545042e-06
1.436121279e-05
-3.898938717e-05
3.751131366e-05
-8.451236082e-05
7.79057374e-05
-0.0001501742818
0.0001408293893
-0.0002373985628
0.0002322674299
-0.0003438147688
0.0002161871467
-0.000444656812
-0.005350967491
-0.0008175558948
-0.005054333672
0.0005090695486
-0.00583244365
0.002828206084
-0.005907551667
0.003538660194
-0.005382949968
0.004761676018
-0.00477446487
0.005254603823
-0.003904254036
0.005113151078
-0.002939682093
0.003708133608
-0.00166445584
0.001687219572
-0.0007957211169
-0.002013147041
-0.0008720305638
-0.004459047796
-0.01065024161
0.00204093793
-0.02001987847
0.00259015438
-0.004048242444
0.003160216411
-4.065318977e-05
0.003228861807
0.002902556305
0.003549094861
0.00429235268
0.00384408572
0.004850984102
0.003949529134
0.004864290622
0.003818720649
0.00457166377
0.003597621776
0.004085755993
0.003699352252
0.00212156441
0.003557053422
0.0006821643987
0.002587719978
0.0003773491669
0.002133516934
-0.0001047727358
1.329890045e-05
-0.00231633495
-0.0002601673914
-0.001109858238
-0.0005047239296
-0.0007573673128
-0.0007337123058
-0.0006328306224
-0.0002134765205
-0.001050951778
-2.983589311e-05
-9.233640694e-05
-1.824903544e-05
-1.220044043e-05
-1.246130295e-05
-5.791064208e-06
-5.544739924e-06
-4.714613753e-06
5.440172387e-07
-2.478873644e-06
2.903441196e-05
-4.514313743e-06
0.0001241531358
-8.887325024e-06
0.0005111614202
-1.687301368e-05
0.0007552421007
-3.71498593e-05
6.044886535e-05
-0.000170440436
1.605839617e-06
1.005936946e-05
0.0004021535665
0.004704508406
-0.0004919899009
0.00489191852
-0.001179286861
-0.0005239328521
-0.003291303694
-0.0002632314946
-0.005066893744
-6.740756517e-05
-0.003932750851
-4.689444883e-06
0.00685249103
0.004241223313
0.006446879467
-9.437250675e-07
0.004099656454
-4.798006789e-08
0.00139778516
-4.196172637e-12
0.0001661573249
-0.0001554671522
-6.178985161e-07
-2.273541533e-05
3.399827099e-06
-1.328722279e-05
1.302173785e-05
-3.659210214e-05
3.199285294e-05
-7.331373633e-05
6.455508509e-05
-0.0001258348846
0.0001142489896
-0.0001918277181
0.0001827739132
-0.0002682899886
0.0002633733017
-0.0003416162725
0.0004604814557
-0.0007216493484
-0.003904529565
-0.002023319666
-0.004582893365
0.005024348671
-0.00455824434
0.003753375612
-0.003808298686
0.005107859493
-0.00293918102
0.005107322598
-0.002153651491
0.004560708416
-0.001380238049
0.003278123017
-0.000529899553
0.001588582459
-0.0005609997888
-0.001537577472
-0.0009804294896
-0.003580046773
-0.01159341682
0.002556237779
-0.02519407733
0.002221176381
-0.004076935478
0.00249509168
-0.0002123919401
0.002428823921
0.002526643086
0.00273710753
0.003780411804
0.003041525674
0.0042424635
0.003275212843
0.004209558185
0.00320636864
0.003883509189
0.00253700347
0.003248396487
0.001786258862
0.0009029237073
0.002455313481
0.002659035963
0.003019163846
0.003570117799
-0.0003633624947
-0.0006755435918
-0.0005161286312
-0.001945450695
-0.000454983732
-0.001193313256
-0.000393993524
-0.0007895812241
-0.0004629435395
-0.0006236722015
-8.494745504e-05
-0.002478830546
-1.094024178e-05
-6.887311088e-05
-4.217118179e-06
-3.966594055e-06
-2.672771072e-06
-1.078902737e-07
-1.022845636e-06
-8.925868305e-08
1.511893384e-07
-1.46588369e-07
3.157312794e-06
-7.779111177e-07
8.764833117e-06
-9.505827692e-07
2.486822633e-05
-9.490656922e-07
7.640747248e-05
-2.888387787e-06
0.0004380824967
-1.207154526e-05
0.000986157844
-5.200792813e-05
-0.0004775885176
0.01109740246
-0.0007530286765
-0.001294167116
-0.0003919469565
-0.0007642202218
-7.975913628e-05
-0.0001111012533
-6.542613667e-05
5.934384169e-05
-5.540890425e-05
0.0002002802492
-1.177189065e-07
0.0110409881
-2.943504814e-08
-9.138945517e-07
7.557169992e-10
-5.841275188e-08
-1.893087538e-10
-8.539567925e-11
-1.165383319e-05
-0.0001334110226
-4.434100978e-06
-3.272841622e-05
3.195189032e-06
-1.721424843e-05
1.206964831e-05
-3.419562118e-05
2.827958697e-05
-6.518948272e-05
5.61684662e-05
-0.0001108275261
9.715120762e-05
-0.000164766549
0.0001515544544
-0.0002214322114
0.0002219339077
-0.0002733859447
0.0004016513883
-0.0006382140974
0.0005678626898
-0.002686845704
-0.007079731866
-0.0005768362364
-0.003853533239
0.002689002491
-0.003131636413
0.004359824342
-0.001462189188
0.002808938019
-0.0004713276067
0.003851565109
-0.0002915311234
0.002923449406
0.0001358561586
0.001432598838
-0.0004867179765
-0.0008268242236
-0.001157697413
-0.002695794529
-0.01299864797
0.002868943971
-0.03012392223
0.002046852065
-0.003766179967
0.001121261188
0.0005848619671
0.001382953179
0.001568162364
0.001717811143
0.00292379037
0.002203729881
0.00302585326
0.002362467392
0.003107393927
0.001471932523
0.003351839988
-0.00109732239
0.004782812598
-0.001113351687
0.00457258265
-0.0001538360679
0.003037547785
-0.0005209099821
0.002684274631
-0.0007492483017
-0.002439290039
-0.0005702685996
-0.001955937796
-0.0003717500791
-0.001288147715
-0.0002281324596
-0.0009142031266
-0.0003157347806
-0.0008987406787
-6.328664131e-05
-0.004394210334
-1.449037698e-05
-3.191846503e-05
-5.856813244e-06
1.045741631e-05
-4.573808346e-06
8.31500182e-06
-2.883968862e-06
6.680706875e-06
-4.051046805e-08
3.565194852e-06
8.469636522e-07
2.974405452e-08
2.615815423e-06
2.967400135e-06
4.390519422e-06
6.969050716e-06
8.897265101e-06
1.709910022e-05
1.299691131e-05
1.226331032e-05
4.240956543e-05
-3.583870675e-05
-0.0003958944969
0.00852143885
-0.0009184355645
-0.001301265812
-0.0007382897261
-0.0009625894357
-0.0002711347067
-0.0006220830892
-0.0001112371527
2.224750175e-05
1.167558647e-06
0.0001919224932
-1.568504985e-07
0.008903652994
-3.617518994e-08
-7.511554054e-07
2.889372121e-09
-5.170286101e-08
-4.247682539e-10
5.377177034e-09
-2.082158656e-05
-0.0001597457836
-7.688179441e-06
-4.313025688e-05
3.642435793e-06
-1.917945443e-05
1.13376108e-05
-3.117925489e-05
2.592122466e-05
-5.975053658e-05
5.205329341e-05
-0.0001033145986
8.900337683e-05
-0.0001517646002
0.0001346320915
-0.0001967395262
0.0001925052061
-0.0002332706829
0.0003796364627
-0.0005420142153
0.000421240373
-0.002260292339
-0.0051695472
-0.0009862415769
-0.00357160571
-5.740807468e-06
-0.0007086036351
0.001291704933
0.0005452537928
0.002414496339
0.001284143632
0.002936216833
0.001289987275
0.002171730632
0.001043181568
0.001497091887
-0.0004141939479
0.0004096347704
-0.001444970761
-0.001873346043
-0.01497527505
-0.000331976175
-0.02909691134
0.0002817634675
-0.003216515856
-0.0009598627713
0.001233423647
0.000120128884
0.000848704574
3.883253733e-05
0.002094220638
0.0005096928155
0.001982567355
0.0006652681284
0.002372800322
0.0008453242374
0.003005767482
0.0001787871783
0.00493402428
-0.0003460536594
0.00602130466
-2.168217111e-06
0.002965164127
-0.0005802956292
0.001722691653
-0.0005835528692
-0.003160300855
-0.0005733777032
-0.001560563065
-0.0003793984984
-0.001198337282
-0.0002379805056
-0.000971536043
-0.000344863714
-0.001286562414
-2.088393482e-05
-0.00593080271
-0.0001003790542
-1.302868251e-07
-0.0001661187776
-5.056150633e-08
-0.0001328299416
-2.456911862e-07
-0.0003858518149
0.0003160407926
-0.0009685775415
0.0003527649716
-0.0002085023929
-0.0004621015785
0.0001032515601
0.0001473541016
1.175109328e-05
0.0001309091905
-0.0001582019405
0.000263971602
-1.021963996e-05
-0.0001172774684
1.988194031e-05
-4.413696306e-05
-2.861349378e-05
0.0003276908774
-0.0008217956431
-0.0005445841618
-0.0008622376096
-0.0009385791935
-0.0008283229941
-0.0009399737856
-0.0002496076933
-0.001223654525
-0.0002383671846
0.0001200376573
-3.556249321e-07
0.003656167429
-6.27169819e-08
-4.12775598e-07
1.000193207e-08
-2.401326292e-08
-1.756556087e-10
2.694730686e-08
-2.46984321e-05
-0.000190547176
-4.803417411e-06
-4.885628176e-05
5.810335118e-06
-1.649461211e-05
1.061448559e-05
-2.635603194e-05
2.485359807e-05
-5.738060322e-05
5.191641226e-05
-0.000102206456
8.867779584e-05
-0.0001487407331
0.0001301584226
-0.0001861551882
0.0001790380989
-0.0002112288739
0.0003367478462
-0.0004218630054
0.0007945821531
-0.001591143577
6.727681459e-05
-0.001010860777
-0.00388377235
-0.0003090267604
8.217875517e-05
0.001054297174
0.005527609612
0.004168175344
0.006400325702
-0.0004445497544
0.004526554672
0.00216968244
0.003131456388
0.001977295811
-4.062065721e-05
0.002071788497
-0.001606600095
-0.0004961742558
-0.01734516674
-0.00754737328
-0.01070422598
-0.01063502026
-0.00928593899
-0.006867945754
-0.00444507847
-0.002110152803
-6.204476473e-05
0.004323154572
0.001152623326
0.00513286081
0.0008123202833
0.006451827189
0.000286185281
0.003344172919
-0.001330938798
0.0005909944252
-0.0005959036268
-0.002141720012
-0.0005263918459
-0.001141473954
-0.0003649110713
-0.0009898518648
-0.0002693438915
-0.000912746234
-0.0004163193905
-0.001536961388
-1.669440406e-08
-0.006341136603
-5.115498333e-08
-4.761942166e-08
-6.690297532e-08
-1.648284359e-08
3.216459878e-08
-4.630028095e-07
-0.001253982071
0.001203240016
-0.0007546731522
0.0002494791401
-0.0002798219069
-0.0004665731498
0.0006684137713
3.789860413e-05
-9.541639772e-06
0.0005693898186
-5.818370786e-05
0.0006722754428
-1.364949151e-05
-6.537556906e-05
6.191438342e-06
-4.361159406e-05
1.130132724e-05
-3.461716766e-05
-0.0002948800493
-8.432506903e-05
-0.000644613633
-0.0004417379215
-0.0007688954051
-0.0007135708017
-0.0008271128884
-0.001408006939
-0.0006912788961
-0.001353879814
-5.607719778e-07
-7.956731829e-05
-5.49531469e-08
-6.332632199e-07
1.138853846e-08
1.48735377e-08
-1.314313068e-05
3.502528328e-06
-2.949358806e-05
-0.0001631737731
-4.049564241e-06
-5.169400942e-05
4.453281138e-06
-1.57100868e-05
9.377428176e-06
-2.466709525e-05
2.544381657e-05
-5.953297019e-05
5.595054551e-05
-0.0001068463567
9.508049629e-05
-0.0001520642416
0.0001348304721
-0.000182443855
0.000176915756
-0.000198066824
0.0002882295306
-0.0003008123457
0.0007366716623
-0.0007811689145
0.0005162931938
-0.0007991157663
0.0003977701315
-0.0007100949067
0.0004891625066
-0.000317111178
0.002235561298
-0.0002264387542
0.01180470348
-0.003146062374
0.01057587158
-0.002210521814
0.006746304172
0.001829987871
0.001513102436
0.003069656387
2.008768098e-05
0.001061357513
-0.01809421564
-0.003198394511
-0.001748447499
-2.786457329e-05
-0.0008569101743
-0.001053500801
-0.001427703553
-0.0005878694745
-0.0011780134
-0.0004593827733
-0.0008562241453
-0.0003278642728
-0.0007942274035
-0.0002731330517
-0.0008132697099
-0.0004018183636
-0.001586064744
1.985241189e-08
-0.005356728806
-5.60794735e-09
-1.965589375e-08
-2.351621949e-08
-1.445611539e-09
-3.669164277e-07
-2.970605624e-07
-0.001211090146
0.0009337503665
-0.0005281793034
-0.0006116612486
-0.0002273107952
-0.000334087754
3.902996702e-05
0.0004955801859
-0.0001584019759
0.0008380730951
7.444964024e-05
0.001336050155
1.686478333e-05
-2.365936807e-05
1.128863316e-05
-3.53149007e-05
3.035531303e-05
-1.704803612e-05
2.796908564e-05
-2.214919579e-05
-8.517081711e-05
-0.0002067769234
-0.0002274016713
-0.0002790068305
-9.932406101e-05
-0.0009571898939
-0.0005088704759
-0.001240080601
-4.113203318e-06
-0.001893693703
-6.532221683e-06
6.460377338e-06
-7.489871129e-05
1.119602719e-06
-0.0001434330618
-0.0001329536653
-3.798186858e-05
-0.0001643788743
-5.985030016e-06
-6.277868299e-05
2.677479233e-06
-1.977063867e-05
9.022233044e-06
-2.734147372e-05
2.874329143e-05
-6.659192894e-05
6.464850374e-05
-0.0001160934885
0.0001068793653
-0.0001574690239
0.000144783128
-0.000178575852
0.0001801528627
-0.0001851517197
0.0002518451156
-0.0002147223407
0.000544872622
-0.0003253043908
0.0006008842801
-0.0004382302613
0.0004486511465
-0.0007749899456
0.0002000974002
-0.001179364691
0.000325867552
-0.0003813080806
0.003312741464
-0.001747724119
0.01216560402
-0.003576019871
0.01048063128
-0.000487235129
0.001335820828
0.00430308437
-0.0004602582987
0.001343087821
-0.01849466083
-0.0007536376392
-0.0005348930706
-0.0004079970998
-0.000695517455
-0.0003047691192
-0.0006898484127
-0.0002659011734
-0.0007721135532
-0.0003425302411
-0.001545156587
1.360200778e-08
-0.003576275958
2.894522051e-09
8.913990368e-10
1.412572041e-09
9.186758759e-12
-2.806430908e-07
-1.521701197e-07
-0.00104940203
0.0007113000107
-0.0008908622152
-0.001706019129
-0.000779171961
-0.0001775977009
-5.684264668e-05
0.001071894229
-3.708944866e-05
0.001997293004
0.0002711270724
6.024425686e-05
2.932831662e-05
-1.608856517e-05
1.333526469e-05
-4.43570914e-05
1.484228658e-05
-1.153338049e-05
2.930342809e-05
-5.251949367e-05
6.037475535e-05
-0.0004407670804
8.623390419e-05
-0.0003261511475
0.0003498394031
-0.0004978522991
0.000158004402
-0.0005098743717
-0.0002880550429
-0.001419638227
-0.00017690074
6.408218674e-05
-0.0003692174968
-0.000147909497
-0.000174253379
-0.000444133944
-5.077825162e-05
-0.0002191420892
-1.058041526e-05
-8.782032198e-05
1.294894296e-06
-2.927028842e-05
1.052590173e-05
-3.437264542e-05
3.593100784e-05
-7.82789656e-05
7.801367707e-05
-0.0001276096365
0.0001213273861
-0.000159331088
0.0001548083903
-0.0001674822936
0.0001822661898
-0.0001647548468
0.0002233759323
-0.000167950514
0.0003338891932
-0.0001923827537
0.0004843153433
-0.0002478501484
0.0004303806999
-0.000656133964
-0.0003159859448
-0.001321836092
6.069055787e-05
-0.0004224811066
0.001372230534
-0.000630774583
0.005707312761
-0.001123748617
0.01103596391
-0.001258017103
0.003827806059
0.005200841011
0.001128356022
0.002506314382
-0.01623763227
-0.0004189221391
-0.00033079334
-0.0002951998984
-0.0002949882021
2.56385113e-09
-0.001966986896
1.173859405e-10
1.865563212e-08
4.748436679e-11
1.073611936e-10
-5.325632319e-07
-2.784109867e-07
-0.000710648909
9.415434441e-05
-0.0005741802885
-0.003609448016
-0.001171712274
-0.0001983033677
-0.0006028582075
0.001253530073
0.0003926503784
0.005306335332
0.0008782179271
-0.001047900566
3.613355602e-05
2.575413893e-05
1.025819498e-05
-0.0005950258798
4.562588091e-06
8.798945259e-07
2.360338179e-05
-0.0006406069469
2.278629782e-05
-0.001197159514
0.0001584687595
-0.0009284901255
0.0003589517316
-6.590838073e-05
0.0001990335274
-3.76060784e-05
-0.0005925233943
-0.0002377267293
-0.0005923256766
-0.001100606857
-0.0007142719876
-0.001102430956
-0.0002395888638
-0.001200138094
-6.779489796e-05
-0.0003250295271
-1.685424086e-05
-0.0001305050582
7.494907425e-07
-4.602691684e-05
1.457322509e-05
-4.691523457e-05
4.794706093e-05
-9.376565368e-05
9.441342997e-05
-0.000137025127
0.0001334577589
-0.0001519389142
0.0001582190651
-0.0001450286683
0.0001772380443
-0.0001349268347
0.000204254309
-0.0001356336448
0.0002562813339
-0.0001550154131
0.0003596899384
-0.0001969639807
0.0003140265243
-0.0002766205319
-0.0004355649919
-0.000349123757
0.0001473156434
-0.0003802177174
0.000815654394
-7.706577308e-05
0.002557655054
6.724575178e-05
0.007219736182
0.0006571010121
0.01075261543
0.006786716395
0.007536580319
0.005657692152
-0.009802392529
-2.899056862e-08
-5.100503627e-08
-3.863672762e-07
-3.511436184e-07
-0.001204469945
-0.002590756552
-0.0003001421478
-0.002441730936
-0.0001328186043
-0.003981879539
-0.001221987423
-8.999764354e-05
-0.001912061068
0.0005590067037
0.0003750134544
0.006327923897
0.0006182371774
-0.001132130988
6.715367217e-05
2.064907524e-05
0.0003253727347
-0.002174742267
2.514924081e-05
-0.0001482251688
-8.415837435e-05
-0.002171017841
0.0002611568451
-0.001865695626
0.0001585216696
-0.001427732555
-2.083261438e-06
1.268350094e-05
5.437160964e-06
1.27047812e-05
6.225285788e-05
-3.069216368e-05
-0.0008973906414
-0.000388153124
-0.001083409526
-0.001887886469
-0.0003373701315
-0.00188843821
-8.684600729e-05
-0.0005026634558
-1.904025026e-05
-0.0001961235302
3.505363032e-06
-6.976893809e-05
2.224269347e-05
-6.612969183e-05
6.43855134e-05
-0.0001096616433
0.0001097381168
-0.0001374340796
0.0001374176631
-0.0001319815138
0.0001500604801
-0.0001130827819
0.0001619697726
-0.0001010479994
0.0001879604512
-0.0001053670194
0.0002408247554
-0.0001299874736
0.0003283041524
-0.0001740996233
0.0004770964382
-0.0002332790129
0.0007518223916
-0.0003056324549
0.000995100422
-0.000368502804
0.001162827447
0.0005758625015
0.00141223465
0.0009126132469
0.001921917887
0.00116118748
0.003162574426
0.002253399785
0.002346619382
-0.0002128883308
-0.01341145713
1.250494216e-05
-0.0009891123697
-2.664752647e-05
8.394699577e-05
-0.0006061575927
-0.0001995284787
-0.001384730143
0.0001635733833
-0.0004131991154
0.001731146125
-0.0003181408533
-0.001329121032
1.990553158e-05
-0.001151952919
0.0002106402636
-0.002183199185
-0.0002880888954
-0.0007368072548
-4.454855007e-05
-0.002734547822
0.0005080506486
-0.001474258433
0.0004086351047
-0.001461344697
3.76620025e-05
-0.001499996753
0.0001235078546
0.001297839123
9.698873845e-05
6.505461317e-05
8.698875182e-05
-0.0001301375985
-0.00082147436
-0.000942785035
-0.0003394989731
-0.002051889279
-8.534508142e-05
-0.0006909866129
-1.241031705e-05
-0.000269835104