/*--------------------------------*- C++ -*----------------------------------*\
  =========                 |
  \\      /  F ield         | OpenFOAM: The Open Source CFD Toolbox
   \\    /   O peration     | Website:  https://openfoam.org
    \\  /    A nd           | Version:  8
     \\/     M anipulation  |
\*---------------------------------------------------------------------------*/
FoamFile
{
    version     2.0;
    format      ascii;
    class       volVectorField;
    location    "1.9/wallFilmRegion";
    object      U;
}
// * * * * * * * * * * * * * * * * * * * * * * * * * * * * * * * * * * * * * //

dimensions      [0 1 -1 0 0 0 0];

internalField   nonuniform List<vector> 
1369
(
(0.04142420755 0.03870271949 0)
(0.07878091806 -0.09744658418 0)
(0.03067376265 -0.2038702211 0)
(-0.007445056659 -0.2865197395 0)
(-0.01491457806 -0.3399290461 0)
(-0.004662689372 -0.3723979859 0)
(-0.01352817434 -0.3888050944 0)
(-0.03989041488 -0.3896153811 0)
(-0.07520384873 -0.3755738966 0)
(-0.115227628 -0.3482976195 0)
(-0.1618581022 -0.3099323989 0)
(-0.2241769731 -0.2661761651 0)
(-0.3247770338 -0.2351788885 0)
(-0.4663048512 -0.2504850287 0)
(-0.585860859 -0.3108468274 0)
(-0.7226035441 -0.3779973538 0)
(-0.884534927 -0.395303407 0)
(-1.027282169 -0.3476682484 0)
(-1.084188787 -0.2496823642 0)
(-0.731367448 -0.04060431988 0)
(-0.6184305492 0.2036311055 0)
(-0.7036837927 -0.07361926078 0)
(-0.2874736446 -0.7850030445 0)
(0.5852937506 -1.197489696 0)
(0.6159833659 -1.140764831 0)
(0.6434126003 -1.08116721 0)
(0.6709112802 -0.9977162304 0)
(0.6951104555 -0.8933804311 0)
(0.7153398448 -0.7552879056 0)
(1.103555763 0.1796255316 0)
(0.3171966875 0.8674398719 0)
(-0.0749540777 0.7094754988 0)
(-0.2575430928 0.5303088338 0)
(-0.4220470147 0.3698202239 0)
(-0.5611580161 0.2446352755 0)
(-0.7272159259 0.1479700078 0)
(-0.6584605482 0.108164496 0)
(-0.4698912564 0.1413170264 0)
(-0.3278011561 0.1762227811 0)
(-0.2302401441 0.2037468053 0)
(-0.1707640015 0.2279754026 0)
(-0.1459679904 0.2520467805 0)
(-0.1521266702 0.2607713751 0)
(-0.1888588795 0.1994403316 0)
(-0.2446746422 0.09130492604 0)
(-0.1998650485 0.02998195465 0)
(-0.1096187262 0.1433563399 0)
(-0.0227589937 0.08570278263 0)
(0.01386156758 0.1316919615 0)
(0.02045880817 0.1615663666 0)
(0.02729769556 0.1848339631 0)
(0.02352792436 0.199084353 0)
(0.0230624528 0.21129501 0)
(0.0187003604 0.2275184053 0)
(0.0326116005 0.2523816622 0)
(0.03915899269 0.2582660055 0)
(0.04051406853 0.2368193491 0)
(0.04247085003 0.1886472466 0)
(0.04245982677 0.1085665193 0)
(0.04816317932 0.03242846124 0)
(0.0006379722592 0.04426025704 0)
(0.126284655 0.02539749672 0)
(0.1125136907 -0.01271934301 0)
(0.07092144403 -0.06621102975 0)
(0.03443745594 -0.1544499173 0)
(0.03353409165 -0.2442554525 0)
(0.05846544351 -0.3098321452 0)
(0.08325739746 -0.3293735882 0)
(0.1132266232 -0.3124415696 0)
(0.1465841589 -0.271331349 0)
(0.1906623733 -0.2192616095 0)
(0.2427927882 -0.1703486047 0)
(0.3597083616 -0.1383562308 0)
(0.4712468764 -0.1961409162 0)
(0.0003396007962 -0.3163712728 0)
(-0.1385884982 -0.5361894766 0)
(-0.02291052605 -0.5208704213 0)
(0.007781860991 -0.1874555275 0)
(-0.1511254504 -0.1576708675 0)
(-0.485413629 -0.07155020992 0)
(-0.6672681546 0.2962376819 0)
(-0.7000890678 -0.02418332765 0)
(0.05125761918 -0.8847692821 0)
(0.4625631585 -1.010993362 0)
(0.4365761007 -0.8948855664 0)
(0.3950403923 -0.7644186665 0)
(0.338007728 -0.6150738787 0)
(0.2701809094 -0.4631625884 0)
(0.2080146478 -0.3277751653 0)
(1.251717818 0.2585765182 0)
(0.5681265647 0.7835007113 0)
(0.2596070886 0.7520695918 0)
(0.302938199 0.6794091118 0)
(0.4612897256 0.5457030421 0)
(0.5876862574 0.3816953306 0)
(0.736969395 0.2714150999 0)
(0.6717190988 0.1552118617 0)
(0.4896768868 0.2730742176 0)
(0.3571226959 0.2555117074 0)
(0.2716211382 0.2894047044 0)
(0.2252142111 0.3347991828 0)
(0.2009967516 0.3847665648 0)
(0.1969673799 0.438344428 0)
(0.2321092979 0.4654567438 0)
(0.3207798132 0.1776270536 0)
(0.2803046083 -0.1217668584 0)
(0.1284641947 -0.06230389293 0)
(0.07583222956 -0.08746528949 0)
(0.07849719388 -0.04756115667 0)
(0.08321462568 -0.004182936296 0)
(0.07835449345 0.01732136666 0)
(0.07773617795 0.02279064228 0)
(0.00221666613 -0.03541756903 0)
(-0.02906998331 -0.05309373265 0)
(-0.006396395992 -0.02048475748 0)
(0.03961265532 -0.0103975493 0)
(0.0669542515 -0.0177436524 0)
(0.07250209496 -0.03144148622 0)
(0.0583622841 -0.04745183916 0)
(0.05161800824 -0.0439594206 0)
(-0.0952180124 0.01615223092 0)
(0.134280016 0.05373736356 0)
(0.1346700586 0.05112112989 0)
(0.1139292174 0.03577931998 0)
(0.08105888911 -0.006695300769 0)
(0.03320204573 -0.05119033804 0)
(0.01047011158 -0.09675543183 0)
(0.002526186511 -0.1631343486 0)
(-0.02391029069 -0.1973189781 0)
(-0.06650184317 -0.18130363 0)
(-0.1052567974 -0.1389905579 0)
(-0.1425242426 -0.09020943248 0)
(-0.1714910822 -0.05337996837 0)
(-0.1416422907 -0.07678276949 0)
(-0.3784613943 -0.240388175 0)
(-0.4107563679 -0.3991650828 0)
(-0.3448679549 -0.1559824088 0)
(-0.215101125 0.1316536362 0)
(-0.3032346854 -0.07165182965 0)
(-0.5808170966 -0.2414113397 0)
(-0.835407951 0.009276384466 0)
(-0.786484136 -0.2204019306 0)
(-0.03016795562 -0.75079899 0)
(0.3855556425 -0.8831770981 0)
(0.3161007837 -0.7316343332 0)
(0.237078318 -0.5514228447 0)
(0.1034608888 -0.3277451448 0)
(-0.03842353699 -0.1106230097 0)
(-0.2446792731 0.007501926126 0)
(0.6877459947 0.1343528483 0)
(0.7484934993 0.613093241 0)
(0.5160326439 0.6831838363 0)
(0.4435325791 0.6482925153 0)
(0.3071501806 0.489937861 0)
(0.08074834483 0.287546926 0)
(-0.005946214951 0.2194463379 0)
(-0.08272604873 0.09473196958 0)
(0.01086560185 0.1775008489 0)
(0.06474359579 0.2529792235 0)
(0.01626731671 0.3136487384 0)
(-0.1937071802 0.345536691 0)
(-0.3682030354 0.4304153214 0)
(-0.6331950407 0.5401800803 0)
(-0.3303587418 -0.1891960889 0)
(-0.1443365149 -0.2146688256 0)
(-0.00456291862 -0.1670703906 0)
(-0.1146832928 -0.1281014406 0)
(-0.1047331895 -0.1227702519 0)
(-0.1033173437 -0.102505004 0)
(-0.08508707763 -0.04634738283 0)
(-0.07865165757 -0.03836432925 0)
(-0.06175581365 -0.0655537642 0)
(-0.03032648617 -0.08315027951 0)
(0.02372437991 -0.08557517392 0)
(0.03968419838 -0.08503928137 0)
(0.0497400585 -0.09937508507 0)
(0.0672559888 -0.1134635144 0)
(0.07236229516 -0.1076952484 0)
(0.05209779846 -0.08472601934 0)
(-0.01931546017 -0.04046483102 0)
(-0.1974286881 0.003621729665 0)
(0.1117182078 0.06361758889 0)
(0.1390080424 0.0834078682 0)
(0.1437566345 0.08842506799 0)
(0.143232809 0.07190073315 0)
(0.1306423037 0.05155064904 0)
(0.1097265584 0.02559836231 0)
(0.07300042908 -0.05973483852 0)
(0.01347125778 -0.1105294452 0)
(-0.03208175345 -0.1147373286 0)
(-0.03648329841 -0.1004765228 0)
(-0.08148929291 -0.0609985005 0)
(-0.1355300324 0.02448324514 0)
(-0.2038238259 0.0545811909 0)
(-0.1807513604 0.1080785447 0)
(-0.1522459379 0.1684271557 0)
(-0.1470028701 0.2372708394 0)
(-0.2221399642 0.2765264351 0)
(-0.03725095849 0.1102839476 0)
(-0.7578460793 -0.403947078 0)
(-1.047325882 -0.4388852564 0)
(-0.7678756559 -0.4234486836 0)
(-0.1826114967 -0.4804030057 0)
(0.2800934183 -0.6661092762 0)
(0.163748131 -0.5179933916 0)
(-0.09622265741 -0.2847608583 0)
(-0.3405978043 -0.1949453973 0)
(-0.4008029097 -0.3352472254 0)
(-0.2329470127 -0.01793312692 0)
(1.076142616 0.1913238589 0)
(0.9245976728 0.5095382384 0)
(0.7256165936 0.6038771022 0)
(0.5100538594 0.5205798712 0)
(0.1678974825 0.3247336412 0)
(-0.267968281 -0.01969261113 0)
(-1.605662748 0.1576425524 0)
(-0.4578794309 -0.05161657195 0)
(-0.7256658105 0.05090176743 0)
(-0.9227829836 0.3689446311 0)
(-0.889988635 0.4148270048 0)
(-0.7975889672 0.3012692998 0)
(-0.7970346988 0.3036700419 0)
(-1.043835675 0.3673521095 0)
(-1.224428904 0.4684014762 0)
(-0.123902489 0.4320119011 0)
(0.04217464313 -0.08407765645 0)
(0.04404522408 -0.1766769822 0)
(0.009992256659 -0.1491630634 0)
(0.03152422101 -0.1279189965 0)
(0.04386882044 -0.1107043116 0)
(0.03271044115 -0.1238387113 0)
(0.02929682885 -0.1444131435 0)
(0.04625255719 -0.1586796825 0)
(0.07305754503 -0.1516632443 0)
(0.08951403372 -0.1391420359 0)
(0.08314909944 -0.1467018454 0)
(0.07425520743 -0.151877106 0)
(0.05163324471 -0.1261111874 0)
(-0.0001510779203 -0.0675996434 0)
(-0.09403795383 -0.008196656689 0)
(-0.2515537302 0.007949067886 0)
(0.02524652864 0.07876037165 0)
(0.1141833367 0.07680520085 0)
(0.1459008729 0.1057315455 0)
(0.1580894346 0.1056073247 0)
(0.1542075573 0.1006816645 0)
(0.1375410952 0.0892052951 0)
(0.1158655353 0.04010979178 0)
(0.07401299552 -0.03295576506 0)
(0.02332167615 -0.05889713648 0)
(-0.01812969021 -0.06072602655 0)
(-0.0813735743 0.004085395984 0)
(-0.1256593033 0.05812313253 0)
(-0.2046489689 0.05836713747 0)
(-0.1899039464 0.1227972361 0)
(-0.166922161 0.1681223979 0)
(-0.1748564781 0.2095778701 0)
(-0.2477312515 0.1872405658 0)
(0.2896510567 0.1618389366 0)
(-1.089619641 -0.4384418138 0)
(-0.9762064992 -0.4744686661 0)
(-0.7246633791 -0.3863680028 0)
(-0.2387171772 -0.3587522962 0)
(0.1683396513 -0.4043159381 0)
(0.2319567084 -0.5533386473 0)
(0.1001053404 -0.4588487452 0)
(0.09073187218 -0.3541744661 0)
(-0.2126045554 -0.7054500334 0)
(0.3557687598 -0.2067493336 0)
(1.289284488 0.2180770104 0)
(1.092727653 0.4377479009 0)
(0.8077282999 0.4786188465 0)
(0.2490364433 0.1720644965 0)
(-0.2879141847 -0.04983420602 0)
(-0.4514220223 -0.074852198 0)
(-2.571163603 0.2051197942 0)
(-0.4410117307 -0.2432736756 0)
(-1.0373403 -0.3771250997 0)
(-1.01679922 0.4213808623 0)
(-0.8006847425 0.3523928362 0)
(-0.729161765 0.2217034208 0)
(-0.7529116791 0.2515481776 0)
(-1.168629698 0.3974835002 0)
(-1.314113474 0.495564141 0)
(-1.329694635 0.5566371596 0)
(-1.253861587 0.4809242102 0)
(-0.1922522391 -0.1254283715 0)
(-0.1014684881 -0.1641013624 0)
(-0.07756263025 -0.1841225445 0)
(-0.03658112613 -0.1698299493 0)
(-0.02879884766 -0.1448311608 0)
(0.008755242015 -0.1384605087 0)
(0.04149528594 -0.142746158 0)
(0.06995645465 -0.135561116 0)
(0.08871056065 -0.1296471969 0)
(0.07867241699 -0.1355812414 0)
(0.05860836178 -0.132943306 0)
(0.008448695725 -0.09357885935 0)
(-0.0631996257 -0.03851104234 0)
(-0.1658552706 -0.007727696978 0)
(-0.272328963 -0.008834360431 0)
(-0.04808988701 0.08252610763 0)
(0.07211346709 0.0790805062 0)
(0.131719253 0.1145914231 0)
(0.1584929556 0.1244426494 0)
(0.1660353635 0.1292806365 0)
(0.1580734535 0.1276688148 0)
(0.1458804829 0.1029760395 0)
(0.1332810295 0.06059873287 0)
(0.1066650616 0.04561844665 0)
(0.05588452654 0.07550382059 0)
(-0.05514631281 0.08007346909 0)
(-0.1038048326 0.06133366108 0)
(-0.1830606226 0.05568948164 0)
(-0.1870002744 0.1236299994 0)
(-0.1794410219 0.1684366747 0)
(-0.1989680575 0.1980294399 0)
(-0.2850958715 0.1200123664 0)
(-0.1724408487 0.05824601058 0)
(-0.6999096066 0.07290819727 0)
(-0.9590017198 -0.4813824314 0)
(-0.768598928 -0.3798408221 0)
(-0.3252359402 -0.3310637429 0)
(0.09092749548 -0.3484016403 0)
(0.09952925042 -0.3473539976 0)
(0.1088565587 -0.4535044743 0)
(0.1158352104 -0.3582227537 0)
(-0.5699631409 -0.256362122 0)
(0.06620674221 -0.1061435179 0)
(1.422832522 0.2217705056 0)
(1.250789744 0.3824720878 0)
(0.4492414872 0.1699743248 0)
(-0.25923933 -0.3017340585 0)
(-0.3601846626 -0.2846461652 0)
(-1.123348571 -0.4876379932 0)
(-2.362643097 0.2289883894 0)
(0.3072373593 0.07802799636 0)
(-0.8930130468 0.3351560319 0)
(-0.9865789529 0.4438210322 0)
(-0.5437012656 0.1460208083 0)
(-0.6432576882 0.1231138299 0)
(-0.702474156 0.1926903709 0)
(-1.273244118 0.4293999938 0)
(-1.356832902 0.5164974485 0)
(-1.348252197 0.5757636457 0)
(-1.312664322 0.6239018922 0)
(-1.103785373 0.6838723331 0)
(-0.8631174991 0.2820911096 0)
(0.08173361379 -0.1326458164 0)
(0.04259719997 -0.1191203227 0)
(0.08005657152 -0.1534734729 0)
(0.07199012581 -0.1538609704 0)
(0.09821117874 -0.1529356268 0)
(0.1075195611 -0.1412316316 0)
(0.1034381346 -0.1248444049 0)
(0.07997009062 -0.1118398342 0)
(0.04450635254 -0.1020162187 0)
(-0.02664972967 -0.04947477431 0)
(-0.1067888034 -0.03257751153 0)
(-0.226654204 -0.01278809827 0)
(-0.2881014118 -0.03315327431 0)
(-0.0858688235 0.09789321882 0)
(0.02008315232 0.0802514109 0)
(0.114394612 0.121409004 0)
(0.1538918687 0.1304079418 0)
(0.168329356 0.1409494189 0)
(0.1661316847 0.1456189856 0)
(0.1568446155 0.1353510283 0)
(0.1471579935 0.1102908557 0)
(0.1158468234 0.09427115027 0)
(0.05478348413 0.08515302251 0)
(-0.01549983723 0.08563089963 0)
(-0.08357793501 0.04946336949 0)
(-0.1571080339 0.05772443579 0)
(-0.2000529074 0.1018089107 0)
(-0.2046214563 0.1516598639 0)
(-0.2434761437 0.1527888583 0)
(-0.3493416883 0.01909132015 0)
(-0.4304840416 -0.3494811176 0)
(-0.9353200769 -0.676831093 0)
(-0.9604501724 -0.5084591986 0)
(-0.9193782654 -0.3842670001 0)
(-0.7529799672 -0.2172715486 0)
(-0.2766509578 0.1376698657 0)
(-0.3110927067 0.2505094444 0)
(-0.1230975007 0.1242068464 0)
(-0.01669472013 -0.0582853272 0)
(-0.6783509197 -0.3052616671 0)
(-0.1475193482 -0.09061207902 0)
(1.538245858 0.2216203266 0)
(1.239991948 0.2963294175 0)
(0.03353584563 -0.1543939974 0)
(-0.1634060198 -0.6005554389 0)
(-0.7431502936 -1.221675919 0)
(-1.188198875 -0.7856112801 0)
(-1.675684004 0.236036025 0)
(-1.476255199 0.9928965711 0)
(-1.241956366 1.464050099 0)
(-1.014309718 1.371768928 0)
(-0.3614627005 0.03431484742 0)
(-0.5736322205 0.005839909137 0)
(-0.6509626897 0.1221542241 0)
(-1.335040399 0.448288498 0)
(-1.368845122 0.5277200965 0)
(-1.340156105 0.5877793783 0)
(-1.296770504 0.638717218 0)
(-1.248692833 0.6771686967 0)
(-1.2121984 0.7026182137 0)
(-0.1465423795 -0.06436511554 0)
(0.05406422923 -0.1461259556 0)
(0.02113424963 -0.110629631 0)
(0.06015515819 -0.1347836666 0)
(0.08043804656 -0.1198711638 0)
(0.1065780507 -0.1169144109 0)
(0.1027143473 -0.1007394765 0)
(0.07702388867 -0.08048703013 0)
(0.03548628996 -0.0652650691 0)
(-0.04885654173 -0.00822577268 0)
(-0.1415603912 -0.03454842102 0)
(-0.2729125907 -0.01275681197 0)
(-0.3023223629 -0.05010305581 0)
(-0.1436966736 0.1300281157 0)
(-0.004694935429 0.03966605191 0)
(0.1016104221 0.120910895 0)
(0.1476441073 0.1239378273 0)
(0.1668450848 0.1375415947 0)
(0.1683432654 0.1450034593 0)
(0.1590626411 0.1418494777 0)
(0.1468044032 0.1251313069 0)
(0.1007504397 0.1069855505 0)
(0.02511332445 0.1027071159 0)
(-0.03487917807 0.08581081437 0)
(-0.02640668767 0.04933988381 0)
(-0.2173999462 0.06876669834 0)
(-0.476022489 -0.06686857941 0)
(-0.5002260078 -0.08776923359 0)
(-0.477672726 -0.2305342742 0)
(-0.5217894367 -0.4417565211 0)
(-0.5617290948 -0.6944386664 0)
(-0.8366343335 -0.7382320125 0)
(-0.9235693597 -0.5601262221 0)
(-0.929303636 -0.4392008072 0)
(-0.9361771074 -0.3339679845 0)
(-0.667005282 0.4098267862 0)
(-0.6046400746 0.5946276591 0)
(-0.3761233829 0.574433959 0)
(-0.2720659726 0.3824997691 0)
(-0.105322683 0.3461007706 0)
(0.5525573726 -0.1216987287 0)
(1.644602194 0.2021392153 0)
(0.588109746 0.04220660657 0)
(-0.1270175529 -0.3575967103 0)
(-0.4218132309 -1.576782433 0)
(-0.7183399107 -1.795594703 0)
(-0.7728126824 -1.029460327 0)
(-0.7857296939 0.2407930406 0)
(-0.7875142313 1.133410504 0)
(-0.7869684698 1.893951648 0)
(-0.7954073461 2.281012479 0)
(-0.4625998435 0.8449483231 0)
(-0.5159759169 -0.1044691877 0)
(-0.5878078381 0.02017124981 0)
(-1.337731224 0.4436621602 0)
(-1.352863325 0.5301449882 0)
(-1.307357484 0.5938462238 0)
(-1.256444073 0.6476965627 0)
(-1.210891383 0.6927523889 0)
(-1.164579657 0.7336481732 0)
(-1.084472421 0.8014264863 0)
(-0.03587954501 -0.04360481776 0)
(0.1104982059 -0.1329042932 0)
(0.07623825723 -0.09381029012 0)
(0.1077143815 -0.09978933108 0)
(0.1052387849 -0.07771684528 0)
(0.1109532306 -0.07348007496 0)
(0.08076112012 -0.04607696129 0)
(0.04118415857 -0.03955266721 0)
(-0.04963660741 0.01138093704 0)
(-0.1554698992 -0.05232105293 0)
(-0.2919512267 -0.004298152602 0)
(-0.3083236815 -0.08211483269 0)
(-0.1673585681 0.1669970822 0)
(0.002699321285 0.01970009125 0)
(0.1000954203 0.1146228168 0)
(0.1422389371 0.1043175142 0)
(0.159976049 0.1201809948 0)
(0.1554703626 0.1275477418 0)
(0.1338637106 0.1268223628 0)
(0.09472163632 0.09893225708 0)
(0.009581453861 0.0546832141 0)
(0.008212274542 0.02239504364 0)
(0.05292943717 0.08070587209 0)
(0.02108741979 0.09788124294 0)
(-0.7661033719 -0.267670049 0)
(-0.9632135805 -0.4618548412 0)
(-0.7975987095 -0.3887408984 0)
(-0.6193623994 -0.3563923599 0)
(-0.82127338 -0.2890505856 0)
(-0.3524348699 -0.6284864205 0)
(-0.6015352159 -0.7783612727 0)
(-0.8471470153 -0.6283175401 0)
(-0.8475593654 -0.4705823997 0)
(-0.8407105727 -0.3292596753 0)
(-0.7527507548 0.4474863069 0)
(-0.7351594571 0.6357631938 0)
(-0.6834810933 0.8057019083 0)
(-0.5766889464 0.8977094896 0)
(-0.4209972934 1.006086478 0)
(-0.09420365809 0.4696986941 0)
(0.9712506283 0.08041666262 0)
(-0.03358494371 -0.1390532192 0)
(-0.1236174998 -0.2543066273 0)
(0.01543638762 -0.4056703708 0)
(0.2287331814 -0.2262127905 0)
(0.744627088 -0.1995270966 0)
(1.565364595 0.1819923221 0)
(-0.6923669019 -0.4982030304 0)
(-0.7678234623 -0.3890148773 0)
(-0.8679556834 0.411793558 0)
(-0.203680133 -0.2809965079 0)
(-0.4605151759 -0.2650571996 0)
(-0.5065411241 -0.1333384942 0)
(-1.295680342 0.420420994 0)
(-1.313684205 0.5271561057 0)
(-1.248718954 0.5949285111 0)
(-1.187798075 0.6497406638 0)
(-1.145276348 0.7006819417 0)
(-1.108289835 0.7512923352 0)
(-1.026858313 0.8595280563 0)
(-0.827691183 0.4219805688 0)
(0.09780737225 -0.1559303216 0)
(0.09405211255 -0.1134982962 0)
(0.09108772791 -0.07121602286 0)
(0.1130354004 -0.05459120468 0)
(0.1040718183 -0.02667520033 0)
(0.08608368588 -0.001215060795 0)
(0.04909659958 -0.02131550879 0)
(-0.03881573079 0.03191356179 0)
(-0.1539798895 -0.07806474988 0)
(-0.2927796425 0.01450722644 0)
(-0.3029645848 -0.1245709713 0)
(-0.152693193 0.2004133665 0)
(-0.01403519298 -0.02442859104 0)
(0.1085755178 0.08922447403 0)
(0.1420414278 0.05140437422 0)
(0.1568212084 0.07896180999 0)
(0.1442959294 0.07863332304 0)
(0.1169843798 0.0669980788 0)
(0.08569422027 0.007443377815 0)
(0.0261621559 -0.05224560422 0)
(0.09411909313 -0.03941240231 0)
(0.1404002586 0.02288497008 0)
(-0.2660398243 -0.2280426837 0)
(-1.105583149 -0.5582622643 0)
(-1.080190674 -0.5070566828 0)
(-0.9313878088 -0.3809918626 0)
(-0.79155756 -0.1820435322 0)
(-1.139081454 -0.09034331207 0)
(-0.186787975 -0.4503011713 0)
(0.3607425184 -0.5092695868 0)
(0.8304154054 -0.4814884243 0)
(0.831350632 -0.4245647213 0)
(0.8033831389 -0.3763047546 0)
(0.2170163424 0.3458723909 0)
(0.5282959496 0.2903853554 0)
(0.567275165 0.330542262 0)
(0.4611636811 0.2559391464 0)
(0.2575848524 0.1324146602 0)
(-0.06020274361 0.05775371425 0)
(0.4839240386 0.08321565857 0)
(-0.1382712613 -0.1407027834 0)
(-0.1550087712 -0.2247017508 0)
(-0.08886054473 -0.3075169335 0)
(0.2022209262 -0.3631991934 0)
(0.4493911978 -0.09584098042 0)
(1.601392874 0.1011424875 0)
(-0.2617828141 -0.374262278 0)
(-0.2490383354 -0.3127210239 0)
(0.8401446609 0.3675924636 0)
(-0.2134863562 -0.3021318247 0)
(-0.449650735 -0.3295703404 0)
(-0.4959357786 -0.1588525284 0)
(-1.22862492 0.3902543429 0)
(-1.254046833 0.5227681587 0)
(-1.161424816 0.5910545881 0)
(-1.090452624 0.6438463215 0)
(-1.052000899 0.6986947006 0)
(-1.026347302 0.7587125079 0)
(-0.9746958774 0.8810261274 0)
(-0.8085336888 0.4178035977 0)
(-0.1757574643 -0.1379949866 0)
(-0.0001814467435 -0.07404036187 0)
(0.1005520544 -0.05028860055 0)
(-0.009704725102 0.01830200555 0)
(0.09169120194 0.006276445717 0)
(0.07304963085 0.05474931242 0)
(0.05189059289 0.02135828606 0)
(-0.01296129839 0.06052498025 0)
(-0.1343128974 -0.10921618 0)
(-0.2834438739 0.03947964607 0)
(-0.2744379118 -0.1750746415 0)
(-0.07624033795 0.1515701707 0)
(0.04517668969 -0.1320583203 0)
(0.03729489862 0.03413697818 0)
(0.06133274943 -0.02166859154 0)
(0.04143759941 0.02431780071 0)
(0.03125205485 0.01024539454 0)
(0.03817036458 0.02759949108 0)
(0.09039836015 0.01580873827 0)
(0.1450064227 -0.007188464121 0)
(0.1343539656 -0.03075077927 0)
(0.1267191794 0.03053512266 0)
(-0.2609218131 -0.1675022443 0)
(-1.161237648 -0.5704870686 0)
(-1.135223301 -0.5051917822 0)
(-1.001498593 -0.3698898853 0)
(-0.9209457614 -0.1248165283 0)
(-1.310556237 -0.08490379326 0)
(-0.286833627 -0.2535467639 0)
(0.2740985887 -0.2104845397 0)
(0.4592162536 -0.1737111213 0)
(0.3820387054 -0.07783374162 0)
(0.1121918538 -0.1251370113 0)
(-0.02977480186 -0.05965303358 0)
(0.1275037588 -0.03093812907 0)
(0.2861369786 0.07582728471 0)
(0.2230348154 -0.0348686748 0)
(-0.09146386538 -0.109821464 0)
(-0.1937592987 0.03065542535 0)
(0.2480859616 0.1233357445 0)
(-0.166278491 -0.1306139539 0)
(-0.199178865 -0.1993067077 0)
(-0.1849488021 -0.2147017475 0)
(-0.1516633119 -0.1797524833 0)
(0.2762779321 -0.1094827621 0)
(0.8273760574 0.03657473559 0)
(-0.1413024893 -0.2909213092 0)
(-0.1643789676 -0.2561332797 0)
(0.9110538748 0.3433794901 0)
(-0.2692938097 -0.3072583297 0)
(-0.5192093818 -0.2980135303 0)
(-0.606664902 -0.003229155935 0)
(-1.162828027 0.3676236061 0)
(-1.173159749 0.5205208812 0)
(-1.04522482 0.5808733162 0)
(-0.9714330407 0.6287912571 0)
(-0.941337794 0.6855180878 0)
(-0.92829769 0.7531149911 0)
(-0.9173837917 0.8834604522 0)
(-0.7803957721 0.3990044131 0)
(-0.6992912684 0.2103347941 0)
(-0.004155215548 -0.145941509 0)
(-0.05940503139 -0.03733445603 0)
(0.1095364964 0.04148759822 0)
(0.03624625472 0.1262860799 0)
(0.04442472674 0.123689386 0)
(0.055612686 0.09548647801 0)
(0.03862959489 0.1260696253 0)
(-0.102779964 -0.1324181195 0)
(-0.2671887776 0.06813192571 0)
(-0.2342396634 -0.2496346874 0)
(-0.09363277473 -0.1869630419 0)
(0.01099451789 -0.3467947913 0)
(0.04206722241 -0.2524094951 0)
(0.07314049031 -0.1961740803 0)
(0.08190698666 -0.1364132943 0)
(0.09261902699 -0.08501213707 0)
(0.1032947136 -0.02740544954 0)
(0.1275161609 0.02397368675 0)
(0.1590296932 0.03985754347 0)
(0.161842447 0.006746225056 0)
(0.09584386874 0.0260785967 0)
(-0.5030237945 -0.3771591198 0)
(-1.184855863 -0.6003318682 0)
(-1.162187479 -0.5004987609 0)
(-1.020316176 -0.3279380411 0)
(-0.9616290058 -0.102037219 0)
(-1.383078009 -0.104224718 0)
(-0.8696079331 -0.3463884349 0)
(-0.8996753504 -0.3389053629 0)
(-0.6610735641 0.279308598 0)
(0.1669187772 -0.1139089449 0)
(0.05800546775 -0.105177786 0)
(-0.05970262209 -0.05419353275 0)
(-0.06869509247 0.01034253166 0)
(0.131613416 0.09464099174 0)
(0.3761140115 -0.1045856514 0)
(-0.3290371193 -0.122999916 0)
(-0.1967523733 -0.008736843918 0)
(-0.0769067932 0.06847404463 0)
(-0.2738682743 -0.009089267113 0)
(-0.2351045264 -0.1397506948 0)
(-0.2215483821 -0.1643714587 0)
(-0.2503910857 -0.1112295047 0)
(-0.1486743704 -0.1310490332 0)
(0.1982212048 -0.07845192626 0)
(-0.05096467046 -0.2474732629 0)
(-0.02207487795 -0.2179832416 0)
(0.9555592377 0.3144494336 0)
(-0.3559437467 -0.3614935745 0)
(-0.5719213269 -0.357097991 0)
(-0.706204348 0.005478309279 0)
(-1.15930416 0.3811984282 0)
(-1.063896495 0.5201220137 0)
(-0.9086975681 0.5620159756 0)
(-0.8463486276 0.6048525206 0)
(-0.8292736405 0.6627755151 0)
(-0.8277005294 0.7362464796 0)
(-0.846811175 0.8681890025 0)
(-0.7665583168 0.4467801477 0)
(-0.7148301592 0.3345337567 0)
(-0.6510395909 0.4534810426 0)
(0.1075545583 0.4676550156 0)
(0.006856669525 0.2124626023 0)
(-0.04943579305 0.1926687203 0)
(0.05217583676 0.197024768 0)
(0.07259870778 0.167342983 0)
(0.07165655216 0.1679490779 0)
(0.05108615078 -0.0980352768 0)
(-0.2402821752 0.1015966048 0)
(0.1077689581 -0.1619695276 0)
(0.1328276077 -0.09265684731 0)
(0.1808795984 -0.003647365403 0)
(0.188401191 0.001145042412 0)
(-0.02765048667 -0.099940962 0)
(-0.9219364292 -0.6651839599 0)
(-1.159464364 -0.651718505 0)
(-1.110727994 -0.4990129574 0)
(-1.013203073 -0.2978476312 0)
(-0.9859332661 -0.0797394166 0)
(-1.427912358 -0.1145652591 0)
(-0.8644667242 -0.3409886466 0)
(-0.8996946918 -0.3268641874 0)
(-0.6867300047 0.2521647272 0)
(0.07532806505 -0.09083936023 0)
(-0.01803529811 -0.07226372505 0)
(-0.02831766158 -0.03648628116 0)
(0.07403798093 -0.03507426152 0)
(0.3472697174 0.04731692816 0)
(0.2774341779 -0.09124382762 0)
(-0.05878683472 0.1121684278 0)
(-0.1641927101 -0.002689898977 0)
(-0.1196407852 0.1046120818 0)
(-0.09020451207 0.0834373963 0)
(-0.2873801785 0.04831209521 0)
(-0.2243471538 -0.1063757649 0)
(-0.3182805292 0.006179995315 0)
(-0.253673573 -0.03838294446 0)
(-0.2177096337 -0.09760155461 0)
(0.03410145272 -0.02508426286 0)
(0.1375703003 -0.2081294904 0)
(-0.05305658893 -0.2753675292 0)
(-0.4173227969 -0.4661393359 0)
(-0.5780501109 -0.4556142328 0)
(-0.7497200617 -0.1494682044 0)
(-1.165406096 0.4201598917 0)
(-0.9121155895 0.5074244996 0)
(-0.7706978046 0.5333512735 0)
(-0.7320125628 0.5751605713 0)
(-0.7282952524 0.6350522044 0)
(-0.7345431341 0.7133654515 0)
(-0.760984781 0.8367567736 0)
(-0.7826850313 0.6316963799 0)
(-0.7372263065 0.5471441564 0)
(-0.6191303811 0.643964646 0)
(-0.5179143111 0.231512833 0)
(-0.5112613675 0.0530245663 0)
(-0.9311780639 0.7385670595 0)
(-0.1567095944 0.3850834582 0)
(0.01078482131 0.2411102314 0)
(0.05946200625 0.2095088765 0)
(0.0595398413 -0.1602712431 0)
(-0.212470938 0.147968862 0)
(-0.4536865116 -0.5471718488 0)
(-1.038402417 -0.8210986687 0)
(-1.032174113 -0.6724678784 0)
(-0.9949863159 -0.5075815061 0)
(-0.9347551467 -0.2887727713 0)
(-0.9722441157 -0.06936949341 0)
(-1.445073584 -0.1310290118 0)
(-0.6560727027 -0.5255364876 0)
(-0.5687273259 0.7698066468 0)
(-0.523835206 0.7954813178 0)
(0.03863937739 -0.07579905566 0)
(-0.05764937993 -0.06582910326 0)
(-0.01996083476 -0.07468819709 0)
(0.06910249089 -0.05957677653 0)
(0.507053697 0.03051428986 0)
(0.06260162844 -0.0371457825 0)
(-0.007980266091 0.08678815871 0)
(-0.08050367957 0.003899843442 0)
(-0.1285390305 0.09688859195 0)
(-0.1070263902 0.1388153671 0)
(-0.09463597007 0.1458898628 0)
(-0.1075679129 -0.02422020703 0)
(-0.3129132614 0.1361326821 0)
(-0.2854318392 0.1155096469 0)
(-0.2104856342 -0.04050205457 0)
(0.137778205 -0.3106369842 0)
(-0.1008601645 -0.3682415657 0)
(-0.2120063188 -0.4347399075 0)
(-0.4038262557 -0.5148818367 0)
(-0.5531977662 -0.4833056845 0)
(-0.7035065287 -0.3651003271 0)
(-1.081054506 0.4689333592 0)
(-0.7409464279 0.4745295013 0)
(-0.6511547412 0.4984991979 0)
(-0.6372370542 0.5438328109 0)
(-0.643451595 0.6070600153 0)
(-0.6533246707 0.6902215731 0)
(-0.6681356824 0.80022003 0)
(-0.6888027061 0.8216521163 0)
(-0.6860148703 0.8259660097 0)
(-0.5978318136 0.8899337861 0)
(-0.4566646434 -0.1526532333 0)
(-0.43714792 -0.7048949758 0)
(-1.033261039 0.8695467605 0)
(-0.5197284574 0.8143703048 0)
(-0.0356919893 0.3626468087 0)
(0.087897233 0.2516795897 0)
(0.05899543148 -0.1157452465 0)
(-0.183055535 0.2031807195 0)
(-0.871721387 -0.6967797448 0)
(-0.8504534318 -0.525774397 0)
(-0.8336145285 -0.3007179821 0)
(-0.942122305 -0.09827034416 0)
(-1.417050088 -0.1592648491 0)
(0.7250295051 -0.5397447173 0)
(0.5780590503 0.5514293407 0)
(0.3675761802 0.1053813926 0)
(0.04571951153 -0.05795705913 0)
(-0.1171344619 -0.02149367393 0)
(-0.005913443946 -0.06979248183 0)
(0.1002517856 -0.08569193182 0)
(0.4217204817 -9.325054506e-05 0)
(-0.05256882804 0.05597897604 0)
(-0.007612991859 0.08826647298 0)
(0.04166855028 -0.04992691631 0)
(0.02293069849 0.05970594508 0)
(-0.07246367306 -0.01417764556 0)
(-0.09985183975 0.1022630665 0)
(-0.07205931935 -0.09130931376 0)
(-0.2196478425 0.1865108252 0)
(-0.3110219681 0.2323411707 0)
(-0.2616976373 0.02169507157 0)
(-0.06583080415 -0.1349329932 0)
(0.0003421315224 -0.3037994012 0)
(-0.1961548926 -0.4121572313 0)
(-0.3552379861 -0.493209159 0)
(-0.5136724864 -0.405252056 0)
(-0.6307031468 -0.4328455537 0)
(-0.8667044385 0.4701149249 0)
(-0.5958626899 0.4307644339 0)
(-0.5576062086 0.4624897857 0)
(-0.5605380381 0.5131270688 0)
(-0.5717113199 0.5813510783 0)
(-0.5810637978 0.6709621171 0)
(-0.5835554885 0.7776734696 0)
(-0.5799889701 0.8829671878 0)
(-0.5769891412 0.9608995436 0)
(-0.5893143766 1.038648509 0)
(-0.4364791944 -0.418790712 0)
(-0.3832266464 -0.503917108 0)
(-0.4943908067 0.8159914581 0)
(-0.497046268 1.338943592 0)
(-0.229549525 1.185622001 0)
(0.08235828848 0.4713710599 0)
(0.1162775491 0.03918142832 0)
(-0.0671030765 0.2900108454 0)
(-1.30023161 -0.1961129871 0)
(0.9772048592 -0.4737492661 0)
(0.7833713067 0.2922240418 0)
(-0.09943934752 -0.05360381186 0)
(-0.03583982282 -0.04517614156 0)
(-0.1892193651 0.01736535856 0)
(-0.02492381965 -0.040040536 0)
(0.05229440422 -0.1032963794 0)
(0.2705192324 -0.02618667914 0)
(-0.07961994234 0.05151895076 0)
(0.03245698809 0.03361523299 0)
(-0.1454651884 -0.005517111306 0)
(-0.01477722819 0.06738186163 0)
(-0.1115970034 -0.04067879174 0)
(-0.1786568481 0.01931787618 0)
(-0.1484978382 0.04697426904 0)
(0.138527246 -0.005864518515 0)
(-0.6125253138 -0.04997292831 0)
(-0.4138725335 0.1954960819 0)
(-0.2286840252 -0.002233554433 0)
(-0.1727330766 -0.1508058104 0)
(-0.2545817394 -0.2932077512 0)
(-0.2951261166 -0.4432877321 0)
(-0.4737892743 -0.2735336163 0)
(-0.5641614365 -0.2656878192 0)
(-0.5845163877 0.3649602258 0)
(-0.4908008598 0.3856178782 0)
(-0.4863399795 0.4283893969 0)
(-0.4960724093 0.4836714961 0)
(-0.5064857629 0.558830558 0)
(-0.5103290241 0.6581934744 0)
(-0.5031483314 0.7710468615 0)
(-0.4880508943 0.8718065301 0)
(-0.4751989322 0.9382929389 0)
(-0.4601025491 0.9749582492 0)
(-0.4038080632 0.9995327148 0)
(-0.2817372661 0.9743663007 0)
(0.3735603284 0.9241812832 0)
(0.5579552653 1.064745713 0)
(0.3680689505 1.126079994 0)
(0.2136007372 0.6080350486 0)
(0.1095413445 0.06901186018 0)
(-0.1443419534 0.5596727625 0)
(-0.373545297 0.06212007976 0)
(-0.1658997784 -0.06045007401 0)
(-0.158515372 -0.02537799993 0)
(-0.2336661341 0.02221805761 0)
(0.0126384274 -0.01248949859 0)
(0.007790162651 -0.067726992 0)
(0.1225586427 -0.04075783125 0)
(-0.07797452525 -0.02223019339 0)
(-0.02429116366 -0.01573139996 0)
(-0.1449386571 0.0181015208 0)
(-0.07734018968 0.01243446634 0)
(-0.1432367266 -0.04921278816 0)
(-0.1821276221 0.0396972007 0)
(-0.1764994928 0.06751821463 0)
(-0.1228090586 0.03395898865 0)
(0.9246590942 -0.02187348225 0)
(0.3092276201 0.1683070419 0)
(-0.3609932135 0.1927101457 0)
(-0.2436487624 -0.04829015221 0)
(-0.2792808429 -0.2050796673 0)