/*--------------------------------*- C++ -*----------------------------------*\
  =========                 |
  \\      /  F ield         | OpenFOAM: The Open Source CFD Toolbox
   \\    /   O peration     | Website:  https://openfoam.org
    \\  /    A nd           | Version:  8
     \\/     M anipulation  |
\*---------------------------------------------------------------------------*/
FoamFile
{
    version     2.0;
    format      ascii;
    class       scalarField;
    location    "1.2/lagrangian/reactingCloud1";
    object      age;
}
// * * * * * * * * * * * * * * * * * * * * * * * * * * * * * * * * * * * * * //


107
(
0.2637283625
0.2545490706
0.2221558418
0.2233848863
0.2251075229
0.213086199
0.1638233875
0.1632387457
0.162654104
0.217880153
0.2164549234
0.1610950594
0.2087185169
0.2112992634
0.1482840681
0.1460667023
0.1421148717
0.1381277593
0.1982553529
0.1478012893
0.1221698886
0.245595499
0.2143818622
0.1195038893
0.1926234141
0.1918310838
0.1911179865
0.19381279
0.1900096198
0.1943678953
0.1885857116
0.141915747
0.1407075131
0.1877953332
0.1398031778
0.1145928381
0.1387145857
0.2136044643
0.09828926905
0.09626749611
0.09424572317
0.1777671476
0.1787548558
0.2150296938
0.1784880886
0.1241343091
0.1611924997
0.1230117831
0.1241343091
0.1218892571
0.1204860996
0.1246916744
0.1190829421
0.2896861962
0.1791069382
0.2161957908
0.1175394688
0.1328104123
0.1778579971
0.1745610075
0.1641157083
0.05015134228
0.1701402575
0.1312962589
0.04210517519
0.04994993126
0.1301665917
0.04015606533
0.09100436756
0.03810119117
0.04180615129
0.1601206566
0.0854463678
0.05192613178
0.2520661474
0.02805422776
0.1508634568
0.1361892144
0.02604662126
0.1493607037
0.1253578059
0.05230621176
0.0412712239
0.2477022218
0.02205497725
0.1757293727
0.01805250032
0.2458212193
0.1741803506
0.08345526924
0.01406493467
0.2431878159
0.0121497043
0.05481043125
0.008190733082
0.006209104111
0.2341402031
0.004227475139
0.2149001275
0.2283391843
0.002245846168
0.1257067642
0.1801353731
0.08223208038
0.0441354189
0.2363409671
0.0002642171962
)


// ************************************************************************* //
