/*--------------------------------*- C++ -*----------------------------------*\
  =========                 |
  \\      /  F ield         | OpenFOAM: The Open Source CFD Toolbox
   \\    /   O peration     | Website:  https://openfoam.org
    \\  /    A nd           | Version:  8
     \\/     M anipulation  |
\*---------------------------------------------------------------------------*/
FoamFile
{
    version     2.0;
    format      ascii;
    class       scalarField;
    location    "1.2/lagrangian/reactingCloud1";
    object      rho;
}
// * * * * * * * * * * * * * * * * * * * * * * * * * * * * * * * * * * * * * //


107
(
994.5114685
994.5114685
1000
994.5114696
994.5114698
994.5114693
994.5114686
994.5114686
994.5114686
994.5114696
994.5114695
994.5114687
994.5114701
994.5114704
994.5114686
994.5114686
1000
1000
994.5114698
994.5114706
1000
994.5114715
994.5114708
994.5114686
994.5114701
994.5114701
994.5114701
994.5114701
994.5114701
994.5114701
994.5114701
994.5114704
994.5114703
994.5114701
994.5114703
994.5114687
994.5114703
994.5114706
1000
1000
1000
994.511473
994.5114731
994.5114712
994.5114735
994.5114689
994.5114701
994.5114688
994.5114688
994.5114688
994.5114688
994.5114688
994.5114688
994.5114713
994.5114726
1000
994.5114688
994.5114696
994.5114739
994.5114728
1000
1000
994.5114717
994.5114697
1000
994.5114694
994.511469
1000
994.5114691
1000
994.5114695
1000
994.5114685
994.5114692
994.5114706
1000
994.5114691
1000
1000
994.5114706
994.5114688
994.5114706
994.5114693
994.51147
1000
994.5114737
1000
994.5114707
994.5114684
994.5114685
1000
994.51147
1000
994.51147
1000
1000
994.5114704
1000
994.5114742
994.5114699
1000
994.511469
1000
1000
994.5114714
994.5114707
1000
)


// ************************************************************************* //
