/*--------------------------------*- C++ -*----------------------------------*\
  =========                 |
  \\      /  F ield         | OpenFOAM: The Open Source CFD Toolbox
   \\    /   O peration     | Website:  https://openfoam.org
    \\  /    A nd           | Version:  8
     \\/     M anipulation  |
\*---------------------------------------------------------------------------*/
FoamFile
{
    version     2.0;
    format      ascii;
    class       scalarField;
    location    "0.7/lagrangian/reactingCloud1";
    object      Cp;
}
// * * * * * * * * * * * * * * * * * * * * * * * * * * * * * * * * * * * * * //


65
(
4182.948099
4182.948099
4182.948099
4182.9481
4182.948099
4182.948099
4182.9481
4182.948221
4182.948217
4182.948213
4182.948101
4182.948099
4182.948099
4182.948134
4182.9481
4182.948099
4182.948118
4182.948099
4182.948197
4182.948099
4182.948099
4182.948102
4182.948102
4182.948102
4182.948102
4182.948101
4182.948101
4182.948194
4182.948099
4182.948099
4182.948105
4182.948105
4182.948099
4182.948105
4182.948105
4182.9481
4182.948105
4182.948099
4182.948099
4182.948105
4182.948109
4182.94812
4182.948099
4182.948099
4182.948099
4182.948099
4182.948106
4182.948099
4182.948105
4182.948105
4182.948105
4182.948104
4182.948099
4182.948104
4182.948099
4182.948099
4182.948104
4182.948104
4182.948099
4182.948099
4182.94811
4182.948099
4182.948099
4182.948106
4182.948099
)


// ************************************************************************* //
