/*--------------------------------*- C++ -*----------------------------------*\
  =========                 |
  \\      /  F ield         | OpenFOAM: The Open Source CFD Toolbox
   \\    /   O peration     | Website:  https://openfoam.org
    \\  /    A nd           | Version:  8
     \\/     M anipulation  |
\*---------------------------------------------------------------------------*/
FoamFile
{
    version     2.0;
    format      ascii;
    class       scalarField;
    location    "0.7/lagrangian/reactingCloud1";
    object      d;
}
// * * * * * * * * * * * * * * * * * * * * * * * * * * * * * * * * * * * * * //


65
(
0.0005746176783
0.0007196665056
0.0005469682727
0.001196465073
0.0006463909097
0.0009772829104
0.000746764611
0.0006280635183
0.0006298574271
0.0005678182512
0.0005602274757
0.0005907343074
0.0006104332912
0.0005108921807
0.0009514783467
0.0007125543116
0.00100460833
0.0006897177085
0.0005116837568
0.0006788084861
0.0006359524601
0.0006035414936
0.0007977222998
0.0008781144487
0.0006618231063
0.0008870330866
0.0006373983937
0.0005074025328
0.0005272422973
0.000673683133
0.0006436159204
0.0005591371679
0.001147476315
0.0007550400969
0.001009027824
0.0006012222707
0.0005747154088
0.0006091895136
0.0007983696265
0.0007468425502
0.001020121836
0.0007532824772
0.0006399446112
0.001190989006
0.0008725132132
0.0008593926016
0.0008982024474
0.000578975646
0.0006649311656
0.0005118607698
0.0005227763805
0.0005816881952
0.0007665328124
0.0008501123437
0.0006341846342
0.0006468084706
0.0007833936592
0.0005352829983
0.0005363573636
0.000563434168
0.001036840989
0.001021696669
0.0005574192115
0.0007819127826
0.0007476505965
)


// ************************************************************************* //
