/*--------------------------------*- C++ -*----------------------------------*\
  =========                 |
  \\      /  F ield         | OpenFOAM: The Open Source CFD Toolbox
   \\    /   O peration     | Website:  https://openfoam.org
    \\  /    A nd           | Version:  8
     \\/     M anipulation  |
\*---------------------------------------------------------------------------*/
FoamFile
{
    version     2.0;
    format      ascii;
    class       scalarField;
    location    "0.7/lagrangian/reactingCloud1";
    object      rho;
}
// * * * * * * * * * * * * * * * * * * * * * * * * * * * * * * * * * * * * * //


65
(
1000
1000
1000
994.5114688
1000
1000
994.5114688
994.5115082
994.511507
994.5115056
994.511469
1000
1000
994.5114797
994.5114689
1000
994.5114746
1000
994.5115004
1000
1000
994.5114693
994.5114693
994.5114693
994.5114693
994.5114693
994.5114692
994.5114994
1000
1000
994.5114703
994.5114703
1000
994.5114704
994.5114703
994.5114689
994.5114704
994.5114685
1000
994.5114704
994.5114717
994.5114752
1000
1000
1000
1000
994.5114709
1000
994.5114704
994.5114706
994.5114705
994.5114702
1000
994.5114702
1000
1000
994.51147
994.5114701
1000
1000
994.511472
1000
1000
994.5114708
1000
)


// ************************************************************************* //
