/*--------------------------------*- C++ -*----------------------------------*\
  =========                 |
  \\      /  F ield         | OpenFOAM: The Open Source CFD Toolbox
   \\    /   O peration     | Website:  https://openfoam.org
    \\  /    A nd           | Version:  8
     \\/     M anipulation  |
\*---------------------------------------------------------------------------*/
FoamFile
{
    version     2.0;
    format      ascii;
    class       volScalarField;
    location    "1.6/wallFilmRegion";
    object      delta;
}
// * * * * * * * * * * * * * * * * * * * * * * * * * * * * * * * * * * * * * //

dimensions      [0 1 0 0 0 0 0];

internalField   nonuniform List<scalar> 
1342
(
0.0001758201989
0.001791076237
0.0001075658072
9.402813929e-05
0.0001738078244
0.0002348353791
0.0001716399036
8.085051878e-06
6.514041363e-06
1.045137635e-05
1.965379321e-05
2.60041886e-05
2.59501612e-05
2.246037884e-05
3.866146136e-05
3.322484718e-05
3.292428713e-05
0.0001583001448
3.764481789e-06
9.118111155e-06
7.12146532e-06
6.608561858e-06
1.918591189e-05
2.444105374e-05
2.400740887e-05
2.559465639e-06
9.472167554e-06
2.306391799e-05
3.093091713e-05
2.837629241e-05
2.363361394e-05
2.07306616e-05
3.221126363e-05
3.502059046e-05
3.512144713e-05
3.128406208e-05
3.540329787e-07
2.788125519e-06
3.895987626e-06
1.840640378e-06
1.262803973e-06
5.367373147e-06
7.170397769e-05
5.856562516e-05
6.418176322e-05
5.951391547e-05
5.207933914e-05
4.534856693e-05
5.144493848e-05
6.409104871e-05
6.615755819e-05
5.499325844e-07
1.419106757e-07
3.209499009e-08
8.420946927e-09
1.38611423e-09
1.972432788e-09
6.940410464e-09
2.507464639e-08
2.695466086e-07
7.865256655e-07
2.845154779e-05
9.299255021e-05
0.0001389121953
6.445282454e-08
1.409719248e-08
2.900400559e-09
6.721824837e-10
5.605757389e-11
3.06223332e-10
1.429066007e-09
5.974259005e-09
2.38846081e-08
7.002824094e-08
2.648398274e-05
0.0001167092958
1.486294965e-09
3.037805907e-10
6.518387141e-11
1.455791578e-11
2.087479877e-12
3.180107097e-11
1.794792222e-10
8.028849489e-10
1.483911807e-09
4.755260702e-09
2.759887461e-09
4.352419126e-10
7.770577555e-10
9.146853782e-12
2.759014368e-12
8.259983785e-13
2.762955769e-13
7.800892511e-14
9.937137029e-12
3.074055808e-11
1.411013176e-10
7.119979179e-10
5.767513827e-06
0.0001737051857
1.091078937e-05
1.515496633e-05
2.874583075e-05
2.565339689e-05
0.001403442297
9.824724305e-05
1.303793655e-05
1.256988359e-05
0.0001207161614
1.298848287e-05
1.812047209e-05
2.079137027e-05
0.001464255888
0.0003151548145
1.453077835e-05
3.705190896e-05
7.592282406e-06
3.881873478e-05
5.643145013e-06
5.636300341e-06
1.881178317e-05
4.469382915e-06
3.281165656e-06
5.029651388e-05
3.97859657e-06
7.685205475e-06
0.0002305056587
2.989643753e-05
1.897682282e-05
0.0001747243767
4.414957192e-05
6.170825524e-07
0.000260821101
3.887476343e-07
4.465496758e-07
0.0006019920602
1.800129309e-06
1.744409454e-05
0.001562090155
0.0001421199754
0.0005631469057
0.0004128276244
0.0006144920896
0.0006269347843
0.0006397509245
0.0009694151353
0.0008187401643
6.083348473e-06
0.0001754620808
2.514522108e-05
1.509394203e-06
8.556456529e-07
5.807978785e-07
7.823253498e-07
4.52305818e-07
2.413056748e-07
1.24186566e-05
7.68350667e-08
2.976659745e-05
1.632566799e-06
8.86171296e-06
7.524177907e-07
1.544397966e-07
1.435660581e-07
1.163748953e-07
1.73405076e-07
1.390788451e-07
2.010404702e-07
1.762931556e-07
3.238398287e-07
5.393766964e-07
9.963951493e-06
1.169190215e-06
5.963969537e-06
0.001229017733
1.530584175e-05
2.625356955e-05
0.001374815143
0.0002223047738
0.0004094329757
0.0007965115829
0.000637705048
0.0005844210873
0.001081268718
0.001365855444
0.001613593342
0.0002035173531
0.00120974072
0.0002059514213
2.640153412e-07
2.894807541e-07
9.025213768e-08
1.541899397e-07
8.601832147e-08
1.74618691e-07
1.697188045e-05
1.616686798e-07
5.770347197e-06
7.411098614e-07
8.038641677e-06
9.456048342e-07
5.653347467e-08
5.006724906e-08
2.617887258e-08
8.469004966e-08
4.310696553e-08
8.767729747e-08
9.799200666e-08
1.552717778e-07
1.980814016e-07
2.372951935e-07
1.682698387e-07
2.017877807e-07
4.80300451e-06
6.913585765e-08
9.691075916e-07
0.0001045628771
6.456535972e-06
6.644727929e-05
0.001007090589
0.0004027314322
0.0003845104733
0.001138283195
0.000351311828
0.0002430104476
0.000110457351
6.662961862e-05
1.177744607e-07
3.640431467e-08
1.881806411e-07
4.171189401e-08
2.436321702e-07
4.025898838e-08
1.567804489e-07
5.362804077e-06
5.373399679e-07
4.426143926e-06
1.093704506e-06
7.735763556e-06
1.286717824e-06
1.423988536e-08
3.515857922e-08
1.310427443e-08
9.292475563e-08
4.109480198e-08
1.160609437e-07
3.558168668e-07
2.694404596e-07
4.937835191e-07
4.003926059e-07
6.79479992e-07
7.437672563e-07
2.64300794e-07
6.946104052e-07
3.418970927e-07
2.529195917e-05
2.495071762e-06
3.178326275e-05
0.003861637405
0.0003021883747
0.003894591238
7.193962249e-05
2.778884414e-05
8.154771807e-06
1.243221583e-05
3.86215859e-06
6.717890674e-06
8.4332261e-09
1.937782831e-05
1.524808973e-09
3.982674283e-08
3.880155081e-08
3.661054965e-08
1.258641674e-07
4.302628145e-08
1.104009318e-07
1.508387989e-06
3.356788562e-07
9.76143983e-07
1.719873455e-06
4.352434962e-06
2.896933701e-06
1.894922924e-08
6.529588058e-08
3.077590639e-08
1.817829836e-07
1.143744856e-07
3.00267816e-07
6.878160793e-07
6.35555089e-07
1.083298815e-06
9.762464234e-07
1.425546915e-06
1.375783676e-06
2.258931708e-06
2.016020751e-06
4.533931321e-06
5.946826672e-05
1.670566974e-05
0.0001386959725
0.003263493767
0.0004131974537
0.002329511219
3.843425359e-06
4.829593774e-06
4.336420959e-06
5.613592713e-08
2.615155562e-23
3.035999789e-32
7.394848347e-10
2.516855739e-32
4.714921911e-10
3.483784047e-08
2.264263221e-08
3.47801234e-08
1.029749535e-07
4.850348661e-08
1.026683256e-07
8.20979994e-07
2.869888752e-07
7.703226143e-07
2.912275253e-06
1.94719377e-06
1.170677627e-06
4.184076771e-08
2.204597375e-08
1.104796533e-07
4.546693314e-07
2.914940532e-07
6.517669061e-07
1.75673661e-06
1.363368965e-06
2.431025959e-06
2.222984087e-06
3.79013464e-06
7.217327017e-06
1.169220754e-05
1.509287956e-05
3.089063998e-05
0.0003208464927
0.0001211123594
0.0005143704596
9.719831806e-06
9.964434767e-05
1.191230093e-05
9.818838278e-05
8.5710396e-05
3.515884504e-23
4.244390523e-11
7.251531984e-11
3.997073729e-10
1.511845256e-10
5.780263825e-10
3.839087617e-08
3.712941242e-08
7.775411176e-08
1.2783348e-07
1.612087118e-07
2.976548431e-07
8.271629956e-07
7.795068914e-07
8.044144565e-07
3.503824239e-07
6.328133966e-07
1.847289126e-07
1.648823828e-07
1.095966877e-07
1.811039985e-07
4.482145617e-07
2.705500815e-07
3.335970051e-07
4.001942364e-07
3.371306275e-07
1.925523993e-07
1.762453834e-05
1.334056262e-05
3.489524421e-05
7.801078459e-05
8.579113586e-05
0.0001158039438
0.0004462154719
0.000287964921
0.001588691932
0.0009774985073
0.0003715119421
0.0008608424561
0.0003620372675
0.0003458641947
0.0004884843237
0.0003062159329
0.0002282611435
2.09751114e-05
0.000121696375
4.897009064e-05
7.6879644e-07
2.067419528e-05
1.394122774e-05
5.502011731e-07
1.588604009e-05
4.04310993e-05
5.077262618e-07
5.571801021e-05
8.943496974e-07
1.276670923e-07
3.725579733e-07
3.181677616e-07
1.571953581e-07
5.492524616e-07
9.550530567e-07
2.321060881e-07
1.444781239e-06
1.869538662e-06
1.075528592e-07
1.514858285e-06
1.05700371e-05
5.985865955e-05
0.0004930605338
0.001445300342
1.106344249e-05
7.93031814e-06
6.573545822e-06
5.507059284e-06
3.621254769e-06
2.348955733e-06
2.184330309e-06
1.163280731e-06
6.665569995e-07
5.924533846e-07
3.232057613e-07
3.521947849e-07
1.802262696e-07
1.520418039e-07
1.03956147e-07
7.673939152e-08
4.197193938e-08
9.070710369e-08
3.5754539e-08
4.462183331e-08
2.02048143e-07
6.750629058e-08
1.108973251e-07
6.732094075e-07
2.003963566e-07
3.896660242e-07
1.253642581e-06
2.069031662e-06
3.480371754e-06
7.114485706e-06
8.941675847e-06
6.557469953e-06
5.054773121e-06
1.939382911e-06
5.743541378e-07
1.547520615e-07
6.556358608e-08
1.751553753e-08
2.271320377e-08
6.177947056e-08
3.1609143e-06
1.88065111e-06
8.039802751e-08
4.404371384e-08
3.145834708e-08
1.35175571e-08
3.7320331e-08
2.094897059e-07
6.501512793e-08
9.380271366e-08
6.689060333e-07
1.860796564e-07
1.827465294e-06
5.678943393e-07
1.43305749e-06
1.057851227e-06
2.824927179e-07
6.752659812e-08
7.545184634e-08
3.546825408e-08
1.614156565e-08
1.666824755e-08
4.84100493e-09
1.300530985e-09
6.035092081e-10
6.752210623e-10
3.593576783e-09
1.121802498e-09
2.147081759e-09
1.348866012e-08
4.819831507e-08
1.572395066e-07
4.396862622e-08
4.5424702e-07
1.145872142e-07
2.186801145e-07
2.505153924e-07
1.373125619e-07
9.843438677e-10
1.38182747e-09
4.444386571e-10
9.403791636e-12
3.670370012e-11
6.661985803e-10
9.377320286e-11
2.209675556e-10
2.965885533e-09
4.974259907e-10
1.206660586e-08
6.173104877e-09
1.150367989e-08
3.443872533e-10
7.316279479e-11
7.231280397e-12
1.353201508e-09
1.705092496e-09
0.0001005086477
3.281862947e-05
0.0007241893685
3.916470355e-05
0.001824272998
1.855929219e-05
0.001691154809
8.725318224e-06
0.002957104696
7.692520109e-06
0.003200765023
3.552552866e-06
0.003131138386
3.756288428e-06
0.003015544321
1.113569828e-05
0.0001005991765
0.00144710252
0.0001419128974
0.0006720063478
1.216376962e-05
2.27100435e-05
3.471191695e-05
2.326747226e-05
0.0001109648436
0.0002694794538
0.0002826142372
0.000350386877
0.001110129557
0.001845603765
0.0008455954967
0.003444918256
0.0006222996295
0.0004139527615
0.00124167075
8.753635703e-05
1.565712226e-06
1.220069891e-06
6.591101418e-07
1.664812784e-05
2.919720954e-07
1.502815277e-07
2.002553311e-07
7.603843626e-06
5.366957211e-05
0.001357460107
0.0005448170328
0.0007596990834
0.001040471096
0.000722353464
0.0002964551242
0.0003461798995
5.014527294e-07
2.148016762e-07
9.486507187e-07
7.832132947e-06
7.934368644e-08
6.554445066e-08
1.010372693e-07
5.671829699e-08
2.074697941e-07
7.803972866e-06
9.969919528e-05
0.0008255045418
0.001239491247
0.0007051655512
2.606715984e-07
4.354241917e-08
6.681683558e-07
8.241121196e-06
3.906719749e-08
3.287854777e-08
2.157971537e-07
4.312503021e-07
2.160676605e-07
2.069384987e-06
0.0003114636763
0.0001562020336
2.358844316e-05
3.631154842e-06
6.975158989e-08
4.143868181e-08
4.046167577e-07
7.02903496e-06
4.186012235e-08
6.715608884e-08
3.966042861e-07
9.091841417e-07
1.189613986e-06
6.276310761e-06
0.000296456185
7.699207074e-06
1.390442212e-06
5.86190659e-14
2.741063732e-08
4.510465115e-08
2.955640775e-07
2.636447876e-06
1.586394933e-07
1.656893676e-07
1.0046412e-06
2.378622221e-06
4.796717394e-06
4.572584608e-05
0.0006154768547
1.232774062e-05
3.082644379e-23
3.312893475e-30
2.202610761e-08
5.83842961e-08
3.493516771e-07
1.481289215e-06
7.958601399e-08
3.045252314e-07
5.277546024e-07
5.916974532e-06
3.914102874e-05
0.000247823343
0.002299096487
0.00105114071
0.000934126181
0.0007753588111
0.0001720577776
1.811375695e-06
7.492167247e-07
8.827089351e-07
3.173081029e-07
1.067230398e-07
2.069428086e-07
2.188787545e-07
5.320944616e-05
0.000160238997
0.001241926139
6.168076298e-05
5.875499061e-05
6.781107428e-05
9.289553776e-05
8.664341138e-05
5.97446056e-05
0.0002079855334
0.0004024887178
0.0001896843139
6.12014945e-05
0.001727402446
0.0001144008117
0.0017359287
1.412747295e-05
8.872160207e-06
4.234427784e-06
1.21630045e-06
3.883922127e-07
1.957450407e-07
7.997377956e-08
1.280284458e-07
3.481566155e-07
1.18571304e-06
2.089140692e-06
7.4609081e-07
9.081937599e-06
1.097614339e-05
9.686113078e-06
6.77065233e-06
2.738310213e-05
2.718628397e-05
3.188683345e-06
1.111278952e-06
6.041902207e-07
2.882853878e-07
1.519171586e-07
8.554910617e-08
3.02550314e-08
1.664535464e-08
8.710395689e-09
3.653074796e-08
2.150199359e-08
1.154357246e-07
9.262700684e-06
2.155940808e-05
4.360374358e-05
6.948474081e-05
1.017067919e-07
3.121873196e-07
7.498682524e-07
4.048755303e-07
2.079896207e-07
7.631899692e-07
0.0001174972469
0.0001335970129
0.0001319607746
0.0001278955577
0.0001506991333
0.0001115625833
9.224819837e-05
0.0001086238882
9.388499605e-05
0.0001228466159
0.000143144605
0.000131456497
2.163679566e-08
5.773416172e-08
6.346626978e-08
3.473953283e-07
1.61968586e-06
3.948347845e-09
0.0001578291705
9.671936082e-05
9.411957699e-05
7.951764049e-05
0.0001183703668
0.000102367891
0.0001665126434
0.0001178060793
9.676935657e-11
2.361681813e-11
6.289821993e-12
7.952165645e-12
1.680011863e-12
1.255861723e-12
3.652426699e-13
7.521420364e-12
4.338428771e-11
1.889918002e-10
1.86096172e-11
5.139127398e-12
1.519138749e-12
4.399015682e-13
1.081910718e-13
2.571271604e-12
1.548384941e-11
7.009912637e-11
2.797089983e-10
2.154667041e-12
6.739345711e-13
2.18576301e-13
6.818628364e-14
1.786089368e-14
4.916052361e-13
3.262820473e-12
1.533360661e-11
6.045580198e-11
1.123458296e-12
3.816456066e-13
1.302510267e-13
4.282356383e-14
1.086543532e-14
4.092948125e-13
3.40475264e-12
1.906601943e-11
7.813617409e-11
7.690399279e-05
2.558998777e-05
2.073260892e-05
1.277703296e-05
0.0003000858907
4.537482171e-05
1.691874411e-05
2.723895171e-05
1.224194208e-05
1.070396426e-05
0.001494885984
2.88455068e-05
0.0001047100937
0.0002956936503
7.374117313e-06
4.316767822e-06
0.001537095721
1.204907292e-05
0.0003186784502
0.0001856989532
2.304239419e-06
1.238981449e-06
0.002419977892
9.099635996e-06
0.0002502749158
0.0004013335572
7.686696277e-07
7.457805128e-07
0.003155783919
4.940929598e-06
0.0002333729142
0.0008496826409
4.817382159e-07
2.671188506e-07
0.003192207822
3.333487494e-06
0.0008371623715
0.0007754097006
1.967524006e-07
2.078576201e-07
0.003107286242
5.168581598e-06
0.000882593748
0.001057690267
2.709702401e-07
4.021463253e-07
0.002691718293
5.200579387e-05
0.001226914989
0.00112604329
6.909804649e-07
1.56610472e-06
9.373967121e-05
0.0005916103726
3.510740387e-06
0.002623135371
0.001286757969
0.0006717685838
0.0004482345741
0.004349198085
0.003973749422
3.377851576e-05
0.0006306618668
2.377397241e-05
2.346058199e-05
0.001974335708
0.0001038576983
7.245587332e-05
0.002835709695
2.531425781e-05
1.463988279e-05
0.0001680444599
0.000811656734
0.000248212168
0.0002034808313
0.001462012806
3.147806412e-05
3.449577427e-05
3.528800063e-05
0.0002299070183
0.001786980874
3.590841091e-05
0.001013366238
0.001092182319
0.0001380411225
0.001515702895
0.0002158880782
0.001927392451
0.001650588661
3.522457101e-05
2.801044421e-05
2.347989904e-05
6.258134017e-05
0.0004042796483
9.853794289e-06
1.721203576e-06
5.943824061e-05
0.0004238529668
0.0004552851898
6.820992751e-06
1.810088591e-06
2.648116683e-06
6.069612236e-05
0.0004915770372
0.000530557996
7.633335858e-06
4.635942459e-06
8.030950076e-06
8.127456565e-05
0.0005659846242
0.0005865565571
1.475121373e-05
1.25519953e-05
1.718844842e-05
9.642147763e-05
0.0005807745865
0.0005416018371
2.379446811e-05
2.059570625e-05
2.188703113e-05
5.462087433e-05
0.0004603918773
0.0003338444662
2.622504384e-05
2.116061848e-05
1.941166591e-05
0.0001061187048
0.0002974938172
0.0004780622258
2.50934011e-05
1.790950791e-05
1.650834774e-05
0.0003245931912
0.0004602505255
0.0003918594373
2.244530277e-05
1.511576517e-05
1.638724582e-05
0.0002994010965
0.0003650433571
0.0003503861599
3.60915157e-05
2.711998685e-05
2.658457938e-05
0.000196873297
0.0003493296469
0.0003436124475
3.011996472e-05
2.658281698e-05
2.59710716e-05
0.0001201097028
0.0005037484773
0.0007861161222
0.00011746745
2.502382266e-05
2.46153465e-05
8.581167879e-05
0.003362620494
0.001661821948
2.309702559e-05
2.373855718e-05
2.055429745e-05
1.845115402e-05
6.356882798e-06
5.650224993e-06
1.103706331e-05
7.398581547e-06
3.711490474e-06
8.838541699e-06
6.218123959e-06
3.791696362e-06
5.470118471e-06
6.55679021e-06
3.699678284e-06
3.218549347e-06
9.573548216e-06
3.012072479e-06
4.327381113e-06
2.08402747e-05
2.19734562e-05
1.036431553e-05
1.117891532e-05
1.723819572e-05
2.308586498e-05
1.303976485e-05
2.43332066e-05
4.093370553e-05
2.792264951e-05
2.711858873e-05
1.626259686e-06
4.956622703e-06
1.600580424e-05
3.019414958e-05
2.846948811e-05
3.893577656e-05
4.382220902e-05
3.054758339e-05
4.491359414e-05
4.332862373e-05
2.575193244e-05
4.044930315e-05
3.737505606e-05
2.187676625e-05
3.467649384e-05
3.23910424e-05
2.190353815e-05
3.08697568e-05
3.072683944e-05
3.362465313e-05
3.980131791e-05
4.402264432e-05
3.541451403e-05
4.720215744e-05
4.852617421e-05
3.346513833e-05
4.899235744e-05
4.643427073e-05
3.305996397e-05
4.961410865e-05
4.737058705e-05
4.452827899e-05
4.216063533e-05
1.090622087e-06
3.062202231e-07
8.35693345e-09
1.27454226e-08
1.206987879e-06
3.547498245e-07
9.809768752e-07
1.693691099e-06
2.081070958e-06
9.514733509e-07
1.915651476e-06
3.845832368e-06
3.281399738e-06
1.901297669e-06
1.9137712e-06
9.075776242e-07
1.512629372e-06
7.30003175e-07
3.362782002e-07
1.586038017e-06
5.936391743e-07
5.335495005e-07
2.235836068e-07
5.82625087e-06
2.643721476e-06
3.146463545e-06
1.155640797e-05
4.306126184e-05
5.3385717e-05
9.975983945e-05
6.591937162e-05
6.363083832e-05
6.585476134e-05
8.445664525e-05
6.897025488e-05
4.920132404e-05
6.325782046e-05
7.957836104e-05
8.546414373e-05
8.744686802e-05
8.633310063e-05
6.255560235e-05
8.300570446e-05
7.822931344e-05
5.586116633e-05
4.846934291e-05
7.267174274e-05
6.696087276e-05
6.157092344e-05
5.666706127e-05
4.285432563e-05
7.615530705e-05
5.872642258e-05
6.560324062e-05
8.405185966e-05
6.645945625e-05
8.785591604e-05
7.064863718e-05
8.878469619e-05
9.712594983e-05
6.795131646e-05
9.695937572e-05
9.553435754e-05
0.0001012624069
6.00067664e-07
3.039838328e-07
1.528270305e-07
8.255774103e-09
4.234880002e-09
2.356117099e-09
4.274684709e-09
8.391312528e-09
1.563590337e-08
2.896999789e-08
3.02721849e-08
6.366543048e-09
3.285820212e-10
1.401266905e-10
7.482334427e-08
2.916003649e-08
7.963401541e-08
4.292832389e-07
9.163999347e-07
7.631699149e-07
4.026422217e-07
2.485575124e-08
1.008315423e-07
6.564002048e-08
1.430697879e-08
6.460548812e-08
1.450231148e-08
1.950881082e-07
1.267697966e-06
9.128437893e-07
4.806789114e-07
5.993764048e-05
2.997252062e-05
6.630920794e-05
0.0001321595488
0.0001461688541
0.0001475973791
0.0001532565992
0.0001546161225
0.00016009138
0.0001530281474
0.0001319022317
0.0001426249182
0.0001181116141
9.771299617e-05
0.0001061683422
0.0001093373519
0.0001285697638
0.0001537061343
0.000161080897
0.0001537151971
0.0001637351757
0.0001299400727
0.0001273955546
0.0001518975207
0.0001562348777
0.0001171429479
0.0001121990716
0.0001421974923
0.0001028776811
0.0001160480043
0.0001271686024
0.0001319911909
0.000120660849
0.0001425715267
0.0001017944623
0.0001201974259
8.331348932e-05
0.0001103955659
0.0001289466207
0.0001504944601
0.0001310907317
0.0001540513683
2.428663932e-08
1.090983564e-08
4.928984149e-09
2.218665367e-09
2.0713418e-10
9.566231025e-11
4.059510435e-11
1.06779183e-09
2.202929626e-09
5.018429229e-09
8.625498908e-09
3.340172938e-09
1.706388173e-09
6.694688874e-10
7.60545978e-10
1.38968845e-10
1.577540527e-10
3.113003744e-11
3.478443098e-11
1.680098478e-11
6.258486307e-12
3.483598847e-12
1.128071687e-11
7.814220326e-11
2.081607264e-11
5.145844343e-11
3.89921466e-10
1.181465537e-10
2.565260285e-10
1.701037541e-09
5.352348761e-10
1.267779164e-08
2.446765836e-09
1.587139592e-08
4.01738295e-09
2.89763256e-08
1.231351806e-07
2.860467856e-09
2.62258662e-08
3.697014976e-09
1.124976053e-07
2.116926657e-08
1.924133635e-08
3.867140047e-09
1.502339811e-09
6.207303545e-09
3.228283218e-09
7.196839561e-10
7.179495012e-10
3.582650678e-09
7.425615262e-10
2.224300672e-09
2.788751766e-06
1.042034316e-05
1.17933188e-09
9.032913179e-11
7.695251517e-05
1.033962403e-10
8.821544535e-05
1.244130813e-10
1.456790011e-10
1.592988897e-10
4.66119378e-13
0.0001023753396
1.604238439e-10
1.509671018e-10
1.390499351e-10
8.712182637e-05
1.221868363e-10
8.399351706e-13
1.049010402e-10
1.986292083e-10
1.558716322e-11
8.118662526e-05
5.255790404e-09
9.334912972e-05
4.155316575e-09
3.443209973e-09
2.840514776e-09
0.0001067250578
2.356403773e-09
2.06035738e-09
3.264885232e-05
3.441079078e-05
0.0001215694528
1.169647879e-09
1.005446989e-05
3.599747277e-05
0.0001127817505
6.413873613e-05
0.0001619871264
0.0001015345969
9.955783768e-05
0.0001305366817
7.203751181e-05
0.0001384817748
0.0001062158998
0.0001649349837
0.0001107457363
2.05255198e-10
9.390683246e-11
4.714386167e-11
4.529541293e-11
2.267326332e-11
1.208965673e-11
1.168879095e-11
6.148478542e-12
3.280995178e-12
3.273026416e-12
1.741357084e-12
8.164785074e-13
9.099998928e-13
4.538114008e-13
2.466065358e-12
2.135857073e-13
1.510556696e-12
1.894533554e-11
4.719535005e-12
1.201911781e-11
9.325518881e-11
2.758479184e-11
5.932909792e-11
3.558017035e-10
1.228761342e-10
2.592462572e-10
4.410312393e-10
3.732352285e-11
1.32507504e-11
9.644410707e-12
6.844019218e-12
3.671202741e-12
2.783926492e-12
2.017320562e-12
1.122109475e-12
8.254195417e-13
6.260166232e-13
3.467524367e-13
2.239280699e-13
1.881752536e-13
9.748600685e-14
7.990929884e-13
4.795009529e-14
3.694020304e-13
6.679253493e-12
1.227918881e-12
3.274511618e-12
3.348457472e-11
7.726975967e-12
1.687841827e-11
1.415195288e-10
3.542804238e-11
7.223171399e-11
4.311675308e-10
1.368022931e-10
2.358535923e-10
8.981011977e-10
4.027161572e-12
6.806625343e-13
1.193294274e-12
3.986936337e-13
2.349912147e-13
3.838173483e-13
1.387917726e-13
8.185408297e-14
1.233767831e-13
4.797482652e-14
2.774715707e-14
3.592085854e-14
1.562609461e-14
8.284492483e-15
1.42953658e-13
3.969222853e-15
3.372838725e-14
1.350080741e-12
1.277719931e-13
3.866338107e-13
7.242790928e-12
1.028932078e-12
2.503180123e-12
3.141756435e-11
5.782655346e-12
1.262727329e-11
1.037809146e-10
2.712222582e-11
4.276360499e-11
4.921411716e-10
3.759177988e-10
1.941421865e-12
3.340048956e-12
1.650825421e-11
6.537477477e-13
1.914936059e-12
1.103038517e-12
5.039599285e-12
2.23121042e-13
6.373431079e-13
3.692580513e-13
1.50501466e-12
7.549256841e-14
2.145967463e-13
1.250378686e-13
2.282516431e-14
7.225132053e-14
3.922709794e-14
1.578462274e-13
1.049211232e-13
1.893011435e-14
1.888108567e-13
1.262313469e-12
7.379525117e-13
2.280657053e-12
8.3286458e-12
6.163578298e-12
1.505039781e-11
6.607779416e-11
4.440443526e-11
3.351730655e-11
6.687911709e-11
3.781240776e-10
3.57871164e-10
)
;

boundaryField
{
    walls
    {
        type            zeroGradient;
    }
    wallFilmFace_top
    {
        type            zeroGradient;
    }
    region0_to_wallFilmRegion_wallFilmFace
    {
        type            zeroGradient;
    }
    mirrorFace_top
    {
        type            zeroGradient;
    }
    region0_to_wallFilmRegion_mirrorFace
    {
        type            zeroGradient;
    }
    procBoundary3to2
    {
        type            processor;
        value           nonuniform List<scalar> 
64
(
1.127413838e-05
1.520681956e-06
4.83088734e-06
1.953913546e-05
3.556336013e-05
1.981925305e-06
2.894494077e-07
7.64422382e-09
2.970252564e-11
0.0006681295383
0.0003053440569
0.0002138339501
0.0002138339501
0.0006207938121
0.0007910512904
0.0009383741003
0.0009258244603
0.0006714250292
0.0003927991393
0.0002573542832
0.0001148090406
2.387850403e-05
3.444244881e-06
3.444244881e-06
1.795210228e-05
0.0001210981077
0.0001210981077
0.001183886654
0.0004114328539
0.0004114328539
1.837922801e-05
1.129589923e-05
1.129589923e-05
7.847760052e-06
5.202298247e-06
7.622344533e-05
2.559358651e-05
0.0001024836577
8.181445037e-05
1.464310421e-05
8.339511107e-05
3.912459085e-09
4.522351103e-10
7.867366088e-11
7.935693077e-12
3.38567808e-12
0.0001024836577
1.464310421e-05
0.0006858631543
2.085177553e-06
2.240392159e-06
1.04145879e-05
1.953913546e-05
5.346371491e-05
1.158592584e-06
9.408751816e-05
9.059123862e-05
5.43066928e-08
5.054654033e-05
9.20655723e-11
2.035460202e-10
2.704735414e-11
1.175184396e-12
5.870436075e-12
)
;
    }
}


// ************************************************************************* //
