/*--------------------------------*- C++ -*----------------------------------*\
  =========                 |
  \\      /  F ield         | OpenFOAM: The Open Source CFD Toolbox
   \\    /   O peration     | Website:  https://openfoam.org
    \\  /    A nd           | Version:  8
     \\/     M anipulation  |
\*---------------------------------------------------------------------------*/
FoamFile
{
    version     2.0;
    format      ascii;
    class       volVectorField;
    location    "1.6/wallFilmRegion";
    object      U;
}
// * * * * * * * * * * * * * * * * * * * * * * * * * * * * * * * * * * * * * //

dimensions      [0 1 -1 0 0 0 0];

internalField   nonuniform List<vector> 
1342
(
(0.1346419521 0.0634199278 -1.652178941)
(-0.08536167658 -0.2432972817 -0.1892323869)
(-0.07503239432 -0.4784611382 -3.942291408)
(0.02976868395 -0.5673319902 -3.946094433)
(0.0789522174 -0.3177963311 -3.664919787)
(0.01703241997 0.04295288222 -3.324243845)
(-0.1451190829 0.1213746864 -3.520905413)
(-2.25517725 -0.005941714138 -4.44153785)
(-2.050813747 -0.006447984845 -4.712438107)
(-1.889016703 -0.006981244686 -4.992792148)
(-1.917410777 -0.007498043404 -5.320067282)
(-1.95515726 -0.008435410103 -5.9344053)
(-1.421126276 -0.009837831499 -6.630525637)
(-0.6616404158 -0.01111946199 -7.201850154)
(0.5635694485 -0.009037307588 -5.482551148)
(1.373820983 -0.008636509521 -4.983010712)
(1.524730179 -0.1558336704 -4.778184752)
(-0.183770864 0.03985699744 -3.670499934)
(0.505889089 0.05809474567 -4.062890898)
(0.02639133363 -0.3592660702 -3.511271255)
(0.1250168835 -0.4504299427 -4.173873316)
(0.2294801682 -0.581552042 -4.230914947)
(0.244829291 -0.3092385834 -3.729840978)
(0.2490487776 -0.1532511957 -3.606397249)
(0.6375132278 -0.3316120285 -3.947128071)
(-2.69141606 0.2273306793 -4.062253696)
(-2.50606373 0.2345348422 -4.333720407)
(-3.053286037 0.2413565072 -4.442123937)
(-3.729378323 0.2390747042 -4.517086038)
(-3.755751923 0.2621425037 -4.725109118)
(-3.030258838 0.2687463382 -4.905081913)
(-1.741561416 0.2650830228 -4.969741473)
(0.2943001524 0.2368296271 -4.656084328)
(1.775378109 0.2066896274 -4.278228423)
(2.389192198 -0.05504050771 -4.148802663)
(2.152048489 -0.4071557828 -4.31212599)
(1.235140949 -0.9890958179 -4.625418647)
(0.8197004864 -0.6295365194 -3.878781125)
(0.6091763348 -0.768492285 -3.597079907)
(1.019372909 -0.5243864927 -4.085575226)
(1.203746168 -0.5473075557 -4.308988756)
(0.9827370574 -0.1423330124 -3.718083164)
(3.508244639 -0.6493570381 -3.951074747)
(-5.273777257 0.8858386658 -3.481331055)
(-5.39344276 0.8583785798 -3.377808138)
(-4.837611368 0.8464918287 -3.342590136)
(-3.750166531 0.8476095079 -3.372860305)
(-2.202655653 0.8801964286 -3.470723539)
(0.2094941333 0.9211106263 -3.662101957)
(1.986764424 0.8642197452 -3.437198526)
(2.989226314 0.5800904973 -3.424100034)
(-1.394281021 -1.581670365 -3.007145145)
(-1.16606438 -1.735733782 -3.31350751)
(-0.9396669912 -1.921528157 -3.68875462)
(-0.4181902473 -2.129107922 -4.071805637)
(0.3353183486 -2.647905527 -5.069534237)
(1.026387158 -2.612454884 -4.969330364)
(1.631193152 -2.312057313 -4.40673658)
(1.874667199 -2.007629103 -4.238892434)
(1.729232803 -1.456947897 -3.93908531)
(1.67867631 -0.8601341117 -3.506722652)
(2.353804072 -0.06500304592 -3.910021304)
(3.842025147 -0.7471373785 -4.201090814)
(4.019591386 0.3496658566 -3.073733576)
(-1.918517006 -2.252485347 -2.460133709)
(-1.739375602 -2.523003856 -2.74825029)
(-1.530994281 -2.868134579 -3.116324693)
(-0.9118427598 -3.255792651 -3.55170901)
(0.3130059163 -4.257385159 -4.63378437)
(1.328926123 -3.837332899 -4.16988256)
(2.057439084 -3.28360767 -3.562381292)
(2.39592537 -2.797575267 -3.378435996)
(2.419504938 -2.418664776 -3.568575342)
(2.780604343 -1.31309266 -3.293386519)
(3.896308856 0.1411572169 -3.735496476)
(4.641147788 0.1738165307 -3.249514191)
(-3.175671184 -2.630688845 -1.670968661)
(-3.073302419 -3.021229667 -1.92387195)
(-2.704096395 -3.532157913 -2.235209781)
(-1.826388595 -4.165698871 -2.659542508)
(0.1408574763 -5.42757234 -3.455809428)
(1.834743901 -4.392091019 -2.820134301)
(2.750024171 -3.664801179 -2.34582331)
(3.180470964 -3.05646883 -2.299137507)
(3.838087198 -2.334281805 -2.073043307)
(3.6717668 -1.869477491 -2.685140384)
(4.201086503 -1.52670615 -2.400759168)
(5.012003445 -0.7342401981 -2.482814956)
(4.865644083 0.4916455358 -2.744026574)
(-5.39359382 2.743301015 -1.3389692)
(-4.947443247 3.124878582 -1.524615504)
(-4.263795442 3.621150094 -1.7626988)
(-2.675279899 4.193821365 -2.036180711)
(-0.01742817111 4.855618306 -2.357548963)
(2.279967317 3.294131134 -1.612397438)
(3.249779098 2.652965581 -1.289485602)
(3.867368795 2.102502782 -1.433562309)
(4.149176487 1.491274339 -2.106617376)
(0.4508059007 0.1720110721 -4.339560285)
(0.05378530447 0.006221748553 -2.224275545)
(0.3821081781 0.1899652149 -4.059163535)
(0.2912220492 0.183131879 -3.868854427)
(0.0618367616 0.0547244823 -3.973175585)
(-0.1779759526 -0.2329145441 -3.775121886)
(-0.126963709 -0.2720945113 -0.4354170304)
(-0.0337932922 -0.6208783157 -4.02365211)
(-0.07301698304 -0.4560579943 -4.220088367)
(-0.03813073755 -0.584262063 -4.312462827)
(0.05968776143 -0.4299760955 -3.783014916)
(0.0243974186 -0.5859611891 -4.205349008)
(0.06396883089 -0.4626909417 -3.949799352)
(-0.7698405922 0.1074452101 -0.0001722948029)
(0.01868107885 -0.112617385 0.0001794380079)
(-0.1184725104 -0.02061652953 3.261279539e-05)
(-0.6296430692 0.09402953722 -0.0001498805488)
(-0.3343007939 -0.01295197345 2.118952412e-05)
(-0.5401924722 0.04124218852 -6.612361759e-05)
(-0.1805100708 0.08399897314 -0.0001336920127)
(-0.465970899 0.04044994341 -6.400560078e-05)
(-0.4083951242 0.0612441694 -9.808642859e-05)
(-0.3345250175 0.06389844352 -0.0001012944186)
(-0.3484029216 0.06882560153 -0.000109814773)
(-0.2223099348 0.05935010373 -9.435474943e-05)
(-0.2204550203 0.03069906367 -4.87151308e-05)
(-0.08368826922 0.04861462264 -7.743907396e-05)
(0.007270863854 0.04089962664 -6.515285174e-05)
(-0.2695528038 0.0268632155 -4.287508642e-05)
(0.009385037768 -0.0850224539 0.0001354182722)
(0.01473211067 -0.09544573031 0.00015204683)
(-0.3150128413 -0.08344190821 0.0001330705664)
(0.03787669474 -0.08353274703 0.0001330171702)
(-0.2308384804 -0.234180163 0.000372607259)
(-0.4285906996 -0.3586541586 0.0005706070333)
(-0.2537937239 -0.2143014207 0.0003413794975)
(-0.2573729227 -0.1987870093 0.0003160789921)
(-0.4588453674 -0.2464399415 0.0003869474955)
(-0.2537105042 -0.19411216 0.0003094459249)
(-0.2384877474 -0.2046302281 0.0003257650738)
(-0.3835257336 -0.04261325501 0.0001250882552)
(-0.2559118304 -0.2458347734 0.000391586404)
(-0.3300477648 -0.268509892 0.0004347837702)
(0.1223469805 -0.1243261021 0.0001979094291)
(0.151194355 -0.1741022689 0.0002773596531)
(0.1440730002 -0.1269727722 0.0002021194639)
(-0.06813860751 -0.118060166 0.0001879902364)
(0.06012066224 -0.07257382109 0.0001156711321)
(0.0294369879 -0.1366642732 0.0002175601988)
(-0.4640378692 -0.04982814044 8.025823558e-05)
(-0.01883026482 -0.05065118083 8.071901135e-05)
(-0.1087984079 -0.02744743763 4.363239838e-05)
(-0.3842723882 0.04629710491 -7.521560368e-05)
(-0.3924680156 0.05121143101 -8.084777934e-05)
(-0.3557512816 0.0811327886 -0.0001300426401)
(-0.3722746188 0.09368342785 -0.0001496572689)
(-0.3151666402 0.1117201927 -0.0001775940282)
(-0.2499380253 0.07041839138 -0.0001121391048)
(0.06696440716 0.03369775496 -5.364599967e-05)
(0.002989795226 0.002081898413 -3.317175013e-06)
(0.03347953288 0.01650909538 -2.627667022e-05)
(-0.07098697085 -0.1002237143 0.0001595856077)
(-0.02571750589 -0.03636372739 5.803755706e-05)
(-0.07303833494 -0.09979498779 0.0001590643534)
(-0.2371027982 -0.2245409422 0.0003573553059)
(-0.1731812504 -0.2114524117 0.00033681264)
(-0.2239641894 -0.2407862408 0.0003835952472)
(-0.2265866303 -0.1743094032 0.000277683583)
(-0.2319788379 -0.21961825 0.0003496518296)
(-0.2151630871 -0.1883655658 0.0002995008024)
(-0.1736897935 -0.1346844249 0.0002143133945)
(-0.1867676376 -0.1592258354 0.0002536467204)
(-0.1488445109 -0.1329934167 0.0002111718841)
(0.3223090549 0.0914756548 -0.0001452773766)
(-0.03135263452 -0.08142656778 0.0001296365117)
(0.3793647299 0.09665141266 -0.0001531617078)
(-0.3079750317 -0.4124824495 0.0006574835821)
(0.4236685212 0.06155785532 -9.935241412e-05)
(0.4192214831 0.1545988861 -0.0002458469161)
(-0.3317400982 -0.02586678605 4.161970768e-05)
(-0.1619082634 -0.5260685343 0.0008378508185)
(-0.2684882751 -0.4214845064 0.0006719051228)
(0.1548304866 -0.1225570861 0.0001952367025)
(0.1512716028 -0.2184087697 0.0003475882759)
(0.1247712316 -0.2095407581 0.0003332685364)
(0.113759284 -0.1487981639 0.0002367290426)
(0.1311447195 -0.1562039653 0.0002491804104)
(0.148620804 -0.1529919222 0.0002438369874)
(-0.06889191536 -0.02653020936 4.221774691e-05)
(0.1348471988 -0.16538271 0.0002634719386)
(0.09828036265 -0.186809775 0.0002970677531)
(-0.2662673087 0.07925514075 -0.0001262514039)
(-0.1935534586 0.08213108423 -0.0001308728752)
(-0.08950368044 0.07161534416 -0.0001141349924)
(-0.01649829003 0.003801951869 -6.056303215e-06)
(-0.00371348231 0.007299937108 -1.1606284e-05)
(-0.0002936740609 -0.000150714894 2.397647831e-07)
(-0.00259798366 -0.002927044424 4.660866603e-06)
(-1.35058182e-05 -1.690410125e-05 2.688701735e-08)
(-0.002601607841 -0.00231246081 3.683132177e-06)
(-0.04946573371 -0.06544318875 0.0001040810568)
(-0.01706576348 -0.01790375701 2.854423108e-05)
(-0.04012434436 -0.04798447731 7.647575928e-05)
(-0.1919155213 -0.2598994439 0.0004141902112)
(-0.08234199697 -0.1095634262 0.0001745160432)
(-0.1386331445 -0.2092872351 0.0003335355929)
(-0.227000327 -0.2386604001 0.0003804457547)
(-0.1937810458 -0.3283977004 0.0005232642929)
(-0.2479515702 -0.3592366041 0.0005707648619)
(-0.1689872221 -0.1729706656 0.0002757912927)
(-0.2567683144 -0.3177896128 0.0005052569258)
(-0.2468242885 -0.290665496 0.0004629185354)
(0.2695243756 -0.1135285597 0.0001813543784)
(-0.1840950787 -0.2328727154 0.0003702605256)
(0.09501162728 -0.1948535907 0.0003101150742)
(0.4390777165 0.08344443703 -0.0001320991461)
(-0.189262023 -0.4575524839 0.0007281780736)
(0.7634398851 0.2003042056 -0.0003185201012)
(-0.4752295171 -0.3392815825 0.0005401379498)
(0.6397722762 0.127922748 -0.0002038527677)
(-0.1954120734 -0.1438971784 0.0002297060939)
(0.143515251 -0.2211565403 0.0003521064309)
(0.1410571849 -0.3020930072 0.0004812023735)
(0.1256497104 -0.3211013031 0.0005110364497)
(0.1343480617 -0.1928573579 0.0003070194177)
(0.1219135868 -0.3270693531 0.0005205984403)
(0.03426156755 -0.347089684 0.0005526849288)
(-0.1009918351 -0.3388369658 0.0005399422142)
(0.03016681578 -0.3026857604 0.000482750393)
(-0.05406846351 -0.1541553273 0.0002457667349)
(0.03543824926 0.1251930046 -0.000199605593)
(-0.0141734543 0.03341626136 -5.317453503e-05)
(0.05837264272 0.1359714599 -0.0002164559619)
(0.009476541323 0.0137884782 -2.197851145e-05)
(0.0730558107 0.1284651699 -0.0002045568949)
(0.05103910547 0.07274957184 -0.0001159554632)
(-0.002198685451 -0.001597901579 2.549509591e-06)
(0.01391668848 0.01919983812 -3.059311662e-05)
(-0.002339163715 -0.0005144602073 8.159392869e-07)
(-0.03798398612 -0.03768159091 5.994030621e-05)
(-0.01311039969 -0.007966781199 1.270597321e-05)
(-0.0352057984 -0.02878079043 4.577771105e-05)
(-0.1417333329 -0.1742127499 0.0002779265576)
(-0.0823663074 -0.07625986192 0.0001214242078)
(-0.1472975098 -0.1469528106 0.0002340868366)
(-0.2259459694 -0.3762271519 0.0005988595551)
(-0.2024692081 -0.2270202759 0.0003611168848)
(-0.2374429581 -0.3070765798 0.000488994883)
(-0.3319570134 -0.4159018629 0.000662602874)
(-0.2701436236 -0.3858270658 0.0006146569825)
(-0.3167445233 -0.4422916585 0.0007043858784)
(-0.2605104008 -0.1406121874 0.0002241172834)
(-0.3327694421 -0.4650510212 0.0007405732693)
(-0.2628834425 -0.4330734572 0.0006889308749)
(-0.07506451559 -0.02472111302 3.939097837e-05)
(-0.1525515463 -0.1745802764 0.0002781097606)
(-0.08952722132 0.0683402188 -0.0001090092593)
(0.7803039265 0.1372002998 -0.0002195016641)
(0.6168386829 -0.3099793061 0.0004934502636)
(0.6911720455 -0.131259514 0.0002084589308)
(0.2269131851 -0.3291190325 0.0005243422042)
(-0.2173277208 -0.1865594872 0.0002968006846)
(0.165567548 -0.3781936824 0.0006018651566)
(-0.001030566241 -0.4996795124 0.0007956978785)
(0.03516374679 -0.3884034113 0.0006186434801)
(0.05726580877 -0.4040471266 0.0006443441292)
(0.01984512648 -0.2963907954 0.0004720973177)
(0.09167678643 -0.4203839489 0.0006692502137)
(-0.01840501457 -0.08169654862 0.0001299483614)
(-0.05049383715 -0.01368973605 2.172828049e-05)
(-0.02840472735 0.05240292892 -8.339415035e-05)
(-0.03118368039 0.03714778652 -5.920941853e-05)
(0.07606141723 0.1935704694 -0.0003084280701)
(0.05457886055 0.1992237521 -0.000317291745)
(0.08442432886 0.2477776278 -0.0003942412227)
(0.07147624167 0.1132979166 -0.000180208445)
(0.0921787614 0.2080036462 -0.0003305689028)
(0.08377984906 0.1473253046 -0.0002345383048)
(0.01129840108 0.01684841876 -2.682240697e-05)
(0.06357721413 0.09468254396 -0.0001508990766)
(0.03959235776 0.05557355077 -8.85166351e-05)
(-0.02880283877 -0.01850897508 2.94297147e-05)
(0.00587414453 0.01484185783 -2.362964651e-05)
(-0.01787543621 -0.006848397925 1.090467071e-05)
(-0.1509901091 -0.1202810612 0.0001918650785)
(-0.06297803791 -0.0377618461 6.012908453e-05)
(-0.1477054786 -0.09136778999 0.000145310085)
(-0.2529467121 -0.2456820107 0.0003912355062)
(-0.2266913348 -0.1438119313 0.0002286360628)
(-0.2666880192 -0.1836194181 0.0002915976689)
(-0.3051988431 -0.362182682 0.0005762858593)
(-0.2876932317 -0.2231244805 0.0003553181951)
(-0.3002436252 -0.2639166616 0.0004197078362)
(-0.3015438145 -0.4006659289 0.0006379621382)
(-0.3109563795 -0.2978496564 0.000473972019)
(-0.302646264 -0.3274235004 0.0005217338039)
(0.2659988472 -0.2133568959 0.000339946066)
(0.008200263215 -0.3484762597 0.0005555422652)
(0.6486283255 -0.3170649463 0.0005057719944)
(0.5448404127 -0.2189928814 0.0003482000391)
(0.6212639104 -0.2362802602 0.0003769855223)
(0.5169999168 -0.1590958105 0.0002539357754)
(0.1341001801 -0.3902017976 0.0006215575552)
(0.03758542242 -0.246389871 0.0003926669259)
(0.1043642472 -0.351919853 0.0005605082382)
(0.06475474852 -0.3492285483 0.0005559550054)
(-0.1734882053 -0.2140042028 0.0003410107617)
(-0.1336062835 -0.2460929625 0.0003925260999)
(-0.1349763821 -0.4869234794 0.000776176589)
(-0.1600702933 -0.3655206577 0.0005825140239)
(-0.3264796899 -0.1628535483 0.0002600541638)
(0.01795245412 0.1285877426 -0.0002048378766)
(0.06073745932 0.133408037 -0.0002125795695)
(0.03552729732 0.2550826302 -0.0004062795744)
(0.08503629 0.2872766136 -0.000458049472)
(0.06374072963 0.3340527271 -0.00053166647)
(0.08138540731 0.3108713847 -0.0004947649411)
(0.09095241473 0.1761036608 -0.0002804387388)
(0.09255152771 0.2578454599 -0.0004106364182)
(0.09451283952 0.2004700908 -0.0003192722073)
(0.05415533482 0.07905737571 -0.0001258583551)
(0.0815842778 0.1428321091 -0.000227455167)
(0.06130011741 0.1000308547 -0.0001593163636)
(0.0002272462319 0.00571205626 -9.103925081e-06)
(0.03771959853 0.06457832663 -0.0001029462682)
(0.01547207892 0.02806973566 -4.477775887e-05)
(-0.1170448802 -0.04944545646 7.855947288e-05)
(-0.01958192884 0.01396337317 -2.227205424e-05)
(-0.203888085 0.1271571524 -0.0002024794931)
(-0.2787179915 -0.1250473711 0.0001995996896)
(-0.3251933941 0.1417435866 -0.0002262702883)
(-0.3209539782 0.0572755717 -9.118631329e-05)
(-0.2910242267 -0.1752510885 0.0002796192824)
(-0.2901027994 -0.03613473868 5.769623893e-05)
(-0.2708883164 -0.09384323235 0.00014946513)
(-0.2586215158 -0.2328166167 0.0003708935395)
(-0.2130983976 -0.1331624434 0.0002121073247)
(0.1036574007 -0.170924845 0.0002726316606)
(0.5822073939 -0.2194798374 0.0003492590294)
(0.4146910248 -0.1766981469 0.0002811381451)
(0.5076404453 -0.1500691397 0.0002392901935)
(0.391203119 -0.2272931425 0.0003623059601)
(0.5734115998 -0.1202580216 0.0001910200798)
(0.3370567596 -0.2145835694 0.0003417335377)
(-0.3477372598 -0.05008824096 8.040734645e-05)
(-0.320992707 0.01457768125 -2.331268359e-05)
(-0.2712319912 -0.06193656535 9.897648211e-05)
(-0.2768302364 -0.005573799907 8.541190866e-06)
(-0.2773303756 -0.05391491928 8.636611121e-05)
(-0.08022808358 0.19020902 -0.0003025131503)
(-0.2048316818 0.1102193478 -0.0001756127522)
(-0.0415249032 0.1980847398 -0.0003155115952)
(0.01655634009 0.371137947 -0.0005908607727)
(-0.08106202388 0.472034306 -0.000752029589)
(-0.02867593653 0.4204417545 -0.0006700460767)
(0.07391499123 0.3178452602 -0.0005059732271)
(0.0333987634 0.3311930002 -0.0005275647066)
(0.04611596483 0.2874628404 -0.0004577748758)
(0.08565046209 0.2140551751 -0.0003410390513)
(0.04907665767 0.2383074694 -0.0003795483558)
(0.03199327622 0.1830530712 -0.0002914103734)
(0.04927211812 0.1062357053 -0.0001693468626)
(-0.02939182843 0.1426580084 -0.0002269876167)
(-0.08122304386 0.1583557121 -0.0002520981741)
(-0.1638008636 0.167102715 -0.0002658260582)
(-0.1700949733 0.2041292489 -0.0003249801658)
(-0.3676778588 0.3948103849 -0.0006291380923)
(-0.3773355603 0.3397511037 -0.0005404327309)
(-0.4459582392 0.4724507791 -0.0007519843219)
(-0.4232162141 0.4257312467 -0.0006781809913)
(-0.3514026952 0.212253665 -0.000338583645)
(-0.390321165 0.3608033058 -0.0005748321824)
(-0.3213767238 0.2775988897 -0.0004418121835)
(-0.2345844521 0.1164767262 -0.0001859244567)
(-0.2519180203 0.2190047048 -0.0003485112266)
(-0.2008603741 0.2024842486 -0.0003225232487)
(0.415541016 -0.1595039674 0.0002547955171)
(0.4960405697 -0.1517092848 0.0002413190385)
(0.4561416044 -0.1494407773 0.000237465102)
(0.5177381644 -0.1058890456 0.0001681980648)
(0.4727551158 -0.08766569664 0.0001405022402)
(0.4848393254 -0.09573254506 0.0001516927596)
(0.2257546012 -0.2226574058 0.0003542733869)
(0.3905114631 -0.201485721 0.0003207099462)
(-0.2635183299 0.1866567214 -0.000297116584)
(-0.2873165946 -0.02473636111 3.915682149e-05)
(-0.345838587 -0.1492169514 0.0002373589118)
(-0.2847256297 -0.005255637157 8.91854955e-06)
(-0.3265779741 -0.1564492623 0.0002496504421)
(-0.3196137678 -0.1665324421 0.0002650443387)
(-0.3269122616 0.0438387859 -6.910361281e-05)
(-0.3348241905 -0.1813215608 0.0002879704897)
(-0.388502625 -0.2099060573 0.0003352277715)
(-0.4829955574 0.177208099 -0.0002818443227)
(-0.5096807101 -0.2359898464 0.0003752382859)
(-0.4613790855 -0.1274294269 0.0002034251963)
(-0.437107385 0.1033032299 -0.0001642520005)
(-0.3145456761 -0.06920739719 0.0001106999367)
(-0.1578510775 -0.05905334045 9.388327517e-05)
(-0.06388337976 0.1773115088 -0.0002825258145)
(0.1182214558 -0.08603531143 0.0001370009865)
(0.2838203411 -0.08714069545 0.000138163814)
(-0.1967479873 0.2541805071 -0.000404933901)
(0.1577136635 0.0392506326 -6.246960662e-05)
(-0.2710801336 0.4091422701 -0.0006519843509)
(-0.3676408824 0.4430034974 -0.0007057622387)
(-0.3027330401 0.4548159494 -0.0007247601261)
(-0.3182399908 0.4372654436 -0.0006978426816)
(-0.3681240754 0.4095657207 -0.0006521194396)
(-0.3516131974 0.4320102607 -0.0006884506932)
(-0.3575660424 0.4355759803 -0.0006931543959)
(-0.3101822075 0.3225475654 -0.0005145068293)
(-0.3419582782 0.4315574806 -0.0006857570678)
(-0.3200890396 0.4145300063 -0.0006598719318)
(-0.2373988303 0.2780677595 -0.0004436003821)
(-0.2558715927 0.3200554427 -0.0005090035899)
(0.4000239237 -0.00396332849 1.33961792e-05)
(0.6147784186 -0.1280246592 0.0001959610869)
(0.8332595122 -0.1076179144 0.0002967052258)
(-0.3391720944 0.3253715055 -0.0004070917177)
(-0.8854566922 -0.1893578688 -3.417109917)
(-0.9909589903 -0.5144746349 -3.333213103)
(-0.6036931255 -0.1985125149 -3.59674343)
(-0.8570656143 -0.5291327981 -3.424424397)
(-0.7292331195 -0.5448471349 -3.553437991)
(-0.3854563084 -0.2096263764 -3.893521405)
(-0.6168763889 -0.5709610335 -3.697374782)
(-0.5041772842 -0.596449579 -3.863883013)
(-0.04055142734 -0.2216364859 -4.220287912)
(-0.3590064075 -0.623358227 -4.036820184)
(-0.1572788194 -0.6459294557 -4.201632562)
(0.341703203 -0.2221539932 -4.424232122)
(0.08526303574 -0.6696440992 -4.347233509)
(0.3134559766 -0.6903543417 -4.431318627)
(0.4435588666 -0.2673446304 -5.351730675)
(0.3479034749 -0.7967866961 -5.062127402)
(0.4788314372 -0.8489427289 -5.389078912)
(0.818800862 -0.2688894571 -5.279615637)
(0.6976290687 -0.8395004438 -5.397845901)
(0.9290586691 -0.8111807724 -5.225058498)
(1.093963751 -0.2176948925 -5.103749799)
(1.123184297 -0.7928127288 -5.048859712)
(1.247748098 -0.7658912751 -4.970506876)
(0.841949103 -0.06764094626 -5.005433467)
(1.196170752 -0.6815891279 -5.088626181)
(1.054543795 -0.5527183158 -4.960342192)
(0.8541363441 -0.4281974316 -4.378246738)
(0.7654872498 -0.3247243588 -4.157223482)
(0.6433037364 -0.2691061789 -3.960730438)
(0.4176380322 -0.3948161964 -3.786225858)
(-0.03573448969 -0.442443376 -3.377220487)
(0.2912899775 -0.5270748085 -3.453488437)
(-1.10398252 -0.8246884225 -3.236210969)
(-0.8554636963 -0.8809767265 -3.477112337)
(-0.6286258603 -0.9518912162 -3.798906977)
(-0.2803844952 -1.050321215 -4.146623381)
(0.2763511003 -1.112840205 -4.404678356)
(0.515910818 -1.343111861 -5.379987053)
(1.038869361 -1.296922149 -5.123635712)
(1.396411815 -1.206946439 -4.803207761)
(-1.207765894 -1.191434119 -3.101965762)
(-1.10267566 -1.234283451 -3.211230717)
(-0.3968084855 -1.55932305 -4.026388341)
(-0.1324916602 -1.625289035 -4.192112083)
(0.2332004942 -1.67373504 -4.305170285)
(0.3431510101 -1.951875073 -5.021777052)
(1.528382062 -1.757930745 -4.579752173)
(1.305946828 -1.091696672 -4.849271556)
(1.568527761 -1.658991068 -4.648433812)
(1.612917651 -1.552121277 -4.596295959)
(1.116880424 -0.8074310675 -4.391651902)
(1.505596679 -1.377847467 -4.509786377)
(0.9561829994 -0.6504060987 -3.98740858)
(1.361428565 -1.097508732 -4.103778342)
(1.177692049 -0.9619228197 -3.845446203)
(-1.467066812 -1.517918269 -2.885230685)
(-1.275890101 -1.65624466 -3.155007712)
(-1.075402393 -1.828837583 -3.493878053)
(-1.303547538 -2.117915271 -3.088005805)
(-1.219897588 -2.236786757 -3.26556149)
(-0.7158411511 -2.023076234 -3.881615841)
(-1.092046702 -2.369043915 -3.454133123)
(0.06737843463 -2.213553182 -4.246136662)
(0.6499725199 -2.713709724 -5.160005899)
(0.3299417908 -3.321011387 -4.853984712)
(0.6965749942 -3.340484373 -4.882700768)
(1.368281571 -2.448784456 -4.675529786)
(1.11227858 -3.184574541 -4.661039615)
(1.479318961 -2.974390865 -4.355010678)
(1.810850831 -2.199501653 -4.226239508)
(1.856597837 -1.850070682 -4.317609902)
(1.783866535 -1.64109112 -4.150314099)
(2.112614922 -2.114214569 -3.983445662)
(1.620644008 -1.325336589 -3.83653304)
(2.085536448 -1.731522512 -3.804087105)
(2.007862781 -1.584928364 -3.644195224)
(2.217903834 -1.063108781 -3.447934502)
(-1.970610988 -2.141954286 -2.337873024)
(-2.237844001 -3.081736589 -2.492496058)
(-1.274161886 -3.048814682 -3.32984394)
(-2.061487389 -3.314398917 -2.67695255)
(0.2482773063 -5.109765886 -4.130075471)
(0.9819196105 -4.7261485 -3.822136068)
(1.748302459 -3.535501026 -3.841735532)
(1.575796066 -4.332542662 -3.500849586)
(2.048622666 -3.94791512 -3.193631171)
(2.274537515 -3.074253071 -3.370583255)
(2.391301435 -3.633930612 -2.936952258)
(2.43411463 -2.567318526 -3.465006931)
(3.105571295 -2.455368274 -2.837543113)
(3.556476663 -1.452023491 -2.956348211)
(-3.435979283 -2.922754121 -1.443213641)
(-3.239932494 -3.385377862 -1.669044447)
(1.235941143 -4.90504889 -2.409087565)
(3.431202692 -2.844827361 -2.099542608)
(4.077263053 -1.929973628 -2.192389323)
(-0.09031961828 0.003179954571 -5.064166987e-06)
(-0.3449963386 -0.005998953169 -3.652880461)
(0.2437240032 0.01335640827 -2.131216693e-05)
(-0.2113528238 -0.006192766836 -3.821008883)
(0.1769817296 0.02013586609 -3.219156459e-05)
(0.03852058871 -0.006380985919 -4.016415572)
(-0.1779910044 0.004568257224 -7.547513116e-06)
(0.2943878709 -0.006840727393 -4.384654342)
(-0.4962993539 -0.02206427403 3.463497124e-05)
(0.3295591526 -0.006665101454 -4.28754619)
(-0.6294576154 -0.08036344805 0.0001295095898)
(0.4031091012 -0.006835222751 -4.425871311)
(-0.6209208333 -0.148999551 0.0002366946393)
(0.5982590477 -0.006555456271 -4.318870068)
(-0.551382588 -0.1950364891 0.0003034961944)
(0.4940688404 0.03909935286 -4.247952337)
(-0.05531937136 -0.04237875226 -2.463566694)
(-0.3848508406 -0.1436778734 0.0003028187929)
(0.08401972018 0.02095216062 -1.789834717)
(-0.1133647514 -0.09413033593 0.000150156477)
(-0.7843423923 0.09618416181 -0.0001515937655)
(-0.3627563191 0.08688534146 -0.0001384834534)
(-0.2581304588 0.0853998479 -0.0001364643861)
(-0.2482211143 0.03772506425 -6.017552712e-05)
(-0.2125967883 0.01127249466 -1.791174197e-05)
(-0.3061993143 0.01687534581 -2.678525879e-05)
(-0.2819364176 -0.2088872873 0.0003335818891)
(-0.4788302476 -0.3316038743 0.0005279364507)
(-0.4201561286 -0.1490358893 0.0001923621178)
(-0.3494195568 0.1237582888 -0.0001746207223)
(0.01681341564 -0.01304989068 -1.613369984)
(0.09459989624 0.02543722839 -4.049231081e-05)
(0.08126866286 0.06356249276 -0.4978702947)
(0.1459889111 -0.1803896938 0.0002873234413)
(0.01888892864 -0.08264768133 0.0001315687076)
(0.01857658809 -0.08400820745 0.0001339323881)
(-0.4430224435 -0.004866898235 8.424231429e-06)
(-0.3555091969 0.07620961745 -0.0001211941093)
(0.03743039739 0.02924784447 -4.668872916e-05)
(-0.004799507812 -0.05552644374 8.837069153e-05)
(-0.1714727228 -0.1975494215 0.0003147112329)
(-0.2397356611 -0.2005346759 0.0003197404404)
(-0.2065219098 -0.1528036008 0.000243580514)
(0.2843376814 0.1157728368 -0.0001846307433)
(0.3540966125 0.03858290026 -6.231090204e-05)
(-0.3310335873 -0.2240863193 0.0003569644849)
(-0.2638782767 -0.3743442833 -1.496116011)
(-0.1985648703 -0.3178624015 -0.8556287673)
(-0.2515583475 -0.3481013772 0.0005537802115)
(0.1476099358 -0.178857178 0.0002849866715)
(0.1361809535 -0.1448673864 0.0002308829378)
(0.1316906419 -0.1665766421 0.000264993459)
(-0.3006945798 0.06376185997 -0.0001017701341)
(-0.1790225853 0.0665382763 -0.0001059794734)
(-0.000342309507 -0.0003395715333 5.41158501e-07)
(-0.02135233544 -0.0258608745 4.114673698e-05)
(-0.1083032406 -0.1619586984 0.0002578699894)
(-0.2313941333 -0.2675340557 0.0004264019966)
(-0.2023308426 -0.2029322315 0.0003233781377)
(-0.1201652839 -0.1314916293 0.0002099511602)
(0.1096242628 -0.3240834657 0.0005161384141)
(0.522747497 0.09131270886 -0.0001448394771)
(-0.7037682061 -0.3287645518 0.0005228124959)
(0.1373028765 -0.2379385454 0.000379593027)
(0.1467647776 -0.1896108038 0.0003016243782)
(0.1161429877 -0.2172681976 0.0003459946045)
(-0.1127037166 0.1050021055 -0.0001673214956)
(0.05037761791 0.07775050168 -0.0001239945066)
(-0.0006433684337 -0.0001974928998 3.146232377e-07)
(-0.01554754273 -0.01287855691 2.050420155e-05)
(-0.08236844588 -0.09166066953 0.0001457377743)
(-0.1898265772 -0.2713639657 0.0004316067684)
(-0.2783023281 -0.4640936959 0.0007409858882)
(-0.3170030459 -0.2550944168 0.0004068521065)
(-0.1899038732 -0.05763723065 9.153501232e-05)
(0.6342328057 0.1410224465 -0.0002246123163)
(-0.3161883781 -0.07979335194 0.0001265573372)
(0.0679763772 -0.4143289225 0.0006602532814)
(0.01174103795 -0.4883064868 0.0007779324041)
(-0.01516181434 -0.04934991632 7.851953118e-05)
(0.03280542599 0.1036135152 -0.0001649161817)
(0.08574814019 0.1712179842 -0.0002728273777)
(0.04563900763 0.06331598016 -0.0001006953142)
(-0.009273060098 -0.002929383024 4.685012848e-06)
(-0.0782336162 -0.05938442803 9.467874033e-05)
(-0.2158658949 -0.1855524704 0.0002963348727)
(-0.2782153599 -0.3069686968 0.0004895659996)
(-0.3319394405 -0.3908678226 0.0006217602323)
(-0.1612640831 -0.2773328682 0.0004415073691)
(0.6609960671 -0.2984440222 0.0004743222024)
(-0.05437068424 -0.282435872 0.0004492868016)
(0.01854579781 -0.3330559929 0.0005298731865)
(0.1435365904 -0.3805356813 0.0006065273037)
(0.001047525181 -0.217048502 0.0003457587203)
(0.06395327258 0.2783825999 -0.0004439877983)
(0.0938233167 0.2370234743 -0.0003779442046)
(0.07551687706 0.1210677953 -0.0001927550797)
(0.02251520696 0.03549118654 -5.651668948e-05)
(-0.01548592812 -0.00503590319 8.039768719e-06)
(-0.2341733437 -0.101541608 0.000161778205)
(-0.2929814887 -0.1464833999 0.0002336181099)
(-0.2862377349 -0.204854505 0.0003266210031)
(0.534575139 -0.2765424055 0.0004395924432)
(0.5758772551 -0.1770130434 0.0002820169121)
(0.09271668468 -0.2107309367 0.0003354952723)
(-0.2935481007 -0.0521558242 8.25880419e-05)
(-0.1546305921 0.02452753643 -3.904243001e-05)
(-0.002701865708 0.3556893755 -0.0005660806307)
(0.05707635943 0.3593827956 -0.0005721332005)
(0.08572444261 0.2663722687 -0.0004240646379)
(0.06288944169 0.1491235194 -0.0002377839833)
(-0.001026106612 0.08016421169 -0.0001277074326)
(-0.3831457526 0.372944666 -0.0005940877155)
(-0.3989303272 0.3020960328 -0.000480393328)
(-0.2904822527 0.1399278959 -0.0002227183611)
(0.2352404353 -0.1015152244 0.0001611467863)
(0.4548014501 -0.1420423827 0.0002261664321)
(0.4857922317 -0.1824500417 0.0002908188509)
(0.03335156245 -0.04503217422 7.173780492e-05)
(-0.2890901479 -0.01815201128 2.903749326e-05)
(-0.2830938372 -0.01854504221 2.938335451e-05)
(-0.2938283751 0.01065214403 -1.746080695e-05)
(-0.4414842267 0.1180314665 -0.0001888339134)
(-0.458834916 0.1457061778 -0.0002318090591)
(-0.3714390195 0.06253251634 -0.0001000817139)
(-0.1239536894 0.1967903473 -0.0003137058581)
(-0.2979654642 0.351146947 -0.000559287928)
(-0.3839907364 0.4480150815 -0.0007131020035)
(-0.343948073 0.3649062113 -0.0005811941917)
(-0.273653204 0.2930643322 -0.0004675477336)
(0.8155894102 -0.08697509811 0.000147998053)
(0.3985498476 -0.121994168 0.0001916282267)
(-0.3543626328 0.2806316025 -0.0004468433145)
(-0.8588131157 -0.0721144265 0.0001152417003)
(-0.7425999929 -0.06776653102 0.0001066459104)
(-0.5909989244 -0.07045818876 0.000111666592)
(-0.415745384 -0.07400747041 0.0001178632197)
(-0.2086015369 -0.07227590122 0.0001151916608)
(0.2759932588 -0.05963070247 9.490573939e-05)
(0.5782686619 -0.03420285399 5.519817556e-05)
(0.5630615354 -0.03120230531 4.988876441e-05)
(-0.03788407056 0.1519494128 -0.0002417889448)
(-0.05453171588 0.04836794452 -7.697642e-05)
(0.7022409326 -0.1583885741 0.000417561149)
(-0.2080471442 0.104914009 -3.804081441)