/*--------------------------------*- C++ -*----------------------------------*\
  =========                 |
  \\      /  F ield         | OpenFOAM: The Open Source CFD Toolbox
   \\    /   O peration     | Website:  https://openfoam.org
    \\  /    A nd           | Version:  8
     \\/     M anipulation  |
\*---------------------------------------------------------------------------*/
FoamFile
{
    version     2.0;
    format      ascii;
    class       scalarField;
    location    "1.9/lagrangian/reactingCloud1";
    object      age;
}
// * * * * * * * * * * * * * * * * * * * * * * * * * * * * * * * * * * * * * //


81
(
0.2160279163
0.208032316
0.2239039973
0.2000581995
0.1920378135
0.188043153
0.19177139
0.1985808905
0.1580249621
0.1560272459
0.1420353965
0.1675641294
0.2213878641
0.2218401896
0.2223298256
0.1180613191
0.2549784308
0.2228813699
0.1100784156
0.2293148281
0.1000995362
0.2396514742
0.2234233201
0.09406187625
0.2213604437
0.2106363393
0.2316465073
0.06806387226
0.1875108128
0.2094041512
0.1706269004
0.2027062775
0.1980482516
0.1480290034
0.05608782435
0.1820415361
0.05409181637
0.0500998004
0.04805389222
0.04406187625
0.04206586826
0.04008235105
0.2585901525
0.2497614994
0.03411128766
0.2597940598
0.2221096032
0.02806412045
0.2484572666
0.2123630145
0.02606721393
0.2511660579
0.02008054992
0.01810772853
0.1520265913
0.01609944043
0.2459491265
0.0140494284
0.03207858523
0.01206703304
0.1970417886
0.0880738523
0.01009590986
0.1751795779
0.00806402863
0.1460204983
0.1952058361
0.006095643689
0.1340770191
0.2358593691
0.2325123795
0.004063762459
0.1902324954
0.02207299897
0.002104332123
0.1896407102
0.1885165033
0.1877769829
0.1868601748
0.0002066754763
0.0001377836509
)


// ************************************************************************* //
