/*--------------------------------*- C++ -*----------------------------------*\
  =========                 |
  \\      /  F ield         | OpenFOAM: The Open Source CFD Toolbox
   \\    /   O peration     | Website:  https://openfoam.org
    \\  /    A nd           | Version:  8
     \\/     M anipulation  |
\*---------------------------------------------------------------------------*/
FoamFile
{
    version     2.0;
    format      ascii;
    class       scalarField;
    location    "1.9/lagrangian/reactingCloud1";
    object      d;
}
// * * * * * * * * * * * * * * * * * * * * * * * * * * * * * * * * * * * * * //


81
(
0.0006199921063
0.0005070232124
0.0008207694697
0.0005581330021
0.0005558477477
0.0005673475254
0.001008723083
0.001037582689
0.000549796301
0.0007717917388
0.000652069653
0.0005660524686
0.0005561650198
0.0005468396895
0.0005437989691
0.0009641023535
0.0008031270148
0.0005975950133
0.0007295269458
0.0005017742077
0.0008370576634
0.0006538555129
0.0008416493647
0.0005095218064
0.0005426593129
0.0009415284998
0.0008180213576
0.0008384681749
0.0006924538836
0.0005546778591
0.0008427352738
0.0006906261129
0.0005999847532
0.0007556893418
0.0008750663738
0.0008871973891
0.001014551849
0.001133946601
0.0006534797106
0.0007586080317
0.0007377451074
0.0005591923445
0.0005380439867
0.0008231458325
0.0008192817153
0.0005921011416
0.0005808538406
0.0006674418282
0.000586318636
0.0007284333402
0.0005781625643
0.0005036041148
0.0005959533423
0.000795946931
0.000590372058
0.0006695939286
0.0005334158986
0.0009620747037
0.0006642416105
0.000509098795
0.0009092503758
0.0005140625581
0.0005590249841
0.000783747583
0.0005228346051
0.0005092504486
0.0007434015306
0.0007551118501
0.0006391822027
0.000531648199
0.0006851866463
0.0006119549339
0.0005051683483
0.0007146561438
0.0005508470837
0.001046780576
0.0007522099208
0.000557929603
0.0005760073877
0.0009185442546
0.0008692315493
)


// ************************************************************************* //
