/*--------------------------------*- C++ -*----------------------------------*\
  =========                 |
  \\      /  F ield         | OpenFOAM: The Open Source CFD Toolbox
   \\    /   O peration     | Website:  https://openfoam.org
    \\  /    A nd           | Version:  8
     \\/     M anipulation  |
\*---------------------------------------------------------------------------*/
FoamFile
{
    version     2.0;
    format      ascii;
    class       scalarField;
    location    "1.9/lagrangian/reactingCloud1";
    object      nParticle;
}
// * * * * * * * * * * * * * * * * * * * * * * * * * * * * * * * * * * * * * //


81
(
4049.305182
7401.321175
100.0318579
5434.086744
5596.782062
5259.753325
100.0640069
100.1914545
5801.850739
2074.833307
3469.225486
100.0075463
102.7605444
104.694423
102.3989412
1063.341694
100.1484992
103.0305609
2454.246945
100.5126633
1620.639671
100.3124867
100.1896149
7204.690578
100.434052
100.21181
100.0812708
1616.753878
195.9392521
101.0398554
101.9787906
100.0232938
4445.488697
2216.500916
1422.265495
1374.096938
912.6009585
653.6207778
3500.509025
2182.988014
2373.474917
5490.578766
100.4357562
100.0610337
1709.728382
100.4467989
100.0089762
3211.576622
195.8446577
100.3351296
4993.910572
101.103304
4496.676709
1875.91569
4643.631019
3204.876946
100.5105049
1080.451746
3311.593025
7209.610963
100.8006906
7015.453352
5455.946625
100.2016866
6788.076539
291.7263649
100.1345161
2182.818184
3685.829496
100.3098382
100.0118678
4233.322773
104.2205023
2597.523005
5610.228281
100.1186644
100.0581141
101.2935595
101.5158159
100.0909362
1434.235622
)


// ************************************************************************* //
