/*--------------------------------*- C++ -*----------------------------------*\
  =========                 |
  \\      /  F ield         | OpenFOAM: The Open Source CFD Toolbox
   \\    /   O peration     | Website:  https://openfoam.org
    \\  /    A nd           | Version:  8
     \\/     M anipulation  |
\*---------------------------------------------------------------------------*/
FoamFile
{
    version     2.0;
    format      ascii;
    class       scalarField;
    location    "1.9/lagrangian/reactingCloud1";
    object      T;
}
// * * * * * * * * * * * * * * * * * * * * * * * * * * * * * * * * * * * * * //


81
(
300
300
299.9999868
300
300
300
299.9999887
299.9999872
300
300
300
299.999987
299.9999862
299.9999864
299.9999865
300
299.9999952
299.9999866
300
299.9999948
300
299.999995
299.9999891
300
299.9999892
299.9999894
299.999995
300
299.9999859
299.9999891
299.999948
299.999994
300
300
300
300
300
300
300
300
300
300
299.9999966
299.9999969
300
299.9999973
299.9999953
300
299.9999962
299.9999994
300
299.9999966
300
300
300
300
299.9999963
300
300
300
299.9999867
300
300
299.9999865
300
299.9999984
299.9999879
300
300
299.9999965
299.9999972
300
299.9999863
300
300
299.9999879
299.9999863
299.9999863
299.9999862
299.9999995
300
)


// ************************************************************************* //
