/*--------------------------------*- C++ -*----------------------------------*\
  =========                 |
  \\      /  F ield         | OpenFOAM: The Open Source CFD Toolbox
   \\    /   O peration     | Website:  https://openfoam.org
    \\  /    A nd           | Version:  8
     \\/     M anipulation  |
\*---------------------------------------------------------------------------*/
FoamFile
{
    version     2.0;
    format      ascii;
    class       surfaceScalarField;
    location    "0.2/wallFilmRegion";
    object      phi;
}
// * * * * * * * * * * * * * * * * * * * * * * * * * * * * * * * * * * * * * //

dimensions      [1 0 -1 0 0 0 0];

internalField   nonuniform List<scalar> 
2598
(
-0
-0
-0
-0
0
-0
0
-0
0
0
0
0
0
0
0
-0
0
0
0
0
0
0
0
0
0
0
0
0
0
0
0
0
0
0
0
0
0
0
0
0
0
0
0
0
0
0
0
0
0
0
0
-0
-0
-0
-0
-0
-0
0
0
0
0
0
0
0
0
0
0
0
0
0
0
0
0
0
0
0
0
0
0
0
0
0
0
0
0
0
0
0
0
0
0
0
0
0
0
0
0
0
0
0
0
0
0
0
-0
0
-0
0
-0
0
-0
0
0
0
0
0
0
0
0
0
0
0
0
0
0
0
0
0
0
0
0
0
0
0
0
0
0
0
0
0
0
0
0
0
0
0
0
0
0
0
0
0
0
0
0
0
0
0
0
-0
0
-0
0
-0
0
-0
0
0
0
0
0
0
0
0
0
0
0
0
0
0
0
0
0
0
0
0
0
0
0
0
0
0
0
0
0
0
0
0
0
0
0
0
0
0
0
0
0
0
0
0
0
0
0
0
-0
0
-0
0
-0
0
-0
0
0
0
0
0
0
0
0
0
0
0
0
0
0
0
0
0
0
0
0
0
0
0
0
0
0
0
0
0
0
0
0
0
0
0
0
0
0
0
0
0
0
0
0
0
0
0
0
-0
0
-0
0
-0
0
-0
0
-0
0
0
0
0
0
0
0
0
0
0
0
0
0
0
0
0
0
0
0
0
0
0
0
0
0
0
0
0
0
0
0
0
0
0
0
0
0
0
0
0
0
0
0
0
0
0
0
0
-0
0
-0
0
-0
0
-0
0
-0
0
0
0
0
0
0
0
0
0
0
0
0
0
0
0
0
0
0
0
0
0
0
0
0
0
0
0
0
0
0
0
0
0
0
0
0
0
0
0
0
0
0
0
0
0
0
0
0
-0
0
-0
0
-0
0
-0
0
-0
0
0
0
0
0
0
0
0
0
0
0
0
0
0
0
0
0
0
0
0
0
0
0
0
0
0
0
0
0
0
0
0
0
0
0
0
0
0
0
0
0
0
0
0
0
0
0
0
-0
0
-0
0
-0
0
-0
0
-0
0
0
0
0
0
0
0
0
0
0
0
0
0
0
0
0
0
0
0
0
0
0
0
0
0
0
0
0
0
0
0
0
0
0
0
0
0
0
0
0
0
0
0
0
0
0
0
0
-0
0
-0
0
-0
0
-0
0
-0
0
0
0
0
0
0
0
0
0
0
0
0
0
0
0
0
0
0
0
0
0
0
0
0
0
0
0
0
0
0
0
0
0
0
0
0
0
0
0
0
0
0
0
0
0
0
0
0
-0
0
-0
0
-0
0
-0
0
-0
0
-0
0
0
0
0
0
0
0
0
0
0
0
0
0
0
0
0
0
0
0
0
0
0
0
0
0
0
0
0
0
0
0
0
0
0
0
0
0
0
0
0
0
0
0
0
0
0
-0
0
-0
0
-0
0
-0
0
-0
0
-0
0
0
0
0
0
0
0
0
0
0
0
0
0
0
0
0
0
0
0
0
0
0
0
0
0
0
0
0
0
0
0
0
0
0
0
0
0
0
0
0
0
0
0
0
0
0
-0
0
-0
0
-0
0
-0
0
-0
0
-0
0
0
0
0
0
0
0
0
0
0
0
0
0
0
0
0
0
0
0
0
0
0
0
0
0
0
0
0
0
0
0
0
0
0
0
0
0
0
0
0
0
0
0
0
0
0
-0
0
-0
0
-0
0
-0
0
-0
0
-0
0
0
0
0
0
0
0
0
0
0
0
0
0
0
0
0
0
0
0
0
0
0
0
0
0
0
0
0
0
0
0
0
0
0
0
0
0
0
0
0
0
0
0
0
0
0
-0
0
-0
0
-0
0
-0
0
-0
0
-0
0
0
0
0
0
0
0
0
0
0
0
0
0
0
0
0
0
0
0
0
0
0
0
0
0
0
0
0
0
0
0
0
0
0
0
0
0
0
0
0
0
0
0
0
0
0
-0
0
-0
0
-0
0
-0
0
-0
0
-0
0
0
0
0
0
0
0
0
0
0
0
0
0
0
0
0
0
0
0
0
0
0
0
0
0
0
0
0
0
0
0
0
0
0
0
0
0
0
0
0
0
0
0
0
0
0
-0
0
-0
0
-0
0
-0
0
-0
0
-0
0
0
0
0
0
0
0
0
0
0
0
0
0
0
0
0
0
0
0
0
0
0
0
0
0
0
0
0
0
0
0
0
0
0
0
0
0
0
0
0
0
0
0
0
0
0
-0
0
-0
0
-0
0
-0
0
-0
0
-0
0
0
0
0
0
0
0
0
0
0
0
0
0
0
0
0
0
0
0
0
0
0
0
0
0
0
0
0
0
0
0
0
0
0
0
0
0
0
0
0
0
0
0
0
0
0
-0
0
-0
0
-0
0
-0
0
-0
0
-0
0
0
0
0
0
0
0
0
0
0
0
0
0
0
0
0
0
0
0
0
0
0
0
0
0
0
0
0
0
0
0
0
0
0
0
0
0
0
0
0
0
0
0
0
0
0
-0
0
-0
0
-0
0
-0
0
-0
0
-0
0
0
0
0
0
0
0
0
0
0
0
0
0
0
0
0
0
0
0
0
0
0
0
0
0
0
0
0
0
0
0
0
0
0
0
0
0
0
0
0
0
0
0
0
0
0
-0
0
-0
0
-0
0
-0
0
-0
0
-0
0
0
0
0
0
0
0
0
0
0
0
0
0
0
0
0
0
0
0
0
0
0
0
0
0
0
0
0
0
0
0
0
0
0
0
0
0
0
0
0
0
0
0
0
0
0
-0
0
-0
0
-0
0
-0
0
-0
0
-0
0
0
0
0
0
0
0
0
0
0
0
0
0
0
0
0
0
0
0
0
0
0
0
0
0
0
0
0
0
0
0
0
0
0
0
0
0
0
0
0
0
0
0
0
0
0
-0
0
-0
0
-0
0
-0
0
-0
0
-0
0
0
0
0
0
0
0
0
0
0
0
0
0
0
0
0
0
0
0
0
0
0
0
0
0
0
0
0
0
0
0
0
0
0
0
0
0
0
0
0
0
0
0
0
0
0
-0
0
-0
0
-0
0
-0
0
-0
0
-0
0
0
0
0
0
0
0
0
0
0
0
0
0
0
0
0
0
0
0
0
0
0
0
0
0
0
0
0
0
0
0
0
0
0
0
0
0
0
0
0
0
0
0
0
0
0
-0
0
-0
0
-0
0
-0
0
-0
0
-0
0
0
0
0
0
0
0
0
0
0
0
0
0
0
0
0
0
0
0
0
0
0
0
0
0
0
0
0
0
0
0
0
0
0
0
0
0
0
0
0
0
0
0
0
0
0
-0
0
-0
0
-0
0
-0
0
-0
0
-0
0
0
0
0
0
0
0
0
0
0
0
0
0
0
0
0
0
0
0
0
0
0
0
0
0
0
0
0
0
0
0
0
0
0
0
0
0
0
0
0
0
0
0
0
0
0
-0
0
-0
0
-0
0
-0
0
-0
0
-0
0
0
0
0
0
0
0
0
0
0
0
0
0
0
0
0
0
0
0
0
0
0
0
0
0
0
0
0
0
0
0
0
0
0
0
0
0
0
0
0
0
0
0
0
0
0
-0
0
-0
0
-0
0
-0
0
-0
0
-0
0
0
0
0
0
0
0
0
0
0
0
0
0
0
0
0
0
0
0
0
0
0
0
0
0
0
0
0
0
0
0
0
0
0
0
0
0
0
0
0
0
0
0
0
0
0
-0
0
-0
0
-0
0
-0
0
-0
0
-0
0
0
0
0
0
0
0
0
0
0
0
0
0
0
0
0
0
0
0
0
0
0
0
0
0
0
0
0
0
0
0
0
0
0
0
0
0
0
0
0
0
0
0
0
0
0
-0
-0
-0
-0
-0
-0
0
0
0
0
0
0
0
0
0
0
0
0
0
0
0
0
0
0
0
0
0
0
-0.01627096363
0.01399502681
-0.0001443413645
-0.001042345722
8.858123828e-05
9.56990874e-05
-4.40461096e-05
9.296453328e-05
0.0006349944634
-2.167988465e-05
-0.0004621956583
3.063199008e-05
1.218339778e-05
-2.031889399e-05
-4.944669907e-05
0.0003032256373
-0.0002049971289
-8.503553201e-06
1.351801848e-05
4.841592655e-06
-2.022551005e-06
-9.226589127e-06
2.949251159e-06
6.402833852e-07
-1.913008874e-06
-1.012092681e-07
1.834333365e-06
-1.753864786e-08
-9.85420489e-07
-0.0002821895398
0.002664997815
-5.255619106e-05
-0.002356030452
4.143046262e-05
-2.676340039e-05
-0.0001566312795
0.0002129681221
1.520399196e-05
-5.989157079e-06
0.0001234221696
-8.866942183e-05
1.481146623e-09
2.858884496e-10
-1.161803002e-09
-0.0005977776471
3.531877555e-05
0.001563013951
-0.001043541255
-3.409120961e-05
7.897907894e-05
-1.699520022e-05
-3.566601084e-05
2.746235877e-05
9.348530765e-06
-3.639277421e-06
-1.831222424e-05
4.298266602e-05
2.722354551e-10
6.789261004e-10
-3.452940824e-10
-0.0004198983401
0.0005550538888
-0.0001324730662
-3.335190243e-06
1.39884613e-05
3.094388705e-06
-1.753718814e-06
-8.613253507e-06
6.556726071e-06
8.850762041e-07
-3.295845041e-07
-3.901943749e-06
-9.594969054e-11
1.505891991e-10
4.884115418e-11
4.860412935e-06
2.549209103e-06
-2.931546251e-07
3.953052984e-06
-3.926001847e-07
1.281596329e-07
-4.242607462e-08
6.719774917e-08
-8.287477445e-10
9.923886089e-09
8.873401135e-09
-5.709182894e-11
-4.988308346e-10
2.023932047e-09
-4.400025727e-10
-1.349150289e-10
-0.001229758142
0.0005493006558
-2.834137705e-05
0.0004583460408
-0.0007318110578
0.004806303358
-0.004504234874
-0.0002809852366
-4.185513283e-05
-0.001806004526
-2.467873299e-05
1.057270575e-05
9.011159957e-06
3.252119875e-07
-1.026233077e-05
5.1228545e-05
-0.0001064933581
-1.218044077e-07
-3.945357693e-05
-1.948004896e-05
1.37037468e-05
-6.196766897e-06
1.05740297e-05
5.302134773e-06
1.672997279e-05
-2.316960705e-05
7.200799677e-06
-2.213381738e-05
-1.952627673e-05
1.651776536e-05
-1.365363149e-05
1.595052558e-05
8.511745016e-06
1.995247746e-05
-2.185521914e-05
9.474987742e-06
-2.079976254e-05
-1.807901526e-05
1.665632871e-05
-1.787734069e-05
1.952574038e-05
1.02830694e-05
1.889818356e-05
-1.971033095e-05
1.087950073e-05
-1.843127001e-05
-1.622824938e-05
1.595040055e-05
-2.091807234e-05
2.214210495e-05
1.125449626e-05
1.713544821e-05
-1.707160945e-05
1.150911809e-05
-1.587121487e-05
-1.526089471e-05
1.542009726e-05
-2.335900223e-05
2.479292256e-05
1.180062693e-05
1.553867876e-05
-1.504275202e-05
1.233369472e-05
-1.483258317e-05
-1.813379933e-05
1.660835047e-05
-2.678210072e-05
3.059621471e-05
1.342184368e-05
1.565923697e-05
-1.55952875e-05
1.658441454e-05
-1.971668129e-05
-0.0001339659517
9.624222354e-05
-4.520198098e-05
0.0001037145738
3.40841232e-05
3.206139216e-05
-4.588634665e-05
0.0001594421547
-0.0002456999959
-0.0148749167
-0.0007678444647
0.01263714497
0.001722628214
0.002013184524
-0.003178047902
-0.01104921101
-0.0002287604793
-0.002797516072
0.001373507186
-0.0001257638424
-0.003388605576
7.901357134e-05
0.002941248806
0.0004414310851
-0.005446919538
-0.0003822460647
-0.006071794903
-0.002902427957
0.006338067861
-0.0006176369245
0.004745961842
-0.008504311684
0.001167637453
-3.418783881e-05
-0.003745252487
-0.000756697707
-0.000650904168
-0.002148846561
-7.441755101e-05
-0.001247952155
0.0008265749775
-9.751357033e-05
-0.001020472191
0.004803129098
-0.0022912009
-7.928150792e-05
0.000848625001
-0.002962535552
-0.0008790496084
0.0004454036519
0.001061131053
-0.0003150708376
-0.002820092297
-5.388337936e-05
0.002592617014
-0.002269543123
-0.0008089342003
-0.001541856211
0.0009934654913
-0.0006418088583
0.001788728161
0.001188609273
-0.0004192860341
0.0005611071348
-0.000959768242
-3.876254391e-05
-7.899758465e-06
0.000563012695
-0.002364938724
-0.0002070319843
0.0001172773859
0.0006093093485
-0.0002863604807
-0.001879606574
-2.286900244e-05
0.001733103895
-0.00167152436
-1.759008033e-05
-0.0004420137314
0.0003214866393
-0.0002751995876
0.0007088396506
0.0002782605739
-0.0001364323123
0.000141559118
-8.199201658e-06
-1.834931046e-06
1.772029672e-05
0.001209783347
-0.0008956516587
-6.891865621e-06
-2.991510008e-07
0.0005930601464
-0.0003396027877
-3.398066566e-06
1.93345334e-07
0.0001473782941
-3.570467286e-05
-1.215121292e-06
2.597758709e-05
-2.738226503e-06
-2.947811753e-07
2.288575959e-06
0.0001140088537
-0.0002032945457
3.006141361e-06
3.376330353e-08
5.216697814e-06
1.744288691e-06
-8.657403439e-08
6.96636059e-09
3.577861496e-06
0.0001393898959
-7.89739189e-05
-2.802757561e-06
-2.69592645e-07
-5.4850882e-06
4.443091399e-09
-2.45681257e-07
8.433780715e-09
1.276081333e-06
4.207773875e-05
1.109115103e-06
-1.300645767e-07
-2.126746149e-06
3.298104946e-08
-1.226848145e-07
3.758621304e-10
2.367984753e-07
-9.769112276e-06
2.243534489e-05
5.656186327e-10
4.876727645e-08
-6.013834754e-29
-8.710834035e-20
3.112818237e-19
1.891023793e-18
5.054242482e-19
3.697604066e-31
9.199075047e-08
-3.846526769e-07
1.155087982e-09
5.623905898e-07
-3.739901309e-05
5.348538772e-05
2.405977338e-09
1.786030081e-07
7.895221481e-31
-1.009794443e-18
1.594771783e-18
-3.65194468e-18
2.367020726e-17
1.219139523e-30
3.29100249e-07
-7.682675912e-07
5.108849962e-09
1.012871224e-06
-7.018363719e-05
8.713320732e-05
1.256659805e-08
7.583842311e-07
5.051452548e-31
-7.330928378e-18
2.495806858e-17
-2.637885575e-16
7.132723908e-14
-2.191201321e-25
2.35963058e-06
-1.509332868e-06
5.634596528e-08
2.446787212e-06
-0.0001038706678
0.0001198893522
1.235054349e-07
4.907256e-06
-2.093377168e-22
-5.347336808e-14
1.533049728e-11
-5.046672658e-11
2.739194845e-09
1.603254508e-21
8.359141477e-06
-3.335148425e-06
1.863225595e-07
3.991698286e-06
-0.0001353216582
0.0001505658655
2.530314477e-07
1.25329968e-05
6.480838354e-19
-2.741433124e-10
1.584937212e-09
-2.933982538e-08
1.572664627e-07
1.734309652e-05
-4.509873977e-06
3.330743283e-07
4.788908738e-06
-0.0001659405685
0.0001823145341
4.244018101e-07
2.267393228e-05
-4.929648947e-07
2.798674841e-05
-4.256911641e-06
4.115725523e-06
-0.0001958324484
0.0002553347986
3.054967838e-07
3.335480685e-05
2.335345093e-07
-0.0006270381958
0.0002306242316
-0.0001835663794
0.0008045351157
-0.0001614010864
0.003566863358
-0.002931239567
-0.0001294384005
-0.0004843916787
-0.0005301875036
0.0001273979818
-7.514291076e-05
0.0006929694401
-9.049852687e-05
0.0006376084229
-0.0004813420476
-5.385381883e-05
-0.0003974125324
-0.0001962692619
2.973039604e-05
0.000253870602
-2.154829025e-05
0.0003884179454
-0.0002907451343
-4.821410021e-10
-0.00014864421
-2.32531456e-09
-6.297037892e-05
1.966711676e-05
-1.132106246e-06
-5.472256473e-05
0.0002558740675
-0.0005752109806
-5.252164083e-06
-0.0001137787683
-2.393866869e-05
-6.738081168e-06
8.345499566e-06
6.109358962e-06
3.151500886e-05
-4.134893339e-05
8.660464832e-06
-2.539956603e-05
-2.179718814e-05
-9.967402092e-06
1.108669933e-05
1.112225124e-05
2.360936108e-05
-2.509164835e-05
1.235279875e-05
-2.193426592e-05
-1.851093218e-05
-1.202349684e-05
1.266714574e-05
1.335996694e-05
2.026485816e-05
-2.011044344e-05
1.391448472e-05
-1.792999815e-05
-1.529775088e-05
-1.30407767e-05
1.333359856e-05
1.412308166e-05
1.673765908e-05
-1.582755515e-05
1.432579844e-05
-1.430823639e-05
-1.448332675e-05
-1.377799222e-05
1.471020795e-05
1.484210646e-05
1.441877057e-05
-1.35515001e-05
1.629227897e-05
-1.432587305e-05
-2.357239363e-05
-1.666556095e-05
2.313106844e-05
1.96086691e-05
1.600144449e-05
-1.734997614e-05
3.437777635e-05
-3.356244107e-05
-0.0004474688514
-6.719338496e-05
0.0003373557889
0.0001323518554
7.952975554e-05
-0.0001451773462
-0.000725503565
8.97430512e-05
-8.337100351e-05
-0.000367682529
5.988020287e-05
-3.610511244e-05
-0.0002985247433
-0.0001127999743
1.456256791e-05
-4.10986784e-10
0.001030165438
0.00194433806
-0.0001577645416
-6.107362508e-10
-6.499886165e-05
1.80724299e-05
2.039903425e-09
-0.0002259398203
0.0001758424264
-2.489028827e-05
-0.0004659613174
0.0008698585286
-0.001284553584
-9.62514402e-05
-3.081581298e-05
7.435531637e-07
7.965504053e-06
-1.368317295e-05
5.719948079e-05
-0.0001041835281
3.239625241e-06
-3.831348448e-05
-2.047751672e-05
-1.20690212e-05
1.328715112e-05
1.185848224e-05
2.625294361e-05
-2.828153785e-05
1.312551978e-05
-1.689183043e-05
-1.639540252e-05
-1.44850453e-05
1.496063181e-05
1.506350716e-05
1.892413821e-05
-1.686213494e-05
1.554575516e-05
-1.373538344e-05
-1.287162167e-05
-1.502809613e-05
1.526355631e-05
1.55933067e-05
1.416118158e-05
-1.166029602e-05
1.615624321e-05
-1.107687212e-05
-1.492336195e-05
-1.604239779e-05
1.878442689e-05
1.750493724e-05
1.247648008e-05
-1.122356645e-05
2.364325541e-05
-1.765495509e-05
-5.896782493e-05
-2.570329707e-05
6.186322553e-05
4.191476505e-05
2.150719381e-05
-3.487100622e-05
0.0001237644152
-0.0001138327583
-0.0008509561491
-0.0002331099315
0.0007402126895
0.0003958627865
0.0002392436187
-0.0003732580751
-0.0001833780426
0.000239750164
-6.192236687e-05
-5.073064545e-05
-9.700643546e-05
-0.0001229961649
0.0001700123635
-3.275045971e-05
-6.03027985e-05
-1.863398166e-05
-4.699003056e-05
-5.98343798e-05
6.9145171e-05
-1.358160827e-05
-0.0002497955634
0.0002343044403
-0.0005287879386
-8.097820891e-05
-1.349390912e-05
-5.364020022e-06
9.886058426e-06
-1.174173455e-05
3.00588297e-05
-4.771710666e-05
1.513745014e-06
-1.198164739e-05
-1.000405844e-05
-1.39920405e-05
1.463291273e-05
8.453633604e-06
1.48652055e-05
-1.144320948e-05
1.017205274e-05
-5.95946752e-06
-9.278778282e-06
-1.496806682e-05
1.648007577e-05
1.161858701e-05
8.535005156e-06
-5.519510485e-06
1.52070835e-05
-8.000032598e-06
-2.556817617e-05
-1.870683254e-05
3.45649116e-05
1.894468387e-05
9.596347592e-06
-7.334020901e-06
6.030895959e-05
-4.028283536e-05
-0.0002091893982
-8.273320337e-05
0.0002396173022
0.000167998792
6.881251896e-05
-0.0001225601217
-1.659883405e-05
-1.355509344e-05
4.593624176e-05
-1.78165401e-05
-2.620845155e-05
-7.996658653e-06
-4.210042404e-06
-9.72633191e-06
2.318078206e-05
-1.002250942e-05
-1.603529712e-06
-1.195940752e-05
5.160696752e-05
-1.917269916e-05
-9.81192096e-05
0.0001653015109
-0.00140553051
-2.994756877e-05
-2.837531995e-06
2.684446163e-06
3.036116511e-06
-1.171712903e-05
4.37000819e-06
4.627077942e-07
-2.357251939e-06
-5.700791026e-06
-6.436221998e-06
1.259575127e-05
2.704217284e-06
2.506320206e-06
8.878508008e-08
8.898965209e-06
-4.671664557e-05
-1.85604277e-05
0.0001022585461
1.284957517e-05
4.535804491e-06
3.988624589e-07
6.486491491e-06
1.004650986e-05
-3.846506822e-06
-3.357179205e-06
0.003426369373
0.0001109147661
-0.02080930881
-0.005454755301
0.00386541881
-0.001044503812
-0.005718225731
-0.001338156932
0.005334941924
-0.004462906278
9.315975269e-05
0.0008126646973
-0.0005157048393
-0.001019106908
-0.0009020949916
0.003123785922
-0.001687856785
-3.859314689e-07
0.000288259239
-0.0001087341291
-0.0006362521638
-1.597185393e-09
0.000694153884
4.839398695e-05
7.094929044e-10
-2.297746448e-09
1.776880318e-05
3.02128144e-05
-1.525961125e-05
1.539182382e-06
9.273711383e-06
1.57411827e-05
1.674883385e-05
1.635039045e-05
1.559445771e-05
1.557961626e-05
2.085375798e-05
0.001668568053
-1.046002015e-06
-0.008651599208
-5.356049698e-06
3.196127116e-09
-6.759381038e-05
0.004338247132
0.0008272511222
0.0005084727784
0.0007507733591
-0.0003629731048
0.0001158444363
-7.70948436e-05
-0.000218340099
4.517389136e-05
-1.265149048e-05
-1.098538719e-05
-0.0001316562143
0.0001926633148
-3.886865901e-06
-5.859493649e-05
-5.112368255e-06
4.461431315e-06
-3.055680496e-06
1.913944643e-06
-7.137801501e-07
-5.237457134e-07
8.038648729e-07
1.979759899e-07
-2.155963234e-08
2.360179744e-07
-1.988563653e-07
-2.359664099e-08
2.856392081e-07
-1.711058674e-07
-8.26758445e-09
-5.620884284e-06
-1.697040722e-05
2.593508011e-05
-9.448632476e-06
-1.188675797e-06
1.176137249e-06
1.280354483e-06
-4.74418423e-07
-4.112727567e-07
6.732091154e-08
4.40224979e-08
-1.782920118e-08
-2.847434712e-09
-1.759737912e-05
-6.69184927e-07
-5.373673008e-05
-1.256708856e-06
-2.887851332e-05
2.562758115e-06
7.519937626e-07
-3.715562175e-07
-1.334945591e-06
9.842275439e-07
1.656312736e-07
-5.682999645e-08
-4.791915462e-07
-3.02156049e-11
6.244283456e-11
1.680771795e-11
-1.471086398e-11
-4.896360186e-06
1.486399621e-05
-5.06927896e-07
-7.412182091e-06
5.987200317e-07
2.552633125e-07
-1.124430322e-07
-2.34251763e-07
1.968571586e-07
4.51439226e-08
-1.418359595e-08
-6.851964115e-08
5.005793314e-12
6.57460318e-12
-5.629734098e-13
-2.142346424e-06
3.566304499e-06
-1.148921777e-07
-1.645526873e-06
8.207863904e-08
5.208680123e-08
-1.964760983e-08
-2.476427969e-08
2.075384067e-08
6.612265637e-09
-1.766832658e-09
-5.224971833e-09
-5.450338817e-13
4.47664808e-12
3.885896291e-12
-7.202435846e-07
7.05348553e-07
-1.746848003e-08
-2.108824244e-07
5.667449918e-09
7.065704726e-09
-2.180120919e-09
-4.671652858e-10
9.458234381e-10
5.630572375e-10
-1.408393996e-10
-4.375654807e-11
-1.217874325e-11
1.479418058e-10
1.534263721e-10
-0.001476893095
-1.584363006e-06
-0.0009965213608
-0.001434141153
-0.001156387495
-0.000307853631
-0.0002417640036
-0.001201007181
4.661879206e-05
-0.0008634356261
-0.0008184338853
-0.000546393975
-0.000162059139
-9.315549517e-05
-0.0004384705568
5.102457325e-06
-0.0003145753395
-0.0003620864408
-0.0002616930733
-3.615937907e-05
-4.518238964e-10
2.768409928e-05
-0.003499289387
-0.000168459551
-0.004055691061
-5.816977251e-05
-2.968783315e-05
-1.722703929e-05
-4.045370615e-05
-2.703248501e-05
-1.42714317e-05
-7.891322679e-06
-1.814174251e-05
-3.335560295e-06
-1.104901973e-06
-6.857634423e-06
-2.072127634e-07
1.100246428e-08
-7.981194041e-07
-1.215074352e-05
1.245420846e-05
-6.075470782e-06
-6.69946007e-06
4.593469152e-06
2.391072026e-06
-7.208383332e-07
-2.082698103e-06
-1.009747253e-07
-4.776018396e-07
2.549761915e-08
-1.663351574e-07
-7.366360525e-06
-4.081023606e-10
-2.558265622e-06
-2.105123455e-06
-2.403675468e-06
4.738751753e-06
-8.200516991e-07
-8.738136164e-07
1.393573616e-06
-5.602767116e-07
-8.430360513e-09
1.045664345e-07
4.620506457e-09
3.265997048e-08
-9.265865773e-09
-5.532880703e-08
-1.039109802e-08
-1.642427781e-08
-1.017921582e-07
-1.621558621e-10
-3.62623478e-06
-5.873849274e-06
-2.053908408e-06
-9.942715088e-07
-1.590782206e-06
-2.163258026e-06
-3.598705752e-07
-5.444994552e-07
1.183818839e-07
-1.990556238e-09
-2.573059472e-07
-1.163736768e-07
2.430526884e-07
2.752826403e-08
-2.515250662e-10
-1.355530483e-07
-1.822115171e-07
5.37232604e-07
-3.882795585e-08
-5.532623831e-08
1.998591326e-07
-9.095962286e-09
-4.739681044e-10
3.812526407e-10
2.034921335e-09
-9.851737333e-10
-3.998453316e-09
-1.893142403e-09
-1.785765659e-06
-8.696877962e-07
-4.704649013e-07
-8.441359853e-07
-7.999302813e-07
-2.211233057e-07
-9.442228266e-08
-3.425069779e-07
-2.634743459e-07
-3.126230616e-08
-1.198176026e-11
-1.071525545e-07
-3.540893579e-07
-2.499341066e-07
-1.198395262e-07
-1.324279849e-07
-1.261970712e-07
-4.907455459e-08
-1.819114926e-08
-4.11944858e-08
-3.653983006e-08
-5.319484736e-09
-2.082608528e-12
-1.072176669e-08
-4.256777448e-08
-4.827580205e-08
-2.072300528e-08
-1.054526277e-08
-1.143505474e-08
-7.127743223e-09
-2.13258446e-09
-2.357068213e-09
-2.633225747e-09
-5.182783045e-10
-9.081573378e-12
-5.43180258e-10
-1.035418517e-09
-6.607230279e-09
-2.364281418e-09
-1.634375034e-10
-6.000363783e-10
-1.020382384e-10
-2.064656064e-12
-1.857305435e-12
2.279614207e-12
1.982771878e-12
)
;

boundaryField
{
    walls
    {
        type            calculated;
        value           uniform 0;
    }
    wallFilmFace_top
    {
        type            calculated;
        value           uniform 0;
    }
    region0_to_wallFilmRegion_wallFilmFace
    {
        type            calculated;
        value           uniform 0;
    }
    mirrorFace_top
    {
        type            calculated;
        value           uniform 0;
    }
    region0_to_wallFilmRegion_mirrorFace
    {
        type            calculated;
        value           uniform 0;
    }
    procBoundary2to0
    {
        type            processor;
        value           uniform 0;
    }
    procBoundary2to1
    {
        type            processor;
        value           uniform 0;
    }
    procBoundary2to3
    {
        type            processor;
        value           nonuniform List<scalar> 
64
(
-4.703281951e-05
-5.331306345e-06
4.802356614e-06
4.201044955e-06
4.237637257e-07
-3.977564186e-19
-1.249325173e-20
-6.531978094e-24
3.604680391e-09
-2.299914591e-05
5.563829566e-09
-1.131355828e-07
2.928607873e-09
-5.062720695e-19
1.738898375e-30
5.282505336e-30
6.312295461e-30
1.782680276e-29
7.835456029e-30
3.89493913e-27
8.333744659e-23
6.199993073e-21
9.45777455e-19
4.466989863e-17
6.879827158e-09
1.56354519e-08
8.417415208e-07
4.776520452e-07
1.28699438e-08
-8.353921542e-07
-5.052743479e-10
-1.064853767e-16
2.502559021e-09
-3.226950795e-17
-2.207726928e-17
-0.0005287648875
-9.448631262e-12
8.260752123e-06
-4.918353234e-12
-2.487867789e-09
8.021953497e-08
-5.803562102e-24
-6.688656154e-27
-5.860505414e-28
-1.16455081e-24
-2.082216078e-11
-0.0001941852014
-1.077501676e-15
-0.003939825822
-7.864430563e-06
1.06394123e-05
1.476757422e-06
9.238177263e-07
4.06167089e-07
-3.166574797e-19
8.965643248e-08
3.571357343e-08
-4.458610324e-22
1.406050273e-08
2.990792371e-09
-2.613529781e-27
-6.612246087e-31
-2.692657169e-24
3.990730114e-10
)
;
    }
}


// ************************************************************************* //
