/*--------------------------------*- C++ -*----------------------------------*\
  =========                 |
  \\      /  F ield         | OpenFOAM: The Open Source CFD Toolbox
   \\    /   O peration     | Website:  https://openfoam.org
    \\  /    A nd           | Version:  8
     \\/     M anipulation  |
\*---------------------------------------------------------------------------*/
FoamFile
{
    version     2.0;
    format      ascii;
    class       volScalarField;
    location    "0.2/wallFilmRegion";
    object      T;
}
// * * * * * * * * * * * * * * * * * * * * * * * * * * * * * * * * * * * * * //

dimensions      [0 0 0 1 0 0 0];

internalField   nonuniform List<scalar> 
1342
(
300
300
300
300
300
300
300
300
300
300
300
300
300
300
300
300
300
300
300
300
300
300
300
300
300
300
300
300
300
300
300
300
300
300
300
300
300
300
300
300
300
300
300
300
300
300
300
300
300
300
300
300
300
300
300
300
300
300
300
300
300
300
300
300
300
300
300
300
300
300
300
300
300
300
300
300
300
300
300
300
300
300
300
300
300
300
300
300
300
300
300
300
300
300
300
300
300
300
300
300
300
300
300
300
300
300
300
300
300
300
300
300
300
300
300
300
300
300
300
300
300
300
300
300
300
300
300
300
300
300
300
300
300
300
300
300
300
300
300
300
300
300
300
300
300
300
300
300
300
300
300
300
300
300
300
300
300
300
300
300
300
300
300
300
300
300
300
300
300
300
300
300
300
300
300
300
300
300
300
300
300
300
300
300
300
300
300
300
300
300
300
300
300
300
300
300
300
300
300
300
300
300
300
300
300
300
300
300
300
300
300
300
300
300
300
300
300
300
300
300
300
300
300
300
300
300
300
300
300
300
300
300
300
300
300
300
300
300
300
300
300
300
300
300
300
300
300
300
300
300
300
300
300
300
300
300
300
300
300
300
300
300
300
300
300
300
300
300
300
300
300
300
300
300
300
300
300
300
300
300
300
300
300
300
300
300
300
300
300
300
300
300
300
300
300
300
300
300
300
300
300
300
300
300
300
300
300
300
300
300
300
300
300
300
300
300
300
300
300
300
300
300
300
300
300
300
300
300
300
300
300
300
300
300
300
300
300
300
300
300
300
300
300
300
300
300
300
300
300
300
300
300
300
300
300
300
300
300
300
300
300
300
300
300
300
300
300
300
300
300
300
300
300
300
300
300
300
300
300
300
300
300
300
300
300
300
300
300
300
300
300
300
300
300
300
300
300
300
300
300
300
300
300
300
300
300
300
300
300
300
300
300
300
300
300
300
300
300
300
300
300
300
300
300
300
300
300
300
300
300
300
300
300
300
300
300
300
300
300
300
300
300
300
300
300
300
300
300
300
300
300
300
300
300
300
300
300
300
300
300
300
300
300
300
300
300
300
300
300
300
300
300
300
300
300
300
300
300
300
300
300
300
300
300
300
300
300
300
300
300
300
300
300
300
300
300
300
300
300
300
300
300
300
300
300
300
300
300
300
300
300
300
300
300
300
300
300
300
300
300
300
300
300
300
300
300
300
300
300
300
300
300
300
300
300
300
300
300
300
300
300
300
300
300
300
300
300
300
300
300
300
300
300
300
300
300
300
300
300
300
300
300
300
300
300
300
300
300
300
300
300
300
300
300
300
300
300
300
300
300
300
300
300
300
300
300
300
300
300
300
300
300
300
300
300
300
300
300
300
300
300
300
300
300
300
300
300
300
300
300
300
300
300
300
300
300
300
300
300
300
300
300
300
300
300
300
300
300
300
300
300
300
300
300
300
300
300
300
300
300
300
300
300
300
300
300
300
300
300
300
300
300
300
300
300
300
300
300
300
300
300
300
300
300
300
300
300
300
300
300
300
300
300
300
300
300
300
300
300
300
300
300
300
300
300
300
300
300
300
300
300
300
300
300
300
300
300
300
300
300
300
300
300
300
300
300
300
300
300
300
300
300
300
300
300
300
300
300
300
300
300
300
300
300
300
300
300
300
300
300
300
300
300
300
300
300
300
300
300
300
300
300
300
300
300
300
300
300
300
300
300
300
300
300
300
300
300
300
300
300
300
300
300
300
300
300
300
300
300
300
300
300
300
300
300
300
300
300
300
300
300
300
300
300
300
300
300
300
300
300
300
300
300
300
300
300
300
300
300
300
300
300
300
300
300
300
300
300
300
300
300
300
300
300
300
300
300
300
300
300
300
300
300
300
300
300
300
300
300
300
300
300
300
300
300
300
300
300
300
300
300
300
300
300
300
300
300
300
300
300
300
300
300
300
300
300
300
300
300
300
300
300
299.9999979
299.9999994
299.9999996
299.9999978
299.9999993
299.9999941
299.9999774
299.9999751
299.9999509
299.9999732
299.9999813
299.9990873
299.9999543
299.9999782
299.9999838
299.9989233
299.9999619
299.9999793
299.9999749
299.9988658
299.9999863
299.9996133
299.9989739
299.998765
299.9999517
299.999948
299.9999486
299.9999768
299.9999648
299.9999699
299.9999847
299.9999757
299.9999806
299.9999878
299.9999821
299.9999846
299.999991
299.9999874
299.9999899
299.999993
299.9999918
299.9999931
299.999994
299.999994
299.9999946
299.9999948
299.9999951
299.9999959
299.9999981
299.9999976
299.9999991
299.9999981
299.9999996
299.9999994
299.9999477
299.999947
299.9999473
299.9999996
299.9999996
299.9999996
299.9999472
299.9999471
299.9999996
299.9999997
299.999946
299.9999485
299.9999464
299.9999477
299.9999996
299.9999996
299.9999996
299.9999492
299.9999567
299.9999564
299.9999607
299.9999995
299.9999992
299.9999993
299.9999762
299.9999864
299.9999948
299.9999969
299.9999945
299.999984
299.9999988
299.9999948
299.9999951
299.9999951
299.9999947
299.9999953
299.9999953
300.0000004
299.9999871
299.9999988
300.0000984
300.000212
300
299.9999978
299.9999879
299.9999972
300
300.0001592
300
299.9999972
299.9999886
299.9999972
300
300.0000758
300
299.9999958
299.9999893
299.9999941
300.0002472
300.0000039
300.0002566
299.9999935
299.9999902
299.9999934
300.0002357
300.0000011
300.0001796
299.9999938
299.9999914
299.9999944
300.0000007
299.9999953
299.9999951
299.9999964
300.0000011
299.9999574
299.9999451
299.9999602
299.9999676
299.9999647
299.9999699
299.9999772
299.9999748
299.9999792
299.9996592
299.9999652
299.9999547
299.9999606
299.9999776
299.9999677
299.9999743
299.9999819
299.9999748
299.999979
299.9999889
299.9999839
299.9999878
299.999993
299.9999907
299.9999927
299.9999948
299.9999941
299.9999951
299.9999966
299.999996
299.9999974
299.9999993
299.9999989
299.9999995
299.9999628
299.9999721
299.9999809
299.9999496
299.9999822
299.9992753
299.9999558
299.999948
299.9999513
299.9999709
299.9999586
299.9999665
299.9999764
299.9999665
299.999975
299.9999868
299.9999819
299.9999862
299.9999923
299.9999894
299.999992
299.9999955
299.999994
299.999996
299.9999983
299.9999976
299.9999989
299.9999995
299.9999994
299.9999996
299.9999693
299.9999516
299.9999711
299.9999774
299.9999747
299.9999787
299.9999845
299.9999615
299.9999515
299.9999572
299.999976
299.999962
299.9999763
299.9999858
299.9999827
299.9999846
299.9999915
299.9999873
299.9999909
299.9999969
299.9999937
299.9999979
299.9999993
299.9999991
299.9999995
299.9999569
299.9999786
299.9999813
299.9999805
299.9999821
299.9999851
299.9999829
299.9999716
299.9999668
299.9999647
299.9999793
299.9999652
299.9999682
299.9999894
299.9999735
299.9999853
299.9999985
299.9999894
299.9999985
299.9999772
299.9999831
299.9999919
299.9999767
299.9999651
299.999955
299.9999712
299.9999654
299.9999978
300.0000615
299.9999737
299.9999905
299.9999946
299.9999948
299.9999812
299.9999861
300.0001596
299.9999862
299.9999876
300.0001924
299.9999895
299.9999882
300.0001281
299.9999922
299.9999889
300.0000161
299.9999936
299.9999897
300.0000018
299.9999943
299.9999907
300.0000007
299.9999961
299.9999922
299.9999992
299.9999975
300.0000045
299.999947
299.9999421
299.9999622
299.9999726
299.9999593
299.9999717
299.9999788
299.9999857
299.9999913
299.9999941
299.9999955
299.9999983
299.9999996
299.9999478
299.9999479
299.9999671
299.9999691
299.9999768
299.9999783
299.9994616
299.999951
299.9999634
299.9999705
299.9999824
299.99999
299.999994
299.9999967
299.9999992
299.9999997
299.9999463
299.9999539
299.9999636
299.9999826
299.9999887
299.9999939
299.9999986
299.9999996
299.9999997
299.9999987
299.9999983
299.9999803
299.9999135
299.9998729
299.9998298
299.9999525
299.9999623
299.999978
299.9999836
299.9999926
299.9999993
299.9999995
299.9999937
299.9999378
299.9994617
299.9999719
299.9999766
299.9999826
299.9999528
299.9999084
299.9989305
299.9988813
299.9999815
299.9999826
299.9998718
299.9997327
299.998958
299.9999909
299.9999721
299.9995517
299.9992006
299.9987498
299.9999974
299.9999497
299.998919
299.9987501
299.9987982
299.9999676
299.9999495
299.999994
299.9999943
299.9999375
299.999955
299.9999665
299.9999603
299.9999933
299.999994
299.9999598
299.9999653
299.9999805
299.9999703
299.9999953
299.9999961
299.9999705
299.9999752
299.9999967
299.9999604
299.9999978
299.9999974
299.9999971
299.9999996
299.9999997
299.999999
299.9999971
299.9999986
299.9999985
299.9999995
299.9999975
299.9999963
299.9999935
299.999987
299.9999674
299.9999903
299.9999651
299.9999739
299.9999991
299.9999941
299.9999961
299.9999829
299.9999891
299.999991
299.9999637
299.9999364
299.9998923
299.9999503
299.9999822
299.9999849
299.9989897
299.9999753
299.9999965
299.9999826
299.999963
299.9999713
299.9999427
299.9997276
299.9992424
299.9997392
299.9994438
299.9999879
299.999961
299.9997192
299.9996
299.9999815
299.9988888
299.9999795
299.9999779
299.9999758
299.9999722
299.9999674
299.9999662
299.999954
299.9997593
299.9999885
299.9998183
299.9993336
299.9998652
299.9996975
299.9997337
299.9994451
299.9990591
299.9985963
299.9990605
299.9987519
299.9999204
299.9998749
299.9988529
299.9999623
299.9999832
299.9999444
299.9999344
299.9999268
299.9998942
299.9998681
299.9998501
299.9997886
299.998945
299.9999065
299.9999794
299.9998277
299.9998103
299.9997583
299.9996433
299.9996403
299.9995149
299.999396
299.9988776
299.9996774
299.9999604
299.9994268
299.9993675
299.9992471
299.9990348
299.9990927
299.9988979
299.998852
299.998702
299.9991005
299.9999496
299.9988331
299.9987739
299.9986815
299.9986037
299.9988068
299.9986348
299.9987124
299.9986402
299.9987628
)
;

boundaryField
{
    walls
    {
        type            zeroGradient;
    }
    wallFilmFace_top
    {
        type            zeroGradient;
    }
    region0_to_wallFilmRegion_wallFilmFace
    {
        type            zeroGradient;
    }
    mirrorFace_top
    {
        type            zeroGradient;
    }
    region0_to_wallFilmRegion_mirrorFace
    {
        type            zeroGradient;
    }
    procBoundary2to0
    {
        type            processor;
        value           nonuniform List<scalar> 
26
(
300
300
300
300
300
300
300
300
300
300
300
300
300
300
300
300
300
300
300
300
300
300
300
300
300
300
)
;
    }
    procBoundary2to1
    {
        type            processor;
        value           nonuniform List<scalar> 
33
(
300
300
300
300
300
300
300
300
300
300
300
300
300
300
300
300
300
300
300
300
300
300
300
300
300
300
300
300
300
300
300
300
300
)
;
    }
    procBoundary2to3
    {
        type            processor;
        value           nonuniform List<scalar> 
64
(
299.9999993
299.9999962
299.999993
299.9999968
299.9999848
299.999164
299.9989574
299.9988658
299.9989074
299.9999947
300.0001179
299.9999946
300.0001601
300.0001179
300
300
300
300
300
300
300
300
300
300.0000987
300.0000987
300.0000607
300.0000008
300.0000008
300.0000795
300.0000008
299.9998305
299.9997386
299.9998305
299.9995423
299.9993439
299.9999979
300.0000795
299.9999947
300.0000195
299.9998305
299.9998947
299.9989081
299.9988999
299.9990058
299.9989804
299.99866
299.9999969
299.9999874
299.9999969
299.9999977
299.9999962
299.9999865
299.9999938
299.99997
299.9990501
299.9998362
299.9996286
299.9989026
299.9993068
299.9989582
299.9989458
299.9990253
299.9989516
299.998708
)
;
    }
}


// ************************************************************************* //
