/*--------------------------------*- C++ -*----------------------------------*\
  =========                 |
  \\      /  F ield         | OpenFOAM: The Open Source CFD Toolbox
   \\    /   O peration     | Website:  https://openfoam.org
    \\  /    A nd           | Version:  8
     \\/     M anipulation  |
\*---------------------------------------------------------------------------*/
FoamFile
{
    version     2.0;
    format      ascii;
    class       volVectorField;
    location    "0.2/wallFilmRegion";
    object      U;
}
// * * * * * * * * * * * * * * * * * * * * * * * * * * * * * * * * * * * * * //

dimensions      [0 1 -1 0 0 0 0];

internalField   nonuniform List<vector> 
1342
(
(-3.590486408e-15 -1.667639935e-14 0)
(-3.296673958e-15 -1.008392267e-14 0)
(-2.303383807e-15 -3.100738603e-15 0)
(-1.032201514e-15 3.750610358e-15 0)
(-2.29654258e-16 1.074313337e-14 0)
(-4.427792071e-16 1.95187688e-14 0)
(-1.13843128e-15 3.207983235e-14 0)
(-1.499327513e-15 4.821643394e-14 0)
(-1.256834666e-15 6.619637059e-14 0)
(-4.703627582e-16 8.400124897e-14 0)
(6.56071401e-16 9.981046143e-14 0)
(1.89630729e-15 1.121773741e-13 0)
(3.057243141e-15 1.201276528e-13 0)
(4.005108963e-15 1.231931098e-13 0)
(4.673913638e-15 1.213752252e-13 0)
(5.052648218e-15 1.151017646e-13 0)
(5.162857937e-15 1.050987037e-13 0)
(5.047960091e-15 9.226917416e-14 0)
(4.753076789e-15 7.762163732e-14 0)
(4.322378215e-15 6.219007442e-14 0)
(3.793800875e-15 4.696573475e-14 0)
(3.199241664e-15 3.2847997e-14 0)
(2.564060277e-15 2.060982171e-14 0)
(1.913578484e-15 1.089296347e-14 0)
(1.287013688e-15 4.193233685e-15 0)
(7.653600648e-16 6.97396722e-16 0)
(-1.331158402e-15 -2.381678905e-14 0)
(-1.821175742e-15 -1.763887205e-14 0)
(-1.547167758e-15 -1.04550086e-14 0)
(-5.243759122e-16 -2.988340046e-15 0)
(8.592047277e-16 4.06743786e-15 0)
(1.813769278e-15 1.100692588e-14 0)
(1.732926308e-15 1.985211009e-14 0)
(1.239828788e-15 3.293173704e-14 0)
(1.044177041e-15 4.97472849e-14 0)
(1.343666414e-15 6.831740675e-14 0)
(2.093657509e-15 8.650042854e-14 0)
(3.149316084e-15 1.024268662e-13 0)
(4.327517139e-15 1.146866042e-13 0)
(5.461815734e-15 1.223734936e-13 0)
(6.423299035e-15 1.250856526e-13 0)
(7.128263273e-15 1.228989717e-13 0)
(7.540635376e-15 1.162853862e-13 0)
(7.658131845e-15 1.059962392e-13 0)
(7.503717001e-15 9.294508656e-14 0)
(7.1120531e-15 7.813438119e-14 0)
(6.524618256e-15 6.259091434e-14 0)
(5.782949382e-15 4.729478927e-14 0)
(4.927181325e-15 3.313355534e-14 0)
(3.995553598e-15 2.086904888e-14 0)
(3.031215228e-15 1.113173208e-14 0)
(2.103985332e-15 4.400155278e-15 0)
(1.340884583e-15 8.067287468e-16 0)
(2.231877624e-15 -3.065606654e-14 0)
(9.523082684e-16 -2.534205753e-14 0)
(3.255907163e-16 -1.851016376e-14 0)
(4.889287419e-16 -1.066065007e-14 0)
(1.425746145e-15 -2.682445997e-15 0)
(2.812114884e-15 4.552408193e-15 0)
(3.881259528e-15 1.133306144e-14 0)
(4.004459357e-15 2.013140544e-14 0)
(3.81557904e-15 3.35709392e-14 0)
(3.844971515e-15 5.089429343e-14 0)
(4.225030623e-15 6.99631759e-14 0)
(4.945795886e-15 8.853426915e-14 0)
(5.918588111e-15 1.046914815e-13 0)
(7.014738725e-15 1.170011309e-13 0)
(8.097844821e-15 1.245851872e-13 0)
(9.042661776e-15 1.27090398e-13 0)
(9.754325097e-15 1.246347125e-13 0)
(1.016952884e-14 1.177372101e-13 0)
(1.026653278e-14 1.071796386e-13 0)
(1.004897374e-14 9.389284265e-14 0)
(9.542755978e-15 7.889107595e-14 0)
(8.786757422e-15 6.320096489e-14 0)
(7.826540481e-15 4.779745383e-14 0)
(6.711100208e-15 3.356064084e-14 0)
(5.49202114e-15 2.124214728e-14 0)
(4.232200956e-15 1.145963963e-14 0)
(3.034751579e-15 4.669130383e-15 0)
(2.066757076e-15 9.391776246e-16 0)
(5.15859419e-15 -3.292428455e-14 0)
(3.638440495e-15 -2.698339288e-14 0)
(2.783108379e-15 -1.942557727e-14 0)
(2.719137315e-15 -1.088189555e-14 0)
(3.440296476e-15 -2.398914391e-15 0)
(4.70650135e-15 5.013139299e-15 0)
(5.836275609e-15 1.166829005e-14 0)
(6.233496213e-15 2.04800106e-14 0)
(6.415358688e-15 3.4189559e-14 0)
(6.722973534e-15 5.185882895e-14 0)
(7.234944141e-15 7.130664282e-14 0)
(7.970401191e-15 9.023739208e-14 0)
(8.896055838e-15 1.066663904e-13 0)
(9.933286622e-15 1.191393967e-13 0)
(1.097025029e-14 1.267617707e-13 0)
(1.189031066e-14 1.291832715e-13 0)
(1.25876981e-14 1.265510726e-13 0)
(1.298118078e-14 1.194188719e-13 0)
(1.302807845e-14 1.086089661e-13 0)
(1.271964747e-14 9.507916428e-14 0)
(1.207529535e-14 7.986242409e-14 0)
(1.113274379e-14 6.399453579e-14 0)
(9.94357077e-15 4.845240084e-14 0)
(8.566259025e-15 3.411119585e-14 0)
(7.066704902e-15 2.171343651e-14 0)
(5.528578389e-15 1.186197569e-14 0)
(4.089138056e-15 4.986215144e-15 0)
(2.946386977e-15 1.086104907e-15 0)
(8.568769365e-15 -3.5488573e-14 0)
(6.72532058e-15 -2.884067249e-14 0)
(5.540200688e-15 -2.048501071e-14 0)
(5.14340583e-15 -1.118409927e-14 0)
(5.556773926e-15 -2.142643432e-15 0)
(6.625791392e-15 5.494456535e-15 0)
(7.80872928e-15 1.204518169e-14 0)
(8.502519496e-15 2.084882061e-14 0)
(9.05388276e-15 3.471668752e-14 0)
(9.650550018e-15 5.260708071e-14 0)
(1.033740974e-14 7.234529133e-14 0)
(1.114526068e-14 9.161962699e-14 0)
(1.207909828e-14 1.083974892e-13 0)
(1.309856733e-14 1.211386729e-13 0)
(1.411351716e-14 1.289077644e-13 0)
(1.501016364e-14 1.313512043e-13 0)
(1.56788918e-14 1.286185085e-13 0)
(1.602310758e-14 1.212953444e-13 0)
(1.598548069e-14 1.102438067e-13 0)
(1.55509163e-14 9.64618972e-14 0)
(1.473600768e-14 8.100920443e-14 0)
(1.358172398e-14 6.493786469e-14 0)
(1.214713221e-14 4.923121677e-14 0)
(1.050150885e-14 3.476197244e-14 0)
(8.725552362e-15 2.226376896e-14 0)
(6.923839109e-15 1.232285412e-14 0)
(5.267069359e-15 5.338827737e-15 0)
(3.972871215e-15 1.241425688e-15 0)
(1.516516641e-14 -4.376287268e-14 0)
(1.250889189e-14 -3.845871802e-14 0)
(1.02593147e-14 -3.105017264e-14 0)
(8.645852555e-15 -2.184199436e-14 0)
(7.816830468e-15 -1.172894595e-14 0)
(7.835060914e-15 -2.066547408e-15 0)
(8.632287195e-15 5.8878774e-15 0)
(9.843793671e-15 1.244180763e-14 0)
(1.08374553e-14 2.128936287e-14 0)
(1.174123091e-14 3.527423213e-14 0)
(1.264183092e-14 5.331827413e-14 0)
(1.355299558e-14 7.329328851e-14 0)
(1.450659567e-14 9.288519482e-14 0)
(1.552230592e-14 1.100122139e-13 0)
(1.657637591e-14 1.23077705e-13 0)
(1.759562552e-14 1.310704676e-13 0)
(1.847230553e-14 1.336002069e-13 0)
(1.909083487e-14 1.308173036e-13 0)
(1.934802558e-14 1.233226059e-13 0)
(1.917984846e-14 1.120319712e-13 0)
(1.85722929e-14 9.798808626e-14 0)
(1.754472222e-14 8.228183233e-14 0)
(1.614528982e-14 6.598771323e-14 0)
(1.44425292e-14 5.009812851e-14 0)
(1.251787165e-14 3.548455889e-14 0)
(1.046640692e-14 2.287105902e-14 0)
(8.413116737e-15 1.282549315e-14 0)
(6.560013516e-15 5.715268607e-15 0)
(5.131968445e-15 1.400658063e-15 0)
(2.012796322e-14 -4.781154534e-14 0)
(1.708112175e-14 -4.191387955e-14 0)
(1.436896337e-14 -3.370566901e-14 0)
(1.22458904e-14 -2.358203543e-14 0)
(1.089705693e-14 -1.25772486e-14 0)
(1.044172479e-14 -2.198673984e-15 0)
(1.089621313e-14 6.196938254e-15 0)
(1.207931672e-14 1.287101025e-14 0)
(1.337338286e-14 2.177284715e-14 0)
(1.464259905e-14 3.584003891e-14 0)
(1.587711618e-14 5.400198464e-14 0)
(1.705930871e-14 7.418181966e-14 0)
(1.821280784e-14 9.408629085e-14 0)
(1.936093464e-14 1.115908281e-13 0)
(2.048963152e-14 1.250059906e-13 0)
(2.152796013e-14 1.332578836e-13 0)
(2.236957715e-14 1.359116749e-13 0)
(2.289448654e-14 1.330959489e-13 0)
(2.300834204e-14 1.254384453e-13 0)
(2.264691027e-14 1.139037247e-13 0)
(2.180515082e-14 9.958843824e-14 0)
(2.051113855e-14 8.361771105e-14 0)
(1.882479949e-14 6.709046606e-14 0)
(1.682547306e-14 5.100974486e-14 0)
(1.460713914e-14 3.62452409e-14 0)
(1.227841568e-14 2.35099918e-14 0)
(9.983307158e-15 1.335197503e-14 0)
(7.951703541e-15 6.104162943e-15 0)
(6.403198864e-15 1.560139755e-15 0)
(2.583275475e-14 -5.235834736e-14 0)
(2.240909925e-14 -4.587918578e-14 0)
(1.921698331e-14 -3.686889709e-14 0)
(1.652502896e-14 -2.579595706e-14 0)
(1.457097897e-14 -1.382201343e-14 0)
(1.354428078e-14 -2.608863265e-15 0)
(1.356090908e-14 6.369422843e-15 0)
(1.461994057e-14 1.332247081e-14 0)
(1.620526684e-14 2.231845146e-14 0)
(1.787771022e-14 3.645483017e-14 0)
(1.950048361e-14 5.471640582e-14 0)
(2.101872075e-14 7.508582474e-14 0)
(2.243670975e-14 9.528913336e-14 0)
(2.376736281e-14 1.131618802e-13 0)
(2.498975499e-14 1.269443155e-13 0)
(2.603479762e-14 1.354630501e-13 0)
(2.679320476e-14 1.382275748e-13 0)
(2.715674712e-14 1.353757869e-13 0)
(2.704543672e-14 1.275506855e-13 0)
(2.640784002e-14 1.157652368e-13 0)
(2.525522248e-14 1.011743455e-13 0)
(2.363053094e-14 8.493885014e-14 0)
(2.160827317e-14 6.818185822e-14 0)
(1.927972447e-14 5.191492953e-14 0)
(1.675036221e-14 3.700498629e-14 0)
(1.414140617e-14 2.415234882e-14 0)
(1.161273257e-14 1.38828149e-14 0)
(9.418261596e-15 6.493765728e-15 0)
(7.760127904e-15 1.716456185e-15 0)
(3.233761949e-14 -5.732453983e-14 0)
(2.860801364e-14 -5.031141321e-14 0)
(2.497073167e-14 -4.053794371e-14 0)
(2.169638055e-14 -2.851877046e-14 0)
(1.907229872e-14 -1.552518703e-14 0)
(1.736559615e-14 -3.366981278e-15 0)
(1.682217268e-14 6.351614164e-15 0)
(1.76282132e-14 1.37780792e-14 0)
(1.948036553e-14 2.293729768e-14 0)
(2.161783947e-14 3.71342719e-14 0)
(2.370566372e-14 5.548353607e-14 0)
(2.563122467e-14 7.602889145e-14 0)
(2.736551816e-14 9.651778335e-14 0)
(2.890500207e-14 1.147407501e-13 0)
(3.0212859e-14 1.288466171e-13 0)
(3.121331185e-14 1.375902777e-13 0)
(3.181038638e-14 1.404399386e-13 0)
(3.191530409e-14 1.375329411e-13 0)
(3.147257124e-14 1.295314349e-13 0)
(3.045753952e-14 1.174952452e-13 0)
(2.890493619e-14 1.026377389e-13 0)
(2.687817908e-14 8.61537482e-14 0)
(2.446670726e-14 6.918693801e-14 0)
(2.177466423e-14 5.275520046e-14 0)
(1.891704644e-14 3.772012739e-14 0)
(1.602504352e-14 2.476673862e-14 0)
(1.327111992e-14 1.439690304e-14 0)
(1.092822737e-14 6.871858698e-15 0)
(9.170148689e-15 1.866138251e-15 0)
(3.963026398e-14 -6.254229229e-14 0)
(3.572631783e-14 -5.507632851e-14 0)
(3.174231997e-14 -4.462403874e-14 0)
(2.792665287e-14 -3.172176638e-14 0)
(2.460301527e-14 -1.772042975e-14 0)
(2.212405753e-14 -4.542611122e-15 0)
(2.089424325e-14 6.065736473e-15 0)
(2.131040493e-14 1.4193185e-14 0)
(2.335390402e-14 2.365718436e-14 0)
(2.599776703e-14 3.791315421e-14 0)
(2.862479742e-14 5.63221088e-14 0)
(3.102289309e-14 7.700595564e-14 0)
(3.311407524e-14 9.773162887e-14 0)
(3.486092792e-14 1.162465496e-13 0)
(3.621173254e-14 1.30615921e-13 0)
(3.709329336e-14 1.395216313e-13 0)
(3.742559465e-14 1.424020608e-13 0)
(3.715250399e-14 1.394083314e-13 0)
(3.625508815e-14 1.312231975e-13 0)
(3.475132897e-14 1.189502023e-13 0)
(3.27048721e-14 1.038542045e-13 0)
(3.020299057e-14 8.715864729e-14 0)
(2.735067754e-14 7.002297755e-14 0)
(2.426379099e-14 5.346717145e-14 0)
(2.106389092e-14 3.834342815e-14 0)
(1.788855716e-14 2.531944184e-14 0)
(1.491941644e-14 1.487167478e-14 0)
(1.244237483e-14 7.225371535e-15 0)
(1.05940975e-14 2.005470589e-15 0)
(4.758399187e-14 -6.776328843e-14 0)
(4.369337926e-14 -5.995647599e-14 0)
(3.95279644e-14 -4.896864056e-14 0)
(3.529066272e-14 -3.532402268e-14 0)
(3.131100609e-14 -2.040462524e-14 0)
(2.802444221e-14 -6.202774563e-15 0)
(2.601736629e-14 5.419279019e-15 0)
(2.593624256e-14 1.449849165e-14 0)
(2.801646747e-14 2.448863354e-14 0)
(3.112251506e-14 3.882908334e-14 0)
(3.431336755e-14 5.725755484e-14 0)
(3.721983e-14 7.801526055e-14 0)
(3.968418518e-14 9.889280404e-14 0)
(4.161929134e-14 1.175966922e-13 0)
(4.294955485e-14 1.321219628e-13 0)
(4.361042972e-14 1.410949176e-13 0)
(4.355503099e-14 1.439355666e-13 0)
(4.277356996e-14 1.408159068e-13 0)
(4.129603834e-14 1.324496625e-13 0)
(3.919506602e-14 1.199744558e-13 0)
(3.656703363e-14 1.046909008e-13 0)
(3.352461504e-14 8.784497107e-14 0)
(3.01891195e-14 7.060445063e-14 0)
(2.668383608e-14 5.398520017e-14 0)
(2.313452167e-14 3.882602173e-14 0)
(1.968118337e-14 2.577552411e-14 0)
(1.650997245e-14 1.528363667e-14 0)
(1.391415682e-14 7.540819721e-15 0)
(1.198640851e-14 2.130510523e-15 0)
(5.592471084e-14 -7.267345381e-14 0)
(5.226025961e-14 -6.464591286e-14 0)
(4.812745771e-14 -5.329417092e-14 0)
(4.366851026e-14 -3.911569316e-14 0)
(3.918485014e-14 -2.347729302e-14 0)
(3.517419854e-14 -8.352285413e-15 0)
(3.238922225e-14 4.357617805e-15 0)
(3.175119061e-14 1.460837274e-14 0)
(3.36620272e-14 2.537328921e-14 0)
(3.706609536e-14 3.987590075e-14 0)
(4.075921722e-14 5.829004993e-14 0)
(4.415405239e-14 7.903601523e-14 0)
(4.69675815e-14 9.994103324e-14 0)
(4.903596094e-14 1.186819205e-13 0)
(5.025678821e-14 1.332090184e-13 0)
(5.058113397e-14 1.421229161e-13 0)
(5.001045352e-14 1.448427158e-13 0)
(4.859749414e-14 1.41564289e-13 0)
(4.643167258e-14 1.330349481e-13 0)
(4.36421247e-14 1.204137707e-13 0)
(4.036361552e-14 1.050178371e-13 0)
(3.673433555e-14 8.810782217e-14 0)
(3.288946003e-14 7.084884642e-14 0)
(2.895617254e-14 5.424567911e-14 0)
(2.506123505e-14 3.912076348e-14 0)
(2.134301661e-14 2.61007224e-14 0)
(1.798782842e-14 1.560935039e-14 0)
(1.529032793e-14 7.804564609e-15 0)
(1.329567967e-14 2.237163379e-15 0)
(6.42335339e-14 -7.695451796e-14 0)
(6.09938938e-14 -6.882243885e-14 0)
(5.71151639e-14 -5.7288301e-14 0)
(5.266481689e-14 -4.281058473e-14 0)
(4.790587547e-14 -2.669548996e-14 0)
(4.338257992e-14 -1.085100741e-14 0)
(3.99595119e-14 2.911041104e-15 0)
(3.877082112e-14 1.445063763e-14 0)
(4.033931102e-14 2.617914156e-14 0)
(4.380657748e-14 4.097346289e-14 0)
(4.784447532e-14 5.936863076e-14 0)
(5.162629139e-14 8.000878676e-14 0)
(5.47025295e-14 1.007778029e-13 0)
(5.681057041e-14 1.193581488e-13 0)
(5.781766438e-14 1.337006668e-13 0)
(5.769473299e-14 1.424124871e-13 0)
(5.650237718e-14 1.449326106e-13 0)
(5.436403626e-14 1.414785578e-13 0)
(5.143483584e-14 1.328212702e-13 0)
(4.789889964e-14 1.201295618e-13 0)
(4.393361138e-14 1.04721677e-13 0)
(3.969971365e-14 8.785587955e-14 0)
(3.534201181e-14 7.068363204e-14 0)
(3.099035311e-14 5.419272497e-14 0)
(2.67674296e-14 3.918473626e-14 0)
(2.280728817e-14 2.626338323e-14 0)
(1.929229207e-14 1.582669942e-14 0)
(1.651293519e-14 8.003563412e-15 0)
(1.446627489e-14 2.321478294e-15 0)
(7.199651e-14 -8.032531091e-14 0)
(6.934185736e-14 -7.219898955e-14 0)
(6.591134502e-14 -6.066663545e-14 0)
(6.170391795e-14 -4.614122199e-14 0)
(5.693394869e-14 -2.982288607e-14 0)
(5.217252198e-14 -1.348812002e-14 0)
(4.835022568e-14 1.199849522e-15 0)
(4.66983529e-14 1.399648831e-14 0)
(4.784539538e-14 2.676424688e-14 0)
(5.116543054e-14 4.197176219e-14 0)
(5.533664936e-14 6.03607787e-14 0)
(5.933125763e-14 8.080261016e-14 0)
(6.252153664e-14 1.012665644e-13 0)
(6.45409552e-14 1.194809689e-13 0)
(6.522240923e-14 1.33443625e-13 0)
(6.456028178e-14 1.418097165e-13 0)
(6.267486494e-14 1.4405716e-13 0)
(5.976026101e-14 1.404225549e-13 0)
(5.603638886e-14 1.316879201e-13 0)
(5.174310546e-14 1.190199137e-13 0)
(4.709573379e-14 1.037181511e-13 0)
(4.227306683e-14 8.701944188e-14 0)
(3.742799123e-14 7.005318246e-14 0)
(3.268872102e-14 5.378191039e-14 0)
(2.817206635e-14 3.898307505e-14 0)
(2.400420898e-14 2.623685354e-14 0)
(2.036026208e-14 1.591657321e-14 0)
(1.752204548e-14 8.126334899e-15 0)
(1.544085275e-14 2.379825885e-15 0)
(7.86772836e-14 -8.257544249e-14 0)
(7.671173789e-14 -7.455348784e-14 0)
(7.387723267e-14 -6.319023423e-14 0)
(7.01184564e-14 -4.884922106e-14 0)
(6.560716302e-14 -3.259516037e-14 0)
(6.089991088e-14 -1.602259142e-14 0)
(5.694904026e-14 -6.232302937e-16 0)
(5.498278325e-14 1.326806806e-14 0)
(5.572854713e-14 2.702686964e-14 0)
(5.877353721e-14 4.27027553e-14 0)
(6.287677063e-14 6.108788128e-14 0)
(6.688060649e-14 8.123840605e-14 0)
(7.000243189e-14 1.012335568e-13 0)
(7.178279526e-14 1.188888759e-13 0)
(7.202812137e-14 1.322950448e-13 0)
(7.075768226e-14 1.401906829e-13 0)
(6.814720306e-14 1.421100668e-13 0)
(6.445371962e-14 1.383058559e-13 0)
(5.995534274e-14 1.295613486e-13 0)
(5.494438791e-14 1.170257275e-13 0)
(4.96622922e-14 1.019569611e-13 0)
(4.430468264e-14 8.555767334e-14 0)
(3.902758941e-14 6.892315908e-14 0)
(3.395491169e-14 5.298462882e-14 0)
(2.91956486e-14 3.849225119e-14 0)
(2.486570183e-14 2.600174707e-14 0)
(2.113040571e-14 1.586425087e-14 0)
(1.825933057e-14 8.163747252e-15 0)
(1.616383185e-14 2.409339327e-15 0)
(8.37954856e-14 -8.358317498e-14 0)
(8.256185054e-14 -7.574525944e-14 0)
(8.041773693e-14 -6.469411364e-14 0)
(7.726297288e-14 -5.073349728e-14 0)
(7.323664729e-14 -3.478480834e-14 0)
(6.885266361e-14 -1.823413441e-14 0)
(6.503352748e-14 -2.398883866e-15 0)
(6.294983357e-14 1.232864652e-14 0)
(6.338259383e-14 2.692672643e-14 0)
(6.610712174e-14 4.303146499e-14 0)
(6.998489179e-14 6.136982853e-14 0)
(7.380296121e-14 8.11238772e-14 0)
(7.667212262e-14 1.004964387e-13 0)
(7.8068606e-14 1.174271203e-13 0)
(7.778637068e-14 1.301355204e-13 0)
(7.58724754e-14 1.37471271e-13 0)
(7.255003121e-14 1.390354203e-13 0)
(6.81259142e-14 1.350925022e-13 0)
(6.292711086e-14 1.264211436e-13 0)
(5.728531482e-14 1.141338066e-13 0)
(5.145993121e-14 9.942885027e-14 0)
(4.565743247e-14 8.346263814e-14 0)
(4.003208569e-14 6.728514663e-14 0)
(3.470236858e-14 5.179153368e-14 0)
(2.9766957e-14 3.770179342e-14 0)
(2.533103668e-14 2.554779785e-14 0)
(2.154803889e-14 1.566074315e-14 0)
(1.867293234e-14 8.109915725e-15 0)
(1.658537592e-14 2.408111316e-15 0)
(8.697956248e-14 -8.330995534e-14 0)
(8.646417179e-14 -7.571414406e-14 0)
(8.504765634e-14 -6.508528053e-14 0)
(8.259947315e-14 -5.166607701e-14 0)
(7.922361318e-14 -3.622917882e-14 0)
(7.538136434e-14 -1.995542944e-14 0)
(7.191983425e-14 -3.983005608e-15 0)
(6.992488425e-14 1.126763587e-14 0)
(7.01723302e-14 2.646799565e-14 0)
(7.258429227e-14 4.287353443e-14 0)
(7.612787118e-14 6.10624468e-14 0)
(7.959769776e-14 8.029331967e-14 0)
(8.205702124e-14 9.889996922e-14 0)
(8.295457483e-14 1.14973573e-13 0)
(8.208965726e-14 1.268874067e-13 0)
(7.953977469e-14 1.336167634e-13 0)
(7.556540273e-14 1.348313937e-13 0)
(7.05066699e-14 1.308036942e-13 0)
(6.472986392e-14 1.222997898e-13 0)
(5.858734301e-14 1.103791815e-13 0)
(5.234824205e-14 9.616654957e-14 0)
(4.622032663e-14 8.075945387e-14 0)
(4.035512957e-14 6.515673387e-14 0)
(3.486242354e-14 5.021279545e-14 0)
(2.983049578e-14 3.661594433e-14 0)
(2.535285679e-14 2.487488414e-14 0)
(2.157039118e-14 1.530377078e-14 0)
(1.872213845e-14 7.962584665e-15 0)
(1.66660483e-14 2.375299832e-15 0)
(8.799108344e-14 -8.178803321e-14 0)
(8.812786772e-14 -7.44687512e-14 0)
(8.741987007e-14 -6.433759085e-14 0)
(8.572016042e-14 -5.157959425e-14 0)
(8.3097691e-14 -3.682847889e-14 0)
(7.994745872e-14 -2.106699434e-14 0)
(7.702794325e-14 -5.26218912e-15 0)
(7.529983909e-14 1.017480329e-14 0)
(7.550357571e-14 2.568807146e-14 0)
(7.763618373e-14 4.218750566e-14 0)
(8.07782847e-14 6.00665986e-14 0)
(8.378305182e-14 7.862722333e-14 0)
(8.572201973e-14 9.63371195e-14 0)
(8.605437505e-14 1.114566595e-13 0)
(8.460170857e-14 1.225250303e-13 0)
(8.147267359e-14 1.286460334e-13 0)
(7.695141489e-14 1.295488602e-13 0)
(7.139676889e-14 1.255119762e-13 0)
(6.520614999e-14 1.172809175e-13 0)
(5.87277862e-14 1.05842047e-13 0)
(5.223138666e-14 9.223893589e-14 0)
(4.592081674e-14 7.750432898e-14 0)
(3.994148182e-14 6.258076685e-14 0)
(3.439263074e-14 4.827813494e-14 0)
(2.935241256e-14 3.525337885e-14 0)
(2.490266067e-14 2.399314606e-14 0)
(2.117152715e-14 1.479796189e-14 0)
(1.838174599e-14 7.723445189e-15 0)
(1.638141469e-14 2.311281037e-15 0)
(8.673079504e-14 -7.910746543e-14 0)
(8.740927885e-14 -7.207784986e-14 0)
(8.733275532e-14 -6.248275576e-14 0)
(8.635429374e-14 -5.046589828e-14 0)
(8.451228024e-14 -3.653714431e-14 0)
(8.213604282e-14 -2.149702345e-14 0)
(7.987509567e-14 -6.148301425e-15 0)
(7.855776888e-14 9.132089423e-15 0)
(7.883860121e-14 2.463034464e-14 0)
(8.073513294e-14 4.095980719e-14 0)
(8.344776921e-14 5.832656816e-14 0)
(8.592404777e-14 7.605771124e-14 0)
(8.729515331e-14 9.275827444e-14 0)
(8.706007413e-14 1.068650449e-13 0)
(8.507601073e-14 1.170831415e-13 0)
(8.147811008e-14 1.22633197e-13 0)
(7.655871133e-14 1.232894327e-13 0)
(7.069028269e-14 1.193424751e-13 0)
(6.427721611e-14 1.114936561e-13 0)
(5.764916182e-14 1.006394698e-13 0)
(5.106924711e-14 8.774790922e-14 0)
(4.473247587e-14 7.378092627e-14 0)
(3.877327253e-14 5.962124047e-14 0)
(3.328184712e-14 4.60343524e-14 0)
(2.832542024e-14 3.364598194e-14 0)
(2.397504695e-14 2.292259746e-14 0)
(2.034635018e-14 1.415448427e-14 0)
(1.764625266e-14 7.39805905e-15 0)
(1.572532741e-14 2.2177596e-15 0)
(8.323408669e-14 -7.54057605e-14 0)
(8.43068627e-14 -6.865989947e-14 0)
(8.473260674e-14 -5.961127466e-14 0)
(8.437551896e-14 -4.837551616e-14 0)
(8.325872338e-14 -3.536295189e-14 0)
(8.164897862e-14 -2.12174811e-14 0)
(8.008489588e-14 -6.58895337e-15 0)
(7.925381825e-14 8.202234455e-15 0)
(7.969978882e-14 2.333702813e-14 0)
(8.141081156e-14 3.919640278e-14 0)
(8.37089371e-14 5.582461995e-14 0)
(8.566228858e-14 7.257191271e-14 0)
(8.649528698e-14 8.818002691e-14 0)
(8.576649986e-14 1.012565063e-13 0)
(8.337395551e-14 1.106620799e-13 0)
(7.946845096e-14 1.15711505e-13 0)
(7.43413487e-14 1.162137051e-13 0)
(6.837361847e-14 1.124634091e-13 0)
(6.194427781e-14 1.050960783e-13 0)
(5.536377289e-14 9.491795557e-14 0)
(4.888074161e-14 8.282044446e-14 0)
(4.267664627e-14 6.9693022e-14 0)
(3.687400387e-14 5.636000313e-14 0)
(3.15533295e-14 4.35428678e-14 0)
(2.677169856e-14 3.183695843e-14 0)
(2.259039883e-14 2.169166358e-14 0)
(1.911327007e-14 1.339053408e-14 0)
(1.653234448e-14 6.995340134e-15 0)
(1.471250809e-14 2.097342596e-15 0)
(7.767049831e-14 -7.086209315e-14 0)
(7.895928868e-14 -6.437684299e-14 0)
(7.971371245e-14 -5.586284161e-14 0)
(7.981665577e-14 -4.541770021e-14 0)
(7.928844571e-14 -3.337804791e-14 0)
(7.834132467e-14 -2.025937478e-14 0)
(7.741947611e-14 -6.576679058e-15 0)
(7.707122003e-14 7.418378497e-15 0)
(7.772055178e-14 2.18453793e-14 0)
(7.930534298e-14 3.692656919e-14 0)
(8.125590001e-14 5.259458616e-14 0)
(8.276999272e-14 6.822695083e-14 0)
(8.317688567e-14 8.269538691e-14 0)
(8.210410835e-14 9.476504353e-14 0)
(7.948651286e-14 1.034284118e-13 0)
(7.547756318e-14 1.080698615e-13 0)
(7.03662621e-14 1.085291693e-13 0)
(6.452394255e-14 1.050802551e-13 0)
(5.828989798e-14 9.827751437e-14 0)
(5.195294042e-14 8.88468393e-14 0)
(4.574242786e-14 7.760171358e-14 0)
(3.982385294e-14 6.536094188e-14 0)
(3.43077998e-14 5.289234428e-14 0)
(2.926442282e-14 4.087544736e-14 0)
(2.474300395e-14 2.987831642e-14 0)
(2.079548182e-14 2.03356286e-14 0)
(1.751497585e-14 1.252803097e-14 0)
(1.507959694e-14 6.526926224e-15 0)
(1.337980949e-14 1.953572836e-15 0)
(7.033651961e-14 -6.568852964e-14 0)
(7.164573329e-14 -5.943109694e-14 0)
(7.253043581e-14 -5.142578635e-14 0)
(7.288932417e-14 -4.175754657e-14 0)
(7.274889344e-14 -3.071570954e-14 0)
(7.228578119e-14 -1.871651064e-14 0)
(7.186764036e-14 -6.159196307e-15 0)
(7.192367653e-14 6.776125347e-15 0)
(7.276696949e-14 2.018787814e-14 0)
(7.428987086e-14 3.421359878e-14 0)
(7.600518963e-14 4.873174806e-14 0)
(7.722751701e-14 6.315654835e-14 0)
(7.738774746e-14 7.647910769e-14 0)
(7.617712373e-14 8.760045869e-14 0)
(7.355531772e-14 9.561417501e-14 0)
(6.967038222e-14 9.995377501e-14 0)
(6.481210317e-14 1.004805599e-13 0)
(5.931159626e-14 9.7420554e-14 0)
(5.347382669e-14 9.124712526e-14 0)
(4.756206704e-14 8.261078718e-14 0)
(4.178403003e-14 7.224921622e-14 0)
(3.628870538e-14 6.091443912e-14 0)
(3.117488173e-14 4.932136682e-14 0)
(2.650411321e-14 3.811156023e-14 0)
(2.231821054e-14 2.782830491e-14 0)
(1.866169715e-14 1.889478066e-14 0)
(1.561717469e-14 1.159247182e-14 0)
(1.334988423e-14 6.006486659e-15 0)
(1.178516519e-14 1.790578908e-15 0)
(6.164051278e-14 -6.01218163e-14 0)
(6.278437739e-14 -5.405457369e-14 0)
(6.359785908e-14 -4.651917785e-14 0)
(6.399767805e-14 -3.760291794e-14 0)
(6.401634368e-14 -2.755962387e-14 0)
(6.381967895e-14 -1.673421317e-14 0)
(6.371524926e-14 -5.432166057e-15 0)
(6.405059852e-14 6.239946236e-15 0)
(6.504536917e-14 1.839542924e-14 0)
(6.656693906e-14 3.115282451e-14 0)
(6.817748703e-14 4.438771428e-14 0)
(6.928702029e-14 5.756290128e-14 0)
(6.940843945e-14 6.977449768e-14 0)
(6.828266417e-14 8.003072949e-14 0)
(6.587911983e-14 8.749575382e-14 0)
(6.234772543e-14 9.16485619e-14 0)
(5.795629903e-14 9.233955178e-14 0)
(5.29893519e-14 8.972971006e-14 0)
(4.772174501e-14 8.422531554e-14 0)
(4.238959648e-14 7.640178305e-14 0)
(3.717818345e-14 6.692570131e-14 0)
(3.22207973e-14 5.64877501e-14 0)
(2.760541147e-14 4.575495116e-14 0)
(2.338621595e-14 3.533451675e-14 0)
(1.95987721e-14 2.57489726e-14 0)
(1.628096743e-14 1.741293029e-14 0)
(1.350531776e-14 1.061184107e-14 0)
(1.142443114e-14 5.448922524e-15 0)
(1.00052316e-14 1.612758427e-15 0)
(5.207626341e-14 -5.440433368e-14 0)
(5.29076248e-14 -4.849401511e-14 0)
(5.347314677e-14 -4.138324952e-14 0)
(5.372326004e-14 -3.318115105e-14 0)
(5.369093823e-14 -2.411618461e-14 0)
(5.354438566e-14 -1.448419635e-14 0)
(5.35578877e-14 -4.51488282e-15 0)
(5.403268791e-14 5.759295137e-15 0)
(5.512408421e-14 1.64994889e-14 0)
(5.668864188e-14 2.785914437e-14 0)
(5.831370744e-14 3.974932885e-14 0)
(5.947575958e-14 5.169069696e-14 0)
(5.974685168e-14 6.286476389e-14 0)
(5.889770303e-14 7.235728769e-14 0)
(5.690753398e-14 7.938826639e-14 0)
(5.391861253e-14 8.345758255e-14 0)
(5.015683364e-14 8.437989862e-14 0)
(4.587203027e-14 8.225850307e-14 0)
(4.130693963e-14 7.743421926e-14 0)
(3.667040649e-14 7.04122034e-14 0)
(3.212604271e-14 6.179376755e-14 0)
(2.779254733e-14 5.221532236e-14 0)
(2.374813463e-14 4.230138314e-14 0)
(2.004064381e-14 3.262951592e-14 0)
(1.670063956e-14 2.370469508e-14 0)
(1.37592716e-14 1.593591867e-14 0)
(1.127911869e-14 9.615925608e-15 0)
(9.399185582e-15 4.869912973e-15 0)
(8.131323207e-15 1.424608431e-15 0)
(4.218480732e-14 -4.877861229e-14 0)
(4.261916309e-14 -4.299732981e-14 0)
(4.282171993e-14 -3.625865415e-14 0)
(4.277562327e-14 -2.871246713e-14 0)
(4.253859626e-14 -2.058692808e-14 0)
(4.227221711e-14 -1.213490415e-14 0)
(4.224099411e-14 -3.524891463e-15 0)
(4.272852343e-14 5.285471253e-15 0)
(4.386349912e-14 1.453544738e-14 0)
(4.549051358e-14 2.445483671e-14 0)
(4.720983435e-14 3.501614998e-14 0)
(4.853698211e-14 4.579834002e-14 0)
(4.908025762e-14 5.604431554e-14 0)
(4.86355762e-14 6.48959187e-14 0)
(4.718717449e-14 7.16095654e-14 0)
(4.485176281e-14 7.567785044e-14 0)
(4.181888004e-14 7.687557815e-14 0)
(3.830603715e-14 7.525351593e-14 0)
(3.452346567e-14 7.109075725e-14 0)
(3.06530215e-14 6.482863277e-14 0)
(2.683783975e-14 5.701146171e-14 0)
(2.31826312e-14 4.822842945e-14 0)
(1.975650752e-14 3.906760003e-14 0)
(1.660159928e-14 3.008153072e-14 0)
(1.374377509e-14 2.176093133e-14 0)
(1.120785145e-14 1.451169786e-14 0)
(9.045044953e-15 8.636210576e-15 0)
(7.378626328e-15 4.285890836e-15 0)
(6.263914301e-15 1.230589244e-15 0)
(3.250065571e-14 -4.34786629e-14 0)
(3.253278855e-14 -3.779722521e-14 0)
(3.234702559e-14 -3.138096957e-14 0)
(3.194599279e-14 -2.441309934e-14 0)
(3.141304562e-14 -1.714568671e-14 0)
(3.092275685e-14 -9.822606064e-15 0)
(3.074199516e-14 -2.553961067e-15 0)
(3.115430303e-14 4.786436232e-15 0)
(3.22831561e-14 1.254407359e-14 0)
(3.39637562e-14 2.105984632e-14 0)
(3.579594223e-14 3.038368085e-14 0)
(3.731723571e-14 4.013821553e-14 0)
(3.816704953e-14 4.960512106e-14 0)
(3.816368302e-14 5.795980376e-14 0)
(3.728596758e-14 6.446478295e-14 0)
(3.562732551e-14 6.85944433e-14 0)
(3.334704716e-14 7.008917769e-14 0)
(3.062976258e-14 6.895023139e-14 0)
(2.765309729e-14 6.540094817e-14 0)
(2.457245424e-14 5.982884089e-14 0)
(2.151017617e-14 5.27296501e-14 0)
(1.855685647e-14 4.465336193e-14 0)
(1.577235277e-14 3.615772879e-14 0)
(1.319305012e-14 2.777492919e-14 0)
(1.084017296e-14 1.998444796e-14 0)
(8.731943004e-15 1.319073136e-14 0)
(6.906941053e-15 7.707176396e-15 0)
(5.467959556e-15 3.714931116e-15 0)
(4.50613428e-15 1.035254066e-15 0)
(2.349131195e-14 -3.874001895e-14 0)
(2.31981593e-14 -3.312208962e-14 0)
(2.26942785e-14 -2.696111954e-14 0)
(2.199333248e-14 -2.048009351e-14 0)
(2.11791115e-14 -1.395901287e-14 0)
(2.044071038e-14 -7.655990454e-15 0)
(2.006013469e-14 -1.654925119e-15 0)
(2.033924679e-14 4.257484231e-15 0)
(2.141526568e-14 1.057646322e-14 0)
(2.310763852e-14 1.779640517e-14 0)
(2.500091079e-14 2.60470724e-14 0)
(2.664915705e-14 3.496725588e-14 0)
(2.773143777e-14 4.384244933e-14 0)
(2.809096144e-14 5.184845212e-14 0)
(2.770926837e-14 5.824206923e-14 0)
(2.6664099e-14 6.247944996e-14 0)
(2.508600948e-14 6.426852812e-14 0)
(2.312515829e-14 6.356832562e-14 0)
(2.092697796e-14 6.055729626e-14 0)
(1.861803338e-14 5.557873319e-14 0)
(1.629943118e-14 4.908992321e-14 0)
(1.404566019e-14 4.160971612e-14 0)
(1.190642575e-14 3.3671914e-14 0)
(9.91167988e-15 2.579279568e-14 0)
(8.07780959e-15 1.844323638e-14 0)
(6.416543793e-15 1.202728767e-14 0)
(4.952967826e-15 6.868466102e-15 0)
(3.763252731e-15 3.178967805e-15 0)
(2.956302142e-15 8.438298091e-16 0)
(1.549497643e-14 -3.48138435e-14 0)
(1.503239663e-14 -2.921755404e-14 0)
(1.437697656e-14 -2.322954225e-14 0)
(1.353742918e-14 -1.710838995e-14 0)
(1.258271207e-14 -1.117481297e-14 0)
(1.168487265e-14 -5.726643255e-15 0)
(1.112723098e-14 -8.580372e-16 0)
(1.124570781e-14 3.721355036e-15 0)
(1.221435593e-14 8.711261044e-15 0)
(1.38233536e-14 1.482139653e-14 0)
(1.562587505e-14 2.224244382e-14 0)
(1.721349638e-14 3.057171055e-14 0)
(1.833180627e-14 3.905819242e-14 0)
(1.887072869e-14 4.686097668e-14 0)
(1.882553759e-14 5.322619867e-14 0)
(1.826038595e-14 5.759389728e-14 0)
(1.727631923e-14 5.964719233e-14 0)
(1.598730396e-14 5.931393487e-14 0)
(1.450323099e-14 5.67386156e-14 0)
(1.291913706e-14 5.22327129e-14 0)
(1.131175876e-14 4.622505008e-14 0)
(9.737069214e-15 3.92108807e-14 0)
(8.232852921e-15 3.170699954e-14 0)
(6.821530839e-15 2.421791301e-14 0)
(5.514495858e-15 1.720833483e-14 0)
(4.317846973e-15 1.108242297e-14 0)
(3.243904998e-15 6.170136522e-15 0)
(2.338455173e-15 2.709118198e-15 0)
(1.698717116e-15 6.639585328e-16 0)
(8.644012329e-15 -3.196732911e-14 0)
(8.221645742e-15 -2.636107574e-14 0)
(7.656563379e-15 -2.046245496e-14 0)
(6.94248406e-15 -1.45505956e-14 0)
(6.111190636e-15 -8.991148113e-15 0)
(5.278645807e-15 -4.144169494e-15 0)
(4.672667583e-15 -1.674584792e-16 0)
(4.636728002e-15 3.246077228e-15 0)
(5.412348946e-15 7.078008135e-15 0)