/*--------------------------------*- C++ -*----------------------------------*\
  =========                 |
  \\      /  F ield         | OpenFOAM: The Open Source CFD Toolbox
   \\    /   O peration     | Website:  https://openfoam.org
    \\  /    A nd           | Version:  8
     \\/     M anipulation  |
\*---------------------------------------------------------------------------*/
FoamFile
{
    version     2.0;
    format      ascii;
    class       scalarField;
    location    "0.2/lagrangian/reactingCloud1";
    object      d;
}
// * * * * * * * * * * * * * * * * * * * * * * * * * * * * * * * * * * * * * //


65
(
0.0005298021088
0.0006452117243
0.0005887422545
0.001012405139
0.0007981773752
0.001140543855
0.0005008881275
0.0009105329714
0.0006314915633
0.0005359989418
0.000551024999
0.0006825346606
0.0005422732665
0.0007905071563
0.0009077092675
0.0007115236446
0.0006488612148
0.001044933881
0.0006233571696
0.0005129687218
0.0006029437577
0.001092578476
0.0006183914934
0.0005003174016
0.0006162908846
0.0007333494227
0.0006215264975
0.0006771506146
0.0005216235091
0.0007074127226
0.0005820021559
0.0006626903456
0.0005851430126
0.000769129551
0.0007191508156
0.0005691039947
0.0005234640289
0.0005904385876
0.000742986804
0.0005515407599
0.0005920047692
0.0006035632653
0.001089396173
0.0005917148202
0.0006029782903
0.0007925246869
0.000559412244
0.0005046543162
0.0006043836141
0.0005226696961
0.0005209213335
0.0006524410633
0.0006873456865
0.0007012910442
0.0007722289343
0.0008548051909
0.0008514805486
0.0005506456707
0.0005250752483
0.0006932736462
0.0006864974306
0.0006333563611
0.000507869593
0.0007590051002
0.0005454347907
)


// ************************************************************************* //
