/*--------------------------------*- C++ -*----------------------------------*\
  =========                 |
  \\      /  F ield         | OpenFOAM: The Open Source CFD Toolbox
   \\    /   O peration     | Website:  https://openfoam.org
    \\  /    A nd           | Version:  8
     \\/     M anipulation  |
\*---------------------------------------------------------------------------*/
FoamFile
{
    version     2.0;
    format      ascii;
    class       scalarField;
    location    "0.2/lagrangian/reactingCloud1";
    object      nParticle;
}
// * * * * * * * * * * * * * * * * * * * * * * * * * * * * * * * * * * * * * //


65
(
7959.958896
3543.742815
4664.373587
917.288447
1871.848549
641.5536494
102.6833163
1309.012541
101.7907072
104.1610181
5691.634702
101.3486202
112.8251644
100.3524237
101.7420515
100.2025869
100.9701283
101.0353401
112.0168958
101.2446309
125.1492407
102.127163
100.6793535
102.0379878
108.2330912
106.7501146
101.9415957
105.5498801
100.1416631
103.1314364
116.8082564
3450.393219
101.7543945
102.1552499
101.5895911
5088.44348
213.1192952
140.7517836
100.2146253
100.3194741
115.3918386
100.6646862
708.0945949
102.5225649
100.2502871
100.4519404
100.0439656
106.0958124
100.1418257
6521.791069
100.7975588
100.6195866
100.0818288
101.0408782
110.3567804
1523.938689
100.3353329
101.1218202
560.7356084
101.2874588
100.2486849
100.2441266
141.9560815
2195.028255
101.3819861
)


// ************************************************************************* //
