/*--------------------------------*- C++ -*----------------------------------*\
  =========                 |
  \\      /  F ield         | OpenFOAM: The Open Source CFD Toolbox
   \\    /   O peration     | Website:  https://openfoam.org
    \\  /    A nd           | Version:  8
     \\/     M anipulation  |
\*---------------------------------------------------------------------------*/
FoamFile
{
    version     2.0;
    format      ascii;
    class       Cloud<basicReactingMultiphaseParcel>;
    location    "0.2/lagrangian/reactingCloud1";
    object      positions;
}
// * * * * * * * * * * * * * * * * * * * * * * * * * * * * * * * * * * * * * //

65
(
(0.1178286627 0.003161618817 0.00708118014 0.8719285384) 8840 25900 1
(0.3542401071 0.02716886629 0.2326746467 0.3859163799) 8945 26213 2
(0.2148667296 0.1537193798 0.2149368393 0.4164770512) 7854 23010 1
(0.005800854481 0.01883769156 0.1625900213 0.8127714326) 9742 28544 1
(0.1520398017 0.5219368785 0.08059580975 0.2454275101) 19804 58542 2
(0.5057643677 0.1022028601 0.3643855795 0.02764719271) 19986 59080 1
(0.09370117106 0.2985817649 0.207473114 0.40024395) 55758 169497 2
(0.7283273887 0.05307532356 0.0943716125 0.1242256753) 64022 189772 2
(0.09675647482 0.5682873184 0.1827765087 0.1521796981) 57636 174158 1
(0.2356105327 0.2616135222 0.1996310851 0.3031448601) 57736 174385 1
(0.5167896321 0.1030177175 0.3676768367 0.01251581375) 63792 189189 2
(0.01596926275 0.1001883947 0.2063298246 0.6775125179) 57946 174870 1
(0.2287570221 0.1149715266 0.3038238423 0.352447609) 58059 175131 2
(0.06710544565 0.09730534993 0.1393010458 0.6962881587) 57956 174892 2
(0.2557826398 0.004423871075 0.3979548056 0.3418386835) 57640 174166 1
(0.4064447721 0.5054092925 0.08318299138 0.004962943945) 58060 175135 1
(0.3504127717 0.0135965871 0.6333527186 0.002637922597) 57844 174640 2
(0.20303736 0.1918942306 0.5448000981 0.06026831131) 57737 76487 1
(0.2054783555 0.4917545131 0.2088308243 0.09393630719) 24906 76487 2
(0.003965328768 0.3113380493 0.0391484091 0.6455482128) 57857 174663 1
(0.2305280729 0.2733782141 0.3025432889 0.1935504242) 51915 159760 2
(0.5424931181 0.2197264039 0.09088113217 0.1468993458) 58863 158792 1
(0.7422553057 0.07627437592 0.006220327052 0.1752499913) 51928 159782 2
(0.4263646905 0.2743690108 0.08267686057 0.2165894381) 25050 77148 2
(0.3737601908 0.1037373947 0.4083851748 0.1141172398) 58863 158792 1
(0.08284066397 0.1222889851 0.7581759029 0.03669444797) 58863 158792 1
(0.2025770596 0.555560491 0.1817539283 0.06010852117) 51921 159779 1
(0.03912041613 0.8120255016 0.1351099054 0.0137441769) 51535 158783 2
(0.3116303545 0.3618429996 0.0587029525 0.2678236935) 57760 174434 2
(0.1679343484 0.5369202815 0.07767607818 0.2174692919) 51537 158784 1
(0.3663260215 0.2634037472 0.1087371831 0.2615330481) 51537 158784 1
(0.2274552245 0.009767034154 0.4767458004 0.2860319409) 65065 192372 1
(0.2181840342 0.1374146372 0.6412328132 0.003168515326) 51932 159797 1
(0.4858448888 0.04366461889 0.3139210036 0.1565694887) 51537 158793 2
(0.4531834658 0.1053266586 0.3313231666 0.1101667091) 51884 159677 2
(0.5309157701 0.05694595404 0.0218553268 0.390282949) 33306 105873 2
(0.6889704472 0.1394977757 0.001141522857 0.1703902542) 58991 76736 2
(0.5558678891 0.02784756911 0.3428379274 0.07344661441) 58951 177269 2
(0.06950689654 0.356733448 0.1606758274 0.413083828) 51537 158793 2
(0.08091903753 0.2895920479 0.5479950589 0.08149385565) 57587 170845 1
(0.2138820162 0.1268960105 0.4181911481 0.2410308252) 58949 177171 1
(0.1326001486 0.3330053102 0.2539478214 0.2804467198) 51930 159803 2
(0.02388390565 0.1812270797 0.7366326183 0.05825639638) 39012 122985 1
(0.2023972679 0.2187419365 0.3893677609 0.1894930347) 24883 76364 2
(0.1338145372 0.3319288274 0.04223385951 0.4920227758) 51884 159687 1
(0.2897282634 0.3816282724 0.2759085045 0.05273495963) 51536 158793 2
(0.4870343028 0.2317830785 0.2248400652 0.05634255352) 51882 159681 2
(0.5835356208 0.1108102912 0.06718564894 0.238468439) 24883 76366 2
(0.6469282275 0.1743983545 0.02032351196 0.158349906) 51828 159541 2
(0.4129948202 0.01472264459 0.1940130382 0.378269497) 39755 122813 2
(0.6324912991 0.1847795615 0.1100202896 0.07270884976) 51483 158659 2
(0.5232520583 0.3627399442 0.007914723075 0.1060932744) 51536 158793 1
(0.2583597897 0.3015560743 0.255570394 0.184513742) 51832 159540 2
(0.1087675431 0.37848828 0.2721213608 0.2406228161) 51482 76366 1
(0.03616206851 0.3567427758 0.3594670393 0.2476281163) 51770 159395 1
(0.2402074798 0.270261319 0.1483622307 0.3411689705) 20864 62015 1
(0.0936807016 0.6236456136 0.2372532542 0.04542043062) 51536 158794 2
(0.1508626334 0.6882444778 0.06726777763 0.09362511116) 51883 159682 1
(0.2726870751 0.009261671439 0.4856890927 0.2323621607) 51771 159397 1
(0.3304784854 0.1976777436 0.2668761035 0.2049676674) 51709 203113 2
(0.2985182248 0.1507726628 0.4373228845 0.113386228) 51770 203300 1
(0.2020997133 0.4997971927 0.238566168 0.05953692606) 51482 158657 1
(0.1037310065 0.6909628189 0.05070837653 0.1545977981) 51539 158799 2
(0.008447669273 0.2779040118 0.5266726222 0.1869756967) 41328 129757 2
(0.2074198302 0.3915207845 0.3824660226 0.01859336265) 51707 203111 2
)


// ************************************************************************* //
