/*--------------------------------*- C++ -*----------------------------------*\
  =========                 |
  \\      /  F ield         | OpenFOAM: The Open Source CFD Toolbox
   \\    /   O peration     | Website:  https://openfoam.org
    \\  /    A nd           | Version:  8
     \\/     M anipulation  |
\*---------------------------------------------------------------------------*/
FoamFile
{
    version     2.0;
    format      ascii;
    class       scalarField;
    location    "0.2/lagrangian/reactingCloud1";
    object      rho;
}
// * * * * * * * * * * * * * * * * * * * * * * * * * * * * * * * * * * * * * //


65
(
1000
1000
1000
1000
1000
1000
994.5114682
1000
994.5114692
994.5114692
1000
994.5114691
994.5114691
994.5114691
994.5114695
994.5114689
994.5114695
994.5114697
994.5114698
994.5114689
994.5114845
994.51147
994.5114819
994.5114784
994.51147
994.5114701
994.5114742
994.5114702
994.5114687
994.5114702
994.5114703
1000
994.5114715
994.5114704
994.5114698
1000
994.511475
994.5114742
994.5114705
994.51147
994.5114742
994.51147
1000
994.5114692
994.5114695
994.5114707
994.5114708
994.5114692
994.51147
1000
994.5114695
994.5114708
994.5114699
994.5114692
994.511471
1000
994.5114709
994.51147
994.5114692
994.5114728
994.51147
994.5114694
994.5114729
1000
994.5114713
)


// ************************************************************************* //
