/*--------------------------------*- C++ -*----------------------------------*\
  =========                 |
  \\      /  F ield         | OpenFOAM: The Open Source CFD Toolbox
   \\    /   O peration     | Website:  https://openfoam.org
    \\  /    A nd           | Version:  8
     \\/     M anipulation  |
\*---------------------------------------------------------------------------*/
FoamFile
{
    version     2.0;
    format      ascii;
    class       vectorField;
    location    "0.2/lagrangian/reactingCloud1";
    object      U;
}
// * * * * * * * * * * * * * * * * * * * * * * * * * * * * * * * * * * * * * //


65
(
(0.8256241532 0.4505125991 -2.887601185)
(0.550022002 0.6683157393 -2.971119329)
(0.5404031962 0.3343681606 -3.08296996)
(0.773408793 0.5338389191 -3.082538852)
(0.9212590424 0.6696507278 -2.659748948)
(0.4765847625 1.106991544 -2.640429115)
(0.1749526808 0.009036411456 -0.7725928169)
(0.6842568378 0.6293510922 -2.413725309)
(0.1194548362 0.09034963133 -0.6003055112)
(0.2096405241 0.2187153127 -0.5694241857)
(1.124904112 0.1959862999 -2.162357912)
(0.4205418753 0.5481805606 -0.5518316285)
(0.5082916666 0.6700709298 -0.523004839)
(0.5470454025 0.5931855539 -0.5274483881)
(0.1187264536 -0.03044309727 -0.5023280881)
(0.7438523166 0.7714776258 -0.4708023306)
(0.4899595892 0.3725306491 -0.4719636167)
(0.2085220173 0.1302498464 -0.4612203355)
(0.1884847972 0.09062931304 -0.4475238034)
(0.8408008469 0.5142038975 -0.5349793069)
(-0.2523692213 0.04737426096 -0.4018424185)
(0.1983330002 0.02170591345 -0.3917001621)
(-0.1334854138 0.1047062059 -0.3843209161)
(0.3531511963 -0.1387345856 -0.3827142584)
(0.1931805458 -0.007063393699 -0.3784906207)
(0.185515409 -0.03517193674 -0.3586458464)
(-0.3715253548 0.1772944337 -0.3385143247)
(0.1672638664 -0.06283930771 -0.340503265)
(0.9272204043 0.4677150184 -0.4938030924)
(0.1454017064 -0.09259481055 -0.3196561192)
(0.123563887 -0.1152090188 -0.3052158929)
(0.1604464823 0.7499917256 -2.42406725)
(-0.1925051388 0.103245695 -0.2980911774)
(0.1006708314 -0.1461417178 -0.2780076396)
(0.02661501227 0.03050316793 -0.2759432501)
(0.6733909317 0.2375866275 -2.288557167)
(0.1933590552 -0.1845844026 -0.2654605585)
(0.2108691413 -0.2248469665 -0.2648548643)
(0.07017637105 -0.1743556501 -0.2495558625)
(0.9512609179 0.07993202616 -0.6094753353)
(0.2259577571 -0.2754150428 -0.2413975394)
(-0.1024908257 0.05228839275 -0.2297541116)
(0.6946060452 1.099812614 -1.800644727)
(0.2929051359 0.1426265535 -0.3685223677)
(0.08280956292 -0.04152799271 -0.2191178442)
(0.04245601424 -0.1998797466 -0.2110669812)
(0.1431092468 -0.2136940341 -0.2015151421)
(0.2779260715 0.1489815636 -0.3396060851)
(0.1826683555 -0.2448592564 -0.197252497)
(0.7012695757 0.8276540895 -1.891583514)
(0.4411701361 0.03051913397 -0.1963616864)
(0.01781779172 -0.2128148611 -0.1853499954)
(0.2021248485 -0.3212943716 -0.1412696323)
(0.2986925234 0.1495104741 -0.2776856425)
(0.07141558017 -0.1517266105 -0.1284305709)
(0.1975299236 1.050302793 -2.621734874)
(0.006840755387 -0.2190763576 -0.1174229476)
(0.1200264754 -0.2175730307 -0.1105162842)
(0.3452187228 -0.5865315258 -0.06492893738)
(0.06964615474 -0.1012089046 -0.0634528908)
(0.2446987315 -0.6053401854 -0.05427924403)
(0.3705368217 0.0871298505 -0.04955188307)
(0.09045672431 -0.4565292035 -0.04698467113)
(0.9955783206 0.6457492439 -1.750246839)
(0.09850704816 -0.1632636868 -0.004640734507)
)


// ************************************************************************* //
