/*--------------------------------*- C++ -*----------------------------------*\
  =========                 |
  \\      /  F ield         | OpenFOAM: The Open Source CFD Toolbox
   \\    /   O peration     | Website:  https://openfoam.org
    \\  /    A nd           | Version:  8
     \\/     M anipulation  |
\*---------------------------------------------------------------------------*/
FoamFile
{
    version     2.0;
    format      ascii;
    class       volScalarField;
    location    "1.9";
    object      alphat;
}
// * * * * * * * * * * * * * * * * * * * * * * * * * * * * * * * * * * * * * //

dimensions      [1 -1 -1 0 0 0 0];

internalField   nonuniform List<scalar> 
67193
(
0.0001883394685
0.0001828434796
0.0001762876392
0.000168331296
0.0001584868814
0.0001468861286
0.0001359566865
0.0001320048322
0.0001374002971
0.0001511903785
0.0001786069979
0.0002179830558
0.0002594251565
0.0002510972788
0.0002313534234
0.0002026352128
0.0001736362138
0.0001531822521
0.0001418147855
0.00013848832
0.0001388466679
0.0001392506908
0.0001382748269
0.0001356409516
0.0001315539601
0.0001266901565
0.0001222821292
0.0001195182999
0.0001183599979
0.0001174387754
0.000115305805
0.0001114034892
0.0001056365225
9.205999777e-05
0.0002111330349
0.0002048511392
0.0001982891837
0.0001909357404
0.0001819389816
0.0001709188973
0.0001589759763
0.0001510161995
0.000155232083
0.0001890222661
0.0002372861462
0.0002843237154
0.0003097595148
0.0003022634417
0.000281830309
0.0002522203882
0.0002267610802
0.000208484992
0.0001860071127
0.0001691710969
0.0001620404906
0.0001596405952
0.0001574250831
0.0001537901916
0.0001487621249
0.0001433324467
0.000139198136
0.0001375160527
0.0001374937406
0.0001372635569
0.0001354809701
0.0001317511372
0.0001257892651
0.0001092145548
0.000218509721
0.0002134000172
0.0002090909734
0.0002041489516
0.0001970181709
0.0001869249003
0.0001741779935
0.0001622194066
0.0001684233745
0.0002289175007
0.0002797985484
0.0003224389857
0.000341004351
0.0003296461252
0.0003063319996
0.0002787930809
0.0002739131065
0.0002709538211
0.0002423964055
0.0002070828237
0.0001824731675
0.0001714880534
0.0001666108658
0.0001622086214
0.0001567961536
0.0001511958256
0.0001474422532
0.000146781067
0.0001477400253
0.0001478709004
0.0001458784603
0.0001416312345
0.0001350502612
0.0001170837131
0.0002226316329
0.0002200547433
0.0002197176696
0.0002181742877
0.0002133891164
0.0002045143398
0.0001913955537
0.0001761112173
0.0001812995449
0.0002483023663
0.0002970223904
0.0003419669709
0.0003586848259
0.000344268912
0.0003148459809
0.0002917550011
0.0003241507546
0.0003347304244
0.0003045539543
0.0002580691038
0.0002137506231
0.000185640426
0.0001730221734
0.0001664054066
0.0001604241171
0.0001547133933
0.0001514019533
0.0001517891876
0.000153662322
0.0001540331985
0.0001517084246
0.0001467968136
0.0001394951198
0.0001208607809
0.0002317835809
0.0002311468094
0.0002345546414
0.0002355723814
0.0002325746945
0.0002251257472
0.0002127607435
0.0001958567102
0.0001880916252
0.0002335700015
0.0002824872464
0.0003353235391
0.0003550843165
0.0003409530389
0.0003071439491
0.0003042672033
0.0003813053129
0.0003938503934
0.0003585597192
0.0003074602929
0.0002524334031
0.0002068957935
0.0001807990045
0.0001686212874
0.0001609706842
0.0001549053546
0.0001521656732
0.0001537598192
0.0001564925517
0.0001570082493
0.0001543618721
0.000148943921
0.0001413433679
0.0001233177805
0.0002562901962
0.0002515638464
0.0002544629473
0.0002551365639
0.0002523418407
0.0002459040397
0.000235177937
0.0002193934444
0.0002019889178
0.0002049661622
0.0002356131742
0.0002931665864
0.000325351837
0.0003179524892
0.0002886245441
0.0003378974076
0.0004321937621
0.0004412875327
0.000399106224
0.0003407146847
0.0002813129051
0.0002272082673
0.0001897337682
0.000170187526
0.0001594560986
0.0001526359069
0.0001508989075
0.0001540055194
0.0001574294226
0.0001579193442
0.0001549921374
0.0001494383999
0.0001424915079
0.0001272627167
0.0003018023106
0.0002840465229
0.0002789308739
0.0002752087261
0.0002705896315
0.0002641296974
0.0002548065582
0.0002413494232
0.0002238844722
0.0002081319601
0.0002050689701
0.0002306509852
0.0002635241269
0.0002608283077
0.0002730654871
0.0003464535015
0.0004438042037
0.0004492467847
0.0004032954868
0.0003404109405
0.0002789272597
0.0002263731448
0.000190111278
0.0001693702767
0.0001567940277
0.0001499136094
0.0001502916825
0.0001548047155
0.0001582635284
0.0001584400662
0.0001554279857
0.000150527772
0.0001458274802
0.0001358206801
0.0003615728405
0.0003293106528
0.0003090618243
0.0002959704256
0.0002871037498
0.0002791693301
0.0002702789051
0.0002586557078
0.0002433679983
0.0002272447451
0.0002176328434
0.0002109484626
0.0002122456644
0.0002063132417
0.0002007549397
0.0002599105207
0.0004024264752
0.000398728101
0.0003397965583
0.0002785372608
0.0002273427333
0.0001959197837
0.0001783992824
0.0001655214338
0.000154862317
0.0001508913124
0.0001545358678
0.0001590805991
0.0001614798329
0.0001611389833
0.0001585346839
0.0001553363346
0.0001540239761
0.0001489139812
0.0004235370847
0.0003846519646
0.0003463168772
0.0003188189518
0.0003025166912
0.0002916729759
0.0002820322039
0.0002712690732
0.000257972356
0.0002459768287
0.0002473445284
0.0002265595352
0.0002141887849
0.0002040890441
0.0001937101821
0.0001967023353
0.0002680351781
0.0002530919697
0.0002297210688
0.0002115602067
0.0001985812422
0.0001877132852
0.0001768804508
0.0001661249984
0.000158529857
0.0001599007259
0.0001657542704
0.0001687709999
0.0001696246754
0.0001688807337
0.0001670981543
0.0001657586872
0.0001667589573
0.0001630074279
0.0004820791399
0.0004409373617
0.0003874726529
0.0003438604097
0.0003173209027
0.0003019460408
0.0002906958552
0.0002799311615
0.0002686280151
0.0002728355112
0.0003161140454
0.0002627506976
0.0002328356761
0.0002168408611
0.0002037260319
0.0001949816215
0.0002049624205
0.000208810482
0.0002433577641
0.0002198799331
0.0002002802088
0.0001866544883
0.0001764565053
0.0001698708417
0.0001690116004
0.0001751826024
0.0001811902333
0.0001829488715
0.0001829279433
0.0001820538019
0.0001808224967
0.0001801338803
0.0001810839204
0.0001757640773
0.0005235776494
0.0004814142714
0.0004198053066
0.000364516034
0.0003290558234
0.0003093006377
0.0002963514753
0.0002852457912
0.0002790570066
0.0003373995035
0.0004460693726
0.0003395018397
0.0002685348381
0.0002336013525
0.0002139035021
0.000199943186
0.0001992581645
0.00021180074
0.0003179445021
0.0002713146279
0.0002228172921
0.0001922121331
0.0001796218515
0.0001787851597
0.0001839401511
0.0001915541091
0.0001969383942
0.0001985262914
0.0001984656478
0.0001975529587
0.0001962038559
0.0001948876863
0.0001944255652
0.0001871597328
0.0005277705854
0.0004883442951
0.0004244249322
0.000367592216
0.0003315128854
0.0003116425687
0.000298482494
0.0002876663216
0.0003019844254
0.0004713453992
0.0006224809878
0.0004538566104
0.0003317084527
0.0002615809918
0.0002260649296
0.0002035378079
0.0002051011195
0.0002470201273
0.0004151295733
0.0003595380636
0.000283788275
0.0002202749968
0.0001917068099
0.0001913512624
0.0001988035392
0.0002061059434
0.0002110632763
0.0002129400029
0.0002130614777
0.0002119482228
0.0002099895092
0.0002075549502
0.00020579357
0.0001979356564
0.0004749164703
0.0004488411514
0.0003871631176
0.0003450747363
0.0003230160211
0.0003084169429
0.0002973357
0.0002877034272
0.0003396965666
0.0005825617984
0.000698573001
0.000532588959
0.000388794083
0.0002956930971
0.0002421764274
0.0002075917616
0.0002416565993
0.0003407701196
0.0005214586489
0.0004545885016
0.0003650508386
0.0002744505672
0.0002157419964
0.0002049505339
0.000211609877
0.0002184821007
0.0002232138504
0.0002252703954
0.0002253498529
0.0002237255565
0.0002209289199
0.0002175133716
0.0002154629691
0.0002087814131
0.0003437443002
0.0003626125891
0.000333161964
0.000318804772
0.0003263702557
0.0003068613517
0.0002955214383
0.000285385124
0.0002777833871
0.0003271773779
0.0003680992189
0.0003274305068
0.000307408435
0.000283769454
0.0002495157811
0.0002169147498
0.0003130246965
0.000449433072
0.0006050353759
0.0005340182575
0.0004278161464
0.0003246284054
0.000242852658
0.0002181528955
0.0002226381218
0.0002291755011
0.000233694933
0.0002357001873
0.0002353862003
0.0002328543515
0.0002291536131
0.0002252675049
0.000224370861
0.000219954234
0.0002854791515
0.0003096589303
0.0003096194114
0.0003131449313
0.0003997351676
0.000329754824
0.0002965721151
0.0002833968808
0.0002717306902
0.0002672632702
0.0003141975713
0.0003340554916
0.0003314144119
0.00030856814
0.0002698246835
0.0002285642888
0.0003221541735
0.0004471201413
0.000594050566
0.0005392408973
0.0004221799766
0.000317087688
0.0002459536463
0.0002276737608
0.0002326668891
0.0002388561979
0.000243110453
0.000244803657
0.0002438976533
0.0002398834256
0.000235303858
0.0002317512617
0.000233558423
0.0002310951983
0.0002639220914
0.0002916815575
0.0003026031158
0.0003396182108
0.0005933524404
0.0004667869902
0.0003207730855
0.0002904992959
0.0002755303578
0.0002680765763
0.0003214018623
0.0003504072122
0.0003459608911
0.0003220004455
0.0002853934931
0.0002316054564
0.000192358674
0.0002220327911
0.0003841477158
0.0002897839808
0.0002237300597
0.0002232708606
0.0002267269275
0.0002353486587
0.0002424499844
0.000248198073
0.0002512628071
0.000252218908
0.0002506615564
0.0002454522073
0.0002400787682
0.0002379611638
0.0002437493796
0.0002414627902
0.0002308050022
0.0002672544041
0.0002859155772
0.0002947331116
0.000345978155
0.0002999258602
0.0003091774587
0.0003168074188
0.0003007457899
0.000278437382
0.0003020236247
0.000325937151
0.0003250206175
0.0003069120072
0.0002729767706
0.0002174141906
0.0001751241892
0.000184511876
0.0002794402367
0.0002138079595
0.0002161896009
0.0002597249857
0.0002390604083
0.0002454204036
0.0002519842634
0.0002562390139
0.0002580361766
0.0002583189892
0.0002561201782
0.0002498669594
0.0002440718097
0.000244762836
0.0002551088706
0.000250417084
0.000215415194
0.0002258463197
0.0002459499483
0.0002590661131
0.0002679404331
0.0002794766467
0.00035722494
0.0003783154679
0.0003577813259
0.0003160992177
0.0003070681534
0.0003126931032
0.0003006371888
0.0002722258327
0.0002305758338
0.0001853716666
0.0001657374093
0.0001773334788
0.0001990885243
0.0002108509209
0.000224355471
0.0002361459556
0.000246072894
0.0002543274126
0.0002598061875
0.0002627834171
0.0002635450811
0.000262928477
0.0002603333517
0.0002531949249
0.000247749437
0.0002527369509
0.0002672259667
0.0002577524248
0.0002369915325
0.0002336356697
0.0002237620004
0.0002277921469
0.0002483212874
0.0003286737934
0.0004420169573
0.0004556955454
0.0004249408201
0.0003693467955
0.0003568326073
0.0003626792579
0.000343391944
0.0003065939055
0.0002556267116
0.0001987981523
0.0001697460421
0.0001803704931
0.000202413171
0.0002188666005
0.0002324695854
0.0002448724873
0.0002549082075
0.0002619325126
0.0002662254137
0.0002682002235
0.0002681012103
0.0002669257949
0.0002640127605
0.0002560394602
0.0002514770958
0.0002620142578
0.0002791432478
0.0002638559682
0.0002674708506
0.0002547290277
0.0002404374198
0.0002312994568
0.000271378355
0.0004197814739
0.0005177717912
0.0005245773926
0.0004877680483
0.0004265935998
0.0004059268275
0.0004035411961
0.000376549584
0.0003329831646
0.0002742531881
0.0002071857384
0.000172291059
0.0001840953293
0.0002076746652
0.000224702183
0.0002392733077
0.0002529406665
0.0002616552997
0.0002678011509
0.000271416826
0.000272679139
0.0002719283836
0.0002703725692
0.0002673142591
0.0002587295955
0.0002554217977
0.0002721149695
0.0002896625405
0.0002689135872
0.0002987693724
0.0002873535808
0.0002709361635
0.0002566207155
0.0002636639063
0.0004163914383
0.0005150426595
0.0005272990097
0.0004959127204
0.000440934171
0.0003886477085
0.0003479348818
0.0003040661746
0.0002480248857
0.0001937724173
0.0001627939499
0.0001642622102
0.0001890075188
0.0002120818934
0.0002296876325
0.0002456999021
0.0002612317868
0.0002675263592
0.0002728386313
0.0002759229437
0.0002765377782
0.0002752354104
0.000273427639
0.0002704063242
0.0002615833251
0.000259495669
0.00028127867
0.0002980264239
0.0002726403879
0.0003114405413
0.0003069680012
0.0003022200921
0.0002897395343
0.0002743142611
0.000289442213
0.0003761662659
0.0004177675756
0.0004090947749
0.0003713624613
0.0003253807725
0.0002832749337
0.0002410420746
0.0001982556593
0.0001708960531
0.0001597170918
0.0001672450403
0.0001921963273
0.0002153935909
0.0002340942913
0.0002519860978
0.0002685563516
0.000272815987
0.0002776087179
0.0002801991505
0.0002801652854
0.0002783079603
0.000276292353
0.0002734479311
0.0002648720044
0.0002633392319
0.0002883342743
0.000303961597
0.0002747194505
0.0002921465792
0.0003148960541
0.0003346484678
0.0003250712747
0.0003045781845
0.0002830682586
0.0002920879326
0.0003113120503
0.0003073686954
0.0002807883995
0.0002492561912
0.0002199147037
0.0001950362444
0.0001777337301
0.0001660006705
0.0001624645417
0.0001727939253
0.0001965193685
0.0002183716967
0.0002375644099
0.0002561143633
0.0002725792371
0.0002776756297
0.0002825629722
0.0002846440149
0.0002839122386
0.0002814501141
0.0002791918779
0.0002765763819
0.0002687606981
0.000266403834
0.000292125427
0.0003072851522
0.0002749801845
0.0003129274642
0.0003597027804
0.0003709709404
0.0003594655663
0.0003391831716
0.0003150925466
0.0002909616865
0.0002732699473
0.000257343925
0.0002395048444
0.0002218073776
0.0002055015056
0.0001902324202
0.0001763881157
0.000166435479
0.0001674656135
0.0001805321935
0.0002014996463
0.0002212242069
0.0002397574185
0.0002567142429
0.000272383957
0.0002822451601
0.0002877547459
0.0002894148423
0.0002880231391
0.0002849483542
0.0002823651505
0.0002799087359
0.0002732643489
0.0002685443492
0.0002914931845
0.0003078256312
0.0002734071096
0.0002811391994
0.0003522652672
0.0003838796826
0.0003918636524
0.0003834330298
0.0003664025607
0.0003446603557
0.0003203647496
0.0002954253063
0.0002718761228
0.0002503729232
0.000230021146
0.0002104523924
0.0001915510736
0.0001746854041
0.0001662413541
0.0001750463777
0.0001910118101
0.0002077897439
0.0002248360637
0.0002424656262
0.0002590084519
0.0002752054276
0.0002865199979
0.0002926738338
0.0002943293232
0.0002925541667
0.0002890016379
0.0002860241615
0.0002835398094
0.00027823803
0.00027149166
0.0002860111142
0.0003048799416
0.0002700076132
0.0002832838284
0.0003466938262
0.0003743578566
0.0003824645995
0.000376642393
0.0003637366896
0.0003462724763
0.0003256995287
0.0003030301172
0.0002789324445
0.0002554257467
0.0002321539403
0.0002093712817
0.0001882651363
0.0001717546283
0.0001693894203
0.0001879356281
0.0002037209218
0.0002152462784
0.0002298098166
0.0002459300885
0.0002616318559
0.0002779694301
0.0002899052355
0.0002968135365
0.0002990141812
0.0002973363723
0.0002936222497
0.000290282906
0.0002875381954
0.0002833779916
0.0002762744903
0.0002778042193
0.0002954175595
0.0002647596053
0.0002860421037
0.000326548481
0.0003702248545
0.0003694724475
0.000363341257
0.0003520715749
0.0003361135327
0.0003164692188
0.0002940227322
0.000270458342
0.0002472666996
0.0002239631264
0.0002016655165
0.0001820423383
0.0001692528305
0.000176715036
0.0002051736741
0.0002171861824
0.0002244806359
0.0002368079121
0.0002509249447
0.0002646360046
0.0002792720275
0.0002909370222
0.0002988238273
0.0003024936909
0.0003017116264
0.0002983912714
0.0002949532278
0.0002918267715
0.0002881812679
0.000281898628
0.0002705469113
0.0002613931238
0.000244448981
0.0002839481999
0.0003041499632
0.0003397510672
0.0003466832658
0.0003529089287
0.0003366330437
0.0003173053652
0.0002963093352
0.0002743693949
0.0002521910988
0.000229818306
0.0002085981274
0.0001901177039
0.0001748787946
0.000168239814
0.0001883642296
0.0002246675956
0.0002304207106
0.0002350131173
0.000246105334
0.0002588050732
0.0002704089769
0.0002804785546
0.0002892003555
0.0002968602716
0.0003029112456
0.0003041375715
0.0003020030702
0.0002990436089
0.0002956441344
0.0002912982484
0.0002840195987
0.0002692598619
0.0002548730219
0.0002354031833
0.0002844579927
0.0003176131288
0.0003356354826
0.0003310058049
0.0003117352471
0.0002907678396
0.0002707823645
0.0002506090572
0.000230465407
0.0002112009815
0.0001950973213
0.0001814795395
0.0001698785504
0.0001694017064
0.0002020120107
0.0002418823168
0.0002420896809
0.0002455953546
0.0002570309391
0.0002702824171
0.0002809178153
0.000285730904
0.0002885079817
0.0002913300926
0.0002975985183
0.0003014388177
0.0003011947789
0.0002989951554
0.0002955032243
0.0002902392885
0.0002815199521
0.0002659171795
0.0002500738996
0.0002299080706
0.0002701225231
0.0002896097801
0.0003027633059
0.0002935082182
0.0002763618907
0.0002591055713
0.0002418803902
0.0002249683307
0.0002089350864
0.0001962532076
0.000185623421
0.0001756955396
0.000292724401
0.0002869016361
0.0002905841058
0.0002914351436
0.0002902560863
0.0002870664298
0.0002812598515
0.0002717747748
0.0002580546784
0.0002432725829
0.0002247843594
0.0002712256611
0.0002599255818
0.0002448054971
0.0002297839678
0.0002158446744
0.00020393474
0.0002066309984
0.0001971594705
0.000186088452
0.0001736801265
0.0001603198659
0.0001474347299
0.0001384606554
0.0001382722358
0.0001449074136
0.0001536582886
0.0001640843148
0.0001857341826
0.0002090371578
0.0002042920006
0.0001862197346
0.0001647746712
0.0001485444254
0.0001398803317
0.0001390889569
0.0001423420817
0.0001458112122
0.000147217629
0.0001459005816
0.0001420855851
0.0001366176147
0.0001307965772
0.0001259247645
0.0001226892195
0.0001207765994
0.0001190370099
0.0001161316371
0.0001113875564
0.0001044970342
8.727205142e-05
0.0005922587624
0.0005302271378
0.0004620660954
0.0003948473624
0.0003344264821
0.0002875070467
0.000262434138
0.0002655098355
0.0002853237159
0.000306601808
0.0003416313508
0.0004334846808
0.0004883936177
0.0004487866004
0.0003509155382
0.0002793283083
0.000264223857
0.0002730580892
0.000305083204
0.0003455574671
0.0003809950379
0.0003997931764
0.0003968643551
0.0003744673307
0.0003425455536
0.000315300138
0.0003027078425
0.0003032938394
0.0003064707858
0.0003007362637
0.0002792422506
0.0002425218194
0.000193266259
0.0001021577584
0.0007159915072
0.0006406846718
0.000557914994
0.000475053412
0.0003989334333
0.0003365993409
0.0002950950042
0.0002801406263
0.0002877611743
0.0003222391276
0.000446631257
0.0006078234894
0.0006711923346
0.0006198462264
0.0005092254409
0.0003805243668
0.0003423277651
0.0003412695143
0.0003674145968
0.0004134171604
0.0004618639922
0.0004947240487
0.0005010378139
0.0004790402566
0.0004407722351
0.0004084075117
0.0003997435712
0.0004124497239
0.0004265200494
0.0004213174008
0.0003864456547
0.0003237043394
0.0002406930209
0.0001111097523
0.000735090021
0.0006685919542
0.0005956207003
0.0005163796964
0.0004366034729
0.0003659275545
0.0003125693403
0.0002815072779
0.0002771071902
0.0003301387792
0.0005249716677
0.0007119953905
0.0007771961361
0.0007147713669
0.0005820029816
0.0004781885093
0.0004858030294
0.0004797436795
0.0004581962922
0.0004631963141
0.0004895416324
0.0005182142606
0.0005300881183
0.0005148650489
0.0004805080943
0.0004519954487
0.0004521372685
0.0004781507916
0.0005028816772
0.0004994651218
0.0004557793261
0.0003745173855
0.0002672435964
0.0001154677328
0.0006958208407
0.0006561277114
0.000612495654
0.0005517923955
0.0004761746915
0.000398873388
0.0003341955189
0.0002914162302
0.0002783672913
0.0003257798978
0.0005080741209
0.0006934649918
0.0007645331214
0.0007064331161
0.0005802740104
0.0005912056936
0.000717525522
0.0007214651301
0.0006053308862
0.000541902942
0.0005143234289
0.0005062351283
0.0005062659877
0.0004919787094
0.0004638258571
0.0004440017542
0.0004561743568
0.0004959353285
0.00053070688
0.0005298425941
0.0004809532506
0.0003883369757
0.0002688327805
0.0001177712855
0.0006444350112
0.0006377380647
0.0006300946606
0.0005949254598
0.0005308688931
0.0004499658382
0.0003722311978
0.0003168639963
0.0002946470092
0.0003172630397
0.0004217322092
0.0005693491329
0.0006406080659
0.0005941401313
0.0005042092003
0.000709372255
0.0009282609724
0.0009510426999
0.0007859418331
0.0006158165639
0.0005482655928
0.0004869193249
0.00045602094
0.0004310984984
0.0004053854243
0.000395720082
0.0004221713919
0.0004757943003
0.0005190433597
0.000519667834
0.000466766104
0.0003682208824
0.0002487192727
0.0001215499891
0.0006337008994
0.0006463429442
0.0006595665806
0.0006411581546
0.0005943456587
0.0005199648918
0.0004321600709
0.0003613521006
0.0003279457413
0.0003333474037
0.0003716223138
0.0004321600781
0.0004680861819
0.0004260094108
0.0004166964614
0.0007095751882
0.0009550809802
0.0009879888644
0.0008230967288
0.0006275874666
0.0005342666597
0.0004538729864
0.0003970107579
0.0003572725099
0.0003314800644
0.0003325275781
0.0003733133786
0.00043717271
0.0004836279557
0.000482131248
0.0004255837314
0.0003278099992
0.0002254844402
0.0001305613674
0.0006740353887
0.0007010016224
0.0007031538571
0.0006805102242
0.0006440594997
0.0005920040372
0.0005083505602
0.0004251519307
0.0003787706909
0.0003760647403
0.0003896903902
0.0003985996442
0.0003792833469
0.0003426630919
0.0003544051234
0.0005611925075
0.0007976865035
0.0008463683021
0.0007111032654
0.0005672443207
0.0004788345144
0.0004102428143
0.0003447110563
0.0002946957185
0.0002709865419
0.0002839495873
0.0003352155272
0.0004002170492
0.0004416733413
0.0004348873433
0.000378899148
0.0002970877974
0.0002228845651
0.000144163419
0.0007842830099
0.0008183456924
0.0007794862393
0.0007324077116
0.0006935115265
0.0006476812238
0.000585542885
0.0005026176184
0.0004462380377
0.0004357652191
0.0004428719772
0.0004434210144
0.0004139312916
0.0003673363901
0.0003435647348
0.0004290141315
0.0005744452391
0.0006403282956
0.0005713212151
0.0005107769103
0.0004467172126
0.0003690559738
0.0002973920654
0.0002529381201
0.0002427668827
0.0002712124958
0.0003273275106
0.0003844344308
0.0004153039161
0.0004045316356
0.0003583465668
0.0003011931437
0.0002463944766
0.0001586910761
0.0009770545211
0.0009799476771
0.000886002021
0.0007916425012
0.0007409597201
0.0006984569981
0.0006511395236
0.0005817358931
0.0005255406066
0.0005284367858
0.0005222710041
0.0005027352304
0.0004672407205
0.0004111375033
0.0003600064541
0.0003866747928
0.0004545841583
0.0005287728035
0.0005169228895
0.000481343478
0.0004118010308
0.0003307659405
0.0002691657465
0.0002449944331
0.0002568183924
0.0003018198662
0.0003601469933
0.000408001511
0.0004295594712
0.0004190870913
0.0003852410445
0.0003427488464
0.0002867954554
0.0001716492825
0.001122934437
0.001104907021
0.0009835736816
0.0008430884529
0.0007785231503
0.0007403434258
0.0007023058762
0.0006536115682
0.0006268297769
0.0008087507567
0.000760897427
0.0005983368885
0.0005106167601
0.0004439194162
0.0003772874483
0.0003756737528
0.0004248359451
0.0004719536428
0.0004806475154
0.0004327454395
0.0003633237172
0.0003020481394
0.0002670572381
0.0002719862605
0.0003095545588
0.0003718210414
0.0004350921332
0.0004791449317
0.0004964974529
0.000487279007
0.0004565508608
0.0004082866655
0.0003327662371
0.0001828496698
0.001133271684
0.001120041957
0.001007401409
0.0008627979509
0.0007972356155
0.0007702064029
0.0007437578394
0.0007158559125
0.0007959966949
0.001291220459
0.001456759578
0.0008695957459
0.0005709802801
0.0004608364627
0.0003729014804
0.0003484022865
0.0003803918912
0.0004344549252
0.0004924597151
0.0004247771226
0.0003374489971
0.0003035565734
0.0002959669943
0.0003287844104
0.0003920790462
0.0004723368724
0.0005428879525
0.0005869591303
0.0006024683867
0.0005904438255
0.0005496409336
0.0004798719541
0.0003770957422
0.0001927929909
0.001039634507
0.001036725737
0.0009412885553
0.0008487330003
0.0007674205104
0.0007862535338
0.0007773319079
0.0007546356125
0.000933494404
0.001508917071
0.001563775274
0.001112834518
0.0006513202328
0.0004734574525
0.0003543113752
0.0003101574772
0.0003497596611
0.0005843089459
0.000775914564
0.0006095813518
0.000378100149
0.0003410292278
0.0003524637746
0.0004080555073
0.0004943319164
0.0005888133649
0.0006624115965
0.0007042508275
0.0007166587139
0.0006979207215
0.000639039543
0.0005424467165
0.0004152166934
0.0002018805829
0.0009225921293
0.0009188662085
0.0008665581502
0.0008428920372
0.0006815778188
0.0007499799975
0.0008002834482
0.0007787641282
0.0008028791879
0.001141204224
0.001122477872
0.0008678755622
0.0006685808616
0.0004904542297
0.0003334532837
0.0002780583137
0.0003750640832
0.0008342723067
0.001076839949
0.0009093446837
0.0004905342596
0.0004135439331
0.0004324731838
0.000505708161
0.0006073862436
0.0007047466876
0.0007698146652
0.0008029891885
0.0008114844302
0.000787104751
0.0007088728094
0.0005886853597
0.0004468281962
0.0002104057962
0.0008252680741
0.000847669955
0.0008406111606
0.0008328443304
0.0009205309494
0.0007764161014
0.0007795206111
0.0007637652282
0.000680071511
0.0007198641536
0.0007816383473
0.0008039417555
0.0007044039948
0.0005298664843
0.0003336151154
0.0002642759689
0.0003885340845
0.0007929353364
0.001000258665
0.0008663277785
0.0005441381019
0.0005236551634
0.0005458523711
0.0006260084048
0.0007270720907
0.0008084633944
0.0008488093289
0.0008697903431
0.0008733542263
0.0008507716281
0.0007551875772
0.0006192204785
0.0004753441234
0.0002185622877
0.0007630706476
0.0008222729887
0.0008045553219
0.0008538679758
0.001394077869
0.001290418678
0.0007277811431
0.0007246865891
0.0006637576801
0.000686406148
0.0008057347078
0.0008304466512
0.0007335026609
0.0005435329655
0.0003408499106
0.0002622078055
0.0003745182562
0.0005382633972
0.0006598955291
0.0005925681494
0.0006368108919
0.0006408810002
0.000727454421
0.0007808608853
0.0008489548964
0.0008889002145
0.0009115511789
0.0009245166511
0.0009216935442
0.0008932558615
0.0007818732266
0.0006396882226
0.0005058898051
0.0002265306563
0.0006629059804
0.0008008615011
0.000846081662
0.000900500872
0.0008626829923
0.0007944531057
0.0008092494453
0.0007551146602
0.0006488555602
0.0006413306114
0.0007481140651
0.0007807148785
0.0006828988158
0.0004999878799
0.0003105131853
0.0002333481994
0.0002697938283
0.0003633995337
0.0004528728713
0.00058184905
0.0006786599992
0.0008868315458
0.0008109582212
0.0009185979132
0.0009405941156
0.0009536763256
0.0009605421179
0.0009686828121
0.0009586779913
0.0009230018032
0.0007952030704
0.0006571920729
0.0005426497652
0.0002345400801
0.0005875488996
0.0007520105027
0.0008010502613
0.0008437641892
0.0008455909138
0.0008600192075
0.0008351862818
0.0007918299839
0.0006938523675
0.0006274963797
0.0006860633009
0.0007050942273
0.0005852743199
0.0004027872602
0.0002685578752
0.0002290669785
0.0002619755832
0.000350767516
0.0004668202148
0.0006267591572
0.0007749035801
0.0009269980782
0.0009774906699
0.0009876207537
0.0009966334441
0.0009967279107
0.000992310629
0.0009876862369
0.0009752677635
0.000938554907
0.0007995197684
0.0006779180837
0.0005861821799
0.0002426989871
0.0006902615172
0.0008461819236
0.0007429592984
0.0007371518751
0.0007737907484
0.0008834964052
0.0009636766211
0.0009608641771
0.0008308678388
0.0007226709444
0.0007665917536
0.0007667046838
0.0006181732602
0.0004146334084
0.0002714998344
0.0002372423159
0.0002623221749
0.0003407180986
0.0004770082423
0.0006568474201
0.0008202100772
0.0009539926301
0.001008223301
0.00103027455
0.001032705005
0.001022458578
0.001008110534
0.0009951535829
0.000981354119
0.0009456885964
0.0008021430213
0.0007072755533
0.0006292273451
0.0002506943897
0.0009424650703
0.0009079307817
0.000804841161
0.0007694311949
0.0008341610538
0.001046957205
0.001190485216
0.001193943676
0.001040952337
0.0008915743394
0.0008576690698
0.0007978026051
0.0006264093601
0.0004072444869
0.0002685995543
0.0002401718808
0.0002640056076
0.0003424364946
0.0004964246686
0.0006901673084
0.0008710643289
0.0009928993545
0.001046378197
0.00106176898
0.001054616494
0.001034647796
0.00101181774
0.0009933148321
0.0009793793914
0.0009476219892
0.0008091059282
0.0007470378058
0.0006633197694
0.0002575916374
0.001152830935
0.001134017328
0.001070834002
0.0009775584464
0.0009747205693
0.001150975903
0.001257464345
0.001229627045
0.001048093585
0.0008593614705
0.0007352790686
0.0005880829555
0.0004510960894
0.0003338492081
0.000271500063
0.0002515737717
0.0002725320862
0.0003554254079
0.0005166417799
0.0007213673655
0.0009226719824
0.001031856435
0.001077288734
0.001083836179
0.001066736277
0.001037491018
0.001006943097
0.0009841436964
0.0009713570507
0.0009466351672
0.0008251057353
0.0007928330404
0.0006949722817
0.0002626511291
0.001304472145
0.001312190761
0.001285169867
0.001237754803
0.001127837559
0.001092404249
0.001102801415
0.001041874608
0.000861401915
0.0006361231495
0.000491756991
0.0004140892117
0.0003695787531
0.0003419792934
0.0003190138922
0.0002952413304
0.0003072024425
0.0003844798345
0.0005437092016
0.0007550048057
0.0009659849438
0.001069817452
0.001106372712
0.00110321551
0.001075667222
0.00103686616
0.0009985140151
0.0009715159858
0.0009601179321
0.0009446041094
0.0008513300073
0.0008330432701
0.0007195772217
0.0002655679941
0.001487735883
0.001514493393
0.001478509196
0.001415872368
0.001286815066
0.001083434434
0.0009006509929
0.0007625680145
0.0006459278083
0.0005635733456
0.0005158636368
0.000484791623
0.0004538727984
0.0004338867566
0.0003986998695
0.000353009022
0.000358136721
0.0004303890418
0.0005822929974
0.0007939326807
0.0009994049113
0.001100797783
0.001132499745
0.001122361107
0.001086100131
0.001038133493
0.0009917775644
0.0009598459519
0.0009487806992
0.0009427239274
0.0008833641315
0.0008588666861
0.0007362856988
0.0002663891949
0.0016306317
0.001706301078
0.001657066701
0.001593125484
0.001474332409
0.001306931618
0.001120346376
0.0009473897231
0.000820611757
0.0007219173058
0.0006401195781
0.0005666321225
0.0005025662313
0.000468311924
0.0004252689494
0.0003914235421
0.00041786383
0.0004902653382
0.00063070735
0.0008272373073
0.001025085164
0.001123621795
0.001155380591
0.001142679061
0.001100989217
0.001045555838
0.0009917525873
0.0009540306774
0.0009410410117
0.0009420017195
0.0009165545875
0.00088041704
0.0007485838222
0.0002653481162
0.001525467783
0.001648418402
0.00172703994
0.001738586734
0.001710323907
0.001598144014
0.001463674978
0.001319855214
0.001179233882
0.001022490119
0.0008520862582
0.0007026098621
0.0005840860253
0.0004948958388