/*--------------------------------*- C++ -*----------------------------------*\
  =========                 |
  \\      /  F ield         | OpenFOAM: The Open Source CFD Toolbox
   \\    /   O peration     | Website:  https://openfoam.org
    \\  /    A nd           | Version:  8
     \\/     M anipulation  |
\*---------------------------------------------------------------------------*/
FoamFile
{
    version     2.0;
    format      ascii;
    class       volScalarField;
    location    "1.9";
    object      htcConv;
}
// * * * * * * * * * * * * * * * * * * * * * * * * * * * * * * * * * * * * * //

dimensions      [1 0 -1 1 0 0 0];

internalField   uniform 0;

boundaryField
{
    walls
    {
        type            calculated;
        value           uniform 0;
    }
    region0_to_wallFilmRegion_wallFilmFace
    {
        type            convectiveHeatTransfer;
        L               1;
        value           nonuniform List<scalar> 
1019
(
1.083707541
1.343959935
2.041590525
2.326879606
1.900046898
2.23895935
2.688177905
3.013796756
3.354422705
3.698231792
3.994961031
4.242647072
4.394163487
4.400646451
4.255469616
3.944707144
3.028499299
2.121342491
2.12862577
1.811238546
1.584738026
2.167688705
2.250391681
2.413914242
2.285563459
2.103590615
1.873485748
1.642151846
1.613109836
1.636898645
1.842775283
2.272549629
2.506493038
2.64351208
1.986860955
2.266370573
2.684876932
2.985022406
3.271634329
3.535587712
3.769318665
3.965224476
4.102770917
4.133039747
4.00667372
3.673640145
3.002602296
2.267688486
2.206324173
2.084291662
1.311923344
2.025416284
2.197636903
2.226474948
2.400000956
2.346662298
2.183402049
2.240569845
2.193449682
2.047312277
2.714768446
2.520148882
2.539679299
2.639358409
2.05330656
2.29592656
2.702821825
3.009259208
3.293311471
3.542580929
3.753503657
3.917047717
4.021812052
4.029833738
3.892002273
3.564745344
3.047678824
2.681211439
2.588613619
1.86621618
1.617320767
1.690372127
2.4522085
2.366709765
2.523060948
2.669135042
2.83557028
2.872892898
2.902620992
2.676527645
2.761859684
2.648353228
2.84248982
2.888906726
2.74655707
2.088762148
2.30866852
2.708696764
3.025278041
3.310724307
3.547223196
3.730954044
3.860668835
3.942667254
3.949380463
3.837636422
3.563142064
3.151408011
2.807083581
2.714360342
2.744375811
1.650482982
1.447428332
2.081832395
2.229580297
2.406746353
2.737528155
2.969826171
3.093532314
3.159878195
2.964989592
2.942536453
3.196715506
3.173991315
3.100596494
2.919075515
2.076679646
2.283146513
2.674592486
2.999822972
3.291740309
3.528263606
3.703680183
3.815669646
3.880968866
3.889849737
3.821906409
3.673217957
3.527804551
3.544633608
3.871255984
3.840842782
3.029231828
2.055773437
2.139819853
1.864878388
2.177674756
2.763339523
3.064754818
3.240775291
3.317635308
3.172101597
3.201982392
3.328683883
3.30086508
3.185395733
2.995924883
2.003135453
2.210941058
2.59033281
2.919416901
3.221553867
3.471673283
3.659011802
3.779275528
3.835560759
3.838742347
3.779717588
3.663721069
3.563813711
3.635992854
4.136442861
4.054426833
3.112803072
2.474001306
1.59230518
2.10248811
1.828438274
2.819775228
3.169031353
3.324871629
3.401216472
3.280680806
3.292289415
3.328975929
3.297805139
3.159838562
2.989321941
1.848942268
2.082724062
2.451640066
2.778721663
3.090876683
3.363357134
3.575329787
3.717371648
3.790357381
3.795665178
3.730907751
3.591305979
3.41163967
3.490853858
3.67952596
4.122832093
2.800139053
2.990586236
3.002344864
3.161622201
2.91949627
3.029836716
3.240453056
3.364077316
3.431040706
3.325123462
3.312086164
3.290917078
3.218979701
3.073258069
2.924729289
1.633000835
1.926794996
2.284073229
2.583828953
2.888908893
3.192678448
3.444649837
3.618727248
3.7147671
3.725176551
3.639817272
3.446516401
3.101170322
3.288044142
3.3760178
3.566353348
3.110621432
3.328626272
3.36699659
3.399487073
3.278749996
3.324188983
3.355482903
3.385382736
3.422933741
3.324290835
3.288118053
3.21393535
3.106985492
2.96612614
2.839991532
1.489171276
1.787759652
2.110315134
2.328941307
2.589780002
2.941395976
3.262183917
3.488659663
3.649570201
3.746192458
3.71339906
3.398053137
2.508817732
2.955420418
3.155222397
3.257535128
3.183720544
3.417391142
3.489074466
3.496891681
3.385171803
3.492133151
3.417762352
3.377901586
3.372236211
3.285282397
3.221250031
3.105218448
2.985247403
2.854379796
1.540278601
1.801894925
2.08801943
2.18114267
2.278806416
2.651952098
3.046961866
3.29922981
3.469463352
3.568306153
3.628871832
3.761306868
3.415808855
2.596721495
2.501618129
2.631163872
2.866221363
3.234858294
3.222766581
3.191701547
3.15291693
3.475402255
3.359988449
3.294614563
3.26864356
3.189004106
3.109533896
2.973296299
2.856778204
2.74896612
1.765965068
1.89601863
2.247171738
2.336054912
2.277643072
2.438574409
2.891604435
3.284616814
3.74573525
4.373452828
5.327003649
6.137975906
5.915675509
3.43574099
2.551993305
2.371728064
2.690756261
3.050989654
2.986383386
3.0866539
3.897133479
3.449561348
3.255655761
3.140240203
3.116274551
3.041397596
2.95922452
2.824021243
2.722193768
2.634359236
1.853750421
2.175202342
2.485466998
2.493671819
2.349481875
2.203721525
2.473537769
2.950593964
3.399563059
3.916567758
4.539639599
5.120403263
4.874114183
2.812596543
3.095273632
2.726246995
2.852205407
3.077329005
3.093674239
3.218169341
3.639359257
3.267404749
3.132269303
2.9476402
2.926199874
2.857737269
2.779764726
2.659793462
2.571611354
2.501457954
2.086332722
2.501588661
2.698215121
2.613823531
2.411812279
2.161734982
1.898642179
2.57052286
3.047902781
3.448477707
3.858529508
4.232026817
4.135239804
2.952135557
3.1942767
2.914604509
2.986192228
3.135612162
3.221207569
3.277049767
3.32448936
3.067900412
2.933311578
2.72569058
2.703680526
2.65503083
2.582880228
2.486775026
2.411788853
2.285250136
2.578848977
2.751244402
2.650441797
2.406622603
2.058304979
1.529050864
2.365026872
2.793114213
3.084546819
3.370675567
3.591180067
3.541676764
2.956840339
3.120571898
2.984326443
2.998897626
3.058814816
3.215379998
3.181471262
2.917756747
2.871209567
2.678493094
2.504721358
2.486897984
2.470260984
2.403127996
2.331451565
2.264037035
2.461780877
2.613527852
2.81182496
2.709987803
2.415075259
1.946720322
1.802629312
2.325763331
2.61844979
2.809557791
3.000274324
3.157056929
3.129955543
2.794925422
2.813457179
2.839983636
2.785622634
2.790923684
2.954938745
2.83400357
2.61200095
2.69781938
2.530253965
2.422018905
2.377251714
2.348637331
2.251627606
2.152298638
2.065124739
2.503863249
2.556478666
2.726890822
2.622595605
2.369697793
2.409521681
2.378481809
2.002109761
2.388973555
2.509459904
2.655658789
2.779327898
2.771410568
2.579848265
2.249375169
2.118888625
2.325078765
2.370329404
2.534242482
2.444903274
2.437399791
2.554252851
2.440332873
2.372631603
2.325069955
2.289768716
2.217102348
2.152734243
2.082240141
2.420116805
2.526835499
2.794085342
2.944836405
3.007200371
3.043344089
2.914050583
2.51631972
1.466632398
2.394885013
2.64382019
2.890915973
2.858093935
2.809712042
2.411347628
1.905420251
2.191477496
2.199937907
2.341673696
2.288678079
2.352073574
2.433548006
2.381717262
2.358435856
2.338045683
2.32268408
2.297006504
2.255119926
2.171853767
2.306827317
2.540228247
2.937018722
3.252068918
3.353289575
3.268110469
3.042016739
2.407276821
1.592435019
2.210413325
2.352579953
2.680530607
3.20012573
3.47790428
3.08040787
2.003808163
2.008010329
2.074068721
2.191097791
2.198919317
2.271426062
2.333512024
2.346245751
2.362846883
2.381105186
2.396551798
2.396040384
2.361437518
2.277489367
2.18573891
2.474462066
2.889739797
3.231544619
3.388297877
3.335771004
3.106201653
2.398851665
2.478427336
3.01995109
3.640525298
4.230759026
4.527091576
4.469951901
4.311504449
2.976174346
1.732204744
1.676824788
1.951886109
2.063628734
2.241959886
2.325483915
2.370318197
2.40145201
2.433486525
2.461504677
2.470755337
2.440520394
2.357019782
2.073753849
2.344228875
2.731943251
3.044506116
3.263570082
3.276263009
3.059409742
2.492703588
2.668548643
3.022972718
3.52657058
4.060549738
4.364655404
4.311106682
4.037765382
2.301052704
2.017096183
1.597401929
2.141319102
2.210059749
2.350345339
2.416978533
2.452367774
2.475534298
2.500054874
2.514990384
2.514905517
2.479432808
2.390941526
1.994689284
2.206371996
2.528028719
2.809557976
3.021037476
3.089493276
2.893386645
2.500865962
2.678359016
2.903132271
3.290029617
3.702820536
4.068449534
4.131263088
3.475096353
2.005039447
2.284993037
2.01727274
2.33020546
2.349686394
2.467063798
2.513527143
2.518763411
2.5204021
2.53170506
2.522162745
2.499536784
2.44959582
2.357170581
1.950243211
2.100585589
2.337278893
2.559171387
2.749957282
2.823638783
2.681734867
2.478152624
2.638622759
2.803653059
3.099812529
3.428350721
3.677824623
3.727338396
3.211918879
2.912101121
2.308027457
1.783333114
2.441250055
2.457517935
2.559779994
2.552339076
2.499103364
2.493551425
2.502631405
2.468028435
2.41423582
2.3442874
2.253501284
1.923119749
2.023579884
2.195131263
2.341613363
2.487609338
2.565608053
2.501858581
2.436712823
2.582009611
2.738185115
2.983118861
3.243395739
3.427374604
3.428411494
3.15205718
3.024858981
2.854709573
2.501965432
2.631062671
2.61722727
2.629993052
2.594944459
2.534276682
2.499634171
2.456641788
2.381368379
2.280456095
2.167356078
2.064144024
1.893658454
1.954597139
2.086062211
2.179412287
2.274873948
2.341270027
2.344397822
2.368273935
2.514340691
2.693194528
2.921489977
3.130863976
3.265850357
3.27858916
3.16267234
3.091387952
2.913168695
2.737384127
2.759640304
2.727275722
2.701070176
2.647605201
2.573153138
2.494247381
2.398586975
2.273490529
2.118331204
1.943061426
1.800061998
1.770783128
1.843740738
1.874419857
1.981385698
2.043626575
2.105193245
2.153410259
2.18926565
2.267365645
2.438764345
2.653443975
2.879090226
3.063012165
3.179588183
3.216567045
3.185932099
3.137247128
3.026542704
2.914473918
2.87699356
2.825091489
2.769960171
2.696280021
2.601394795
2.486410032
2.346263119
2.175002217
1.971493208
1.7388428
1.483029672
1.362898714
1.759250269
1.771113731
1.863694659
1.907825535
1.95021727
1.988621308
2.0524741
2.194487416
2.42076892
2.663961977
2.877441139
3.039557995
3.1469751
3.200156787
3.206899452
3.178486313
3.108562779
3.030342231
2.976799805
2.914942411
2.842424368
2.751819241
2.637920528
2.497578828
2.327088525
2.125002778
1.899531139
1.670013518
1.455438189
1.375689864
1.636492606
1.648299378
1.738003897
1.7769876
1.818585583
1.871705323
1.981833216
2.178766
2.431062568
2.675629993
2.880210473
3.037102869
3.147180794
3.212632802
3.236943667
3.226065862
3.177923771
3.116394766
3.060052368
2.99438945
2.91451855
2.814272562
2.688582983
2.534122677
2.349850479
2.141642921
1.932328434
1.766877422
1.668119333
1.647119644
1.491842363
1.532964948
1.640370363
1.69414796
1.757138538
1.839563599
1.976183259
2.173485095
2.408547139
2.647350657
2.861274924
3.0328685
3.157949254
3.238929607
3.279895295
3.284538322
3.243257746
3.18761291
3.137660769
3.072357493
2.988509773
2.881166616
2.747014617
2.585384749
2.400931637
2.210325903
2.049231929
1.956145135
1.920006277
1.922985518
1.360354329
1.458529924
1.604105221
1.686314292
1.775878843
1.87682273
2.012314099
2.189225925
2.404625461
2.639582291
2.86177701
3.045502513
3.182948751
3.276380373
3.329396499
3.345638727
3.318051326
3.269400276
3.21885624
3.149882057
3.058472035
2.940351574
2.793949931
2.622571393
2.439490605
2.275924746
2.173929648
2.126684792
2.119834217
2.133752285
1.275723665
1.435547227
1.622755844
1.731166916
1.838149458
1.945258109
2.073137353
2.235264632
2.439313277
2.670744637
2.894948334
3.083721103
3.228219352
3.330484412
3.394290967
3.420602405
3.408200417
3.371579087
3.322158428
3.24889554
3.145251811
3.00519688
2.826632323
2.61752148
2.408247495
2.264296241
2.243425571
2.237959222
2.251245022
2.270450923
1.226207017
1.435020073
1.656801637
1.784588689
1.901955635
2.012563675
2.139211178
2.300208872
2.505203702
2.737004695
2.959467186
3.146376291
3.290762611
3.395109403
3.462932208
3.495507514
3.493076601
3.462441273
3.407376426
3.319428375
3.190540088
3.014380984
2.786784032
2.509686064
2.221096904
2.080336473
2.207905446
2.257053645
2.294993805
2.326237808
1.216521364
1.455825524
1.700057025
1.843042082
1.972525264
2.095506213
2.235712212
2.410962304
2.625207013
2.855452427
3.068104439
3.24446921
3.381941164
3.483495403
3.551390966
3.585556591
3.585021924
3.551025395
3.483630801
3.38097902
3.237285308
3.041957626
2.785171284
2.455655188
2.042993251
1.766399113
2.082870343
2.198471757
2.275386688
2.318172524
1.209960947
1.451438245
1.704028618
1.859489948
2.00967477
2.165974568
2.351265503
2.570726203
2.807880855
3.033141989
3.226669352
3.384218874
3.50825136
3.600894976
3.661963804
3.689565669
3.682387038
3.641202765
3.563211135
3.442988033
3.287344462
3.089561762
2.837685506
2.514869442
2.080912522
1.527604682
1.61331185
1.939825549
2.113741042
2.219767295
1.254498636
1.499722675
1.703350022
1.831699707
1.989793195
2.20151094
2.479847995
2.781244428
3.046232791
3.253783754
3.415869498
3.548580768
3.659092465
3.745140337
3.799374414
3.814787553
3.786307735
3.714554682
3.612834316
3.482343978
3.318391878
3.114253229
2.861534332
2.551681643
2.173180584
1.851539559
1.512897284
1.87952979
2.194289721
2.417838466
)
;
    }
    region0_to_wallFilmRegion_mirrorFace
    {
        type            convectiveHeatTransfer;
        L               1;
        value           nonuniform List<scalar> 
133
(
4.181216834
4.624562389
4.594098018
9.07711023
4.788784472
4.69151442
4.693134964
6.762618985
4.593764242
4.740583637
5.039905124
4.59509532
4.994878025
4.51971557
4.128918808
4.448934203
4.12943893
3.898305711
4.39586222
4.282505739
4.612849841
5.125705116
4.481716177
4.606752582
4.5643488
4.620438751
4.679959523
6.046756876
5.668198149
4.650676877
4.592485735
4.417286442
4.603364295
4.66116765
4.570182612
4.576978118
7.722484702
5.208047063
9.838360174
4.68697327
4.674142133
4.797116638
4.90826709
9.95899525
6.573820607
6.782110214
4.65741078
4.622914271
4.874546011
4.688786181
4.311552967
4.331960216
4.069875635
2.181734135
4.071770916
3.917336435
3.2298104
4.203112898
4.091584003
4.094611864
4.864051751
4.481298605
4.479321891
4.456046833
4.392956011
5.003065515
5.281681579
4.698626532
4.669065187
4.582119381
4.625311589
4.706923369
5.05032873
5.761271671
5.091105978
5.724993054
6.903888738
4.75757813
2.654756422
4.132393184
2.251933354
2.215205411
4.270019067
4.309279008
2.320085036
1.79583968
4.348691715
2.78073684
4.454092397
4.958617232
7.477205736
5.259882937
5.117025807
4.683984404
4.76492519
4.467128568
32.32046363
4.939902434
4.57887076
4.690437337
4.606296877
4.647850388
4.697203651
4.782376307
5.456706319
5.34713445
5.352715498
4.616001724
4.652120157
4.767807376
4.92949438
4.659724096
5.341616653
4.814854755
4.559684483
4.405868218
4.93953315
4.432613
4.765588124
4.566019346
4.855966909
4.806314092
4.346405133
4.58459049
4.27281298
4.347797513
5.77146196
7.451397394
6.641721113
4.235889114
5.528119071
4.512464391
4.118124957
)
;
    }
    procBoundary3to0
    {
        type            processor;
        value           uniform 0;
    }
    procBoundary3to1
    {
        type            processor;
        value           uniform 0;
    }
    procBoundary3to2
    {
        type            processor;
        value           uniform 0;
    }
}


// ************************************************************************* //
