/*--------------------------------*- C++ -*----------------------------------*\
  =========                 |
  \\      /  F ield         | OpenFOAM: The Open Source CFD Toolbox
   \\    /   O peration     | Website:  https://openfoam.org
    \\  /    A nd           | Version:  8
     \\/     M anipulation  |
\*---------------------------------------------------------------------------*/
FoamFile
{
    version     2.0;
    format      ascii;
    class       volScalarField;
    location    "1.9";
    object      O2;
}
// * * * * * * * * * * * * * * * * * * * * * * * * * * * * * * * * * * * * * //

dimensions      [0 0 0 0 0 0 0];

internalField   nonuniform List<scalar> 
67193
(
0.2100006935
0.2100006408
0.2100005743
0.210000507
0.2100004558
0.2100004371
0.2100004437
0.210000441
0.2100004094
0.2100003597
0.2100002918
0.2100001934
0.2099999334
0.2099999898
0.210000125
0.2100002783
0.2100004038
0.2100004985
0.2100005288
0.2100004987
0.2100004352
0.210000356
0.2100002699
0.2100001829
0.2100000998
0.2100000207
0.2099999404
0.2099998614
0.2099998035
0.2099997842
0.2099998077
0.209999881
0.2100000221
0.2100001875
0.2100010603
0.2100009798
0.2100008759
0.2100007573
0.210000633
0.2100005259
0.210000482
0.2100005226
0.2100005887
0.2100005351
0.2100003119
0.2100001437
0.2099999421
0.2099998695
0.2099999545
0.210000196
0.210000517
0.2100008134
0.2100009663
0.2100009544
0.2100008568
0.2100007364
0.2100006125
0.2100004903
0.2100003804
0.2100002963
0.2100002358
0.2100001802
0.2100001252
0.2100000833
0.2100000636
0.2100000764
0.2100001552
0.2100003293
0.2100012826
0.210001187
0.2100010653
0.2100009357
0.2100008015
0.2100006637
0.2100005588
0.2100005459
0.2100006221
0.2100004369
0.2100001536
0.2100001696
0.2100000759
0.2099999601
0.209999933
0.2100001521
0.2100005119
0.2100008778
0.2100011803
0.2100012809
0.2100011945
0.2100010396
0.2100008811
0.2100007273
0.2100005849
0.2100004761
0.2100004118
0.2100003677
0.2100003234
0.2100002841
0.2100002569
0.2100002468
0.2100002754
0.2100003734
0.2100014192
0.2100012841
0.2100011348
0.2100009961
0.2100008723
0.2100007504
0.210000639
0.2100005712
0.2100005708
0.2100002809
0.2100000868
0.2100002597
0.210000187
0.2100000657
0.2100000228
0.2100002308
0.2100004259
0.21000069
0.2100010587
0.2100013603
0.2100014131
0.2100012795
0.2100011002
0.2100009244
0.2100007555
0.2100006182
0.210000539
0.2100004972
0.2100004609
0.2100004287
0.2100004054
0.210000394
0.2100004048
0.2100004484
0.2100015289
0.2100013083
0.2100011361
0.2100009917
0.2100008743
0.2100007684
0.2100006715
0.2100005906
0.2100005341
0.2100002904
0.2100001394
0.2100003191
0.210000262
0.2100001495
0.2100001525
0.2100003826
0.2100003246
0.210000452
0.210000756
0.2100011635
0.2100014239
0.2100014106
0.210001254
0.2100010778
0.2100009
0.2100007418
0.2100006456
0.2100006004
0.2100005689
0.2100005442
0.2100005285
0.2100005245
0.2100005342
0.2100005485
0.210001675
0.2100013367
0.2100011622
0.210001015
0.2100008914
0.210000782
0.2100006834
0.2100006036
0.210000557
0.2100004458
0.2100003446
0.2100003601
0.2100003511
0.2100003211
0.210000409
0.2100004434
0.2100003148
0.2100002899
0.2100005285
0.2100009108
0.2100012581
0.2100013814
0.2100012993
0.2100011589
0.2100010006
0.2100008381
0.2100007306
0.2100006839
0.2100006583
0.2100006417
0.2100006335
0.2100006359
0.2100006444
0.2100006392
0.2100017973
0.2100014539
0.2100012859
0.2100011193
0.210000969
0.2100008395
0.2100007217
0.2100006251
0.2100005888
0.210000584
0.2100006099
0.2100004317
0.2100003221
0.210000418
0.2100005522
0.2100004597
0.210000416
0.210000371
0.2100005976
0.2100008975
0.2100011449
0.2100012466
0.2100012127
0.2100011353
0.210001023
0.2100008746
0.210000774
0.2100007408
0.2100007262
0.2100007144
0.2100007058
0.2100007014
0.2100006944
0.2100006701
0.2100017033
0.2100016563
0.2100014926
0.2100012836
0.2100010874
0.210000928
0.2100007902
0.2100006692
0.2100006235
0.210000626
0.2100008511
0.2100006703
0.210000476
0.2100004557
0.2100005407
0.2100007582
0.2100006779
0.2100007062
0.2100010084
0.2100011915
0.2100012269
0.2100011629
0.2100010945
0.2100010414
0.210000954
0.2100008247
0.2100007588
0.2100007556
0.2100007518
0.2100007361
0.2100007148
0.2100006892
0.210000659
0.2100006318
0.2100012318
0.2100017344
0.2100016539
0.2100014296
0.2100011965
0.2100010069
0.2100008577
0.2100007213
0.2100006952
0.210000669
0.2100013414
0.2100010607
0.2100008084
0.2100006423
0.2100005986
0.2100008183
0.2100009066
0.2100011761
0.2100014857
0.2100014375
0.2100013071
0.2100011666
0.2100010435
0.2100009434
0.210000834
0.2100007331
0.2100007121
0.2100007252
0.2100007207
0.2100006943
0.2100006577
0.2100006161
0.2100005832
0.2100005798
0.2100004262
0.2100014124
0.2100015807
0.2100014495
0.2100012451
0.2100010456
0.2100008957
0.2100007526
0.2100007922
0.2100007922
0.210002171
0.2100017999
0.2100012201
0.2100009153
0.2100007201
0.2100008673
0.2100012296
0.2100014399
0.2100019206
0.2100018119
0.210001501
0.2100012346
0.2100010203
0.2100008643
0.2100007519
0.2100007027
0.2100006987
0.2100006945
0.2100006753
0.2100006394
0.2100005986
0.2100005609
0.210000548
0.2100005652
0.2099995884
0.2100007799
0.210001229
0.2100012763
0.2100011996
0.2100010353
0.2100009042
0.2100007661
0.2100008617
0.2100010667
0.2100014293
0.2100028524
0.2100018495
0.2100012786
0.2100009815
0.2100009976
0.2100014173
0.210001636
0.2100020716
0.2100022922
0.2100018891
0.2100014204
0.2100010686
0.2100008801
0.2100008002
0.2100007826
0.2100007615
0.2100007272
0.2100006901
0.2100006491
0.2100006127
0.210000587
0.2100005901
0.210000598
0.2099993085
0.2100002725
0.21000085
0.210001006
0.2100011214
0.2100010148
0.2100008898
0.2100007656
0.2100007966
0.210000964
0.2099968879
0.2100021934
0.2100024715
0.2100016813
0.2100012794
0.210001236
0.2100016921
0.2100019545
0.2100011862
0.2100021066
0.2100022788
0.2100018073
0.2100012802
0.2100010371
0.2100009631
0.2100009323
0.2100008845
0.2100008294
0.2100007803
0.2100007367
0.2100007042
0.2100006854
0.2100006861
0.2100006551
0.2099999906
0.2100003221
0.2100007893
0.2100008721
0.2100012357
0.2100011628
0.2100009199
0.2100006698
0.2100003653
0.2099994915
0.2099952409
0.2099999508
0.2100016248
0.2100016208
0.2100014623
0.2100015057
0.2100021016
0.2100020285
0.2099997911
0.210000821
0.2100020148
0.2100022366
0.2100016741
0.210001306
0.2100011687
0.2100010937
0.2100010195
0.2100009544
0.2100008996
0.2100008544
0.2100008235
0.2100008058
0.2100007867
0.2100006957
0.2100003813
0.2100005482
0.2100008334
0.2100008979
0.2100017729
0.2100018281
0.2100012399
0.2100008673
0.2100006917
0.210000529
0.2100004203
0.2100005862
0.2100007312
0.2100011148
0.2100014071
0.2100016705
0.2100023752
0.2100013034
0.2099989135
0.2099995201
0.2100011157
0.2100024147
0.2100020625
0.2100016022
0.210001362
0.2100012281
0.210001128
0.2100010589
0.2100010022
0.2100009555
0.2100009257
0.2100009045
0.2100008479
0.2100006857
0.2100003694
0.2100004773
0.2100008121
0.2100010039
0.2100029273
0.2100033769
0.2100016703
0.2100010412
0.2100007159
0.210000539
0.2100000602
0.2100002636
0.2100005346
0.2100010122
0.2100014108
0.2100015648
0.2100026535
0.2100011868
0.2099992857
0.209999321
0.2100007379
0.2100028783
0.2100023057
0.2100018491
0.2100015092
0.210001314
0.2100011898
0.2100011222
0.2100010674
0.2100010184
0.2100009893
0.2100009566
0.2100008437
0.2100006184
0.2100004509
0.2100006289
0.2100011102
0.2100022857
0.2100036241
0.2100122618
0.2100041649
0.2100018571
0.2100010178
0.2100007012
0.2100002569
0.210000177
0.210000418
0.2100009417
0.2100013308
0.2100013465
0.2100032475
0.2100018288
0.2100010641
0.2100019684
0.2100019041
0.2100049133
0.2100026622
0.2100020843
0.2100015721
0.2100013257
0.2100011898
0.2100011367
0.2100010899
0.2100010356
0.2100010051
0.2100009466
0.2100007664
0.2100005179
0.2100003241
0.2100003432
0.2100002311
0.2100002236
0.21000077
0.21000106
0.2100004178
0.2100005701
0.2100006939
0.2100006958
0.2100002998
0.2100002029
0.2100003548
0.2100005555
0.2100007529
0.2100009665
0.210001222
0.2100012202
0.2100010016
0.2100017753
0.2100013017
0.210003611
0.210002132
0.2100018348
0.2100014035
0.2100012114
0.2100011077
0.2100010857
0.2100010565
0.2100009947
0.2100009612
0.2100008615
0.2100006286
0.210000426
0.210000153
0.210000444
0.2100005205
0.2100005922
0.2100009308
0.2100014795
0.2100004804
0.2100003234
0.2100005663
0.2100007966
0.2100003146
0.2100001122
0.2100003676
0.2100007169
0.2100009337
0.2100010598
0.2100013579
0.2100009863
0.2100009464
0.2100010055
0.2100009285
0.2100014749
0.2100012074
0.2100011929
0.2100010477
0.2100009824
0.2100009419
0.2100009278
0.2100009061
0.210000863
0.2100008436
0.2100006989
0.210000466
0.2100003675
0.2099999112
0.2100003854
0.2100000894
0.2100002447
0.2100003478
0.2100002963
0.2099994322
0.2099995882
0.2100000186
0.2100004791
0.2099999132
0.209999626
0.2099998804
0.2100003475
0.2100007792
0.2100009467
0.2100009523
0.2100007329
0.210000661
0.210000769
0.2100007336
0.2100011781
0.2100008987
0.2100008988
0.2100008033
0.210000784
0.210000776
0.2100007741
0.210000757
0.2100007127
0.2100006879
0.2100004905
0.2100003332
0.2100003244
0.209999585
0.2099997007
0.2099998252
0.2100000312
0.2100002144
0.2099999231
0.209999287
0.2099994336
0.2099997189
0.2100000625
0.2099998963
0.2099996683
0.2099997516
0.2100000501
0.2100005225
0.2100007826
0.2100007358
0.210000525
0.2100004814
0.2100004922
0.2100005008
0.2100006045
0.2100005887
0.2100005937
0.2100005829
0.2100005979
0.2100006145
0.2100006209
0.2100006059
0.2100005513
0.2100005065
0.2100002772
0.210000253
0.2100002782
0.2099993719
0.2099995487
0.2099996503
0.2099997863
0.2099999063
0.209999709
0.2099993896
0.2099993837
0.2099996013
0.209999844
0.209999987
0.2100004079
0.2100004507
0.2100006738
0.2100008813
0.2100008772
0.2100006159
0.2100003859
0.2100003557
0.210000353
0.2100003644
0.2100003923
0.2100003904
0.210000389
0.2100004015
0.2100004351
0.210000467
0.2100004795
0.2100004642
0.2100003916
0.2100003153
0.2100001038
0.2100001902
0.2100002233
0.2099992163
0.2099993722
0.2099994867
0.2099996104
0.2099997405
0.2099998768
0.2099996205
0.2099995477
0.2099997012
0.2099999886
0.2100002645
0.2100003419
0.2100005203
0.2100007229
0.2100008383
0.2100007593
0.2100004837
0.2100002907
0.2100002657
0.2100002488
0.2100002437
0.2100002123
0.210000221
0.2100002235
0.2100002468
0.2100002916
0.2100003338
0.2100003513
0.210000336
0.2100002435
0.2100001323
0.2099999861
0.210000128
0.2100001604
0.2099993008
0.2099993494
0.2099992815
0.2099994765
0.2099996116
0.2099997285
0.2099997309
0.2099997763
0.2099999404
0.2100001415
0.2100002933
0.2100004244
0.2100005665
0.2100006701
0.2100007276
0.2100006194
0.2100003501
0.2100002092
0.2100001912
0.2100001624
0.2100001324
0.2100000686
0.2100000779
0.2100000843
0.2100001125
0.2100001633
0.2100002126
0.2100002355
0.2100002233
0.2100001174
0.2099999749
0.2099999085
0.2100000636
0.2100000941
0.2099991952
0.2099992768
0.2099990528
0.2099993047
0.2099994854
0.2099996084
0.2099997014
0.209999808
0.2099999312
0.2100000361
0.2100001283
0.2100002408
0.2100004094
0.2100005336
0.2100005912
0.2100004652
0.2100002281
0.2100001319
0.2100001169
0.2100000825
0.2100000407
0.2099999987
0.209999975
0.209999971
0.2099999954
0.2100000472
0.2100001007
0.2100001306
0.2100001263
0.2100000224
0.2099998565
0.2099998426
0.2100000022
0.2100000323
0.2099991709
0.2099989063
0.2099988503
0.2099988048
0.2099990436
0.2099992356
0.2099994298
0.2099995826
0.2099997022
0.2099998055
0.2099999016
0.2100000094
0.21000015
0.2100003348
0.2100004771
0.2100005037
0.210000336
0.2100001256
0.2100000479
0.2100000293
0.2099999959
0.2099999517
0.2099999089
0.2099998819
0.2099998737
0.2099998934
0.2099999424
0.2099999974
0.2100000351
0.2100000438
0.2099999627
0.2099997964
0.2099997854
0.2099999506
0.2099999828
0.2099990127
0.2099988823
0.2099988899
0.209998877
0.2099990395
0.2099992188
0.2099993874
0.2099995317
0.209999648
0.2099997403
0.2099998284
0.2099999402
0.2100000978
0.2100002855
0.2100003996
0.2100003728
0.2100001977
0.2100000362
0.209999951
0.2099999225
0.2099998969
0.2099998649
0.2099998331
0.209999809
0.2099997988
0.2099998115
0.2099998535
0.2099999055
0.2099999499
0.2099999748
0.209999937
0.2099998181
0.2099997673
0.209999919
0.2099999548
0.209998975
0.2099989152
0.2099988125
0.2099990008
0.2099991029
0.2099992644
0.209999406
0.2099995348
0.2099996408
0.2099997321
0.2099998309
0.2099999622
0.2100001236
0.2100002759
0.2100003186
0.2100002392
0.2100000777
0.2099999599
0.2099998497
0.2099998045
0.2099997873
0.209999773
0.2099997605
0.2099997534
0.2099997517
0.2099997587
0.2099997894
0.2099998332
0.209999879
0.209999918
0.2099999325
0.209999916
0.2099998562
0.2099998163
0.2099996524
0.2099989672
0.2099990189
0.2099990579
0.2099991455
0.2099992379
0.2099994565
0.2099995174
0.2099995936
0.2099996725
0.2099997648
0.2099998885
0.210000039
0.2100001773
0.2100002607
0.2100002298
0.2100001228
0.2099999867
0.2099998975
0.2099997616
0.2099996975
0.2099996811
0.2099996775
0.2099996815
0.2099997006
0.2099997278
0.2099997429
0.2099997608
0.2099997919
0.2099998307
0.2099998677
0.2099998895
0.2099998837
0.2099998207
0.2099997658
0.2099994524
0.2099990407
0.2099990001
0.2099991069
0.2099993575
0.2099994918
0.2099995764
0.2099996565
0.2099997501
0.2099998719
0.2100000094
0.2100001173
0.2100001812
0.210000188
0.2100001096
0.2100000269
0.2099999233
0.2099998471
0.2099996986
0.2099996222
0.2099995992
0.209999592
0.2099995926
0.2099996209
0.2099996868
0.2099997526
0.2099997661
0.2099997843
0.2099998119
0.209999842
0.2099998643
0.2099998657
0.2099998175
0.209999766
0.2099993672
0.2099991282
0.2099991503
0.2099993295
0.2099995075
0.2099996092
0.2099996949
0.2099997931
0.2099999057
0.2100000045
0.2100000571
0.2100000812
0.2100000874
0.2099995716
0.2099997212
0.2099997621
0.2099997778
0.2099997949
0.2099998139
0.2099998248
0.2099998162
0.2099997834
0.2099997577
0.2099993549
0.2099994171
0.2099996051
0.2099997434
0.20999986
0.2099999376
0.2099999453
0.2100006359
0.2100005766
0.2100005092
0.2100004544
0.2100004305
0.2100004417
0.2100004629
0.2100004614
0.2100004289
0.210000365
0.2100003002
0.2100002324
0.2100001899
0.2100001856
0.2100001946
0.2100002223
0.2100002778
0.2100003269
0.2100003485
0.21000034
0.2100003051
0.2100002493
0.2100001794
0.2100001028
0.2100000249
0.2099999442
0.2099998548
0.2099997644
0.2099997044
0.2099997046
0.2099997687
0.2099998872
0.2100000564
0.2100002001
0.2100010205
0.2100009197
0.2100007973
0.210000671
0.2100005621
0.2100004982
0.2100005055
0.2100005665
0.2100006213
0.2100005953
0.2100005122
0.2100004703
0.2100004694
0.2100004142
0.2100003579
0.2100003751
0.2100005149
0.2100006482
0.2100007155
0.2100007257
0.2100006916
0.2100006241
0.2100005327
0.2100004302
0.2100003327
0.2100002512
0.2100001808
0.2100001114
0.2100000526
0.2100000256
0.2100000399
0.210000097
0.2100002144
0.2100004005
0.2100012906
0.2100011692
0.2100010196
0.2100008609
0.2100007109
0.2100005924
0.2100005458
0.2100005881
0.2100006782
0.2100006548
0.2100006332
0.2100006893
0.2100006971
0.2100006612
0.2100006495
0.2100006068
0.2100007151
0.2100008788
0.2100009517
0.2100009806
0.2100009615
0.2100009025
0.2100008072
0.2100006893
0.2100005713
0.210000477
0.2100004107
0.2100003561
0.2100003082
0.2100002782
0.2100002722
0.2100002902
0.2100003426
0.2100004492
0.2100014601
0.2100013239
0.2100011565
0.2100009795
0.2100008118
0.2100006724
0.2100005925
0.2100005896
0.2100006548
0.2100006298
0.2100007017
0.2100008631
0.2100008911
0.2100008434
0.2100008493
0.2100008405
0.2100009339
0.2100011115
0.2100011534
0.2100011525
0.2100011377
0.2100010991
0.2100010162
0.2100008965
0.2100007654
0.2100006579
0.2100005906
0.2100005455
0.2100005071
0.2100004787
0.2100004647
0.210000465
0.2100004811
0.2100005185
0.2100015201
0.2100013859
0.2100012225
0.2100010433
0.2100008649
0.2100007122
0.2100006137
0.2100005791
0.2100006047
0.2100005922
0.2100007006
0.210000922
0.2100009767
0.2100009383
0.2100009545
0.2100010253
0.2100011823
0.2100013236
0.2100013859
0.2100013514
0.2100012683
0.2100012236
0.2100011556
0.2100010468
0.2100009139
0.2100007982
0.2100007291
0.2100006906
0.21000066
0.2100006355
0.2100006207
0.2100006164
0.2100006167
0.2100006123
0.2100014849
0.2100013861
0.2100012596
0.2100010999
0.2100009177
0.2100007473
0.2100006234
0.2100005648
0.2100005725
0.2100005762
0.2100006458
0.2100008385
0.210000916
0.2100009152
0.2100009367
0.2100011138
0.2100013908
0.2100014165
0.2100014733
0.2100014787
0.2100013668
0.2100012893
0.2100012253
0.210001134
0.2100010092
0.2100008912
0.2100008227
0.2100007922
0.2100007711
0.2100007533
0.2100007408
0.2100007344
0.2100007225
0.2100006915
0.2100014474
0.2100013853
0.2100013176
0.2100011844
0.2100010045
0.2100008173
0.2100006614
0.2100005681
0.2100005624
0.2100005996
0.2100006165
0.2100006741
0.2100007236
0.2100007525
0.210000863
0.2100011401
0.2100015014
0.2100014968
0.2100015308
0.2100015285
0.2100014145
0.210001312
0.2100012327
0.2100011497
0.2100010362
0.2100009218
0.2100008628
0.2100008484
0.2100008403
0.2100008279
0.2100008121
0.210000791
0.2100007558
0.2100007089
0.2100015098
0.2100014374
0.2100014344
0.210001303
0.2100011216
0.2100009205
0.210000738
0.2100006078
0.2100005669
0.2100006311
0.2100006185
0.2100006176
0.2100005866
0.2100006284
0.2100007491
0.2100010759
0.2100014787
0.2100015016
0.2100015042
0.2100014358
0.2100013522
0.210001268
0.2100011796
0.2100010892
0.2100009798
0.210000877
0.2100008446
0.2100008554
0.21000086
0.2100008455
0.2100008135
0.2100007624
0.2100007032
0.210000661
0.2100016051
0.2100014915
0.2100015728
0.2100014211
0.2100012424
0.2100010308
0.2100008309
0.2100006791
0.2100005993
0.210000697
0.2100005721
0.2100006457
0.2100006424
0.2100006629
0.2100007501
0.2100010399
0.2100013384
0.2100014594
0.2100014999
0.2100014478
0.2100013436
0.2100012196
0.2100010859
0.2100009684
0.2100008567
0.2100007829
0.210000786
0.2100008156
0.2100008233
0.2100007975
0.210000745
0.2100006745
0.210000617
0.2100006015
0.2100016997
0.210001409
0.2100016385
0.2100014777
0.2100013242
0.2100011154
0.2100009164
0.2100007634
0.2100006744
0.2100008011
0.2100005321
0.210000563
0.2100006429
0.2100007234
0.2100007793
0.2100010808
0.2100014047
0.2100015486
0.2100015414
0.2100014305
0.2100012941
0.2100011412
0.2100009741
0.2100008429
0.2100007475
0.2100007169
0.2100007359
0.2100007588
0.210000755
0.2100007167
0.210000659
0.2100006001
0.2100005729
0.2100005766
0.2100015754
0.210001143
0.2100015434
0.210001428
0.2100013468
0.2100011565
0.2100009802
0.2100008513
0.2100008627
0.2100007966
0.2100010552
0.2100005098
0.2100005799
0.2100007806
0.210000867
0.2100011622
0.2100015413
0.2100016381
0.210001656
0.2100014223
0.2100012275
0.2100010621
0.2100008978
0.210000794
0.210000739
0.2100007358
0.2100007434
0.2100007413
0.2100007193
0.210000677
0.2100006328
0.2100006009
0.2100005993
0.2100005945
0.2100013008
0.2100008578
0.2100013141
0.2100012779
0.2100013423
0.2100011675
0.2100010164
0.2100008994
0.2100010662
0.2100003031
0.2100024675
0.2100008935
0.2100006586
0.2100008324
0.2100009719
0.2100012771
0.2100017284
0.2100017154
0.2100020177
0.2100015391
0.2100012425
0.2100010514
0.2100009199
0.2100008622
0.2100008358
0.2100008316
0.2100008198
0.2100007972
0.2100007633
0.210000724
0.2100006942
0.2100006785
0.2100006773
0.2100006387
0.2100009393
0.21000069
0.2100010814
0.2100011195
0.2100014203
0.2100012178
0.2100010109
0.2100008464
0.2100009177
0.209999934
0.210002195
0.2100013223
0.210000967
0.2100009653
0.2100011441
0.2100014308
0.2100020663
0.2100017684
0.210002241
0.2100018246
0.2100014826
0.2100012445
0.2100010959
0.2100010323
0.2100009919
0.2100009668
0.2100009388
0.2100009097
0.210000873
0.2100008366
0.2100008103
0.2100007927
0.2100007695
0.2100006885
0.2100007449
0.2100006686
0.2100009583
0.2100010807
0.2100017651
0.2100014775
0.2100009466
0.2100008706
0.2100009038
0.210000458
0.2100011304
0.2100011828
0.2100011607
0.2100012786
0.2100013834
0.210001563
0.2100026059
0.2100018068
0.2100021848
0.2100019
0.2100018147
0.2100019215
0.2100014788
0.2100012879
0.2100011699
0.2100011056
0.2100010626
0.2100010379
0.2100010042
0.2100009671
0.2100009344
0.2100009022
0.2100008454
0.2100007314
0.2100005887
0.2100006134
0.2100007952
0.2100011755
0.2100016463
0.2100025944
0.2100007565
0.210000749
0.2100007777
0.210000742
0.2100009675
0.2100010794
0.2100011536
0.2100014102
0.2100015535
0.210001602
0.2100039624
0.2100020909
0.2100023081
0.2100019957
0.2100017841
0.2100041487
0.2100021733
0.2100016495
0.2100013465
0.2100012204
0.2100011613
0.2100011499
0.2100011229
0.2100010807
0.2100010355
0.2100009818
0.2100008906
0.2100007693
0.2100004689
0.2100005107
0.2100005634
0.2100008097
0.2099964764
0.2100006244
0.2100000063
0.2100006742
0.210000769
0.2100007761
0.210000996
0.210001171
0.2100012738
0.2100020435
0.2100018948
0.2100015123
0.2100044056
0.2100020063
0.2100018818
0.2100020815
0.2100018903
0.2100110632
0.210003482
0.2100020909
0.2100014786
0.2100012802
0.2100012142
0.210001231
0.2100012208
0.2100011641
0.2100010989
0.2100010188
0.2100009052
0.2100008105
0.2100003218
0.2100002432
0.2100001633
0.2100002096
0.2099997003
0.2099998349
0.2099999848
0.2100003687
0.2100005456
0.2100006348
0.2100008166
0.2100009476
0.2100009823
0.2100009479
0.2100009429
0.2100010866
0.2100013141
0.2100012003
0.2100011397
0.2100015275
0.2100012732
0.2100036979
0.2100025913
0.2100017873
0.2100013733
0.2100012357
0.2100012003
0.2100012748
0.2100013029
0.2100012069
0.2100011082
0.2100010032
0.2100008958
0.2100008449
0.2100001592
0.2100002026
0.2100003015
0.2100003954
0.2100004335
0.2100007005
0.21000071
0.2100008137
0.2100007806
0.210000718
0.2100007213
0.2100007677
0.2100008242
0.2100009223
0.2100010168
0.2100011026
0.2100014711
0.2100010403
0.210000976
0.2100009668
0.2100008777
0.2100016368
0.2100012026
0.2100010973
0.2100010414
0.2100010442
0.210001067
0.2100011064
0.2100011225
0.2100010883
0.2100010204
0.210000928
0.2100008692
0.2100008542
0.2099998632
0.2099994614
0.2099999582
0.2100001289
0.2100002173
0.2100002237
0.2100003797
0.2100005925
0.2100007057
0.2100006403
0.2100006081
0.2100006119
0.2100006911
0.210000767
0.2100008723
0.2100009717
0.2100009212
0.2100007528
0.2100007146
0.2100007762
0.2100006809
0.2100011403
0.2100009181
0.2100009106
0.2100008886
0.2100009121
0.2100009545
0.2100010027
0.2100010187
0.2100009878
0.2100009171
0.2100008401
0.21000084
0.2100008538
0.2099996431
0.209999715
0.2099998738
0.2100000628
0.210000253
0.2100002973
0.2100004686
0.2100008425
0.2100008656
0.2100007882
0.2100008578
0.2100008362
0.2100008055
0.2100008465
0.2100009061
0.2100009123
0.2100007611
0.2100005682
0.210000523
0.2100005246
0.2100005002
0.2100006023
0.2100006126
0.2100006638
0.210000712
0.2100007726
0.210000836
0.2100008876
0.2100009046
0.210000876
0.2100008026
0.2100007579
0.2100008029
0.2100008479
0.2099993722
0.2099994814
0.2099996379
0.2099997994
0.20999987
0.2099999095
0.210000153
0.2100003004
0.210000348
0.2100002445
0.2100003063
0.2100003498
0.2100004965
0.2100006809
0.210000857
0.2100008519
0.2100006342
0.2100004375
0.2100003872
0.2100003844
0.2100003849
0.2100004467
0.2100004608
0.2100005101
0.2100005705
0.2100006473
0.2100007244
0.2100007817
0.2100007998
0.2100007682
0.2100006941
0.2100006938
0.2100007686
0.2100008355
0.2099991728
0.2099992883
0.2099994421
0.2099996349
0.2099997968
0.2099999028
0.2100000526
0.2100001992
0.2100002379
0.210000239
0.21000032
0.210000435
0.2100005895
0.2100007587
0.2100008599
0.2100007634
0.2100005112
0.2100003323
0.2100002866
0.2100002779
0.2100002741
0.2100003068
0.2100003142
0.2100003694
0.2100004377
0.2100005266
0.2100006154
0.2100006801
0.2100007013
0.2100006673
0.2100006011
0.2100006399
0.2100007325
0.2100008102
0.2099990743
0.209999152
0.209999329
0.2099995057
0.2099996373
0.2099997391
0.2099998364
0.2099999338
0.2100000299
0.2100001339
0.2100002608
0.2100004262
0.2100006061
0.2100007605
0.2100008054
0.2100006499
0.2100003923
0.210000245
0.2100002078
0.2100001923
0.2100001795
0.2100001908
0.2100001823
0.2100002343
0.2100003066
0.2100004038
0.210000503
0.2100005773
0.2100006052
0.2100005742
0.2100005237
0.2100005818
0.2100006877
0.2100007702
0.2099989787
0.2099988492
0.2099991914
0.2099993627
0.2099995116
0.2099996406
0.2099997527
0.209999867
0.2099999787
0.2100000903
0.2100002178
0.2100003732
0.2100005463
0.2100006937
0.2100007023
0.2100005226
0.2100002903
0.2100001693
0.2100001328
0.2100001072
0.2100000768
0.2100000575
0.2100000603
0.2100001019
0.2100001738
0.2100002747
0.2100003822
0.2100004677
0.2100005073
0.2100004874
0.2100004572
0.2100005189
0.2100006297
0.2100007171
0.2099989931
0.2099989654
0.2099990298
0.2099992752
0.2099995379
0.2099995288
0.2099995975
0.2099996866
0.2099997804
0.2099998831
0.2099999986
0.2100001391
0.210000303
0.2100004721
0.2100005903
0.2100005684
0.2100003971
0.2100002033
0.2100000937
0.2100000485
0.2100000172
0.2099999814
0.2099999522
0.2099999461
0.2099999751
0.2100000412
0.2100001401
0.2100002519
0.2100003483
0.2100004033
0.2100004026
0.21000039
0.2100004442
0.2100005543
0.210000651
0.2099988961
0.209998916
0.209998945
0.2099991089
0.2099992853
0.2099994267
0.2099995525
0.2099996589
0.2099997531
0.2099998509
0.2099999569
0.2100000863
0.2100002421
0.2100003964
0.2100004799
0.2100004363
0.2100002867
0.2100001272
0.2100000124
0.2099999512
0.2099999144
0.209999877
0.2099998454
0.2099998349
0.209999857
0.2099999154
0.2100000077
0.2100001179
0.210000221
0.2100002916
0.2100003147
0.2100003165
0.2100003555
0.2100004568
0.2100005636
0.2099988896
0.2099989382
0.2099990023
0.2099991452
0.2099993185
0.2099994616
0.2099995618
0.2099996459
0.2099997332
0.2099998325
0.2099999444
0.2100000767
0.210000222
0.2100003455
0.2100003834
0.2100003203
0.2100001988
0.2100000609
0.2099999309
0.2099998494
0.2099998044
0.2099997669
0.2099997379
0.20999973
0.2099997534
0.2099998077
0.2099998914
0.2099999938
0.2100000958
0.2100001764
0.2100002228
0.2100002441
0.2100002613
0.2100003101
0.2100004086
0.2099989914
0.2099990623
0.2099990719
0.2099991857
0.2099992706
0.2099994223
0.209999542
0.2099996378
0.2099997421
0.2099998525
0.2099999733
0.2100001017
0.2100002201
0.2100002942
0.2100002813
0.2100002185
0.2100001376
0.2100000074
0.2099998625
0.2099997589
0.2099996995
0.2099996573
0.2099996304
0.209999629
0.2099996633
0.2099997241
0.2099998036
0.2099998957
0.2099999895
0.2100000706
0.210000129
0.2100001649
0.2100001786
0.2100001806
0.2100003442
0.2099991072
0.2099992114
0.2099993417
0.2099993992
0.2099994964
0.209999589
0.2099996936
0.2099998043
0.2099999168
0.2100000248
0.2100001187
0.210000188
0.2100002113
0.2100001733
0.2100001449
0.2100001014
0.2099999683
0.2099998143
0.2099996927
0.2099996136
0.20999956
0.2099995283
0.209999528
0.2099995755
0.2099996573
0.2099997456
0.2099998327
0.2099999176
0.2099999943
0.2100000557
0.2100000977
0.2100001188
0.2100001157
0.2100002254
0.2099992176
0.209999352
0.2099994202
0.2099994801
0.2099995732
0.209999683
0.209999797
0.2099998938
0.2099999683
0.2100000247
0.2100000705
0.2100001024
0.2099994877
0.2099995908
0.2099997043
0.2099997998
0.2099998814
0.209999951
0.2100000057
0.2100000436
0.2100000586
0.2100000556
0.2100001046
0.2099995515
0.2099996107
0.2099996956
0.2099997882
0.2099998522
0.2099998791
0.2100005627
0.2100005092
0.2100004549
0.2100004229
0.2100004259
0.2100004539
0.2100004738
0.2100004631
0.210000425
0.2100003603
0.2100002877
0.210000215
0.2100001613
0.2100001345
0.2100001304
0.210000156
0.2100002116
0.2100002565
0.2100002776
0.210000272
0.2100002418
0.2100001909
0.2100001251
0.2100000508
0.2099999712
0.2099998825
0.2099997804
0.2099996802
0.2099996255
0.2099996538
0.2099997597
0.2099999162
0.2100000924
0.2100002029
0.2100009407
0.2100008386
0.2100007206
0.2100006099
0.2100005326
0.2100005093
0.210000544
0.2100006016
0.210000637
0.210000613
0.2100005534
0.2100005051
0.210000436
0.2100003675
0.2100003563
0.2100004109
0.2100005278
0.2100006242
0.210000676
0.2100006846
0.2100006547
0.2100005915
0.2100005033
0.2100004028
0.2100003037
0.2100002131
0.210000127
0.2100000457
0.2099999901
0.2099999848
0.2100000347
0.2100001307
0.2100002773
0.2100004678
0.2100012449
0.21000111
0.2100009531
0.2100007939
0.2100006602
0.2100005802
0.2100005805
0.2100006451
0.2100007233
0.2100007287
0.2100007238
0.2100007764
0.2100007321
0.2100006457
0.2100006245
0.2100006628
0.210000783
0.2100008952
0.2100009611
0.2100009837
0.2100009636
0.2100009015
0.2100008043
0.2100006874
0.2100005713
0.2100004728
0.2100003934
0.2100003264
0.210000278
0.210000261
0.2100002787
0.2100003259
0.2100004051
0.2100005276
0.2100014828
0.2100013174
0.2100011335
0.2100009405
0.2100007709
0.2100006533
0.2100006156
0.210000651
0.2100007289
0.2100007541
0.2100008331
0.2100010026
0.2100010052
0.2100009073
0.2100008686
0.2100009032
0.210001028
0.210001122
0.2100011839
0.2100012072
0.2100011946
0.2100011398
0.210001043
0.2100009186
0.2100007915
0.2100006869
0.2100006119
0.2100005553
0.2100005124
0.2100004889
0.2100004879
0.2100005064
0.2100005405
0.2100005903
0.210001652
0.2100014591
0.2100012648
0.2100010485
0.2100008502
0.2100007046
0.2100006373
0.2100006407
0.2100006945
0.2100007311
0.2100008641
0.2100010977
0.2100011354
0.2100010582
0.2100010348
0.210001108
0.2100012821
0.2100013311
0.2100013669
0.2100013761
0.2100013546
0.2100013008
0.2100012082
0.2100010848
0.2100009548
0.2100008487
0.210000779
0.2100007316
0.2100006943
0.2100006692
0.2100006594
0.2100006642
0.2100006736
0.2100006752
0.2100017714
0.2100015537
0.2100013719
0.2100011428
0.2100009176
0.2100007421
0.2100006479
0.21000063
0.2100006669
0.2100007063
0.2100008257
0.2100010435
0.2100011064
0.2100010732
0.2100010968
0.2100012406
0.2100014818
0.2100014937
0.2100015093
0.2100014909
0.210001452
0.2100013879
0.2100012963
0.2100011787
0.2100010518
0.2100009483
0.2100008868
0.2100008511
0.2100008232
0.2100008017
0.2100007896
0.2100007849
0.2100007756
0.2100007442
0.2100018781
0.2100016304
0.2100014801
0.2100012474
0.2100009998
0.2100007909
0.2100006671
0.2100006339
0.2100006709
0.2100007224
0.2100007835
0.2100009047
0.2100009544
0.21000097
0.2100010667
0.2100012824
0.2100015797
0.2100015889
0.2100015964
0.2100015659
0.2100015002
0.2100014122
0.2100013106
0.2100011961
0.2100010749
0.2100009781
0.2100009313
0.2100009137
0.2100008994
0.2100008825
0.2100008646
0.2100008412