/*--------------------------------*- C++ -*----------------------------------*\
  =========                 |
  \\      /  F ield         | OpenFOAM: The Open Source CFD Toolbox
   \\    /   O peration     | Website:  https://openfoam.org
    \\  /    A nd           | Version:  8
     \\/     M anipulation  |
\*---------------------------------------------------------------------------*/
FoamFile
{
    version     2.0;
    format      ascii;
    class       surfaceScalarField;
    location    "1.9";
    object      phi;
}
// * * * * * * * * * * * * * * * * * * * * * * * * * * * * * * * * * * * * * //

dimensions      [1 0 -1 0 0 0 0];

internalField   nonuniform List<scalar> 
196504
(
1.838326954e-05
-2.390690787e-05
1.887744075e-05
2.21470128e-05
-2.313886162e-05
1.937621017e-05
2.471543043e-05
-2.248009592e-05
1.991278765e-05
2.587802038e-05
-2.146537563e-05
2.030389734e-05
2.510389615e-05
-1.964632638e-05
2.042154883e-05
2.189558665e-05
-1.695348662e-05
2.016286593e-05
1.621160607e-05
-1.374675067e-05
1.943175884e-05
9.769993128e-06
-1.158270223e-05
1.802528899e-05
3.46580134e-06
-1.078654022e-05
1.709164634e-05
-1.369177528e-06
-1.324616611e-05
1.808199738e-05
-6.131823593e-06
-1.702826392e-05
2.179170251e-05
-2.925686267e-08
-2.515652598e-05
1.905470277e-05
1.66924915e-05
-3.332783115e-05
1.660676829e-05
2.910965001e-05
-3.312641252e-05
2.070988323e-05
3.542592042e-05
-3.089310578e-05
2.457740203e-05
3.485776432e-05
-2.649731568e-05
2.706597442e-05
3.196684202e-05
-2.395198642e-05
2.684335075e-05
3.006080338e-05
-2.264066971e-05
2.454709741e-05
2.857839698e-05
-1.946135018e-05
2.094410117e-05
2.733447167e-05
-1.607312419e-05
1.731735981e-05
2.65521568e-05
-1.37018726e-05
1.448447165e-05
2.608993072e-05
-1.220487229e-05
1.266736204e-05
2.555795901e-05
-1.116883629e-05
1.170105535e-05
2.452709423e-05
-1.028856044e-05
1.131965973e-05
2.26183102e-05
-9.383113214e-06
1.129212163e-05
1.972878878e-05
-8.396517427e-06
1.128625506e-05
1.615776598e-05
-7.51023988e-06
1.108147238e-05
1.258026387e-05
-7.0817566e-06
1.065946404e-05
9.615356676e-06
-7.26102351e-06
1.022613408e-05
7.38497663e-06
-7.797780357e-06
1.002836348e-05
5.565234135e-06
-8.375868993e-06
1.01958144e-05
3.835873387e-06
-8.891910965e-06
1.062147246e-05
1.948979282e-06
-9.27134859e-06
1.115843467e-05
-9.948071634e-06
1.189738442e-05
1.733643154e-05
-4.11270782e-05
1.241573591e-05
2.076020074e-05
-3.982183546e-05
1.32602971e-05
2.31855716e-05
-3.916733366e-05
1.426298127e-05
2.450645856e-05
-3.809317486e-05
1.530803296e-05
2.434567181e-05
-3.587076389e-05
1.638633493e-05
2.235221866e-05
-3.235481744e-05
1.739586884e-05
1.840401547e-05
-2.786621306e-05
1.806870851e-05
1.262359781e-05
-2.380040982e-05
1.79991106e-05
4.963615621e-06
-2.092110058e-05
1.779546232e-05
-1.445276528e-06
-2.407020553e-05
1.723378914e-05
-2.277215082e-06
-2.96696364e-05
1.347411827e-05
7.266051862e-06
-3.728427437e-05
2.585232843e-06
1.996932276e-05
-4.273875717e-05
-3.291664608e-06
2.902969733e-05
-4.261802015e-05
4.318620492e-07
3.334993876e-05
-4.214192532e-05
6.929153777e-06
3.172223261e-05
-3.935197591e-05
1.448288565e-05
2.977067313e-05
-4.190534693e-05
1.990538059e-05
3.073106324e-05
-4.391808499e-05
2.031743087e-05
3.135530576e-05
-3.89850973e-05
1.889985719e-05
3.054851147e-05
-3.130367041e-05
1.603765099e-05
2.911717753e-05
-2.488937984e-05
1.26191228e-05
2.766058013e-05
-2.072279552e-05
9.974781742e-06
2.615333536e-05
-1.818251622e-05
8.521169748e-06
2.427681742e-05
-1.646144502e-05
8.049634793e-06
2.176200211e-05
-1.50590176e-05
8.190941828e-06
1.867821962e-05
-1.376356846e-05
8.451046937e-06
1.553760421e-05
-1.269614623e-05
8.326727458e-06
1.297098598e-05
-1.222658817e-05
7.711649811e-06
1.123652037e-05
-1.251700493e-05
6.990644121e-06
1.013152577e-05
-1.333113329e-05
6.638543629e-06
9.145818897e-06
-1.430025597e-05
6.910289483e-06
7.695331079e-06
-1.526111934e-05
7.819890591e-06
5.063809659e-06
-1.588420246e-05
9.244566358e-06
-1.615261226e-05
1.12685397e-05
1.815134564e-05
-5.586795965e-05
9.536897858e-06
2.179757377e-05
-5.389478496e-05
1.042781675e-05
2.469821928e-05
-5.360700633e-05
1.154015168e-05
2.654490125e-05
-5.27855268e-05
1.284680641e-05
2.676060381e-05
-5.048514708e-05
1.439981053e-05
2.488780788e-05
-4.649605823e-05
1.60151425e-05
2.058901005e-05
-4.113625821e-05
1.756990733e-05
1.304083815e-05
-3.516578545e-05
1.89145536e-05
1.712843618e-06
-2.934941088e-05
1.975724068e-05
-6.850437463e-06
-3.076426736e-05
1.525821929e-05
-4.995803232e-06
-3.560530243e-05
4.081856779e-06
7.060162967e-06
-3.977626858e-05
-9.563218438e-06
2.096234835e-05
-4.224711876e-05
-1.439314047e-05
3.006408223e-05
-4.198221264e-05
-9.73691492e-06
3.308223957e-05
-4.356268243e-05
-1.596829761e-06
2.980328493e-05
-4.335382923e-05
7.281326263e-06
2.955772345e-05
-5.391516601e-05
1.225585316e-05
3.424820495e-05
-5.949055086e-05
1.088241057e-05
3.726869465e-05
-5.476581737e-05
1.276060237e-05
3.645452196e-05
-4.475742777e-05
1.426824961e-05
3.351564345e-05
-3.465700961e-05
1.270679043e-05
3.039344918e-05
-2.73426505e-05
9.742308593e-06
2.765694176e-05
-2.297072347e-05
7.524957927e-06
2.494277228e-05
-2.035300906e-05
6.60596368e-06
2.180369626e-05
-1.85162785e-05
6.596556102e-06
1.820849375e-05
-1.704197873e-05
6.873822177e-06
1.477932168e-05
-1.599161834e-05
6.724844291e-06
1.232662788e-05
-1.572988578e-05
5.956184042e-06
1.107501752e-05
-1.634902984e-05
5.083823291e-06
1.059483086e-05
-1.754969486e-05
4.698933528e-06
1.016404299e-05
-1.891181673e-05
5.042531809e-06
9.055958345e-06
-2.029389043e-05
6.141036475e-06
6.375598679e-06
-2.112094727e-05
7.91728164e-06
-2.047053449e-05
1.069369337e-05
1.892421415e-05
-7.076269242e-05
9.186200896e-06
2.287191951e-05
-6.713484187e-05
9.293458373e-06
2.666210231e-05
-6.711767183e-05
9.721626842e-06
2.953612115e-05
-6.635202757e-05
1.069364494e-05
3.052824708e-05
-6.397344935e-05
1.249733758e-05
2.893970941e-05
-5.973468095e-05
1.482829995e-05
2.429311779e-05
-5.381267269e-05
1.732410411e-05
1.545970065e-05
-4.623590698e-05
1.990457642e-05
1.973486724e-06
-3.720713459e-05
2.134489907e-05
-7.77523492e-06
-3.439989852e-05
1.338523952e-05
-5.56924845e-06
-3.680789595e-05
-1.002547809e-06
6.555858872e-06
-3.681291884e-05
-1.508769375e-05
1.971137346e-05
-3.605568796e-05
-1.934624597e-05
2.768755751e-05
-3.592772038e-05
-1.403003552e-05
2.729204626e-05
-3.959085664e-05
-3.575738789e-06
2.181851198e-05
-4.191601338e-05
4.036240216e-06
2.645550946e-05
-5.811793894e-05
-4.337281523e-07
3.725032368e-05
-6.493749264e-05
-5.34742542e-06
4.425824669e-05
-6.088272741e-05
-8.906085834e-07
4.498558083e-05
-5.190725913e-05
6.42284943e-06
4.074900107e-05
-4.115420145e-05
1.073407356e-05
3.509919363e-05
-3.194405126e-05
1.025147694e-05
3.02204106e-05
-2.607744731e-05
7.985755611e-06
2.610031894e-05
-2.275825616e-05
6.525572261e-06
2.200643198e-05
-2.062921317e-05
6.207041994e-06
1.769391987e-05
-1.906680579e-05
6.337547457e-06
1.379866824e-05
-1.817368276e-05
6.077512486e-06
1.125027621e-05
-1.831532096e-05
5.134013491e-06
1.01859889e-05
-1.941794265e-05
4.133379176e-06
9.950353155e-06
-2.105769586e-05
3.743810441e-06
9.669249124e-06
-2.279391339e-05
4.163369766e-06
8.608260371e-06
-2.461575554e-05
5.383018644e-06
5.989979597e-06
-2.580266841e-05
7.300162866e-06
-2.478908013e-05
1.03086837e-05
1.886167357e-05
-8.781226978e-05
1.060937182e-05
2.337898772e-05
-8.052344281e-05
8.872421025e-06
2.853449548e-05
-8.00735362e-05
7.801526216e-06
3.301113209e-05
-7.862942062e-05
7.801949133e-06
3.539196799e-05
-7.586788601e-05
9.514796088e-06
3.47967287e-05
-7.15405717e-05
1.24023076e-05
3.065484485e-05
-6.557796088e-05
1.590831071e-05
2.25012975e-05
-5.764670618e-05
1.95654241e-05
1.044255219e-05
-4.713553033e-05
2.198813121e-05
-6.524875132e-08
-3.971674895e-05
1.582550275e-05
-1.872103482e-07
-3.86093825e-05
1.924380766e-06
8.599690969e-06
-3.327759848e-05
-1.23214506e-05
1.785028352e-05
-2.807716252e-05
-1.722839658e-05
2.097307515e-05
-2.716553842e-05
-1.188430459e-05
1.27793441e-05
-3.178671492e-05
3.901885435e-07
7.306435115e-06
-3.743850048e-05
9.959498405e-07
2.093459369e-05
-5.324752048e-05
-1.849802286e-05
3.892527858e-05
-5.916413466e-05
-2.376354805e-05
4.972221633e-05
-5.640640121e-05
-1.527282051e-05
5.314046891e-05
-5.009468924e-05
-5.230420867e-06
4.923293379e-05
-4.144453907e-05
4.198220908e-06
4.126707523e-05
-3.313480738e-05
9.156917242e-06
3.363452699e-05
-2.747751354e-05
9.032887e-06
2.75381631e-05
-2.434949302e-05
7.687851845e-06
2.215428668e-05
-2.233707761e-05
7.091973659e-06
1.696710572e-05
-2.087845433e-05
6.999045623e-06
1.261028575e-05
-2.03125488e-05
6.495886071e-06
9.978517627e-06
-2.09421943e-05
5.258827353e-06
8.979076276e-06
-2.247444933e-05
4.056122709e-06
8.742312362e-06
-2.443039186e-05
3.609625164e-06
8.324298661e-06
-2.643523633e-05
4.059493604e-06
7.10203746e-06
-2.873000259e-05
5.336657984e-06
4.608602323e-06
-3.0619053e-05
7.309964231e-06
-3.047284354e-05
1.029250822e-05
1.769667066e-05
-0.0001058217594
1.063635242e-05
2.345249108e-05
-9.357734572e-05
7.299258718e-06
3.021945685e-05
-9.186424093e-05
5.024928533e-06
3.655323435e-05
-8.886247526e-05
3.900490615e-06
4.064460578e-05
-8.527510047e-05
5.317062487e-06
4.154522736e-05
-8.09348398e-05
8.494851832e-06
3.874044923e-05
-7.549861486e-05
1.272660381e-05
3.252297794e-05
-6.864883576e-05
1.722071853e-05
2.443803102e-05
-5.966039265e-05
2.061084885e-05
1.599794609e-05
-5.075561964e-05
1.947990831e-05
1.218333212e-05
-4.625187937e-05
1.145799629e-05
1.539050053e-05
-3.506669531e-05
-1.417289744e-06
1.70059675e-05
-2.14486138e-05
-8.243291065e-06
8.087020148e-06
-1.376397524e-05
-4.481933799e-06
-9.178434586e-06
-2.280262279e-05
8.282010872e-06
-7.677803453e-06
-3.22685445e-05
-6.669951929e-06
1.626130938e-05
-4.25147735e-05
-3.467123183e-05
3.852611299e-05
-4.447843491e-05
-3.694989383e-05
5.191198655e-05
-4.378700939e-05
-2.60047343e-05
5.666890912e-05
-4.088557853e-05
-1.396555993e-05
5.411675347e-05
-3.596409068e-05
-2.927869885e-06
4.575321795e-05
-3.067617467e-05
5.905272517e-06
3.63037707e-05
-2.734286674e-05
9.315127973e-06
2.839346886e-05
-2.573264874e-05
9.293752164e-06
2.161351046e-05
-2.445743101e-05
8.900578116e-06
1.558641984e-05
-2.34987206e-05
8.647598289e-06
1.105079446e-05
-2.353010258e-05
7.753397625e-06
8.564229947e-06
-2.451467318e-05
6.059241283e-06
7.635781547e-06
-2.61386426e-05
4.592821945e-06
7.260801136e-06
-2.812232872e-05
4.06708213e-06
6.541865819e-06
-3.025010849e-05
4.533958909e-06
5.023947838e-06
-3.305552768e-05
5.843583354e-06
2.709846408e-06
-3.615118747e-05
7.846369143e-06
-3.849924153e-05
1.07363756e-05
1.506826903e-05
-0.0001187624273
3.10522691e-06
2.392488478e-05
-0.0001043048612
1.872084903e-06
3.24095282e-05
-0.0001013167761
9.690820499e-07
4.033880039e-05
-9.630150201e-05
-4.890284398e-07
4.589217321e-05
-9.148175186e-05
6.545046845e-07
4.812629435e-05
-8.711283095e-05
3.945083438e-06
4.650647718e-05
-8.244695982e-05
8.569345082e-06
4.139901497e-05
-7.720638748e-05
1.366614978e-05
3.463968721e-05
-7.090005358e-05
1.800005307e-05
2.803811372e-05
-6.347694973e-05
1.932389142e-05
2.393701835e-05
-6.040971553e-05
1.825984222e-05
2.095063728e-05
-4.499945894e-05
1.291997725e-05
1.680979841e-05
-2.616067574e-05
8.85367182e-06
2.705407822e-06
-1.312582458e-05
1.346698443e-05
-1.46641819e-05
-2.038317193e-05
1.495085646e-05
-8.236190873e-06
-2.966233007e-05
-9.03350609e-06
1.602746154e-05
-2.993936555e-05
-3.683833938e-05
3.625405721e-05
-2.587936479e-05
-3.882494387e-05
4.819952106e-05
-2.818002541e-05
-2.755179943e-05
5.139043505e-05
-2.918174843e-05
-1.489414299e-05
4.889782436e-05
-2.974455362e-05
-3.726391799e-06
4.235520698e-05
-2.921400262e-05
5.08092217e-06
3.438288339e-05
-2.894689067e-05
9.576771903e-06
2.670276954e-05
-2.888101461e-05
1.082885618e-05
1.938073307e-05
-2.824921751e-05
1.111415624e-05
1.316630748e-05
-2.811333771e-05
1.082933833e-05
9.16092992e-06
-2.889829772e-05
9.373834215e-06
7.234635672e-06
-2.975165676e-05
7.163507828e-06
6.513528676e-06
-3.092747495e-05
5.510141687e-06
6.055181102e-06
-3.26316575e-05
4.967854842e-06
5.127543928e-06
-3.480675411e-05
5.484441412e-06
3.422470711e-06
-3.819484421e-05
6.844533091e-06
1.40075296e-06
-4.29562286e-05
8.826893109e-06
-4.878601752e-05
1.168766116e-05
9.617728808e-06
-0.0001245706968
-1.309422663e-05
2.596603781e-05
-0.0001115245683
-9.127452922e-06
3.641831609e-05
-0.0001072452373
-4.522636585e-06
4.496656887e-05
-0.0001004752379
-4.373310305e-06
5.110024104e-05
-9.447497003e-05
-3.139239024e-06
5.401648393e-05
-8.980078608e-05
-2.270859831e-07
5.296319587e-05
-8.602392621e-05
4.631426765e-06
4.813197309e-05
-8.246471079e-05
1.009067048e-05
4.081211739e-05
-7.922487521e-05
1.564573151e-05
3.337741501e-05
-7.380027715e-05
1.775901637e-05
3.318871446e-05
-8.062066731e-05
2.040059183e-05
3.026472579e-05
-6.052707914e-05
1.845247007e-05
2.851454181e-05
-4.352063139e-05
1.91109738e-05
2.607351662e-05
-3.240860973e-05
2.172463165e-05
1.039291063e-05
-2.838422581e-05
2.368248086e-05
4.918001734e-06
-3.101710522e-05
6.830495885e-06
1.737733015e-05
-1.843914738e-05
-2.395874411e-05
2.936917437e-05
-1.371198242e-05
-2.415836297e-05
3.965174597e-05
-2.82453843e-05
-1.021636769e-05
4.054201669e-05
-3.006207196e-05
-9.027541237e-09
3.691836717e-05
-3.256272443e-05
6.442557241e-06
3.264501154e-05
-3.401473347e-05
9.074735209e-06
2.792513732e-05
-3.490989293e-05
1.068345483e-05
2.203131478e-05
-3.520520659e-05
1.221852523e-05
1.539065801e-05
-3.476884249e-05
1.316072938e-05
1.011069727e-05
-3.55161946e-05
1.268320883e-05
7.386978393e-06
-3.673998603e-05
1.056574578e-05
6.35936775e-06
-3.683765425e-05
8.113897984e-06
6.116343722e-06
-3.721278864e-05
6.528585573e-06
5.90826155e-06
-3.851735063e-05
6.093988231e-06
5.18474442e-06
-4.07784074e-05
6.695355389e-06
3.708426236e-06
-4.478237201e-05
8.064010569e-06
1.921955287e-06
-5.12065303e-05
1.003692528e-05
-5.985859995e-05
1.299468562e-05
5.163933889e-06
-0.0001196106428
-3.384981182e-05
3.152214861e-05
-0.0001119306919
-2.59509383e-05
4.37147864e-05
-0.0001070412617
-1.239543724e-05
5.122472736e-05
-9.986100647e-05
-8.122982487e-06
5.646341676e-05
-9.382576873e-05
-5.886701709e-06
5.883072115e-05
-8.922022492e-05
-2.946687057e-06
5.74954522e-05
-8.640662286e-05
1.71913252e-06
5.21594421e-05
-8.457787911e-05
7.450266827e-06
4.373992441e-05
-8.543770966e-05
1.463336488e-05
3.636367221e-05
-8.248999477e-05
1.606688043e-05
4.424555838e-05
-0.0001094086369
2.090698536e-05
4.324133198e-05
-7.920229838e-05
1.968029043e-05
3.940604595e-05
-5.868563134e-05
1.900115996e-05
3.436993814e-05
-4.602822883e-05
1.865663951e-05
2.485855856e-05
-3.889849796e-05
2.002662504e-05
1.373127886e-05
-3.627504421e-05
1.638624303e-05
1.276018684e-05
-2.310597177e-05
5.638987559e-06
1.720023974e-05
-2.194576266e-05
3.794830012e-06
2.826906767e-05
-5.049454559e-05
1.118143924e-05
3.403162936e-05
-4.717034111e-05
1.134679776e-05
3.409945831e-05
-4.382251377e-05
1.119297742e-05
3.099010745e-05
-4.218798624e-05
1.128352685e-05
2.570606334e-05
-4.23024901e-05
1.267746319e-05
1.898152858e-05
-4.286776093e-05
1.438780884e-05
1.23550085e-05
-4.303776965e-05
1.489607113e-05
8.079108898e-06
-4.460511123e-05
1.336535151e-05
6.45883199e-06
-4.582692788e-05
1.070767274e-05
6.31034316e-06
-4.5162439e-05
8.473656004e-06
6.841264275e-06
-4.495856019e-05
7.21517256e-06
7.324890118e-06
-4.598981349e-05
6.989110003e-06
7.239534205e-06
-4.837801568e-05
7.685198485e-06
6.242396893e-06
-5.282386087e-05
9.038832125e-06
4.161148669e-06
-6.0264706e-05
1.113961203e-05
-6.999874128e-05
1.430146768e-05
2.962036515e-06
-0.0001023725094
-5.680684948e-05
3.868720117e-05
-0.0001013974048
-4.625720693e-05
5.275273732e-05
-9.812452581e-05
-2.298107577e-05
5.818488833e-05
-9.282232194e-05
-1.246966631e-05
6.154863342e-05
-8.909642007e-05
-8.091951398e-06
6.227750866e-05
-8.537673309e-05
-4.571218557e-06
5.939322846e-05
-8.359313061e-05
7.209135367e-08
5.190534311e-05
-8.340732204e-05
6.318356867e-06
3.90570208e-05
-8.897542215e-05
1.638697323e-05
3.460400463e-05
-9.009505387e-05
1.205880137e-05
5.730383913e-05
-0.000135562251
3.45432023e-06
6.086349239e-05
-0.0001002865801
1.75253272e-05
5.208519243e-05
-7.093526594e-05
2.102886458e-05
4.151991219e-05
-5.406296381e-05
1.860105207e-05
2.822690882e-05
-4.45292977e-05
1.892499799e-05
1.521415017e-05
-4.039256998e-05
1.713161682e-05
1.19316147e-05
-3.818044585e-05
1.835844396e-05
1.342286215e-05
-3.465746592e-05
1.122198501e-05
2.734677705e-05
-7.592079273e-05
1.150391349e-05
3.577491142e-05
-6.797366471e-05
1.237672265e-05
3.483231556e-05
-5.685423881e-05
1.397579701e-05
2.998971862e-05
-5.155012122e-05
1.420607472e-05
2.318600116e-05
-5.098457682e-05
1.548699053e-05
1.607499379e-05
-5.200651731e-05
1.625078595e-05
1.035935402e-05
-5.249102214e-05
1.516975882e-05
7.257528389e-06
-5.388547154e-05
1.238291164e-05
6.424324696e-06
-5.464304254e-05
9.649924266e-06
7.135175404e-06
-5.376793634e-05
7.895152915e-06
8.586740369e-06
-5.34733631e-05
7.063661902e-06
9.937359299e-06
-5.44424161e-05
7.102341023e-06
1.052225687e-05
-5.690734755e-05
7.944739037e-06
9.713849994e-06
-6.146892377e-05
9.453735209e-06
6.689774598e-06
-6.909766871e-05
1.18572764e-05
-7.856404689e-05
1.52553037e-05
-8.279753427e-07
-7.413430402e-05
-7.26307191e-05
4.120968029e-05
-8.013150735e-05
-6.330214841e-05
5.763960407e-05
-8.092591804e-05
-3.362728778e-05
6.197101364e-05
-7.990867297e-05
-1.724392066e-05
6.463480999e-05
-8.144380508e-05
-1.031535643e-05
6.359892779e-05
-7.883752161e-05
-5.502325887e-06
5.791236068e-05
-7.76300714e-05
-2.755075078e-07
4.576771134e-05
-7.795543646e-05
6.693609219e-06
1.944006332e-05
-8.308210401e-05
2.043516481e-05
2.337571975e-05
-9.023148868e-05
-3.79878696e-06
7.52512427e-05
-0.0001352157954
-5.222092652e-05
8.757952164e-05
-0.0001063975742
-6.216992464e-06
7.112216751e-05
-7.460534999e-05
2.012835399e-05
5.263465176e-05
-5.656219231e-05
2.098794179e-05
3.51079765e-05
-4.723657295e-05
2.023542357e-05
2.023688802e-05
-4.385722718e-05
1.833748429e-05
8.781341356e-06
-4.709960473e-05
2.03765858e-05
8.602390275e-06
-4.378241943e-05
9.306002144e-06
3.018357141e-05
-9.329519594e-05
-4.204488029e-06
4.34024683e-05
-8.854715536e-05
7.356838583e-06
4.126576777e-05
-7.232575699e-05
1.761041369e-05
3.293634008e-05
-6.263762458e-05
1.941891319e-05
2.315525582e-05
-6.056164123e-05
1.935987819e-05
1.512707954e-05
-6.141152872e-05
1.743463556e-05
9.916080457e-06
-6.142248466e-05
1.414364545e-05
7.485978768e-06
-6.188387646e-05
1.042946924e-05
7.224738295e-06
-6.215152002e-05
7.770507664e-06
8.674015802e-06
-6.158210404e-05
6.365544518e-06
1.087851678e-05
-6.157801475e-05
5.900697023e-06
1.285679177e-05
-6.268356237e-05
6.263331279e-06
1.372835297e-05
-6.51955276e-05
7.41701043e-06
1.257207196e-05
-6.966265266e-05
9.350349707e-06
8.293959621e-06
-7.703279022e-05
1.221353738e-05
-8.585312561e-05
1.558332579e-05
-7.898400335e-06
-3.992754814e-05
-7.326274811e-05
3.304485403e-05
-5.351411785e-05
-6.755918548e-05
5.20257166e-05
-6.160916095e-05
-3.8296385e-05
5.745978815e-05
-6.527776841e-05
-2.006390773e-05
6.363110447e-05
-7.530010668e-05
-1.231407369e-05
6.241284329e-05
-7.165475137e-05
-5.963665063e-06
5.360587463e-05
-6.875301239e-05
-6.91747555e-08
3.33405174e-05
-6.607078022e-05
8.381434116e-06
-1.229742299e-05
-5.887105754e-05
2.142761156e-05
4.319286139e-06
-6.665642814e-05
-4.019136674e-05
9.38573897e-05
-8.414661093e-05
-0.0001406029588
0.0001148143305
-7.003926632e-05
-5.731459639e-05
9.356209786e-05
-5.577613245e-05
2.423557154e-06
6.523686583e-05
-4.841786337e-05
2.018220195e-05
3.979808141e-05
-4.49958967e-05
2.319990393e-05
1.938220407e-05
-4.576041857e-05
2.232129761e-05
-5.915854469e-07
-5.310286423e-05
2.597937865e-05
6.519532134e-06
-5.38664826e-05
2.975744355e-06
3.985106821e-05
-9.531039246e-05
-3.13130204e-05
5.773205603e-05
-9.551361704e-05
-1.09111174e-05
5.51506954e-05
-8.151078058e-05
1.176977925e-05
4.186413115e-05
-7.135122395e-05
2.20031673e-05
2.686331266e-05
-6.817360168e-05
2.261536677e-05
1.63932932e-05
-6.872246751e-05
1.77830303e-05
1.061714876e-05
-6.817337959e-05
1.252864536e-05
8.369817691e-06
-6.784154794e-05
8.206253157e-06
8.606406544e-06
-6.792194329e-05
5.534833192e-06
1.061333019e-05
-6.787485567e-05
4.286645516e-06
1.327231923e-05
-6.83280223e-05
4.091699857e-06
1.549472393e-05
-6.97254656e-05
4.820073521e-06
1.619009337e-05
-7.234241148e-05
6.45200546e-06
1.424301367e-05
-7.674589609e-05
9.030750333e-06
8.687068628e-06
-8.381620549e-05
1.233974381e-05
-9.225211767e-05
1.508642957e-05
-1.715884358e-05
-1.677980553e-05
-4.762284846e-05
1.564663244e-05
-3.335166312e-05
-5.296663031e-05
3.604747092e-05
-4.945156023e-05
-3.25573291e-05
4.417651316e-05
-5.465715317e-05
-1.874875483e-05
5.978205347e-05
-7.696743844e-05
-1.393741629e-05
6.211552609e-05
-6.799135475e-05
-5.996355516e-06
5.202817662e-05
-5.887008777e-05
2.060161815e-07
2.465923765e-05
-4.90755092e-05
1.037454849e-05
-1.536227763e-05
-3.486493166e-05
1.601605412e-05
8.259015333e-06
-2.449946809e-05
-6.577743482e-05
8.46108879e-05
7.393435594e-07
-0.0001612342923
0.0001127090043
-1.696701366e-05
-8.116907375e-05
0.0001005987275
-3.357122173e-05
-1.009378927e-05
7.300084349e-05
-3.673542881e-05
1.591696893e-05
4.064569304e-05
-3.762212589e-05
2.498356719e-05
8.112444583e-06
-4.122421124e-05
2.799986613e-05
-1.930434883e-05
-5.098826282e-05
2.530479255e-05
5.898722496e-07
-5.733814641e-05
-1.641871499e-05
4.976906968e-05
-8.179333167e-05
-6.269162848e-05
7.319963546e-05
-8.259923507e-05
-3.633969266e-05
7.270416695e-05
-7.493047186e-05
-6.079207666e-06
5.581177757e-05
-7.047582541e-05
1.602182095e-05
3.389675864e-05
-6.938910531e-05
2.313465888e-05
1.930145771e-05
-7.162484258e-05
1.750076388e-05
1.202334803e-05
-7.177150408e-05
1.087843348e-05
9.631726839e-06
-7.150737353e-05
6.05904317e-06
1.022579388e-05
-7.180158428e-05
3.28679657e-06
1.264465838e-05
-7.235349953e-05
2.060763161e-06
1.554792054e-05
-7.332206504e-05
2.091600639e-06
1.772523384e-05
-7.513316755e-05
3.231085078e-06
1.789300702e-05
-7.796620122e-05
5.456615588e-06
1.484862739e-05
-8.245505339e-05
8.754061616e-06
8.106494185e-06
-8.93476719e-05
1.227407568e-05
-9.769331268e-05
1.354815349e-05
-2.148927929e-05
-1.755309983e-05
-1.140103677e-05
2.121811712e-06
-2.713826881e-05
-2.982335329e-05
1.959242719e-05
-4.323990722e-05
-2.368126334e-05
2.97519854e-05
-4.827330333e-05
-1.654271552e-05
5.925416708e-05
-8.482049409e-05
-2.164845714e-05
7.278395116e-05
-7.436816336e-05
-7.153640315e-06
7.091228664e-05
-5.629240927e-05
-7.056981046e-07
6.322209158e-05
-4.654609313e-05
5.161406732e-06
5.433291371e-05
-3.667372653e-05
1.069850388e-05
5.748114192e-05
-1.767085247e-05
-9.976323235e-06
5.954267829e-05
1.85417874e-05
-1.986306871e-05
6.158074315e-05
-1.331382508e-05
-5.690612996e-06
5.856159099e-05
-3.221203218e-05
1.661063394e-06
5.026149473e-05
-3.568800173e-05
7.254453924e-06
2.636153902e-05
-3.334955011e-05
1.962985981e-05
-1.389318749e-05
-3.151988061e-05
3.055382802e-05
-3.379709743e-05
-4.067718859e-05
9.595164938e-06
-2.811204508e-06
-4.644465083e-05
-4.187445676e-05
5.285554316e-05
-5.241867045e-05
-8.503509807e-05
8.056136548e-05
-5.119260051e-05
-5.910439815e-05
8.076202897e-05
-5.270742318e-05
-2.241371321e-05
6.571074389e-05
-5.979628551e-05
4.379978095e-06
3.958896444e-05
-6.306801431e-05
1.980790089e-05
2.181896729e-05
-6.966120736e-05
1.581119291e-05
1.330747912e-05
-7.206805478e-05
8.811080291e-06
1.081990387e-05
-7.284597841e-05
3.828173716e-06
1.169852646e-05
-7.374669003e-05
1.067922774e-06
1.4508964e-05
-7.497765283e-05
-1.851512818e-07
1.757761213e-05
-7.648255429e-05
9.279172859e-08
1.954091351e-05
-7.882666635e-05
1.731013596e-06
1.892411965e-05
-8.19902348e-05
4.641536681e-06
1.456493656e-05
-8.670766236e-05
8.612418992e-06
6.848643354e-06
-9.351193746e-05
1.188113522e-05
-0.0001016879227
1.084382005e-05
-1.986789772e-05
-1.99144761e-05
-3.525667178e-06
-4.925724445e-06
-2.385240758e-05
-1.822689821e-05
3.60918062e-06
-3.170358932e-05
-2.007018963e-05
1.204405796e-05
-3.784599381e-05
-1.886106188e-05
5.870300868e-05
-6.786192329e-05
-6.361655732e-05
8.445281491e-05
-7.362015183e-05
-2.649743009e-05
7.750207239e-05
-4.910858907e-05
-2.305469265e-07
6.568889631e-05
-4.286315132e-05
8.131510473e-06
4.737215251e-05
-3.587294845e-05
1.751677262e-05
3.646348662e-05
-2.503972659e-05
1.827812324e-05
5.474208248e-05
-1.53630385e-05
1.562692695e-05
6.566108158e-05
-2.570101672e-05
1.469053534e-06
6.495110719e-05
-2.879830181e-05
-2.702285764e-06
5.76112167e-05
-2.796149301e-05
-3.843646998e-07
3.339316463e-05
-2.342028922e-05
1.429168356e-05
-8.496495463e-06
-1.955433422e-05
2.992835743e-05
-1.654793483e-05
-2.660491352e-05
-6.019055889e-06
9.220958957e-06
-3.164087708e-05
-4.056716824e-05
4.456914603e-05
-4.153264216e-06
-8.360616355e-05
5.979566576e-05
-4.407349003e-06
-6.200068695e-05
5.713937568e-05
-2.965576872e-05
-2.037784502e-05
5.50748834e-05
-5.555011719e-05
-2.170157662e-06
3.470614253e-05
-5.766879063e-05
1.498206125e-05
2.03126665e-05
-6.653677678e-05
1.127638156e-05
1.305585319e-05
-7.025244449e-05
5.445233678e-06
1.131205944e-05
-7.224285119e-05
1.143026332e-06
1.268765633e-05
-7.397938821e-05
-1.141291722e-06
1.602191954e-05
-7.592323094e-05
-2.387421209e-06
1.925326551e-05
-7.793025491e-05
-1.782581555e-06
2.088268832e-05
-8.081362968e-05
3.584644277e-07
1.922963281e-05
-8.441020639e-05
4.07383966e-06
1.339545655e-05
-8.944386356e-05
8.571103693e-06
5.109671783e-06
-9.613666413e-05
1.091118863e-05
-0.0001035515998
6.974015505e-06
-2.01976335e-05
-1.431887095e-05
-8.352004674e-08
-1.714175459e-05
-1.365345103e-05
-1.325391556e-05
-2.879794173e-05
-4.356293614e-06
-1.568975599e-05
-3.503294036e-05
-3.367119131e-06
-2.824226708e-05
3.187981449e-05
1.944553037e-05
-0.0001542174656
0.0001353691865
1.875872921e-05
-0.0001958864269
0.0001058760637
-1.413772411e-05
-5.471396001e-06
8.185356189e-05
-2.927129065e-05
1.043119679e-05
5.984538725e-05
-3.04617734e-05
1.659765354e-05
4.323875724e-05
-2.291475574e-05
1.448241064e-05
4.655577592e-05
-1.729575086e-05
-1.383520585e-06
5.429163068e-05
-2.002684352e-05
-1.340894554e-05
5.874012005e-05
-1.917388034e-05
-1.407109902e-05
6.031828913e-05
-1.50864331e-05
-1.445068373e-05
4.71120188e-05
-1.138601555e-05
1.1755824e-06
2.148988075e-05
-1.353505767e-05
1.960819589e-05
2.801738692e-05
-9.459164446e-06
-2.366597397e-05
2.16491831e-05
-1.892396537e-05
-6.341921326e-06
1.971771672e-05
2.783923829e-05
-3.005270679e-05
1.367629437e-05
6.566035869e-06
-4.92025853e-06
4.109732923e-06
-2.977473729e-05
9.711088456e-06
2.226701161e-05
-4.934580155e-05
-2.435405045e-05
1.921907484e-05
-5.720001503e-05
2.596535543e-06
1.428153987e-05
-6.453020219e-05
2.939874452e-06
1.120379263e-05
-6.785184203e-05
6.816874976e-07
1.107693527e-05
-7.033356582e-05
-1.779969401e-06
1.31008907e-05
-7.26314321e-05
-3.370247078e-06
1.713058469e-05
-7.507045482e-05
-4.881136267e-06
2.054995472e-05
-7.755259192e-05
-3.79589497e-06
2.163562643e-05
-8.102196593e-05
-8.763298804e-07
1.863104447e-05
-8.517465091e-05
3.769923244e-06
1.124183335e-05
-9.05578477e-05
8.504008966e-06
3.048868271e-06
-9.695948524e-05
9.016556028e-06
-0.0001027988928
2.296916281e-06
-7.297944019e-07
-1.830194584e-05
1.01948155e-05
7.40864072e-06
-1.771663529e-05
-4.074176734e-06
1.54256969e-05
-1.096198055e-06
-1.127608907e-05
2.365989708e-05
1.524483497e-06
-1.312497531e-05
4.974917262e-05
2.546124556e-05
-3.210343733e-05
5.934890033e-05
1.312367437e-05
-3.962025808e-06
6.46041625e-05
-2.224856793e-05
2.85859368e-06
6.83752829e-05
-3.844487849e-05
5.404462017e-06
6.258074927e-05
-3.815100125e-05
1.348525096e-05
5.233037487e-05
-2.916234866e-05
1.64992174e-05
5.505427971e-05
-2.558998658e-05
5.571594253e-06
6.257067902e-05
-2.283244093e-05
-4.709261831e-06
6.697838088e-05
-1.841819487e-05
-5.161175268e-06
6.34453285e-05
-1.311711679e-05
1.567037058e-06
4.735008874e-05
-9.940573718e-06
1.4654132e-05
2.647492303e-05
-1.668539204e-05
2.403061668e-05
8.4502936e-06
-1.889306904e-05
2.746417973e-05
-4.966881802e-06
-2.510486079e-05
1.960420341e-05
2.424502826e-06
6.660486693e-06
1.379482022e-05
3.375164567e-06
-1.395080167e-05
1.957571683e-05
-6.18846094e-07
-2.962261771e-05
3.85855814e-06
2.399015724e-05
-2.480273774e-05
-4.913939699e-05
2.13800919e-05
-4.505580318e-05
-9.522560192e-06
1.400770885e-05
-5.406291639e-05
-3.08829305e-06
1.045556109e-05
-6.129649968e-05
-2.999602826e-06
1.065942673e-05
-6.61149363e-05
-4.420379851e-06
1.309248177e-05
-6.95286349e-05
-5.534303149e-06
1.775460149e-05
-7.187732458e-05
-7.853934708e-06
2.129134284e-05
-7.492478829e-05
-6.163401644e-06
2.157660685e-05
-7.937928533e-05
-1.926898569e-06
1.686795551e-05
-8.430633469e-05
3.841289853e-06
8.038829176e-06
-8.999759948e-05
8.269763616e-06
7.707845259e-07
-9.5787301e-05
6.096709776e-06
-9.953104793e-05
-2.496233002e-06
1.404383785e-05
-2.713806568e-05
1.731598493e-05
1.535373675e-05
-2.611050355e-05
7.085013154e-06
1.84098342e-05
-9.350985444e-06
5.199659821e-06
2.194451996e-05
-5.650660266e-06
3.64115635e-06
3.883349263e-05
1.867357199e-06
6.705687509e-06
5.399080847e-05
-9.894054723e-06
7.859859382e-06
6.435937581e-05
-2.754059463e-05
-5.076170438e-06
7.292263683e-05
-3.8977331e-05
-8.029651993e-06
7.431948305e-05
-4.028798577e-05
7.415839123e-07
6.843700778e-05
-3.418752272e-05
1.090914336e-05
6.67458966e-05
-3.026771857e-05
6.370410597e-06
7.069412231e-05
-2.574495624e-05
-1.033912266e-06
7.176307721e-05
-2.106278144e-05
1.577946006e-06
6.381133076e-05
-1.594171418e-05
1.077940156e-05
4.595553775e-05
-1.317058504e-05
2.108961985e-05
2.69584761e-05
-1.958177518e-05
2.18980757e-05
1.475308443e-05
-2.3652704e-05
1.696983005e-05
1.981750748e-06
-2.90265975e-05
1.669836409e-05
3.163210567e-06
-1.493214844e-05
2.041667753e-05
1.031189242e-06
-2.434646549e-05
1.253363669e-05
-4.129569195e-06
-3.372225348e-05
9.268068679e-06
7.161629028e-07
-3.489836494e-05
5.254401987e-06
2.131193938e-06
-4.864405359e-05
2.178285366e-06
3.530567869e-06
-5.489836241e-05
-5.604629373e-07
5.522180108e-06
-5.993447371e-05
-3.351346615e-06
8.759778762e-06