/*--------------------------------*- C++ -*----------------------------------*\
  =========                 |
  \\      /  F ield         | OpenFOAM: The Open Source CFD Toolbox
   \\    /   O peration     | Website:  https://openfoam.org
    \\  /    A nd           | Version:  8
     \\/     M anipulation  |
\*---------------------------------------------------------------------------*/
FoamFile
{
    version     2.0;
    format      ascii;
    class       volScalarField;
    location    "1.4/wallFilmRegion";
    object      alpha;
}
// * * * * * * * * * * * * * * * * * * * * * * * * * * * * * * * * * * * * * //

dimensions      [0 0 0 0 0 0 0];

internalField   nonuniform List<scalar> 
1369
(
4.66912238
0.1154839839
0.03940863249
0.01954391353
0.0167117024
0.01272766153
0.008677618719
4.944883742
0.1015992762
0.03891266445
0.01984322547
0.01700062139
0.01296615186
0.008877320232
0.005594308407
0.003723871504
0.00329559781
0.003973911622
5.095603644
0.0962382525
0.03813502656
0.01916157166
0.01647340411
0.01262960693
0.008732111009
0.005615939768
0.003867474697
0.003480374339
0.00396023149
0.004513882713
0.005253292502
5.072907678
0.1025767798
0.03567633894
0.01701519541
0.01469167228
0.01135297642
0.007979758125
0.005313467262
0.003881750024
0.003650076019
0.004031761295
0.004521898236
0.005523563832
0.007909495204
0.01467042959
0.02935716292
0.04761698528
4.869247274
0.1277357039
0.03050083445
0.01303946417
0.01131979709
0.008864466827
0.0064107022
0.004524874798
0.00363073972
0.00369477962
0.004171259425
0.004849371571
0.006626013721
0.01193571484
0.02862413698
0.06098645166
0.09524505748
0.0830752698
0.06809854354
4.513173074
0.1929685552
0.02221398966
0.007745290415
0.006723782509
0.005384638863
0.004102686132
0.003210084106
0.002999746553
0.003506739719
0.004399911375
0.005583687387
0.008939399863
0.02075330109
0.0594903621
0.1415412325
0.2152545075
0.2248915841
0.3237799421
0.05895342393
0.1063158789
0.09453830401
0.3937816917
4.052672834
0.3295416359
0.01261279618
0.002898447783
0.002383380093
0.001960378974
0.001653388301
0.001580831106
0.001951572138
0.003033228789
0.004742291288
0.006434018633
0.01171549581
0.03142651769
0.1006676671
0.2559627168
0.293492482
0.3375199126
0.6906893383
0.02804455651
0.02978222422
0.03481586742
0.497549283
1.219084085
0.5935330606
3.587767778
0.496657285
0.009339058063
0.001465150442
0.001185915926
0.00109156716
0.001151536779
0.00144742226
0.002107254279
0.003136262997
0.004114620868
0.005564207284
0.01177860201
0.03207421397
0.1087442654
0.2399559881
0.2237675292
0.2975519693
0.4956368092
0.03531846188
0.08313833157
0.1997788124
0.7434854652
0.9566565749
0.2201641813
0.2038088765
3.297900982
0.5145513618
0.02316452122
0.003949640936
0.003060458349
0.002514924284
0.002189341597
0.002126248365
0.002329643416
0.00262256939
0.002977526015
0.004117969745
0.009213156614
0.0283521504
0.07174478036
0.1191599501
0.1416028715
0.2533289302
0.4648240303
0.8623776749
0.8496034196
0.5150972438
0.7338311252
0.933558166
0.3563066895
0.3678054467
2.995620756
0.4900138009
0.03748689743
0.007006227861
0.005133674337
0.003864730474
0.002906913122
0.002278650036
0.001963777709
0.001834125397
0.001872620632
0.001952332768
0.003619152135
0.01105037677
0.03884169529
0.07459683623
0.0838473059
0.1784341315
0.4366933694
0.7268614673
0.2312317005
0.3151930676
0.8894781236
0.839469651
0.6886207679
1.107028696
0.2526673365
2.70835293
0.4316914118
0.04793310373
0.01064868143
0.007393278413
0.00518958952
0.003559572385
0.002540042718
0.002245906297
0.002616420953
0.003526428821
0.001494117829
0.003755210242
0.01172222159
0.03703360387
0.08079682189
0.07243532836
0.08468709559
0.1143288274
0.1286596038
0.0853342613
0.1949805579
0.9954205012
0.5249067368
0.9043384292
2.041950412
0.4762233334
2.533093663
0.3437262418
0.0764829974
0.01701056837
0.01270689597
0.01088736351
0.01021794629
0.01152590747
0.022371001
0.03995563839
0.03678729485
0.04345581403
0.06985174194
0.07846066288
0.08154904024
0.09281504575
0.1017097239
0.08775371196
0.06547742888
0.04022597798
0.05684429292
0.297507222
0.4952558236
0.9289503596
1.295850705
2.143533703
1.99178667
2.020711438
0.1291378476
0.4041727732
0.03964817199
0.04411320837
0.08262746914
0.1679234966
0.2186157396
0.1767318282
0.09376505851
0.06153604599
0.06873311431
0.07799171417
0.08707445442
0.1181252584
0.1537218488
0.1330992
0.08309946256
0.04909062264
0.02191570236
0.01228731526
0.06645147919
0.08496891369
0.278315758
0.7656262955
1.475638575
2.09734494
1.77798777
2.573470031
0.04370022728
0.452195462
0.0970487995
0.128675158
0.1938035021
0.1831930645
0.108423616
0.05568026766
0.03631064105
0.03289904559
0.0395859638
0.06158759267
0.10193519
0.1655858385
0.1746065985
0.1128634158
0.06221156043
0.03474098294
0.0141689466
0.00149160082
0.00789690512
0.0171068565
0.1969461195
0.509920756
0.9962404011
1.448020199
2.264723347
1.444974564
2.829588653
0.04521260766
0.4104122355
0.1550929146
0.1610309132
0.1603668442
0.09934518398
0.04737961434
0.02789760391
0.024530999
0.02977767681
0.04456036197
0.07312710974
0.1289503006
0.1718312295
0.120952879
0.06768723187
0.04325851472
0.02711687236
0.01185239558
0.00130088721
0.01162248719
0.0312162685
0.5653950875
0.5563976236
0.6577303902
1.463345931
2.138472364
0.8417870499
2.097790994
0.01766358599
0.3998630859
0.2042127155
0.1631399156
0.1184741927
0.0591480802
0.02874366048
0.02030054669
0.0204589793
0.02719661456
0.0436045498
0.07288117971
0.11941124
0.1262736385
0.07483977603
0.04582202402
0.03299221503
0.02369291487
0.01123966144
0.0008180590789
0.05896992974
0.5218027388
0.517639749
0.4394757052
0.6769828251
1.48736724
1.505410249
0.8218436064
1.732699019
0.0865677591
0.3129932199
0.2529657919
0.1919856884
0.1079103098
0.04419474491
0.02196195195
0.01686534295
0.01722297243
0.02254813208
0.03666894041
0.06020522279
0.08003640185
0.07898271071
0.05999460833
0.04002301434
0.02965088479
0.02279767395
0.01143795115
0.0008207486067
0.1092371839
0.6703264654
0.5200393985
0.5012696716
0.7030570658
1.203313599
0.8134969983
0.5908675871
0.1489917454
0.05899848545
0.2896161365
0.1936127102
0.1311129221
1.44552881
0.1229004654
0.2885512523
0.2686668626
0.1866641596
0.08573566862
0.03177350115
0.01732521716
0.01420687542
0.01444208331
0.01824505702
0.02813321921
0.04130058631
0.05058844046
0.05929394651
0.06370336107
0.04409242901
0.03080964009
0.02250096991
0.01173834069
0.003550367758
0.2999720543
0.9663262962
1.352273523
0.8606395918
0.9607676802
1.003699867
0.6619074434
0.4277859431
0.1788443992
0.06919172425
0.2504905825
0.166124343
0.1301657558
1.462250832
0.1659316789
0.2965669068
0.2518275048
0.1420783719
0.05337011352
0.02041034049
0.01283304164
0.01096168593
0.01090691789
0.01306874424
0.01714733196
0.02005900108
0.02582408122
0.04994184483
0.09677757044
0.066870563
0.04062714477
0.02134603044
0.01053670113
0.006118709522
0.04593807027
0.7148297675
1.452619262
1.568778704
1.448266948
1.145088702
0.7084074119
0.4227757632
0.2501409188
0.1186711863
0.2654628528
0.1915172607
0.222246504
2.775305423
0.355282152
0.347710052
0.2009534902
0.07702484931
0.02432995831
0.01253569126
0.009267954125
0.006819450636
0.004135493408
0.001778632081
0.003206337459
0.007931339619
0.01579290278
0.06182924303
0.3283316077
0.1364345281
0.07460553632
0.01916477235
0.009026183501
0.003627308215
0.01494824963
0.06494811485
0.9586812951
1.489107612
1.280378864
1.475641668
1.111762396
0.5891538666
0.3968370546
0.2685538121
0.4149007608
0.4196491121
3.852748601
0.4102819176
0.3276573678
0.1677605992
0.06596121396
0.02662222181
0.01614991069
0.01458313313
0.02061325055
0.04684493269
0.1094270056
0.1821151668
0.1911948714
0.1570865264
0.1650604446
0.1769474406
0.1709733075
0.127112209
0.02417669569
0.01088551544
0.0197558984
0.09923785917
0.2143864954
0.7746268364
1.136559345
0.982798951
1.317835369
1.785284836
1.217493563
0.7873308262
0.7890968105
0.9213132042
3.167657118
0.3060883731
0.2537485762
0.1408693504
0.06381596321
0.02990209349
0.01949614873
0.01893208796
0.03023030861
0.07316052122
0.1719014521
0.2823381588
0.2900107732
0.2262711011
0.1848262269
0.1700691185
0.1599859728
0.1204389136
0.02919466329
0.01287348733
0.00100706536
1.742350877
1.280413584
1.09550602
1.058354402
1.102066972
1.44213751
2.202071098
2.353649055
2.236774783
2.30670216
2.096357914
3.803435713
0.2545005909
0.2219166461
0.131117452
0.07015884885
0.03764913657
0.02676746132
0.02806799524
0.04451900896
0.09818813482
0.2160661939
0.2969699304
0.2590060543
0.1774356268
0.1232990502
0.1087902473
0.1023455668
0.08309570423
0.02731537286
0.01233313187
0.000202736657
2.12945948
1.200557507
1.15988831
1.156977076
0.9900064168
1.350492758
2.434374698
2.502879319
2.151697889
1.944999619
1.437120295
3.412610872
0.2136896438
0.2170622098
0.1479313893
0.09797633894
0.06360316088
0.05355508299
0.06727151306
0.1158664607
0.2149436012
0.3072863823
0.3010303557
0.2408520695
0.1475446255
0.07287928828
0.06409518811
0.0664773301
0.06645385543
0.04185200999
0.01926374371
0.0006344570104
2.23042291
1.286865907
1.296803273
1.259848676
1.312444154
1.481677924
2.024966398
1.72920228
1.459663231
1.459167483
3.09225006
0.1717142276
0.2157894606
0.1852023613
0.1596919986
0.1329273627
0.1278686702
0.1549550119
0.2161884035
0.2895840987
0.3039727582
0.2792114758
0.2766311879
0.2189520612
0.1048175653
0.06823327868
0.05125500201
0.03225344138
0.1488572014
0.8286064173
2.741056891
1.595128699
1.377041587
1.368063392
1.354759954
1.48621197
1.618499132
1.807220258
1.243667542
0.8367110914
0.5072597217
2.897155033
0.1210252232
0.181908296
0.1988699322
0.2210871823
0.2308438913
0.2507935835
0.2930578445
0.3391000402
0.3286266832
0.2193515564
0.1726582467
0.2030998775
0.2289153386
0.160193232
0.113294078
0.07871701954
0.04590560513
0.2465853687
2.146493279
1.660424823
1.580176136
1.416543573
1.383102957
1.275436618
1.376024114
1.356788147
1.432685736
1.157512038
0.4858372162
0.106940902
2.841690615
0.08396046527
0.1177950559
0.1484443886
0.2072109824
0.2715804138
0.3557598781
0.4398579893
0.4077899184
0.2305840583
0.1124654488
0.0947819498
0.1217120292
0.1715187224
0.2041610641
0.1823608621
0.1313851822
0.06537019927
0.1659843425
0.9870101003
0.9693917882
0.975441833
0.9901790131
1.2167549
1.46451685
1.140611782
1.249368174
1.085191789
0.9173627832
0.1604352327
0.02990267292
2.889454001
0.08688098893
0.07337096445
0.08594110885
0.1346092648
0.2156458833
0.3306969386
0.3954185103
0.3115894104
0.1881868801
0.1256560081
0.1058466661
0.09896869449
0.09027950018
0.1668370194
0.3481184776
0.3740056663
0.1287662541
0.1446057012
0.8072218405
0.144096284
0.3745798411
0.5230245587
0.6726971734
1.112659519
2.00947829
1.398778707
0.5788898674
0.4401509603
0.02634347182
0.01285500513
2.947866193
0.1541834126
0.09220335188
0.08023483697
0.1136083971
0.1614330782
0.2194840476
0.2487921812
0.2139995655
0.1638084645
0.1359422056
0.1256491216
0.1150799625
0.08136511429
0.1078718935
0.2832423755
0.5177862726
0.5364660952
0.7733443368
1.095237666
0.2354939935
0.1893944714
0.4764321487
0.6272592797
0.69301937
0.8340804776
0.6141629795
0.4037970141
0.0919288349
0.003953150188
0.01058737056
2.979481553
0.3105915726
0.2406838857
0.1854038977
0.2053514636
0.1988156673
0.1766834516
0.157282332
0.1444583978
0.1337098868
0.1276640976
0.1272655943
0.1219133658
0.09025487163
0.08060613416
0.1908708432
0.2984310049
0.3492182862
0.3963416643
0.7522918635
0.09885647753
0.03648719914
0.2112120189
0.7202726138
1.439434128
0.2815181448
0.101557163
0.06010246271
0.3259840702
0.06200894945
0.04586680099
3.003438184
0.5641524112
0.5991450404
0.4308616249
0.4022575603
0.2977192358
0.1783878481
0.1076504397
0.09719152239
0.1062184632
0.1155711852
0.124725836
0.1257002168
0.1008181293
0.06880130409
0.1206667278
0.1174044361
0.302713646
0.382670076
0.5994130548
0.06291983191
0.0005752143578
0.005590351762
0.6441999457
1.388761502
0.3328478276
0.2224748873
0.1450428681
0.308469765
0.1535159463
0.1505805575
2.96743105
0.7314748359
0.9384731238
0.5759285885
0.4852474833
0.3158762502
0.1568655887
0.07251949405
0.06409997709
0.08140849272
0.1004887479
0.1182017722
0.1256097121
0.1053699021
0.06105264705
0.07192069641
0.04187573682
0.2355297795
0.3174105969
0.2371314058
0.004200025011
0.0001280826231
0.001333693289
0.1655496536
0.9089839706
0.8515228325
0.8401318918
0.8498791007
0.5181339105
0.2414167044
0.2150816822
2.856263264
0.6070460962
0.8530979598
0.4276449798
0.3544501153
0.2235635541
0.1024774625
0.04490657078
0.04043487384
0.05996398828
0.08619930323
0.1128294695
0.1300840083
0.1174686002
0.06979985442
0.05970063815
0.02222499685
0.1331999196
0.1704298335
0.02046376986
0.0001492261495
8.53040743e-05
0.001373076255
0.02923894026
0.5301480679
0.9148390504
0.8032584806
1.632736323
1.340841088
0.8338562462
0.3940151068
2.821765029
0.4314645057
0.4632653366
0.2062211063
0.1870659394
0.127502911
0.06666475592
0.0351800746
0.03109936396
0.04828270127
0.08133658009
0.1217686193
0.1561051462
0.1683095358
0.1467367314
0.1070950725
0.02119099753
0.08609603865
0.09839470677
0.001176342726
2.970660352e-05
1.783540713e-05
0.0008603287855
0.008262598255
0.246409552
0.6302125755
0.5100647578
1.043651175
0.7162305116
1.009330871
0.3502681256
2.913108061
0.3680470884
0.1794851389
0.08882991217
0.09836538471
0.08686302176
0.06944950933
0.06124275626
0.0734124496
0.1120817361
0.1673452331
0.2033002985
0.2018427365
0.2038017586
0.2045034532
0.1475223609
0.02245089848
0.07584600651
0.05770880528
0.0009559086213
0.000120807736
4.870840979e-05
0.0006837857905
0.004056499309
0.1248194165
0.442109905
0.5926175932
0.5829227137
0.991899848
0.9250305113
0.4716427066
3.175656214
0.3733815014
0.1039981933
0.05360125013
0.06933580361
0.07540354939
0.07581813082
0.09267655873
0.1370920313
0.2140643243
0.2916730251
0.3249965499
0.2479004871
0.1707684794
0.1658712299
0.1181243636
0.02629018712
0.06198958278
0.02896398707
0.001330084195
0.0003139959775
0.0001145133394
0.0006366552924
0.003204798833
0.06694098034
0.3792396778
1.121848327
1.053219235
0.6938838349
0.5473206768
0.4323795614
3.872849904
0.4861508201
2.18155905
1.594296741
1.857089788
0.1786302068
0.07687883542
0.08163531187
0.1208469325
0.1864416365
0.2754032505
0.3462563693
0.2796679418
0.1529679275
0.1268146467
0.08434671762
0.03132696861
0.04024443338
0.01506132071
0.001806761995
0.0006264856905
0.000218662583
0.0006691998086
0.003706510991
0.0205022505
0.0927488233
0.879297741
0.8610762516
0.747463229
0.2440358847
0.3384951207
6.069864081
1.827199975
2.636627407
2.060511171
2.651855127
2.894625329
0.273866668
0.06660918659
0.06687949026
0.09956670807
0.18884567
0.3837650978
0.3595169147
0.1911667407
0.1291693909
0.07328134015
0.03197884344
0.02505324484
0.009478081627
0.002379115143
0.001045105689
0.0003608125278
0.0007669745517
0.00525105163
0.01274992052
0.03958553161
0.7618317816
0.994075776
2.161751004
0.6949656972
0.3384556591
6.320634159
0.631303935
3.116114458
2.691251761
3.691098383
3.713756063
2.883655235
0.1020760531
0.04408814634
0.04543953771
0.1167101642
0.4355239613
0.4619055323
0.2557361752
0.1583413581
0.07685613339
0.03148959323
0.01766582739
0.007681408666
0.003160130109
0.001642141171
0.0006389983761
0.001029173473
0.009011011573
0.01823413035
0.09518702393
0.3761673747
0.2513315635
0.8388609931
0.1330677455
0.1028812767
6.258406726
0.4514375695
1.605285485
2.994991088
4.414439341
4.792401736
3.883043329
2.593681431
0.2087175901
0.03014059169
0.07674573495
0.4202465662
0.4991334913
0.3072784431
0.196535587
0.09066281228
0.03373656537
0.01548501659
0.007859525061
0.004463833997
0.00277607165
0.001557543027
0.001753250517
0.01953173277
0.01996687554
0.0682923465
0.1829650363
0.1951754387
0.312998596
0.04427207077
0.05374622716
6.419577625
0.4625775022
2.314769025
3.296271478
4.216072689
4.974355452
5.822531034
3.211359345
2.09831594
0.182962745
0.06616330651
0.3205438557
0.4399112746
0.322262552
0.2306705624
0.1142807818
0.04209101004
0.01746364797
0.01007995496
0.007217702862
0.005874537445
0.006130190813
0.01291938501
0.11748546
0.01363797335
0.03624704719
0.08026687153
0.2996165555
0.1190098639
0.02894638093
0.03769876546
6.971461821
0.5362039944
3.410741327
4.051258434
4.05711049
4.28739744
5.203337882
5.392336137
3.302402153
1.476085416
0.116764645
0.2065336433
0.3201819867
0.2956152538
0.2519257537
0.1491841175
0.06235562809
0.0260049116
0.01655410069
0.01416671641
0.01729256892
0.03940861236
0.1051152039
0.1195841358
0.008461611843
0.01923595875
0.04779227407
0.4220009072
0.08254536773
0.02373850567
0.03357277875
7.893525603
1.005929338
3.900980082
4.473383615
4.194798555
3.70387702
4.021873683
4.65395926
3.492904574
2.008812152
0.3945397476
0.1216288876
0.1946762819
0.2375856571
0.2548690445
0.1940756764
0.102374713
0.04695319182
0.03052349419
0.02575377962
0.02743106553
0.03741557858
0.03643951857
0.02233806605
0.006252777388
0.01154915303
0.03648191329
0.5159337872
0.09901735991
0.03022104948
0.04184543766
8.992761169
2.885083453
4.918413888
4.922840458
4.439082612
3.508336952
3.043197566
3.100636946
3.381571279
2.29683791
0.491202683
0.07137953808
0.1077777111
0.1701197922
0.2387474168
0.2355173
0.1573748377
0.08151101608
0.04924364103
0.03468585876
0.02476310214
0.01500069326
0.008107846109
0.005929060986
0.00581878654
0.008290478912
0.03304769174
0.5301672611
0.1744437402
0.1552872935
0.3473509676
9.318239819
3.39149747
5.100825725
5.028818227
4.666286287
3.387329626
2.532702554
1.997868292
2.747541817
2.534408186
0.4963049005
0.04744824565
0.06300357753
0.1185049148
0.2080598877
0.2559999351
0.2075002603
0.1260087536
0.07648349985
0.04954534558
0.03287930265
0.02219229524
0.01511155848
0.01046085526
0.01586971244
0.02655332657
0.07704428302
0.6259866933
0.5521244875
0.3590431062
0.6443406352
8.90200824
4.76860649
5.52025123
5.360906143
4.715629515
1.691367524
1.087826162
1.032908821
2.719277538
3.074232239
0.5484794135
0.06097843677
0.06485140573
0.1250787857
0.2374443297
0.3404389063
0.3423983305
0.2686277894
0.1881264847
0.1209745678
0.07847291093
0.05775021837
0.04798768098
0.03851074859
0.1385017599
0.2564754469
0.4590561596
2.224974669
0.2279204537
0.1562631266
0.2935166367
8.320427446
6.280985436
5.556924665
4.172948559
1.311826413
0.5665671172
0.3829342159
0.3240058297
0.3417801377
2.12771055
0.3020028236
0.1414911428
0.147471238
0.2167239196
0.3278239538
0.4456352946
0.4926272509
0.4671353742
0.4203328305
0.3528174077
0.2794399508
0.2301373844
0.2035718533
0.1742770563
0.4022070767
0.4921848703
0.7940425634
0.1785534624
0.03574642563
0.02479774715
0.05928126079
9.317930246
8.063854884
8.692150871
7.568153746
6.248886039
5.282631445
5.029585906
5.050002294
5.462787422
6.298243979
4.044884854
3.446636943
3.663614491
4.128461708
4.682574325
5.238180342
5.68756305
5.975069811
6.134040909
6.175043776
6.083223718
5.945567206
5.92784715
6.285509209
5.678029843
5.268476434
5.624233253
4.489484361
3.909917804
2.584056922
1.357804261
)
;

boundaryField
{
    walls
    {
        type            zeroGradient;
    }
    wallFilmFace_top
    {
        type            zeroGradient;
    }
    region0_to_wallFilmRegion_wallFilmFace
    {
        type            zeroGradient;
    }
    mirrorFace_top
    {
        type            zeroGradient;
    }
    region0_to_wallFilmRegion_mirrorFace
    {
        type            zeroGradient;
    }
    procBoundary1to0
    {
        type            processor;
        value           nonuniform List<scalar> 
52
(
4.523710446
0.1855974251
0.06649387699
0.02773662258
0.02150225115
0.01537840763
0.009281907909
0.005416617532
0.005416617532
0.003560121997
0.003177437579
0.004095126971
0.00474969581
0.00474969581
0.005471287482
0.006631582
0.006631582
0.01020903685
0.01890313496
0.03586280944
0.05407015986
0.05407015986
0.1578133273
0.2335854417
0.2335854417
0.4050282142
0.4693415983
0.921350593
1.186395008
1.186395008
0.7783622926
1.147277231
1.147277231
0.05767866266
0.09391109613
0.09391109613
0.2369646898
0.1705087683
0.5761502393
0.5761502393
1.49739426
1.49739426
0.8834064125
0.6093784928
0.3820818379
0.3820818379
0.1767124127
0.3733576323
0.3270919542
0.2889323657
0.2322957668
0.2143552999
)
;
    }
    procBoundary1to2
    {
        type            processor;
        value           nonuniform List<scalar> 
33
(
0.3867009397
0.6121152685
0.6121152685
1.595968523
1.595968523
2.092017013
1.143948597
0.8765300638
0.8765300638
0.2162235291
0.01744922856
0.004759578403
0.003811227814
0.004260100895
0.04459006478
0.1472530016
0.2006335332
0.31191814
0.03909735694
0.02729631362
0.04821794134
0.09162817325
0.1249885264
0.07318292384
0.04783669678
0.03746137635
0.04602967078
0.4289266527
2.481368954e-05
0.0005048422341
0.00236015938
0.00428919601
0.6551476865
)
;
    }
}


// ************************************************************************* //
