/*--------------------------------*- C++ -*----------------------------------*\
  =========                 |
  \\      /  F ield         | OpenFOAM: The Open Source CFD Toolbox
   \\    /   O peration     | Website:  https://openfoam.org
    \\  /    A nd           | Version:  8
     \\/     M anipulation  |
\*---------------------------------------------------------------------------*/
FoamFile
{
    version     2.0;
    format      ascii;
    class       volVectorField;
    location    "1.4/wallFilmRegion";
    object      contactForce:contactAngle;
}
// * * * * * * * * * * * * * * * * * * * * * * * * * * * * * * * * * * * * * //

dimensions      [1 -2 -2 0 0 0 0];

internalField   nonuniform List<vector> 
1369
(
(0 0 0)
(0 -374.6236775 0)
(0 0 0)
(0 0 0)
(0 0 0)
(0 0 0)
(0 0 0)
(0 0 0)
(-489.4860172 -448.695515 0)
(0 0 0)
(0 0 0)
(0 0 0)
(0 0 0)
(0 0 0)
(0 0 0)
(0 0 0)
(0 0 0)
(0 0 0)
(0 -729.6872836 0)
(0 0 0)
(0 0 0)
(0 0 0)
(0 0 0)
(0 0 0)
(0 0 0)
(0 0 0)
(0 0 0)
(0 0 0)
(0 0 0)
(0 0 0)
(0 0 0)
(0 0 0)
(679.0596866 -622.4713817 0)
(0 0 0)
(0 0 0)
(0 0 0)
(0 0 0)
(0 0 0)
(0 0 0)
(0 0 0)
(0 0 0)
(0 0 0)
(0 0 0)
(0 0 0)
(0 0 0)
(0 0 0)
(0 0 0)
(0 0 0)
(0 0 0)
(0 -244.2007262 0)
(0 0 0)
(0 0 0)
(0 0 0)
(0 0 0)
(0 0 0)
(0 0 0)
(0 0 0)
(0 0 0)
(0 0 0)
(0 0 0)
(0 0 0)
(0 0 0)
(0 0 0)
(0 0 0)
(0 0 0)
(0 0 0)
(0 0 0)
(0 0 0)
(0 -410.7226562 0)
(0 0 0)
(0 0 0)
(0 0 0)
(0 0 0)
(0 0 0)
(0 0 0)
(0 0 0)
(0 0 0)
(0 0 0)
(0 0 0)
(0 0 0)
(0 0 0)
(0 0 0)
(395.9112322 362.9186289 0)
(525.4688745 0 0)
(661.008774 0 0)
(550.6373812 -504.7509318 0)
(0 0 0)
(-2045.744874 3.119063957e-11 -5.545002591e-12)
(0 0 0)
(0 670.5796134 0)
(0 0 0)
(0 -383.3975822 0)
(0 0 0)
(0 0 0)
(0 0 0)
(0 0 0)
(0 0 0)
(0 0 0)
(0 0 0)
(0 0 0)
(0 0 0)
(0 0 0)
(0 0 0)
(0 0 0)
(824.5362276 755.824878 0)
(0 0 0)
(0 0 0)
(0 0 0)
(0 -669.6703068 0)
(0 0 0)
(0 0 0)
(0 0 0)
(0 432.2411143 0)
(0 0 0)
(0 0 0)
(0 0 0)
(0 -330.3788983 0)
(0 0 0)
(0 0 0)
(0 0 0)
(0 0 0)
(0 0 0)
(0 0 0)
(0 0 0)
(0 0 0)
(0 0 0)
(0 0 0)
(0 0 0)
(0 0 0)
(-939.6085757 861.3078595 0)
(0 0 0)
(0 0 0)
(0 0 0)
(0 -270.2134378 0)
(0 0 0)
(0 0 0)
(937.615606 859.4809706 0)
(0 0 0)
(0 0 0)
(0 0 0)
(0 -508.9234848 0)
(0 0 0)
(0 -300.7336505 0)
(0 0 0)
(0 0 0)
(0 0 0)
(0 0 0)
(0 0 0)
(0 0 0)
(0 0 0)
(0 0 0)
(0 0 0)
(0 0 0)
(0 0 0)
(0 0 0)
(0 0 0)
(-349.856022 320.7013546 0)
(-327.1510657 0 0)
(0 0 0)
(0 0 0)
(305.8266224 0 0)
(675.2042524 0 0)
(0 0 0)
(0 0 0)
(0 0 0)
(0 0 0)
(0 -242.1206392 0)
(0 0 0)
(0 -362.7445297 0)
(0 0 0)
(0 0 0)
(0 0 0)
(0 0 0)
(0 0 0)
(0 0 0)
(0 0 0)
(0 0 0)
(0 0 0)
(0 0 0)
(0 0 0)
(0 0 0)
(0 0 0)
(0 0 0)
(0 0 0)
(-1016.980655 932.2322657 0)
(0 0 0)
(0 0 0)
(-708.7786885 0 0)
(0 0 0)
(0 0 0)
(0 0 0)
(0 0 0)
(0 0 0)
(422.6251544 0 0)
(0 0 0)
(0 -398.6052593 0)
(0 0 0)
(0 0 0)
(0 0 0)
(0 0 0)
(0 0 0)
(0 0 0)
(0 0 0)
(0 0 0)
(0 0 0)
(0 0 0)
(0 0 0)
(0 0 0)
(0 0 0)
(0 0 0)
(0 0 0)
(0 0 0)
(-1094.874702 1003.635141 0)
(-481.6490042 -441.5115864 0)
(0 0 0)
(0 249.9572785 0)
(0 0 0)
(0 0 0)
(0 0 0)
(0 0 0)
(0 0 0)
(0 0 0)
(0 -627.8194193 0)
(0 0 0)
(0 0 0)
(0 0 0)
(0 0 0)
(0 0 0)
(0 0 0)
(0 0 0)
(0 0 0)
(0 0 0)
(0 0 0)
(0 0 0)
(0 0 0)
(0 0 0)
(0 0 0)
(1578.054076 -1.603996545e-11 0)
(0 0 0)
(0 0 0)
(0 0 0)
(0 0 0)
(-742.3431095 680.4811862 0)
(-529.4140443 0 0)
(0 0 0)
(0 0 0)
(0 0 0)
(0 0 0)
(0 0 0)
(-336.454565 0 0)
(453.5579134 -415.7614221 0)
(0 0 0)
(0 0 0)
(0 0 0)
(509.7661322 467.2856229 0)
(465.755111 0 0)
(-4.389913368e-06 -737.7500954 0)
(0 0 0)
(0 0 0)
(0 0 0)
(0 0 0)
(0 0 0)
(698.8097224 640.5755812 0)
(568.9819568 0 0)
(0 -500.4441027 0)
(0 0 0)
(0 0 0)
(0 0 0)
(0 0 0)
(0 0 0)
(0 0 0)
(0 531.1295923 1.57050506e-12)
(0 0 0)
(0 0 0)
(0 0 0)
(0 0 0)
(0 -541.5746589 0)
(0 0 0)
(0 1009.717754 1153.963147)
(0 0 0)
(865.0462646 792.9590744 2.344712611e-12)
(264.4476307 0 7.167867432e-13)
(-223.2869712 0 6.052205514e-13)
(-818.0174629 -749.8493396 2.217240788e-12)
(0 0 0)
(0 0 0)
(0 0 0)
(0 0 0)
(0 0 0)
(421.2062106 386.1056923 1.141681728e-12)
(0 0 0)
(0 0 0)
(-837.4795011 -767.6895413 2.269992749e-12)
(0 0 0)
(0 0 0)
(0 0 0)
(0 0 0)
(0 0 0)
(0 0 0)
(0 645.1302008 1.907595192e-12)
(0 0 0)
(0 0 0)
(0 0 0)
(0 0 0)
(0 0 0)
(0 -258.0141421 0)
(0 0 0)
(0 529.8020503 0)
(223.2271579 0 0)
(0 0 0)
(0 -613.1782626 0)
(0 0 0)
(0 0 0)
(0 0 0)
(0 0 0)
(0 0 0)
(0 0 0)
(0 0 0)
(0 460.0858645 0)
(0 0 0)
(-590.8003218 -541.5669636 0)
(0 0 0)
(0 0 0)
(0 0 0)
(0 0 0)
(0 0 0)
(0 0 0)
(0 0 0)
(0 672.5380685 0)
(0 0 0)
(0 0 0)
(0 0 0)
(0 0 0)
(0 0 0)
(0 -400.8506297 0)
(0 0 0)
(0 511.310025 0)
(0 0 0)
(0 0 0)
(0 -544.2986883 0)
(0 0 0)
(0 0 0)
(0 0 0)
(0 0 0)
(0 0 0)
(0 0 0)
(0 0 0)
(-688.3848078 631.019406 0)
(-485.8500797 -445.3625722 0)
(0 0 0)
(0 0 0)
(0 0 0)
(0 0 0)
(0 0 0)
(0 0 0)
(0 0 0)
(537.7819904 492.9668263 0)
(0 0 0)
(0 0 0)
(0 0 0)
(0 0 0)
(0 0 0)
(0 0 0)
(0 -567.4468211 -3.355784077e-12)
(0 0 0)
(0 387.8260355 0)
(0 0 0)
(0 0 0)
(-956.7511785 -877.021912 0)
(0 0 0)
(0 0 0)
(0 0 0)
(0 0 0)
(0 0 0)
(0 0 0)
(0 0 0)
(0 0 0)
(0 0 0)
(0 0 0)
(0 0 0)
(0 0 0)
(0 0 0)
(0 0 0)
(0 0 0)
(1099.250836 1007.646598 0)
(0 0 0)
(0 0 0)
(0 0 0)
(0 0 0)
(0 0 0)
(0 0 0)
(0 0 0)
(0 -548.73743 0)
(0 0 0)
(0 374.0999624 0)
(0 0 0)
(0 0 0)
(0 0 0)
(446.8641835 0 0)
(0 0 0)
(0 0 0)
(0 -534.7831365 0)
(0 0 0)
(0 0 0)
(0 0 0)
(0 0 0)
(0 0 0)
(0 0 0)
(0 0 0)
(0 0 0)
(0 0 0)
(0 0 0)
(0 0 0)
(0 0 0)
(0 0 0)
(0 0 0)
(0 0 0)
(0 0 0)
(-638.338917 585.1440094 0)
(0 0 0)
(0 0 0)
(0 0 0)
(0 0 0)
(0 0 0)
(0 0 0)
(0 0 0)
(0 -555.0391744 0)
(0 0 0)
(0 697.1626409 0)
(0 0 0)
(0 0 0)
(0 0 0)
(0 0 0)
(0 0 0)
(0 0 0)
(-487.8347319 -447.1818367 -1.322278683e-12)
(0 0 0)
(0 0 0)
(0 0 0)
(0 0 0)
(0 0 0)
(0 0 0)
(0 0 0)
(0 0 0)
(0 0 0)
(0 0 0)
(0 0 0)
(0 0 0)
(0 0 0)
(0 0 0)
(0 0 0)
(0 0 0)
(0 0 0)
(-689.0171853 631.5990854 -1.867584813e-12)
(0 0 0)
(0 0 0)
(0 0 0)
(0 0 0)
(0 0 0)
(0 0 0)
(0 0 0)
(242.7028708 0 -6.578474494e-13)
(0 0 0)
(0 0 0)
(0 0 0)
(0 0 0)
(0 0 0)
(0 0 0)
(0 -717.2430785 0)
(0 0 0)
(0 0 0)
(0 0 0)
(0 0 0)
(0 0 0)
(0 0 0)
(0 0 0)
(0 0 0)
(0 0 0)
(0 0 0)
(0 0 0)
(706.1772185 647.3291158 0)
(500.3383207 -458.6434598 0)
(0 0 0)
(0 0 0)
(0 0 0)
(0 0 0)
(0 0 0)
(0 0 0)
(0 298.7069561 0)
(0 0 0)
(0 0 0)
(0 0 0)
(0 0 0)
(0 0 0)
(0 0 0)
(0 0 0)
(0 0 0)
(0 0 0)
(0 0 0)
(0 0 0)
(0 0 0)
(0 -560.384628 0)
(0 0 0)
(0 0 0)
(0 0 0)
(0 0 0)
(0 0 0)
(0 0 0)
(651.0322247 596.7795382 0)
(366.0485145 0 0)
(499.4426237 0 0)
(307.5120131 0 0)
(341.6319674 0 0)
(0 0 0)
(0 0 0)
(915.2235118 -838.9548843 0)
(0 0 0)
(0 0 0)
(0 0 0)
(0 0 0)
(605.1914427 554.7588214 0)
(0 0 0)
(0 0 0)
(0 0 0)
(0 0 0)
(0 0 0)
(0 0 0)
(0 0 0)
(0 0 0)
(0 0 0)
(0 0 0)
(0 0 0)
(0 0 0)
(0 -437.8357691 0)
(0 0 0)
(0 0 0)
(0 0 0)
(0 0 0)
(0 0 0)
(0 0 0)
(0 568.3349955 0)
(0 0 0)
(0 0 0)
(0 0 0)
(0 0 0)
(0 0 0)
(0 0 0)
(-339.4226767 -311.137453 0)
(0 0 0)
(0 0 0)
(0 0 0)
(1027.704582 942.0625369 0)
(0 0 0)
(0 0 0)
(0 0 0)
(0 0 0)
(0 0 0)
(0 0 0)
(0 0 0)
(0 0 0)
(0 0 0)
(0 0 0)
(0 0 0)
(0 0 0)
(0 0 0)
(0 -455.9866854 0)
(0 0 0)
(0 0 0)
(0 0 0)
(0 0 0)
(0 0 0)
(0 0 0)
(0 477.8685228 0)
(0 0 0)
(0 0 0)
(0 0 0)
(-695.9589465 0 0)
(-429.9396932 0 0)
(-1011.456032 -927.1680272 0)
(0 0 0)
(0 0 0)
(0 0 0)
(0 0 0)
(0 457.6460259 0)
(0 0 0)
(0 0 0)
(0 0 0)
(0 0 0)
(0 0 0)
(0 0 0)
(0 0 0)
(0 0 0)
(0 0 0)
(0 0 0)
(0 0 0)
(0 0 0)
(0 0 0)
(0 -769.3335751 0)
(0 0 0)
(0 0 0)
(0 0 0)
(0 0 0)
(545.2489126 499.8115023 -1.477900131e-12)
(642.4400272 0 0)
(0 0 0)
(0 0 0)
(0 0 0)
(0 -698.2305682 0)
(0 0 0)
(0 0 0)
(0 0 0)
(0 0 0)
(0 0 0)
(0 0 0)
(0 0 0)
(0 558.7985898 0)
(0 0 0)
(0 0 0)
(0 0 0)
(0 0 0)
(0 0 0)
(0 0 0)
(0 0 0)
(0 0 0)
(0 0 0)
(0 0 0)
(0 0 0)
(0 0 0)
(0 0 0)
(461.6483132 0 0)
(231.7269924 0 0)
(405.1556766 0 0)
(360.6893956 0 0)
(0 0 0)
(0 0 0)
(0 0 0)
(0 0 0)
(0 0 0)
(0 0 0)
(1043.204831 -956.2710987 -2.827612361e-12)
(0 0 0)
(0 0 0)
(0 0 0)
(478.3726691 438.5082816 0)
(326.9119993 0 0)
(633.1699799 0 -1.716210669e-12)
(0 0 0)
(0 0 0)
(0 0 0)
(0 0 0)
(0 0 0)
(0 0 0)
(0 0 0)
(0 0 0)
(0 0 0)
(0 0 0)
(0 0 0)
(-321.5104045 0 0)
(0 0 0)
(0 0 0)
(0 0 0)
(0 0 0)
(0 0 0)
(0 0 0)
(0 0 0)
(0 0 0)
(0 0 0)
(-698.6990206 0 0)
(0 0 0)
(0 0 0)
(0 0 0)
(958.6985724 -878.8070231 0)
(0 0 0)
(0 0 0)
(0 647.1212577 0)
(0 0 0)
(0 0 0)
(0 0 0)
(0 0 0)
(0 0 0)
(0 0 0)
(0 0 0)
(0 0 0)
(0 0 0)
(0 0 0)
(0 0 0)
(-476.5927364 -436.8766742 0)
(0 -740.882678 0)
(0 0 0)
(-695.0623091 637.1404523 0)
(-589.4820296 0 -1.597794243e-12)
(0 0 0)
(0 0 0)
(0 0 0)
(0 0 0)
(0 0 0)
(0 0 0)
(0 -395.9884147 0)
(0 0 0)
(-649.1333364 595.0388939 0)
(-405.1843796 0 0)
(0 0 0)
(0 0 0)
(366.482325 -335.9421306 0)
(0 0 0)
(0 399.5009118 0)
(0 0 0)
(0 0 0)
(0 0 0)
(0 0 0)
(0 0 0)
(0 0 0)
(0 0 0)
(0 0 0)
(0 0 0)
(0 0 0)
(-948.0735766 -869.0674483 0)
(0 0 0)
(0 -347.3717609 1.027148772e-12)
(0 0 0)
(0 0 0)
(0 0 0)
(0 413.3086723 0)
(0 0 0)
(0 0 0)
(0 0 0)
(0 0 0)
(0 0 0)
(0 0 0)
(1038.207881 -951.690561 0)
(0 0 0)
(0 0 0)
(0 655.5364444 -1.938365549e-12)
(0 0 0)
(0 0 0)
(349.3557814 0 0)
(0 0 0)
(0 0 0)
(0 0 0)
(0 0 0)
(0 0 0)
(0 0 0)
(0 0 0)
(0 0 0)
(0 0 0)
(0 0 0)
(-768.2077541 -704.19044 0)
(0 0 0)
(0 0 0)
(0 0 0)
(733.6669293 -672.5280173 0)
(0 0 0)
(0 0 0)
(0 629.6869311 0)
(0 0 0)
(0 0 0)
(0 0 0)
(0 0 0)
(0 0 0)
(0 0 0)
(0 0 0)
(630.3393889 -577.8111055 0)
(0 0 0)
(-788.4078883 722.7072296 0)
(0 0 0)
(0 0 0)
(0 0 0)
(0 0 0)
(0 0 0)
(-685.9949943 0 0)
(-422.7161236 0 0)
(0 0 0)
(0 0 0)
(0 0 0)
(0 0 0)
(0 0 0)
(-884.3548782 -810.6586369 0)
(0 0 0)
(0 0 0)
(0 0 0)
(0 0 0)
(0 0 0)
(371.410359 0 0)
(551.7634891 0 0)
(0 0 0)
(0 0 0)
(0 0 0)
(0 0 0)
(-322.3263354 0 -8.736672827e-13)
(0 0 0)
(0 0 0)
(0 0 0)
(0 -256.1705069 0)
(0 0 0)
(0 0 0)
(0 336.631439 0)
(0 0 0)
(0 0 0)
(0 0 0)
(0 -400.604645 0)
(0 0 0)
(0 0 0)
(-1065.33839 976.5601944 0)
(0 0 0)
(0 0 0)
(0 0 0)
(0 -319.2005902 0)
(0 0 0)
(1102.039336 -1.698903792e-11 0)
(0 0 0)
(0 0 0)
(0 0 0)
(0 0 0)
(0 0 0)
(0 0 0)
(0 0 0)
(0 0 0)
(0 0 0)
(-904.3400019 -828.9783336 0)
(0 0 0)
(-1019.121878 934.1950529 0)
(0 0 0)
(0 0 0)
(0 0 0)
(556.9304105 -510.5195448 0)
(0 0 0)
(-467.8866107 428.896059 0)
(-576.9082035 0 0)
(0 0 0)
(0 0 0)
(0 -502.821853 0)
(0 0 0)
(0 0 0)
(0 0 0)
(0 495.4461957 0)
(0 0 0)
(0 0 0)
(0 0 0)
(530.4429875 0 0)
(0 0 0)
(301.9278253 0 0)
(300.6824767 0 0)
(0 0 0)
(0 0 0)
(0 0 0)
(0 0 0)
(0 0 0)
(0 0 0)
(0 -691.2036663 0)
(0 0 0)
(0 0 0)
(0 0 0)
(-361.922672 331.7624487 0)
(0 0 0)
(0 0 0)
(0 -540.6649351 0)
(0 0 0)
(0 0 0)
(0 0 0)
(0 675.7082005 0)
(0 0 0)
(-1018.465216 -933.5931132 0)
(0 0 0)
(0 0 0)
(0 0 0)
(-502.9984637 461.0819242 0)
(0 0 0)
(0 0 0)
(0 0 0)
(0 0 0)
(0 0 0)
(0 0 0)
(0 0 0)
(0 0 0)
(0 0 0)
(0 0 0)
(0 0 0)
(0 0 0)
(0 0 0)
(-602.1633384 -551.9830622 0)
(0 0 0)
(0 0 0)
(0 0 0)
(0 0 0)
(0 301.3201333 0)
(0 0 0)
(0 -415.506902 0)
(0 0 0)
(0 0 0)
(0 0 0)
(-710.3622349 651.1653844 0)
(-1052.576589 -964.861877 0)
(0 0 0)
(0 0 0)
(0 0 0)
(0 0 0)
(0 0 0)
(0 462.4843765 0)
(0 0 0)
(0 0 0)
(0 0 0)
(0 0 0)
(0 0 0)
(0 0 0)
(0 0 0)
(0 0 0)
(0 0 0)
(-307.8983752 0 -8.345602136e-13)
(-482.2797151 0 0)
(-1088.383356 -997.6847416 0)
(0 0 0)
(0 0 0)
(0 0 0)
(0 0 0)
(0 0 0)
(0 601.8351611 0)
(0 0 0)
(0 0 0)
(384.6414656 0 -1.042572782e-12)
(393.155814 -360.3928309 0)
(0 0 0)
(0 0 0)
(0 0 0)
(0 0 0)
(0 0 0)
(0 0 0)
(0 0 0)
(0 0 0)
(0 263.8056484 0)
(0 0 0)
(0 0 0)
(0 0 0)
(0 0 0)
(0 0 0)
(0 -629.3352609 0)
(0 0 0)
(0 0 0)
(0 -436.2391019 0)
(0 0 0)
(0 0 0)
(0 0 0)
(0 0 0)
(0 0 0)
(0 0 0)
(801.5155528 734.7225887 0)
(704.1785019 0 0)
(0 0 0)
(0 0 0)
(0 0 0)
(0 0 0)
(0 -362.1728637 0)
(0 0 0)
(0 0 0)
(0 0 0)
(0 0 0)
(0 0 0)
(0 0 0)
(0 0 0)
(0 0 0)
(-657.602994 602.8027434 0)
(0 0 0)
(0 0 0)
(0 0 0)
(0 0 0)
(0 0 0)
(0 -589.6594008 0)
(0 0 0)
(0 0 0)
(0 -577.3236653 0)
(0 0 0)
(0 0 0)
(0 0 0)
(0 0 0)
(0 0 0)
(435.6978408 399.3896866 0)
(0 0 0)
(0 0 0)
(0 0 0)
(0 0 0)
(0 0 0)
(0 0 0)
(-342.4424673 -313.9055961 0)
(0 0 0)
(0 0 0)
(0 0 0)
(0 0 0)
(0 0 0)
(0 0 0)
(0 0 0)
(0 0 0)
(0 0 0)
(-1022.783677 937.5517075 0)
(0 0 0)
(0 0 0)
(0 0 0)
(0 0 0)
(0 -648.3210538 0)
(0 0 0)
(0 0 0)
(0 0 0)
(280.0867926 0 0)
(529.1851036 0 0)
(954.874413 -875.3015485 0)
(0 0 0)
(0 0 0)
(-402.2402101 368.7201919 -1.090274268e-12)
(-247.4192963 0 0)
(0 0 0)
(0 0 0)
(0 0 0)
(0 0 0)
(0 -457.6653737 -1.353277611e-12)
(0 0 0)
(0 0 0)
(0 0 0)
(0 0 0)
(0 0 0)
(0 0 0)
(0 0 0)
(0 0 0)
(0 0 0)
(0 0 0)
(0 0 0)
(0 721.8840099 0)
(0 0 0)
(0 0 0)
(0 0 0)
(0 -483.5385127 0)
(0 0 0)
(0 0 0)
(0 0 0)
(0 0 0)
(0 0 0)
(0 0 0)
(853.8414418 -782.6879868 0)
(0 0 0)
(0 0 0)
(0 0 0)
(0 356.1625671 0)
(0 0 0)
(0 0 0)
(0 0 0)
(0 -364.2694904 0)
(0 0 0)
(0 0 0)
(0 0 0)
(0 0 0)
(0 0 0)
(0 0 0)
(0 0 0)
(0 0 0)
(0 0 0)
(0 0 0)
(0 0 0)
(0 591.0079857 -1.7475604e-12)
(0 0 0)
(0 0 0)
(0 0 0)
(0 0 0)
(0 0 0)
(0 0 0)
(0 0 0)
(0 0 0)
(0 0 0)
(0 0 0)
(0 0 0)
(832.2567693 -762.9020371 0)
(0 0 0)
(0 0 0)
(-846.3029956 775.7777488 0)
(0 0 0)
(0 0 0)
(0 0 0)
(0 -523.1861574 -1.547016999e-12)
(0 0 0)
(0 0 0)
(0 0 0)
(0 0 0)
(0 0 0)
(0 0 0)
(0 0 0)
(0 0 0)
(0 0 0)
(0 0 0)
(0 0 0)
(0 436.733608 0)
(0 0 0)
(0 0 0)
(-263.0007836 0 0)
(-783.7889752 -718.4732299 0)
(0 0 0)
(0 0 0)
(0 0 0)
(0 0 0)
(0 0 0)
(0 0 0)
(0 0 0)
(0 0 0)
(350.7127567 -321.4866948 0)
(0 0 0)
(0 0 0)
(0 721.3618 0)
(0 0 0)
(0 0 0)
(0 -535.7301985 0)
(0 0 0)
(0 0 0)
(0 0 0)
(0 0 0)
(0 0 0)
(0 0 0)
(0 0 0)
(0 0 0)
(0 0 0)
(0 0 0)
(0 0 0)
(-788.6960012 722.9713331 0)
(0 0 0)
(0 -346.3306407 0)
(0 0 0)
(0 0 0)
(0 0 0)
(0 0 0)
(0 0 0)
(0 0 0)
(0 0 0)
(0 0 0)
(0 0 0)
(0 0 0)
(0 0 0)
(427.8518563 -392.1975343 0)
(0 0 0)
(0 731.4306674 0)
(0 0 0)
(0 0 0)
(0 0 0)
(746.8767714 -684.6370392 0)
(0 0 0)
(0 0 0)
(0 0 0)
(0 0 0)
(0 0 0)
(0 0 0)
(0 0 0)
(2144.778844 3.270057039e-11 0)
(0 0 0)
(0 0 0)
(0 0 0)
(0 314.3058347 0)
(-591.3328421 -542.0551043 0)
(0 0 0)
(0 0 0)
(0 0 0)
(0 0 0)
(0 0 0)
(0 0 0)
(0 0 0)
(0 0 0)
(0 0 0)
(0 0 0)
(0 0 0)
(0 0 0)
(250.7877322 0 0)
(0 0 0)
(0 0 0)
(0 0 0)
(0 0 0)
(0 -561.901201 0)
(0 0 0)
(0 0 0)
(0 0 0)
(0 0 0)
(0 0 0)
(0 0 0)
(4.866077773e-06 817.7749697 0)
(-956.4099131 -876.7090902 0)
(0 0 0)
(0 0 0)
(0 0 0)
(0 -626.9273068 0)
(0 0 0)
(0 0 0)
(0 0 0)
(0 0 0)
(0 0 0)
(0 0 0)
(0 0 0)
(0 0 0)
(0 0 0)
(0 0 0)
(0 0 0)
(0 0 0)
(0 0 0)
(0 0 0)
(-356.702109 0 0)
(0 0 0)
(0 0 0)
(0 0 0)
(0 0 0)
(984.368115 -902.337442 0)
(0 0 0)
(0 0 0)
(0 0 0)
(0 0 0)
(0 0 0)
(0 0 0)
(0 0 0)
(0 0 0)
(0 0 0)
(0 0 0)
(0 1484.679206 0)
(0 0 0)
(0 0 0)
(0 0 0)
(0 0 0)
(0 0 0)
(0 0 0)
(0 0 0)
(0 0 0)
(0 0 0)
(0 0 0)
(0 0 0)
(0 0 0)
(0 0 0)
(0 -466.446262 0)
(0 0 0)
(-1061.596983 973.1305661 0)
(0 0 0)
(0 0 0)
(0 0 0)
(0 -472.3367011 0)
(0 0 0)
(0 0 0)
(0 0 0)
(0 0 0)
(0 0 0)
(0 0 0)
(0 0 0)
(0 0 0)
(0 0 0)
(0 0 0)
(0 354.5365743 0)
(706.9259444 0 0)
(612.8348929 0 0)
(697.697042 -639.5556207 0)
(0 0 0)
(0 0 0)
(0 0 0)
(0 0 0)
(0 0 0)
(0 0 0)
(0 0 0)
(0 0 0)
(0 0 0)
(0 0 0)
(0 -339.5320716 0)
(0 0 0)
(0 0 0)
(0 302.9192544 0)
(0 0 0)
(0 0 0)
(0 0 0)
(739.8925859 -678.2348692 0)
(0 0 0)
(0 0 0)
(0 0 0)
(0 0 0)
(0 0 0)
(0 0 0)
(0 0 0)
(0 0 0)
(0 0 0)
(0 274.1194178 0)
(0 0 0)
(0 0 0)
(0 -626.3009925 0)
(0 0 0)
(0 0 0)
(0 0 0)
(0 0 0)
(0 0 0)
(0 0 0)
(0 0 0)
(0 0 0)
(0 0 0)
(0 0 0)
(0 -504.3219076 0)
(0 0 0)
(0 0 0)
(0 556.6571123 0)
(0 0 0)
(0 0 0)
(0 0 0)
(0 0 0)
(669.201522 0 0)
(818.2155554 -750.0309285 0)
(0 0 0)
(0 0 0)
(0 0 0)
(0 0 0)
(1076.574901 986.8603294 0)
(529.9414044 0 0)
(462.8406645 0 0)
(0 0 0)
(-382.7631319 0 0)
(-236.7930615 0 0)
(-658.3564597 -603.4934203 0)
(0 0 0)
(0 0 0)
(0 0 0)
(0 0 0)
(0 0 0)
(0 0 0)
(0 0 0)
(0 0 0)
(0 0 0)
(0 0 0)
(0 0 0)
(276.9341367 0 0)
(667.9377245 0 0)
(0 0 0)
(0 0 0)
(0 0 0)
(0 0 0)
(0 0 0)
(0 0 0)
(0 0 0)
(665.2197797 0 0)
(318.9977972 0 0)
(473.0607292 0 0)
(376.0258061 0 0)
(0 0 0)
(0 0 0)
(0 0 0)
(0 -547.3331677 0)
(0 0 0)
(0 0 0)
(0 0 0)
(0 0 0)
(0 0 0)
(0 0 0)
(0 0 0)
(0 0 0)
(0 0 0)
(0 0 0)
(0 0 0)
(0 0 0)
(0 0 0)
(0 0 0)
(0 0 0)
(0 0 0)
(0 0 0)
(0 0 0)
(0 0 0)
(0 0 0)
(0 0 0)
(0 0 0)
(0 0 0)
(0 0 0)
(0 0 0)
(0 0 0)
(0 0 0)
(0 0 0)
(0 0 0)
(0 0 0)
(0 0 0)
(312.0066364 0 0)
(282.3249985 0 0)
(344.8256784 0 0)
)
;

boundaryField
{
    walls
    {
        type            calculated;
        value           uniform (0 0 0);
    }
    wallFilmFace_top
    {
        type            calculated;
        value           uniform (0 0 0);
    }
    region0_to_wallFilmRegion_wallFilmFace
    {
        type            calculated;
        value           uniform (0 0 0);
    }
    mirrorFace_top
    {
        type            calculated;
        value           nonuniform List<vector> 0();
    }
    region0_to_wallFilmRegion_mirrorFace
    {
        type            calculated;
        value           nonuniform List<vector> 0();
    }
    procBoundary1to0
    {
        type            processor;
        value           uniform (0 0 0);
    }
    procBoundary1to2
    {
        type            processor;
        value           uniform (0 0 0);
    }
}


// ************************************************************************* //
