/*--------------------------------*- C++ -*----------------------------------*\
  =========                 |
  \\      /  F ield         | OpenFOAM: The Open Source CFD Toolbox
   \\    /   O peration     | Website:  https://openfoam.org
    \\  /    A nd           | Version:  8
     \\/     M anipulation  |
\*---------------------------------------------------------------------------*/
FoamFile
{
    version     2.0;
    format      ascii;
    class       volScalarField;
    location    "1.4/wallFilmRegion";
    object      mu;
}
// * * * * * * * * * * * * * * * * * * * * * * * * * * * * * * * * * * * * * //

dimensions      [1 -1 -1 0 0 0 0];

internalField   nonuniform List<scalar> 
1369
(
0.0008861473774
0.0008861473539
0.0008861473525
0.000886147336
0.000886147321
0.0008861472933
0.0008861472426
0.0008861473791
0.0008861473599
0.0008861473535
0.0008861473371
0.0008861473224
0.0008861472954
0.0008861472466
0.0008861471633
0.0008861470642
0.0008861470412
0.0008861471012
0.000886147381
0.0008861473631
0.0008861473528
0.0008861473359
0.0008861473211
0.0008861472942
0.0008861472463
0.0008861471676
0.0008861470826
0.0008861470746
0.0008861471364
0.0008861472032
0.0008861472587
0.0008861473829
0.0008861473636
0.0008861473495
0.0008861473305
0.0008861473149
0.0008861472869
0.0008861472383
0.0008861471634
0.0008861470951
0.0008861471058
0.0008861471712
0.0008861472352
0.0008861472889
0.000886147335
0.0008861473726
0.0008861473988
0.0008861474133
0.0008861473848
0.0008861473623
0.0008861473412
0.0008861473169
0.0008861472991
0.0008861472679
0.0008861472162
0.0008861471449
0.0008861470981
0.0008861471308
0.0008861472015
0.0008861472651
0.000886147318
0.0008861473623
0.0008861473967
0.0008861474191
0.0008861474345
0.0008861474443
0.0008861474403
0.0008861473869
0.0008861473617
0.0008861473229
0.0008861472839
0.0008861472607
0.0008861472222
0.0008861471642
0.0008861471001
0.0008861470864
0.0008861471461
0.0008861472228
0.0008861472883
0.000886147341
0.0008861473823
0.0008861474113
0.0008861474298
0.0008861474443
0.0008861474575
0.0008861474691
0.0008861473862
0.0008861473945
0.0008861473987
0.0008861474825
0.0008861473893
0.0008861473639
0.000886147283
0.000886147192
0.0008861471531
0.0008861470984
0.0008861470344
0.0008861470032
0.000886147056
0.0008861471511
0.0008861472323
0.0008861473011
0.0008861473538
0.0008861473919
0.0008861474176
0.0008861474335
0.000886147448
0.0008861474613
0.0008861474738
0.0008861473545
0.0008861473589
0.0008861473834
0.0008861474991
0.00088614752
0.0008861474804
0.0008861473914
0.0008861473683
0.0008861472095
0.0008861469907
0.0008861469167
0.0008861468721
0.0008861468843
0.0008861469663
0.0008861470756
0.0008861471655
0.0008861472309
0.0008861472995
0.0008861473531
0.0008861473902
0.0008861474162
0.0008861474315
0.000886147446
0.0008861474572
0.0008861474675
0.0008861473566
0.0008861474105
0.0008861474305
0.0008861474999
0.0008861475145
0.0008861474809
0.0008861474543
0.0008861473922
0.0008861473701
0.0008861472736
0.0008861471748
0.000886147118
0.0008861470585
0.0008861470092
0.0008861470016
0.0008861470476
0.0008861471153
0.0008861471841
0.0008861472717
0.00088614734
0.0008861473857
0.0008861474097
0.0008861474256
0.0008861474407
0.0008861474491
0.0008861474538
0.0008861474407
0.0008861474454
0.0008861474425
0.0008861474893
0.0008861475014
0.0008861474706
0.0008861474691
0.0008861473927
0.0008861473725
0.0008861472954
0.0008861472453
0.000886147201
0.0008861471431
0.0008861470703
0.0008861470028
0.0008861469801
0.0008861470085
0.0008861470737
0.0008861471594
0.0008861472679
0.0008861473499
0.000886147398
0.0008861474263
0.0008861474388
0.0008861474437
0.0008861474465
0.0008861474491
0.0008861474385
0.0008861474379
0.0008861474597
0.0008861474872
0.0008861474615
0.000886147469
0.0008861475039
0.0008861473928
0.0008861473756
0.0008861473065
0.0008861472828
0.0008861472476
0.0008861471937
0.0008861471125
0.0008861470126
0.000886146968
0.0008861470641
0.0008861472503
0.0008861472082
0.0008861473213
0.0008861473617
0.0008861473995
0.0008861474384
0.0008861474489
0.0008861474454
0.0008861474356
0.0008861474281
0.0008861474271
0.0008861474256
0.0008861474404
0.0008861474686
0.0008861474483
0.0008861474604
0.0008861475284
0.0008861473925
0.0008861473752
0.0008861473186
0.0008861473063
0.0008861472836
0.0008861472508
0.0008861472195
0.0008861472254
0.0008861473022
0.0008861473489
0.0008861473698
0.0008861473848
0.000886147402
0.0008861474196
0.0008861474386
0.0008861474502
0.0008861474519
0.0008861474423
0.0008861474243
0.0008861474084
0.0008861474246
0.0008861474275
0.0008861474217
0.0008861474177
0.0008861474177
0.0008861474368
0.0008861474674
0.0008861473917
0.0008861473803
0.0008861473612
0.0008861473292
0.0008861473383
0.0008861473544
0.000886147368
0.0008861473746
0.0008861473777
0.0008861473791
0.0008861473838
0.0008861473965
0.0008861474122
0.0008861474283
0.000886147439
0.0008861474442
0.0008861474423
0.0008861474283
0.0008861474097
0.0008861473903
0.0008861473513
0.0008861473995
0.0008861473972
0.000886147399
0.0008861473959
0.0008861474181
0.0008861474467
0.0008861474752
0.0008861473843
0.0008861473717
0.0008861473641
0.0008861473463
0.0008861473597
0.0008861473716
0.0008861473789
0.0008861473819
0.0008861473804
0.0008861473777
0.000886147382
0.0008861473971
0.0008861474133
0.0008861474239
0.0008861474298
0.000886147432
0.0008861474265
0.0008861474118
0.0008861473979
0.0008861473803
0.0008861468852
0.0008861471669
0.0008861472562
0.0008861474057
0.0008861474041
0.0008861474466
0.0008861474673
0.0008861475079
0.0008861475217
0.000886147382
0.0008861473699
0.0008861473646
0.00088614736
0.0008861473707
0.0008861473794
0.0008861473834
0.0008861473815
0.0008861473758
0.0008861473745
0.0008861473816
0.0008861473948
0.0008861474076
0.0008861474149
0.0008861474176
0.0008861474155
0.0008861474076
0.0008861473997
0.000886147392
0.0008861473742
0.0008861468727
0.0008861472436
0.0008861473385
0.0008861474315
0.0008861474706
0.0008861474544
0.0008861474883
0.0008861475177
0.000886147522
0.0008861473803
0.0008861473547
0.0008861473674
0.0008861473721
0.0008861473794
0.0008861473839
0.0008861473835
0.0008861473766
0.0008861473697
0.0008861473702
0.0008861473786
0.0008861473907
0.0008861474016
0.0008861474068
0.0008861474064
0.0008861474013
0.0008861473978
0.0008861473955
0.0008861473903
0.0008861473738
0.0008861467643
0.0008861474102
0.0008861474566
0.0008861474746
0.0008861474747
0.0008861474644
0.0008861475053
0.0008861475283
0.0008861475183
0.0008861473778
0.0008861473702
0.000886147374
0.0008861473805
0.0008861473845
0.0008861473858
0.0008861473813
0.0008861473705
0.0008861473633
0.0008861473646
0.0008861473741
0.0008861473871
0.0008861473972
0.0008861474009
0.0008861473992
0.0008861473973
0.0008861473978
0.0008861473957
0.0008861473898
0.0008861473692
0.000886146848
0.0008861474391
0.0008861474763
0.0008861474906
0.0008861474923
0.0008861474914
0.0008861475134
0.0008861475218
0.0008861475194
0.0008861475112
0.0008861475136
0.0008861475274
0.0008861475267
0.0008861475281
0.0008861473769
0.0008861473765
0.0008861473803
0.0008861473851
0.0008861473872
0.0008861473859
0.0008861473767
0.000886147363
0.000886147356
0.0008861473579
0.0008861473692
0.0008861473839
0.0008861473927
0.0008861473958
0.0008861473962
0.0008861473985
0.0008861474
0.0008861473969
0.00088614739
0.0008861473678
0.0008861471454
0.000886147447
0.0008861474705
0.0008861474872
0.000886147507
0.0008861475062
0.0008861475195
0.0008861475226
0.0008861475222
0.0008861475164
0.0008861475153
0.0008861475265
0.0008861475265
0.0008861475285
0.0008861473771
0.0008861473813
0.0008861473846
0.0008861473876
0.000886147388
0.0008861473831
0.0008861473678
0.0008861473521
0.0008861473442
0.0008861473444
0.0008861473547
0.0008861473702
0.0008861473808
0.0008861473873
0.000886147395
0.0008861474
0.0008861474018
0.0008861473992
0.0008861473907
0.0008861473745
0.0008861472655
0.0008861473721
0.0008861474352
0.0008861474461
0.0008861474809
0.000886147505
0.0008861475233
0.0008861475245
0.0008861475246
0.0008861475206
0.0008861475216
0.0008861475272
0.0008861475282
0.0008861475308
0.0008861473798
0.0008861473878
0.0008861473895
0.0008861473904
0.0008861473873
0.0008861473726
0.0008861473513
0.0008861473345
0.0008861473139
0.0008861472763
0.0008861472057
0.0008861473081
0.000886147358
0.0008861473812
0.0008861473962
0.0008861474012
0.0008861474037
0.0008861474022
0.0008861473882
0.0008861473713
0.0008861472947
0.0008861473556
0.0008861473817
0.0008861474333
0.0008861474602
0.0008861474706
0.0008861475116
0.000886147525
0.0008861475257
0.0008861475241
0.0008861475281
0.0008861475287
0.0008861475318
0.0008861473815
0.00088614739
0.0008861473912
0.0008861473911
0.0008861473868
0.0008861473743
0.00088614736
0.0008861473552
0.0008861473669
0.0008861473846
0.0008861473939
0.0008861473978
0.0008861474001
0.0008861474019
0.0008861474032
0.0008861474044
0.0008861474051
0.0008861474042
0.000886147389
0.0008861473741
0.0008861473777
0.0008861474189
0.0008861474102
0.0008861474186
0.0008861474374
0.0008861474511
0.0008861474792
0.0008861474992
0.0008861475191
0.0008861475254
0.0008861475286
0.000886147516
0.0008861473796
0.0008861473901
0.0008861473911
0.0008861473906
0.0008861473866
0.0008861473767
0.0008861473654
0.0008861473617
0.0008861473708
0.0008861473838
0.0008861473927
0.0008861473989
0.0008861474018
0.0008861474031
0.000886147404
0.0008861474054
0.0008861474062
0.0008861474054
0.0008861473913
0.0008861473743
0.0008861462655
0.0008861474456
0.0008861474357
0.000886147429
0.0008861474009
0.0008861474221
0.0008861474472
0.0008861474787
0.0008861475065
0.0008861474947
0.0008861474816
0.0008861474601
0.0008861473751
0.0008861473889
0.0008861473904
0.0008861473901
0.0008861473873
0.0008861473806
0.0008861473732
0.0008861473724
0.0008861473822
0.0008861473981
0.000886147411
0.0008861474133
0.0008861474094
0.0008861474059
0.0008861474047
0.0008861474055
0.000886147406
0.0008861474048
0.0008861473916
0.0008861473751
0.0008861435402
0.0008861474502
0.0008861474427
0.0008861474344
0.0008861474227
0.0008861474077
0.0008861474118
0.0008861474622
0.0008861474845
0.0008861474752
0.0008861474662
0.0008861474551
0.0008861473771
0.0008861473877
0.0008861473899
0.0008861473906
0.00088614739
0.0008861473889
0.0008861473907
0.0008861473992
0.0008861474116
0.0008861474212
0.0008861474228
0.0008861474168
0.0008861474108
0.0008861474079
0.0008861474053
0.000886147405
0.0008861474048
0.0008861474026
0.0008861473933
0.0008861473704
0.0008861437851
0.0008861474554
0.000886147453
0.0008861474469
0.0008861474395
0.0008861474355
0.0008861474441
0.0008861474629
0.0008861474805
0.0008861474821
0.0008861474673
0.000886147379
0.000886147386
0.0008861473894
0.0008861473915
0.0008861473932
0.0008861473956
0.0008861474002
0.0008861474072
0.0008861474146
0.0008861474193
0.000886147418
0.0008861474126
0.0008861474099
0.0008861474089
0.0008861474077
0.0008861474069
0.0008861474056
0.0008861474023
0.0008861474113
0.0008861474291
0.0008861474604
0.0008861474691
0.0008861474687
0.0008861474643
0.0008861474597
0.0008861474596
0.0008861474748
0.0008861474902
0.000886147464
0.0008861474723
0.0008861474739
0.0008861473805
0.0008861473822
0.0008861473878
0.0008861473916
0.0008861473946
0.0008861473982
0.0008861474028
0.000886147408
0.000886147413
0.0008861474163
0.0008861474155
0.000886147411
0.0008861474095
0.0008861474091
0.0008861474084
0.0008861474083
0.0008861474078
0.0008861474061
0.0008861474278
0.0008861474528
0.000886147474
0.0008861474789
0.0008861474909
0.0008861474845
0.0008861474866
0.0008861474773
0.0008861475032
0.0008861475339
0.0008861474821
0.0008861474867
0.0008861474844
0.0008861473816
0.0008861473765
0.0008861473836
0.0008861473896
0.0008861473942
0.0008861473991
0.0008861474046
0.00088614741
0.0008861474142
0.0008861474161
0.000886147413
0.0008861474095
0.0008861474088
0.0008861474088
0.0008861474087
0.0008861474088
0.0008861474089
0.000886147408
0.000886147429
0.0008861474349
0.0008861474693
0.0008861474753
0.0008861474891
0.0008861474953
0.0008861475101
0.0008861475352
0.0008861475344
0.000886147562
0.0008861475044
0.0008861474916
0.0008861474764
0.0008861473824
0.0008861473754
0.0008861473784
0.0008861473851
0.0008861473916
0.0008861473979
0.0008861474036
0.0008861474078
0.0008861474101
0.0008861474102
0.0008861474089
0.0008861474083
0.000886147408
0.0008861474078
0.0008861474088
0.0008861474095
0.0008861474111
0.0008861474099
0.0008861474248
0.0008861474136
0.0008861474592
0.00088614747
0.0008861474888
0.0008861474917
0.0008861475084
0.0008861475255
0.0008861475358
0.0008861475542
0.0008861475235
0.0008861474505
0.0008861473717
0.0008861473829
0.0008861473815
0.0008861473838
0.000886147387
0.0008861473919
0.0008861473965
0.0008861474007
0.0008861474043
0.0008861474073
0.0008861474085
0.0008861474084
0.0008861474082
0.0008861474081
0.0008861474077
0.0008861474083
0.0008861474098
0.0008861474145
0.0008861474113
0.0008861474113
0.0008861474108
0.0008861474103
0.0008861474248
0.0008861474819
0.0008861474941
0.0008861475126
0.0008861475157
0.0008861475007
0.0008861474761
0.0008861474563
0.0008861473564
0.0008861473963
0.0008861473833
0.0008861473877
0.0008861473953
0.0008861473984
0.0008861473998
0.0008861474
0.0008861473991
0.0008861473996
0.0008861474034
0.0008861474065
0.0008861474075
0.0008861474079
0.000886147408
0.0008861474078
0.0008861474079
0.0008861474109
0.0008861474228
0.0008861474119
0.0008861474111
0.0008861474103
0.0008861474043
0.0008861474087
0.0008861474705
0.0008861474749
0.0008861474756
0.0008861474628
0.0008861474919
0.0008861474932
0.0008861475318
0.0008861475132
0.0008861474932
0.0008861473835
0.0008861473908
0.0008861473996
0.0008861474026
0.0008861474032
0.0008861474024
0.0008861473987
0.0008861473938
0.0008861473974
0.0008861474032
0.0008861474061
0.0008861474073
0.0008861474078
0.0008861474079
0.0008861474078
0.0008861474123
0.0008861474309
0.000886147414
0.0008861474146
0.000886147411
0.000886147394
0.0008861465948
0.0008861472239
0.0008861474641
0.000886147467
0.00088614745
0.0008861474707
0.0008861474801
0.0008861474602
0.0008861474898
0.0008861475192
0.0008861473831
0.000886147388
0.0008861473976
0.0008861474013
0.0008861474022
0.0008861474013
0.0008861473966
0.0008861473862
0.000886147388
0.0008861473978
0.0008861474034
0.0008861474061
0.0008861474073
0.0008861474077
0.0008861474079
0.0008861474123
0.0008861474239
0.0008861474155
0.000886147412
0.0008861474039
0.0008861472153
0.0008861452998
0.0008861469873
0.0008861474509
0.0008861474599
0.0008861474587
0.0008861474921
0.0008861475062
0.000886147487
0.0008861474871
0.0008861474938
0.0008861473825
0.0008861473787
0.000886147392
0.0008861473975
0.0008861473988
0.0008861473977
0.0008861473913
0.0008861473756
0.0008861473741
0.0008861473889
0.0008861473987
0.0008861474037
0.0008861474061
0.0008861474073
0.000886147408
0.0008861474117
0.0008861474067
0.0008861474135
0.000886147407
0.0008861473663
0.0008861453706
0.0008861450728
0.0008861470484
0.0008861474114
0.0008861474533
0.0008861474559
0.000886147473
0.0008861474811
0.0008861474831
0.0008861474879
0.0008861474487
0.0008861473824
0.000886147365
0.000886147382
0.0008861473902
0.000886147392
0.0008861473908
0.0008861473835
0.0008861473668
0.0008861473599
0.0008861473766
0.0008861473925
0.0008861474023
0.0008861474086
0.0008861474144
0.0008861474234
0.0008861474259
0.0008861474101
0.0008861474107
0.000886147397
0.0008861468726
0.000886138441
0.000886136949
0.0008861469357
0.0008861473423
0.0008861474408
0.0008861474524
0.0008861474444
0.0008861474315
0.0008861474611
0.0008861475038
0.0008861475002
0.0008861473824
0.0008861473567
0.0008861473637
0.0008861473804
0.0008861473858
0.0008861473892
0.000886147392
0.0008861473981
0.0008861474098
0.0008861474218
0.0008861474286
0.0008861474279
0.0008861474224
0.000886147425
0.0008861474349
0.0008861474367
0.0008861474095
0.0008861474041
0.0008861473779
0.0008861465351
0.0008861435548
0.0008861410751
0.0008861468232
0.0008861472756
0.000886147389
0.0008861474416
0.000886147425
0.000886147421
0.0008861474305
0.0008861474808
0.0008861475119
0.0008861473823
0.0008861473507
0.0008861473109
0.0008861473655
0.0008861473812
0.0008861473917
0.000886147402
0.000886147415
0.00088614743
0.0008861474431
0.0008861474521
0.0008861474552
0.0008861474469
0.0008861474341
0.00088614744
0.0008861474392
0.0008861474019
0.00088614739
0.0008861473453
0.0008861466611
0.0008861454402
0.0008861440032
0.0008861467715
0.0008861472124
0.0008861473826
0.0008861474078
0.0008861474124
0.0008861474154
0.0008861474199
0.0008861474729
0.0008861475145
0.0008861473821
0.0008861473526
0.0008861473594
0.000886147365
0.0008861473659
0.0008861473764
0.0008861474035
0.0008861474183
0.0008861474335
0.0008861474479
0.0008861474594
0.0008861474656
0.0008861474625
0.0008861474449
0.0008861474419
0.0008861474337
0.0008861473894
0.00088614737
0.0008861473001
0.0008861468195
0.0008861462379
0.0008861453763
0.0008861467502
0.0008861471874
0.0008861473533
0.0008861473875
0.0008861474073
0.0008861474151
0.0008861474161
0.0008861474845
0.0008861475253
0.0008861473782
0.0008861473638
0.0008861473654
0.0008861473653
0.0008861473664
0.0008861473708
0.0008861473806
0.0008861474115
0.0008861474289
0.0008861474456
0.0008861474604
0.0008861474687
0.0008861474702
0.0008861474557
0.0008861474443
0.0008861474258
0.000886147379
0.000886147346
0.0008861472561
0.0008861469588
0.0008861466455
0.0008861460382
0.000886146758
0.000886147211
0.0008861473219
0.0008861473789
0.0008861474105
0.0008861474156
0.0008861474116
0.0008861474199
0.0008861474861
0.0008861473786
0.0008861473637
0.0008861473633
0.0008861473633
0.0008861473644
0.0008861473689
0.0008861473815
0.0008861473756
0.0008861474104
0.0008861474345
0.0008861474567
0.0008861474676
0.0008861474738
0.0008861474627
0.0008861474482
0.0008861474228
0.0008861473745
0.0008861473258
0.0008861472349
0.0008861470619
0.0008861468676
0.0008861464635
0.0008861468166
0.0008861472593
0.0008861473266
0.000886147396
0.0008861474138
0.000886147427
0.0008861474135
0.0008861474593
0.0008861475396
0.0008861473793
0.0008861473716
0.0008861473596
0.0008861473619
0.0008861473617
0.0008861473639
0.0008861473766
0.0008861473905
0.0008861473838
0.0008861474056
0.0008861474494
0.000886147466
0.0008861474752
0.0008861474664
0.000886147452
0.0008861474254
0.000886147378
0.0008861473184
0.0008861472392
0.0008861471388
0.0008861470266
0.0008861468724
0.0008861469692
0.0008861473088
0.000886147327
0.0008861473881
0.0008861474094
0.0008861474314
0.000886147423
0.0008861475123
0.000886147544
0.0008861473801
0.0008861473751
0.0008861473625
0.0008861473639
0.0008861473631
0.0008861473617
0.0008861473614
0.0008861473864
0.0008861473953
0.0008861473881
0.0008861474399
0.0008861474648
0.000886147475
0.0008861474678
0.0008861474544
0.0008861474301
0.0008861473884
0.0008861473277
0.0008861472659
0.0008861472135
0.0008861471732
0.0008861471793
0.0008861472703
0.0008861473641
0.0008861473189
0.0008861473764
0.0008861473983
0.0008861474226
0.000886147452
0.0008861475072
0.0008861475278
0.0008861473808
0.0008861473772
0.0008861473686
0.000886147366
0.0008861473643
0.0008861473628
0.0008861473612
0.000886147367
0.0008861473868
0.000886147391
0.0008861474046
0.0008861474622
0.0008861474732
0.0008861474668
0.0008861474542
0.000886147433
0.0008861473994
0.0008861473493
0.000886147309
0.0008861472905
0.0008861473045
0.0008861473496
0.0008861473818
0.0008861473944
0.0008861473016
0.0008861473611
0.0008861473878
0.0008861474156
0.0008861474577
0.0008861474771
0.0008861474852
0.000886147381
0.0008861473785
0.000886147369
0.0008861473663
0.0008861473646
0.000886147363
0.0008861473615
0.0008861473618
0.0008861473719
0.0008861473791
0.0008861473812
0.0008861474557
0.0008861474689
0.0008861474629
0.0008861474507
0.0008861474318
0.0008861474054
0.0008861473701
0.0008861473458
0.0008861473373
0.0008861473459
0.0008861473695
0.000886147386
0.0008861473864
0.0008861472837
0.0008861473437
0.0008861473807
0.0008861474122
0.0008861474487
0.0008861474529
0.0008861474544
0.0008861473803
0.000886147372
0.000886147368
0.000886147366
0.0008861473644
0.0008861473626
0.0008861473608
0.0008861473598
0.0008861473661
0.000886147378
0.0008861473791
0.0008861474429
0.0008861474599
0.0008861474549
0.0008861474434
0.0008861474272
0.0008861474065
0.000886147382
0.0008861473658
0.000886147358
0.0008861473567
0.0008861473633
0.000886147367
0.0008861473556
0.0008861472779
0.0008861473307
0.0008861473794
0.0008861474098
0.0008861474541
0.0008861474689
0.0008861474566
0.0008861473783
0.0008861473704
0.0008861473673
0.0008861473657
0.000886147364
0.0008861473616
0.0008861473589
0.0008861473574
0.0008861473619
0.000886147378
0.0008861473776
0.0008861474216
0.0008861474435
0.0008861474418
0.0008861474333
0.0008861474206
0.0008861474048
0.0008861473883
0.0008861473802
0.0008861473783
0.0008861473801
0.0008861473862
0.0008861473904
0.0008861473866
0.0008861473648
0.0008861473815
0.0008861473926
0.0008861474081
0.000886147438
0.0008861474609
0.0008861474512
0.0008861473759
0.0008861473691
0.0008861473669
0.0008861473658
0.0008861473636
0.0008861473604
0.0008861473605
0.0008861473602
0.000886147359
0.0008861473743
0.0008861473729
0.0008861473935
0.0008861474168
0.000886147422
0.0008861474196
0.0008861474119
0.0008861474014
0.0008861473929
0.0008861473914
0.0008861473933
0.0008861473957
0.0008861473985
0.0008861474004
0.0008861473999
0.0008861473926
0.0008861473927
0.0008861473953
0.0008861474061
0.0008861473823
0.0008861474087
0.0008861474379
0.0008861473731
0.0008861473677
0.0008861473664
0.0008861473656
0.0008861473641
0.0008861473666
0.0008861473699
0.0008861473725
0.000886147372
0.0008861473734
0.0008861473666
0.0008861473779
0.00088614739
0.0008861473977
0.0008861474017
0.000886147401
0.0008861473968
0.0008861473936
0.0008861473944
0.0008861473972
0.0008861473998
0.0008861474019
0.0008861474031
0.0008861474034
0.0008861473919
0.000886147391
0.0008861473947
0.0008861473883
0.0008861473805
0.0008861473967
0.0008861474188
0.0008861473686
0.0008861473661
0.0008861473658
0.0008861473652
0.0008861473662
0.0008861473694
0.0008861473736
0.0008861473771
0.0008861473786
0.0008861473775
0.0008861473762
0.0008861473763
0.0008861473771
0.000886147378
0.000886147379
0.00088614738
0.0008861473809
0.0008861473818
0.000886147383
0.0008861473844
0.0008861473857
0.0008861473869
0.0008861473885
0.000886147391
0.0008861473892
0.0008861473895
0.0008861473902
0.0008861473881
0.0008861473888
0.0008861473893
0.0008861473884
)
;

boundaryField
{
    walls
    {
        type            zeroGradient;
    }
    wallFilmFace_top
    {
        type            zeroGradient;
    }
    region0_to_wallFilmRegion_wallFilmFace
    {
        type            zeroGradient;
    }
    mirrorFace_top
    {
        type            zeroGradient;
    }
    region0_to_wallFilmRegion_mirrorFace
    {
        type            zeroGradient;
    }
    procBoundary1to0
    {
        type            processor;
        value           nonuniform List<scalar> 
52
(
0.0008861473757
0.0008861473465
0.0008861473523
0.0008861473389
0.0008861473227
0.0008861472937
0.0008861472396
0.0008861471539
0.0008861471539
0.0008861470425
0.0008861470088
0.0008861470692
0.0008861471731
0.0008861471731
0.0008861472306
0.0008861473053
0.0008861473053
0.0008861473426
0.000886147368
0.0008861473792
0.00088614741
0.00088614741
0.0008861473953
0.0008861473987
0.0008861473987
0.0008861474027
0.0008861474056
0.0008861474418
0.0008861475169
0.0008861475169
0.0008861474904
0.000886147456
0.000886147456
0.0008861474493
0.0008861474825
0.0008861474825
0.0008861475116
0.0008861475142
0.0008861474874
0.0008861474874
0.0008861475067
0.0008861475067
0.000886147521
0.0008861475203
0.0008861475087
0.0008861475087
0.0008861475242
0.0008861475289
0.0008861475302
0.0008861475309
0.000886147528
0.0008861475291
)
;
    }
    procBoundary1to2
    {
        type            processor;
        value           nonuniform List<scalar> 
33
(
0.000886147534
0.0008861475283
0.0008861475283
0.0008861475106
0.0008861475106
0.0008861474521
0.0008861474506
0.0008861474642
0.0008861474642
0.0008861474531
0.0008861473472
0.0008861471617
0.0008861471236
0.0008861472546
0.0008861474953
0.0008861475196
0.0008861474934
0.0008861474342
0.0008861474013
0.0008861474531
0.0008861475092
0.000886147545
0.0008861475549
0.0008861475645
0.0008861475551
0.0008861475311
0.0008861474749
0.000886147424
0.0008861165674
0.0008861467262
0.0008861471448
0.0008861472425
0.0008861473847
)
;
    }
}


// ************************************************************************* //
