/*--------------------------------*- C++ -*----------------------------------*\
  =========                 |
  \\      /  F ield         | OpenFOAM: The Open Source CFD Toolbox
   \\    /   O peration     | Website:  https://openfoam.org
    \\  /    A nd           | Version:  8
     \\/     M anipulation  |
\*---------------------------------------------------------------------------*/
FoamFile
{
    version     2.0;
    format      ascii;
    class       surfaceScalarField;
    location    "1.4/wallFilmRegion";
    object      phi;
}
// * * * * * * * * * * * * * * * * * * * * * * * * * * * * * * * * * * * * * //

dimensions      [1 0 -1 0 0 0 0];

internalField   nonuniform List<scalar> 
2656
(
-0.0003458709979
-0.01675357687
-0.0002549640261
-0.0007371279728
-0.0002161400845
-0.0003157361214
-0.0001723944808
-0.0001658032443
-0.0001251460942
-0.0001446292951
-8.142510621e-05
-0.0001135045365
-8.135667445e-05
-0.0002877017224
-0.01705297248
-0.0002429600694
-0.0006344206897
-0.0002204728777
-0.0002772495719
-0.0001761913793
-0.0001433102235
-0.0001280146814
-0.0001251633346
-8.362515852e-05
-9.835362114e-05
-5.026120374e-05
-7.074059186e-05
-3.168972501e-05
-4.843881371e-05
-2.59278863e-05
-3.649862965e-05
-2.736155977e-05
-3.601642519e-05
-4.030048507e-05
-0.0002224100758
-0.01636044533
-0.0002189631648
-0.0005693481809
-0.0002141884273
-0.000231269452
-0.0001716226116
-0.0001138592525
-0.0001252558071
-9.968717295e-05
-8.259249496e-05
-7.863320344e-05
-5.067533282e-05
-5.708726089e-05
-3.315446716e-05
-4.004020343e-05
-2.800327489e-05
-3.163766657e-05
-2.939734627e-05
-3.277040586e-05
-3.106630673e-05
-3.821862143e-05
-3.373887185e-05
-4.445552291e-05
-5.202155859e-05
-0.0001966849615
-0.01476089674
-0.0001954795693
-0.0005923926813
-0.0001921038827
-0.0001751597712
-0.0001542238244
-7.807376546e-05
-0.0001133068472
-6.865514464e-05
-7.587268262e-05
-5.464937165e-05
-4.817874646e-05
-4.04898251e-05
-3.353278421e-05
-2.972519194e-05
-3.01111133e-05
-2.544228475e-05
-3.231679497e-05
-2.85850713e-05
-3.423644534e-05
-3.569909165e-05
-3.629723025e-05
-4.169946608e-05
-3.883272438e-05
-5.024894094e-05
-4.258687178e-05
-6.471842257e-05
-4.493835138e-05
-0.0001031077182
-4.928069001e-05
-0.0001615161294
-0.0002127209437
-0.0001623195941
-0.01257159918
-0.000155397485
-0.000740705031
-0.0001498207014
-0.000110680817
-0.0001204431037
-4.128913034e-05
-8.94405283e-05
-3.639501375e-05
-6.146423705e-05
-2.952768453e-05
-4.127474134e-05
-2.282899311e-05
-3.154466105e-05
-1.827799929e-05
-3.097551844e-05
-1.784007397e-05
-3.49267159e-05
-2.275082856e-05
-3.806833528e-05
-3.194586424e-05
-4.081723041e-05
-3.898607122e-05
-4.506531672e-05
-4.994322404e-05
-5.159151697e-05
-7.850417115e-05
-5.200849358e-05
-0.000174738529
-5.690671654e-05
-0.0003017466412
-5.400715739e-05
-0.0004177832701
-1.219313663e-05
-0.0003211511828
-0.0001295445899
-9.56804556e-05
-0.01020935522
-0.0001046460396
-0.001019089135
-9.181410858e-05
-4.969687e-05
-7.359895592e-05
-1.319219831e-05
-5.556656797e-05
-1.127083842e-05
-3.998243405e-05
-9.456026627e-06
-2.955748409e-05
-8.02138902e-06
-2.607120174e-05
-7.673721401e-06
-2.898436349e-05
-9.493475856e-06
-3.532238879e-05
-1.512644384e-05
-4.03566394e-05
-2.646573653e-05
-4.575315932e-05
-3.437978639e-05
-5.498768462e-05
-4.863961356e-05
-6.833638643e-05
-0.0001009035794
-6.002731637e-05
-0.0003003482947
-8.504679985e-05
-0.0006236737717
-0.0001529413066
-0.000670296915
-0.0002031296807
-0.0005592426337
-3.580457582e-05
-0.0006340604707
-7.041124789e-05
0.0001632773369
-1.107672121e-05
0.0001831585077
6.909325934e-05
2.123082943e-05
-0.0007328632606
0.0002565501283
-0.008125517474
-5.70514704e-05
-0.001270205069
-3.616565298e-05
-1.2950414e-05
-2.785655714e-05
-1.26946405e-06
-2.132833968e-05
-3.920799309e-07
-1.673063696e-05
-8.304162022e-08
-1.4871518e-05
-2.34539986e-08
-1.69392139e-05
-1.044982347e-07
-2.369020651e-05
-8.379052221e-07
-3.280345978e-05
-5.99976893e-06
-3.866260503e-05
-1.945353556e-05
-4.834976456e-05
-2.430646109e-05
-6.189289091e-05
-4.143876778e-05
-7.623066664e-05
-0.0001051369614
-0.0001141295987
-0.0003724428879
-0.0002493740584
-0.0008154417812
-0.0003194828259
-0.0006368856471
-0.0003710643143
-0.0006232818415
-7.282293121e-06
-0.0007832096545
-6.607471543e-07
7.301689867e-05
2.915543126e-05
2.694628714e-05
3.068297054e-05
2.541956835e-05
-0.0005038233328
-0.0009310335698
-0.0004820030422
-0.001185155147
-8.689175541e-05
0.0003042341063
-0.006614157586
-3.660380935e-05
-0.001095969115
-1.702797854e-05
1.271851605e-05
-1.350546879e-05
4.749912286e-06
-1.170560173e-05
5.106152092e-06
-1.158091858e-05
5.287675034e-06
-1.365599262e-05
5.742057306e-06
-1.878731002e-05
7.079335773e-06
-2.756150422e-05
9.002591371e-06
-3.687906694e-05
4.677731615e-06
-4.109420132e-05
-1.284663833e-05
-4.764671979e-05
-1.579064388e-05
-5.598452272e-05
-3.085874152e-05
-3.222996786e-05
-0.0001015298047
-7.030765445e-05
-0.0002871593794
-0.0002700481747
-0.0005235876103
-0.0003165552956
-0.0004524413631
-0.0003296161465
-0.0005466533036
-4.146757574e-07
-0.0006691490317
2.939306963e-05
1.665238198e-05
0.0001697717031
-0.0007250532013
0.0002366988322
4.53185175e-05
-0.0006167063767
-0.0007565248849
-0.0002409602617
-0.00124677825
-0.0001830365561
-0.0003731285066
-8.284389746e-05
0.0001462620592
-0.005013741378
-8.564118396e-05
-0.0008460608171
-4.308476317e-05
6.031109692e-05
-3.270088001e-05
1.822218828e-05
-2.562392404e-05
1.64217422e-05
-2.118701681e-05
1.463270729e-05
-1.954684662e-05
1.325263178e-05
-2.047785721e-05
1.308912865e-05
-2.285039033e-05
1.394568967e-05
-2.743199309e-05
1.128474948e-05
-3.241395839e-05
-6.233236634e-06
-3.956157928e-05
-6.061142374e-06
-5.431578373e-05
-1.104175425e-05
-9.692510447e-05
-4.0106397e-05
-0.0001476685839
-0.0001581985526
-0.0001832289185
-0.0003288075383
-0.0002960527713
-0.0002775203196
-0.0003606465454
-0.0004690613462
-0.0003204686986
-0.0006483627311
4.656030034e-05
-0.0005101918822
0.0003035387468
-0.0003946530513
-0.0001490073815
-0.0003580241143
-0.0007080827527
-0.0008344089529
-0.0001169951526
-0.0009195434086
-0.0001134280675
-0.0007422936203
-0.001421324466
-5.073906653e-06
-0.003442745734
-0.000131277531
-0.0005820642689
-7.323479044e-05
0.0001233615332
-5.291938498e-05
3.805346104e-05
-3.829405197e-05
3.172605263e-05
-2.756999466e-05
2.590154425e-05
-2.06720714e-05
2.063146491e-05
-1.708756453e-05
1.701494709e-05
-1.56693231e-05
1.541369665e-05
-1.783484738e-05
1.381791901e-05
-1.773389073e-05
-7.702394133e-06
-1.97974095e-05
-3.23347105e-06
-2.183969832e-05
-7.512820409e-06
-4.104520556e-05
-2.735799131e-05
-0.0001496428537
-0.0001124759305
-0.00018885351
-0.0003025085655
-0.0002498823246
-0.0002618016764
-0.0004041455902
-0.0003443628427
-0.0005441015756
-0.0004393496379
-3.348670339e-05
-0.0003409454024
9.501155934e-05
-0.0001609731678
-4.230526918e-05
-0.0001811497713
-0.0005356915411
-0.0007769720534
-4.236470012e-05
-0.0004015742828
0.0001980999856
-0.0008283180493
-0.0002107306798
-0.002567240823
-3.357155704e-05
-3.024435011e-05
-0.002040453581
-0.000154612542
-0.0003354871529
-0.0001065032978
0.0001750224415
-7.398924248e-05
6.406959486e-05
-5.03668612e-05
5.07643856e-05
-3.328522974e-05
3.893227278e-05
-2.282496457e-05
2.83352971e-05
-1.936837399e-05
1.997673266e-05
-2.168980375e-05
1.268796823e-05
-2.911616214e-05
1.053860273e-05
-1.155067508e-05
-3.8955928e-05
-2.964784525e-06
-2.210266617e-05
1.575578615e-05
-5.115690587e-05
1.238920244e-05
-0.0001048418863
-0.0001694129808
-0.0002011937761
-0.0002503418232
-0.0003332121591
-0.0002747951375
-0.0004464483687
-0.0002680862736
-0.0005393224111
-0.0002397661067
-0.0005073814914
-7.945193027e-05
-0.0002871323394
2.553103034e-05
-8.56260248e-05
-1.708126772e-05
-0.0001747690512
-0.0002852766612
-0.0001451890503
2.44666675e-05
2.046391296e-05
0.0005966552445
-0.0004141532046
-5.764409579e-05
-0.001646916315
-0.0005636749519
-4.14482206e-05
-0.0008723457541
-0.0001933038089
-0.0001741142867
-0.0001543703794
0.0002152308792
-0.0001206462942
0.0001005957726
-0.0001011580963
7.088856008e-05
-9.096341815e-05
4.47826578e-05
-9.503000118e-05
2.819951113e-05
-0.000161395488
1.568025329e-05
-0.000247357186
-0.0003051498418
-0.0001789330927
-0.0002850241486
-0.000156722965
-9.400348769e-05
-0.0002372778009
-1.535427637e-05
-0.0002855731748
-8.192176974e-05
-0.0003061426942
-0.0001747146488
-0.0003592774221
-0.0003278971872
-0.000432839131
-0.0005752484971
-0.0003956601716
-0.0007055181335
-0.0002761392464
-0.0006721864412
-0.0001413278205
-0.0005115141998
-3.323683611e-05
-0.0002431161296
8.257680821e-05
-5.304184949e-06
0.0002810456547
8.831728946e-06
0.0004529148909
0.0001295093268
0.000774605663
0.0004784433428
0.001258087135
0.0001045738195
0.002507062325
-0.0002985007177
-0.0005572895469
4.331870298e-05
2.205345939e-05
-9.031381665e-05
-3.164852902e-05
-0.0002584312632
0.0007003736832
-0.0003611464441
0.0001747871684
-0.0006481388415
0.0001063824248
-0.001244684865
-0.0001868030075
-0.001597839432
-0.000732733964
-0.001300098527
-0.0006819735354
-0.0006767014265
-0.0003921819601
-0.0003661150368
-0.0002042674171
-0.0003090960903
-9.25685046e-05
-0.0003223355847
-4.744595212e-05
-0.000339679172
-0.0001218093129
-0.000418772792
-0.0002620957407
-0.0005790642061
-0.000525775905
-0.0006251038682
-0.0008058639593
-0.0004264452957
-0.0007776012597
-0.0002325047447
-0.0005935062103
-9.098986714e-05
-0.0004036147617
-1.507867876e-05
-0.000177660223
1.607574634e-05
-1.605172869e-06
9.779297945e-05
-3.842532184e-06
0.0001783695542
-4.434045856e-06
0.0006210464073
-3.304471233e-05
0.00126135867
-9.588555683e-05
0.001923370951
0.000210983768
0.002567849095
0.0005875667023
0.0007091325318
0.0001193994702
0.001115899446
9.492414325e-05
1.969716911e-05
-0.000440893803
0.0007601214659
-0.0009069963629
0.0002595799012
-0.001412395819
-3.73535509e-05
-0.001406519602
-0.0005028073217
-0.000878007042
-0.0005920650172
-0.0004430201102
-0.0003728918647
-0.0002561344457
-0.0002193347423
-0.0001923585433
-0.0001441265184
-0.000187503131
-8.813613965e-05
-0.0002431125788
-6.271736274e-05
-0.0003471414611
-0.0001582471686
-0.0005424180201
-0.0003550432893
-0.0006938699203
-0.0006893522405
-0.0005696009101
-0.000725080126
-0.0003362344591
-0.0005656086637
-0.0001740183425
-0.0004423768664
-6.37724359e-05
-0.000310705286
-4.880892641e-07
-0.0001439576284
4.299671555e-06
-2.623513929e-06
1.672292205e-05
-1.211090698e-05
3.127891496e-05
-2.846293564e-05
0.000221436273
-0.0002635545164
0.0002757859667
3.076121181e-05
0.0005985010258
0.0006738151931
0.0001829030683
0.001215418262
-0.0007042310517
0.001290507334
0.001405359284
0.0001341873584
0.002076509049
0.0001286218229
2.806621943e-05
-0.0006202075918
0.0008266544469
-0.001114556462
0.0002934647634
-0.001230989974
-0.0001915986552
-0.0008435210784
-0.0004483004458
-0.0004140956971
-0.000374084085
-0.0002237292178
-0.0002165983758
-0.0001669680051
-0.0001431540617
-0.0001633192975
-0.0001049698617
-0.0001941569353
-7.315479216e-05
-0.0002575566202
-6.891174009e-05
-0.000381004773
-0.000177270127
-0.0005665058593
-0.0004176724808
-0.0005520540959
-0.0006247592628
-0.0003688643
-0.0005014769045
-0.0002375581819
-0.00039411468
-0.0001391779861
-0.0003238246843
-5.47082484e-05
-0.0002445833653
-1.734014106e-06
-0.0001202132509
1.091967617e-06
-1.486572244e-06
-3.233935096e-06
-1.212197893e-06
-1.003784446e-05
2.05743087e-06
-9.304352184e-05
8.78102319e-05
-0.0001558510165
0.0003250071567
0.0001434721535
0.0006624948364
9.406146575e-06
0.001464439038
-0.0001409030994
0.0009260981732
0.001108154591
6.086131832e-05
0.001798924107
4.826621717e-05
2.980857783e-05
-0.0009213069342
0.0009285618963
-0.001150014576
0.0003220345232
-0.0009780506192
-0.0001567895826
-0.0005363778143
-0.0003555769471
-0.000258453188
-0.0002424231589
-0.0001634012046
-0.0001402795259
-0.0001364246772
-9.918389775e-05
-0.0001418143197
-7.553342765e-05
-0.0001742387762
-5.531124839e-05
-0.0002329417637
-5.979450535e-05
-0.0003341841412
-0.0001565802172
-0.0004512004908
-0.0003177375174
-0.0003797699532
-0.0004183087117
-0.0002722299595
-0.0003817169276
-0.000195194062
-0.0003127342792
-0.0001265638444
-0.000252554552
-5.30275965e-05
-0.0001994526725
-5.309214477e-07
-0.0001023187754
1.176671985e-06
-1.690835404e-07
-9.454134494e-05
0.0001088365187
-0.0002492528135
0.0003802018091
-0.0003117050344
0.0001868380901
-0.0003056597143
0.0003300287223
-0.0005017841856
0.0006470122601
-0.0006531648412
0.001701592049
9.357705988e-05
0.001553600799
0.0007807496771
-0.0004675259406
0.001501318561
-0.001009159912
0.0002362931687
-0.001349999572
0.000748073871
-0.001384757804
0.0003458517118
-0.0009238113382
-9.737075345e-05
-0.0004175982705
-0.0002403058979
-0.0002025694398
-0.0001433683884
-0.0001373702388
-8.743213996e-05
-0.0001153924296
-6.562244206e-05
-0.0001162219617
-5.081224085e-05
-0.0001417694474
-3.628394286e-05
-0.0001941012313
-3.666580631e-05
-0.0002596730981
-9.343810778e-05
-0.0003115292317
-0.000174235823
-0.0003146451534
-0.0002717709028
-0.0002552844306
-0.0003328904868
-0.0001869945653
-0.0002813368888
-0.0001251565457
-0.0002119865564
-5.450398469e-05
-0.0001592372129
-1.963302896e-06
-8.344603652e-05
4.100353817e-07
1.600329831e-06
2.983630912e-05
0.0002343249129
-0.0004415776674
0.0004645419786
-0.0003878596488
8.539737661e-05
-0.0004204784623
0.0003385223395
-0.0005086756065
0.0006891959492
-0.0003740667894
0.00151840496
-0.0002583040711
0.001181703633
-7.67900848e-05
0.0006441505263
-2.358340479e-05
0.0001467787863
2.349600032e-05
8.33952006e-05
0.0002747649192
0.00052562151
0.0002117423932
0.0002962303697
0.0001561339748
-0.0007766125129
0.001415040971
-0.001326437698
0.0003606243039
-0.001642784815
0.0006912242092
-0.001430117142
0.0003644799592
-0.0007774188416
-3.992991037e-05
-0.000313660405
-0.0001153177083
-0.0001639872347
-6.702631473e-05
-0.0001176813632
-4.498505497e-05
-9.840624019e-05
-3.519272436e-05
-9.480815788e-05
-2.697231756e-05
-0.0001064349626
-1.70363213e-05
-0.0001283736092
-1.092279618e-05
-0.0001612002678
-3.03613343e-05
-0.0002307467951
-6.432616879e-05
-0.0003179661524
-0.0001599604885
-0.0002813310162
-0.0003355574426
-0.000203922519
-0.0003290291233
-0.0001266298048
-0.0002202686513
-5.629333277e-05
-0.0001152945065
-7.459608877e-06
-5.798020519e-05
2.979605111e-06
1.735159528e-06
0.0002064284427
-8.593600682e-06
-0.0001805073023
0.0002971447735
-0.0001721397377
0.0004055039249
-0.0004180657109
0.0004488864433
-0.0006040867818
0.0007267656906
-0.0004419295328
0.001315181364
-0.0002592185747
0.0009079089733
-9.698624422e-05
0.0006053924835
-1.704413943e-05
0.0002631832451
3.534721349e-05
0.0001767196637
0.0002263712729
0.0004827211126
0.0001759937214
0.0002981619207
0.0002129967077
-0.001111291006
0.00174397665
-0.001626899364
0.0004802224484
-0.001708994007
0.0007303113908
-0.001181548534
0.0004258788146
-0.0005200682449
7.867912253e-05
-0.0002111847423
-9.848628766e-06
-0.0001255242034
-1.16613414e-05
-9.386344054e-05
-9.376065759e-06
-7.800359488e-05
-6.230810828e-06
-7.319700066e-05
-2.651156117e-06
-7.185706494e-05
-2.607460426e-07
-6.646192247e-05
6.756970848e-06
-7.115033946e-05
-2.918778456e-07
-0.0001316990849
-5.575023933e-06
-0.0003038667066
-1.922939711e-05
-0.0003670960725
-0.0004023825544
-0.0002795541025
-0.0005832751673
-0.0001239051284
-0.0003724368096
-5.236471462e-05
-6.824576548e-05
-1.910246536e-06
-3.404120939e-05
2.379299071e-05
-5.697829117e-06
0.0001185364578
-2.241097868e-05
0.0006436223142
-3.033629882e-06
0.0007017440937
0.001058336792
0.0005048858228
0.001128681885
-0.0002860508656
0.0009368941264
-0.0004785984491
0.001409798811
-0.0002457688206
0.000972965426
-8.011263008e-05
0.000719087953
-7.791333512e-06
0.000454634143
3.82019183e-05
0.0003508840685
0.0001826700829
0.0004736551504
0.0001920125236
0.0003422164766
-0.002645382402
0.002953362169
-0.002718491809
0.0009480862025
-0.00187015205
0.0008977531159
-0.0008434173859
0.0004589797796
-0.0002950576497
0.0001454597513
-0.0001483940378
4.455936826e-05
-9.827706976e-05
2.279364732e-05
-6.46259909e-05
1.65612283e-05
-3.527725996e-05
1.084133136e-05
-1.321327552e-05
5.391750159e-06
-2.176458817e-06
2.163581904e-06
2.033749062e-05
4.284409824e-06
6.257957112e-05
7.685524269e-06
0.0001412568975
4.573003839e-06
0.0003303509409
-6.687807228e-05
-0.0004238573571
-0.0004393005477
-0.000518606263
-0.0009328131547
-0.0001135900559
-0.0007330407196
-4.614537297e-05
-1.815602486e-05
1.289899943e-07
-9.353292008e-06
1.913914512e-05
-1.885728744e-06
6.335747781e-05
-9.587051655e-05
0.0001091781754
2.797903264e-05
0.0004590915289
0.0007339771067
0.0004793462571
0.001316345653
0.0002459834069
0.001152732999
-0.0002668289194
0.001625138792
-0.0002429801094
0.001330416328
-0.000104111874
0.0009811759461
-3.851247856e-05
0.0006790914979
3.951633768e-05
0.0005930761696
0.0002135565027
0.0002358423029
-0.003240888776
0.002430479466
-0.002851012454
0.001078449639
-0.001733746504
0.0009439680791
-0.0007689779249
0.0005096250982
-0.0003237437171
0.0002116661254
-0.0001845991515
9.440105617e-05
-0.0001467606768
6.092504937e-05
-0.0001796212487
5.32305129e-05
-0.0003725795821
5.866568358e-05
-0.0008801909228
8.269171647e-05
-0.001573688996
0.0001089011525
-0.001803719727
1.256864041e-05
-0.001525900946
-0.0003231288013
-0.001487563447
-0.0006031976352
-0.001434425348
-0.0007901685442
-0.001239220793
-0.001046400881
-0.0008316701241
-0.001196662591
-0.0001450641813
-0.0008437910715
-5.629340735e-05
4.929848284e-05
8.48456825e-07
2.272238966e-05
7.743276263e-05
-4.466341103e-07
0.0004275126571
-0.001544089082
0.0009514620088
-0.0003426438547
0.001824596656
-0.0002862874004
0.001321759591
0.0004185299396
0.0008125109739
0.0007581104353
0.0008215842256
0.001237639754
0.0004161248546
0.001920483503
-0.00010125595
0.001665946972
-0.0002143693783
0.0009233621121
-0.0003114952828
0.0009147728666
-0.0002829422725
-0.002516792699
0.001561069796
-0.002321040939
0.0008826791376
-0.001496110042
0.0008675561703
-0.000741837302
0.0005595040717
-0.0003534586196
0.00029202176
-0.0002147382355
0.0001545332307
-0.0001828927016
0.0001055568969
-0.0002541676482
9.26451922e-05
-0.0005791188792
9.264199987e-05
-0.001414291551
4.215018712e-05
-0.002525462038
-0.0003385170917
-0.002823463251
-0.001049617205
-0.00226489011
-0.001266435329
-0.001733212157
-0.001001267803
-0.001391180321
-0.0007888108289
-0.001114996405
-0.0007989193225
-0.0007432828752
-0.000808341305
-0.0001676698404
-0.0005617317548
-6.607794466e-05
0.0001120420971
-7.405115139e-07
5.189740564e-05
9.761352009e-07
-1.603983427e-08
-0.0009869175952
-0.002667437314
-0.0008202141846
-0.001333326854
-0.0002289736303
-0.001129297127
0.0005355267166
-0.0004337600153
0.000963347546
0.0002792756257
0.001236725829
0.0008188242491
5.930085414e-05
0.002160674303
-0.00209271525
0.002348262354
-0.00288962296
0.001653116325
-0.002722902612
0.001817595395
0.00101444339
-0.001777092789
0.002836024185
-0.001901537724
0.0008152869539
-0.001367907725
0.0008963425251
-0.0007878725613
0.0006527766056
-0.0004245240419
0.0004198156086
-0.0002799382111
0.00024977638
-0.0002560304139
0.0001754397534
-0.0003488710122
0.0001474406844
-0.0007066537155
0.000118751749
-0.001608306423
-0.0001433981901
-0.002509347984
-0.001158795415
-0.00250622909
-0.001836111922
-0.001823110449
-0.001577338413
-0.001203922713
-0.0008401790659
-0.0009225317525
-0.0003964071342
-0.0007271401825
-0.000375695947
-0.000504434725
-0.0003838008646
-0.0001523178276
-0.0002532713033
-6.30156746e-05
0.0001632792727
-1.103024812e-07
7.129976801e-05
-1.604914795e-07
4.243545049e-07
-0.001188511102
-0.002381891355
-0.001039307926
-0.001305548699
-0.0008819463319
-0.0011515694
-0.0002606475421
-0.0008149559197
0.0003361531748
-0.0002248062094
0.0003220603289
0.0003552010723
-0.001519059098
0.001931757353
-0.00241941413
0.002049684224
-0.002145917894
0.001439652255
-0.001411007502
0.001678702988
-0.001428222306
0.003984775319
-0.001737741771
0.0007309629478
-0.001449267875
0.000965901199
-0.001024412428
0.0008305555264
-0.0006648679481
0.0006599181483
-0.0005133262031
0.0004699829772
-0.0005619095541
0.0003731791692
-0.0008506879336
0.0003478384996
-0.00153878116
0.0002778716169
-0.002453236833
-0.0002856456627
-0.002867095895
-0.00140156676
-0.00264567915
-0.00193401994
-0.001732932009
-0.001710655614
-0.0008218975422
-0.0007873599253
-0.0006077167054
-8.022545309e-05
-0.0004937407605
-4.695772601e-05
-0.0003989542698
-2.563020902e-05
-0.0002284909463
3.913107446e-05
-9.818442188e-05
0.0002643793448
-1.121477687e-06
0.0001059803399
-4.560985269e-07
-2.363552815e-07
-0.001423428529
-0.001345042045
-0.001303820578
-0.001222122468
-0.001203534939
-0.001090131241
-0.00115931105
-0.000861285348
-0.001401440096
-0.0006898040249
-0.002031861704
-0.0004322271217
-0.001930089973
-0.0001289656958
-0.00153015016
0.0005357923548
-0.00119153359
8.171114952e-05
-0.0002241433848
-0.001093236042
0.004411266468
-0.001592035975
0.0005895309392
-0.001656919826
0.0009506968221
-0.001479246828
0.001028449884
-0.001218816011
0.001028129248
-0.001098189621
0.0009226296811
-0.001205655712
0.0008245465997
-0.001557528345
0.0007511318596
-0.002105195604
0.0005086240573
-0.002537454067
-0.0003084854817
-0.002799050934
-0.001112911291
-0.003073983682
-0.001274512699
-0.002588501836
-0.001214655155
-0.001334321977
-0.0004970751213
-0.0008097961099
0.0003888629406
-0.0004705090015
0.0003196350687
-0.000208354137
0.0002574686564
2.20945718e-05
0.0001611783743
0.000886173951
0.0006622792873
0.002157475174
0.002334208044
-0.001130507368
-0.0008263213459
-0.001656684326
-0.001562044645
-0.001517456729
-0.0009916702686
-0.001308384079
-0.0009015643987
-0.001339022796
-0.0006496008138
-0.001440407344
-0.0005316674152
-0.001330844515
-0.0008108687191
-0.0008600718745
-0.001352140608
-0.0007806477532
-0.0007633255406
-0.0006393057647
-0.0006249525629
-0.0002798862233
-0.0006859040756
0.004818384363
-0.001175234236
0.0004311197959
-0.001603686462
0.0007434274208
-0.001817255174
0.0009810189622
-0.001861302965
0.001228149658
-0.001907136486
0.001310926461
-0.002048763411
0.00124744645
-0.002213849155
0.001036815663
-0.002207996271
0.0005467621364
-0.001810861603
-0.0002322018401
-0.001672702636
-0.0005115201062
-0.001941643397
-0.000584510781
-0.002143694815
-0.0005809999839
-0.001643384482
-0.0001196212863
-0.001175163448
0.0008953443673
-0.0006820257693
0.0008220126323
-0.0002875785409
0.0006581189182
2.176941577e-05
0.0004024232609
0.0008622713393
0.0009786489712
-0.0002632848383
-0.003763029625
-0.002148297501
-0.001568798997
-0.001674943287
-0.001476652467
-0.001297275456
-0.0006112436696
-0.0008466109
-0.0007316521196
-0.0005516804108
-0.0006533380249
-0.0006103982126
-0.0001652193834
-0.0005434464612
-0.0002220469467
-0.0001233899268
-0.0009918170833
-0.0002578624349
-0.000920281447
-0.0001843211391
-0.0003974744128
-8.928668304e-05
-0.0004003944692
0.005444810619
-0.0006461694879
0.0003501532051
-0.001076380267
0.0004839851179
-0.001503315063
0.0006560093748
-0.001956056211
0.0009692131972
-0.002557943679
0.001216034202
-0.003347532029
0.001306343716
-0.003616647369
0.001176842549
-0.002533310624
0.0007547242025
-0.001389617256
0.0002396147941
-0.001077880831
-6.013695416e-06
-0.001147685387
-4.221258254e-05
-0.001436471942
2.573665564e-05
-0.001737221069
0.0003515667394
-0.001544778998
0.0011351308
-0.0009719184151
0.001273186667
-0.0003680577974
0.001213687609
2.385793058e-05
0.0007816220275
0.0004315892409
0.0008842224744
-0.0006402922373
-0.009348735926
-0.001238119001
-0.0004195775951
-0.001152164354
-0.0007703550104
-0.001143638132
-0.0002267530035
-0.000955977988
-0.0003109675997
-0.0002932744669
-0.0005078822405
-0.0001308617344
-0.0002146296339
-0.000101262965
-0.0002535456371
0.0001384961758
-0.0003684762365
-8.819904509e-05
-0.0003819772178
-4.577306543e-05
-6.863616551e-05
-2.171715187e-05
-0.0003820096841
0.006207183675
-0.0003830084227
0.0004197040466
-0.0005801063672
0.0003577138394
-0.0008681060583
0.0003986222658
-0.001427728559
0.0006018541636
-0.002550809241
0.0008521184788
-0.003966974699
0.001109624535
-0.004112643656
0.001263381419
-0.002954948264
0.001150605277
-0.001979033356
0.0008519110757
-0.001427617309
0.0006580240492
-0.001040815569
0.00058687097
-0.0006661613332
0.0005554527831
-0.00035768686
0.0004914445613
0.0003425317181
0.0008347464312
0.0002636576978
0.00203913958
-0.0003116317878
0.003123851686
3.944203001e-05
0.001358587403
5.086490838e-05
0.0007857284538
-0.0003139388246
-0.005446383078
-0.0003533793673
3.770649396e-05
-0.0006228022072
-6.611041547e-05
-0.0007085186654
0.0001253405509
-0.0007928617662
9.874796979e-05
-0.0005422100745
-0.0001559524099
-0.0001047573837
-0.0001411581192
-7.004639588e-05
-0.0002258685697
-1.519567741e-05
-0.0002219725106
-1.192391786e-06
-0.0001099538599
-2.976935447e-06
-4.662978343e-06
-8.051906747e-06
-0.0006745991187
0.006891193172
-0.0004929613114
0.0007467395494
-0.0005158033097
0.0004919059216
-0.0006636712194
0.0004010548622
-0.0009798340563
0.0005184674251
-0.001625052678
0.0006426210986
-0.002515160543
0.0007980069211
-0.002892017844
0.001026861833
-0.002550622213
0.001180890309
-0.002050312864
0.001137841399
-0.00162036863
0.001079185718
-0.001188112183
0.001074175754
-0.0006358669541
0.001026450146
-3.509072362e-05
0.0007364457051
0.0006045557563
0.0006395170267
0.0003341459054
0.001811809368
-0.004953093188
0.003949105654
-0.01139865981
0.005287437892
-0.01002353833
0.005863067034
0.001185180737
0.01027364216
0.002158180601
0.00160206442
0.001126760875
0.0001487629955
-0.0002287119835
8.733372746e-05
-0.0005009142044
0.0003327439655
-0.0002075853736
0.0001415722112
5.349516712e-06
-0.0001943562539
-0.0001996747489
0.0001223883492
-0.0001523441688
9.825002764e-05
-2.089418796e-06
1.143787852e-05
4.999609931e-06
2.941675097e-06
8.443572453e-06
-0.001297824156
0.00743293321
-0.001218113557
0.001379315142
-0.001179270638
0.001168948804
-0.001299826094
0.0008684054085
-0.001307840986
0.0008856989319
-0.001309680279
0.0007912358463
-0.001514030318
0.0006797184032
-0.001844583755
0.0007495952557
-0.001952634534
0.001038517005
-0.001799545662
0.001209623203
-0.001549365475
0.001324174327
-0.001201845423
0.001438616249
-0.0006771583849
0.001444885466
-5.844162284e-05
0.001086389838
0.0003553757753
0.0006255538977
0.0003293787284
0.001410855748
-0.001615109133
0.001871651712
-0.003712509866
0.004331055149
-0.005370874254
0.003389428986
0.0004478169476
0.01142916439
0.0003154928024
0.000574866406
1.871830407e-05
-2.709177935e-06
-0.0002156215434
-4.57458721e-06
-0.0009062730987
0.0003557922288
-8.075693746e-05
0.001022265697
-6.303508308e-05
4.999487424e-05
-8.696124732e-05
0.0001049702761
-0.0002037572347
9.313312163e-05
0.0003943466661
0.0007422852555
0.0001304449569
0.0001209901897
0.0001033902528
-0.002278908
0.007862633648
-0.002901853559
0.002259077873
-0.002679922089
0.002511699739
-0.00260291413
0.001746395139
-0.002049570568
0.001577559704
-0.001362655257
0.001136682021
-0.001007537957
0.0006870702015
-0.001151355337
0.0005455918776
-0.001414378638
0.0008217845788
-0.001493216287
0.001145345633
-0.001420183697
0.001430302341
-0.001180314784
0.001692604988
-0.0007265846779
0.001791400859
-0.0001524696741
0.00143744762
0.0001028347127
0.0006756124293
9.623370089e-05
0.001064516681
-0.0003270178169
0.0005192379672
-0.0009985355078
0.003493070698
-0.002107510366
0.001849837262
-0.0002113842088
0.008210873725
-1.321994242e-06
-7.016017934e-06
-2.049922769e-06
-1.123644891e-06
1.535669547e-06
-1.936867848e-07
-0.001024936401
0.0003756803023
-0.000187772692
0.001712304872
8.063944147e-05
0.0005686142153
0.0001141433626
0.00029651165
4.343110422e-05
0.0002389428585
0.0002794812179
0.0006793554952
0.0002211971711
0.0002977589309
0.0003372586708
-0.00274985031
0.008093898699
-0.004280028934
0.002596207247
-0.003585820085
0.00339879248
-0.003214493356
0.002049809037
-0.002265145143
0.001745258414
-0.00125723849
0.001148969177
-0.0006723346184
0.0005774888817
-0.0007019305329
0.0003828112765
-0.0009874368064
0.0005790422096
-0.00119282477
0.0009734472578
-0.001251909228
0.001392528346
-0.001124620363
0.001799882696
-0.0007519289046
0.002016865972
-0.0002263839048
0.001679978079
-7.88952829e-05
0.0007375708434
3.354460882e-06
0.0008000490021
3.193881036e-05
0.000146644358
-4.818005452e-05
0.00200881287
-0.0005800719619
0.0007784614741
-1.426632703e-05
0.001891498696
-3.525570988e-07
-8.976484257e-07
-2.211460595e-08
-6.110014192e-07
1.616242361e-06
1.618057587e-06
-0.0004629855575
0.0001413451093
-0.0006494739944
0.001417052344
-0.0007802721583
0.001740769308
-0.001461652871
0.001050134707
-0.00131098212
0.000998980198
-0.0006178340852
0.0005730420539
-0.0004634969819
0.0002785648385
0.0002710429126
-0.001736702414
0.008217777296
-0.003165798341
0.001983343505
-0.002760757292
0.002646514746
-0.002475959802
0.001320319343
-0.00170654268
0.001162283303
-0.0008799603243
0.0007845155312
-0.0004257951141
0.0004112284909
-0.0004162099424
0.0002579641439
-0.0006578615194
0.0003620954024
-0.0009316357743
0.0007201601382
-0.001107141516
0.001220830329
-0.001106346602
0.001762670616
-0.0008346100122
0.002129655706
-0.0003424235693
0.001858581479
-0.0001866807906
0.0008620192071
-8.333415851e-06
0.000706633416
4.46335578e-05
7.969978962e-05
0.0001375027098
0.0007661490917
-3.567155442e-05
0.0004097522794
-5.031035742e-07
8.675268982e-05
-2.524744874e-07
-4.900634772e-10
-4.661126155e-07
5.515914421e-09
1.512496961e-06
3.792775811e-06
-0.0001045399697
5.408012026e-05
-0.0006195147685
0.0008237686355
-0.0006119182171
0.002072204607
-0.001181489543
0.0009131009288
-0.001204609038
0.0007135061845
-0.001444572569
0.0008735780466
-0.001114419964
0.0007518526887
0.0002530656755
-0.0005203353565
0.008661059164
-0.00100393565
0.001426949003
-0.001427115465
0.001258471281
-0.001418205184
0.0006139993235
-0.00106384491
0.0006286836167
-0.0006003375938
0.0004992936879
-0.0003286191913
0.0003287143257
-0.0002952291774
0.000216697131
-0.0004618116041
0.000237188392
-0.0007645561061
0.0004452908812
-0.00106091659