/*--------------------------------*- C++ -*----------------------------------*\
  =========                 |
  \\      /  F ield         | OpenFOAM: The Open Source CFD Toolbox
   \\    /   O peration     | Website:  https://openfoam.org
    \\  /    A nd           | Version:  8
     \\/     M anipulation  |
\*---------------------------------------------------------------------------*/
FoamFile
{
    version     2.0;
    format      ascii;
    class       volScalarField;
    location    "1.4/wallFilmRegion";
    object      sigma;
}
// * * * * * * * * * * * * * * * * * * * * * * * * * * * * * * * * * * * * * //

dimensions      [1 0 -2 0 0 0 0];

internalField   nonuniform List<scalar> 
1369
(
0.07244713448
0.07244713424
0.07244713422
0.07244713405
0.0724471339
0.07244713361
0.07244713308
0.0724471345
0.0724471343
0.07244713423
0.07244713406
0.07244713391
0.07244713363
0.07244713312
0.07244713226
0.07244713123
0.07244713099
0.07244713161
0.07244713452
0.07244713433
0.07244713423
0.07244713405
0.0724471339
0.07244713362
0.07244713312
0.0724471323
0.07244713142
0.07244713134
0.07244713198
0.07244713267
0.07244713325
0.07244713454
0.07244713434
0.07244713419
0.07244713399
0.07244713383
0.07244713354
0.07244713304
0.07244713226
0.07244713155
0.07244713166
0.07244713234
0.072447133
0.07244713356
0.07244713404
0.07244713443
0.0724471347
0.07244713485
0.07244713456
0.07244713433
0.07244713411
0.07244713385
0.07244713367
0.07244713334
0.07244713281
0.07244713207
0.07244713158
0.07244713192
0.07244713266
0.07244713332
0.07244713386
0.07244713433
0.07244713468
0.07244713491
0.07244713507
0.07244713518
0.07244713513
0.07244713458
0.07244713432
0.07244713392
0.07244713351
0.07244713327
0.07244713287
0.07244713227
0.0724471316
0.07244713146
0.07244713208
0.07244713288
0.07244713356
0.0724471341
0.07244713453
0.07244713483
0.07244713503
0.07244713518
0.07244713531
0.07244713543
0.07244713457
0.07244713466
0.0724471347
0.07244713557
0.0724471346
0.07244713434
0.0724471335
0.07244713256
0.07244713215
0.07244713158
0.07244713092
0.0724471306
0.07244713114
0.07244713213
0.07244713298
0.07244713369
0.07244713424
0.07244713463
0.0724471349
0.07244713506
0.07244713521
0.07244713535
0.07244713548
0.07244713424
0.07244713429
0.07244713454
0.07244713575
0.07244713596
0.07244713555
0.07244713463
0.07244713439
0.07244713274
0.07244713047
0.0724471297
0.07244712924
0.07244712936
0.07244713021
0.07244713135
0.07244713228
0.07244713296
0.07244713367
0.07244713423
0.07244713461
0.07244713488
0.07244713504
0.07244713519
0.07244713531
0.07244713542
0.07244713427
0.07244713483
0.07244713503
0.07244713575
0.07244713591
0.07244713556
0.07244713528
0.07244713464
0.07244713441
0.0724471334
0.07244713238
0.07244713179
0.07244713117
0.07244713066
0.07244713058
0.07244713106
0.07244713176
0.07244713247
0.07244713338
0.07244713409
0.07244713457
0.07244713482
0.07244713498
0.07244713514
0.07244713523
0.07244713527
0.07244713514
0.07244713519
0.07244713516
0.07244713564
0.07244713577
0.07244713545
0.07244713543
0.07244713464
0.07244713443
0.07244713363
0.07244713311
0.07244713265
0.07244713205
0.07244713129
0.07244713059
0.07244713036
0.07244713065
0.07244713133
0.07244713222
0.07244713334
0.0724471342
0.07244713469
0.07244713499
0.07244713512
0.07244713517
0.0724471352
0.07244713523
0.07244713512
0.07244713511
0.07244713534
0.07244713562
0.07244713535
0.07244713543
0.07244713579
0.07244713464
0.07244713446
0.07244713375
0.0724471335
0.07244713313
0.07244713257
0.07244713173
0.07244713069
0.07244713023
0.07244713123
0.07244713316
0.07244713272
0.0724471339
0.07244713432
0.07244713471
0.07244713511
0.07244713522
0.07244713519
0.07244713509
0.07244713501
0.072447135
0.07244713498
0.07244713514
0.07244713543
0.07244713522
0.07244713534
0.07244713605
0.07244713464
0.07244713446
0.07244713387
0.07244713374
0.07244713351
0.07244713317
0.07244713284
0.0724471329
0.0724471337
0.07244713419
0.0724471344
0.07244713456
0.07244713474
0.07244713492
0.07244713512
0.07244713524
0.07244713525
0.07244713516
0.07244713497
0.0724471348
0.07244713497
0.072447135
0.07244713494
0.0724471349
0.0724471349
0.0724471351
0.07244713542
0.07244713463
0.07244713451
0.07244713431
0.07244713398
0.07244713408
0.07244713424
0.07244713438
0.07244713445
0.07244713448
0.0724471345
0.07244713455
0.07244713468
0.07244713484
0.07244713501
0.07244713512
0.07244713517
0.07244713516
0.07244713501
0.07244713482
0.07244713462
0.07244713421
0.07244713471
0.07244713469
0.07244713471
0.07244713467
0.0724471349
0.0724471352
0.0724471355
0.07244713455
0.07244713442
0.07244713434
0.07244713416
0.0724471343
0.07244713442
0.0724471345
0.07244713453
0.07244713451
0.07244713449
0.07244713453
0.07244713469
0.07244713485
0.07244713496
0.07244713503
0.07244713505
0.07244713499
0.07244713484
0.07244713469
0.07244713451
0.07244712937
0.0724471323
0.07244713322
0.07244713478
0.07244713476
0.0724471352
0.07244713542
0.07244713584
0.07244713598
0.07244713453
0.0724471344
0.07244713435
0.0724471343
0.07244713441
0.0724471345
0.07244713454
0.07244713452
0.07244713447
0.07244713445
0.07244713453
0.07244713466
0.07244713479
0.07244713487
0.0724471349
0.07244713488
0.0724471348
0.07244713471
0.07244713463
0.07244713445
0.07244712924
0.07244713309
0.07244713408
0.07244713504
0.07244713545
0.07244713528
0.07244713563
0.07244713594
0.07244713598
0.07244713451
0.07244713425
0.07244713438
0.07244713443
0.0724471345
0.07244713455
0.07244713454
0.07244713447
0.0724471344
0.07244713441
0.07244713449
0.07244713462
0.07244713473
0.07244713479
0.07244713478
0.07244713473
0.07244713469
0.07244713467
0.07244713462
0.07244713444
0.07244712812
0.07244713482
0.0724471353
0.07244713549
0.07244713549
0.07244713538
0.07244713581
0.07244713605
0.07244713594
0.07244713449
0.07244713441
0.07244713445
0.07244713451
0.07244713456
0.07244713457
0.07244713452
0.07244713441
0.07244713434
0.07244713435
0.07244713445
0.07244713458
0.07244713469
0.07244713473
0.07244713471
0.07244713469
0.07244713469
0.07244713467
0.07244713461
0.0724471344
0.07244712898
0.07244713512
0.07244713551
0.07244713566
0.07244713567
0.07244713567
0.07244713589
0.07244713598
0.07244713596
0.07244713587
0.0724471359
0.07244713604
0.07244713603
0.07244713605
0.07244713448
0.07244713447
0.07244713451
0.07244713456
0.07244713458
0.07244713457
0.07244713447
0.07244713433
0.07244713426
0.07244713428
0.0724471344
0.07244713455
0.07244713464
0.07244713467
0.07244713468
0.0724471347
0.07244713472
0.07244713468
0.07244713461
0.07244713438
0.07244713207
0.0724471352
0.07244713545
0.07244713562
0.07244713583
0.07244713582
0.07244713596
0.07244713599
0.07244713598
0.07244713592
0.07244713591
0.07244713603
0.07244713603
0.07244713605
0.07244713448
0.07244713452
0.07244713456
0.07244713459
0.07244713459
0.07244713454
0.07244713438
0.07244713422
0.07244713414
0.07244713414
0.07244713425
0.07244713441
0.07244713452
0.07244713458
0.07244713466
0.07244713472
0.07244713473
0.07244713471
0.07244713462
0.07244713445
0.07244713332
0.07244713443
0.07244713508
0.0724471352
0.07244713556
0.07244713581
0.072447136
0.07244713601
0.07244713601
0.07244713597
0.07244713598
0.07244713604
0.07244713605
0.07244713607
0.07244713451
0.07244713459
0.07244713461
0.07244713462
0.07244713458
0.07244713443
0.07244713421
0.07244713404
0.07244713382
0.07244713343
0.0724471327
0.07244713376
0.07244713428
0.07244713452
0.07244713468
0.07244713473
0.07244713475
0.07244713474
0.07244713459
0.07244713442
0.07244713362
0.07244713426
0.07244713453
0.07244713506
0.07244713534
0.07244713545
0.07244713588
0.07244713601
0.07244713602
0.07244713601
0.07244713605
0.07244713605
0.07244713609
0.07244713452
0.07244713461
0.07244713462
0.07244713462
0.07244713458
0.07244713445
0.0724471343
0.07244713425
0.07244713437
0.07244713456
0.07244713465
0.07244713469
0.07244713472
0.07244713474
0.07244713475
0.07244713476
0.07244713477
0.07244713476
0.0724471346
0.07244713445
0.07244713449
0.07244713491
0.07244713482
0.07244713491
0.0724471351
0.07244713525
0.07244713554
0.07244713575
0.07244713595
0.07244713602
0.07244713605
0.07244713592
0.0724471345
0.07244713461
0.07244713462
0.07244713462
0.07244713458
0.07244713447
0.07244713436
0.07244713432
0.07244713441
0.07244713455
0.07244713464
0.0724471347
0.07244713474
0.07244713475
0.07244713476
0.07244713477
0.07244713478
0.07244713477
0.07244713463
0.07244713445
0.07244712294
0.07244713519
0.07244713509
0.07244713502
0.07244713473
0.07244713495
0.07244713521
0.07244713553
0.07244713582
0.0724471357
0.07244713556
0.07244713534
0.07244713446
0.0724471346
0.07244713462
0.07244713461
0.07244713458
0.07244713451
0.07244713444
0.07244713443
0.07244713453
0.0724471347
0.07244713483
0.07244713485
0.07244713481
0.07244713478
0.07244713476
0.07244713477
0.07244713478
0.07244713477
0.07244713463
0.07244713446
0.07244709464
0.07244713524
0.07244713516
0.07244713507
0.07244713495
0.0724471348
0.07244713484
0.07244713536
0.07244713559
0.0724471355
0.0724471354
0.07244713529
0.07244713448
0.07244713459
0.07244713461
0.07244713462
0.07244713461
0.0724471346
0.07244713462
0.07244713471
0.07244713484
0.07244713494
0.07244713495
0.07244713489
0.07244713483
0.0724471348
0.07244713477
0.07244713477
0.07244713477
0.07244713474
0.07244713465
0.07244713441
0.07244709718
0.07244713529
0.07244713527
0.0724471352
0.07244713513
0.07244713508
0.07244713517
0.07244713537
0.07244713555
0.07244713557
0.07244713541
0.0724471345
0.07244713457
0.07244713461
0.07244713463
0.07244713465
0.07244713467
0.07244713472
0.07244713479
0.07244713487
0.07244713492
0.0724471349
0.07244713485
0.07244713482
0.07244713481
0.0724471348
0.07244713479
0.07244713477
0.07244713474
0.07244713483
0.07244713502
0.07244713534
0.07244713543
0.07244713543
0.07244713538
0.07244713534
0.07244713534
0.07244713549
0.07244713565
0.07244713538
0.07244713547
0.07244713548
0.07244713451
0.07244713453
0.07244713459
0.07244713463
0.07244713466
0.0724471347
0.07244713474
0.0724471348
0.07244713485
0.07244713489
0.07244713488
0.07244713483
0.07244713482
0.07244713481
0.0724471348
0.0724471348
0.0724471348
0.07244713478
0.072447135
0.07244713526
0.07244713548
0.07244713554
0.07244713566
0.07244713559
0.07244713561
0.07244713552
0.07244713579
0.07244713611
0.07244713557
0.07244713562
0.07244713559
0.07244713452
0.07244713447
0.07244713455
0.07244713461
0.07244713466
0.07244713471
0.07244713476
0.07244713482
0.07244713486
0.07244713488
0.07244713485
0.07244713481
0.07244713481
0.07244713481
0.07244713481
0.07244713481
0.07244713481
0.0724471348
0.07244713502
0.07244713508
0.07244713544
0.0724471355
0.07244713564
0.07244713571
0.07244713586
0.07244713612
0.07244713611
0.0724471364
0.0724471358
0.07244713567
0.07244713551
0.07244713453
0.07244713446
0.07244713449
0.07244713456
0.07244713463
0.07244713469
0.07244713475
0.0724471348
0.07244713482
0.07244713482
0.07244713481
0.0724471348
0.0724471348
0.0724471348
0.07244713481
0.07244713482
0.07244713483
0.07244713482
0.07244713497
0.07244713486
0.07244713533
0.07244713544
0.07244713564
0.07244713567
0.07244713584
0.07244713602
0.07244713613
0.07244713632
0.072447136
0.07244713524
0.07244713442
0.07244713454
0.07244713452
0.07244713455
0.07244713458
0.07244713463
0.07244713468
0.07244713472
0.07244713476
0.07244713479
0.0724471348
0.0724471348
0.0724471348
0.0724471348
0.0724471348
0.0724471348
0.07244713482
0.07244713487
0.07244713483
0.07244713483
0.07244713483
0.07244713482
0.07244713497
0.07244713557
0.07244713569
0.07244713589
0.07244713592
0.07244713576
0.07244713551
0.0724471353
0.07244713426
0.07244713468
0.07244713454
0.07244713459
0.07244713467
0.0724471347
0.07244713471
0.07244713472
0.07244713471
0.07244713471
0.07244713475
0.07244713478
0.07244713479
0.0724471348
0.0724471348
0.0724471348
0.0724471348
0.07244713483
0.07244713495
0.07244713484
0.07244713483
0.07244713482
0.07244713476
0.07244713481
0.07244713545
0.07244713549
0.0724471355
0.07244713537
0.07244713567
0.07244713568
0.07244713608
0.07244713589
0.07244713568
0.07244713455
0.07244713462
0.07244713471
0.07244713474
0.07244713475
0.07244713474
0.0724471347
0.07244713465
0.07244713469
0.07244713475
0.07244713478
0.07244713479
0.0724471348
0.0724471348
0.0724471348
0.07244713484
0.07244713504
0.07244713486
0.07244713487
0.07244713483
0.07244713465
0.07244712636
0.07244713289
0.07244713538
0.07244713541
0.07244713524
0.07244713545
0.07244713555
0.07244713534
0.07244713565
0.07244713595
0.07244713454
0.07244713459
0.07244713469
0.07244713473
0.07244713474
0.07244713473
0.07244713468
0.07244713457
0.07244713459
0.07244713469
0.07244713475
0.07244713478
0.07244713479
0.0724471348
0.0724471348
0.07244713484
0.07244713496
0.07244713488
0.07244713484
0.07244713476
0.0724471328
0.07244711291
0.07244713043
0.07244713524
0.07244713534
0.07244713533
0.07244713567
0.07244713582
0.07244713562
0.07244713562
0.07244713569
0.07244713453
0.07244713449
0.07244713463
0.07244713469
0.0724471347
0.07244713469
0.07244713463
0.07244713446
0.07244713445
0.0724471346
0.0724471347
0.07244713475
0.07244713478
0.07244713479
0.0724471348
0.07244713484
0.07244713479
0.07244713486
0.07244713479
0.07244713437
0.07244711364
0.07244711055
0.07244713107
0.07244713483
0.07244713527
0.0724471353
0.07244713547
0.07244713556
0.07244713558
0.07244713563
0.07244713522
0.07244713453
0.07244713435
0.07244713453
0.07244713461
0.07244713463
0.07244713462
0.07244713454
0.07244713437
0.0724471343
0.07244713447
0.07244713464
0.07244713474
0.07244713481
0.07244713487
0.07244713496
0.07244713499
0.07244713482
0.07244713483
0.07244713469
0.07244712924
0.07244704169
0.0724470262
0.0724471299
0.07244713412
0.07244713514
0.07244713526
0.07244713518
0.07244713504
0.07244713535
0.07244713579
0.07244713576
0.07244713453
0.07244713427
0.07244713434
0.07244713451
0.07244713457
0.0724471346
0.07244713463
0.0724471347
0.07244713482
0.07244713494
0.07244713501
0.07244713501
0.07244713495
0.07244713498
0.07244713508
0.0724471351
0.07244713481
0.07244713476
0.07244713449
0.07244712574
0.07244709479
0.07244706904
0.07244712873
0.07244713342
0.0724471346
0.07244713515
0.07244713498
0.07244713493
0.07244713503
0.07244713555
0.07244713588
0.07244713453
0.0724471342
0.07244713379
0.07244713436
0.07244713452
0.07244713463
0.07244713474
0.07244713487
0.07244713503
0.07244713516
0.07244713526
0.07244713529
0.0724471352
0.07244713507
0.07244713513
0.07244713512
0.07244713474
0.07244713461
0.07244713415
0.07244712704
0.07244711437
0.07244709945
0.07244712819
0.07244713277
0.07244713454
0.0724471348
0.07244713484
0.07244713488
0.07244713492
0.07244713547
0.07244713591
0.07244713453
0.07244713422
0.07244713429
0.07244713435
0.07244713436
0.07244713447
0.07244713475
0.07244713491
0.07244713506
0.07244713521
0.07244713533
0.0724471354
0.07244713537
0.07244713518
0.07244713515
0.07244713507
0.07244713461
0.07244713441
0.07244713368
0.07244712869
0.07244712265
0.0724471137
0.07244712797
0.07244713251
0.07244713423
0.07244713459
0.07244713479
0.07244713487
0.07244713488
0.07244713559
0.07244713602
0.07244713449
0.07244713434
0.07244713436
0.07244713436
0.07244713437
0.07244713441
0.07244713451
0.07244713484
0.07244713502
0.07244713519
0.07244713534
0.07244713543
0.07244713544
0.07244713529
0.07244713518
0.07244713498
0.0724471345
0.07244713416
0.07244713322
0.07244713014
0.07244712688
0.07244712058
0.07244712805
0.07244713275
0.0724471339
0.0724471345
0.07244713483
0.07244713488
0.07244713484
0.07244713492
0.07244713561
0.07244713449
0.07244713434
0.07244713434
0.07244713433
0.07244713435
0.07244713439
0.07244713452
0.07244713446
0.07244713482
0.07244713507
0.0724471353
0.07244713542
0.07244713548
0.07244713537
0.07244713522
0.07244713495
0.07244713445
0.07244713395
0.072447133
0.07244713121
0.07244712919
0.07244712499
0.07244712866
0.07244713326
0.07244713395
0.07244713467
0.07244713486
0.072447135
0.07244713486
0.07244713533
0.07244713617
0.0724471345
0.07244713442
0.0724471343
0.07244713432
0.07244713432
0.07244713434
0.07244713447
0.07244713462
0.07244713455
0.07244713477
0.07244713523
0.0724471354
0.0724471355
0.07244713541
0.07244713526
0.07244713498
0.07244713449
0.07244713387
0.07244713305
0.072447132
0.07244713084
0.07244712924
0.07244713024
0.07244713377
0.07244713396
0.07244713459
0.07244713481
0.07244713504
0.07244713495
0.07244713588
0.07244713621
0.07244713451
0.07244713446
0.07244713433
0.07244713434
0.07244713433
0.07244713432
0.07244713432
0.07244713457
0.07244713467
0.07244713459
0.07244713513
0.07244713539
0.07244713549
0.07244713542
0.07244713528
0.07244713503
0.0724471346
0.07244713397
0.07244713332
0.07244713278
0.07244713236
0.07244713242
0.07244713337
0.07244713434
0.07244713387
0.07244713447
0.0724471347
0.07244713495
0.07244713526
0.07244713583
0.07244713604
0.07244713452
0.07244713448
0.07244713439
0.07244713436
0.07244713435
0.07244713433
0.07244713431
0.07244713437
0.07244713458
0.07244713462
0.07244713476
0.07244713536
0.07244713548
0.07244713541
0.07244713528
0.07244713506
0.07244713471
0.07244713419
0.07244713377
0.07244713358
0.07244713372
0.07244713419
0.07244713453
0.07244713466
0.07244713369
0.07244713431
0.07244713459
0.07244713488
0.07244713532
0.07244713552
0.0724471356
0.07244713452
0.07244713449
0.07244713439
0.07244713437
0.07244713435
0.07244713433
0.07244713432
0.07244713432
0.07244713442
0.0724471345
0.07244713452
0.0724471353
0.07244713543
0.07244713537
0.07244713524
0.07244713505
0.07244713477
0.07244713441
0.07244713415
0.07244713407
0.07244713415
0.0724471344
0.07244713457
0.07244713457
0.07244713351
0.07244713413
0.07244713452
0.07244713484
0.07244713522
0.07244713527
0.07244713528
0.07244713451
0.07244713443
0.07244713438
0.07244713436
0.07244713435
0.07244713433
0.07244713431
0.0724471343
0.07244713436
0.07244713449
0.0724471345
0.07244713516
0.07244713534
0.07244713529
0.07244713517
0.072447135
0.07244713478
0.07244713453
0.07244713436
0.07244713428
0.07244713427
0.07244713434
0.07244713437
0.07244713425
0.07244713345
0.072447134
0.0724471345
0.07244713482
0.07244713528
0.07244713543
0.0724471353
0.07244713449
0.07244713441
0.07244713438
0.07244713436
0.07244713434
0.07244713432
0.07244713429
0.07244713427
0.07244713432
0.07244713449
0.07244713448
0.07244713494
0.07244713517
0.07244713515
0.07244713506
0.07244713493
0.07244713477
0.07244713459
0.07244713451
0.07244713449
0.07244713451
0.07244713457
0.07244713462
0.07244713458
0.07244713435
0.07244713452
0.07244713464
0.0724471348
0.07244713511
0.07244713535
0.07244713525
0.07244713447
0.0724471344
0.07244713437
0.07244713436
0.07244713434
0.0724471343
0.07244713431
0.0724471343
0.07244713429
0.07244713445
0.07244713443
0.07244713465
0.07244713489
0.07244713494
0.07244713492
0.07244713484
0.07244713473
0.07244713464
0.07244713463
0.07244713465
0.07244713467
0.0724471347
0.07244713472
0.07244713472
0.07244713464
0.07244713464
0.07244713467
0.07244713478
0.07244713453
0.07244713481
0.07244713511
0.07244713444
0.07244713438
0.07244713437
0.07244713436
0.07244713434
0.07244713437
0.0724471344
0.07244713443
0.07244713443
0.07244713444
0.07244713437
0.07244713449
0.07244713461
0.07244713469
0.07244713473
0.07244713473
0.07244713468
0.07244713465
0.07244713466
0.07244713469
0.07244713471
0.07244713474
0.07244713475
0.07244713475
0.07244713463
0.07244713462
0.07244713466
0.07244713459
0.07244713451
0.07244713468
0.07244713491
0.07244713439
0.07244713436
0.07244713436
0.07244713435
0.07244713437
0.0724471344
0.07244713444
0.07244713448
0.07244713449
0.07244713448
0.07244713447
0.07244713447
0.07244713448
0.07244713449
0.0724471345
0.07244713451
0.07244713452
0.07244713453
0.07244713454
0.07244713455
0.07244713457
0.07244713458
0.0724471346
0.07244713462
0.0724471346
0.07244713461
0.07244713461
0.07244713459
0.0724471346
0.07244713461
0.0724471346
)
;

boundaryField
{
    walls
    {
        type            zeroGradient;
    }
    wallFilmFace_top
    {
        type            zeroGradient;
    }
    region0_to_wallFilmRegion_wallFilmFace
    {
        type            zeroGradient;
    }
    mirrorFace_top
    {
        type            zeroGradient;
    }
    region0_to_wallFilmRegion_mirrorFace
    {
        type            zeroGradient;
    }
    procBoundary1to0
    {
        type            processor;
        value           nonuniform List<scalar> 
52
(
0.07244713446
0.07244713416
0.07244713422
0.07244713408
0.07244713391
0.07244713361
0.07244713305
0.07244713216
0.07244713216
0.072447131
0.07244713065
0.07244713128
0.07244713236
0.07244713236
0.07244713296
0.07244713373
0.07244713373
0.07244713412
0.07244713438
0.0724471345
0.07244713482
0.07244713482
0.07244713467
0.0724471347
0.0724471347
0.07244713474
0.07244713477
0.07244713515
0.07244713593
0.07244713593
0.07244713565
0.0724471353
0.0724471353
0.07244713523
0.07244713557
0.07244713557
0.07244713587
0.0724471359
0.07244713562
0.07244713562
0.07244713582
0.07244713582
0.07244713597
0.07244713596
0.07244713584
0.07244713584
0.07244713601
0.07244713605
0.07244713607
0.07244713608
0.07244713605
0.07244713606
)
;
    }
    procBoundary1to2
    {
        type            processor;
        value           nonuniform List<scalar> 
33
(
0.07244713611
0.07244713605
0.07244713605
0.07244713586
0.07244713586
0.07244713526
0.07244713524
0.07244713538
0.07244713538
0.07244713527
0.07244713417
0.07244713224
0.07244713185
0.07244713321
0.07244713571
0.07244713596
0.07244713569
0.07244713507
0.07244713473
0.07244713527
0.07244713585
0.07244713622
0.07244713632
0.07244713642
0.07244713633
0.07244713608
0.07244713549
0.07244713497
0.07244681456
0.07244712772
0.07244713207
0.07244713308
0.07244713456
)
;
    }
}


// ************************************************************************* //
