/*--------------------------------*- C++ -*----------------------------------*\
  =========                 |
  \\      /  F ield         | OpenFOAM: The Open Source CFD Toolbox
   \\    /   O peration     | Website:  https://openfoam.org
    \\  /    A nd           | Version:  8
     \\/     M anipulation  |
\*---------------------------------------------------------------------------*/
FoamFile
{
    version     2.0;
    format      ascii;
    class       volScalarField;
    location    "1.2/wallFilmRegion";
    object      delta;
}
// * * * * * * * * * * * * * * * * * * * * * * * * * * * * * * * * * * * * * //

dimensions      [0 1 0 0 0 0 0];

internalField   nonuniform List<scalar> 
1342
(
0.001718398435
0.001585213947
0.000666706047
0.0003256290903
8.594628933e-05
1.11774126e-06
1.887210595e-07
6.668804625e-08
7.648484338e-09
3.011959607e-08
8.0265322e-08
2.123802481e-07
6.02160404e-07
0.0003464543802
0.0002298326689
9.725568866e-05
4.198780806e-05
2.524817447e-05
2.171596246e-05
2.115454192e-05
2.04789068e-05
1.94412657e-05
1.844500431e-05
1.917834545e-05
2.36429212e-05
0.001631715008
0.001225574046
0.001572790348
0.00111715692
0.0004407767082
0.0005026181324
7.055055205e-05
2.319720745e-07
1.596692248e-08
2.534166855e-08
3.66931135e-08
7.913807699e-08
1.725923821e-07
3.49109957e-07
8.398264589e-07
2.232646635e-05
1.763569244e-05
1.396324006e-05
1.488590607e-05
1.88145839e-05
2.358306527e-05
2.705391722e-05
2.836252895e-05
2.802381711e-05
2.697891524e-05
2.733007367e-05
3.150728119e-05
0.001491636073
0.0008220417684
0.001249929984
0.001345953406
0.0007857267392
0.0002647936427
0.0001100692388
2.678690653e-05
1.049681518e-07
4.079068001e-09
1.516093849e-10
3.47951079e-08
1.10465738e-07
2.566542885e-07
5.062275382e-07
9.584752234e-07
6.571176702e-06
7.766213995e-06
8.779655963e-06
1.247297124e-05
1.932543464e-05
2.7575681e-05
3.456945572e-05
3.866810008e-05
3.99382051e-05
3.938124661e-05
3.946888439e-05
4.317479091e-05
0.001467690743
0.0009833614097
0.001389512932
0.001369071009
0.0007215742537
0.0002105193259
0.000108529464
8.24352882e-05
2.404918336e-06
1.040707155e-07
3.683767706e-10
3.809701276e-08
8.573581345e-07
2.728032825e-06
5.04195383e-06
7.026436354e-06
1.007892595e-05
1.165887202e-05
1.361228531e-05
1.776892544e-05
2.486605178e-05
3.432296567e-05
4.422445451e-05
5.208457665e-05
5.630446194e-05
5.68916378e-05
5.61217709e-05
5.746364331e-05
0.001297787092
0.0008567736228
0.001266432632
0.001602333258
0.0009082805238
0.000135445754
3.129868895e-06
0.0001551413201
4.742375885e-07
3.417406654e-08
1.12899115e-08
4.635365729e-08
1.175359016e-05
5.373589773e-05
0.0001337615725
0.0002061976942
0.0002194754739
0.0001657839139
9.876804118e-05
6.003817723e-05
4.622169389e-05
4.702945482e-05
5.520733119e-05
6.535444195e-05
7.296473002e-05
7.568009717e-05
7.870052403e-05
9.353653376e-05
0.002509766224
0.0001594106719
0.0002340819604
0.0006052467489
0.0009844044591
0.0003701325706
3.461676457e-05
9.816150262e-07
3.616099495e-07
4.61719223e-09
2.130470717e-10
7.168373381e-09
5.684226131e-08
1.040707877e-06
4.389130495e-06
1.293196239e-05
3.120539843e-05
5.562795864e-05
7.14710906e-05
6.943035445e-05
5.908269158e-05
5.209480957e-05
5.289827803e-05
6.027581944e-05
7.062239215e-05
7.959425159e-05
8.668528026e-05
0.0001090505333
0.0001768360226
0.004291169572
0.0001382045831
0.0002301680352
0.000437674801
0.000752800292
0.000310889266
3.751339664e-06
1.523120965e-07
2.97638983e-08
1.830289205e-09
1.246136798e-10
7.880774534e-09
9.622501859e-08
5.124175737e-07
1.447772345e-06
3.538303518e-06
8.164763669e-06
1.651174332e-05
2.961183821e-05
4.354876148e-05
5.124153568e-05
5.618723321e-05
6.43122794e-05
7.813940827e-05
9.613881956e-05
0.0001128431579
0.0001269725916
0.0001464853812
0.0001635060938
0.001795201389
0.0003508932075
0.0002440296825
0.000323141708
0.0006427747796
0.000346935792
4.922642567e-05
5.558807764e-06
2.386998269e-06
9.842197758e-07
4.994393619e-07
3.152993451e-07
3.093739729e-07
9.676844315e-07
1.671837718e-06
2.909918716e-06
6.497131729e-06
1.533532355e-05
3.042890211e-05
4.879174273e-05
6.853720372e-05
9.701259867e-05
0.0001505792253
0.000258383
0.0004354907095
0.0006106041802
0.0006558196049
0.0005942537193
0.000441145423
0.002356990121
0.0009064539603
0.0002489720614
0.0002224511602
0.0004443506596
0.0003416087583
0.0005337773789
3.092712104e-05
1.40334838e-05
5.927167553e-06
2.471704611e-06
1.29247557e-06
7.841215874e-07
1.759563606e-06
3.042801289e-06
5.079519088e-06
8.965571243e-06
1.696088797e-05
3.174355025e-05
5.526503802e-05
9.938007188e-05
0.0002207269406
0.0004230663105
0.0005422957097
0.00046586488
0.0002820406259
0.0001825455487
0.0001716817068
0.0001338861286
0.002269164819
0.0003965415191
0.0001682864587
0.0001528347459
0.000233266602
0.0001928929753
0.0004269185019
5.203481806e-05
4.130246391e-05
2.406334351e-05
9.712739158e-06
3.704969718e-06
1.242134285e-06
2.59492782e-05
1.121072671e-05
8.851690524e-06
1.140280534e-05
1.845117376e-05
3.223275358e-05
5.696651842e-05
0.0001165348525
0.0003006078962
0.0004585157697
0.0003477452546
0.0001379537325
4.394894587e-05
2.225956319e-05
2.851227135e-05
3.46570506e-05
0.002338748944
6.28075155e-05
0.0001140416828
0.0001191539258
0.0001048830887
7.402483804e-05
0.0002163906197
2.844243582e-05
4.000829563e-05
4.196839449e-05
0.0001464920986
0.0001320758338
2.211618198e-06
7.230535077e-05
7.557499781e-05
3.188782828e-05
1.943776628e-05
2.224785296e-05
3.42406168e-05
5.710821673e-05
0.0001150111451
0.0002727533498
0.0003556599918
0.0002321974978
8.738527121e-05
2.574357251e-05
9.724160785e-06
1.095387999e-05
1.564785842e-05
0.002425853041
8.213857655e-06
9.138533523e-05
8.550735865e-05
4.423145881e-05
2.204061593e-05
7.502858685e-05
2.299018643e-05
1.833522591e-05
2.343497077e-05
0.0002615429209
0.0001931047988
3.071266932e-06
5.411671806e-05
8.11446906e-05
5.782823789e-05
3.342791585e-05
3.020256509e-05
4.041768708e-05
6.216712885e-05
0.0001136320967
0.0002200336455
0.0002495487154
0.0001520888233
5.78252887e-05
1.904809564e-05
7.973483929e-06
8.360246397e-06
1.512479887e-05
0.002559895641
6.711270569e-05
1.617468014e-05
2.231999543e-06
2.515084902e-06
3.289357972e-06
1.233600527e-05
0.000688844721
2.396502737e-05
9.382901751e-06
1.798121304e-05
0.0001052977597
4.327182984e-06
4.842875613e-05
7.083514449e-05
6.031402272e-05
4.386327692e-05
4.117890414e-05
5.210241312e-05
7.672483646e-05
0.0001243323076
0.0001835339799
0.0001677085873
9.097142007e-05
3.571011096e-05
1.481740359e-05
8.498921453e-06
1.142074345e-05
2.122140365e-05
0.002793910465
0.0001464368323
4.225214471e-06
9.64747283e-07
9.408195874e-07
1.628401569e-06
3.576752213e-06
0.000643010357
3.728711192e-05
5.889203382e-05
3.577827071e-05
6.979956655e-05
1.070741552e-05
3.693005507e-05
4.957461723e-05
5.389158938e-05
5.614370369e-05
6.027117938e-05
7.303697046e-05
0.0001011491488
0.0001405022893
0.0001509183855
0.0001042032584
4.863732256e-05
2.03508979e-05
1.081197846e-05
8.432950362e-06
1.420806028e-05
2.847848859e-05
0.003131417988
0.0002539111254
3.906969066e-06
7.355665241e-07
5.641891831e-07
1.076967359e-06
1.492655312e-06
0.0001845383078
0.0001621788192
0.0001743512933
0.0001102352337
8.90851125e-05
4.816242878e-05
6.184855208e-05
9.420970977e-05
0.0001197631337
0.0001406697163
0.0001530648994
0.0001565090391
0.0001612650381
0.000160932544
0.0001204772595
6.148415642e-05
2.539533794e-05
1.223782966e-05
8.651351645e-06
8.819565027e-06
1.70648244e-05
3.706146159e-05
0.003541089444
0.0003025071022
2.571281009e-06
5.905266078e-07
3.088707237e-07
7.044682667e-07
6.566258238e-07
3.814934975e-05
4.229949556e-05
1.319306255e-05
0.000166683135
0.0001676937246
8.215768892e-05
8.715155782e-05
0.0001297799704
0.0001541980051
0.000178262203
0.0001968832011
0.0001975113193
0.0001818764062
0.0001478942272
8.704540983e-05
3.632269288e-05
1.512755853e-05
9.023101112e-06
8.236481512e-06
9.811525885e-06
2.002643451e-05
4.831211146e-05
0.003978366925
1.408908293e-06
1.196155749e-06
4.030009094e-07
1.98364267e-07
3.182158167e-07
2.225670954e-07
6.35471406e-06
9.175685084e-06
3.138818026e-07
4.568996979e-07
0.0001565886365
9.030355494e-05
0.0001048926248
0.0001456842658
0.0001673132014
0.0001864378714
0.0001957221333
0.000182297933
0.0001501850939
0.0001067203162
5.572672948e-05
2.311316616e-05
1.139515946e-05
8.454971581e-06
8.948691146e-06
1.1269603e-05
2.330579877e-05
6.59966716e-05
0.004409792155
3.225940769e-05
2.673716785e-05
2.20390167e-05
1.861378288e-05
1.6634445e-05
7.92419379e-06
2.629837144e-06
3.072243973e-06
1.104140784e-05
2.443013017e-06
5.214802161e-05
7.811079567e-05
0.0001310258751
0.0001693196946
0.0001833198663
0.00018582322
0.0001715860704
0.0001389075545
0.0001015376855
6.618135553e-05
3.461976444e-05
1.714813959e-05
1.062835814e-05
9.161933382e-06
1.022465885e-05
1.301389551e-05
2.783232275e-05
9.853155225e-05
0.004842709292
8.374304009e-05
5.146029503e-05
2.694593549e-05
1.122121802e-05
1.136691504e-06
1.173265568e-05
0.0002673079461
1.731470331e-05
8.892697887e-05
5.868473904e-05
2.888917297e-05
5.415538359e-05
0.000160055099
0.0002039049513
0.0002011237394
0.0001744956431
0.0001344701217
9.381960902e-05
6.305820827e-05
4.110672676e-05
2.534213065e-05
1.629441569e-05
1.634830523e-05
1.933946372e-05
2.470277376e-05
3.048948817e-05
5.783765739e-05
0.0001946296042
0.005388147721
0.0001236735643
8.062585072e-05
3.469606057e-05
1.017353882e-05
3.863911636e-07
5.563877168e-07
3.30958167e-06
5.669751519e-05
5.804498663e-05
7.353370357e-05
4.49610705e-05
4.237270109e-05
0.0001767948447
0.000223155559
0.0001981325715
0.0001465591134
9.795109107e-05
6.388060399e-05
4.384937218e-05
3.243573262e-05
2.506274149e-05
2.974725755e-05
0.0001952715815
0.0009126755131
0.0009042846937
0.0003975784016
0.0003631277286
0.000713994168
0.006794195395
8.124716798e-05
8.506065716e-05
6.291436901e-05
1.949067624e-05
6.603354528e-06
3.593838663e-06
4.416594574e-06
3.050287446e-05
4.217002038e-05
5.044449468e-05
4.222401514e-05
3.761688451e-05
0.000158340775
0.0001997138475
0.0001754447888
0.0001284252892
8.694807368e-05
6.044298559e-05
4.54025311e-05
3.718463772e-05
5.513623578e-05
0.001158413986
0.003836314248
0.004688197264
0.004961603119
0.004181289695
0.003647165213
0.002935179421
0.00863584216
0.0001248000799
0.000135100962
0.0001122392075
5.666071125e-05
2.184225793e-05
9.537117108e-06
6.475606218e-06
1.015724667e-05
2.050421301e-05
2.479237273e-05
2.902182693e-05
3.643319363e-05
0.0001159505152
0.0001519058189
0.0001622549716
0.0001478303067
0.00011413948
8.208694796e-05
6.126357189e-05
6.747367487e-05
0.0007977579791
0.004169048462
0.004760045504
0.004689702616
0.004331420661
0.002661733254
0.003050405586
0.00177634463
0.007988123688
0.0003705260146
0.0004196053765
0.0003872232481
0.0001713595287
7.05985348e-05
3.692970111e-05
2.416742314e-05
2.069850246e-05
4.905120227e-05
6.146857572e-05
7.174244715e-05
8.713378799e-05
0.0001334113764
0.0001767235686
0.0002166684117
0.000205444698
0.0001558604864
0.0001052223283
7.392438518e-05
8.689962719e-05
0.001586154805
0.003537873947
0.004238548725
0.004508290912
0.004155648406
0.0036274201
0.002540039769
0.0006008004986
0.007756388351
0.00134895752
0.0008613473021
0.0005354002
0.0002225962303
0.0001013453316
6.48358575e-05
4.649278158e-05
3.787292822e-05
9.09830424e-05
0.0001621676585
0.0001962197697
0.0002165412905
0.0002425303497
0.0002634349697
0.000267674135
0.0002216197067
0.0001523197273
9.847657049e-05
7.098360962e-05
0.0001047837873
0.002800822684
0.00356970033
0.003802481012
0.003966834112
0.004302153745
0.004525339219
0.003648567086
0.0007183475043
0.008724798417
0.0002647688872
0.0003366812325
0.0003450534627
0.0002091890393
0.000168678932
8.663913841e-05
5.597193475e-05
4.607092849e-05
0.0001234287866
0.0005486854627
0.0007288391018
0.0006223604193
0.0004799370496
0.0003719110322
0.0002826477748
0.0001920367586
0.000121926653
7.977924929e-05
7.146579503e-05
0.0003674716622
0.003506501927
0.003247870633
0.003009004251
0.00346455016
0.004312870402
0.005001981363
0.00437376971
0.001738583674
0.01023489648
3.986506926e-05
5.538387262e-05
7.278030783e-05
0.0001035668636
0.0002800484454
0.0001036861958
4.298226208e-05
3.512351681e-05
0.0001640439783
0.0004329730524
0.0006859738124
0.0005389076635
0.0004412474225
0.0003356664638
0.0002285054956
0.0001419688254
8.693805061e-05
5.846273139e-05
6.316569173e-05
0.0005162315099
0.002664751672
0.002351096207
0.002280749572
0.002890306534
0.004307598481
0.005536763765
0.005643314481
0.003602889648
0.01141343615
1.021692533e-05
1.523173572e-05
2.447492456e-05
6.005832932e-05
0.0002975068402
0.000208854088
5.738237733e-05
4.768590574e-05
0.0002144668762
0.0001948935301
0.0001940991041
0.0002746782759
0.0004014543069
0.0004716309224
0.0004239638208
0.000351886136
0.000224808375
0.000141284455
0.0001247617584
0.0002898426708
0.002039900111
0.001085408079
0.0004919052466
0.001789981824
0.004481833489
0.005884937168
0.006171518622
0.00473064782
0.01106844533
4.361621198e-06
6.466299643e-06
1.008333296e-05
2.227187286e-05
0.0001352830139
0.0004308866657
0.0002025667706
0.0001030176978
0.0002444198404
0.0001582136184
0.0001647687116
0.0004877580073
0.0005933595627
0.0009475008164
0.0009183631762
0.001025287283
0.0007947426752
0.000556016454
0.000439487253
0.0003222698954
0.00211390735
0.002030449044
0.001845588752
0.001932460452
0.00313218227
0.007822592037
0.00830444015
0.008776342246
0.01309429196
2.870690346e-06
5.536210996e-06
7.68696904e-06
8.373405357e-06
7.329351564e-05
7.719876531e-05
0.0002193657961
0.0001674498427
0.0002427241747
0.0001584955697
0.0001872969173
0.0003259028968
0.0003376665411
0.0003331021172
0.0002422435253
0.0001409463107
8.52209704e-05
6.156686609e-05
7.030857993e-05
0.0001881845883
0.00119511577
0.0006249655019
0.0006443348367
0.0006959889437
0.0008906737395
0.001528277203
0.005658457851
0.007882705877
0.01325768405
0.001417984547
0.002128247738
0.001825979142
0.0008373310233
0.000637246922
0.000916518994
0.001422675028
0.001931122927
0.001915616116
0.00189163037
0.001883524352
0.002054039871
0.002253945219
0.00246882782
0.002673189835
0.002880002246
0.002927083417
0.002890998761
0.003074518416
0.003883893284
0.005573843748
0.0056816087
0.005599709807
0.005561473927
0.005751530538
0.006760847701
0.008830374843
0.01089223259
0.01555813087
0.004964902936
4.804526701e-05
0.0001000625637
2.899200087e-06
3.28956755e-05
5.460865357e-07
5.407752701e-06
4.454958527e-05
0.0002198243447
8.41863984e-07
1.446531333e-06
8.721403963e-06
0.0001508589643
3.325749697e-07
3.083041205e-07
1.504376489e-06
8.268233764e-05
1.623268176e-07
6.620917469e-08
2.147482202e-07
4.133147999e-07
1.905858954e-08
6.700037088e-09
1.576157676e-08
0.0002986317901
0.0004144018976
3.85781283e-05
0.001774474025
2.254902226e-06
3.194303355e-07
0.001783516472
7.297259092e-08
4.445276322e-08
0.0007809915987
3.49025271e-08
1.643640798e-08
1.272127272e-05
1.535311205e-08
1.391493784e-08
0.0002717815765
1.417273155e-08
1.269151405e-08
0.001621200056
1.189193678e-08
3.305293985e-08
0.002503555399
9.182410171e-08
3.135407231e-07
0.0008782833085
1.372113461e-06
5.805192709e-06
0.007397309639
3.53937055e-05
0.0004128900072
3.887861014e-05
8.032599139e-05
5.576807077e-05
0.0001360858601
9.658317759e-05
0.0001144659359
6.915701912e-05
3.218935813e-05
6.736760324e-05
0.000149379514
3.211834937e-05
5.49931306e-06
5.401693992e-05
2.512050293e-05
8.504521377e-05
6.298646577e-05
0.0001117581462
7.961397967e-05
3.480693293e-06
0.0001453791629
8.656438411e-05
3.679999694e-05
1.656960112e-05
2.348129102e-05
9.894481982e-05
3.866101984e-05
1.028691844e-05
1.483204848e-06
0.0002717574022
0.00215962374
0.0003500095688
0.0001752898872
6.507250204e-05
5.174000973e-05
0.0002625247191
0.0001014384464
0.0001946232883
0.0002221822449
0.00219903288
0.0001923657883
2.159509398e-05
0.0002904807324
0.0001125416804
0.0001997485553
0.001867355986
0.0004387600704
0.0001245579857
0.0005503231138
0.0002376556112
0.002378946214
0.002457002237
0.0008844546561
0.0008168635112
0.0002200648541
0.002002402208
0.0002612635612
0.003183307188
0.001418385229
0.0003794862296
0.0004709157319
9.951649919e-05
0.001828211562
0.003584996752
0.002203348482
2.296750119e-05
3.591643258e-07
1.097421257e-08
0.001779154457
0.002542444981
0.00112438073
2.294051283e-07
0.0005156820238
0.001879861697
0.0001336875272
6.266405091e-07
2.040586988e-05
0.0002739228498
1.087685655e-05
2.470700258e-05
1.217055757e-05
1.651821663e-05
3.621284657e-05
2.332687343e-05
3.455570804e-05
4.61773439e-05
2.985115555e-07
3.203741329e-06
7.893917268e-07
3.488202408e-08
2.385405945e-07
9.314806207e-08
9.660918416e-09
4.921051817e-08
1.258843264e-08
1.084909568e-08
1.286533319e-08
1.572977391e-08
9.373652925e-09
1.829431937e-08
1.902279493e-08
3.270298685e-08
1.885967467e-08
1.032921231e-07
3.728162376e-07
3.658586382e-07
1.444692905e-06
7.160198293e-06
5.474005751e-06
1.504217753e-05
5.482075304e-06
8.506003552e-06
2.33383632e-05
0.0001840655954
1.346362258e-05
2.58895408e-05
1.248071629e-06
6.604585038e-06
2.125562266e-06
1.645625582e-07
7.269680797e-07
2.939491024e-07
1.152627071e-08
1.114017033e-07
1.127832734e-08
1.840064473e-08
1.311840087e-08
2.163858146e-08
2.406832818e-08
2.756045462e-08
3.304150548e-08
2.51022345e-07
3.466294298e-08
6.500788931e-07
3.802990578e-06
2.697895782e-06
8.344028205e-06
2.662309742e-05
2.059096503e-05
4.714636611e-05
1.472779321e-06
0.0001821584848
1.14352754e-06
8.234498818e-07
5.766591782e-07
4.579318852e-07
3.868677613e-06
4.511586905e-07
5.242895098e-06
1.024122427e-06
1.449713912e-08
4.585533329e-07
2.491101856e-08
2.565945968e-08
2.242585243e-08
2.837674211e-08
4.988893488e-08
4.005552723e-08
8.565629014e-08
1.541129848e-06
1.283290998e-07
3.081315395e-06
1.652514747e-05
1.155865477e-05
2.838516178e-05
0.0001187274244
5.022985655e-07
1.679117113e-07
2.233339448e-07
8.756036489e-08
7.095827765e-07
1.318384338e-07
3.366290504e-08
5.432145494e-05
2.427444139e-08
2.497819491e-08
1.327661926e-08
1.486732401e-08
2.354870146e-07
2.110205773e-08
9.25496843e-07
4.480428891e-06
7.71846003e-07
4.571466309e-06
2.608694231e-07
0.003126969664
0.01530245041
0.0205348612
0.0006092927228
6.28961384e-05
0.0004684525722
2.773722357e-05
0.0005237005478
1.589241184e-05
0.0008105248441
0.002092393256
0.0002495833866
0.0002237509615
0.002028142492
0.002216257718
0.0002941801438
0.001339799236
0.002268356597
0.0002623311409
0.0008639644925
0.004955036181
0.0004360681855
5.894452354e-05
0.002664129432
0.0005909561611
0.0007974227907
0.003620907909
0.0003698601795
0.002383896939
0.0031667634
2.807869643e-07
0.001884089656
0.001962747333
0.00024111222
0.003220992442
3.105972136e-05
0.0001687724667
0.0003307890382
2.067087675e-05
2.997114066e-05
2.020629449e-06
6.459336802e-08
2.575117045e-08
9.323925603e-09
1.08267546e-08
8.773420047e-09
9.731898477e-08
1.802026449e-06
5.10515236e-05
0.0001713024369
0.0002241337662
5.895970596e-06
3.038143324e-06
1.329042437e-05
6.920603547e-06
3.907362942e-05
4.222833112e-06
4.180488688e-07
6.669953376e-08
1.30020689e-08
2.221428763e-08
2.461625561e-08
1.034072664e-06
1.046927718e-05
0.0001480656337
1.93530054e-05
1.52557714e-06
1.969128527e-07
1.465028469e-08
3.557935683e-08
5.896466855e-08
6.419398366e-06
3.845082056e-05
0.0001305540079
2.170312554e-05
1.831511701e-05
1.622970061e-07
4.496266947e-07
2.376478089e-07
5.245354904e-06
3.81091188e-05
2.748563311e-06
2.810054085e-08
2.299834058e-08
3.464645735e-07
1.645075273e-05
6.517262246e-05
1.078909962e-06
8.009432342e-08
2.254414183e-08
0.000167068185
4.902585406e-05
3.521701765e-05
9.749182137e-08
2.947710514e-08
1.516715885e-07
7.390998101e-08
6.02379685e-05
7.367952386e-07
5.83834443e-08
1.652635666e-08
3.586750867e-08
2.257610683e-05
3.130172001e-07
2.531561684e-08
7.484506539e-09
1.490483785e-08
2.956573796e-06
1.010030375e-07
6.155545205e-09
2.027686317e-09
4.00601407e-09
0.00120147549
0.0001152022314
0.00236141401
0.0004403370107
0.0007056446596
3.113606824e-05
0.0004253528191
3.274496779e-05
0.0003604796693
0.0003584490004
2.597947231e-05
2.679109284e-05
0.0004972101681
2.254550848e-05
0.0003616049659
0.0003516815321
2.747243103e-05
2.722567497e-05
0.0003468256487
2.298956842e-05
3.700397109e-05
0.0158717691
0.001288431411
3.276467477e-05
0.0002625116851
3.873962041e-06
0.0007469083544
6.910982186e-06
1.718062972e-06
6.829095302e-05
8.270675096e-07
1.151102168e-06
2.166505604e-06
1.231966042e-05
3.920089251e-05
7.967989634e-05
3.284627851e-06
4.262343601e-06
1.585255777e-05
3.342935654e-07
4.736751696e-07
3.012430542e-07
6.79443585e-07
3.375812248e-07
2.62563516e-06
1.89956891e-05
9.547936527e-06
2.415994782e-05
8.50198755e-07
2.195727734e-06
4.908256201e-06
7.491058427e-07
2.063931821e-06
1.69809769e-07
8.715907351e-08
1.268196603e-07
4.690490541e-08
6.181080766e-08
1.723172628e-07
2.588280775e-06
4.401856989e-07
2.157563659e-07
6.96877949e-08
1.739410069e-06
8.742916076e-07
2.727387926e-07
5.236740504e-07
3.310565248e-07
5.61352599e-08
1.381481691e-07
4.671496177e-08
1.22934108e-07
5.013395097e-08
8.936656677e-08
2.081947811e-08
5.79738093e-07
3.175579243e-08
6.164002355e-09
5.123440979e-08
2.906824263e-08
1.581544875e-08
9.237557098e-09
1.013411453e-08
1.654597618e-08
8.757469296e-08
2.51937318e-08
5.651583479e-08
2.574999856e-08
4.572559032e-08
1.428771845e-07
1.408801326e-06
8.829471963e-08
3.223198853e-08
7.892441656e-08
2.610655227e-08
4.728514369e-08
2.256690155e-08
3.48061206e-08
5.247180166e-08
6.542778563e-08
4.951706468e-07
4.486390439e-08
1.942581118e-08
4.01105386e-08
1.345621491e-08
2.471245672e-08
1.149692217e-08
1.683629132e-08
2.363418174e-08
2.813344178e-08
1.806587711e-07
1.540870514e-08
8.566170562e-09
1.401512876e-08
4.785221611e-09
1.085316106e-08
4.337498913e-09
6.278372726e-09
8.543181421e-09
6.739770189e-09
8.682480573e-08
3.376837394e-09
2.120697134e-09
2.945014162e-09
9.391826646e-10
2.943953291e-09
1.042085033e-09
1.608879046e-09
1.067513849e-08
2.302055547e-09
)
;

boundaryField
{
    walls
    {
        type            zeroGradient;
    }
    wallFilmFace_top
    {
        type            zeroGradient;
    }
    region0_to_wallFilmRegion_wallFilmFace
    {
        type            zeroGradient;
    }
    mirrorFace_top
    {
        type            zeroGradient;
    }
    region0_to_wallFilmRegion_mirrorFace
    {
        type            zeroGradient;
    }
    procBoundary2to0
    {
        type            processor;
        value           nonuniform List<scalar> 
26
(
0.001371537661
0.00174081666
0.001472513351
0.0002842816966
1.975551968e-05
8.961888764e-07
2.092121284e-07
6.911215617e-08
1.899699693e-08
6.425571443e-08
1.636673179e-07
4.166655479e-07
1.348733104e-06
0.000332005052
0.000153335794
5.955705207e-05
2.84789001e-05
1.989754057e-05
1.704941568e-05
1.536971138e-05
1.398684716e-05
1.293002421e-05
1.227146253e-05
1.328977748e-05
1.765577847e-05
0.001784061983
)
;
    }
    procBoundary2to1
    {
        type            processor;
        value           nonuniform List<scalar> 
33
(
0.001446154714
0.001446154714
0.0006389172207
0.0006389172207
0.0004976496647
0.0005676110149
0.0006189545991
0.0006189545991
0.0002747341646
0.000119332551
0.0003518468792
0.001168956702
0.0004510769818
6.061566196e-05
1.70594821e-05
0.0001565247021
6.890378534e-05
5.133083194e-05
4.695350428e-05
1.622354004e-05
4.450771828e-05
0.0001247881891
0.0001406595263
5.754022233e-05
0.0001116273212
0.0003103044272
0.00164998032
0.000338665923
3.906623508e-05
7.711545028e-06
3.69663371e-06
2.161194138e-06
0.001873669385
)
;
    }
    procBoundary2to3
    {
        type            processor;
        value           nonuniform List<scalar> 
64
(
9.221603159e-05
6.909608913e-06
2.644962915e-05
0.0001188027034
8.223298619e-05
1.854306907e-05
3.257837971e-06
3.834846215e-07
2.254990709e-08
0.0002933774921
3.119900207e-05
4.456684493e-06
8.411321762e-05
3.119900207e-05
3.295851741e-05
3.784524711e-05
5.271828342e-05
0.000113713927
0.001052057969
8.505743791e-05
2.52794643e-05
4.109214549e-07
8.114915769e-08
1.47321221e-08
1.47321221e-08
2.076960388e-08
1.51785205e-07
1.51785205e-07
2.209371608e-07
1.51785205e-07
3.799406437e-05
4.755929995e-05
3.799406437e-05
5.203973378e-05
4.204014389e-05
0.0005486100495
9.229951893e-06
0.0002933774921
2.525072252e-05
3.799406437e-05
1.361900792e-05
2.624739022e-07
1.172027632e-07
5.261523162e-08
2.016270476e-08
5.248792191e-09
0.0003701921022
1.496569103e-05
0.0006549591172
1.672376319e-05
6.909608913e-06
7.03258643e-05
0.0001241379082
4.951151146e-05
1.060420274e-05
6.782711047e-06
1.121792512e-06
1.045089535e-06
1.706808445e-07
3.74406258e-08
8.030210336e-08
3.317346972e-08
1.129078868e-08
3.145629448e-09
)
;
    }
}


// ************************************************************************* //
