/*--------------------------------*- C++ -*----------------------------------*\
  =========                 |
  \\      /  F ield         | OpenFOAM: The Open Source CFD Toolbox
   \\    /   O peration     | Website:  https://openfoam.org
    \\  /    A nd           | Version:  8
     \\/     M anipulation  |
\*---------------------------------------------------------------------------*/
FoamFile
{
    version     2.0;
    format      ascii;
    class       volScalarField;
    location    "1.2/wallFilmRegion";
    object      kappa;
}
// * * * * * * * * * * * * * * * * * * * * * * * * * * * * * * * * * * * * * //

dimensions      [1 1 -3 -1 0 0 0];

internalField   nonuniform List<scalar> 
1342
(
0.6088099947
0.6088099968
0.6088099975
0.6088099984
0.6088100003
0.6088100732
0.6088102529
0.6088105168
0.6088116612
0.6088107305
0.6088103684
0.6088101899
0.6088101023
0.6088099786
0.6088099788
0.6088099799
0.6088099842
0.6088099933
0.6088100008
0.6088100037
0.6088100045
0.6088100046
0.6088100046
0.6088100045
0.6088100042
0.6088100027
0.6088099959
0.6088099965
0.608809998
0.6088099977
0.6088099977
0.6088100003
0.6088102626
0.6088119965
0.6088114385
0.6088109297
0.6088104729
0.6088102503
0.6088101442
0.6088100837
0.608809983
0.6088099843
0.6088099893
0.6088099962
0.6088100015
0.6088100035
0.6088100039
0.6088100039
0.6088100038
0.6088100037
0.6088100037
0.6088100036
0.6088100027
0.6088099967
0.6088099976
0.6088099979
0.6088099983
0.6088099981
0.6088099984
0.6088100013
0.6088104716
0.6088130149
0.6088139079
0.6088107672
0.6088103639
0.6088101944
0.608810115
0.6088100725
0.6088099954
0.6088099962
0.6088100014
0.6088100046
0.608810005
0.6088100044
0.6088100038
0.6088100033
0.6088100031
0.608810003
0.608810003
0.6088100031
0.6088100027
0.6088099982
0.6088099983
0.6088099983
0.6088099983
0.6088099977
0.6088099979
0.6088099988
0.6088100481
0.6088104654
0.6088138754
0.6088106819
0.6088100974
0.6088100482
0.6088100318
0.6088100243
0.6088100138
0.6088100109
0.6088100097
0.6088100079
0.6088100059
0.6088100044
0.6088100035
0.6088100029
0.6088100027
0.6088100026
0.6088100026
0.6088100027
0.6088100028
0.608809999
0.6088099987
0.6088099987
0.6088099985
0.608809999
0.6088100322
0.6088099967
0.6088103078
0.6088110196
0.6088117721
0.6088106679
0.6088100097
0.6088100041
0.6088100026
0.6088100022
0.6088100021
0.6088100024
0.608810003
0.6088100036
0.608810004
0.6088100036
0.6088100031
0.6088100027
0.6088100024
0.6088100024
0.6088100024
0.6088100026
0.6088100028
0.6088100002
0.6088099997
0.6088099992
0.6088099994
0.6088100004
0.6088100049
0.6088101686
0.6088102694
0.6088136296
0.6088138115
0.6088124396
0.6088106021
0.6088100488
0.6088100147
0.608810006
0.6088100032
0.6088100023
0.6088100021
0.6088100023
0.6088100028
0.6088100031
0.6088100031
0.6088100028
0.6088100025
0.6088100023
0.6088100023
0.6088100024
0.6088100025
0.6088100023
0.6088099989
0.6088099988
0.6088099986
0.608809999
0.60881
0.6088100476
0.6088105396
0.6088111594
0.6088136896
0.6088137961
0.6088126561
0.6088104289
0.6088100885
0.6088100301
0.6088100133
0.6088100068
0.6088100041
0.6088100029
0.6088100026
0.6088100026
0.6088100027
0.6088100026
0.6088100025
0.6088100024
0.6088100023
0.6088100024
0.6088100025
0.6088100026
0.6088100023
0.6088099973
0.608809998
0.6088099979
0.6088099987
0.6088099997
0.6088100048
0.6088100171
0.6088100246
0.6088100429
0.6088100773
0.6088101522
0.6088101848
0.6088100329
0.6088100303
0.6088100167
0.6088100083
0.6088100044
0.6088100029
0.6088100024
0.6088100022
0.6088100022
0.6088100022
0.6088100022
0.6088100021
0.6088100022
0.6088100022
0.6088100022
0.6088100023
0.6088100023
0.608809996
0.6088099973
0.6088099968
0.6088099982
0.6088099993
0.6088099991
0.6088100072
0.6088100084
0.6088100133
0.6088100256
0.6088100472
0.6088100766
0.6088100318
0.6088100183
0.6088100111
0.6088100068
0.6088100042
0.6088100028
0.6088100022
0.608810002
0.6088100019
0.6088100019
0.6088100019
0.6088100018
0.6088100018
0.6088100018
0.6088100018
0.6088100019
0.6088100021
0.6088099924
0.6088099962
0.6088099952
0.6088099973
0.6088099995
0.60881
0.6088100062
0.6088100056
0.6088100064
0.6088100103
0.6088100206
0.6088100421
0.608810003
0.6088100074
0.6088100079
0.6088100058
0.6088100038
0.6088100026
0.608810002
0.6088100018
0.6088100018
0.6088100018
0.6088100019
0.6088100021
0.6088100028
0.6088100038
0.6088100036
0.608810003
0.6088100021
0.6088099883
0.6088099939
0.6088099933
0.6088099957
0.6088099996
0.6088100005
0.6088100061
0.6088099989
0.6088099936
0.6088099788
0.6088099822
0.6088100242
0.6088100008
0.6088100013
0.6088100029
0.6088100038
0.6088100031
0.6088100022
0.6088100017
0.6088100015
0.6088100016
0.6088100017
0.6088100018
0.6088100022
0.6088100033
0.6088100056
0.6088100068
0.608810005
0.6088100021
0.6088099845
0.6088099919
0.6088099925
0.6088099959
0.6088100021
0.6088100022
0.6088100071
0.6088099975
0.6088099931
0.6088099793
0.6088099819
0.6088100175
0.6088100005
0.6088100006
0.6088100013
0.6088100021
0.6088100021
0.6088100016
0.6088100012
0.6088100011
0.6088100012
0.6088100014
0.6088100017
0.6088100023
0.6088100036
0.6088100064
0.6088100086
0.6088100056
0.6088100021
0.6088099883
0.6088100098
0.6088100274
0.6088100296
0.6088100252
0.6088100087
0.6088099917
0.608810002
0.6088100005
0.60881
0.6088099857
0.6088100133
0.6088100006
0.6088100004
0.6088100005
0.6088100009
0.608810001
0.6088100007
0.6088100005
0.6088100006
0.6088100009
0.6088100013
0.6088100018
0.6088100027
0.6088100048
0.6088100077
0.608810008
0.6088100051
0.6088100021
0.6088099866
0.6088100249
0.6088100367
0.6088100443
0.6088100339
0.6088100199
0.6088099946
0.6088099997
0.6088099951
0.6088099961
0.6088099913
0.6088100065
0.6088100009
0.6088100005
0.6088100002
0.6088100001
0.60881
0.6088099998
0.6088099999
0.6088100002
0.6088100007
0.6088100013
0.6088100022
0.6088100039
0.6088100067
0.6088100087
0.6088100073
0.6088100044
0.6088100021
0.6088099864
0.6088100203
0.6088100419
0.6088100593
0.6088100415
0.6088100327
0.6088100002
0.6088099998
0.6088099997
0.6088099998
0.6088099988
0.6088100013
0.6088100003
0.6088100002
0.6088100001
0.6088099999
0.6088099997
0.6088099995
0.6088099995
0.60881
0.6088100008
0.6088100018
0.6088100034
0.6088100062
0.6088100089
0.6088100091
0.6088100066
0.6088100038
0.6088100021
0.608809987
0.6088100215
0.6088100486
0.6088100848
0.6088100524
0.608810053
0.6088100034
0.6088100007
0.6088100034
0.6088100001
0.6088099997
0.6088100009
0.6088100003
0.6088100002
0.6088100001
0.6088099999
0.6088099996
0.6088099993
0.6088099993
0.60881
0.6088100013
0.608810003
0.6088100059
0.6088100092
0.6088100102
0.6088100088
0.608810006
0.6088100033
0.6088100021
0.6088100391
0.6088100286
0.6088100627
0.6088101034
0.6088100815
0.6088100977
0.6088100075
0.6088100075
0.6088100465
0.6088100765
0.6088099996
0.6088100013
0.6088100003
0.6088100002
0.60881
0.6088099998
0.6088099995
0.6088099992
0.6088099994
0.6088100004
0.6088100022
0.6088100051
0.6088100089
0.6088100113
0.6088100105
0.6088100083
0.6088100055
0.6088100029
0.6088100021
0.6088100019
0.6088100021
0.6088100026
0.6088100033
0.6088100045
0.6088100082
0.6088100148
0.6088100132
0.6088100027
0.6088100149
0.6088099998
0.6088100004
0.6088100002
0.6088100001
0.6088099999
0.6088099997
0.6088099994
0.6088099993
0.6088099997
0.6088100012
0.6088100039
0.6088100078
0.6088100115
0.6088100123
0.6088100104
0.6088100079
0.6088100049
0.6088100026
0.6088100021
0.6088100015
0.6088100017
0.6088100022
0.6088100032
0.6088100182
0.6088100121
0.6088100026
0.6088100038
0.6088100009
0.6088100019
0.608810002
0.6088099997
0.6088099999
0.6088099999
0.6088099997
0.6088099995
0.6088099994
0.6088099996
0.6088100005
0.6088100026
0.608810006
0.60881001
0.6088100126
0.6088100114
0.6088100088
0.6088100065
0.608810004
0.6088100023
0.6088100021
0.6088100015
0.6088100017
0.6088100021
0.6088100032
0.6088100249
0.6088100258
0.6088100192
0.6088100038
0.6088100009
0.6088100013
0.6088100023
0.6088100004
0.6088099996
0.6088099995
0.6088099994
0.6088099994
0.6088099996
0.6088100003
0.6088100017
0.6088100041
0.6088100071
0.6088100105
0.6088100048
0.6088100029
0.6088100027
0.6088100027
0.6088100023
0.6088100018
0.6088100019
0.6088100018
0.6088100018
0.608810002
0.6088100029
0.6088100038
0.6088100054
0.608810008
0.6088100052
0.6088100015
0.6088100013
0.608810002
0.6088100013
0.6088099995
0.6088099991
0.6088099988
0.6088099989
0.6088099994
0.6088100005
0.6088100021
0.6088100041
0.6088100069
0.6088100031
0.6088100025
0.6088100025
0.6088100024
0.6088100023
0.608810002
0.6088100017
0.6088100017
0.6088100006
0.6088100011
0.6088100016
0.6088100022
0.608810003
0.6088100045
0.6088100074
0.6088100088
0.6088100027
0.6088100017
0.6088100021
0.6088100018
0.6088099998
0.608809999
0.6088099982
0.6088099981
0.6088099986
0.6088099997
0.6088100013
0.6088100035
0.6088100033
0.6088100023
0.6088100029
0.6088100029
0.6088100028
0.6088100026
0.6088100025
0.6088100019
0.6088100017
0.608810001
0.608810001
0.6088100004
0.6088100007
0.6088100019
0.6088100019
0.608810002
0.6088100024
0.6088100004
0.6088100004
0.6088100006
0.6088100008
0.6088100005
0.6088099997
0.6088099984
0.6088099978
0.6088099982
0.6088099993
0.6088100009
0.6088100034
0.6088100029
0.6088100026
0.6088100029
0.6088100027
0.6088100025
0.6088100024
0.6088100022
0.6088100017
0.6088100015
0.6088100018
0.6088100018
0.6088100011
0.6088100013
0.6088100025
0.6088100016
0.6088100012
0.6088100013
0.6088100003
0.6088100003
0.6088100004
0.6088100006
0.6088100008
0.6088100005
0.6088099993
0.6088099986
0.6088099988
0.6088099998
0.6088100014
0.6088100043
0.6088100028
0.6088100027
0.6088100028
0.6088100026
0.6088100024
0.6088100023
0.6088100021
0.6088100014
0.6088100013
0.6088100016
0.6088100019
0.6088100022
0.6088100026
0.6088100032
0.6088100022
0.6088100014
0.6088100013
0.6088100003
0.6088100006
0.6088100008
0.6088100009
0.6088100011
0.6088100011
0.6088100004
0.6088099998
0.60881
0.608810001
0.6088100029
0.6088100041
0.6088100026
0.6088100029
0.6088100027
0.6088100025
0.6088100024
0.6088100023
0.6088100021
0.6088100014
0.6088100012
0.6088100017
0.6088100018
0.608810002
0.6088100026
0.6088100018
0.6088100025
0.6088100025
0.608810002
0.6088100004
0.6088100007
0.6088100002
0.6088100011
0.6088100015
0.6088100016
0.6088100013
0.6088100012
0.6088100017
0.6088100029
0.608810005
0.6088100036
0.6088100026
0.608810003
0.6088100027
0.6088100024
0.6088100023
0.6088100023
0.6088100023
0.608810002
0.6088100013
0.6088100036
0.6088100029
0.6088100024
0.6088100023
0.6088100013
0.6088100018
0.6088100017
0.6088100015
0.6088100005
0.6088100006
0.6088100006
0.6088100012
0.6088100015
0.6088100019
0.6088100024
0.6088100009
0.6088099992
0.6088099984
0.6088100002
0.6088100033
0.6088100025
0.6088100031
0.6088100032
0.6088100022
0.6088100021
0.6088100021
0.6088100023
0.6088100023
0.6088100018
0.6088100069
0.6088100052
0.608810004
0.6088100029
0.6088100009
0.6088100012
0.6088100014
0.6088100011
0.6088100006
0.6088100005
0.6088100007
0.6088099997
0.6088100015
0.6088100026
0.6088100033
0.6088100007
0.6088100006
0.6088100009
0.6088100021
0.6088100041
0.6088100024
0.6088100024
0.6088100018
0.6088100016
0.6088100015
0.6088100019
0.6088100021
0.6088100023
0.6088100024
0.608810007
0.6088100047
0.6088100039
0.6088100043
0.6088100008
0.6088100009
0.6088100016
0.6088100012
0.6088100007
0.6088100005
0.6088100007
0.6088100006
0.6088100017
0.608809999
0.6088099975
0.6088099975
0.60881
0.6088100032
0.6088100066
0.6088100066
0.6088100026
0.6088100021
0.6088100014
0.608810001
0.6088100008
0.6088100008
0.6088100016
0.6088100017
0.608810002
0.6088100016
0.6088100014
0.608810001
0.6088100006
0.6088100002
0.6088100003
0.6088100005
0.6088100007
0.6088100009
0.6088100009
0.608810001
0.6088100013
0.6088100014
0.6088100014
0.6088100014
0.6088100011
0.608810001
0.6088100014
0.6088100017
0.6088100019
0.6088100016
0.6088100012
0.608810001
0.6088100008
0.6088100007
0.6088100006
0.6088100007
0.608810001
0.6088100015
0.6088099865
0.6088099994
0.6088099993
0.6088099964
0.6088099989
0.6088099852
0.608809998
0.6088099995
0.6088099985
0.6088099907
0.6088099944
0.6088099984
0.6088099992
0.6088099822
0.6088099805
0.6088099938
0.6088099994
0.6088099698
0.6088099384
0.6088099713
0.6088099787
0.608809865
0.6088096965
0.608809816
0.6088099819
0.6088099927
0.608809992
0.6088099726
0.6088099888
0.6088099833
0.6088099702
0.6088099676
0.608809949
0.6088099705
0.6088099362
0.6088098676
0.6088099847
0.6088098521
0.6088098447
0.6088099865
0.6088098369
0.6088098261
0.6088099868
0.6088098122
0.6088099292
0.6088099865
0.6088099716
0.6088099892
0.6088099862
0.6088099971
0.6088099988
0.6088099869
0.6088099994
0.6088099954
0.6088099927
0.608809993
0.6088099934
0.6088099995
0.6088099995
0.6088099995
0.6088099942
0.608809996
0.6088099992
0.6088099996
0.6088099983
0.6088099985
0.608809999
0.6088099992
0.6088099996
0.6088099995
0.6088099995
0.6088099994
0.6088099988
0.6088099996
0.6088099996
0.6088099993
0.6088099986
0.6088099987
0.6088099995
0.6088099991
0.608809998
0.6088099917
0.6088099849
0.6088099751
0.6088099748
0.6088099963
0.6088099961
0.6088099969
0.6088099971
0.6088099973
0.6088099976
0.6088099727
0.6088099706
0.6088099716
0.6088099981
0.6088099734
0.6088099755
0.6088099715
0.608809971
0.6088099756
0.6088099755
0.6088099767
0.6088099781
0.6088099901
0.6088099901
0.608809991
0.6088099871
0.6088099912
0.6088099914
0.6088099895
0.6088099885
0.6088099895
0.608809992
0.6088099901
0.6088099909
0.6088099891
0.6088099877
0.6088099887
0.6088099897
0.6088100226
0.6088102625
0.6088099885
0.6088099872
0.6088099883
0.608810041
0.6088099884
0.608809987
0.6088099895
0.6088100208
0.6088099987
0.6088099964
0.6088099982
0.6088099991
0.6088099986
0.6088099989
0.6088099992
0.6088099991
0.6088099992
0.6088099993
0.6088099875
0.6088099932
0.608809991
0.6088099617
0.6088099841
0.6088099735
0.608809874
0.608809963
0.6088098857
0.6088098608
0.6088098748
0.6088098786
0.6088098436
0.6088098738
0.6088098627
0.6088099524
0.6088098496
0.6088099688
0.6088099945
0.60880999
0.6088099971
0.6088099992
0.6088099989
0.6088099993
0.6088099973
0.6088099984
0.6088099991
0.608809998
0.6088099988
0.6088099991
0.6088099947
0.6088099975
0.6088099972
0.6088099834
0.608809995
0.6088099903
0.6088098935
0.6088099832
0.6088099043
0.6088098937
0.608809896
0.6088099068
0.6088098805
0.6088099021
0.6088098978
0.6088099851
0.6088098969
0.6088099935
0.6088099985
0.608809998
0.6088099991
0.6088099995
0.6088099994
0.6088099996
0.608809993
0.6088099988
0.6088099917
0.6088099907
0.6088099881
0.6088099856
0.6088099972
0.6088099947
0.6088099989
0.6088099974
0.6088099214
0.6088099961
0.6088099393
0.6088099177
0.608809926
0.6088099256
0.6088099204
0.6088099177
0.6088099548
0.6088099966
0.6088099629
0.6088099977
0.6088099993
0.6088099991
0.6088099994
0.6088099993
0.6088099848
0.6088099693
0.6088099763
0.6088099521
0.608809989
0.6088099624
0.6088099377
0.6088099996
0.6088098955
0.6088099231
0.608809867
0.6088098799
0.6088099824
0.6088098941
0.6088099936
0.608809998
0.6088099913
0.6088099973
0.6088099755
0.6088099926
0.6088099871
0.6088099839
0.6088099975
0.6088099989
0.6088099976
0.6088099989
0.6088099977
0.6088099987
0.6088099761
0.6088099796
0.6088099953
0.6088099967
0.6088099709
0.6088099721
0.6088099746
0.6088099703
0.6088099707
0.6088099734
0.6088099843
0.6088099894
0.608809989
0.6088099861
0.6088099891
0.6088099911
0.6088099867
0.6088099881
0.6088099894
0.6088099867
0.6088099875
0.6088100294
0.6088099863
0.6088099871
0.6088099923
0.6088099871
0.6088099973
0.6088099924
0.6088099957
0.6088099989
0.6088099992
0.608809991
0.6088099763
0.6088099502
0.6088098613
0.608809855
0.6088098297
0.6088099828
0.6088099984
0.6088099995
0.6088099969
0.6088099973
0.6088099978
0.6088099965
0.6088099988
0.6088099983
0.6088099993
0.6088099956
0.6088099906
0.6088099737
0.6088098851
0.6088098896
0.608809871
0.6088099958
0.6088099992
0.6088099996
0.6088099985
0.6088099976
0.6088099908
0.6088099098
0.6088099116
0.6088099311
0.6088099988
0.6088099995
0.6088099996
0.6088099986
0.6088099985
0.6088099594
0.608809983
0.6088099716
0.6088099973
0.6088099995
0.6088099988
0.608809927
0.6088099055
0.6088099825
0.6088099991
0.6088099993
0.6088099878
0.6088099311
0.6088098274
0.6088099995
0.6088099992
0.6088099992
0.6088099546
0.6088098933
0.6088099638
0.6088099408
0.6088099993
0.6088099859
0.6088099357
0.60880985
0.6088099112
0.6088099988
0.6088099751
0.6088099154
0.6088097918
0.6088098664
0.6088099959
0.6088099585
0.6088101574
0.6088096878
0.6088097298
0.6088099973
0.6088099953
0.6088099846
0.6088099962
0.6088099956
0.6088099989
0.6088099975
0.6088099989
0.6088099967
0.6088099969
0.608809999
0.6088099991
0.6088099977
0.6088099988
0.6088099972
0.6088099974
0.6088099991
0.6088099991
0.6088099976
0.6088099992
0.6088099966
0.6088099867
0.6088099985
0.6088099991
0.608809997
0.6088099971
0.6088099989
0.6088099983
0.6088099944
0.6088099992
0.6088099898
0.608809992
0.6088099954
0.6088099989
0.6088099995
0.6088099996
0.6088099961
0.6088099975
0.6088099984
0.608809979
0.6088099843
0.6088099758
0.6088099877
0.608809978
0.6088099964
0.6088099991
0.6088099985
0.6088099992
0.6088099914
0.6088099957
0.6088099976
0.6088099886
0.6088099919
0.6088099615
0.6088099407
0.6088099512
0.6088098958
0.6088099147
0.6088099579
0.6088099953
0.6088099798
0.6088099679
0.6088099197
0.6088099937
0.608809989
0.6088099763
0.6088099854
0.6088099793
0.6088099349
0.6088099657
0.6088099259
0.6088099575
0.6088099262
0.6088099477
0.6088098716
0.6088099819
0.6088098872
0.6088096938
0.6088099087
0.6088098771
0.6088097854
0.6088097181
0.6088097262
0.6088097934
0.6088099312
0.6088098455
0.6088099199
0.6088098409
0.6088098894
0.6088099628
0.6088099903
0.6088099515
0.6088099015
0.6088099467
0.6088098854
0.6088099195
0.6088098741
0.6088099035
0.6088099277
0.60880994
0.6088099814
0.6088099248
0.6088098632
0.608809923
0.6088098363
0.6088098836
0.6088098217
0.6088098599
0.608809891
0.6088099082
0.6088099663
0.6088099007
0.6088098072
0.6088099386
0.6088097677
0.6088098324
0.6088097559
0.6088097929
0.6088098277
0.6088099887
0.608809943
0.6088096567
0.6088096259
0.6088097163
0.6088092554
0.6088097018
0.6088092884
0.6088093618
0.6088097622
0.6088094505
)
;

boundaryField
{
    walls
    {
        type            zeroGradient;
    }
    wallFilmFace_top
    {
        type            zeroGradient;
    }
    region0_to_wallFilmRegion_wallFilmFace
    {
        type            zeroGradient;
    }
    mirrorFace_top
    {
        type            zeroGradient;
    }
    region0_to_wallFilmRegion_mirrorFace
    {
        type            zeroGradient;
    }
    procBoundary2to0
    {
        type            processor;
        value           nonuniform List<scalar> 
26
(
0.6088099916
0.6088099946
0.6088099965
0.6088099986
0.6088100042
0.6088100721
0.6088102116
0.6088103998
0.6088108691
0.6088103989
0.6088102024
0.6088101011
0.6088100502
0.6088099792
0.6088099799
0.6088099834
0.6088099923
0.6088100009
0.6088100045
0.6088100055
0.6088100058
0.6088100059
0.6088100058
0.6088100056
0.608810005
0.6088100026
)
;
    }
    procBoundary2to1
    {
        type            processor;
        value           nonuniform List<scalar> 
33
(
0.6088099932
0.6088099932
0.608809993
0.608809993
0.6088099934
0.6088099967
0.6088099989
0.6088099989
0.6088099995
0.6088099998
0.6088099978
0.6088099969
0.6088099938
0.6088099895
0.6088099841
0.6088099838
0.6088099863
0.6088099889
0.6088099898
0.6088099954
0.6088100013
0.6088100014
0.6088100016
0.6088100019
0.6088100004
0.6088100005
0.6088100016
0.6088100016
0.6088100018
0.6088100052
0.608810009
0.6088100083
0.6088100012
)
;
    }
    procBoundary2to3
    {
        type            processor;
        value           nonuniform List<scalar> 
64
(
0.6088099996
0.6088099983
0.6088099994
0.6088099997
0.6088099996
0.608809999
0.6088099967
0.6088099815
0.6088098585
0.6088099974
0.6088099984
0.6088099979
0.6088099988
0.6088099984
0.6088099835
0.6088099803
0.608809981
0.6088099876
0.6088099915
0.6088099926
0.6088099923
0.6088100231
0.6088101199
0.6088102111
0.6088102111
0.6088101735
0.6088100637
0.6088100637
0.6088100276
0.6088100637
0.6088099993
0.6088099994
0.6088099993
0.6088099994
0.6088099993
0.6088099977
0.6088099984
0.6088099974
0.6088099969
0.6088099993
0.6088099987
0.608809976
0.6088099576
0.6088099332
0.6088098937
0.6088097631
0.6088099978
0.6088099991
0.608809999
0.6088099992
0.6088099983
0.6088099996
0.6088099997
0.6088099995
0.6088099986
0.6088099978
0.6088099907
0.6088099916
0.6088099592
0.6088098848
0.608809947
0.6088099158
0.6088098573
0.6088095376
)
;
    }
}


// ************************************************************************* //
