/*--------------------------------*- C++ -*----------------------------------*\
  =========                 |
  \\      /  F ield         | OpenFOAM: The Open Source CFD Toolbox
   \\    /   O peration     | Website:  https://openfoam.org
    \\  /    A nd           | Version:  8
     \\/     M anipulation  |
\*---------------------------------------------------------------------------*/
FoamFile
{
    version     2.0;
    format      ascii;
    class       volScalarField;
    location    "1.2/wallFilmRegion";
    object      mu;
}
// * * * * * * * * * * * * * * * * * * * * * * * * * * * * * * * * * * * * * //

dimensions      [1 -1 -1 0 0 0 0];

internalField   nonuniform List<scalar> 
1342
(
0.000886147485
0.0008861474547
0.0008861474452
0.0008861474329
0.0008861474063
0.000886146389
0.0008861438804
0.0008861401957
0.0008861242192
0.000886137213
0.0008861422673
0.000886144759
0.0008861459819
0.0008861477089
0.0008861477069
0.0008861476916
0.0008861476312
0.0008861475035
0.0008861473991
0.0008861473587
0.000886147348
0.0008861473458
0.0008861473457
0.0008861473473
0.000886147351
0.0008861473728
0.0008861474681
0.0008861474588
0.0008861474383
0.0008861474426
0.0008861474422
0.0008861474062
0.0008861437444
0.0008861195393
0.0008861273292
0.0008861344315
0.0008861408082
0.0008861439161
0.0008861453971
0.0008861462419
0.0008861476472
0.0008861476289
0.0008861475597
0.0008861474628
0.0008861473901
0.0008861473609
0.0008861473553
0.0008861473562
0.0008861473577
0.0008861473586
0.0008861473593
0.0008861473602
0.0008861473723
0.0008861474567
0.0008861474435
0.00088614744
0.0008861474335
0.0008861474365
0.0008861474322
0.0008861473923
0.0008861408263
0.0008861053216
0.0008860928563
0.0008861366996
0.0008861423304
0.0008861446964
0.0008861458047
0.0008861463981
0.0008861474748
0.0008861474629
0.0008861473909
0.000886147346
0.0008861473412
0.0008861473496
0.000886147358
0.0008861473637
0.0008861473668
0.0008861473682
0.0008861473683
0.0008861473674
0.0008861473721
0.0008861474358
0.0008861474346
0.0008861474344
0.0008861474343
0.000886147442
0.0008861474403
0.0008861474266
0.0008861467382
0.0008861409138
0.0008860933102
0.0008861378913
0.0008861460511
0.0008861467369
0.0008861469665
0.0008861470709
0.0008861472182
0.0008861472577
0.000886147275
0.0008861473007
0.0008861473285
0.0008861473491
0.000886147362
0.0008861473693
0.0008861473731
0.0008861473744
0.000886147374
0.0008861473721
0.0008861473718
0.000886147424
0.0008861474288
0.0008861474292
0.0008861474306
0.0008861474238
0.0008861469613
0.000886147457
0.0008861431135
0.0008861331771
0.0008861226712
0.0008861380855
0.0008861472752
0.0008861473535
0.000886147374
0.00088614738
0.0008861473806
0.0008861473768
0.000886147369
0.0008861473595
0.000886147355
0.0008861473596
0.0008861473673
0.0008861473732
0.0008861473765
0.0008861473774
0.0008861473766
0.0008861473739
0.0008861473716
0.0008861474076
0.0008861474148
0.000886147421
0.0008861474188
0.0008861474048
0.0008861473426
0.0008861450571
0.0008861436498
0.0008860967405
0.0008860942014
0.0008861133536
0.0008861390047
0.0008861467294
0.000886147205
0.0008861473264
0.0008861473662
0.0008861473789
0.0008861473813
0.000886147378
0.0008861473719
0.0008861473672
0.0008861473675
0.0008861473714
0.0008861473753
0.0008861473776
0.000886147378
0.000886147377
0.0008861473756
0.0008861473777
0.0008861474251
0.0008861474268
0.0008861474298
0.000886147424
0.0008861474101
0.0008861467455
0.0008861398776
0.0008861312249
0.0008860959034
0.0008860944172
0.0008861103308
0.0008861414227
0.0008861461749
0.0008861469903
0.0008861472249
0.0008861473161
0.0008861473534
0.0008861473693
0.0008861473744
0.0008861473742
0.0008861473731
0.0008861473736
0.0008861473755
0.0008861473774
0.0008861473781
0.0008861473775
0.0008861473759
0.0008861473742
0.0008861473776
0.0008861474482
0.000886147438
0.00088614744
0.0008861474282
0.0008861474143
0.0008861473437
0.0008861471723
0.0008861470666
0.0008861468115
0.0008861463317
0.0008861452851
0.0008861448306
0.0008861469509
0.0008861469876
0.0008861471766
0.0008861472946
0.000886147349
0.0008861473696
0.0008861473769
0.0008861473791
0.0008861473797
0.0008861473801
0.0008861473803
0.0008861473804
0.0008861473803
0.00088614738
0.0008861473792
0.0008861473781
0.0008861473788
0.0008861474667
0.000886147448
0.0008861474553
0.0008861474349
0.0008861474201
0.0008861474234
0.0008861473103
0.0008861472932
0.0008861472242
0.0008861470525
0.0008861467512
0.0008861463404
0.000886146966
0.0008861471554
0.0008861472549
0.0008861473154
0.0008861473522
0.0008861473712
0.0008861473795
0.0008861473829
0.0008861473837
0.0008861473836
0.0008861473839
0.0008861473845
0.0008861473853
0.0008861473853
0.0008861473848
0.0008861473838
0.0008861473812
0.0008861475165
0.0008861474634
0.0008861474773
0.0008861474486
0.0008861474174
0.0008861474104
0.0008861473238
0.0008861473326
0.0008861473213
0.0008861472661
0.0008861471232
0.0008861468221
0.0008861473678
0.0008861473067
0.0008861472997
0.0008861473299
0.000886147357
0.0008861473737
0.000886147382
0.0008861473857
0.0008861473859
0.000886147385
0.0008861473841
0.0008861473812
0.0008861473715
0.0008861473576
0.0008861473598
0.0008861473684
0.0008861473816
0.0008861475743
0.0008861474957
0.0008861475044
0.0008861474697
0.0008861474161
0.0008861474037
0.0008861473249
0.0008861474256
0.0008861475001
0.0008861477058
0.0008861476586
0.0008861470719
0.0008861473994
0.0008861473918
0.0008861473701
0.0008861473573
0.0008861473667
0.000886147379
0.0008861473861
0.0008861473894
0.0008861473887
0.0008861473871
0.0008861473849
0.0008861473796
0.0008861473649
0.0008861473323
0.0008861473157
0.0008861473403
0.0008861473813
0.0008861476263
0.0008861475239
0.0008861475153
0.0008861474679
0.0008861473814
0.0008861473802
0.0008861473113
0.0008861474454
0.0008861475069
0.0008861476997
0.0008861476636
0.0008861471664
0.0008861474027
0.0008861474018
0.0008861473924
0.0008861473809
0.0008861473812
0.0008861473884
0.0008861473935
0.0008861473953
0.0008861473931
0.0008861473901
0.0008861473863
0.0008861473783
0.0008861473596
0.0008861473203
0.0008861472908
0.0008861473317
0.0008861473811
0.0008861475737
0.0008861472732
0.0008861470274
0.000886146997
0.0008861470581
0.0008861472888
0.0008861475262
0.0008861473828
0.0008861474033
0.0008861474101
0.0008861476097
0.0008861472242
0.0008861474019
0.0008861474049
0.0008861474028
0.0008861473972
0.0008861473967
0.0008861474007
0.0008861474033
0.0008861474025
0.000886147398
0.0008861473928
0.0008861473859
0.0008861473721
0.0008861473435
0.000886147303
0.0008861472984
0.0008861473397
0.0008861473811
0.0008861475979
0.0008861470626
0.0008861468986
0.0008861467915
0.0008861469374
0.0008861471318
0.0008861474856
0.0008861474142
0.0008861474793
0.0008861474653
0.0008861475314
0.0008861473194
0.0008861473975
0.0008861474036
0.000886147408
0.0008861474092
0.0008861474107
0.0008861474126
0.0008861474122
0.0008861474076
0.0008861474004
0.0008861473922
0.0008861473799
0.0008861473556
0.0008861473167
0.0008861472885
0.0008861473082
0.000886147349
0.0008861473812
0.0008861476005
0.0008861471269
0.0008861468252
0.000886146583
0.000886146831
0.0008861469543
0.0008861474079
0.0008861474127
0.000886147414
0.0008861474137
0.0008861474265
0.0008861473915
0.0008861474061
0.0008861474072
0.0008861474087
0.0008861474111
0.0008861474145
0.0008861474179
0.0008861474179
0.0008861474103
0.0008861473991
0.0008861473854
0.0008861473624
0.0008861473231
0.0008861472863
0.0008861472838
0.000886147318
0.000886147357
0.0008861473811
0.0008861475916
0.0008861471106
0.0008861467325
0.0008861462268
0.0008861466789
0.0008861466711
0.0008861473626
0.0008861474009
0.0008861473626
0.0008861474089
0.0008861474142
0.0008861473983
0.0008861474068
0.0008861474077
0.0008861474092
0.000886147412
0.0008861474158
0.0008861474197
0.0008861474197
0.0008861474097
0.0008861473928
0.0008861473683
0.0008861473283
0.000886147282
0.0008861472677
0.0008861472873
0.0008861473265
0.0008861473637
0.000886147381
0.000886146864
0.0008861470115
0.0008861465353
0.0008861459667
0.0008861462731
0.0008861460469
0.0008861473054
0.0008861473057
0.0008861467618
0.0008861463428
0.0008861474165
0.0008861473927
0.0008861474063
0.0008861474077
0.0008861474099
0.0008861474133
0.0008861474175
0.000886147421
0.0008861474192
0.0008861474048
0.0008861473792
0.0008861473389
0.0008861472856
0.0008861472526
0.0008861472635
0.0008861472939
0.000886147334
0.0008861473694
0.0008861473809
0.0008861473842
0.0008861473813
0.0008861473743
0.0008861473639
0.0008861473478
0.000886147296
0.0008861472035
0.000886147226
0.0008861473721
0.0008861472028
0.0008861474133
0.0008861474052
0.0008861474074
0.0008861474088
0.0008861474113
0.000886147415
0.0008861474188
0.0008861474206
0.0008861474148
0.0008861473934
0.0008861473557
0.0008861473012
0.0008861472502
0.000886147239
0.0008861472653
0.0008861473004
0.0008861473417
0.0008861473741
0.000886147381
0.00088614739
0.0008861473866
0.0008861473794
0.0008861473663
0.0008861471556
0.0008861472409
0.0008861473736
0.0008861473577
0.0008861473975
0.0008861473841
0.0008861473818
0.0008861474147
0.0008861474112
0.0008861474124
0.0008861474148
0.0008861474174
0.0008861474189
0.0008861474165
0.0008861474038
0.0008861473736
0.0008861473266
0.0008861472709
0.0008861472347
0.0008861472511
0.0008861472871
0.000886147319
0.0008861473538
0.0008861473781
0.0008861473816
0.0008861473888
0.0008861473869
0.0008861473808
0.0008861473661
0.0008861470632
0.0008861470508
0.0008861471416
0.0008861473578
0.0008861473972
0.0008861473922
0.0008861473776
0.000886147405
0.0008861474153
0.0008861474175
0.0008861474191
0.0008861474191
0.0008861474157
0.0008861474062
0.000886147386
0.0008861473528
0.0008861473106
0.000886147264
0.0008861473436
0.0008861473699
0.0008861473731
0.0008861473724
0.0008861473779
0.0008861473857
0.0008861473839
0.0008861473853
0.0008861473847
0.0008861473819
0.0008861473702
0.0008861473579
0.0008861473349
0.0008861472992
0.0008861473383
0.000886147389
0.0008861473926
0.0008861473828
0.0008861473925
0.0008861474176
0.0008861474232
0.000886147427
0.0008861474261
0.0008861474186
0.0008861474038
0.0008861473816
0.000886147353
0.0008861473142
0.0008861473667
0.0008861473749
0.000886147376
0.0008861473764
0.0008861473778
0.0008861473827
0.0008861473867
0.000886147386
0.0008861474014
0.0008861473956
0.000886147388
0.0008861473793
0.0008861473685
0.0008861473475
0.0008861473068
0.0008861472879
0.0008861473728
0.0008861473866
0.0008861473815
0.0008861473846
0.0008861474134
0.0008861474248
0.0008861474348
0.0008861474367
0.0008861474294
0.0008861474142
0.0008861473924
0.000886147362
0.0008861473637
0.0008861473778
0.0008861473697
0.00088614737
0.0008861473717
0.000886147374
0.0008861473755
0.0008861473843
0.000886147387
0.0008861473964
0.0008861473961
0.0008861474044
0.0008861474007
0.0008861473834
0.0008861473843
0.0008861473829
0.0008861473766
0.0008861474045
0.0008861474047
0.0008861474016
0.0008861473985
0.0008861474027
0.0008861474143
0.0008861474332
0.0008861474406
0.0008861474354
0.0008861474205
0.0008861473982
0.0008861473634
0.0008861473696
0.0008861473741
0.0008861473698
0.0008861473726
0.0008861473749
0.000886147377
0.0008861473799
0.0008861473868
0.0008861473888
0.0008861473856
0.0008861473847
0.0008861473946
0.000886147392
0.0008861473755
0.0008861473887
0.0008861473932
0.0008861473927
0.0008861474064
0.0008861474063
0.0008861474045
0.0008861474017
0.0008861473992
0.0008861474038
0.0008861474199
0.0008861474299
0.0008861474274
0.0008861474138
0.0008861473913
0.0008861473496
0.0008861473707
0.0008861473723
0.0008861473717
0.0008861473746
0.0008861473765
0.0008861473782
0.0008861473811
0.0008861473911
0.0008861473917
0.0008861473881
0.0008861473841
0.0008861473796
0.0008861473737
0.0008861473658
0.0008861473796
0.0008861473901
0.0008861473921
0.0008861474066
0.0008861474022
0.0008861473998
0.0008861473976
0.000886147395
0.0008861473955
0.0008861474052
0.0008861474133
0.0008861474101
0.0008861473961
0.0008861473704
0.0008861473525
0.0008861473737
0.0008861473705
0.000886147373
0.0008861473756
0.0008861473771
0.0008861473783
0.0008861473808
0.0008861473908
0.0008861473941
0.0008861473864
0.0008861473857
0.0008861473828
0.0008861473743
0.0008861473857
0.0008861473749
0.000886147376
0.0008861473827
0.0008861474052
0.0008861474009
0.0008861474075
0.000886147395
0.0008861473893
0.0008861473874
0.0008861473915
0.0008861473942
0.0008861473869
0.0008861473699
0.0008861473404
0.0008861473596
0.0008861473747
0.000886147369
0.0008861473733
0.0008861473767
0.0008861473782
0.0008861473785
0.0008861473786
0.0008861473825
0.0008861473923
0.0008861473605
0.0008861473695
0.0008861473762
0.0008861473778
0.0008861473919
0.0008861473857
0.0008861473867
0.00088614739
0.0008861474037
0.0008861474019
0.0008861474024
0.0008861473943
0.0008861473887
0.0008861473836
0.0008861473774
0.0008861473977
0.000886147422
0.000886147432
0.0008861474076
0.0008861473644
0.000886147376
0.0008861473676
0.0008861473652
0.0008861473794
0.000886147381
0.0008861473805
0.0008861473786
0.0008861473785
0.0008861473853
0.0008861473146
0.0008861473377
0.0008861473548
0.00088614737
0.0008861473979
0.0008861473934
0.0008861473909
0.0008861473954
0.0008861474021
0.000886147403
0.0008861474011
0.0008861474147
0.0008861473891
0.0008861473746
0.0008861473647
0.0008861474003
0.0008861474017
0.0008861473974
0.0008861473812
0.0008861473535
0.0008861473765
0.0008861473769
0.0008861473847
0.0008861473887
0.0008861473896
0.0008861473844
0.0008861473809
0.0008861473784
0.0008861473774
0.0008861473126
0.0008861473445
0.0008861473554
0.0008861473505
0.0008861473993
0.0008861473973
0.0008861473887
0.0008861473938
0.0008861474002
0.0008861474039
0.000886147401
0.0008861474017
0.0008861473864
0.0008861474242
0.0008861474447
0.0008861474458
0.0008861474097
0.0008861473653
0.0008861473185
0.0008861473189
0.0008861473734
0.0008861473814
0.0008861473914
0.0008861473963
0.0008861473989
0.0008861473987
0.0008861473886
0.000886147386
0.0008861473826
0.0008861473878
0.0008861473902
0.0008861473968
0.0008861474023
0.0008861474072
0.000886147406
0.0008861474036
0.0008861474011
0.0008861473983
0.0008861473984
0.0008861473958
0.0008861473924
0.0008861473903
0.0008861473911
0.0008861473905
0.0008861473944
0.000886147396
0.0008861473908
0.0008861473872
0.0008861473843
0.0008861473873
0.0008861473929
0.000886147397
0.0008861473996
0.0008861474011
0.0008861474014
0.0008861473999
0.0008861473965
0.0008861473899
0.0008861475993
0.0008861474185
0.0008861474205
0.0008861474604
0.0008861474258
0.0008861476176
0.0008861474382
0.0008861474178
0.0008861474308
0.0008861475395
0.0008861474892
0.0008861474328
0.0008861474222
0.0008861476593
0.0008861476831
0.0008861474969
0.0008861474191
0.0008861478322
0.0008861482705
0.0008861478107
0.0008861477077
0.0008861492956
0.0008861516473
0.0008861499784
0.0008861476632
0.0008861475127
0.0008861475224
0.0008861477932
0.0008861475671
0.0008861476437
0.0008861478266
0.0008861478626
0.0008861481227
0.000886147822
0.0008861483007
0.0008861492588
0.0008861476236
0.0008861494748
0.0008861495781
0.000886147599
0.0008861496871
0.0008861498385
0.0008861475949
0.0008861500315
0.0008861483994
0.0008861475985
0.0008861478063
0.0008861475606
0.0008861476035
0.0008861474503
0.0008861474268
0.0008861475929
0.0008861474189
0.0008861474751
0.0008861475127
0.0008861475077
0.0008861475021
0.0008861474178
0.0008861474166
0.0008861474167
0.0008861474913
0.0008861474656
0.0008861474211
0.0008861474159
0.0008861474342
0.0008861474308
0.0008861474248
0.000886147422
0.0008861474163
0.0008861474176
0.000886147417
0.000886147419
0.0008861474275
0.0008861474163
0.0008861474163
0.0008861474207
0.0008861474293
0.0008861474285
0.000886147418
0.0008861474224
0.0008861474379
0.0008861475264
0.0008861476212
0.0008861477578
0.0008861477625
0.0008861474618
0.0008861474649
0.0008861474537
0.0008861474513
0.0008861474484
0.0008861474435
0.0008861477909
0.0008861478205
0.0008861478066
0.0008861474364
0.000886147781
0.000886147752
0.0008861478079
0.0008861478153
0.0008861477515
0.0008861477523
0.0008861477361
0.0008861477155
0.000886147549
0.0008861475491
0.0008861475357
0.0008861475905
0.0008861475336
0.0008861475298
0.000886147557
0.0008861475715
0.0008861475563
0.000886147522
0.0008861475489
0.0008861475375
0.000886147562
0.0008861475815
0.0008861475674
0.0008861475545
0.0008861470944
0.000886143746
0.0008861475715
0.0008861475886
0.0008861475737
0.000886146838
0.0008861475725
0.0008861475925
0.0008861475573
0.0008861471204
0.0008861474278
0.0008861474599
0.0008861474348
0.0008861474235
0.0008861474296
0.0008861474257
0.0008861474213
0.000886147423
0.0008861474213
0.0008861474201
0.000886147585
0.0008861475058
0.0008861475356
0.0008861479446
0.0008861476326
0.0008861477808
0.0008861491695
0.0008861479274
0.0008861490064
0.0008861493534
0.0008861491578
0.0008861491049
0.0008861495943
0.0008861491715
0.0008861493272
0.0008861480742
0.0008861495095
0.0008861478464
0.0008861474873
0.0008861475504
0.0008861474515
0.0008861474218
0.0008861474261
0.0008861474195
0.0008861474484
0.0008861474324
0.000886147423
0.0008861474387
0.000886147427
0.0008861474225
0.0008861474847
0.0008861474447
0.0008861474498
0.0008861476415
0.0008861474797
0.0008861475457
0.0008861488973
0.0008861476452
0.0008861487457
0.0008861488943
0.000886148862
0.0008861487117
0.0008861490781
0.0008861487769
0.0008861488369
0.0008861476184
0.0008861488494
0.0008861475012
0.000886147431
0.000886147438
0.000886147423
0.0008861474175
0.0008861474182
0.0008861474164
0.0008861475087
0.0008861474277
0.0008861475267
0.0008861475406
0.0008861475771
0.000886147611
0.0008861474493
0.0008861474844
0.0008861474252
0.0008861474467
0.0008861485081
0.0008861474651
0.0008861482571
0.0008861485596
0.0008861484427
0.0008861484493
0.0008861485215
0.0008861485599
0.0008861480414
0.0008861474582
0.0008861479283
0.0008861474429
0.0008861474197
0.0008861474232
0.0008861474188
0.0008861474196
0.000886147623
0.0008861478393
0.0008861477406
0.0008861480785
0.0008861475646
0.0008861479354
0.0008861482807
0.0008861474166
0.0008861488698
0.000886148484
0.0008861492667
0.0008861490876
0.0008861476564
0.0008861488888
0.0008861475001
0.0008861474386
0.0008861475319
0.0008861474476
0.0008861477524
0.0008861475138
0.0008861475901
0.0008861476352
0.0008861474453
0.0008861474264
0.0008861474437
0.0008861474262
0.000886147442
0.0008861474285
0.0008861477445
0.0008861476956
0.0008861474758
0.0008861474565
0.0008861478167
0.0008861478002
0.000886147765
0.0008861478253
0.0008861478193
0.0008861477811
0.0008861476293
0.0008861475589
0.0008861475644
0.0008861476039
0.000886147563
0.0008861475349
0.0008861475965
0.0008861475771
0.0008861475589
0.0008861475958
0.0008861475853
0.0008861469998
0.0008861476018
0.0008861475909
0.0008861475185
0.0008861475911
0.0008861474477
0.0008861475171
0.0008861474708
0.0008861474253
0.0008861474222
0.0008861475356
0.0008861477418
0.0008861481061
0.0008861493468
0.0008861494348
0.0008861497884
0.0008861476498
0.0008861474331
0.0008861474173
0.0008861474537
0.0008861474478
0.0008861474404
0.0008861474587
0.0008861474265
0.0008861474342
0.0008861474206
0.0008861474721
0.0008861475412
0.0008861477768
0.0008861490148
0.0008861489511
0.0008861492119
0.0008861474692
0.0008861474209
0.0008861474163
0.0008861474307
0.0008861474433
0.0008861475393
0.0008861486689
0.0008861486439
0.0008861483717
0.0008861474272
0.0008861474172
0.0008861474158
0.0008861474301
0.000886147431
0.0008861479771
0.000886147647
0.000886147807
0.0008861474478
0.0008861474178
0.0008861474268
0.0008861484288
0.0008861487295
0.000886147654
0.0008861474231
0.00088614742
0.0008861475803
0.0008861483716
0.0008861498193
0.0008861474166
0.0008861474208
0.0008861474222
0.0008861480443
0.0008861488994
0.0008861479151
0.0008861482362
0.0008861474197
0.0008861476066
0.0008861483083
0.000886149505
0.0008861486504
0.0008861474273
0.0008861477585
0.0008861485912
0.0008861503174
0.0008861492757
0.0008861474673
0.0008861479892
0.0008861452126
0.0008861517693
0.0008861511831
0.0008861474474
0.0008861474758
0.0008861476257
0.0008861474631
0.0008861474719
0.0008861474254
0.0008861474447
0.000886147426
0.0008861474566
0.0008861474531
0.0008861474242
0.0008861474233
0.0008861474427
0.0008861474268
0.0008861474496
0.0008861474463
0.0008861474227
0.0008861474222
0.0008861474434
0.0008861474221
0.0008861474578
0.000886147596
0.0008861474312
0.0008861474224
0.0008861474524
0.0008861474515
0.0008861474256
0.0008861474344
0.0008861474885
0.0008861474216
0.0008861475522
0.0008861475216
0.000886147474
0.000886147425
0.0008861474178
0.0008861474156
0.0008861474653
0.0008861474459
0.0008861474325
0.000886147703
0.00088614763
0.0008861477481
0.0008861475815
0.0008861477175
0.0008861474612
0.0008861474227
0.0008861474313
0.0008861474216
0.0008861475298
0.0008861474707
0.0008861474439
0.0008861475693
0.0008861475236
0.0008861479483
0.0008861482389
0.0008861480923
0.0008861488647
0.0008861486007
0.0008861479977
0.0008861474753
0.000886147692
0.000886147859
0.000886148532
0.0008861474987
0.0008861475639
0.0008861477411
0.0008861476135
0.0008861476999
0.0008861483192
0.0008861478885
0.000886148445
0.0008861480043
0.0008861484409
0.000886148141
0.0008861492032
0.0008861476628
0.0008861489857
0.0008861516853
0.0008861486848
0.0008861491267
0.0008861504062
0.0008861513461
0.0008861512332
0.0008861502952
0.0008861483711
0.0008861495678
0.0008861485286
0.0008861496314
0.0008861489542
0.0008861479302
0.0008861475451
0.0008861480871
0.0008861487861
0.0008861481542
0.0008861490104
0.0008861485344
0.0008861491682
0.0008861487581
0.0008861484195
0.0008861482481
0.0008861476694
0.0008861484605
0.0008861493204
0.0008861484852
0.0008861496963
0.0008861490355
0.0008861498991
0.0008861493667
0.0008861489325
0.0008861486917
0.0008861478811
0.0008861487964
0.0008861501024
0.000886148268
0.0008861506531
0.0008861497502
0.0008861508184
0.0008861503016
0.000886149816
0.0008861475683
0.0008861482061
0.0008861522028
0.0008861526334
0.0008861513703
0.0008861578055
0.0008861515738
0.0008861573448
0.0008861563194
0.0008861507303
0.0008861550811
)
;

boundaryField
{
    walls
    {
        type            zeroGradient;
    }
    wallFilmFace_top
    {
        type            zeroGradient;
    }
    region0_to_wallFilmRegion_wallFilmFace
    {
        type            zeroGradient;
    }
    mirrorFace_top
    {
        type            zeroGradient;
    }
    region0_to_wallFilmRegion_mirrorFace
    {
        type            zeroGradient;
    }
    procBoundary2to0
    {
        type            processor;
        value           nonuniform List<scalar> 
26
(
0.0008861475278
0.0008861474853
0.0008861474589
0.0008861474297
0.0008861473514
0.000886146404
0.000886144456
0.0008861418293
0.0008861352777
0.0008861418416
0.000886144585
0.0008861459993
0.0008861467096
0.0008861477008
0.0008861476913
0.000886147642
0.0008861475175
0.0008861473983
0.0008861473477
0.0008861473337
0.0008861473299
0.0008861473287
0.0008861473291
0.0008861473327
0.0008861473411
0.0008861473736
)
;
    }
    procBoundary2to1
    {
        type            processor;
        value           nonuniform List<scalar> 
33
(
0.0008861475058
0.0008861475058
0.0008861475076
0.0008861475076
0.0008861475018
0.000886147456
0.0008861474261
0.0008861474261
0.0008861474178
0.0008861474127
0.0008861474405
0.0008861474539
0.0008861474975
0.000886147557
0.0008861476325
0.0008861476369
0.0008861476015
0.0008861475652
0.0008861475523
0.0008861474748
0.0008861473927
0.0008861473909
0.0008861473877
0.0008861473832
0.000886147405
0.0008861474029
0.0008861473883
0.0008861473887
0.0008861473856
0.0008861473376
0.000886147285
0.000886147294
0.0008861473934
)
;
    }
    procBoundary2to3
    {
        type            processor;
        value           nonuniform List<scalar> 
64
(
0.0008861474158
0.0008861474341
0.0008861474188
0.0008861474146
0.0008861474158
0.0008861474243
0.000886147457
0.000886147668
0.0008861493863
0.0008861474465
0.0008861474324
0.0008861474391
0.0008861474266
0.0008861474324
0.000886147641
0.0008861476852
0.0008861476753
0.0008861475838
0.0008861475291
0.0008861475138
0.0008861475177
0.0008861470875
0.000886145737
0.0008861444627
0.0008861444627
0.0008861449884
0.0008861465216
0.0008861465216
0.000886147025
0.0008861465216
0.0008861474206
0.0008861474194
0.0008861474206
0.0008861474193
0.00088614742
0.0008861474425
0.0008861474328
0.0008861474465
0.0008861474543
0.0008861474206
0.0008861474285
0.0008861477452
0.000886148002
0.0008861483431
0.0008861488942
0.0008861507178
0.0008861474414
0.0008861474226
0.0008861474239
0.0008861474221
0.0008861474341
0.0008861474156
0.0008861474147
0.0008861474177
0.0008861474298
0.0008861474406
0.0008861475405
0.0008861475273
0.0008861479801
0.0008861490192
0.0008861481504
0.0008861485862
0.0008861494022
0.0008861538651
)
;
    }
}


// ************************************************************************* //
