/*--------------------------------*- C++ -*----------------------------------*\
  =========                 |
  \\      /  F ield         | OpenFOAM: The Open Source CFD Toolbox
   \\    /   O peration     | Website:  https://openfoam.org
    \\  /    A nd           | Version:  8
     \\/     M anipulation  |
\*---------------------------------------------------------------------------*/
FoamFile
{
    version     2.0;
    format      ascii;
    class       volScalarField;
    location    "1.2/wallFilmRegion";
    object      rho;
}
// * * * * * * * * * * * * * * * * * * * * * * * * * * * * * * * * * * * * * //

dimensions      [1 -3 0 0 0 0 0];

internalField   nonuniform List<scalar> 
1342
(
994.5114694
994.511469
994.5114689
994.5114687
994.5114684
994.5114545
994.5114203
994.5113702
994.5111526
994.5113295
994.5113984
994.5114323
994.511449
994.5114725
994.5114725
994.5114723
994.5114714
994.5114697
994.5114683
994.5114677
994.5114676
994.5114675
994.5114675
994.5114676
994.5114676
994.5114679
994.5114692
994.5114691
994.5114688
994.5114689
994.5114689
994.5114684
994.5114185
994.5110888
994.5111949
994.5112917
994.5113785
994.5114208
994.511441
994.5114525
994.5114716
994.5114714
994.5114705
994.5114691
994.5114681
994.5114677
994.5114677
994.5114677
994.5114677
994.5114677
994.5114677
994.5114677
994.5114679
994.5114691
994.5114689
994.5114688
994.5114687
994.5114688
994.5114687
994.5114682
994.5113788
994.5108952
994.5107254
994.5113226
994.5113992
994.5114315
994.5114466
994.5114546
994.5114693
994.5114691
994.5114682
994.5114675
994.5114675
994.5114676
994.5114677
994.5114678
994.5114678
994.5114678
994.5114678
994.5114678
994.5114679
994.5114688
994.5114688
994.5114687
994.5114687
994.5114689
994.5114688
994.5114686
994.5114593
994.5113799
994.5107316
994.5113388
994.5114499
994.5114592
994.5114624
994.5114638
994.5114658
994.5114663
994.5114666
994.5114669
994.5114673
994.5114676
994.5114678
994.5114679
994.5114679
994.5114679
994.5114679
994.5114679
994.5114679
994.5114686
994.5114687
994.5114687
994.5114687
994.5114686
994.5114623
994.5114691
994.5114099
994.5112746
994.5111315
994.5113414
994.5114666
994.5114676
994.5114679
994.511468
994.511468
994.511468
994.5114679
994.5114677
994.5114677
994.5114677
994.5114678
994.5114679
994.511468
994.511468
994.511468
994.5114679
994.5114679
994.5114684
994.5114685
994.5114686
994.5114685
994.5114683
994.5114675
994.5114364
994.5114172
994.5107783
994.5107437
994.5110046
994.5113539
994.5114591
994.5114656
994.5114673
994.5114678
994.511468
994.511468
994.511468
994.5114679
994.5114678
994.5114678
994.5114679
994.5114679
994.511468
994.511468
994.511468
994.5114679
994.511468
994.5114686
994.5114686
994.5114687
994.5114686
994.5114684
994.5114594
994.5113658
994.511248
994.5107669
994.5107467
994.5109634
994.5113869
994.5114516
994.5114627
994.5114659
994.5114671
994.5114676
994.5114679
994.5114679
994.5114679
994.5114679
994.5114679
994.5114679
994.511468
994.511468
994.511468
994.511468
994.5114679
994.511468
994.5114689
994.5114688
994.5114688
994.5114687
994.5114685
994.5114675
994.5114652
994.5114637
994.5114603
994.5114537
994.5114395
994.5114333
994.5114622
994.5114627
994.5114652
994.5114668
994.5114676
994.5114679
994.511468
994.511468
994.511468
994.511468
994.511468
994.511468
994.511468
994.511468
994.511468
994.511468
994.511468
994.5114692
994.5114689
994.511469
994.5114688
994.5114686
994.5114686
994.5114671
994.5114668
994.5114659
994.5114635
994.5114594
994.5114539
994.5114624
994.5114649
994.5114663
994.5114671
994.5114676
994.5114679
994.511468
994.511468
994.5114681
994.5114681
994.5114681
994.5114681
994.5114681
994.5114681
994.5114681
994.5114681
994.511468
994.5114699
994.5114691
994.5114693
994.5114689
994.5114685
994.5114684
994.5114672
994.5114674
994.5114672
994.5114665
994.5114645
994.5114604
994.5114678
994.511467
994.5114669
994.5114673
994.5114677
994.5114679
994.511468
994.5114681
994.5114681
994.5114681
994.5114681
994.511468
994.5114679
994.5114677
994.5114677
994.5114679
994.511468
994.5114707
994.5114696
994.5114697
994.5114692
994.5114685
994.5114683
994.5114673
994.5114686
994.5114696
994.5114724
994.5114718
994.5114638
994.5114683
994.5114682
994.5114679
994.5114677
994.5114678
994.511468
994.5114681
994.5114681
994.5114681
994.5114681
994.5114681
994.511468
994.5114678
994.5114674
994.5114671
994.5114675
994.511468
994.5114714
994.51147
994.5114699
994.5114692
994.511468
994.511468
994.5114671
994.5114689
994.5114697
994.5114724
994.5114719
994.5114651
994.5114683
994.5114683
994.5114682
994.511468
994.511468
994.5114681
994.5114682
994.5114682
994.5114682
994.5114681
994.5114681
994.511468
994.5114677
994.5114672
994.5114668
994.5114674
994.511468
994.5114706
994.5114666
994.5114632
994.5114628
994.5114636
994.5114668
994.51147
994.511468
994.5114683
994.5114684
994.5114711
994.5114659
994.5114683
994.5114683
994.5114683
994.5114682
994.5114682
994.5114683
994.5114683
994.5114683
994.5114683
994.5114682
994.5114681
994.5114679
994.5114675
994.511467
994.5114669
994.5114675
994.511468
994.511471
994.5114637
994.5114615
994.51146
994.511462
994.5114646
994.5114694
994.5114685
994.5114694
994.5114692
994.5114701
994.5114672
994.5114682
994.5114683
994.5114684
994.5114684
994.5114684
994.5114685
994.5114684
994.5114684
994.5114683
994.5114682
994.511468
994.5114677
994.5114671
994.5114668
994.511467
994.5114676
994.511468
994.511471
994.5114646
994.5114605
994.5114572
994.5114605
994.5114622
994.5114684
994.5114685
994.5114685
994.5114685
994.5114686
994.5114682
994.5114684
994.5114684
994.5114684
994.5114684
994.5114685
994.5114685
994.5114685
994.5114684
994.5114683
994.5114681
994.5114678
994.5114672
994.5114667
994.5114667
994.5114672
994.5114677
994.511468
994.5114709
994.5114643
994.5114592
994.5114523
994.5114585
994.5114584
994.5114678
994.5114683
994.5114678
994.5114684
994.5114685
994.5114683
994.5114684
994.5114684
994.5114684
994.5114684
994.5114685
994.5114685
994.5114685
994.5114684
994.5114682
994.5114678
994.5114673
994.5114667
994.5114665
994.5114667
994.5114673
994.5114678
994.511468
994.511461
994.511463
994.5114565
994.5114488
994.5114529
994.5114499
994.511467
994.511467
994.5114596
994.5114539
994.5114685
994.5114682
994.5114684
994.5114684
994.5114684
994.5114685
994.5114685
994.5114686
994.5114685
994.5114683
994.511468
994.5114674
994.5114667
994.5114663
994.5114664
994.5114668
994.5114674
994.5114679
994.511468
994.5114681
994.511468
994.5114679
994.5114678
994.5114676
994.5114669
994.5114656
994.5114659
994.5114679
994.5114656
994.5114685
994.5114684
994.5114684
994.5114684
994.5114684
994.5114685
994.5114685
994.5114686
994.5114685
994.5114682
994.5114677
994.5114669
994.5114662
994.5114661
994.5114664
994.5114669
994.5114675
994.5114679
994.511468
994.5114681
994.5114681
994.511468
994.5114678
994.511465
994.5114661
994.5114679
994.5114677
994.5114682
994.5114681
994.511468
994.5114685
994.5114684
994.5114684
994.5114685
994.5114685
994.5114685
994.5114685
994.5114683
994.5114679
994.5114673
994.5114665
994.511466
994.5114663
994.5114667
994.5114672
994.5114677
994.511468
994.511468
994.5114681
994.5114681
994.511468
994.5114678
994.5114637
994.5114635
994.5114648
994.5114677
994.5114682
994.5114682
994.511468
994.5114683
994.5114685
994.5114685
994.5114685
994.5114685
994.5114685
994.5114684
994.5114681
994.5114676
994.5114671
994.5114664
994.5114675
994.5114679
994.5114679
994.5114679
994.511468
994.5114681
994.5114681
994.5114681
994.5114681
994.511468
994.5114679
994.5114677
994.5114674
994.5114669
994.5114674
994.5114681
994.5114682
994.511468
994.5114682
994.5114685
994.5114686
994.5114686
994.5114686
994.5114685
994.5114683
994.511468
994.5114676
994.5114671
994.5114678
994.5114679
994.511468
994.511468
994.511468
994.511468
994.5114681
994.5114681
994.5114683
994.5114682
994.5114681
994.511468
994.5114679
994.5114676
994.511467
994.5114668
994.5114679
994.5114681
994.511468
994.5114681
994.5114685
994.5114686
994.5114688
994.5114688
994.5114687
994.5114685
994.5114682
994.5114678
994.5114678
994.511468
994.5114679
994.5114679
994.5114679
994.5114679
994.5114679
994.5114681
994.5114681
994.5114682
994.5114682
994.5114683
994.5114683
994.5114681
994.5114681
994.511468
994.511468
994.5114683
994.5114683
994.5114683
994.5114683
994.5114683
994.5114685
994.5114687
994.5114688
994.5114688
994.5114686
994.5114683
994.5114678
994.5114679
994.5114679
994.5114679
994.5114679
994.5114679
994.511468
994.511468
994.5114681
994.5114681
994.5114681
994.5114681
994.5114682
994.5114682
994.5114679
994.5114681
994.5114682
994.5114682
994.5114684
994.5114684
994.5114683
994.5114683
994.5114683
994.5114683
994.5114686
994.5114687
994.5114687
994.5114685
994.5114682
994.5114676
994.5114679
994.5114679
994.5114679
994.5114679
994.511468
994.511468
994.511468
994.5114682
994.5114682
994.5114681
994.5114681
994.511468
994.5114679
994.5114678
994.511468
994.5114681
994.5114682
994.5114684
994.5114683
994.5114683
994.5114682
994.5114682
994.5114682
994.5114684
994.5114685
994.5114684
994.5114682
994.5114679
994.5114676
994.5114679
994.5114679
994.5114679
994.5114679
994.511468
994.511468
994.511468
994.5114682
994.5114682
994.5114681
994.5114681
994.511468
994.5114679
994.5114681
994.5114679
994.511468
994.511468
994.5114684
994.5114683
994.5114684
994.5114682
994.5114681
994.5114681
994.5114682
994.5114682
994.5114681
994.5114679
994.5114675
994.5114677
994.5114679
994.5114679
994.5114679
994.511468
994.511468
994.511468
994.511468
994.511468
994.5114682
994.5114677
994.5114679
994.511468
994.511468
994.5114682
994.5114681
994.5114681
994.5114681
994.5114683
994.5114683
994.5114683
994.5114682
994.5114681
994.5114681
994.511468
994.5114682
994.5114686
994.5114687
994.5114684
994.5114678
994.511468
994.5114678
994.5114678
994.511468
994.511468
994.511468
994.511468
994.511468
994.5114681
994.5114671
994.5114674
994.5114677
994.5114679
994.5114683
994.5114682
994.5114682
994.5114682
994.5114683
994.5114683
994.5114683
994.5114685
994.5114681
994.5114679
994.5114678
994.5114683
994.5114683
994.5114682
994.511468
994.5114676
994.511468
994.511468
994.5114681
994.5114681
994.5114681
994.5114681
994.511468
994.511468
994.511468
994.5114671
994.5114675
994.5114677
994.5114676
994.5114683
994.5114682
994.5114681
994.5114682
994.5114683
994.5114683
994.5114683
994.5114683
994.5114681
994.5114686
994.5114689
994.5114689
994.5114684
994.5114678
994.5114672
994.5114672
994.5114679
994.511468
994.5114682
994.5114682
994.5114683
994.5114683
994.5114681
994.5114681
994.511468
994.5114681
994.5114681
994.5114682
994.5114683
994.5114684
994.5114684
994.5114683
994.5114683
994.5114683
994.5114683
994.5114682
994.5114682
994.5114681
994.5114682
994.5114682
994.5114682
994.5114682
994.5114682
994.5114681
994.5114681
994.5114681
994.5114682
994.5114682
994.5114683
994.5114683
994.5114683
994.5114683
994.5114682
994.5114681
994.511471
994.5114685
994.5114686
994.5114691
994.5114686
994.5114712
994.5114688
994.5114685
994.5114687
994.5114702
994.5114695
994.5114687
994.5114686
994.5114718
994.5114721
994.5114696
994.5114685
994.5114742
994.5114801
994.5114739
994.5114725
994.5114941
994.5115261
994.5115034
994.5114719
994.5114698
994.5114699
994.5114736
994.5114706
994.5114716
994.5114741
994.5114746
994.5114781
994.511474
994.5114805
994.5114936
994.5114713
994.5114965
994.5114979
994.511471
994.5114994
994.5115015
994.5114709
994.5115041
994.5114819
994.511471
994.5114738
994.5114705
994.5114711
994.511469
994.5114686
994.5114709
994.5114685
994.5114693
994.5114698
994.5114697
994.5114697
994.5114685
994.5114685
994.5114685
994.5114695
994.5114692
994.5114686
994.5114685
994.5114687
994.5114687
994.5114686
994.5114686
994.5114685
994.5114685
994.5114685
994.5114685
994.5114687
994.5114685
994.5114685
994.5114686
994.5114687
994.5114687
994.5114685
994.5114686
994.5114688
994.51147
994.5114713
994.5114732
994.5114732
994.5114691
994.5114692
994.511469
994.511469
994.5114689
994.5114689
994.5114736
994.511474
994.5114738
994.5114688
994.5114735
994.5114731
994.5114738
994.5114739
994.5114731
994.5114731
994.5114729
994.5114726
994.5114703
994.5114703
994.5114701
994.5114709
994.5114701
994.51147
994.5114704
994.5114706
994.5114704
994.5114699
994.5114703
994.5114702
994.5114705
994.5114708
994.5114706
994.5114704
994.5114641
994.5114185
994.5114706
994.5114708
994.5114706
994.5114606
994.5114706
994.5114709
994.5114704
994.5114645
994.5114687
994.5114691
994.5114688
994.5114686
994.5114687
994.5114686
994.5114686
994.5114686
994.5114686
994.5114686
994.5114708
994.5114697
994.5114701
994.5114757
994.5114714
994.5114735
994.5114924
994.5114755
994.5114902
994.5114949
994.5114922
994.5114915
994.5114982
994.5114924
994.5114945
994.5114775
994.511497
994.5114744
994.5114695
994.5114703
994.511469
994.5114686
994.5114686
994.5114685
994.5114689
994.5114687
994.5114686
994.5114688
994.5114686
994.5114686
994.5114694
994.5114689
994.511469
994.5114716
994.5114694
994.5114703
994.5114887
994.5114716
994.5114866
994.5114886
994.5114882
994.5114861
994.5114911
994.511487
994.5114878
994.5114713
994.511488
994.5114697
994.5114687
994.5114688
994.5114686
994.5114685
994.5114685
994.5114685
994.5114698
994.5114687
994.51147
994.5114702
994.5114707
994.5114712
994.511469
994.5114694
994.5114686
994.5114689
994.5114834
994.5114692
994.51148
994.5114841
994.5114825
994.5114826
994.5114836
994.5114841
994.511477
994.5114691
994.5114755
994.5114689
994.5114685
994.5114686
994.5114685
994.5114685
994.5114713
994.5114743
994.5114729
994.5114775
994.5114705
994.5114756
994.5114803
994.5114685
994.5114883
994.511483
994.5114937
994.5114913
994.5114718
994.5114886
994.5114696
994.5114688
994.5114701
994.5114689
994.5114731
994.5114698
994.5114709
994.5114715
994.5114689
994.5114686
994.5114689
994.5114686
994.5114689
994.5114687
994.511473
994.5114723
994.5114693
994.511469
994.511474
994.5114737
994.5114733
994.5114741
994.511474
994.5114735
994.5114714
994.5114704
994.5114705
994.5114711
994.5114705
994.5114701
994.511471
994.5114707
994.5114704
994.5114709
994.5114708
994.5114628
994.511471
994.5114709
994.5114699
994.5114709
994.5114689
994.5114699
994.5114692
994.5114686
994.5114686
994.5114701
994.5114729
994.5114779
994.5114948
994.511496
994.5115008
994.5114717
994.5114687
994.5114685
994.511469
994.5114689
994.5114688
994.5114691
994.5114686
994.5114687
994.5114686
994.5114693
994.5114702
994.5114734
994.5114903
994.5114894
994.511493
994.5114692
994.5114686
994.5114685
994.5114687
994.5114689
994.5114702
994.5114856
994.5114852
994.5114815
994.5114687
994.5114685
994.5114685
994.5114687
994.5114687
994.5114761
994.5114716
994.5114738
994.5114689
994.5114685
994.5114686
994.5114823
994.5114864
994.5114717
994.5114686
994.5114686
994.5114707
994.5114815
994.5115012
994.5114685
994.5114686
994.5114686
994.5114771
994.5114887
994.5114753
994.5114797
994.5114685
994.5114711
994.5114807
994.5114969
994.5114853
994.5114687
994.5114732
994.5114845
994.511508
994.5114938
994.5114692
994.5114763
994.5114385
994.5115278
994.5115198
994.5114689
994.5114693
994.5114714
994.5114691
994.5114693
994.5114686
994.5114689
994.5114686
994.5114691
994.511469
994.5114686
994.5114686
994.5114689
994.5114686
994.511469
994.5114689
994.5114686
994.5114686
994.5114689
994.5114686
994.5114691
994.5114709
994.5114687
994.5114686
994.511469
994.511469
994.5114686
994.5114687
994.5114695
994.5114686
994.5114704
994.5114699
994.5114693
994.5114686
994.5114685
994.5114685
994.5114692
994.5114689
994.5114687
994.5114724
994.5114714
994.511473
994.5114708
994.5114726
994.5114691
994.5114686
994.5114687
994.5114686
994.51147
994.5114692
994.5114689
994.5114706
994.51147
994.5114757
994.5114797
994.5114777
994.5114882
994.5114846
994.5114764
994.5114693
994.5114723
994.5114745
994.5114837
994.5114696
994.5114705
994.5114729
994.5114712
994.5114724
994.5114808
994.5114749
994.5114825
994.5114765
994.5114825
994.5114784
994.5114928
994.5114719
994.5114899
994.5115266
994.5114858
994.5114918
994.5115092
994.511522
994.5115205
994.5115077
994.5114815
994.5114978
994.5114837
994.5114987
994.5114894
994.5114755
994.5114703
994.5114776
994.5114872
994.5114786
994.5114902
994.5114837
994.5114924
994.5114868
994.5114822
994.5114798
994.5114719
994.5114827
994.5114944
994.5114831
994.5114996
994.5114906
994.5115023
994.5114951
994.5114892
994.5114859
994.5114748
994.5114873
994.5115051
994.5114801
994.5115126
994.5115003
994.5115148
994.5115078
994.5115012
994.5114706
994.5114793
994.5115337
994.5115396
994.5115224
994.51161
994.5115251
994.5116037
994.5115898
994.5115136
994.5115729
)
;

boundaryField
{
    walls
    {
        type            zeroGradient;
    }
    wallFilmFace_top
    {
        type            zeroGradient;
    }
    region0_to_wallFilmRegion_wallFilmFace
    {
        type            zeroGradient;
    }
    mirrorFace_top
    {
        type            zeroGradient;
    }
    region0_to_wallFilmRegion_mirrorFace
    {
        type            zeroGradient;
    }
    procBoundary2to0
    {
        type            processor;
        value           nonuniform List<scalar> 
26
(
994.51147
994.5114694
994.5114691
994.5114687
994.5114676
994.5114547
994.5114282
994.5113924
994.5113032
994.5113926
994.5114299
994.5114492
994.5114589
994.5114724
994.5114722
994.5114716
994.5114699
994.5114683
994.5114676
994.5114674
994.5114673
994.5114673
994.5114673
994.5114674
994.5114675
994.5114679
)
;
    }
    procBoundary2to1
    {
        type            processor;
        value           nonuniform List<scalar> 
33
(
994.5114697
994.5114697
994.5114697
994.5114697
994.5114697
994.511469
994.5114686
994.5114686
994.5114685
994.5114685
994.5114688
994.511469
994.5114696
994.5114704
994.5114714
994.5114715
994.511471
994.5114705
994.5114704
994.5114693
994.5114682
994.5114682
994.5114681
994.5114681
994.5114683
994.5114683
994.5114681
994.5114681
994.5114681
994.5114674
994.5114667
994.5114668
994.5114682
)
;
    }
    procBoundary2to3
    {
        type            processor;
        value           nonuniform List<scalar> 
64
(
994.5114685
994.5114687
994.5114685
994.5114685
994.5114685
994.5114686
994.5114691
994.5114719
994.5114953
994.5114689
994.5114687
994.5114688
994.5114686
994.5114687
994.5114716
994.5114722
994.511472
994.5114708
994.51147
994.5114698
994.5114699
994.511464
994.5114456
994.5114283
994.5114283
994.5114354
994.5114563
994.5114563
994.5114632
994.5114563
994.5114686
994.5114685
994.5114686
994.5114685
994.5114686
994.5114689
994.5114687
994.5114689
994.511469
994.5114686
994.5114687
994.511473
994.5114765
994.5114811
994.5114886
994.5115135
994.5114688
994.5114686
994.5114686
994.5114686
994.5114687
994.5114685
994.5114685
994.5114685
994.5114687
994.5114688
994.5114702
994.51147
994.5114762
994.5114903
994.5114785
994.5114844
994.5114955
994.5115563
)
;
    }
}


// ************************************************************************* //
