/*--------------------------------*- C++ -*----------------------------------*\
  =========                 |
  \\      /  F ield         | OpenFOAM: The Open Source CFD Toolbox
   \\    /   O peration     | Website:  https://openfoam.org
    \\  /    A nd           | Version:  8
     \\/     M anipulation  |
\*---------------------------------------------------------------------------*/
FoamFile
{
    version     2.0;
    format      ascii;
    class       volScalarField;
    location    "1.2/wallFilmRegion";
    object      sigma;
}
// * * * * * * * * * * * * * * * * * * * * * * * * * * * * * * * * * * * * * //

dimensions      [1 0 -2 0 0 0 0];

internalField   nonuniform List<scalar> 
1342
(
0.0724471356
0.07244713528
0.07244713519
0.07244713506
0.07244713478
0.07244712422
0.07244709817
0.07244705991
0.07244689401
0.07244702894
0.07244708142
0.07244710729
0.07244711999
0.07244713792
0.0724471379
0.07244713774
0.07244713712
0.07244713579
0.07244713471
0.07244713429
0.07244713418
0.07244713415
0.07244713415
0.07244713417
0.07244713421
0.07244713443
0.07244713542
0.07244713533
0.07244713511
0.07244713516
0.07244713515
0.07244713478
0.07244709676
0.07244684542
0.07244692631
0.07244700006
0.07244706627
0.07244709854
0.07244711392
0.07244712269
0.07244713728
0.07244713709
0.07244713637
0.07244713537
0.07244713461
0.07244713431
0.07244713425
0.07244713426
0.07244713428
0.07244713429
0.07244713429
0.0724471343
0.07244713443
0.0724471353
0.07244713517
0.07244713513
0.07244713506
0.0724471351
0.07244713505
0.07244713464
0.07244706646
0.07244669778
0.07244656834
0.07244702361
0.07244708208
0.07244710664
0.07244711815
0.07244712431
0.07244713549
0.07244713537
0.07244713462
0.07244713416
0.07244713411
0.07244713419
0.07244713428
0.07244713434
0.07244713437
0.07244713439
0.07244713439
0.07244713438
0.07244713443
0.07244713509
0.07244713508
0.07244713507
0.07244713507
0.07244713515
0.07244713513
0.07244713499
0.07244712784
0.07244706737
0.07244657305
0.07244703598
0.07244712071
0.07244712783
0.07244713021
0.0724471313
0.07244713283
0.07244713324
0.07244713342
0.07244713368
0.07244713397
0.07244713419
0.07244713432
0.0724471344
0.07244713444
0.07244713445
0.07244713445
0.07244713443
0.07244713442
0.07244713497
0.07244713502
0.07244713502
0.07244713503
0.07244713496
0.07244713016
0.07244713531
0.07244709021
0.07244698703
0.07244687794
0.072447038
0.07244713342
0.07244713423
0.07244713445
0.07244713451
0.07244713451
0.07244713448
0.07244713439
0.0724471343
0.07244713425
0.0724471343
0.07244713438
0.07244713444
0.07244713447
0.07244713448
0.07244713447
0.07244713445
0.07244713442
0.0724471348
0.07244713487
0.07244713493
0.07244713491
0.07244713477
0.07244713412
0.07244711039
0.07244709578
0.07244660867
0.0724465823
0.07244678118
0.07244704754
0.07244712775
0.07244713269
0.07244713395
0.07244713437
0.0724471345
0.07244713452
0.07244713449
0.07244713442
0.07244713438
0.07244713438
0.07244713442
0.07244713446
0.07244713448
0.07244713449
0.07244713448
0.07244713446
0.07244713448
0.07244713498
0.07244713499
0.07244713503
0.07244713497
0.07244713482
0.07244712792
0.07244705661
0.07244696676
0.07244659998
0.07244658454
0.0724467498
0.07244707265
0.07244712199
0.07244713046
0.0724471329
0.07244713384
0.07244713423
0.0724471344
0.07244713445
0.07244713445
0.07244713444
0.07244713444
0.07244713446
0.07244713448
0.07244713449
0.07244713448
0.07244713447
0.07244713445
0.07244713448
0.07244713522
0.07244713511
0.07244713513
0.07244713501
0.07244713486
0.07244713413
0.07244713235
0.07244713125
0.07244712861
0.07244712362
0.07244711276
0.07244710804
0.07244713005
0.07244713043
0.0724471324
0.07244713362
0.07244713419
0.0724471344
0.07244713448
0.0724471345
0.07244713451
0.07244713451
0.07244713451
0.07244713451
0.07244713451
0.07244713451
0.0724471345
0.07244713449
0.0724471345
0.07244713541
0.07244713521
0.07244713529
0.07244713508
0.07244713492
0.07244713496
0.07244713378
0.07244713361
0.07244713289
0.07244713111
0.07244712798
0.07244712371
0.07244713021
0.07244713218
0.07244713321
0.07244713384
0.07244713422
0.07244713442
0.0724471345
0.07244713454
0.07244713455
0.07244713455
0.07244713455
0.07244713456
0.07244713456
0.07244713456
0.07244713456
0.07244713455
0.07244713452
0.07244713593
0.07244713537
0.07244713552
0.07244713522
0.0724471349
0.07244713482
0.07244713392
0.07244713402
0.0724471339
0.07244713333
0.07244713184
0.07244712872
0.07244713438
0.07244713375
0.07244713368
0.07244713399
0.07244713427
0.07244713444
0.07244713453
0.07244713457
0.07244713457
0.07244713456
0.07244713455
0.07244713452
0.07244713442
0.07244713428
0.0724471343
0.07244713439
0.07244713453
0.07244713653
0.07244713571
0.0724471358
0.07244713544
0.07244713488
0.07244713475
0.07244713394
0.07244713498
0.07244713576
0.07244713789
0.0724471374
0.07244713131
0.07244713471
0.07244713463
0.07244713441
0.07244713427
0.07244713437
0.0724471345
0.07244713457
0.07244713461
0.0724471346
0.07244713458
0.07244713456
0.0724471345
0.07244713435
0.07244713401
0.07244713384
0.0724471341
0.07244713452
0.07244713707
0.072447136
0.07244713591
0.07244713542
0.07244713452
0.07244713451
0.07244713379
0.07244713519
0.07244713583
0.07244713783
0.07244713745
0.07244713229
0.07244713474
0.07244713474
0.07244713464
0.07244713452
0.07244713452
0.0724471346
0.07244713465
0.07244713467
0.07244713464
0.07244713461
0.07244713457
0.07244713449
0.0724471343
0.07244713389
0.07244713358
0.07244713401
0.07244713452
0.07244713652
0.0724471334
0.07244713085
0.07244713053
0.07244713117
0.07244713356
0.07244713603
0.07244713454
0.07244713475
0.07244713482
0.07244713689
0.07244713289
0.07244713474
0.07244713477
0.07244713475
0.07244713469
0.07244713468
0.07244713472
0.07244713475
0.07244713474
0.0724471347
0.07244713464
0.07244713457
0.07244713443
0.07244713413
0.07244713371
0.07244713366
0.07244713409
0.07244713452
0.07244713677
0.07244713121
0.07244712951
0.0724471284
0.07244712991
0.07244713193
0.0724471356
0.07244713486
0.07244713554
0.07244713539
0.07244713608
0.07244713388
0.07244713469
0.07244713475
0.0724471348
0.07244713481
0.07244713483
0.07244713485
0.07244713484
0.07244713479
0.07244713472
0.07244713464
0.07244713451
0.07244713426
0.07244713385
0.07244713356
0.07244713376
0.07244713419
0.07244713452
0.0724471368
0.07244713188
0.07244712875
0.07244712623
0.07244712881
0.07244713009
0.0724471348
0.07244713485
0.07244713486
0.07244713486
0.07244713499
0.07244713463
0.07244713478
0.07244713479
0.07244713481
0.07244713483
0.07244713487
0.0724471349
0.0724471349
0.07244713482
0.07244713471
0.07244713456
0.07244713433
0.07244713392
0.07244713354
0.07244713351
0.07244713386
0.07244713427
0.07244713452
0.07244713671
0.07244713171
0.07244712779
0.07244712253
0.07244712723
0.07244712715
0.07244713433
0.07244713473
0.07244713433
0.07244713481
0.07244713486
0.0724471347
0.07244713479
0.0724471348
0.07244713481
0.07244713484
0.07244713488
0.07244713492
0.07244713492
0.07244713482
0.07244713464
0.07244713439
0.07244713397
0.07244713349
0.07244713334
0.07244713355
0.07244713395
0.07244713434
0.07244713452
0.07244712915
0.07244713068
0.07244712574
0.07244711983
0.07244712301
0.07244712067
0.07244713373
0.07244713374
0.07244712809
0.07244712374
0.07244713489
0.07244713464
0.07244713478
0.0724471348
0.07244713482
0.07244713485
0.0724471349
0.07244713493
0.07244713492
0.07244713477
0.0724471345
0.07244713408
0.07244713353
0.07244713319
0.0724471333
0.07244713361
0.07244713403
0.0724471344
0.07244713452
0.07244713455
0.07244713452
0.07244713445
0.07244713434
0.07244713417
0.07244713364
0.07244713268
0.07244713291
0.07244713443
0.07244713267
0.07244713485
0.07244713477
0.07244713479
0.07244713481
0.07244713483
0.07244713487
0.07244713491
0.07244713493
0.07244713487
0.07244713465
0.07244713426
0.07244713369
0.07244713316
0.07244713304
0.07244713332
0.07244713368
0.07244713411
0.07244713445
0.07244713452
0.07244713461
0.07244713458
0.0724471345
0.07244713437
0.07244713218
0.07244713306
0.07244713444
0.07244713428
0.07244713469
0.07244713455
0.07244713453
0.07244713487
0.07244713483
0.07244713484
0.07244713487
0.0724471349
0.07244713491
0.07244713489
0.07244713476
0.07244713444
0.07244713395
0.07244713338
0.072447133
0.07244713317
0.07244713354
0.07244713388
0.07244713424
0.07244713449
0.07244713452
0.0724471346
0.07244713458
0.07244713452
0.07244713436
0.07244713122
0.07244713109
0.07244713203
0.07244713428
0.07244713469
0.07244713463
0.07244713448
0.07244713477
0.07244713488
0.0724471349
0.07244713491
0.07244713491
0.07244713488
0.07244713478
0.07244713457
0.07244713423
0.07244713379
0.0724471333
0.07244713413
0.0724471344
0.07244713444
0.07244713443
0.07244713449
0.07244713457
0.07244713455
0.07244713456
0.07244713456
0.07244713453
0.07244713441
0.07244713428
0.07244713404
0.07244713367
0.07244713408
0.0724471346
0.07244713464
0.07244713454
0.07244713464
0.0724471349
0.07244713496
0.072447135
0.07244713499
0.07244713491
0.07244713476
0.07244713453
0.07244713423
0.07244713383
0.07244713437
0.07244713446
0.07244713447
0.07244713447
0.07244713449
0.07244713454
0.07244713458
0.07244713457
0.07244713473
0.07244713467
0.07244713459
0.0724471345
0.07244713439
0.07244713417
0.07244713375
0.07244713355
0.07244713443
0.07244713458
0.07244713452
0.07244713456
0.07244713486
0.07244713497
0.07244713508
0.0724471351
0.07244713502
0.07244713486
0.07244713464
0.07244713432
0.07244713434
0.07244713449
0.0724471344
0.0724471344
0.07244713442
0.07244713445
0.07244713446
0.07244713455
0.07244713458
0.07244713468
0.07244713468
0.07244713476
0.07244713472
0.07244713454
0.07244713455
0.07244713454
0.07244713447
0.07244713476
0.07244713476
0.07244713473
0.0724471347
0.07244713474
0.07244713487
0.07244713506
0.07244713514
0.07244713508
0.07244713493
0.0724471347
0.07244713434
0.0724471344
0.07244713445
0.0724471344
0.07244713443
0.07244713446
0.07244713448
0.07244713451
0.07244713458
0.0724471346
0.07244713457
0.07244713456
0.07244713466
0.07244713463
0.07244713446
0.0724471346
0.07244713465
0.07244713464
0.07244713478
0.07244713478
0.07244713476
0.07244713473
0.07244713471
0.07244713476
0.07244713492
0.07244713503
0.072447135
0.07244713486
0.07244713463
0.07244713419
0.07244713441
0.07244713443
0.07244713442
0.07244713445
0.07244713447
0.07244713449
0.07244713452
0.07244713462
0.07244713463
0.07244713459
0.07244713455
0.0724471345
0.07244713444
0.07244713436
0.0724471345
0.07244713461
0.07244713463
0.07244713478
0.07244713474
0.07244713471
0.07244713469
0.07244713466
0.07244713467
0.07244713477
0.07244713485
0.07244713482
0.07244713468
0.07244713441
0.07244713422
0.07244713444
0.07244713441
0.07244713444
0.07244713446
0.07244713448
0.07244713449
0.07244713452
0.07244713462
0.07244713465
0.07244713457
0.07244713457
0.07244713454
0.07244713445
0.07244713457
0.07244713446
0.07244713447
0.07244713454
0.07244713477
0.07244713473
0.07244713479
0.07244713466
0.0724471346
0.07244713459
0.07244713463
0.07244713466
0.07244713458
0.0724471344
0.0724471341
0.0724471343
0.07244713445
0.07244713439
0.07244713444
0.07244713447
0.07244713449
0.07244713449
0.07244713449
0.07244713453
0.07244713464
0.07244713431
0.0724471344
0.07244713447
0.07244713449
0.07244713463
0.07244713457
0.07244713458
0.07244713461
0.07244713475
0.07244713474
0.07244713474
0.07244713466
0.0724471346
0.07244713455
0.07244713448
0.07244713469
0.07244713494
0.07244713505
0.0724471348
0.07244713435
0.07244713447
0.07244713438
0.07244713435
0.0724471345
0.07244713452
0.07244713451
0.07244713449
0.07244713449
0.07244713456
0.07244713383
0.07244713407
0.07244713425
0.0724471344
0.07244713469
0.07244713465
0.07244713462
0.07244713467
0.07244713474
0.07244713475
0.07244713473
0.07244713487
0.0724471346
0.07244713445
0.07244713435
0.07244713472
0.07244713473
0.07244713469
0.07244713452
0.07244713423
0.07244713447
0.07244713448
0.07244713456
0.0724471346
0.07244713461
0.07244713455
0.07244713452
0.07244713449
0.07244713448
0.07244713381
0.07244713414
0.07244713425
0.0724471342
0.07244713471
0.07244713469
0.0724471346
0.07244713465
0.07244713472
0.07244713476
0.07244713473
0.07244713473
0.07244713458
0.07244713497
0.07244713518
0.07244713519
0.07244713482
0.07244713436
0.07244713387
0.07244713387
0.07244713444
0.07244713452
0.07244713463
0.07244713468
0.0724471347
0.0724471347
0.0724471346
0.07244713457
0.07244713454
0.07244713459
0.07244713461
0.07244713468
0.07244713474
0.07244713479
0.07244713478
0.07244713475
0.07244713473
0.0724471347
0.0724471347
0.07244713467
0.07244713464
0.07244713462
0.07244713462
0.07244713462
0.07244713466
0.07244713467
0.07244713462
0.07244713458
0.07244713455
0.07244713458
0.07244713464
0.07244713468
0.07244713471
0.07244713473
0.07244713473
0.07244713471
0.07244713468
0.07244713461
0.07244713679
0.07244713491
0.07244713493
0.07244713534
0.07244713498
0.07244713698
0.07244713511
0.0724471349
0.07244713504
0.07244713616
0.07244713564
0.07244713506
0.07244713495
0.07244713741
0.07244713766
0.07244713572
0.07244713491
0.0724471392
0.07244714376
0.07244713898
0.07244713791
0.0724471544
0.07244717882
0.07244716149
0.07244713745
0.07244713589
0.07244713599
0.0724471388
0.07244713645
0.07244713725
0.07244713915
0.07244713952
0.07244714222
0.0724471391
0.07244714407
0.07244715402
0.07244713704
0.07244715626
0.07244715733
0.07244713678
0.07244715846
0.07244716004
0.07244713674
0.07244716204
0.07244714509
0.07244713678
0.07244713893
0.07244713638
0.07244713683
0.07244713524
0.07244713499
0.07244713672
0.07244713491
0.0724471355
0.07244713589
0.07244713583
0.07244713578
0.0724471349
0.07244713489
0.07244713489
0.07244713566
0.0724471354
0.07244713493
0.07244713488
0.07244713507
0.07244713504
0.07244713497
0.07244713494
0.07244713489
0.0724471349
0.07244713489
0.07244713491
0.072447135
0.07244713489
0.07244713489
0.07244713493
0.07244713502
0.07244713501
0.0724471349
0.07244713495
0.07244713511
0.07244713603
0.07244713701
0.07244713843
0.07244713848
0.07244713536
0.07244713539
0.07244713527
0.07244713525
0.07244713522
0.07244713517
0.07244713877
0.07244713908
0.07244713894
0.07244713509
0.07244713867
0.07244713837
0.07244713895
0.07244713903
0.07244713837
0.07244713837
0.07244713821
0.07244713799
0.07244713626
0.07244713626
0.07244713613
0.07244713669
0.0724471361
0.07244713606
0.07244713635
0.0724471365
0.07244713634
0.07244713598
0.07244713626
0.07244713614
0.0724471364
0.0724471366
0.07244713645
0.07244713632
0.07244713154
0.07244709678
0.0724471365
0.07244713667
0.07244713652
0.07244712888
0.07244713651
0.07244713671
0.07244713635
0.07244713181
0.07244713501
0.07244713534
0.07244713508
0.07244713496
0.07244713502
0.07244713498
0.07244713494
0.07244713496
0.07244713494
0.07244713493
0.07244713664
0.07244713581
0.07244713612
0.07244714037
0.07244713713
0.07244713867
0.07244715309
0.07244714019
0.0724471514
0.072447155
0.07244715297
0.07244715242
0.0724471575
0.07244715311
0.07244715473
0.07244714172
0.07244715662
0.07244713935
0.07244713562
0.07244713628
0.07244713525
0.07244713494
0.07244713499
0.07244713492
0.07244713522
0.07244713505
0.07244713495
0.07244713512
0.072447135
0.07244713495
0.0724471356
0.07244713518
0.07244713523
0.07244713722
0.07244713554
0.07244713623
0.07244715026
0.07244713726
0.07244714869
0.07244715023
0.0724471499
0.07244714834
0.07244715214
0.07244714901
0.07244714964
0.07244713698
0.07244714977
0.07244713577
0.07244713504
0.07244713511
0.07244713495
0.0724471349
0.07244713491
0.07244713489
0.07244713585
0.072447135
0.07244713603
0.07244713618
0.07244713656
0.07244713691
0.07244713523
0.07244713559
0.07244713498
0.0724471352
0.07244714622
0.07244713539
0.07244714362
0.07244714676
0.07244714554
0.07244714561
0.07244714636
0.07244714676
0.07244714138
0.07244713532
0.0724471402
0.07244713516
0.07244713492
0.07244713496
0.07244713491
0.07244713492
0.07244713703
0.07244713928
0.07244713825
0.07244714176
0.07244713643
0.07244714028
0.07244714386
0.07244713489
0.07244714998
0.07244714597
0.0724471541
0.07244715224
0.07244713738
0.07244715018
0.07244713576
0.07244713512
0.07244713609
0.07244713521
0.07244713838
0.0724471359
0.07244713669
0.07244713716
0.07244713519
0.07244713499
0.07244713517
0.07244713499
0.07244713515
0.07244713501
0.07244713829
0.07244713779
0.0724471355
0.0724471353
0.07244713904
0.07244713887
0.07244713851
0.07244713913
0.07244713907
0.07244713867
0.0724471371
0.07244713637
0.07244713642
0.07244713683
0.07244713641
0.07244713612
0.07244713676
0.07244713655
0.07244713637
0.07244713675
0.07244713664
0.07244713056
0.07244713681
0.0724471367
0.07244713595
0.0724471367
0.07244713521
0.07244713593
0.07244713545
0.07244713498
0.07244713495
0.07244713612
0.07244713827
0.07244714205
0.07244715493
0.07244715584
0.07244715952
0.07244713731
0.07244713506
0.0724471349
0.07244713527
0.07244713521
0.07244713514
0.07244713533
0.07244713499
0.07244713507
0.07244713493
0.07244713547
0.07244713618
0.07244713863
0.07244715148
0.07244715082
0.07244715353
0.07244713543
0.07244713493
0.07244713489
0.07244713503
0.07244713517
0.07244713616
0.07244714789
0.07244714763
0.07244714481
0.072447135
0.07244713489
0.07244713488
0.07244713503
0.07244713504
0.07244714071
0.07244713728
0.07244713894
0.07244713521
0.0724471349
0.07244713499
0.0724471454
0.07244714852
0.07244713735
0.07244713496
0.07244713492
0.07244713659
0.07244714481
0.07244715984
0.07244713489
0.07244713493
0.07244713495
0.07244714141
0.07244715029
0.07244714006
0.0724471434
0.07244713492
0.07244713686
0.07244714415
0.07244715657
0.0724471477
0.072447135
0.07244713844
0.07244714709
0.07244716501
0.07244715419
0.07244713542
0.07244714083
0.072447112
0.07244718008
0.072447174
0.07244713521
0.0724471355
0.07244713706
0.07244713537
0.07244713546
0.07244713498
0.07244713518
0.07244713499
0.0724471353
0.07244713527
0.07244713497
0.07244713496
0.07244713516
0.07244713499
0.07244713523
0.0724471352
0.07244713495
0.07244713495
0.07244713517
0.07244713495
0.07244713532
0.07244713675
0.07244713504
0.07244713495
0.07244713526
0.07244713525
0.07244713498
0.07244713507
0.07244713563
0.07244713494
0.0724471363
0.07244713598
0.07244713548
0.07244713498
0.0724471349
0.07244713488
0.07244713539
0.07244713519
0.07244713505
0.07244713786
0.0724471371
0.07244713833
0.0724471366
0.07244713801
0.07244713535
0.07244713495
0.07244713504
0.07244713494
0.07244713606
0.07244713545
0.07244713517
0.07244713647
0.072447136
0.07244714041
0.07244714343
0.0724471419
0.07244714992
0.07244714718
0.07244714092
0.0724471355
0.07244713775
0.07244713948
0.07244714647
0.07244713574
0.07244713642
0.07244713826
0.07244713693
0.07244713783
0.07244714426
0.07244713979
0.07244714557
0.07244714099
0.07244714552
0.07244714241
0.07244715344
0.07244713744
0.07244715118
0.07244717921
0.07244714806
0.07244715265
0.07244716593
0.07244717569
0.07244717452
0.07244716478
0.0724471448
0.07244715723
0.07244714644
0.07244715789
0.07244715085
0.07244714022
0.07244713622
0.07244714185
0.07244714911
0.07244714255
0.07244715144
0.0724471465
0.07244715308
0.07244714882
0.0724471453
0.07244714352
0.07244713751
0.07244714573
0.07244715466
0.07244714598
0.07244715856
0.0724471517
0.07244716067
0.07244715514
0.07244715063
0.07244714813
0.07244713971
0.07244714922
0.07244716278
0.07244714373
0.0724471685
0.07244715912
0.07244717021
0.07244716485
0.0724471598
0.07244713646
0.07244714309
0.07244718459
0.07244718906
0.07244717594
0.07244724276
0.07244717806
0.07244723798
0.07244722733
0.0724471693
0.07244721447
)
;

boundaryField
{
    walls
    {
        type            zeroGradient;
    }
    wallFilmFace_top
    {
        type            zeroGradient;
    }
    region0_to_wallFilmRegion_wallFilmFace
    {
        type            zeroGradient;
    }
    mirrorFace_top
    {
        type            zeroGradient;
    }
    region0_to_wallFilmRegion_mirrorFace
    {
        type            zeroGradient;
    }
    procBoundary2to0
    {
        type            processor;
        value           nonuniform List<scalar> 
26
(
0.07244713604
0.0724471356
0.07244713533
0.07244713502
0.07244713421
0.07244712437
0.07244710415
0.07244707687
0.07244700884
0.072447077
0.07244710549
0.07244712017
0.07244712755
0.07244713784
0.07244713774
0.07244713723
0.07244713594
0.0724471347
0.07244713417
0.07244713403
0.07244713399
0.07244713398
0.07244713398
0.07244713402
0.0724471341
0.07244713444
)
;
    }
    procBoundary2to1
    {
        type            processor;
        value           nonuniform List<scalar> 
33
(
0.07244713581
0.07244713581
0.07244713583
0.07244713583
0.07244713577
0.0724471353
0.07244713499
0.07244713499
0.0724471349
0.07244713485
0.07244713514
0.07244713528
0.07244713573
0.07244713635
0.07244713713
0.07244713718
0.07244713681
0.07244713643
0.0724471363
0.07244713549
0.07244713464
0.07244713462
0.07244713459
0.07244713454
0.07244713477
0.07244713475
0.0724471346
0.0724471346
0.07244713457
0.07244713407
0.07244713352
0.07244713362
0.07244713465
)
;
    }
    procBoundary2to3
    {
        type            processor;
        value           nonuniform List<scalar> 
64
(
0.07244713488
0.07244713507
0.07244713491
0.07244713487
0.07244713488
0.07244713497
0.07244713531
0.0724471375
0.07244715534
0.0724471352
0.07244713505
0.07244713512
0.07244713499
0.07244713505
0.07244713722
0.07244713768
0.07244713757
0.07244713662
0.07244713606
0.0724471359
0.07244713594
0.07244713147
0.07244711745
0.07244710422
0.07244710422
0.07244710968
0.0724471256
0.0724471256
0.07244713082
0.0724471256
0.07244713493
0.07244713492
0.07244713493
0.07244713492
0.07244713492
0.07244713516
0.07244713506
0.0724471352
0.07244713528
0.07244713493
0.07244713501
0.0724471383
0.07244714097
0.07244714451
0.07244715023
0.07244716917
0.07244713515
0.07244713495
0.07244713496
0.07244713495
0.07244713507
0.07244713488
0.07244713487
0.0724471349
0.07244713503
0.07244713514
0.07244713617
0.07244713604
0.07244714074
0.07244715153
0.07244714251
0.07244714703
0.07244715551
0.07244720185
)
;
    }
}


// ************************************************************************* //
