/*--------------------------------*- C++ -*----------------------------------*\
  =========                 |
  \\      /  F ield         | OpenFOAM: The Open Source CFD Toolbox
   \\    /   O peration     | Website:  https://openfoam.org
    \\  /    A nd           | Version:  8
     \\/     M anipulation  |
\*---------------------------------------------------------------------------*/
FoamFile
{
    version     2.0;
    format      ascii;
    class       volScalarField;
    location    "1.2/wallFilmRegion";
    object      T;
}
// * * * * * * * * * * * * * * * * * * * * * * * * * * * * * * * * * * * * * //

dimensions      [0 0 0 1 0 0 0];

internalField   nonuniform List<scalar> 
1342
(
299.9999961
299.9999977
299.9999982
299.9999988
300.0000002
300.0000532
300.0001837
300.0003755
300.0012069
300.0005307
300.0002676
300.000138
300.0000743
299.9999845
299.9999846
299.9999854
299.9999885
299.9999952
300.0000006
300.0000027
300.0000032
300.0000034
300.0000034
300.0000033
300.0000031
300.000002
299.999997
299.9999975
299.9999985
299.9999983
299.9999983
300.0000002
300.0001908
300.0014505
300.001045
300.0006754
300.0003436
300.0001818
300.0001048
300.0000608
299.9999877
299.9999886
299.9999922
299.9999973
300.0000011
300.0000026
300.0000029
300.0000028
300.0000027
300.0000027
300.0000027
300.0000026
300.000002
299.9999976
299.9999983
299.9999985
299.9999988
299.9999986
299.9999989
300.0000009
300.0003426
300.0021904
300.0028391
300.0005574
300.0002644
300.0001412
300.0000836
300.0000527
299.9999966
299.9999973
300.000001
300.0000034
300.0000036
300.0000032
300.0000027
300.0000024
300.0000023
300.0000022
300.0000022
300.0000022
300.000002
299.9999987
299.9999987
299.9999987
299.9999988
299.9999983
299.9999984
299.9999992
300.000035
300.0003381
300.0028155
300.0004954
300.0000707
300.000035
300.0000231
300.0000177
300.00001
300.0000079
300.000007
300.0000057
300.0000043
300.0000032
300.0000025
300.0000021
300.0000019
300.0000019
300.0000019
300.000002
300.000002
299.9999993
299.999999
299.999999
299.9999989
299.9999993
300.0000234
299.9999976
300.0002236
300.0007407
300.0012875
300.0004853
300.000007
300.000003
300.0000019
300.0000016
300.0000015
300.0000017
300.0000021
300.0000026
300.0000029
300.0000026
300.0000022
300.0000019
300.0000018
300.0000017
300.0000018
300.0000019
300.000002
300.0000001
299.9999998
299.9999994
299.9999996
300.0000003
300.0000035
300.0001225
300.0001957
300.002637
300.0027691
300.0017724
300.0004374
300.0000354
300.0000107
300.0000044
300.0000023
300.0000016
300.0000015
300.0000017
300.000002
300.0000022
300.0000022
300.000002
300.0000018
300.0000017
300.0000017
300.0000017
300.0000018
300.0000017
299.9999992
299.9999991
299.999999
299.9999993
300
300.0000346
300.000392
300.0008423
300.0026806
300.0027579
300.0019297
300.0003116
300.0000643
300.0000219
300.0000097
300.0000049
300.000003
300.0000021
300.0000019
300.0000019
300.0000019
300.0000019
300.0000018
300.0000017
300.0000017
300.0000017
300.0000018
300.0000019
300.0000017
299.999998
299.9999986
299.9999985
299.9999991
299.9999998
300.0000035
300.0000124
300.0000179
300.0000312
300.0000561
300.0001106
300.0001343
300.0000239
300.000022
300.0000122
300.000006
300.0000032
300.0000021
300.0000017
300.0000016
300.0000016
300.0000016
300.0000016
300.0000016
300.0000016
300.0000016
300.0000016
300.0000017
300.0000016
299.9999971
299.999998
299.9999977
299.9999987
299.9999995
299.9999993
300.0000052
300.0000061
300.0000097
300.0000186
300.0000343
300.0000557
300.0000231
300.0000133
300.0000081
300.0000049
300.000003
300.000002
300.0000016
300.0000014
300.0000014
300.0000014
300.0000014
300.0000013
300.0000013
300.0000013
300.0000013
300.0000014
300.0000015
299.9999945
299.9999972
299.9999965
299.999998
299.9999996
300
300.0000045
300.000004
300.0000046
300.0000075
300.0000149
300.0000306
300.0000022
300.0000054
300.0000058
300.0000042
300.0000028
300.0000019
300.0000015
300.0000013
300.0000013
300.0000013
300.0000014
300.0000015
300.000002
300.0000027
300.0000026
300.0000022
300.0000015
299.9999915
299.9999956
299.9999951
299.9999969
299.9999997
300.0000003
300.0000044
299.9999992
299.9999953
299.9999846
299.9999871
300.0000176
300.0000006
300.000001
300.0000021
300.0000028
300.0000023
300.0000016
300.0000013
300.0000011
300.0000011
300.0000012
300.0000013
300.0000016
300.0000024
300.0000041
300.0000049
300.0000036
300.0000015
299.9999888
299.9999941
299.9999945
299.999997
300.0000015
300.0000016
300.0000052
299.9999982
299.999995
299.9999849
299.9999868
300.0000127
300.0000004
300.0000004
300.0000009
300.0000015
300.0000015
300.0000011
300.0000009
300.0000008
300.0000009
300.0000011
300.0000013
300.0000017
300.0000026
300.0000047
300.0000062
300.0000041
300.0000015
299.9999915
300.0000071
300.0000199
300.0000215
300.0000183
300.0000063
299.999994
300.0000014
300.0000004
300
299.9999896
300.0000097
300.0000004
300.0000003
300.0000004
300.0000007
300.0000007
300.0000005
300.0000004
300.0000004
300.0000006
300.0000009
300.0000013
300.000002
300.0000035
300.0000056
300.0000058
300.0000037
300.0000015
299.9999902
300.0000181
300.0000266
300.0000322
300.0000246
300.0000145
299.9999961
299.9999998
299.9999964
299.9999971
299.9999937
300.0000047
300.0000007
300.0000003
300.0000001
300.0000001
300
299.9999999
299.9999999
300.0000001
300.0000005
300.0000009
300.0000016
300.0000028
300.0000049
300.0000063
300.0000053
300.0000032
300.0000015
299.9999901
300.0000147
300.0000305
300.0000431
300.0000301
300.0000237
300.0000001
299.9999999
299.9999998
299.9999998
299.9999992
300.000001
300.0000002
300.0000002
300.0000001
300
299.9999998
299.9999996
299.9999996
300
300.0000006
300.0000013
300.0000025
300.0000045
300.0000065
300.0000066
300.0000048
300.0000028
300.0000015
299.9999906
300.0000156
300.0000353
300.0000616
300.0000381
300.0000385
300.0000025
300.0000005
300.0000025
300.0000001
299.9999998
300.0000006
300.0000002
300.0000001
300.0000001
299.9999999
299.9999997
299.9999995
299.9999995
300
300.0000009
300.0000022
300.0000043
300.0000067
300.0000074
300.0000064
300.0000044
300.0000024
300.0000015
300.0000284
300.0000208
300.0000455
300.0000751
300.0000592
300.000071
300.0000055
300.0000054
300.0000337
300.0000556
299.9999997
300.0000009
300.0000002
300.0000001
300
299.9999998
299.9999996
299.9999994
299.9999995
300.0000003
300.0000016
300.0000037
300.0000065
300.0000082
300.0000076
300.0000061
300.000004
300.0000021
300.0000015
300.0000014
300.0000015
300.0000019
300.0000024
300.0000033
300.000006
300.0000108
300.0000096
300.000002
300.0000108
299.9999998
300.0000003
300.0000002
300.0000001
299.9999999
299.9999998
299.9999996
299.9999995
299.9999998
300.0000009
300.0000028
300.0000057
300.0000083
300.0000089
300.0000075
300.0000057
300.0000036
300.0000019
300.0000015
300.0000011
300.0000012
300.0000016
300.0000023
300.0000133
300.0000088
300.0000019
300.0000027
300.0000007
300.0000014
300.0000015
299.9999998
300
299.9999999
299.9999998
299.9999996
299.9999996
299.9999997
300.0000003
300.0000019
300.0000044
300.0000073
300.0000091
300.0000083
300.0000064
300.0000048
300.0000029
300.0000017
300.0000015
300.0000011
300.0000012
300.0000015
300.0000023
300.0000181
300.0000187
300.000014
300.0000027
300.0000007
300.0000009
300.0000017
300.0000003
299.9999997
299.9999996
299.9999995
299.9999995
299.9999997
300.0000002
300.0000013
300.000003
300.0000052
300.0000076
300.0000035
300.0000021
300.0000019
300.000002
300.0000017
300.0000013
300.0000014
300.0000013
300.0000013
300.0000015
300.0000021
300.0000027
300.0000039
300.0000058
300.0000038
300.0000011
300.0000009
300.0000014
300.0000009
299.9999996
299.9999993
299.9999991
299.9999992
299.9999996
300.0000003
300.0000015
300.000003
300.000005
300.0000023
300.0000018
300.0000018
300.0000018
300.0000017
300.0000014
300.0000012
300.0000013
300.0000005
300.0000008
300.0000012
300.0000016
300.0000022
300.0000033
300.0000054
300.0000064
300.000002
300.0000012
300.0000015
300.0000013
299.9999998
299.9999992
299.9999987
299.9999986
299.999999
299.9999998
300.0000009
300.0000025
300.0000024
300.0000017
300.0000021
300.0000021
300.000002
300.0000019
300.0000018
300.0000014
300.0000012
300.0000007
300.0000007
300.0000003
300.0000005
300.0000014
300.0000014
300.0000014
300.0000018
300.0000003
300.0000003
300.0000005
300.0000006
300.0000004
299.9999998
299.9999988
299.9999984
299.9999987
299.9999995
300.0000006
300.0000024
300.0000021
300.0000019
300.0000021
300.000002
300.0000018
300.0000017
300.0000016
300.0000012
300.0000011
300.0000013
300.0000013
300.0000008
300.000001
300.0000018
300.0000011
300.0000009
300.0000009
300.0000002
300.0000002
300.0000003
300.0000004
300.0000006
300.0000003
299.9999995
299.999999
299.9999991
299.9999998
300.000001
300.0000032
300.0000021
300.000002
300.000002
300.0000019
300.0000018
300.0000017
300.0000015
300.000001
300.000001
300.0000012
300.0000014
300.0000016
300.0000019
300.0000023
300.0000016
300.0000011
300.0000009
300.0000002
300.0000004
300.0000006
300.0000007
300.0000008
300.0000008
300.0000003
299.9999998
300
300.0000007
300.0000021
300.000003
300.0000019
300.0000021
300.0000019
300.0000018
300.0000017
300.0000017
300.0000015
300.000001
300.0000008
300.0000012
300.0000013
300.0000014
300.0000019
300.0000013
300.0000018
300.0000018
300.0000014
300.0000003
300.0000005
300.0000001
300.0000008
300.0000011
300.0000012
300.000001
300.0000008
300.0000012
300.0000021
300.0000036
300.0000026
300.0000019
300.0000021
300.0000019
300.0000017
300.0000017
300.0000017
300.0000017
300.0000014
300.0000009
300.0000026
300.0000021
300.0000018
300.0000017
300.000001
300.0000013
300.0000012
300.0000011
300.0000003
300.0000004
300.0000004
300.0000008
300.0000011
300.0000014
300.0000017
300.0000007
299.9999994
299.9999989
300.0000001
300.0000024
300.0000018
300.0000022
300.0000023
300.0000016
300.0000015
300.0000016
300.0000017
300.0000017
300.0000013
300.000005
300.0000038
300.0000029
300.0000021
300.0000006
300.0000009
300.000001
300.0000008
300.0000004
300.0000004
300.0000005
299.9999998
300.0000011
300.0000019
300.0000024
300.0000005
300.0000004
300.0000007
300.0000015
300.000003
300.0000018
300.0000017
300.0000013
300.0000011
300.0000011
300.0000014
300.0000015
300.0000017
300.0000017
300.0000051
300.0000034
300.0000029
300.0000031
300.0000006
300.0000007
300.0000011
300.0000009
300.0000005
300.0000003
300.0000005
300.0000005
300.0000012
299.9999993
299.9999982
299.9999982
300
300.0000023
300.0000048
300.0000048
300.0000019
300.0000015
300.000001
300.0000007
300.0000006
300.0000006
300.0000011
300.0000013
300.0000014
300.0000012
300.000001
300.0000007
300.0000004
300.0000002
300.0000002
300.0000004
300.0000005
300.0000006
300.0000006
300.0000008
300.0000009
300.000001
300.000001
300.000001
300.0000008
300.0000007
300.000001
300.0000012
300.0000014
300.0000012
300.0000009
300.0000007
300.0000006
300.0000005
300.0000005
300.0000005
300.0000007
300.0000011
299.9999902
299.9999996
299.9999995
299.9999974
299.9999992
299.9999892
299.9999985
299.9999996
299.9999989
299.9999933
299.9999959
299.9999988
299.9999994
299.999987
299.9999858
299.9999955
299.9999995
299.999978
299.9999552
299.9999792
299.9999845
299.9999019
299.9997795
299.9998664
299.9999868
299.9999947
299.9999942
299.9999801
299.9999918
299.9999879
299.9999783
299.9999765
299.9999629
299.9999786
299.9999537
299.9999038
299.9999889
299.9998926
299.9998872
299.9999902
299.9998815
299.9998736
299.9999904
299.9998636
299.9999485
299.9999902
299.9999794
299.9999922
299.9999899
299.9999979
299.9999991
299.9999905
299.9999996
299.9999966
299.9999947
299.9999949
299.9999952
299.9999996
299.9999997
299.9999997
299.9999958
299.9999971
299.9999994
299.9999997
299.9999988
299.9999989
299.9999992
299.9999994
299.9999997
299.9999996
299.9999997
299.9999996
299.9999991
299.9999997
299.9999997
299.9999995
299.999999
299.9999991
299.9999996
299.9999994
299.9999986
299.999994
299.999989
299.9999819
299.9999817
299.9999973
299.9999972
299.9999977
299.9999979
299.999998
299.9999983
299.9999802
299.9999787
299.9999794
299.9999986
299.9999807
299.9999822
299.9999793
299.9999789
299.9999822
299.9999822
299.999983
299.9999841
299.9999928
299.9999928
299.9999935
299.9999906
299.9999936
299.9999938
299.9999924
299.9999916
299.9999924
299.9999942
299.9999928
299.9999934
299.9999921
299.9999911
299.9999918
299.9999925
300.0000164
300.0001907
299.9999916
299.9999907
299.9999915
300.0000298
299.9999916
299.9999905
299.9999924
300.0000151
299.9999991
299.9999974
299.9999987
299.9999993
299.999999
299.9999992
299.9999994
299.9999993
299.9999994
299.9999995
299.9999909
299.999995
299.9999935
299.9999722
299.9999884
299.9999807
299.9999085
299.9999731
299.9999169
299.9998989
299.9999091
299.9999118
299.9998863
299.9999084
299.9999002
299.9999655
299.9998908
299.9999773
299.999996
299.9999927
299.9999979
299.9999994
299.9999992
299.9999995
299.999998
299.9999989
299.9999993
299.9999985
299.9999991
299.9999994
299.9999961
299.9999982
299.9999979
299.999988
299.9999964
299.999993
299.9999226
299.9999878
299.9999305
299.9999228
299.9999245
299.9999323
299.9999132
299.9999289
299.9999258
299.9999892
299.9999251
299.9999953
299.9999989
299.9999986
299.9999993
299.9999996
299.9999996
299.9999997
299.9999949
299.9999991
299.9999939
299.9999932
299.9999913
299.9999896
299.999998
299.9999961
299.9999992
299.9999981
299.9999429
299.9999972
299.9999559
299.9999402
299.9999463
299.9999459
299.9999422
299.9999402
299.9999672
299.9999975
299.999973
299.9999983
299.9999995
299.9999993
299.9999996
299.9999995
299.9999889
299.9999777
299.9999828
299.9999652
299.999992
299.9999727
299.9999547
299.9999997
299.9999241
299.9999441
299.9999034
299.9999127
299.9999872
299.9999231
299.9999953
299.9999985
299.9999937
299.9999981
299.9999822
299.9999946
299.9999906
299.9999883
299.9999982
299.9999992
299.9999983
299.9999992
299.9999984
299.9999991
299.9999826
299.9999852
299.9999966
299.9999976
299.9999789
299.9999797
299.9999815
299.9999784
299.9999787
299.9999807
299.9999886
299.9999923
299.999992
299.9999899
299.9999921
299.9999935
299.9999903
299.9999913
299.9999923
299.9999903
299.9999909
300.0000214
299.99999
299.9999906
299.9999944
299.9999906
299.9999981
299.9999944
299.9999969
299.9999992
299.9999994
299.9999935
299.9999827
299.9999638
299.9998992
299.9998946
299.9998762
299.9999875
299.9999988
299.9999996
299.9999977
299.999998
299.9999984
299.9999975
299.9999992
299.9999988
299.9999995
299.9999968
299.9999932
299.9999809
299.9999165
299.9999198
299.9999062
299.9999969
299.9999994
299.9999997
299.9999989
299.9999983
299.9999933
299.9999345
299.9999358
299.99995
299.9999991
299.9999996
299.9999997
299.999999
299.9999989
299.9999705
299.9999877
299.9999794
299.999998
299.9999996
299.9999991
299.999947
299.9999314
299.9999873
299.9999993
299.9999995
299.9999912
299.99995
299.9998746
299.9999997
299.9999995
299.9999994
299.999967
299.9999225
299.9999737
299.999957
299.9999995
299.9999898
299.9999533
299.999891
299.9999355
299.9999991
299.9999819
299.9999385
299.9998487
299.9999029
299.999997
299.9999699
300.0001144
299.9997732
299.9998037
299.9999981
299.9999966
299.9999888
299.9999973
299.9999968
299.9999992
299.9999982
299.9999992
299.9999976
299.9999978
299.9999993
299.9999993
299.9999983
299.9999991
299.999998
299.9999981
299.9999994
299.9999994
299.9999983
299.9999994
299.9999975
299.9999903
299.9999989
299.9999994
299.9999978
299.9999979
299.9999992
299.9999987
299.9999959
299.9999994
299.9999926
299.9999942
299.9999967
299.9999992
299.9999996
299.9999997
299.9999971
299.9999982
299.9999988
299.9999848
299.9999886
299.9999824
299.9999911
299.999984
299.9999974
299.9999994
299.9999989
299.9999994
299.9999938
299.9999969
299.9999983
299.9999917
299.9999941
299.999972
299.9999569
299.9999645
299.9999243
299.9999381
299.9999694
299.9999966
299.9999853
299.9999767
299.9999416
299.9999954
299.999992
299.9999828
299.9999894
299.9999849
299.9999527
299.9999751
299.9999462
299.9999691
299.9999464
299.999962
299.9999067
299.9999869
299.999918
299.9997775
299.9999337
299.9999107
299.9998441
299.9997952
299.9998011
299.9998499
299.99995
299.9998877
299.9999418
299.9998844
299.9999197
299.9999729
299.999993
299.9999648
299.9999284
299.9999613
299.9999167
299.9999415
299.9999085
299.9999299
299.9999475
299.9999564
299.9999865
299.9999453
299.9999006
299.9999441
299.999881
299.9999154
299.9998705
299.9998982
299.9999208
299.9999333
299.9999755
299.9999279
299.9998599
299.9999554
299.9998312
299.9998782
299.9998226
299.9998495
299.9998748
299.9999918
299.9999586
299.9997506
299.9997282
299.9997939
299.999459
299.9997833
299.999483
299.9995364
299.9998272
299.9996008
)
;

boundaryField
{
    walls
    {
        type            zeroGradient;
    }
    wallFilmFace_top
    {
        type            zeroGradient;
    }
    region0_to_wallFilmRegion_wallFilmFace
    {
        type            zeroGradient;
    }
    mirrorFace_top
    {
        type            zeroGradient;
    }
    region0_to_wallFilmRegion_mirrorFace
    {
        type            zeroGradient;
    }
    procBoundary2to0
    {
        type            processor;
        value           nonuniform List<scalar> 
26
(
299.9999939
299.9999961
299.9999975
299.999999
300.0000031
300.0000524
300.0001537
300.0002904
300.0006314
300.0002898
300.000147
300.0000734
300.0000365
299.9999849
299.9999854
299.9999879
299.9999944
300.0000006
300.0000033
300.000004
300.0000042
300.0000043
300.0000042
300.000004
300.0000036
300.0000019
)
;
    }
    procBoundary2to1
    {
        type            processor;
        value           nonuniform List<scalar> 
33
(
299.999995
299.999995
299.9999949
299.9999949
299.9999952
299.9999976
299.9999992
299.9999992
299.9999996
299.9999999
299.9999984
299.9999977
299.9999955
299.9999924
299.9999884
299.9999882
299.9999901
299.9999919
299.9999926
299.9999966
300.0000009
300.000001
300.0000012
300.0000014
300.0000003
300.0000004
300.0000011
300.0000011
300.0000013
300.0000038
300.0000065
300.0000061
300.0000009
)
;
    }
    procBoundary2to3
    {
        type            processor;
        value           nonuniform List<scalar> 
64
(
299.9999997
299.9999988
299.9999996
299.9999998
299.9999997
299.9999993
299.9999976
299.9999866
299.9998972
299.9999981
299.9999989
299.9999985
299.9999992
299.9999989
299.999988
299.9999857
299.9999862
299.999991
299.9999938
299.9999946
299.9999944
300.0000168
300.0000871
300.0001534
300.0001534
300.000126
300.0000462
300.0000462
300.0000201
300.0000462
299.9999995
299.9999995
299.9999995
299.9999995
299.9999995
299.9999983
299.9999988
299.9999981
299.9999977
299.9999995
299.9999991
299.9999826
299.9999692
299.9999515
299.9999228
299.9998279
299.9999984
299.9999994
299.9999993
299.9999994
299.9999988
299.9999997
299.9999998
299.9999996
299.999999
299.9999984
299.9999932
299.9999939
299.9999703
299.9999163
299.9999615
299.9999388
299.9998963
299.9996641
)
;
    }
}


// ************************************************************************* //
