/*--------------------------------*- C++ -*----------------------------------*\
  =========                 |
  \\      /  F ield         | OpenFOAM: The Open Source CFD Toolbox
   \\    /   O peration     | Website:  https://openfoam.org
    \\  /    A nd           | Version:  8
     \\/     M anipulation  |
\*---------------------------------------------------------------------------*/
FoamFile
{
    version     2.0;
    format      ascii;
    class       volScalarField;
    location    "1.8";
    object      alphat;
}
// * * * * * * * * * * * * * * * * * * * * * * * * * * * * * * * * * * * * * //

dimensions      [1 -1 -1 0 0 0 0];

internalField   nonuniform List<scalar> 
67286
(
0.0001529002518
0.0002395563111
0.0003704363564
0.0004989367202
0.0005671940614
0.0004287630551
0.0002361692287
0.0001802326909
0.0001701388049
0.0001696134279
0.0001754843679
0.0001874685229
0.0002040798586
0.0002243533452
0.0002489213952
0.0002781444864
0.000308729092
0.0003379732566
0.0003653024675
0.0003898680529
0.0004132924061
0.000438983801
0.0003650639731
0.0003020265143
0.0002585380211
0.0002447899125
0.0002593550145
0.0002767261398
0.0001276916479
0.0001649485974
0.0002271403715
0.0003355432745
0.0004214013474
0.0002402903857
0.000193281713
0.0001827897504
0.0001750551686
0.0001737676717
0.0001801065215
0.0001927769011
0.0002086576303
0.0002254222917
0.000242848182
0.0002626230726
0.0002874552201
0.0003187180235
0.000358634522
0.0003985677018
0.0004126680603
0.0004270388999
0.0003574645492
0.0002998597211
0.0002686355481
0.0002569737238
0.0002556333159
0.0002601154093
0.0002680879621
0.000263146925
0.0002548720652
0.0002461864405
0.0001508317502
0.0002204093636
0.0002816525064
0.0002316757515
0.0002665567217
0.0001986299073
0.0001966697478
0.0001895690555
0.0001805614946
0.000178648832
0.000186306813
0.0002005302386
0.0002173966026
0.0002338240068
0.0002488418367
0.0002631891882
0.0002795829624
0.0003038027026
0.000341622163
0.0003895560176
0.0004322932325
0.0004636213245
0.0004079007223
0.0003320715362
0.0002922821863
0.000276126472
0.0002664738864
0.0002591563148
0.0002539744556
0.0002484880071
0.0002419975401
0.0002349973019
0.0002355743926
0.0003337863369
0.0003989848428
0.0003430820746
0.0002331495833
0.0002109689572
0.000208759525
0.0002031983595
0.0001902479695
0.00018506158
0.0001926683082
0.0002073222498
0.0002247751065
0.0002417949368
0.0002575177853
0.0002727950452
0.0002899278959
0.0003124307908
0.0003423851429
0.0003796451536
0.0004174284211
0.0004433823433
0.000408187968
0.0003479818227
0.0003098120877
0.0002938434522
0.0002819689101
0.0002689481217
0.0002555704012
0.0002431376036
0.0002323001358
0.0002239244232
0.0002201195063
0.0003360658632
0.0004423514461
0.0005077132484
0.0004778804534
0.0003371938875
0.0002521747809
0.0002361446939
0.0002311899744
0.0002119856941
0.0001979772323
0.0002002229192
0.0002124023506
0.0002290856292
0.0002458497588
0.0002612786199
0.0002750568713
0.0002877982105
0.0003014091466
0.0003191813226
0.0003439009048
0.0003727962359
0.0003951607054
0.0003708593528
0.0003326962072
0.0003142446115
0.0003032642765
0.0002921601897
0.0002780704864
0.0002608933376
0.0002438153097
0.0002293084845
0.000219472486
0.0002141512674
0.0004555379399
0.0005703554779
0.0006036870387
0.0005783086546
0.0004646259688
0.0003261266924
0.0002743111608
0.0002703817895
0.0002481384775
0.0002221238494
0.0002102648007
0.0002157415759
0.0002295115218
0.0002442018403
0.0002585906258
0.0002723990197
0.0002851234712
0.0002957613263
0.0003043998434
0.0003147743451
0.0003285788618
0.0003413873125
0.0003309131463
0.000315258383
0.0003090234065
0.0003020787899
0.0003064437937
0.0002980765033
0.0002791645901
0.000259288885
0.0002403567089
0.000227864481
0.0002224702074
0.0003777751125
0.0004920493839
0.0005402370258
0.0004909372048
0.0003052305697
0.0002986281873
0.0003140461804
0.0003139575178
0.0002929865544
0.0002565350858
0.0002253433721
0.0002231261043
0.0002335095809
0.0002431959051
0.0002505631061
0.0002561323642
0.0002608865279
0.0002660905843
0.0002731527971
0.0002810192719
0.0002890914445
0.0002965502561
0.0003009105523
0.0003150168221
0.0003281742934
0.0003308918858
0.0003563422895
0.0003518967198
0.0003299153888
0.000307548113
0.0002769760894
0.0002535628415
0.0002420413581
0.0002926785595
0.0003961569444
0.0004264064212
0.0003563967127
0.000312108908
0.0003383024968
0.0003574594209
0.0003597149031
0.000339059204
0.0002900964497
0.0002416753567
0.0002367687853
0.0002481586555
0.0002575179136
0.0002626201204
0.0002635247467
0.0002608059205
0.0002565989215
0.0002560240137
0.000264779029
0.0002850245873
0.000314509525
0.0003482325019
0.0003787236683
0.0004021613188
0.0004085133422
0.0004275595936
0.0004173998712
0.0003929180577
0.0003772350716
0.0003346238228
0.0002921491923
0.0002667890971
0.0002178344308
0.0003070904112
0.0003383976428
0.0003287510386
0.0003538914493
0.0003785072401
0.0003932177035
0.0003923567521
0.0003681717052
0.0003056269406
0.0002519252134
0.0002519170975
0.0002662142149
0.0002781456616
0.0002865786031
0.0002904989717
0.0002886524051
0.0002836335728
0.0002869359259
0.0003070616182
0.000341696036
0.0003814183294
0.0004191700524
0.0004528654118
0.0004821436873
0.0004809495198
0.0004864313487
0.0004724705241
0.0004503246166
0.0004570318606
0.0004070102428
0.0003425078924
0.0002959006603
0.0001790560714
0.0002507342555
0.0002920607776
0.0003202087005
0.0003521016377
0.0003773782492
0.0003906075346
0.0003861164039
0.0003543336744
0.0002845814594
0.0002555930355
0.0002661748051
0.0002821565709
0.0002957517852
0.0003052176965
0.0003105245875
0.000311607838
0.000311217386
0.0003206260472
0.000350269617
0.0003914399075
0.0004334725626
0.0004711480969
0.000502352238
0.0005252631996
0.0005205231801
0.0005197106278
0.0005091613925
0.0005047366124
0.0005533221217
0.0004989894392
0.00040980292
0.0003337842923
0.0001772657976
0.0002344315836
0.000273068142
0.0003055405448
0.0003348992087
0.0003574861824
0.0003670368107
0.000356406246
0.0003159561933
0.0002672391332
0.0002641910258
0.0002789978319
0.0002953844931
0.0003078806504
0.0003162289262
0.0003215972013
0.0003256139655
0.0003326593302
0.000350921352
0.0003835952824
0.0004232695145
0.0004624888165
0.0004967750257
0.0005233454277
0.0005410893936
0.0005327579444
0.0005304702837
0.0005312347086
0.0005764461808
0.000673720362
0.0006149384717
0.000500390825
0.0003893852431
0.0001956731333
0.0002420535795
0.0002693929568
0.0002933979574
0.0003150206923
0.0003312729951
0.0003357817227
0.0003217424112
0.0002883797968
0.0002697439425
0.0002752170567
0.0002906760515
0.0003063421425
0.0003176455869
0.0003256752289
0.0003316534182
0.0003379148073
0.0003493917261
0.0003714815759
0.0004029817254
0.000438013818
0.0004735748988
0.000507640907
0.00054102351
0.0005682949183
0.0005464062865
0.0005248239257
0.0005781245088
0.0007112290365
0.0008166387925
0.0007475609423
0.0006147701846
0.0004727111437
0.0002021994168
0.0002481618785
0.0002698622523
0.0002868950215
0.0003009583029
0.0003096848196
0.0003094171236
0.0002978857992
0.0002839736959
0.0002803952529
0.0002857394194
0.0002986516116
0.0003112652582
0.000320674449
0.0003274868739
0.0003320342815
0.0003353611992
0.0003412585378
0.0003572911638
0.0003870012448
0.000422704596
0.0004575208895
0.000488467664
0.0005163675801
0.000542592964
0.0005270459586
0.0004956205406
0.0004870691988
0.0005893883424
0.0007451987309
0.0006294380372
0.0004749494909
0.0003589725892
0.0002012420536
0.0002488363747
0.0002698522811
0.0002850967878
0.0002973941411
0.0003054297558
0.0003095333582
0.0003106248105
0.0003093809288
0.0003036828395
0.0002986514526
0.0003023295731
0.0003111960455
0.0003194588451
0.0003255591249
0.0003291793154
0.0003304537516
0.0003316620068
0.0003401892138
0.0003639928855
0.0003975908267
0.0004310153188
0.0004590157191
0.0004801702443
0.0004939953393
0.0004678822769
0.000453537414
0.0004236583388
0.0004415055003
0.0006078480318
0.0004770425482
0.0003604225712
0.0003114809944
0.0001988971302
0.0002480216833
0.0002708571211
0.000288373693
0.0003040638321
0.0003167771173
0.0003273192534
0.0003348185352
0.0003360499395
0.0003275499229
0.0003125731078
0.0003035862302
0.0003070784187
0.0003148227244
0.000320670633
0.0003236254087
0.0003233774567
0.0003208593317
0.0003222340537
0.000338463702
0.0003674253874
0.0003972715938
0.000422147827
0.0004374386756
0.0004379715192
0.0004032282774
0.0004064393437
0.0003668918566
0.0003389110664
0.0004658503342
0.000357090531
0.0003102414449
0.0003031045127
0.0001958211688
0.0002462483073
0.0002715353635
0.0002918741239
0.0003105054157
0.0003258183761
0.000337986956
0.0003459370168
0.0003472613628
0.0003389614998
0.0003205602746
0.0003021838998
0.0002995150923
0.0003069991792
0.000312955
0.0003153999032
0.000313994882
0.0003086615139
0.0003032235921
0.0003094328954
0.0003321094505
0.000358370091
0.000379674503
0.0003880272749
0.0003749327616
0.0003425667737
0.0003558787344
0.00031465691
0.0002926880786
0.0003524346208
0.0003074866389
0.0003001723834
0.00030107739
0.0001910967442
0.0002417440397
0.0002689189398
0.0002912431429
0.0003113777294
0.0003279138127
0.0003405665025
0.0003485697857
0.000350059566
0.0003420978271
0.0003222572929
0.0002978127661
0.000289678227
0.0002966800356
0.0003028279354
0.0003047817055
0.0003023771096
0.0002951850278
0.0002852731345
0.0002826916136
0.0002963942386
0.0003168044075
0.0003332939427
0.000335162895
0.000315660077
0.000295360755
0.0003079892342
0.0002839236945
0.0002819732542
0.0003027334594
0.0002969649954
0.0002976241553
0.0002987859012
0.0001846401447
0.0002336247922
0.000261446617
0.0002848523652
0.0003055577003
0.0003229035783
0.0003359489454
0.0003440607884
0.0003455781673
0.0003375818841
0.0003170378797
0.0002899178063
0.0002791711542
0.0002847003589
0.0002907306606
0.000292144387
0.0002888344491
0.0002806024313
0.0002690902079
0.0002624733708
0.0002681603445
0.000280738262
0.0002910682563
0.0002901743802
0.0002763701086
0.0002695773063
0.0002776811085
0.0002737734547
0.0002805180766
0.0002914158159
0.0002931675934
0.0002948655467
0.0002945892825
0.0001774347375
0.0002227121239
0.0002493944895
0.0002727939971
0.0002934560866
0.0003113182207
0.0003247680482
0.0003329674958
0.0003343152158
0.0003259971216
0.000305357771
0.0002791436923
0.0002682900759
0.0002722545015
0.0002770648788
0.0002778658922
0.0002740497778
0.0002659680892
0.0002557869634
0.0002490722387
0.0002506509157
0.0002575786519
0.0002639096893
0.0002650508222
0.0002623586844
0.0002651727753
0.0002705804037
0.0002729710716
0.0002770341884
0.000286824213
0.0002892352245
0.0002913357015
0.0002940778208
0.000170904849
0.0002111950511
0.000234644673
0.0002564310314
0.0002764871276
0.000294000263
0.0003077768064
0.0003160738322
0.0003171941561
0.0003086065127
0.0002888402407
0.0002664488577
0.0002575596311
0.0002614065079
0.0002661394325
0.0002678740171
0.0002658779294
0.0002595160882
0.0002496152665
0.0002421345744
0.0002428183902
0.0002484666045
0.0002564846718
0.0002679621801
0.0002863605665
0.0003113424729
0.0003254362536
0.0002852536484
0.0002727196221
0.000281364817
0.0002845044461
0.0002904552913
0.0003364335797
0.0001660920814
0.0002016276317
0.000220389525
0.0002384287603
0.0002563094998
0.0002727402671
0.0002860555601
0.000294442327
0.0002955673179
0.0002873743354
0.0002706336769
0.0002543380644
0.0002521962978
0.0002634008122
0.0002790785902
0.0002952893277
0.000305934184
0.0003006582672
0.0002733878512
0.0002437367431
0.0002428427044
0.0002538266279
0.000274913367
0.0003079937662
0.0003493576661
0.0003878837466
0.0004029971609
0.000334761623
0.0002871267778
0.0002756106509
0.000278940272
0.0002917057545
0.0003712417664
0.0001631929894
0.0001954542512
0.0002097742752
0.000222713141
0.0002362225659
0.0002498941788
0.0002619272876
0.000269915563
0.0002714049653
0.0002648821124
0.0002528558397
0.0002461311211
0.0002564644553
0.0002812650426
0.0003118472259
0.0003410099051
0.000359015822
0.0003529957434
0.0003114004821
0.0002512497237
0.0002468625387
0.0002657407047
0.0002994709311
0.0003436145462
0.0003897884939
0.0004271073715
0.0004395496691
0.0003803242813
0.0003205821371
0.0002806334754
0.0002733995092
0.0002805730232
0.0003183772106
0.0001616549507
0.0001923095981
0.0002038098251
0.0002122860169
0.0002204055707
0.0002291762398
0.0002379498432
0.0002445536743
0.0002463542575
0.0002422235399
0.0002361961478
0.0002395614894
0.0002606455779
0.0002943581915
0.0003316372064
0.0003648361661
0.000384886645
0.0003789871679
0.0003324665866
0.0002558318123
0.0002488118926
0.000271071602
0.00030859214
0.0003541627351
0.0003993151291
0.0004353939718
0.0004480557495
0.0003958972495
0.0003362414213
0.0002858144874
0.0002690450215
0.0002731252271
0.0002840111497
0.0001605011251
0.0001906408446
0.000201001935
0.0002068940009
0.0002107665081
0.0002142163717
0.000217984284
0.0002213077402
0.000222358477
0.0002204767574
0.0002197662897
0.000229481106
0.0002549934353
0.0002911150326
0.0003291692256
0.0003621461362
0.000381872051
0.0003759680941
0.0003289499898
0.0002536861122
0.0002467261435
0.0002668252231
0.0003009915883
0.0003434034176
0.0003856869237
0.0004204140241
0.0004348958551
0.0003836463474
0.0003282509955
0.0002807800092
0.0002640356959
0.0002674062155
0.0002709326614
0.0001585760866
0.0001886481219
0.0001988971353
0.000203823595
0.000205411186
0.0002050766599
0.0002040901692
0.0002030726462
0.0002018598124
0.000200796839
0.0002030720096
0.0002145828435
0.0002389053799
0.0002728722597
0.0003088848395
0.0003397011047
0.0003577429449
0.0003515127023
0.0003073911583
0.0002466361259
0.0002420039812
0.0002569841862
0.0002834428611
0.0003190634296
0.0003571380315
0.0003898550325
0.0004064734164
0.0003519983406
0.0003048740656
0.0002679941023
0.000257681859
0.0002615087555
0.0002637026055
0.00015465759
0.0001847443817
0.0001953479737
0.0002001956551
0.0002009127656
0.0001985979529
0.0001944507191
0.0001896785458
0.0001855044041
0.0001836032168
0.000186540405
0.000197083431
0.0002169904852
0.0002453815354
0.0002771883891
0.000304949208
0.0003207632489
0.0003145464967
0.0002779998329
0.0002375147687
0.0002361259749
0.0002460217329
0.0002634543226
0.0002891838648
0.000320488673
0.0003504506386
0.0003688595152
0.0003105375508
0.0002770787593
0.0002538296785
0.0002505252572
0.0002547250807
0.0002564602237
0.0001474186584
0.0001776238353
0.0001887894527
0.0001939330206
0.0001944954204
0.0001913457361
0.0001855036434
0.000178282983
0.0001716624952
0.000168418983
0.000170992705
0.0001799291635
0.000194842898
0.0002156730828
0.0002404752042
0.0002636054301
0.0002771614939
0.0002726773299
0.0002480676456
0.0002275997842
0.0002291042172
0.0002356470463
0.0002458422564
0.0002614186176
0.0002828464912
0.0003067743624
0.0003242526432
0.0002726477646
0.0002535754535
0.0002415012591
0.0002425888939
0.0002466768466
0.0002480399112
0.0001355354638
0.0001662809099
0.0001782010485
0.0001837260901
0.0001843867633
0.0001809559188
0.0001743846484
0.0001661443302
0.000158844472
0.0001558691276
0.000158909329
0.0001667103453
0.0001775292257
0.0001910363425
0.0002071185022
0.0002232526904
0.0002338862297
0.0002331129822
0.00022221724
0.0002162447939
0.0002195619074
0.0002245085928
0.0002306206625
0.0002389231904
0.0002507359211
0.0002656805581
0.0002780672277
0.0002441203832
0.0002360355516
0.0002304296352
0.0002333989205
0.0002371162924
0.000238166708
0.0001186485587
0.0001499291787
0.0001625970159
0.0001683784099
0.000169104227
0.0001656607427
0.0001592754933
0.0001521118939
0.0001474954714
0.0001480314002
0.0001531390447
0.000160432442
0.0001683337792
0.0001764767601
0.0001850630187
0.0001936839471
0.0002002954777
0.0002022988028
0.0002007680087
0.0002015193082
0.0002051192531
0.0002092168865
0.0002135929471
0.0002183825498
0.0002241521677
0.0002312179032
0.0002372911675
0.0002218693478
0.0002198953963
0.0002180374642
0.0002216150079
0.0002249928634
0.0002259255288
0.0001009368032
0.0001269077345
0.0001379831701
0.0001430796751
0.0001437178107
0.0001408951787
0.000136479645
0.0001335060442
0.0001346806266
0.0001399706844
0.0001471473064
0.0001542051578
0.0001602721058
0.0001652258292
0.0001692468184
0.0001725033322
0.0001748564215
0.00017595572
0.0001762040738
0.0001770316704
0.0001788106861
0.0001813702148
0.000184605521
0.0001881077115
0.000191534112
0.0001946961656
0.0001970197767
0.0001931341854
0.0001940161035
0.0001946694174
0.0001978689772
0.0002007524019
0.0002020821006
0.0001292148534
0.0002959280708
0.000292266069
0.0005125160643
0.0009256611715
0.0008768143777
0.0005942678896
0.000625581576
0.0006029584935
0.0005591277153
0.0005197870056
0.0005085605634
0.0005498035881
0.0006450462157
0.0007974100423
0.001012561788
0.00128632832
0.001597398558
0.001840822303
0.002024419535
0.002119957777
0.002092432855
0.001783885022
0.001212791622
0.001010930464
0.001051979939
0.001222654195
0.001408389989
0.0001252181097
0.0002589025288
0.0002892519925
0.0003631716239
0.0005076379086
0.000563818235
0.0006760202008
0.0006965340749
0.0006293113084
0.000566999602
0.0005248589907
0.0005257384088
0.0005788919092
0.0006826922255
0.0008310003029
0.001022090428
0.001263130214
0.001577757659
0.001853971645
0.002039126436
0.002145597342
0.002144524808
0.00201070914
0.001386200554
0.001137299277
0.001132160978
0.001228214181
0.001341860489
0.001399282093
0.001363879383
0.001290734664
0.001213510549
0.0001282108572
0.0002745049413
0.0003540580643
0.0004788524081
0.0006002816443
0.0007467840493
0.0007692137952
0.000731786075
0.0006487276535
0.0005706177985
0.0005194152177
0.0005195670921
0.0005779271242
0.0006921655398
0.0008521687778
0.001042140961
0.001255778223
0.001503750679
0.001758313898
0.001968796917
0.002052380434
0.002065099767
0.002028255579
0.001673763565
0.001342315613
0.001258899434
0.001258623539
0.001268645832
0.0012494084
0.001209195796
0.001151635851
0.001097901301
0.0001531626562
0.0003320970502
0.0006130236984
0.0006560461205
0.0006625002604
0.0007204191401
0.0007343023708
0.000698194454
0.0006239131731
0.0005464203274
0.0004963633678
0.0004993620443
0.0005576450857
0.0006642700085
0.0008051230469
0.0009659645368
0.001142393016
0.001330111154
0.00154271663
0.001757100623
0.001893405684
0.001925444023
0.001896998167
0.001659368635
0.001433503659
0.00133041019
0.001277205861
0.00121715315
0.001138504116
0.001053539833
0.0009750690252
0.0009230483631
0.000922006158
0.0001962172565
0.0008225736237
0.001234703246
0.001229530797
0.001017992472
0.000747949265
0.0007070208421
0.0006668174967
0.0005897007779
0.0005129769112
0.0004719925815
0.0004840344979
0.0005488406832
0.000660169415
0.0007988409525
0.0009390066712
0.001066816124
0.001191079304
0.001333614126
0.001493253826
0.001627554124
0.001675360896
0.00166073192
0.001506351098
0.001379511582
0.001308281685
0.001222685578
0.001109024727
0.0009862069872
0.000877508512
0.0007980871254
0.000748932982
0.0007315844935
0.0003642378733
0.001185356977
0.001451889747
0.001417205436
0.001146087025
0.0007069190387
0.0006470435969
0.0006540583291
0.000583247412
0.0005046934632
0.0004668933251
0.0004800175636
0.0005423224557
0.0006497011866
0.0007837678166
0.0009144165063
0.001020405282
0.001106010456
0.001191741452
0.001283741913
0.001369524821
0.001417905376
0.001421398268
0.001370364924
0.001299148059
0.00122376877
0.001089043356
0.0009509426672
0.0008247412261
0.0007333070074
0.0006871092234
0.0006552825443
0.000650371522
0.000266019907
0.0009464230075
0.001299965755
0.001278812024
0.0009603631118
0.0007282418843
0.0008018361812
0.0007866503867
0.0007042381929
0.000578888948
0.0005019732364
0.0004952883433
0.000539727839
0.0006233793221
0.0007290730808
0.0008319651424
0.0009114392033
0.0009653585998
0.001005870214
0.0010441568
0.001077325216
0.001104133165
0.001134503778
0.001164026554
0.001158604528
0.001150603001
0.001021088212
0.0008985639699
0.0007845436652
0.0007148506507
0.0008011091137
0.0006949811765
0.000695312674
0.0001868555
0.0003963881585
0.0006661424415
0.0007187676619
0.0007046512362
0.0008492402098
0.0009623523837
0.0009777965816
0.0008965693891
0.0007419957637
0.0005859945928
0.0005463516803
0.0005742590058
0.0006367917314
0.0007135311146
0.0007844381863
0.0008303183818
0.000847004284
0.0008542966091
0.0008998529605
0.000865645796
0.0008945111811
0.0009774377253
0.001110421027
0.001262511337
0.001270583822
0.001192880329
0.001099462208
0.0009780338698
0.0008490859374
0.0008000432205
0.0007851631114
0.0008139650246
0.0001590553295
0.0002828627088
0.0004060951352
0.0005768134113
0.0007980200303
0.0009842079448
0.001097093936
0.001113221189
0.001038307812
0.0008813882792
0.0006845221239
0.0006418275116
0.0007008921445
0.0008070929225
0.0009126400891
0.0009999681503
0.001045652187
0.001028629599
0.0009462794769
0.0008926429709
0.0009095356382
0.001024939058
0.001245259318
0.001466675753
0.001615876413
0.00153054001
0.001434233193
0.001360033853
0.001276792717
0.001143393889
0.001005151882
0.0009399412849
0.0009607227667
0.0001518968831
0.0002997625578
0.0004343962019
0.0006654165845
0.0009163895441
0.001083134335
0.001175551632
0.001186861314
0.00112041329
0.0009609768173
0.000772466531
0.0007485223073
0.0008245237609
0.0009073070853
0.0009889461186
0.001060003844
0.001113724003
0.001144325323
0.001145061127
0.001130382911
0.001168572759
0.001263255258
0.001405077156
0.001569501214
0.001686866437
0.001620711841
0.001553824819
0.001536592043
0.001539751387
0.001458992801
0.001300562476
0.001124328919
0.001090287229
0.0001602919922
0.0003589595779
0.0005277360743
0.0007627072204
0.0009846353794
0.001120867229
0.001193584349
0.001198533678
0.00112865177
0.0009549907829
0.0008199031731
0.0008298277765
0.000887629536
0.0009373582826
0.0009903311937
0.001045373638
0.001096475411
0.001136973615
0.001158447592
0.00116618663
0.001201525347
0.001296058019
0.001431210497
0.001568511163
0.0016622215
0.001653118264
0.001608579462
0.001674579236
0.001810146317
0.001786148663
0.001653258569
0.00132319423
0.001204684651
0.0001786935893
0.0004441719056
0.000650967797
0.0008606932182
0.001025177302
0.0011269863
0.001180039515
0.001177245338
0.001100507597
0.0009481572167
0.0008731547735
0.000895557478
0.0009140473001
0.00093680354
0.0009697267833
0.001009300906
0.00105054462
0.001087958773
0.001115043965
0.001141532465
0.001176939292
0.001271963001
0.001416291108
0.001572982656
0.001639959589
0.001758065692
0.001679043012
0.001714701715
0.001878970312
0.001898745468
0.001831602286
0.001363006648
0.001173105566
0.0001877819693
0.0005114491143
0.0007408706254
0.000927785273
0.00104779203
0.001124104228
0.001161311114
0.00115113649
0.001076501985
0.0009856908513
0.0009440209309
0.0009375018955
0.000929155958
0.0009309677826
0.0009475030143
0.0009748299173
0.001009061544
0.001047291365
0.001081939633
0.001109362701
0.001140387524
0.001219147785
0.001343727662
0.001499605896
0.001630866958
0.001613943498
0.001546774052
0.001563599889
0.001718475739
0.001768489962
0.001616760544
0.001296577435
0.001223447481
0.0001895608927
0.0005422583668
0.0007797013883
0.0009564891613
0.001052594441
0.001113826213
0.001142649331
0.001137487674
0.001100334571
0.001051390959
0.001008647759
0.0009734921612
0.0009442482281
0.0009281665662
0.0009294310168
0.0009454214623
0.0009725360549
0.001008787136
0.001047153276
0.001075300176
0.001096225418
0.001140719803
0.001223815598
0.001326865835
0.001430261728
0.001420757164
0.00132592998
0.001235456115
0.001332772412
0.001323899411
0.001288313583
0.001239673537
0.001244407705
0.0001884932513
0.0005392320362
0.0007732843799
0.0009506012563
0.001036982025
0.001090047988
0.001114359342
0.00111366948
0.001093665998
0.001064070347
0.001029825675
0.0009905360016
0.000951376313
0.0009231546364
0.0009118692243
0.0009170143144
0.0009358257381
0.0009661228113
0.001001280729
0.001025045771
0.001033150073
0.00104908863
0.001090937296
0.001152339382
0.001216697917
0.001227433006
0.001169940778
0.001085544725
0.001168069245
0.001146793387
0.001198048405
0.001207480346
0.001200232925
0.000185650589
0.0005161080133
0.0007355340255
0.0009157364682
0.001004143881
0.00105739126
0.001084153202
0.001090785783
0.001081809082
0.001061563639
0.001031222066
0.0009898815517
0.0009445207858
0.0009099369585
0.0008912001668
0.0008875900467
0.0008982277036
0.0009209644083
0.0009505452305
0.0009721821728
0.000973813224
0.0009714099287
0.0009822898024
0.001017113715
0.001063178899
0.001062787795
0.001061015295
0.001066977645
0.001159981489
0.00114362534
0.001167704313
0.001162507334
0.001166806876
0.0001813982762
0.0004845197151
0.0006794130536
0.0008556608106
0.0009560265739
0.00101536298
0.001048907932
0.00106375786
0.001062371796
0.001045760701
0.001013538426
0.0009661728714
0.0009156870388
0.0008850637254
0.000867411507
0.0008594115472
0.0008640061529
0.0008798383207
0.0009014264872
0.0009141934347
0.0009154667897
0.0009192673198
0.0009267602339
0.0009497599748
0.0009820539901
0.001006421568
0.001036003194
0.001096411417
0.001154711403
0.001133944756
0.001120455751
0.001116762133
0.001142738154
0.000176452276
0.0004537452952
0.0006185554927
0.0007784806549
0.000894161941
0.000959632136
0.001000409338
0.001022181693
0.001025572314
0.001009243209
0.0009719213514
0.0009155290362
0.000855979189
0.0008482638281
0.0008433299019
0.0008373831426
0.0008395395684
0.0008502468509
0.0008637963311
0.0008643261558
0.0008663968162
0.0008840423099
0.0009082155703
0.000938766383
0.0009764949853
0.001025015836
0.001061150549
0.001114922189
0.001120814207
0.001096701262
0.001077390594
0.001083362682
0.001127444387
0.0001717387911
0.0004310543669
0.0005670936028
0.0006989263445
0.0008199971586
0.0008884068716
0.0009334014438
0.0009588934382
0.0009644073881
0.0009469890811
0.0009043860402
0.0008364930913
0.0007820149778
0.0007949733019
0.0008168650974
0.0008211420046
0.0008243918879
0.0008290067405
0.0008305776086
0.0008320455725
0.0008425519903
0.0008701733313
0.000902960788
0.000943464695
0.000991165094
0.001039164167
0.001065324178
0.001106659454
0.001096997853
0.001065908576
0.00104614356
0.001063140878
0.001120152664
0.000168005249
0.0004206161471
0.0005367175195
0.0006359645451
0.0007335122189
0.0008095505184
0.0008504065158
0.0008745121112
0.000879078515
0.0008603075975
0.000815612093
0.0007461785537
0.0007119204144
0.0007344628169
0.0007697666441
0.0007950536414
0.0008100903365
0.0008107703069
0.0008043256125
0.0008088401029
0.0008243358046
0.0008568679891
0.0008888136066
0.0009220163695
0.0009650620665
0.001006838271
0.001029682469
0.001083159915
0.001083498361
0.001046802915
0.001022591679
0.001039479687
0.001031695856
0.000165556365
0.000422358902
0.0005317670386
0.0006063918045
0.0006686633814
0.0007237334858
0.0007640142358
0.0007799461019
0.0007786838157
0.0007581378397
0.0007104088017
0.0006620054841
0.000652446118
0.0006894398977
0.0007488967957
0.0008045872492
0.0008348091776
0.0008302138108
0.0008016415113
0.0007813016604
0.0007900452742
0.0008261081243
0.0008551900379
0.0008904869329
0.0009559195597
0.001016180254
0.001032186116
0.001058417111
0.001055881768
0.001026249764
0.001000599821
0.001017272057
0.0009793983173
0.0001642108209
0.0004328747126
0.0005474517544
0.0006111942353
0.0006447176363
0.0006623287725
0.0006729125323
0.0006754634257
0.0006658007641
0.0006415623007
0.000608919607
0.0005899193321
0.0006070211368
0.0006680123574
0.0007529232363
0.0008375486057
0.000892328584
0.0008835297325
0.00082068236
0.0007548410339
0.0007442408698
0.0007863771013
0.0008250553364
0.0008761077433
0.0009704952502
0.001051183915
0.001061639903
0.001050662426
0.001016258567
0.0009706445427
0.0009620260797
0.0009819763988
0.000927834112
0.0001633632545
0.0004464082023
0.0005727829616
0.0006371396768
0.000655150108
0.0006425746316
0.0006167717269
0.0005889301951
0.000562643342
0.0005387744431
0.0005222470525
0.0005248689542
0.0005609314459
0.0006415847174
0.0007419376862
0.0008503866373
0.0009221111739
0.000910432389
0.0008242503625
0.00072139561
0.0006993486613
0.0007457837452
0.0007987956583
0.0008575115782
0.0009597782011
0.001049836636
0.001059120921
0.001029765079
0.0009682931375
0.0009089688277
0.0009216875784
0.0009521264309
0.0009166245462
0.0001620444909
0.0004555356124
0.0005943991042
0.0006644952779
0.0006771282226
0.000646784137
0.0005938609788
0.0005376360095
0.0004914493606
0.0004617194519
0.0004508321311
0.0004613048367
0.0005004236866
0.0005816766117
0.0006892257914
0.0007989476809
0.0008737021853
0.0008631408743
0.000777481558
0.0006747587044
0.0006634362242
0.0007110714469
0.0007692892628
0.0008229587894
0.0009045743324
0.0009850626382
0.0009960975144
0.000969792803
0.0009047668458
0.0008515086355
0.0008838763255
0.0009273916588
0.0009111394902
0.000158964934
0.0004515093631
0.0005985372669
0.000674169061
0.0006857794023
0.0006465936656
0.0005778694074
0.0005027929216
0.0004408010563
0.000402814835
0.0003904492823
0.0003999421305
0.0004306152988
0.0004925957161
0.0005908993695
0.0006866634467
0.0007515873493
0.0007493718191
0.0006930213827
0.0006244675507
0.0006375037487
0.000683960119
0.0007336852208
0.0007833819119
0.0008322099305
0.0008842458852
0.0008964885198
0.0008878208117
0.000820685599
0.0008014842691
0.0008475134327
0.0009008542223
0.0008997370976
0.0001527060177
0.000425802805
0.0005725730336
0.0006506471828
0.0006623205017
0.0006195804292
0.0005442940649
0.0004615626473
0.0003932366319
0.0003516733767
0.0003379757093
0.0003454660255
0.0003672662735
0.0004054439768
0.0004687894345
0.0005488462142
0.0006069801213
0.0006181953735
0.0005886762044
0.0005776472974
0.0006118564032
0.0006566132313
0.0006958569605
0.0007359039378
0.0007719589511
0.0007976990781
0.0008075867633
0.000815127493
0.0007482334941
0.0007540418008
0.000805443105
0.0008660183417
0.0008747584187
0.0001421500307
0.0003744138661
0.0005084945047
0.0005837879487
0.0005962410239
0.0005555359996
0.0004834478904
0.0004055561964
0.0003433658424
0.0003076780817
0.0002978466605
0.0003061438328
0.0003238325949
0.0003474770317
0.000380823206
0.0004255952104
0.0004691883935
0.0004931667992
0.0005024050912
0.0005279301521
0.0005693659021
0.0006105301437
0.0006437732212
0.0006710372874
0.0006989225264
0.0007301354372
0.0007396056402
0.0007328698758
0.0006860718448
0.0006991656238
0.0007506594974
0.0008132628389