/*--------------------------------*- C++ -*----------------------------------*\
  =========                 |
  \\      /  F ield         | OpenFOAM: The Open Source CFD Toolbox
   \\    /   O peration     | Website:  https://openfoam.org
    \\  /    A nd           | Version:  8
     \\/     M anipulation  |
\*---------------------------------------------------------------------------*/
FoamFile
{
    version     2.0;
    format      ascii;
    class       volScalarField;
    location    "1.8";
    object      k;
}
// * * * * * * * * * * * * * * * * * * * * * * * * * * * * * * * * * * * * * //

dimensions      [0 2 -2 0 0 0 0];

internalField   nonuniform List<scalar> 
67286
(
0.01423625798
0.02968284591
0.07133189167
0.1303773007
0.1691182929
0.09622935081
0.02917997627
0.01702492384
0.01518035313
0.01508124768
0.01613387575
0.0184032556
0.02180087385
0.02633799676
0.03241131404
0.04046813528
0.0498759564
0.05979813547
0.06988051451
0.07960072894
0.08943643007
0.1008838535
0.06969373307
0.04768268386
0.03498073617
0.03141511881
0.03531395021
0.04020685436
0.00999107438
0.01418547907
0.02677116386
0.05853805693
0.09291799445
0.03016456161
0.01958663064
0.01752728635
0.01607247028
0.01582951002
0.01699545971
0.01946414475
0.02280155281
0.02661246853
0.03088090921
0.03610008187
0.04322925171
0.05312698724
0.06728053904
0.08320452953
0.0892482231
0.09562291515
0.06686961477
0.04704280699
0.0378029558
0.03462605059
0.0342825994
0.03550369763
0.03770755406
0.03632126168
0.03407345612
0.03178893164
0.01388566102
0.02534736868
0.04150477815
0.02800517948
0.03699292572
0.02067996912
0.02029059987
0.01885124691
0.01709863353
0.01672931409
0.01818463944
0.02106324229
0.02475899394
0.02864903649
0.03245212536
0.0362979979
0.04093616356
0.04828327723
0.06101498472
0.07940738068
0.0979609964
0.112843192
0.0871606018
0.05771136556
0.04475628344
0.03998244799
0.0372425565
0.03522685635
0.03383536722
0.03238988729
0.03071948372
0.02896706823
0.03385377866
0.05827979836
0.08349693972
0.0616973441
0.0284482945
0.02332421265
0.02285309296
0.02165652874
0.01898097047
0.01794939233
0.01944782348
0.02251660836
0.02647207147
0.03064021863
0.03475968912
0.03900460535
0.04404616059
0.05112723163
0.06138272916
0.07548978967
0.09135172927
0.1031705415
0.0873669891
0.06343512018
0.05031877086
0.04529579335
0.04170838846
0.03793624208
0.03425080728
0.03099796835
0.02829737357
0.02629610902
0.02541804962
0.06915193698
0.1026374176
0.1354245061
0.1199508765
0.059581203
0.03330873509
0.02924058273
0.02804232521
0.02357233193
0.02054454288
0.02100707634
0.02363841969
0.02750320048
0.03168485538
0.03579594092
0.03967767859
0.04343928835
0.04762923437
0.05338153407
0.06194899688
0.07282092529
0.08188854193
0.07212913601
0.05805937964
0.0518262364
0.04827379351
0.04477984931
0.04054223288
0.03567384338
0.03114828048
0.02755283519
0.02524667241
0.02404359425
0.1275569933
0.1711189106
0.1918392048
0.175997246
0.1134994681
0.05582954537
0.0394797682
0.03837885058
0.03231980931
0.02587990889
0.02317656543
0.02439080315
0.02760742618
0.03126287336
0.0350653656
0.03892097971
0.04265391058
0.04590082569
0.04861366386
0.05196343942
0.05660617562
0.06112120553
0.05746762451
0.052183491
0.0501089061
0.04785621958
0.04921823624
0.04652745915
0.04077887927
0.03515458543
0.03021251389
0.02718189257
0.02593340561
0.08745358095
0.1270719141
0.1534021398
0.1266301718
0.04881933837
0.04679093243
0.0517813258
0.05177143252
0.04509217098
0.03455879461
0.02663515837
0.02609225719
0.02858044986
0.03100913673
0.03292433619
0.03441003054
0.03570234249
0.03714150781
0.03913883192
0.04142442047
0.04383317503
0.04611915381
0.04745861757
0.05197243215
0.05634978343
0.05728932602
0.06652785595
0.06484886398
0.0569412961
0.04941015679
0.04005314693
0.03361246947
0.03068065078
0.05230110723
0.08218454218
0.09541001182
0.06658815042
0.0511083184
0.06008435978
0.06711077457
0.06799008532
0.06043156857
0.04424157601
0.0306502135
0.02938332538
0.03228375627
0.03477592552
0.03617664158
0.03643162777
0.03568217916
0.03452543544
0.03433939241
0.03669011397
0.04249011583
0.05173413761
0.06344922678
0.07507212142
0.0846285659
0.08739977623
0.09588043838
0.0913495773
0.08085471386
0.07437314574
0.05842633959
0.0445604793
0.03724443736
0.02893577407
0.04929402928
0.06001216043
0.05670374152
0.06575998003
0.07524725005
0.0812393692
0.08091708156
0.07129117204
0.04913971614
0.03330382276
0.03326626011
0.03715875929
0.04057653407
0.04308366328
0.04428085247
0.04372208398
0.04218440899
0.04311208137
0.04932434487
0.06108719117
0.07617305428
0.09205766338
0.1074678141
0.1217559214
0.1213414247
0.1242404345
0.117160988
0.1062801874
0.1092855544
0.08641551309
0.06115003913
0.04574507503
0.01960975593
0.0328765889
0.04468786072
0.05377961238
0.06506203628
0.07477261163
0.08014369862
0.07834807671
0.06601772064
0.04255430968
0.03425638711
0.0371438961
0.04175084616
0.0458827671
0.04887745754
0.05059930367
0.05094908151
0.0507852791
0.05383249954
0.06422442086
0.08026309241
0.09851153163
0.1164518615
0.1323980438
0.1447112343
0.1422843611
0.1419140966
0.1361353082
0.1335261089
0.1605002304
0.1300210183
0.08745997074
0.05807368652
0.01926953287
0.02878555148
0.03907318542
0.04894605412
0.0588298112
0.06706622756
0.07073493195
0.06673436297
0.052466714
0.03747441956
0.0365961384
0.04081716358
0.04576620158
0.04973398586
0.05247536263
0.05427154782
0.05562037974
0.05801479953
0.06451729336
0.0771038109
0.09394700799
0.1122429377
0.1295617626
0.1438028095
0.1536913768
0.1490637921
0.1478492048
0.1481470573
0.1742054063
0.2385825371
0.1979912377
0.1305449142
0.0788780578
0.02350235676
0.03072567958
0.03805421138
0.04514005653
0.05204645331
0.05757451991
0.05918087137
0.05436426829
0.04367168098
0.03817142651
0.03972056897
0.04431205495
0.04923336127
0.0529464833
0.05566373756
0.05772257143
0.05990302637
0.06400786652
0.07234208315
0.08516187474
0.100668642
0.1177210702
0.1352739073
0.1536526385
0.1696774593
0.1565677432
0.1446116808
0.175350323
0.2661319781
0.3521674655
0.2939728552
0.1979759103
0.1164973375
0.02509299781
0.03230444411
0.03820240133
0.04317690218
0.04751556549
0.05031788268
0.05024544311
0.04658303981
0.04232580663
0.04125199664
0.04282415091
0.04678226677
0.05083335966
0.05396547441
0.05629069327
0.05786551952
0.05901678315
0.06107232582
0.06689998196
0.07849770105
0.09371713853
0.1098518128
0.1252313289
0.1398849771
0.1543841085
0.1453218869
0.1288540232
0.1242674077
0.1818409231
0.2923437264
0.2073440277
0.1173683124
0.06707333387
0.02485002221
0.03247630437
0.03820075482
0.04264301373
0.0464045634
0.04895019052
0.05028274648
0.05065077357
0.05026007606
0.04842514953
0.04680893175
0.0479507273
0.05080972491
0.05355539284
0.05562968368
0.05687809076
0.05731203067
0.05769914573
0.06064330566
0.06940025241
0.08285500286
0.09744113991
0.1105516715
0.1209513695
0.1279022451
0.1145346248
0.1078724992
0.09397948044
0.1015921914
0.1936644733
0.1184542392
0.06759046266
0.05078106445
0.02426939957
0.03225746434
0.03848071783
0.04362697191
0.04851086189
0.05266153136
0.05623880057
0.05886565439
0.05932339353
0.05637379068
0.05131776353
0.04836576761
0.04946769012
0.05200488849
0.05396647488
0.05497280251
0.05488726717
0.05401199262
0.05441205381
0.0599755758
0.07070722524
0.08271626727
0.09344721661
0.1003344998
0.1004651619
0.08500805465
0.08656886029
0.07043077668
0.05987728743
0.1131560361
0.06635254486
0.05036440337
0.0481987181
0.02351931473
0.03178975218
0.03866575458
0.04468616977
0.05058481718
0.05571124587
0.05996709136
0.06284158598
0.06334657786
0.06037464048
0.05399423254
0.04793453708
0.04705295971
0.04944177432
0.05139254622
0.05220763725
0.05174640521
0.04999066213
0.0481931257
0.05010870689
0.05771186651
0.06724248231
0.07552287306
0.07887885563
0.07353673128
0.06132144131
0.06630287577
0.05178787548
0.04482639996
0.06468475889
0.04947758711
0.04726660237
0.04756939773
0.02239315684
0.03062789245
0.03791321719
0.04448336226
0.05086043751
0.05642319038
0.06087985655
0.06379487251
0.06436315493
0.06149025886
0.05457094521
0.04656631906
0.04400753895
0.04616330979
0.04811101123
0.04874336662
0.04798180982
0.04572115996
0.04266978171
0.04183449209
0.04594675701
0.05250288336
0.05814142376
0.05879710422
0.0520956723
0.04561237267
0.04964050359
0.04222035828
0.04169901181
0.04795264652
0.04625830371
0.04648205221
0.04684763493
0.02090265521
0.02859625918
0.0358225457
0.04253829681
0.04896264445
0.05469855536
0.05922702109
0.06214168271
0.0627117097
0.05986374367
0.05280863495
0.04412871162
0.04087126345
0.04250238455
0.04433475451
0.04477618336
0.04377189005
0.04131057175
0.03797278104
0.0360859852
0.03762825243
0.04123065876
0.04433107602
0.04407035409
0.03997574031
0.03805929177
0.04038801819
0.03930624997
0.04128448277
0.04453955294
0.0450968955
0.04562397926
0.04554417467
0.01930360935
0.02598227998
0.03258441299
0.03899740956
0.04514428813
0.05082579639
0.05533235667
0.05818128557
0.05867270019
0.05580768714
0.04897259623
0.0408981211
0.03774308768
0.03886384039
0.040256934
0.04049746624
0.03939694354
0.03710801949
0.03431374037
0.03251559395
0.0329076816
0.03474160835
0.03647353914
0.03680450454
0.03607956739
0.03687717783
0.03839615205
0.03908945042
0.0402590094
0.04316075484
0.04389605093
0.04453700018
0.04535883393
0.01791253808
0.0233659207
0.02883860411
0.03444633311
0.04005741849
0.04530863238
0.04967368814
0.05240737647
0.05279781843
0.04999326855
0.04379880513
0.03724877687
0.03477884478
0.03582465297
0.03714237006
0.03763851292
0.03709042682
0.03534373484
0.03269225879
0.03074469166
0.03090815651
0.03235749208
0.03448097735
0.03764980913
0.0430295176
0.05092305229
0.0557009831
0.04270623058
0.03901135017
0.04153151553
0.04247093475
0.0442393274
0.05912864665
0.01692274919
0.02130361481
0.02544467549
0.02977528146
0.034411433
0.03897580917
0.04288989072
0.04545943941
0.04582452602
0.04333196189
0.03843060883
0.03392388807
0.03333918263
0.03637795006
0.0408708119
0.0458100064
0.0492378741
0.04760115833
0.03933676644
0.03117501771
0.03092292311
0.03377811504
0.0396316584
0.04978312026
0.06413008055
0.07915330477
0.08552273874
0.05892904807
0.04329832842
0.03985106122
0.04081772265
0.04451020992
0.07152029715
0.01634146842
0.02002722984
0.02306291857
0.02598665372
0.02922799927
0.03270947005
0.03594406184
0.03818370885
0.03862056379
0.03679557715
0.03352690747
0.03175123035
0.03446757338
0.04148454575
0.05105525082
0.06113140899
0.06784824593
0.06566697741
0.05111300936
0.03314635942
0.03194812824
0.03700901806
0.04701666625
0.06196233969
0.07982850039
0.09595210357
0.1016955885
0.07609393898
0.05401207373
0.04133473292
0.03921211642
0.0412429488
0.05261707163
0.0160378126
0.01939405531
0.02178049336
0.02362348333
0.02545586688
0.02751391998
0.02965868264
0.03133295393
0.03180505049
0.03075296738
0.02923494959
0.03005600686
0.03557587237
0.04540951086
0.05770566327
0.06992331904
0.07791643694
0.07562952674
0.05823139692
0.03436334854
0.03244214275
0.03848113094
0.04988139087
0.06576928778
0.0837076388
0.09963065641
0.1055927535
0.08237409349
0.05936172337
0.04285406538
0.03797030638
0.039125761
0.04214307333
0.01581107404
0.01906193878
0.02119068088
0.02244924549
0.02329198872
0.02405223749
0.02489758006
0.0256587375
0.02590413901
0.02546827771
0.02529511791
0.02755929526
0.03401698025
0.04436641084
0.0567871077
0.06881703907
0.07660895171
0.07433526554
0.05692926712
0.03377159475
0.03189488373
0.03726609715
0.04740891025
0.06175982794
0.07799570266
0.09278142316
0.09937604848
0.07723776062
0.05648918354
0.04132010937
0.03656258492
0.03751151511
0.03847381514
0.01543407432
0.01866609856
0.02075123691
0.02179269874
0.02213216436
0.02205581195
0.02183723896
0.02161295183
0.0213505968
0.02112188713
0.02159256444
0.02408742118
0.0298361929
0.03893419039
0.04994014346
0.06047302208
0.06714468184
0.06488937535
0.04963487034
0.03190350312
0.03068916841
0.03456887905
0.04201942208
0.05325211674
0.06678484535
0.07967463838
0.0867059902
0.06490969137
0.048667347
0.03762367267
0.03482041388
0.03587321129
0.03647038764
0.01467953908
0.0179005814
0.02001675769
0.02102448893
0.02117630964
0.0206902616
0.01983183792
0.01886487998
0.01803706708
0.01766172835
0.0182207578
0.0203203408
0.02460790214
0.03145746812
0.0401658231
0.04866785584
0.05390768431
0.05188607985
0.04053821641
0.02957718603
0.02922338598
0.03169792889
0.03630999044
0.0437214358
0.05371529903
0.06429221864
0.07130885465
0.05045307897
0.04018060294
0.03375590555
0.03291252159
0.03403238344
0.03449473302
0.01333536583
0.01654541083
0.01869353729
0.01972837188
0.01984478064
0.01920802103
0.01805213327
0.01667101611
0.01545021886
0.01486417248
0.015313001
0.01694373507
0.01985062293
0.0243014291
0.03020834072
0.03632316177
0.04019609007
0.03894243083
0.03224645252
0.02715462201
0.0275152411
0.02909656761
0.03164232754
0.03574418934
0.04182199329
0.049210644
0.0550312443
0.03889008626
0.03367025242
0.0305678118
0.03085955888
0.031912201
0.03226426433
0.0112694994
0.01449736052
0.0166533135
0.01770441983
0.01783398874
0.01717778914
0.01595295437
0.01447916068
0.0132306503
0.01273385877
0.01322979799
0.0145548916
0.01649617054
0.01908698248
0.02242137796
0.02604942402
0.02860698822
0.02844349868
0.02586728006
0.02450973908
0.02527010861
0.02641787806
0.0278647977
0.02988625445
0.03288772974
0.03690748178
0.04044284624
0.03120351399
0.02919386316
0.02783665817
0.0285646912
0.02948456427
0.02974568871
0.008634434725
0.01178394734
0.01386235467
0.01486809577
0.01499842312
0.01439497763
0.01330679033
0.01213531303
0.01140693962
0.01148680183
0.01229116573
0.0134884828
0.01484740666
0.01631320937
0.01793078481
0.01963329739
0.02099788148
0.02143041066
0.02111896375
0.02128379066
0.02205196818
0.02294118673
0.02390827816
0.02498575506
0.02631086185
0.02798020773
0.02946591362
0.02579561557
0.02534733295
0.02492634841
0.02575339732
0.02654777069
0.02676847975
0.006568474762
0.009014225759
0.01065814202
0.01146191928
0.01156587056
0.01111681156
0.01043063871
0.009979367223
0.01015325798
0.0109648857
0.01211820021
0.01330979665
0.01437896852
0.01528199238
0.01603396583
0.01665511289
0.01711150719
0.01732823036
0.01737833952
0.01754110354
0.01789319037
0.0184071814
0.0190686761
0.01979837639
0.02052458834
0.0212046071
0.02171318864
0.02088055747
0.02107420988
0.0212197958
0.02192461962
0.02257224277
0.02287305299
0.01185075673
0.02036916349
0.0290643303
0.08163002723
0.171378907
0.1517822505
0.06079167265
0.0342279508
0.02872026896
0.0271556814
0.02684531928
0.02834497752
0.03238637206
0.03906325141
0.04877651567
0.06205380497
0.07897380785
0.09923658595
0.1202074249
0.1403536725
0.1530249388
0.1554871186
0.1258271514
0.08191745493
0.06410680408
0.06192465922
0.0668408089
0.07132991934
0.01113890061
0.01569701922
0.02063501719
0.03216238929
0.05090434186
0.0513070952
0.03765166326
0.03322041691
0.02974595227
0.02776650073
0.02734873792
0.02927491848
0.03360679941
0.04007999801
0.04851896217
0.05940789619
0.07355528546
0.09199076837
0.1125498965
0.1309228963
0.1469518033
0.1522020658
0.1365250863
0.08909387611
0.06935341624
0.06494899524
0.06601258328
0.06793512526
0.06815328489
0.06472554901
0.06013067097
0.05575863801
0.01166340631
0.01914215588
0.02958539793
0.03503701267
0.0398444602
0.03988533832
0.03755373148
0.03486438719
0.03132192326
0.02869959488
0.02806583923
0.03009579816
0.03472338713
0.04141483844
0.04956930951
0.05902299973
0.07074903278
0.0867851374
0.1080217991
0.1305061515
0.1421933649
0.146482207
0.1432557582
0.1053588009
0.07945105279
0.07077046708
0.06796514016
0.06626152476
0.0638385283
0.06044900122
0.05643026865
0.05264207583
0.01659065479
0.03214563006
0.06234161683
0.06528679865
0.05204042922
0.04247505369
0.03903253825
0.03623471465
0.03232682148
0.02926536433
0.02856874774
0.03080170532
0.03572951062
0.04259972048
0.05057440854
0.05922106905
0.06887342621
0.08038904062
0.09540396319
0.1135587097
0.1279395816
0.1323313197
0.1274116082
0.101821083
0.08398747833
0.07592964866
0.07137953791
0.06702936009
0.06204322687
0.05684517587
0.05193411187
0.04812133563
0.0462194515
0.02722303939
0.104271319
0.170950961
0.1607174413
0.1152310647
0.05925874871
0.04425057824
0.03962529813
0.03448556204
0.03038404927
0.02930908908
0.03152139724
0.03666461386
0.04381861212
0.05187421237
0.05985110025
0.06752574593
0.07560084878
0.08528816909
0.09692722241
0.107917132
0.1118423858
0.1065068168
0.09292250457
0.08413036873
0.07855328921
0.07344136311
0.06698647081
0.05970188765
0.05295167294
0.04751550353
0.04356594237
0.04135634523
0.09413762509
0.1905997958
0.2201426565
0.2046008022
0.1575220717
0.07556397337
0.04972801474
0.04528561199
0.03938241633
0.03392596546
0.03129730545
0.03251829151
0.03718975926
0.04402547698
0.05190019521
0.05961244778
0.06644426273
0.07257303754
0.07875542576
0.08532365463
0.09146724759
0.09487817069
0.09403145642
0.08948728014
0.08544299357
0.08015114681
0.07410123904
0.06610575147
0.05745626263
0.05063845474
0.04564155511
0.04214287532
0.04038937739
0.04993623489
0.1375152588
0.1923683231
0.1808205609
0.1171531534
0.06345879195
0.06114249508
0.05946843772
0.05239655367
0.04342692282
0.03626044459
0.03495196034
0.03838072364
0.04391869494
0.05033353699
0.05666762017
0.06216058469
0.06664133433
0.07054882131
0.07432726423
0.07802050603
0.08134056269
0.08458902362
0.08778588771
0.09001269342
0.08744057749
0.08092884324
0.07305625056
0.06383567887
0.05738392858
0.05849991558
0.04845974159
0.04552277787
0.02460649788
0.04999078348
0.08512002558
0.08919775766
0.06934301048
0.07271120561
0.08283796513
0.08434198708
0.07548730789
0.05984031592
0.04490700444
0.03988242333
0.04201674454
0.04619121548
0.05064501926
0.0547735218
0.05805369587
0.06021753744
0.06228424227
0.06775902146
0.06778753467
0.07353017242
0.08406369336
0.09884693485
0.1143044741
0.1131704247
0.1086747108
0.1000171413
0.08767210879
0.0774700154
0.06824957179
0.05956285677
0.05511691509
0.01789038524
0.03064535177
0.04564219685
0.05965821469
0.07321163462
0.08951546179
0.1002596896
0.101485524
0.09255115207
0.07433358751
0.05381819871
0.04666984854
0.04933902901
0.05471959545
0.06014468056
0.06509249955
0.06880801662
0.07041997866
0.06944075992
0.06974597349
0.07509634458
0.08845608694
0.1115763858
0.1435345394
0.1705347224
0.160135121
0.1517328567
0.1421486453
0.1277778812
0.1152641311
0.09490674476
0.07744602769
0.06769425745
0.01636144685
0.0271142859
0.04083407244
0.05886740822
0.07918242362
0.09572620663
0.1055069324
0.1064373562
0.0982090166
0.08003897634
0.05888321099
0.05257501635
0.05555441686
0.06049866783
0.06549031626
0.07015811534
0.0746300718
0.0789458164
0.08266664874
0.0866158584
0.09673042115
0.1159195714
0.142012084
0.1715338295
0.1940858415
0.1819487987
0.1748658429
0.1749249852
0.1762344609
0.1789577987
0.1443798893
0.1041570647
0.08247963029
0.01823870106
0.02967334351
0.04372937158
0.06101310714
0.07860129654
0.09247419874
0.1007496598
0.1013145051
0.09328483646
0.07585672721
0.06034077385
0.05733028643
0.06068373948
0.06499485921
0.06922547392
0.07345344623
0.07786047813
0.08251613556
0.08743105258
0.09412427125
0.1070998061
0.1282131479
0.1531911743
0.1767252986
0.1924800411
0.1878950398
0.1840641113
0.2020740795
0.2503165001
0.288129054
0.2431883362
0.1503877576
0.1022860357
0.02267197084
0.0356113904
0.04934397038
0.06332415189
0.07607672823
0.08618904986
0.09242033963
0.09276667586
0.08585696696
0.0724071241
0.0630755471
0.0616448783
0.06357553363
0.06677599564
0.07033414407
0.07403204599
0.07804739461
0.08257944087
0.08787077435
0.09611389476
0.109018149
0.129830378
0.1562378411
0.1853677388
0.1974274879
0.2231019484
0.2061812015
0.2246998994
0.3079013398
0.3496829703
0.3217704499
0.1815850283
0.1115876381
0.02503219716
0.04029615543
0.05349972269
0.0648308936
0.07414421833
0.08153760254
0.08631238927
0.08700331022
0.08230060718
0.07461389342
0.06869752951
0.06591608082
0.06563979375
0.06728435881
0.06988344528
0.07284885265
0.07625692585
0.08055545668
0.0859532112
0.09333224417
0.1045849461
0.1229022347
0.1459354665
0.1737119371
0.1997656701
0.1887717729
0.1801755075
0.179190825
0.2393967323
0.3088081881
0.2432058316
0.1452068422
0.1003641065
0.0255035101
0.04232530531
0.05517553629
0.06514139087
0.07274812785
0.07886550078
0.08313803598
0.084761222
0.08336993445
0.07989295843
0.07546744589
0.07102131522
0.06814138659
0.06773144998
0.06908288854
0.07121960127
0.07385439717
0.07729677457
0.08167132097
0.08705552476
0.09532533933
0.1088694322
0.1259986877
0.1441117375
0.1617575019
0.1556812156
0.1390132171
0.1282566865
0.1443339
0.1761046551
0.1375025306
0.1021907788
0.08433119098
0.02521374795
0.04214702511
0.05473710307
0.06439236912
0.07150059824
0.07722580025
0.08145802549
0.0838104357
0.08409470161
0.08252213567
0.07917905483
0.07430687513
0.06965061771
0.06736289661
0.06743024799
0.06866222951
0.07038779495
0.07262243226
0.07531334217
0.07801567288
0.08261999217
0.09184856221
0.1033438498
0.1148057743
0.123836499
0.1209759433
0.1090255532
0.09911232994
0.1010375369
0.1109812071
0.09557731199
0.08160342927
0.07537149482
0.02445639999
0.04060277637
0.05276056952
0.06257186366
0.06995010109
0.07593501035
0.08057518961
0.08360815378
0.08473922154
0.08383231412
0.08069963579
0.0753286508
0.06932856758
0.0656093253
0.06466819984
0.06508711216
0.06593771884
0.06700864121
0.0683145268
0.06955780063
0.07145946166
0.07636921884
0.08291341189
0.08978054214
0.09477628843
0.09288696883
0.08823195576
0.08388079054
0.08325110535
0.08687057509
0.07829857246
0.07284707157
0.07234092986
0.02334758362
0.03819178944
0.04950801577
0.05933178933
0.06727019849
0.07376397119
0.07895159457
0.08254875553
0.0841009412
0.08323807193
0.07968345266
0.07354629876
0.06667910157
0.06242042202
0.06104159706
0.06090929796
0.06108533708
0.06125572788
0.06143149433
0.06155854983
0.06211622552
0.06452164378
0.06817845251
0.07225106867
0.07549342157
0.07595777668
0.07618845085
0.07575417186
0.07475318263
0.0744521805
0.06970565013
0.06829695438
0.07135404026
0.02209249284
0.03539249395
0.04537890825
0.05462005757
0.06289335877
0.06974541095
0.07533928291
0.07928900902
0.08097643276
0.07984992425
0.07565144808
0.06886536824
0.06176814099
0.05826993366
0.05717741888
0.05689548043
0.0567151112
0.05632515323
0.05568861339
0.05489925162
0.05482701163
0.05634926524
0.05904871169
0.06234237556
0.06577250131
0.06883077709
0.07142223026
0.07166665034
0.07014864376
0.06820269427
0.06551579331
0.06596001467
0.07164982998
0.02093057117
0.03277095303
0.04113217048
0.04906397076
0.05693191963
0.06367355488
0.06929612959
0.07327832951
0.07487847575
0.07344612326
0.06884476144
0.06196253558
0.05590141975
0.0539532036
0.05409598905
0.05444509865
0.05448775975
0.05373303222
0.05207143257
0.05046942423
0.05016768375
0.05163961323
0.05460936001
0.05907867151
0.06501781943
0.07138772056
0.07498415842
0.07212760277
0.06878884827
0.06546324852
0.06330524454
0.0651052649
0.07623776392
0.02003382216
0.03081645067
0.03764525299
0.04381501377
0.05022939213
0.05627970769
0.06133910236
0.06496347488
0.06631375649
0.0647473036
0.06035916667
0.05446074419
0.05057560185
0.0507925576
0.05333276773
0.05632898316
0.05826182845
0.05719653421
0.05298301531
0.04891242856
0.04784592638
0.04977495034
0.05428991001
0.06193780924
0.07264156205
0.08278712603
0.08535008015
0.07857239489
0.07044636243
0.06462718907
0.06195219518
0.06567139652
0.09224928973
0.01945719946
0.02974145534
0.0354952562
0.03997275611
0.0444086416
0.04880595105
0.0527900436
0.05562335172
0.05660436852
0.05520923257
0.05166001215
0.0478353147
0.04680183229
0.05020602563
0.05703862566
0.06505301814
0.0704579819
0.06899911044
0.06037401003
0.05071436014
0.04723459651
0.04965470642
0.05627888055
0.06782697343
0.08393928447
0.09743964841
0.09810806699
0.08793491768
0.0733739152
0.06489833035
0.06091482588
0.06474466786
0.08606544605
0.0191444797
0.02943554551
0.0347116084
0.03796501167
0.04054536051
0.04284867698
0.04498783126
0.04661435784
0.04709749266
0.04601700332
0.04387672463
0.04252018891
0.04446023801
0.05129218262
0.06269624238
0.07608872173
0.08516710086
0.08314550754
0.06981049056
0.05369571185
0.04697694479
0.04955430513
0.05774724966
0.07229786719
0.09287087968
0.1094212485
0.1093615142
0.09537737656
0.07429135183
0.06426366497
0.05951529347
0.06083884115
0.07105039979
0.0189485279
0.02953990913
0.03483179241
0.03744462799
0.03867895838
0.03913512837
0.03928787733
0.03927612832
0.03892699087
0.0380881304
0.03724621917
0.03786055352
0.04188911252
0.05096144828
0.06535377112
0.08218585811
0.09327907074
0.09059292443
0.07423857247
0.05427269809
0.04598643566
0.04847357346
0.0569084272
0.07177877484
0.09345664769
0.1116650914
0.1120399146
0.09584505691
0.07239647418
0.06265743798
0.05824222511
0.05776734049
0.06228249533
0.0186437512
0.02956150181
0.03514399149
0.03756947805
0.03802495894
0.03717772743
0.03570481248
0.0341211825
0.0327442797
0.03177664545
0.03162534334
0.03318815018
0.03777876665
0.04692075247
0.06143664997
0.07829359442
0.08919013801
0.08620407808
0.07004851077
0.05142654197
0.04437573816
0.04668930142
0.0539460052
0.06619827713
0.0846318361
0.1017673364
0.1031612227
0.08725236433
0.0675864381
0.05988295461
0.05669994673
0.05590381942
0.05784803157
0.01794040558
0.02894724011
0.03489842596
0.03739638522
0.03749367052
0.03587121743
0.03329722077
0.03051100158
0.02818749045
0.0268375235
0.02681826362
0.02848426005
0.03242831764
0.03971433256
0.0514022876
0.06544468428
0.0746413323
0.0723362389
0.06007797093
0.04688501832
0.04277969606
0.04489130601
0.05024473202
0.05876142849
0.07133144411
0.08438279866
0.08660201564
0.0736987491
0.06094787924
0.05611051042
0.05467409509
0.05454945706
0.05546321147
0.01655288787
0.02716912003
0.03340773758
0.03610151615
0.03610843232
0.03410177929
0.03090555395
0.02739346892
0.02445157207
0.02276950583
0.02266805556
0.02412685001
0.02711642911
0.03205793224
0.03965142581
0.04918570805
0.0562900064
0.05595604178
0.04919208472
0.04252894144
0.04140946802
0.04336766445
0.04690169436
0.05206765269
0.05933491646
0.06733662331
0.06960325213
0.06113872132
0.05434360383
0.05205113724
0.05232471909
0.05321181607
0.05379755015
0.01434060922
0.02389862579
0.03011054508
0.03299969293
0.03311087854
0.03105538226
0.02769915604
0.02401390693
0.02099130204
0.01935654298
0.01933777603
0.02068459792
0.02300590062
0.02623237162
0.03064643189
0.03608575936
0.04081546076
0.04221735101
0.040343739
0.03875097169
0.03966094973
0.04156362898
0.04388235196
0.04667312019
0.05037428906
0.05472713182
0.05640225952
0.05180155314
0.0488231235
0.04821908221
0.04980879398
0.05159528745
0.05210108333
0.01151837376
0.01943112347
0.02496012115
0.02781752847
0.0281469471
0.02641188015
0.02347292479
0.02033931689
0.01799273424
0.01704600619
0.01752337338
0.01900653772
0.02101623627
0.02330106525
0.02589689116
0.02883581709
0.03165972923
0.03347375952
0.03416023321
0.03503572176
0.03668856503
0.03846808257
0.04020914379
0.04184876402
0.04363372593
0.04574436844
0.04688213401
0.04528311235
0.04459800203
0.0449052609
0.04736736216
0.04966394596
0.05010156056
0.00872804211
0.01461318884
0.01861221421
0.02087016142
0.02132258129
0.0202420233
0.0183545283
0.01652935429
0.01553186151
0.01569977435
0.01685093853
0.01857240637
0.02049578092
0.02236813552
0.02409109699
0.02568876079
0.0271545036
0.02835513017
0.02927196614
0.03018011306
0.03125575936
0.03239395111
0.03361363282
0.03480020166
0.03596659182
0.03722060466
0.03820329338
0.03862015515
0.03943188186
0.04047560625
0.04329213932
0.04539462189
0.04565109269
0.006719448456
0.009515033303
0.0114922887
0.01259919481
0.01287794834
0.0125037172
0.01189680533
0.01153830349
0.01176048969
0.01262330932
0.01396557408
0.01553357779
0.01708668018
0.0184473853
0.01951693251
0.0202721706
0.02073886207
0.02094869984
0.0209498386
0.02084973042
0.02081985477
0.0209938021
0.02147237754
0.02219232336
0.02302688633
0.02387328937
0.0246607413
0.0252868663
0.02633270722
0.02738511308
0.02915050477
0.03016689931
0.03045220884
0.01432970849
0.02456263173
0.04128074503
0.1141223835
0.2179231776
0.2235122019
0.1316781153
0.05682382173
0.04100503323
0.03699271399
0.03579567981
0.03669798821
0.04019720095
0.04672599237
0.05652588455
0.06990922412
0.08646468062
0.1052573176
0.1206673818
0.1372613188
0.1514079072
0.165532551
0.1635718709
0.1242971704
0.09553166029
0.08593986359
0.08433146122
0.0830832482
0.0791666243
0.01374537645
0.0215832745
0.02845876198
0.04397341192
0.07425054073
0.0814910086
0.05948655931
0.04678026224
0.04133876189
0.03811973481
0.03649475685
0.03717148639
0.04052251881
0.04650784394
0.05495985167
0.06642823936
0.08034343462
0.0971741698
0.1154172565
0.1296878902
0.1435995402
0.1573856012
0.1624712398
0.1263109094
0.09540267294
0.08341075592
0.08013231647
0.07915268148
0.07774078649
0.07349604401
0.06833097269
0.06366624686
0.01442794796
0.0266831553
0.04013059155
0.05084865679
0.05551742997
0.05493651398
0.05098354993
0.04722685412
0.04331408468
0.03975295552
0.0376085554
0.03794613583
0.04114149261
0.04685238691
0.05441470779
0.06361859021
0.07523076112
0.09092255005
0.1111745604
0.129451541
0.1371916478
0.1440023423
0.1568185302
0.1284823317
0.0977216593
0.08368891565
0.07876871377
0.07662773212
0.07442731949
0.07088921488
0.06666585836
0.06268391651
0.01754472079
0.0478949269
0.08667934169
0.1013832276
0.08564941196
0.06540288893
0.05462481216
0.04945646632
0.04509640015
0.04108899752
0.03860596605
0.03884261541
0.04210644734
0.04779403034
0.05486846404
0.06267370015
0.07156296515
0.08297686475
0.09864700068
0.1165071701
0.1279931486
0.1327197404
0.1358076064
0.1173054167
0.09479162322
0.08413589975
0.07973474733
0.07684570717
0.07349545672
0.06937965642
0.06500707814
0.06117772269
0.0583913509
0.03350682555
0.1297849887
0.1930228379
0.1931027279
0.1619004138
0.1030500208
0.06539759477
0.05415641499
0.04818528525
0.04309367498
0.0399258023
0.03999809565
0.04349394554
0.04951170233
0.05663455719
0.06367620499
0.07041931682
0.07792314503
0.08780575755
0.1003171098
0.1118726428
0.1167796219
0.112589601
0.1009825159
0.09066585481
0.08580815778
0.08232168252
0.07837949517
0.07340817257
0.06815135162
0.06334049113
0.05904725147
0.05609485494
0.0628903406