/*--------------------------------*- C++ -*----------------------------------*\
  =========                 |
  \\      /  F ield         | OpenFOAM: The Open Source CFD Toolbox
   \\    /   O peration     | Website:  https://openfoam.org
    \\  /    A nd           | Version:  8
     \\/     M anipulation  |
\*---------------------------------------------------------------------------*/
FoamFile
{
    version     2.0;
    format      ascii;
    class       volScalarField;
    location    "1.8";
    object      N2;
}
// * * * * * * * * * * * * * * * * * * * * * * * * * * * * * * * * * * * * * //

dimensions      [0 0 0 0 0 0 0];

internalField   nonuniform List<scalar> 
67286
(
0.7899973179
0.7899975591
0.7899986088
0.7900005778
0.790001371
0.7899996332
0.7899994381
0.7899992496
0.7899992206
0.7899992238
0.7899992177
0.7899991914
0.7899991642
0.7899991589
0.789999196
0.789999302
0.7899994716
0.7899996714
0.7899999012
0.7900001139
0.7900002636
0.790000438
0.7900000161
0.7899998218
0.7899997907
0.7899998692
0.7900000162
0.7900001604
0.789997614
0.789998002
0.7899986274
0.7899991553
0.789999949
0.7899995061
0.7899995186
0.7899994515
0.7899994166
0.7899994667
0.789999521
0.7899995456
0.7899995337
0.7899994959
0.7899994469
0.7899994226
0.7899994781
0.7899996271
0.789999892
0.7900004384
0.790000495
0.7900006595
0.7900001544
0.7900000894
0.7900001839
0.790000286
0.7900002923
0.7900002735
0.7900002693
0.7900002348
0.7900002116
0.790000181
0.7899978516
0.789998386
0.7899990265
0.7899992309
0.7899993854
0.7899995453
0.7899995536
0.7899995723
0.7899996132
0.7899997143
0.7899998338
0.7899999074
0.7899999363
0.7899999399
0.7899999377
0.7899999393
0.7899999429
0.7899999614
0.7900000472
0.7900002777
0.7900006855
0.7900014028
0.7900006973
0.7900005191
0.7900005602
0.7900006345
0.7900006245
0.7900005461
0.7900004652
0.7900003864
0.7900003391
0.7900003025
0.7899982597
0.7899989844
0.7899995703
0.7899996721
0.7899996399
0.7899997155
0.7899997419
0.7899998104
0.7899998711
0.7900000102
0.7900001754
0.7900002739
0.7900003063
0.790000291
0.7900002593
0.7900002406
0.7900002567
0.7900003157
0.7900004346
0.7900006474
0.7900009866
0.7900014937
0.7900010972
0.790000841
0.7900008405
0.7900008887
0.7900008844
0.7900008076
0.7900007074
0.7900006159
0.7900005443
0.7900004951
0.7900004695
0.7899989344
0.7899996183
0.7899999234
0.7899998774
0.7899999106
0.7899998362
0.789999955
0.7900000675
0.7900001522
0.7900003132
0.7900005022
0.7900006171
0.7900006676
0.7900006655
0.790000638
0.7900006058
0.7900005792
0.7900005678
0.7900005954
0.7900006978
0.7900009124
0.7900012602
0.790001217
0.7900010597
0.7900010795
0.7900010772
0.7900010843
0.790001027
0.7900009555
0.7900008852
0.7900008059
0.7900007743
0.7900007251
0.7900008007
0.7900007305
0.790000578
0.7900002259
0.7900005352
0.7900002177
0.7900002046
0.790000287
0.790000364
0.7900005347
0.7900007434
0.790000873
0.7900009458
0.7900009586
0.7900009339
0.7900008929
0.7900008525
0.7900008193
0.7900008111
0.7900008371
0.7900009122
0.7900010609
0.7900011285
0.7900011666
0.7900011575
0.790001146
0.7900012641
0.790001251
0.7900012021
0.7900011386
0.7900010154
0.7900010252
0.7900009746
0.789999566
0.7900004757
0.7900006404
0.7900003483
0.790000063
0.7900001999
0.7900003132
0.7900003836
0.7900004709
0.7900006677
0.790000931
0.7900010923
0.7900012082
0.7900012587
0.7900012581
0.7900012204
0.7900011564
0.790001077
0.7900010015
0.7900009664
0.7900009846
0.7900010482
0.790001129
0.7900011629
0.7900011722
0.790001197
0.7900014705
0.7900014773
0.7900013877
0.7900012124
0.7900005651
0.7900010206
0.7900010382
0.7899988901
0.7899998304
0.7900002638
0.7900001164
0.7900002498
0.7900003515
0.7900003933
0.7900004578
0.7900005277
0.7900007644
0.7900011087
0.7900013
0.7900014389
0.7900015016
0.7900015117
0.790001496
0.7900014688
0.7900014219
0.7900013461
0.7900012661
0.7900012876
0.7900013031
0.790001334
0.7900013413
0.790001245
0.7900014538
0.790001593
0.7900016024
0.7900014927
0.7900013108
0.7900011076
0.7900011064
0.7900010874
0.7899989364
0.7899995418
0.7900001063
0.7900003686
0.7900004898
0.7900004888
0.7900005264
0.790000572
0.7900006224
0.7900008794
0.7900012733
0.790001474
0.790001587
0.7900016171
0.7900016125
0.7900016175
0.7900016372
0.7900016359
0.790001577
0.7900015
0.7900014426
0.7900014019
0.7900013572
0.7900012683
0.7900008576
0.7900014988
0.7900015812
0.7900016563
0.7900014858
0.7900013826
0.79000109
0.7900010817
0.7900010954
0.7899991898
0.7899995675
0.7900000027
0.790000304
0.7900004676
0.7900005755
0.7900006889
0.7900007816
0.7900008483
0.7900010614
0.7900014007
0.7900015927
0.7900016617
0.7900016553
0.7900016569
0.790001682
0.7900017019
0.7900016748
0.7900015938
0.7900015085
0.7900014496
0.7900014074
0.7900013501
0.790001167
0.7900009043
0.7900016624
0.7900017142
0.7900018038
0.7900015419
0.7900016828
0.7900011005
0.7900010041
0.7900010709
0.7899994276
0.789999656
0.7899999183
0.7900001499
0.7900003414
0.7900005056
0.7900006633
0.7900007975
0.7900009464
0.7900012447
0.7900015688
0.7900016986
0.7900017184
0.7900017068
0.7900017073
0.7900017114
0.7900017014
0.7900016634
0.7900016013
0.7900015349
0.7900014983
0.7900014848
0.790001466
0.7900013522
0.7900011225
0.7900016319
0.7900017538
0.7900017323
0.7900015457
0.790002354
0.7900013083
0.7900008347
0.790000886
0.7899997293
0.7899998213
0.789999945
0.7900000872
0.7900002468
0.7900004207
0.790000607
0.790000807
0.7900010816
0.7900014439
0.7900016919
0.7900017589
0.7900017489
0.7900017364
0.7900017237
0.7900017016
0.7900016699
0.7900016372
0.7900016012
0.7900015513
0.790001596
0.7900015583
0.7900014516
0.7900012129
0.7900016482
0.7900012291
0.7900019286
0.7900020201
0.7900036257
0.7900057672
0.7900033885
0.7900016893
0.7900009814
0.7899998883
0.7899999931
0.7900000792
0.7900001743
0.7900002934
0.7900004556
0.7900006693
0.7900009532
0.790001312
0.7900016246
0.7900017982
0.7900018468
0.7900018388
0.7900018226
0.7900017982
0.7900017565
0.7900016961
0.7900016316
0.7900015838
0.7900015586
0.7900016492
0.7900016189
0.7900014648
0.7900010487
0.7900006192
0.7899985285
0.7900010981
0.7900012173
0.7900019202
0.7900051382
0.7900021338
0.7900009068
0.7900009224
0.789999951
0.7900000838
0.7900001828
0.7900002822
0.7900003999
0.7900005659
0.7900007887
0.7900010638
0.7900013477
0.7900015869
0.7900017712
0.7900018726
0.7900018981
0.7900018875
0.7900018626
0.790001822
0.7900017637
0.790001696
0.7900016368
0.7900016148
0.7900016783
0.7900016561
0.7900016028
0.7900013175
0.790001014
0.7900001467
0.7900014737
0.7900013734
0.7900011238
0.7900028886
0.7900009441
0.7900009733
0.7900012016
0.78999999
0.7900001393
0.7900002679
0.7900004002
0.7900005445
0.7900007241
0.7900009294
0.7900011389
0.7900013316
0.7900015217
0.7900017301
0.7900019003
0.7900019588
0.790001943
0.7900019174
0.7900018852
0.7900018375
0.7900017741
0.7900017036
0.7900016782
0.7900017821
0.7900016882
0.7900016816
0.7900015018
0.7900012773
0.7900008865
0.7900016558
0.7900014671
0.7900011875
0.7900013294
0.7900009443
0.7900012489
0.7900013187
0.7900000132
0.7900001652
0.7900003183
0.7900004828
0.7900006499
0.790000836
0.7900010287
0.7900012102
0.7900013704
0.7900015222
0.7900017003
0.7900018906
0.7900019887
0.7900019826
0.7900019639
0.7900019465
0.7900019167
0.7900018675
0.7900017947
0.7900017162
0.7900017095
0.7900016763
0.7900017011
0.7900016194
0.7900014241
0.7900012116
0.7900016707
0.7900014312
0.7900013606
0.7900010334
0.7900012665
0.7900013791
0.7900013359
0.7900000278
0.7900001638
0.7900003213
0.7900005022
0.7900006813
0.7900008652
0.7900010486
0.790001218
0.7900013665
0.7900015009
0.7900016519
0.7900018363
0.7900019682
0.7900019932
0.7900019944
0.7900019982
0.7900019906
0.7900019623
0.7900019056
0.7900018213
0.7900017531
0.7900017188
0.7900017242
0.7900016887
0.7900015353
0.7900014276
0.79000161
0.7900014351
0.7900014586
0.7900012435
0.7900014076
0.7900013714
0.7900012918
0.7900000434
0.7900001482
0.7900002872
0.7900004687
0.7900006554
0.7900008362
0.7900010158
0.7900011842
0.7900013332
0.7900014625
0.7900015914
0.7900017507
0.7900018948
0.7900019651
0.7900019972
0.790002025
0.7900020383
0.7900020281
0.7900019875
0.7900019157
0.7900018346
0.7900017732
0.7900017439
0.7900017114
0.7900016083
0.7900015335
0.790001566
0.7900014586
0.7900014844
0.7900013558
0.7900014032
0.7900013035
0.7900012563
0.7900000652
0.7900001364
0.7900002366
0.7900003995
0.7900005896
0.7900007724
0.7900009515
0.7900011235
0.7900012784
0.7900014085
0.7900015215
0.7900016484
0.7900017892
0.7900018978
0.7900019715
0.7900020326
0.7900020773
0.7900020896
0.7900020474
0.7900019641
0.7900018871
0.7900018017
0.7900017403
0.7900016894
0.7900016207
0.7900015761
0.7900016305
0.7900014518
0.7900014742
0.7900013499
0.7900013331
0.7900011941
0.7900011158
0.7900000889
0.7900001403
0.7900001948
0.7900003158
0.7900004908
0.7900006814
0.7900008654
0.7900010429
0.7900012051
0.7900013385
0.7900014405
0.7900015391
0.7900016699
0.7900017978
0.790001902
0.7900019924
0.7900020593
0.7900020794
0.7900020298
0.7900019408
0.7900018683
0.7900017648
0.7900016741
0.790001593
0.7900015363
0.7900015351
0.7900016373
0.7900013967
0.7900014084
0.7900012855
0.7900012418
0.7900010697
0.7900010462
0.7900001044
0.7900001552
0.7900001787
0.7900002476
0.7900003807
0.7900005589
0.790000752
0.7900009393
0.7900011106
0.7900012489
0.7900013442
0.7900014337
0.7900015664
0.790001732
0.7900019151
0.7900021026
0.7900022408
0.7900022609
0.7900021173
0.7900019147
0.7900018102
0.7900016665
0.7900015753
0.790001534
0.7900015863
0.7900017104
0.7900018008
0.7900014973
0.7900014183
0.7900012202
0.7900010784
0.7900007438
0.7900004031
0.7900001018
0.7900001629
0.7900001804
0.7900002135
0.7900002943
0.7900004298
0.7900006062
0.7900007982
0.790000981
0.7900011303
0.7900012355
0.7900013341
0.7900014879
0.7900017141
0.7900019839
0.790002247
0.7900024438
0.7900024774
0.7900022639
0.7900018844
0.7900016933
0.7900014858
0.7900013902
0.7900013962
0.790001548
0.7900017742
0.7900019387
0.7900016003
0.7900014386
0.7900011793
0.7900009645
0.7900006048
0.7900001737
0.790000081
0.7900001481
0.790000175
0.7900002008
0.7900002494
0.7900003367
0.7900004708
0.7900006428
0.7900008282
0.7900009931
0.790001112
0.7900012069
0.7900013496
0.7900015894
0.7900018932
0.7900021951
0.7900024335
0.7900024962
0.790002277
0.7900017633
0.790001505
0.7900012456
0.7900011058
0.7900010957
0.7900012876
0.790001568
0.7900018178
0.7900014757
0.7900012903
0.790001055
0.7900008491
0.7900005924
0.7900002512
0.7900000528
0.7900001151
0.7900001489
0.7900001824
0.7900002277
0.7900002912
0.7900003862
0.7900005229
0.7900006942
0.7900008668
0.790000994
0.7900010656
0.7900011489
0.7900013316
0.7900016151
0.7900019249
0.7900021901
0.7900022874
0.7900020903
0.7900015554
0.7900013033
0.7900010382
0.7900008442
0.7900007776
0.790000918
0.7900011986
0.7900015233
0.7900011537
0.7900009941
0.7900008579
0.7900007147
0.7900005549
0.7900002804
0.7900000319
0.7900000838
0.7900001142
0.7900001514
0.7900002041
0.7900002691
0.7900003509
0.7900004627
0.7900006127
0.7900007796
0.7900009081
0.790000958
0.7900009712
0.7900010522
0.7900012587
0.7900015423
0.7900018101
0.7900019315
0.7900017585
0.7900013253
0.7900011347
0.7900009073
0.7900006836
0.7900005402
0.790000572
0.7900007824
0.7900011399
0.7900007813
0.7900006949
0.7900006866
0.7900005972
0.790000467
0.7900002289
0.7900000309
0.7900000749
0.7900000961
0.7900001267
0.7900001796
0.790000251
0.7900003384
0.7900004474
0.7900005851
0.7900007372
0.7900008548
0.7900008923
0.7900008643
0.7900008531
0.7900009445
0.7900011506
0.7900013884
0.7900015138
0.790001375
0.7900011181
0.7900009991
0.7900008334
0.7900006303
0.7900004435
0.7900003614
0.7900004366
0.7900007419
0.7900005186
0.7900005164
0.7900005892
0.7900005011
0.7900003511
0.7900001593
0.7900000612
0.7900001002
0.7900001148
0.7900001341
0.7900001766
0.7900002442
0.7900003358
0.7900004513
0.7900005865
0.7900007195
0.7900008104
0.7900008305
0.7900007901
0.790000738
0.7900007401
0.7900008373
0.7900009993
0.7900011076
0.790001046
0.7900009358
0.7900008698
0.7900007641
0.7900006184
0.7900004526
0.7900003154
0.7900002609
0.7900004338
0.7900004159
0.7900004456
0.7900005264
0.7900003978
0.7900002155
0.7900000629
0.7900001416
0.7900001664
0.7900001806
0.7900001934
0.7900002225
0.7900002762
0.7900003588
0.7900004699
0.7900005959
0.7900007044
0.7900007615
0.7900007553
0.7900007017
0.7900006369
0.7900006
0.7900006218
0.790000701
0.7900007771
0.7900007771
0.7900007491
0.7900007185
0.7900006602
0.7900005746
0.7900004649
0.7900003472
0.7900002455
0.7900002829
0.7900003806
0.7900003914
0.7900004312
0.7900002575
0.7900000569
0.7899999354
0.7900002774
0.7900002906
0.7900003077
0.7900003241
0.7900003483
0.7900003899
0.7900004553
0.7900005447
0.7900006446
0.7900007272
0.7900007647
0.7900007423
0.7900006693
0.7900005778
0.7900005033
0.7900004691
0.7900004798
0.7900005112
0.7900005273
0.7900005331
0.7900005294
0.790000507
0.7900004646
0.7900004034
0.7900003298
0.7900002517
0.7900002253
0.7900002937
0.7900002684
0.7900002525
0.7900000686
0.7899998902
0.7899998068
0.7900004117
0.7900005058
0.7900005416
0.7900005742
0.7900006123
0.7900006602
0.7900007177
0.7900007789
0.7900008387
0.7900008915
0.7900009186
0.7900008976
0.7900008253
0.7900007208
0.7900006115
0.7900005201
0.7900004582
0.7900004213
0.790000394
0.79000037
0.7900003458
0.7900003137
0.7900002685
0.7900002108
0.7900001493
0.7900000931
0.7900000569
0.7900000735
0.7900000307
0.7900000071
0.7899998902
0.7899998228
0.7899998028
0.7899978233
0.7899980941
0.7899985124
0.7899991008
0.7899990353
0.7899993536
0.789999118
0.7899990879
0.7899990666
0.7899990999
0.7899991422
0.7899991931
0.789999243
0.7899993133
0.7899994166
0.789999555
0.7899997293
0.7899998735
0.7900002234
0.7900005124
0.7900006901
0.7900008438
0.7900004696
0.7900001897
0.7900000612
0.7900000878
0.7900001706
0.7900002964
0.7899979449
0.7899982677
0.789998745
0.7899991941
0.7899991291
0.7899993255
0.7899992274
0.7899992406
0.7899992434
0.7899993162
0.7899993995
0.7899994743
0.7899995281
0.7899995719
0.7899996149
0.7899996694
0.789999859
0.7900000807
0.790000343
0.7900005091
0.790000717
0.7900007291
0.7900006136
0.7900003844
0.7900003385
0.7900003718
0.7900003986
0.7900004184
0.7900004287
0.7900003901
0.7900003192
0.7900002448
0.7899980867
0.7899984519
0.7899989512
0.7899992442
0.7899993613
0.789999344
0.7899993199
0.7899993486
0.7899994082
0.7899995179
0.7899996496
0.7899997615
0.7899998389
0.7899998928
0.789999941
0.7900000019
0.7900001014
0.7900002516
0.7900004648
0.7900007137
0.7900009177
0.7900008747
0.7900009369
0.7900007328
0.790000661
0.7900006519
0.7900006381
0.7900006002
0.7900005457
0.790000485
0.7900004187
0.790000349
0.7899982912
0.7899986614
0.7899990416
0.7899994034
0.7899994326
0.7899994617
0.7899994636
0.7899995225
0.7899996103
0.789999758
0.7899999276
0.7900000631
0.7900001494
0.790000199
0.7900002399
0.7900002969
0.7900003852
0.7900004942
0.7900006259
0.7900007915
0.7900009823
0.7900010516
0.7900010277
0.7900009438
0.7900009027
0.7900008807
0.7900008481
0.7900007897
0.790000717
0.7900006421
0.7900005675
0.790000493
0.7900004043
0.7899983464
0.7899987534
0.7899991684
0.7899994359
0.7899995805
0.7899995936
0.7899996278
0.7899997056
0.7899998326
0.7900000213
0.7900002166
0.7900003623
0.7900004512
0.7900004939
0.7900005217
0.7900005631
0.7900006295
0.7900007156
0.7900008184
0.7900009406
0.7900010811
0.79000117
0.7900011397
0.7900011151
0.7900010772
0.7900010312
0.7900010065
0.7900009566
0.7900008993
0.7900008405
0.7900007746
0.7900007059
0.7900006236
0.7899983389
0.7899989167
0.7899991148
0.7899993387
0.7899996544
0.7899997901
0.7899997945
0.789999874
0.7900000315
0.7900002522
0.79000046
0.7900006079
0.7900006995
0.7900007398
0.7900007567
0.790000781
0.7900008258
0.7900008825
0.7900009399
0.790001001
0.7900011074
0.7900011855
0.7900012136
0.7900011896
0.7900011725
0.7900011018
0.7900011377
0.7900011317
0.7900011171
0.7900011024
0.7900010826
0.7900009887
0.790000868
0.7899985839
0.7899992086
0.7899995106
0.7899996766
0.7899997725
0.789999781
0.7899998208
0.7899999569
0.7900001449
0.7900003942
0.7900006352
0.7900007986
0.7900009037
0.7900009533
0.7900009677
0.7900009756
0.7900009945
0.7900010236
0.7900010497
0.7900010701
0.7900011356
0.7900011768
0.790001211
0.7900012152
0.7900012509
0.7900007971
0.7900012224
0.7900012866
0.7900012904
0.7900012159
0.7900013215
0.7900011702
0.7900010111
0.7899987024
0.7899991141
0.7899993464
0.7899996971
0.7899997382
0.7899997994
0.7899998915
0.7900000372
0.7900002214
0.7900004732
0.7900007676
0.7900009548
0.7900010705
0.7900011265
0.7900011408
0.7900011395
0.7900011408
0.7900011359
0.79000108
0.7900008721
0.7900012253
0.7900012961
0.7900013775
0.7900014314
0.7900015591
0.790001394
0.7900014113
0.7900014172
0.790001418
0.7900014159
0.7900012903
0.7900012496
0.7900011192
0.7899989984
0.7899993425
0.7899995758
0.7899997255
0.7899997542
0.789999848
0.7899999623
0.7900001062
0.7900002854
0.790000555
0.7900008883
0.7900010751
0.7900011676
0.7900012037
0.7900012192
0.7900012351
0.7900012678
0.7900013251
0.7900013918
0.7900014116
0.7900014475
0.7900014369
0.7900014506
0.7900015174
0.7900016515
0.7900014528
0.7900014595
0.7900014301
0.7900013943
0.7900014208
0.790001422
0.7900013532
0.7900012079
0.7899991478
0.7899994064
0.789999624
0.7899997449
0.7899998365
0.7899999704
0.7900001172
0.7900002775
0.7900004654
0.7900007182
0.7900010012
0.7900011514
0.7900012157
0.7900012491
0.7900012622
0.7900012688
0.7900012854
0.7900013167
0.7900013388
0.7900013196
0.7900013508
0.7900013429
0.7900013772
0.7900013986
0.7900015078
0.7900015012
0.7900014485
0.7900013799
0.7900013588
0.7900012802
0.7900014056
0.7900014212
0.7900013117
0.7899992987
0.7899994595
0.7899996215
0.7899997342
0.7899998508
0.7900000097
0.7900001828
0.7900003631
0.7900005741
0.7900008599
0.790001116
0.7900012362
0.7900012903
0.7900013109
0.7900013101
0.7900013045
0.7900013073
0.7900013253
0.7900013422
0.7900013192
0.7900013084
0.7900012646
0.7900012553
0.790001259
0.7900014155
0.7900016702
0.7900014327
0.7900013462
0.7900014338
0.7900013091
0.7900014038
0.7900014187
0.7900013645
0.78999953
0.7899995531
0.7899996386
0.7899997406
0.7899998654
0.7900000258
0.7900002106
0.7900004157
0.7900006642
0.7900009727
0.7900012056
0.7900013016
0.7900013372
0.7900013291
0.7900012943
0.7900012496
0.7900012076
0.79000117
0.7900011109
0.79000094
0.7900011088
0.7900010921
0.7900011334
0.7900012655
0.7900019667
0.7900016968
0.7900014515
0.7900012943
0.7900013674
0.790000674
0.790000978
0.7900010601
0.790001344
0.789999678
0.7899996799
0.7899997204
0.789999804
0.7899999237
0.7900000762
0.7900002636
0.790000487
0.790000757
0.790001038
0.7900012473
0.7900013579
0.790001394
0.7900013695
0.7900013081
0.7900012338
0.7900011677
0.7900011198
0.7900010671
0.7900008965
0.790001107
0.7900010811
0.7900010861
0.790001243
0.790001251
0.7900037249
0.7900016252
0.7900016862
0.7900015241
0.7900013788
0.7900014487
0.7900013724
0.7900013096
0.7899997726
0.7899997923
0.7899998208
0.7899998934
0.790000007
0.7900001488
0.7900003228
0.7900005264
0.7900007552
0.7900009947
0.790001215
0.7900013753
0.790001444
0.7900014241
0.7900013532
0.7900012691
0.7900012028
0.790001175
0.7900011766
0.7900011485
0.7900012292
0.7900011939
0.7900011738
0.790001206
0.790001234
0.7900019627
0.7900015259
0.7900015539
0.7900014284
0.7900012083
0.7900013916
0.7900013529
0.7900012612
0.7899998484
0.7899998897
0.7899999214
0.7899999881
0.7900000953
0.7900002232
0.7900003722
0.7900005381
0.7900007204
0.790000926
0.7900011549
0.7900013675
0.790001489
0.7900014915
0.7900014277
0.7900013505
0.790001298
0.7900012955
0.7900013383
0.7900013651
0.7900013359
0.7900013285
0.790001306
0.7900013155
0.7900013988
0.7900017271
0.7900015626
0.7900015623
0.7900014798
0.7900015708
0.7900014641
0.7900013725
0.7900012032
0.789999909
0.7899999661
0.7900000066
0.7900000707
0.7900001737
0.7900002918
0.7900004216
0.790000559
0.7900007085
0.7900008878
0.7900011142
0.7900013597
0.7900015294
0.7900015635
0.7900015204
0.7900014612
0.7900014258
0.7900014392
0.7900015017
0.7900015729
0.7900015814
0.7900015447
0.7900014877
0.7900014617
0.7900014914
0.7900015645
0.7900015634
0.7900015224
0.7900014932
0.7900015428
0.7900014148
0.7900012992
0.790001107
0.7899999585
0.7900000219
0.7900000706
0.7900001348
0.7900002322
0.7900003452
0.7900004649
0.790000588
0.7900007214
0.7900008866
0.7900011064
0.7900013628
0.7900015616
0.7900016259
0.790001612
0.7900015783
0.7900015602
0.7900015787
0.7900016336
0.7900016992
0.790001716
0.7900016699
0.790001605
0.7900015511
0.7900015253
0.7900015068
0.7900015275
0.7900014822
0.7900014892
0.7900014574
0.790001354
0.7900011983
0.7900009942
0.7899999983
0.7900000593
0.7900001121
0.7900001784
0.7900002703
0.7900003822
0.7900005016
0.7900006247
0.7900007573
0.7900009178
0.7900011266
0.7900013734
0.790001581
0.7900016644
0.7900016801
0.7900016739
0.7900016716
0.7900016879
0.7900017203
0.7900017533
0.7900017524
0.7900016966
0.7900016232
0.7900015483
0.7900014884
0.7900014454
0.7900014508
0.7900014182
0.7900014322
0.7900013625
0.7900012633
0.7900010723
0.7900008938
0.7900000265
0.7900000813
0.7900001315
0.7900002011
0.7900002879
0.7900004008
0.7900005266
0.7900006593
0.7900008004
0.7900009606
0.7900011538
0.7900013771
0.790001572
0.7900016712
0.7900017102
0.7900017308
0.7900017468
0.7900017626
0.7900017697
0.7900017578
0.7900017256
0.7900016492
0.7900015589
0.7900014656
0.7900013906
0.7900013479
0.7900013516
0.7900013174
0.7900013348
0.7900012525
0.7900011551
0.7900009311
0.7900007431
0.7900000398
0.7900000882
0.7900001296
0.7900001995
0.7900002896
0.7900003987
0.7900005302
0.7900006748
0.7900008273
0.7900009887
0.7900011654
0.7900013577
0.7900015278
0.7900016356
0.790001696
0.7900017365
0.7900017662
0.7900017776
0.7900017604
0.7900017149
0.7900016588
0.7900015548
0.7900014394
0.7900013216
0.7900012306
0.790001175
0.7900011484
0.7900011746
0.7900012039
0.7900011283
0.7900010489
0.7900008134
0.7900007217
0.790000034
0.7900000781
0.7900001097
0.7900001723
0.7900002649
0.7900003769
0.7900005073
0.7900006589
0.7900008217
0.7900009862
0.7900011524
0.7900013154
0.7900014588
0.7900015589
0.7900016117
0.7900016385
0.7900016511
0.7900016466
0.790001645
0.7900016441
0.7900015799
0.7900014422
0.7900012916
0.7900011249
0.7900009872
0.7900008842
0.7900008003
0.7900009694
0.7900010412
0.7900009953
0.7900009332
0.7900006919
0.7900006111
0.7900000092
0.7900000479
0.7900000732
0.7900001266
0.7900002145
0.7900003285
0.7900004625
0.7900006158
0.7900007842
0.7900009543
0.7900011127
0.7900012525
0.7900013667
0.7900014371
0.7900014636
0.7900014812
0.7900014891
0.7900014816
0.7900015071
0.7900015687
0.7900014912
0.7900013231
0.7900011334
0.7900009068
0.7900007333
0.790000608
0.7900005087
0.7900007467
0.7900008507
0.7900008608
0.7900008043
0.790000583
0.7900006497
0.7899999733
0.7900000022
0.7900000229
0.7900000707
0.7900001526
0.790000262
0.7900003941
0.7900005475
0.7900007187
0.7900008932
0.7900010508
0.79000118
0.7900012743
0.790001317
0.7900013215
0.7900013352
0.7900013533
0.7900013542
0.7900013889
0.7900014626
0.7900013733
0.7900011985
0.7900009845
0.7900006831
0.7900005326
0.790000405
0.7900003293
0.7900005703
0.79000069
0.7900007343
0.7900006519
0.7900004688
0.7900004943
0.7899999413
0.7899999562
0.7899999699
0.7900000138
0.7900000928
0.7900001986
0.7900003256
0.7900004734
0.7900006414
0.7900008179
0.7900009785
0.7900011051
0.7900011912
0.7900012234
0.7900012104
0.7900012098
0.7900012317
0.7900012447
0.7900012798
0.7900013226
0.79000124
0.7900010984
0.7900009187
0.7900006583
0.7900004637
0.7900003272
0.7900002707
0.7900004665
0.7900005823
0.7900006147
0.7900004991
0.7900003463
0.790000294
0.7899999297
0.7899999321
0.7899999352
0.7899999713
0.7900000467
0.7900001517
0.7900002777
0.7900004214
0.7900005831
0.7900007542
0.7900009102
0.7900010287
0.7900011068
0.7900011417
0.7900011255
0.7900011052
0.7900011143
0.7900011328
0.7900011628
0.7900011644
0.790001098
0.7900009956
0.7900008665
0.7900006777
0.7900004881
0.7900003454
0.7900002944
0.7900004238
0.7900005034
0.7900004929
0.7900003535
0.7900002061
0.7900000994
0.7899999517
0.7899999491
0.7899999413
0.7899999649
0.7900000303
0.7900001308
0.7900002567
0.7900004005
0.7900005568
0.790000715
0.7900008516
0.7900009456
0.790001002
0.790001034
0.7900010353
0.7900010126
0.7900010052
0.7900010168
0.7900010397
0.7900010024
0.7900009488
0.7900008735
0.790000785
0.7900006663
0.7900005259
0.7900003983
0.7900003419
0.7900003935
0.790000414
0.7900003704
0.7900002182
0.7900000615
0.7899999368
0.7900000185
0.7900000167
0.7900000037
0.7900000142
0.7900000631
0.7900001491
0.7900002658
0.7900004041
0.7900005516
0.7900006889
0.7900007919
0.7900008469
0.7900008655
0.7900008741
0.7900008802
0.7900008767
0.7900008703
0.7900008726
0.7900008709
0.7900008288
0.7900007858
0.7900007284
0.7900006654
0.7900005917
0.7900005057
0.790000409
0.7900003502
0.7900003316
0.790000312
0.7900002562
0.7900000913
0.7899999227
0.7899997999
0.7900001428
0.790000136
0.7900001276
0.7900001325
0.7900001641
0.7900002262
0.7900003176
0.7900004325
0.790000556
0.7900006632
0.79000073
0.7900007472
0.790000726
0.7900006939
0.790000672
0.7900006623
0.7900006584
0.790000658
0.7900006525
0.7900006304
0.7900006049
0.7900005672
0.7900005226
0.7900004718
0.7900004149
0.7900003465
0.7900002943
0.7900002431
0.7900002019
0.7900001429
0.7899999659
0.789999797
0.7899996886
0.7900002982
0.7900003061
0.7900003143
0.7900003273
0.7900003507
0.7900003897
0.7900004468
0.7900005211
0.7900006045
0.7900006792
0.7900007246
0.7900007245
0.7900006786
0.7900006076
0.7900005385
0.7900004872
0.7900004556
0.7900004396
0.7900004324
0.7900004277
0.7900004224
0.7900004071
0.7900003791
0.7900003385
0.7900002896
0.7900002342
0.7900001818
0.7900001291
0.7900000753
0.7900000113
0.7899998389
0.7899996962
0.7899996176
0.7900004151
0.7900005415
0.7900005878
0.7900006235
0.7900006591
0.7900006946
0.7900007278
0.7900007585
0.7900007935
0.7900008363
0.7900008715
0.7900008728
0.7900008272
0.7900007451
0.790000648
0.7900005552
0.7900004766
0.7900004151
0.7900003691
0.7900003352
0.7900003074
0.7900002755
0.7900002308
0.7900001722
0.7900001083
0.790000049
0.7899999987
0.7899999614
0.7899999089
0.789999866
0.7899997524
0.7899996931
0.7899996722
0.7899979242
0.789998176
0.7899984825
0.7899987959
0.7899990201
0.7899990752
0.7899990207
0.7899989531
0.7899989672
0.7899990233
0.7899990996
0.7899991945
0.7899993035
0.789999436
0.789999601
0.7899997899
0.7900000153
0.7900003043
0.790000535
0.7900007806
0.7900009854
0.7900010242
0.7900008637
0.7900005684
0.7900004454
0.7900004496
0.7900004962
0.790000527
0.7900004708
0.7899980621
0.7899983534
0.7899986965
0.7899989645
0.7899989833
0.7899990027
0.7899990367
0.7899990802
0.7899991247
0.7899992079
0.7899993087
0.7899994157
0.7899995184
0.7899996195
0.7899997338
0.7899998337
0.790000092
0.7900003078
0.7900005409
0.7900007049
0.7900009845
0.7900010236
0.7900009578
0.7900007212
0.7900006151
0.790000609
0.7900006216
0.7900006166
0.7900005742
0.7900005005
0.7900004044
0.7900002966
0.7899982204
0.7899985011
0.7899988344
0.7899990376
0.7899991395
0.7899991481
0.7899991724
0.7899992182
0.7899992856
0.7899993895
0.7899995184
0.7899996509
0.7899997734
0.7899998881
0.7900000058
0.7900001302
0.7900002845
0.790000453
0.7900006466
0.7900008515
0.7900011007
0.7900011313
0.790001133
0.7900009464
0.7900008411
0.7900008068
0.7900007859
0.7900007415
0.7900006731
0.7900005894
0.7900004973
0.7900003964
0.7899983261
0.7899986202
0.7899989461
0.78999916
0.7899992503
0.789999276
0.7899993062
0.7899993716
0.7899994613
0.7899995902
0.7899997449
0.7899998977
0.7900000315
0.790000146
0.7900002543
0.7900003705
0.7900005138
0.7900006561
0.7900008078
0.7900009768
0.790001169
0.7900012398
0.7900012319
0.7900011186
0.7900010395
0.7900009993
0.790000957
0.7900008883
0.7900008044
0.790000714
0.7900006244
0.7900005205
0.7900004093
0.7899982887
0.7899987891
0.7899991986
0.7899994254
0.7899995405
0.7899995009
0.789999482
0.789999545
0.789999654
0.7899998084
0.7899999853
0.7900001518
0.7900002927
0.7900004089
0.7900005165
0.7900006297
0.7900007495
0.7900008669
0.7900009833
0.790001108
0.7900012432
0.7900013209
0.7900013023
0.7900012449
0.7900011992
0.7900011461
0.7900011101
0.790001032
0.7900009489
0.7900008661
0.7900008022
0.7900006879
0.7900005752
0.7899984149
0.7899989029
0.7899991508
0.789999337
0.7899995378
0.7899996336
0.7899996389
0.7899997172
0.789999846
0.7900000218
0.7900002114
0.7900003819
0.7900005236
0.7900006377
0.7900007401
0.7900008454
0.7900009528
0.7900010521
0.7900011415
0.7900012309
0.7900013074
0.7900013667
0.7900013835
0.7900013603
0.790001343
0.790001308
0.790001278
0.7900011865
0.7900011184
0.790001048
0.7900010487
0.7900008965
0.7900007693
0.7899986214
0.7899991132
0.7899993916
0.789999528
0.7899996711
0.7899996922
0.7899997479
0.7899998627
0.7900000168
0.7900002001
0.7900003968
0.7900005693
0.790000711
0.7900008226
0.7900009158
0.7900010065
0.7900010993
0.7900011844
0.7900012565
0.7900013258
0.7900013753
0.7900014151
0.79000144
0.790001422
0.7900013854
0.7900014946
0.7900014627
0.7900013269
0.790001308
0.7900012732
0.7900018936
0.7900011574
0.7900009516
0.7899987594
0.7899990741
0.7899993353
0.7899995046
0.7899996298
0.7899996997
0.7899998129
0.7899999605
0.790000131
0.7900003282
0.7900005378
0.790000718
0.7900008611
0.7900009717
0.7900010561
0.7900011271
0.7900011931
0.7900012472
0.7900013018
0.7900014855
0.7900014185
0.7900014623
0.7900015157
0.7900015371
0.7900016608
0.790001495
0.790001531
0.7900014499
0.7900013852
0.7900013205
0.790001259
0.7900011243
0.7900010102
0.7899989783
0.7899991884
0.7899993871
0.7899995224
0.7899996269
0.78999974
0.7899998825
0.7900000439
0.7900002208
0.7900004286
0.7900006588
0.790000842
0.7900009767
0.790001074
0.7900011439
0.7900011985
0.7900012485
0.7900012972
0.7900013369
0.7900013754
0.7900014498
0.7900015113
0.7900016029
0.7900016981
0.7900022808
0.790001723
0.7900016863
0.7900015295
0.7900014463
0.7900013986
0.7900013535
0.7900012223
0.790001086
0.7899990823
0.7899992404
0.7899994083
0.7899995395
0.7899996696
0.7899998231
0.7899999893
0.7900001588
0.7900003378
0.7900005443
0.7900007665
0.7900009355
0.790001055
0.7900011393
0.7900011901
0.7900012177
0.7900012362