/*--------------------------------*- C++ -*----------------------------------*\
  =========                 |
  \\      /  F ield         | OpenFOAM: The Open Source CFD Toolbox
   \\    /   O peration     | Website:  https://openfoam.org
    \\  /    A nd           | Version:  8
     \\/     M anipulation  |
\*---------------------------------------------------------------------------*/
FoamFile
{
    version     2.0;
    format      ascii;
    class       volScalarField;
    location    "1.8";
    object      nut;
}
// * * * * * * * * * * * * * * * * * * * * * * * * * * * * * * * * * * * * * //

dimensions      [0 2 -1 0 0 0 0];

internalField   nonuniform List<scalar> 
67286
(
0.0001325791452
0.0002077181362
0.0003212033469
0.0004326250003
0.0004918110139
0.0003717783441
0.0002047812976
0.0001562789826
0.0001475265915
0.0001470710394
0.0001521617033
0.0001625531202
0.0001769567506
0.0001945358097
0.0002158386441
0.0002411778059
0.0002676974673
0.0002930547543
0.0003167515739
0.0003380519305
0.0003583630415
0.0003806396888
0.000316544724
0.0002618853843
0.0002241768271
0.0002122559824
0.0002248853962
0.0002399479195
0.0001107208126
0.000143026078
0.0001969520868
0.0002909476133
0.0003653950337
0.0002083547561
0.0001675937041
0.0001584961902
0.0001517895403
0.0001506731633
0.0001561695597
0.0001671560095
0.0001809261438
0.0001954627212
0.0002105726167
0.0002277192771
0.0002492510367
0.0002763587211
0.0003109698564
0.0003455950085
0.0003578215149
0.0003702821781
0.0003099552577
0.0002600066191
0.0002329324266
0.0002228205839
0.0002216583718
0.0002255448376
0.00023245786
0.0002281735633
0.0002209985068
0.0002134672641
0.0001307854965
0.0001911158312
0.0002442192875
0.0002008847437
0.0002311298973
0.0001722311228
0.0001705314718
0.0001643745128
0.0001565640722
0.0001549056105
0.0001615458197
0.0001738789135
0.0001885036958
0.0002027478499
0.0002157697421
0.0002282102271
0.0002424251153
0.0002634258207
0.0002962187008
0.0003377815545
0.0003748384697
0.000402002617
0.0003536882124
0.0002879373749
0.0002534363731
0.0002394278999
0.000231058212
0.0002247132055
0.0002202200577
0.0002154628247
0.0002098350069
0.0002037651606
0.0002042653414
0.0002894245021
0.0003459578233
0.0002974847665
0.0002021628214
0.0001829302527
0.0001810144557
0.0001761924157
0.0001649631728
0.0001604660765
0.0001670618495
0.0001797682467
0.0001949015786
0.0002096594268
0.000223292641
0.0002365394519
0.0002513952043
0.0002709072514
0.0002968803438
0.0003291880297
0.0003619494313
0.0003844537058
0.0003539371818
0.0003017330841
0.0002686364653
0.0002547902243
0.0002444938976
0.000233203646
0.0002216038937
0.0002108234794
0.0002014263693
0.0001941638517
0.0001908646516
0.0002914008339
0.000383560864
0.0004402356807
0.00041436802
0.0002923791893
0.0002186596231
0.0002047600433
0.0002004638564
0.0001838118849
0.0001716651966
0.000173612431
0.0001841731912
0.0001986392261
0.0002131753618
0.0002265536698
0.0002385007066
0.000249548601
0.0002613504831
0.0002767605193
0.0002981945827
0.0003232494028
0.0003426413562
0.0003215699057
0.000288479037
0.0002724798611
0.0002629589397
0.0002533306669
0.0002411135618
0.0002262193341
0.0002114110459
0.0001988322339
0.000190303533
0.0001856895637
0.000394993706
0.000494552371
0.0005234538877
0.0005014490562
0.0004028749211
0.0002827829141
0.0002378540524
0.0002344469848
0.0002151598669
0.0001926026518
0.0001823197132
0.0001870686215
0.0001990085069
0.0002117464405
0.0002242229023
0.0002361960847
0.0002472293543
0.0002564533082
0.0002639436149
0.0002729391766
0.000284908901
0.0002960149384
0.0002869328731
0.0002733587745
0.0002679524749
0.0002619308879
0.0002657158171
0.0002584606111
0.0002420621867
0.000224828052
0.0002084120467
0.0001975801774
0.0001929028688
0.000327566253
0.000426653334
0.0004684366022
0.0004256891106
0.0002646640003
0.000258939299
0.0002723082953
0.0002722314486
0.0002540475674
0.0002224405431
0.0001953942908
0.0001934717195
0.0002024751987
0.0002108741675
0.0002172622155
0.0002220912524
0.0002262135031
0.0002307258367
0.0002368493551
0.0002436702329
0.0002506694718
0.0002571368575
0.0002609176157
0.0002731491262
0.0002845578826
0.0002869142909
0.0003089824828
0.0003051278326
0.000286067912
0.0002666732471
0.0002401636769
0.0002198630276
0.0002098729181
0.0002537797336
0.0003435055971
0.0003697348304
0.0003090298807
0.0002706283647
0.0002933408784
0.0003099518098
0.0003119075612
0.0002939970714
0.0002515415111
0.0002095556959
0.0002053012537
0.0002151773851
0.0002232927593
0.0002277168329
0.0002285011679
0.0002261435919
0.0002224956039
0.0002219969661
0.0002295882344
0.0002471430366
0.0002727092068
0.0003019502183
0.0003283890159
0.0003487116608
0.0003542195735
0.0003707347178
0.0003619253757
0.0003406973595
0.0003270986336
0.0002901505662
0.0002533211631
0.0002313316252
0.0001888829194
0.0002662764706
0.0002934229089
0.0002850586564
0.0003068579831
0.0003282022989
0.0003409576907
0.0003402111892
0.0003192404169
0.000265007925
0.0002184433087
0.000218436323
0.0002308333379
0.0002411790576
0.0002484911972
0.0002518904647
0.0002502892189
0.0002459372962
0.0002488006299
0.0002662514139
0.0002962826787
0.0003307255818
0.0003634597364
0.0003926765959
0.0004180620271
0.0004170279057
0.0004217814667
0.0004096764269
0.0003904740502
0.0003962899023
0.0003529165475
0.0002969869654
0.0002565741239
0.0001552584965
0.0002174104093
0.0002532445444
0.0002776516635
0.0003053059686
0.0003272232255
0.0003386942717
0.0003348000402
0.0003072413414
0.0002467593951
0.0002216236757
0.0002307991538
0.0002446569196
0.000256445264
0.0002646530521
0.0002692545394
0.0002701937109
0.0002698550255
0.0002780130944
0.0003037167655
0.000339415229
0.0003758612883
0.0004085290254
0.0004355849903
0.000455449012
0.0004513406699
0.0004506365781
0.0004414898919
0.0004376534831
0.000479781884
0.0004326710159
0.0003553381165
0.0002894228015
0.0001537062177
0.0002032745172
0.0002367761853
0.0002649329662
0.0002903897798
0.0003099748446
0.0003182561331
0.0003090384022
0.0002739642916
0.0002317219166
0.0002290789745
0.000241917972
0.000256126809
0.0002669621407
0.0002742008113
0.0002788555056
0.0002823382928
0.0002884471563
0.0003042819249
0.0003326131731
0.0003670143172
0.0004010207653
0.0004307494492
0.000453787504
0.0004691713743
0.0004619480692
0.000459965517
0.0004606286901
0.0004998311549
0.0005841764982
0.0005332086463
0.0004338862348
0.0003376340738
0.0001696671646
0.0002098836002
0.0002335895187
0.0002544042101
0.0002731532015
0.0002872454845
0.0002911549496
0.0002789814842
0.0002500528665
0.0002338938261
0.0002386396257
0.000252044135
0.0002656281494
0.0002754292635
0.0002823916275
0.0002875751462
0.0002930041906
0.0003029555651
0.0003221093249
0.000349422642
0.0003797986204
0.0004106329693
0.0004401705636
0.0004691151528
0.0004927599244
0.0004737811235
0.0004550685363
0.0005012849196
0.0006166979239
0.0007080962043
0.0006482015948
0.0005330629248
0.0004098851667
0.0001753260672
0.0002151801014
0.0002339964684
0.0002487655564
0.0002609597645
0.0002685264572
0.0002682942887
0.0002582954732
0.0002462323317
0.0002431295298
0.0002477635123
0.0002589596826
0.0002698969201
0.0002780555249
0.0002839624392
0.0002879053327
0.0002907899103
0.0002959032422
0.0003098047774
0.0003355658962
0.0003665239068
0.0003967124976
0.0004235454874
0.0004477361444
0.0004704744748
0.0004569845594
0.000429746535
0.0004223320752
0.0005110521565
0.0006461518451
0.0005457791483
0.0004118252784
0.0003112629984
0.0001744959205
0.0002157649376
0.0002339878129
0.0002472063094
0.0002578692935
0.0002648369137
0.0002683950928
0.0002693414623
0.000268262902
0.0002633221294
0.0002589594561
0.0002621487635
0.0002698368411
0.0002770014245
0.0002822908501
0.0002854297699
0.000286534671
0.0002875821548
0.0002949758322
0.0003156156241
0.0003447480381
0.0003737299689
0.0003980085246
0.0004163510914
0.0004283384698
0.0004056952141
0.000393258237
0.0003673502849
0.000382825753
0.0005270594438
0.00041363985
0.0003125199507
0.000270083276
0.0001724626196
0.0002150584894
0.00023485908
0.0002500476868
0.0002636525588
0.0002746761901
0.0002838172232
0.0002903198172
0.0002913875563
0.0002840171974
0.0002710308283
0.0002632383403
0.0002662664132
0.0002729814402
0.0002780520592
0.0002806140252
0.0002803989037
0.0002782153042
0.0002794071522
0.0002934796092
0.0003185919533
0.0003444713577
0.0003660412351
0.0003792997624
0.0003797617244
0.0003496356982
0.0003524204739
0.0003181290638
0.0002938673199
0.0004039352104
0.0003096306715
0.0002690083082
0.000262820096
0.0001697954372
0.0002135207638
0.0002354471482
0.0002530828752
0.000269238021
0.0002825158257
0.0002930671371
0.0002999605852
0.0003011089038
0.0002939121007
0.0002779564356
0.0002620223412
0.0002597082499
0.0002661976731
0.0002713618914
0.0002734817776
0.0002722634007
0.0002676387594
0.00026292345
0.0002683073987
0.0002879700314
0.0003107404596
0.0003292133207
0.0003364559378
0.000325101649
0.0002970371308
0.0003085799677
0.000272836739
0.0002537878582
0.0003055935952
0.0002666196434
0.0002602775833
0.0002610623933
0.0001656988848
0.000209615093
0.0002331784207
0.0002525357264
0.0002699943839
0.0002843327578
0.0002953038358
0.0003022434274
0.000303535194
0.0002966315862
0.0002794279071
0.0002582321349
0.0002511787308
0.000257249994
0.0002625807882
0.000264274838
0.0002621897575
0.0002559534597
0.0002473588177
0.0002451203189
0.0002570017504
0.0002746992766
0.0002889972125
0.0002906177287
0.000273706844
0.000256105358
0.0002670554152
0.0002461883291
0.000244497203
0.0002624982279
0.0002574965036
0.000258068101
0.0002590754669
0.0001601003813
0.0002025748931
0.0002266991612
0.0002469942737
0.0002649478362
0.0002799883906
0.0002912999627
0.0002983336893
0.0002996493915
0.0002927158388
0.0002749021888
0.0002513864545
0.0002420680918
0.0002468624738
0.0002520913155
0.0002533171106
0.0002504470242
0.000243309015
0.0002333267497
0.0002275892648
0.0002325203771
0.000243426599
0.0002523836388
0.0002516085198
0.0002396388492
0.0002337488113
0.0002407755272
0.0002373872349
0.0002432354957
0.0002526848758
0.0002542038621
0.000255676171
0.0002554365816
0.0001538525999
0.000193112539
0.0002162487748
0.0002365384694
0.0002544545407
0.0002699427559
0.0002816050493
0.0002887147486
0.0002898833466
0.0002826707552
0.0002647744304
0.0002420442771
0.0002326331579
0.0002360707194
0.000240241772
0.0002409362902
0.0002376273029
0.000230619652
0.0002217915941
0.0002159692504
0.0002173380896
0.0002233450717
0.0002288346412
0.0002298240656
0.0002274896753
0.0002299297174
0.0002346185868
0.0002366915617
0.0002402146681
0.0002487035872
0.0002507941676
0.0002526154836
0.0002549930971
0.0001481905641
0.0001831261187
0.0002034592426
0.000222350167
0.0002397407784
0.0002549263894
0.0002668719965
0.0002740663205
0.0002750377503
0.0002675914313
0.0002504521469
0.0002310366413
0.0002233288318
0.0002266644559
0.0002307683433
0.0002322723582
0.000230541514
0.0002250251461
0.0002164401518
0.000209953652
0.0002105465717
0.000215444093
0.0002223964829
0.000232348526
0.0002483016201
0.0002699632553
0.0002821838592
0.000247341759
0.0002364735494
0.0002439698099
0.0002466921701
0.0002518521176
0.0002917196296
0.0001440174389
0.0001748302424
0.0001910986471
0.0002067404405
0.0002222447938
0.0002364918816
0.0002480375487
0.0002553096991
0.0002562851804
0.0002491810694
0.0002346652887
0.0002205354111
0.0002186782948
0.000228393686
0.0002419878039
0.0002560440291
0.000265274099
0.0002606993461
0.0002370532587
0.000211342886
0.0002105676599
0.0002200917533
0.0002383759192
0.0002670597043
0.0003029260554
0.0003363317554
0.0003494366371
0.00029026987
0.000248965898
0.0002389803822
0.00024186747
0.0002529362569
0.000321901309
0.0001415036533
0.0001694773263
0.0001818941999
0.0001931134742
0.0002048274643
0.0002166820853
0.000227115966
0.0002340425846
0.0002353340475
0.0002296781042
0.0002192501607
0.0002134191784
0.0002223791721
0.0002438836603
0.0002704013252
0.0002956881108
0.0003113009085
0.0003060809141
0.0002700138343
0.0002178573468
0.0002140532307
0.0002304223889
0.0002596696485
0.0002979462459
0.000337983272
0.0003703420771
0.0003811309202
0.0003297770167
0.0002779748743
0.000243335646
0.0002370631411
0.0002432832642
0.0002760629644
0.0001401700299
0.0001667506071
0.0001767224442
0.000184072148
0.000191112596
0.0001987176168
0.0002063251792
0.0002120513401
0.0002136126218
0.0002100308932
0.0002048045655
0.0002077226416
0.0002260045715
0.0002552366415
0.0002875610958
0.0003163476899
0.0003337332951
0.0003286179045
0.0002882801344
0.0002218304472
0.0002157435029
0.0002350447862
0.000267578598
0.0003070924851
0.0003462437
0.0003775272228
0.0003885064056
0.0003432802838
0.000291553012
0.000247828117
0.000233287428
0.0002368254395
0.000246264504
0.0001391695547
0.0001653036334
0.0001742877276
0.0001793967443
0.0001827545933
0.0001857459605
0.0001890130994
0.0001918948489
0.0001928059326
0.0001911742988
0.0001905582583
0.0001989819407
0.0002211035791
0.0002524244697
0.0002854210833
0.0003140151431
0.0003311193255
0.0003260000646
0.0002852308911
0.0002199699262
0.0002139349749
0.0002313627913
0.0002609882354
0.0002977632251
0.000334426886
0.0003645383614
0.0003770956745
0.0003326576892
0.0002846246226
0.0002434627951
0.0002289439063
0.0002318665798
0.0002349242904
0.0001375003617
0.0001635757455
0.0001724626555
0.0001767343965
0.0001781110025
0.0001778209389
0.0001769655504
0.0001760832476
0.0001750315903
0.000174109882
0.0001760826733
0.0001860636735
0.0002071536442
0.0002366061846
0.0002678325385
0.0002945531585
0.0003101971193
0.0003047949185
0.0002665373102
0.0002138569218
0.0002098404243
0.00022282969
0.0002457718518
0.0002766582344
0.0003096724679
0.0003380410932
0.0003524509545
0.0003052159551
0.000264354655
0.0002323762296
0.0002234345477
0.0002267529261
0.0002286551506
0.0001341026462
0.000160190818
0.0001693851796
0.0001735886092
0.0001742104227
0.0001722032584
0.0001686071998
0.0001644692514
0.0001608498518
0.000159201327
0.0001617481465
0.0001708899608
0.0001881512817
0.0002127690359
0.0002403486196
0.0002644199007
0.0002781321743
0.000272741654
0.0002410522019
0.0002059478236
0.0002047436228
0.0002133241896
0.0002284398883
0.0002507498341
0.0002778940737
0.0003038739112
0.0003198362516
0.0002692655297
0.0002402534958
0.0002200943251
0.0002172290814
0.0002208707985
0.0002223752965
0.0001278257923
0.0001540166052
0.0001636982951
0.0001681582841
0.0001686459459
0.0001659148645
0.0001608491975
0.0001545881741
0.0001488475579
0.0001460351095
0.0001482667679
0.0001560155313
0.0001689471624
0.0001870089153
0.0002085147139
0.0002285708208
0.0002403252174
0.0002364370225
0.0002150980968
0.0001973505445
0.0001986550458
0.0002043283056
0.0002131685161
0.0002266746937
0.0002452546959
0.0002660024357
0.0002811578017
0.0002364114323
0.0002198738647
0.0002094043697
0.0002103474512
0.0002138921489
0.0002150740392
0.0001175219143
0.0001441811759
0.0001545171053
0.0001593078662
0.0001598807389
0.0001569058625
0.0001512079275
0.0001440627648
0.0001377330749
0.0001351531593
0.0001377893016
0.0001445535255
0.0001539345216
0.0001656464686
0.0001795912177
0.0001935810803
0.0002028013627
0.0002021308889
0.0001926832644
0.0001875046081
0.0001903808715
0.0001946701227
0.0001999698661
0.0002071689396
0.0002174116904
0.0002303701038
0.0002411105115
0.0002116753821
0.000204665017
0.0001998041343
0.0002023787867
0.0002056021497
0.0002065129586
0.0001028793463
0.0001300026331
0.000140986882
0.0001459999224
0.000146629281
0.0001436434462
0.0001381068135
0.0001318952771
0.0001278923912
0.0001283570898
0.0001327859033
0.0001391099712
0.000145961176
0.0001530219021
0.0001604669861
0.0001679421304
0.000173674941
0.0001754120109
0.0001740846738
0.0001747361284
0.0001778576257
0.000181410665
0.0001852051239
0.0001893581585
0.0001943609543
0.0002004876068
0.000205753675
0.000192381519
0.0001906698746
0.0001890588617
0.0001921609385
0.0001950899102
0.0001958986276
8.752155567e-05
0.0001100408176
0.0001196442856
0.0001240634545
0.0001246167872
0.0001221693009
0.0001183406142
0.0001157622187
0.0001167806901
0.0001213676677
0.0001275904747
0.0001337102945
0.0001389709026
0.0001432662327
0.0001467527877
0.0001495764672
0.0001516167951
0.0001525699754
0.0001527853109
0.0001535029026
0.0001550454625
0.0001572648002
0.0001600700995
0.0001631068109
0.0001660778035
0.000168819585
0.000170834348
0.0001674652186
0.0001682298947
0.0001687963971
0.0001715707412
0.000174071008
0.0001752239988
0.000112041901
0.0002565986477
0.0002534235485
0.0004444018838
0.0008026389735
0.0007602834025
0.0005152879127
0.0005424398321
0.0005228233319
0.0004848177623
0.0004507055472
0.0004409711531
0.000476732899
0.0005593175534
0.0006914318312
0.0008779892623
0.001115371214
0.001385098067
0.001596169891
0.001755366023
0.001838206847
0.001814342699
0.001546800308
0.00105160721
0.0008765737119
0.0009121676467
0.001060159141
0.001221210553
0.0001085762725
0.0002244936502
0.000250809666
0.0003149054704
0.0004401723239
0.0004888852737
0.0005861752258
0.0006039625604
0.0005456737792
0.000491643451
0.0004551034654
0.0004558660423
0.0005019553335
0.0005919603237
0.0007205577933
0.0008862512144
0.001095256232
0.001368068701
0.001607572967
0.001768120496
0.001860439425
0.001859510915
0.001743478801
0.001201969581
0.0009861478987
0.0009816925775
0.0010649802
0.00116352284
0.001213313295
0.001182615923
0.001119192482
0.001052231735
0.0001111712461
0.0002380223576
0.0003070026812
0.0004152113567
0.0005205027138
0.0006475342419
0.0006669829877
0.0006345294476
0.0005625096532
0.0004947808074
0.0004503832206
0.0004505149594
0.0005011188413
0.0006001747198
0.0007389131167
0.0009036374004
0.001088881481
0.001303897229
0.001524627683
0.001707136555
0.0017796121
0.001790643038
0.001758693779
0.00145131471
0.001163917151
0.001091587321
0.001091348187
0.001100038614
0.001083358057
0.001048489971
0.0009985800132
0.0009519870226
0.0001328069523
0.0002879605196
0.0005315513146
0.0005688558159
0.000574452047
0.0006246732812
0.0006367113528
0.0006054022414
0.0005409930975
0.0004737992628
0.000430395047
0.0004329952456
0.0004835323734
0.0005759866179
0.0006981199395
0.0008375851251
0.0009905656933
0.001153335371
0.001337684685
0.001523576158
0.001641765947
0.001669547139
0.001644881284
0.001438833115
0.001242986245
0.001153594239
0.001107460972
0.001055389475
0.0009871931599
0.0009135209195
0.0008454791624
0.0008003722849
0.000799468696
0.0001701395423
0.0007132515305
0.001070608086
0.001066123274
0.0008826982361
0.0006485444971
0.0006130556219
0.0005781954361
0.0005113276897
0.0004448006156
0.0004092632399
0.0004197048035
0.0004758981332
0.0005724310469
0.0006926728092
0.0008142100948
0.0009250331777
0.001032781157
0.00115637234
0.001294795143
0.001411246485
0.0014526999
0.001440015231
0.001306151907
0.001196169807
0.001134406548
0.001060186528
0.0009616315647
0.000855136652
0.0007608845098
0.0006920184519
0.0006493971756
0.0006343544326
0.0003158298778
0.001027821075
0.001258931425
0.001228856755
0.0009937693238
0.0006129674024
0.0005610496463
0.0005671321416
0.0005057321241
0.0004376181382
0.0004048417279
0.0004162217532
0.0004702462058
0.000563354073
0.0006796029277
0.0007928880266
0.0008847904704
0.0009590182332
0.001033354995
0.001113127935
0.001187510039
0.001229460767
0.001232489454
0.001188238565
0.001126486658
0.001061125374
0.0009443056583
0.0008245590552
0.0007151301748
0.0006358478939
0.0005957902132
0.000568193302
0.0005639349326
0.0002306650656
0.000820640846
0.001127197006
0.001108854666
0.0008327276755
0.000631456546
0.0006952700872
0.0006821025906
0.0006106431289
0.0005019529777
0.0004352594714
0.0004294630289
0.0004679964228
0.0005405304166
0.0006321771674
0.0007213944862
0.0007903060074
0.0008370590774
0.0008721862822
0.0009053841805
0.000934144306
0.0009573892873
0.0009837234684
0.001009322543
0.001004621236
0.0009976809514
0.0008853817556
0.0007791416341
0.000680274923
0.000619844161
0.0006946381551
0.0006026161184
0.000602903305
0.0001620217594
0.0003437070886
0.0005776102636
0.0006232413509
0.0006110011987
0.0007363741536
0.0008344535555
0.0008478452509
0.0007774132737
0.0006433826176
0.0005081142178
0.0004737399663
0.0004979383766
0.000552160358
0.0006187008343
0.0006801840193
0.000719966322
0.0007344341947
0.0007407567601
0.0007802566422
0.0007505974479
0.0007756267562
0.0008475324398
0.0009628422103
0.001094720006
0.001101718667
0.001034342746
0.0009533402926
0.0008480502164
0.0007362399513
0.0006937147992
0.0006808125692
0.000705786628
0.0001379162015
0.000245269315
0.0003521238754
0.0005001533262
0.0006919612616
0.0008534045764
0.0009512879076
0.0009652718643
0.0009003145111
0.0007642495758
0.0005935472211
0.0005565268897
0.0006077417577
0.0006998282237
0.0007913478802
0.0008670696769
0.0009066818983
0.0008919212852
0.0008205154514
0.0007740072696
0.0007886550234
0.0008887210786
0.001079760127
0.00127174976
0.001401119351
0.001327125007
0.001243618677
0.001179280926
0.001107102951
0.0009914338064
0.0008715645001
0.000815020581
0.0008330400417
0.0001317091367
0.0002599230498
0.0003766636186
0.0005769809466
0.0007945991832
0.0009391833548
0.001019318253
0.001029124829
0.0009715077145
0.0008332603994
0.0006698035943
0.0006490417517
0.000714942499
0.0007867237183
0.0008575126396
0.0009191264067
0.0009657066601
0.0009922405072
0.0009928780678
0.0009801503186
0.00101326495
0.001095363902
0.001218337058
0.001360907741
0.001462671064
0.001405311481
0.001347315244
0.001332373283
0.001335113084
0.001265089103
0.001127715021
0.0009749033792
0.0009453854174
0.0001389885226
0.0003112525867
0.0004575983339
0.0006613413984
0.0008537749143
0.000971901295
0.00103495413
0.001039245586
0.0009786509489
0.000828069793
0.0007109358168
0.0007195415828
0.0007696614224
0.0008127810832
0.0008587136341
0.0009064405432
0.0009507503936
0.0009858658752
0.001004485576
0.001011195851
0.001041838013
0.001123806841
0.001240996655
0.001360048707
0.00144130126
0.001433411959
0.001394792105
0.001452020142
0.001569569585
0.001548764894
0.001433536519
0.001147338825
0.001044579133
0.0001549445069
0.0003851400044
0.0005644522607
0.000746304819
0.0008889286705
0.0009772070101
0.001023209251
0.001020786288
0.0009542470218
0.0008221444191
0.0007571101931
0.0007765356882
0.0007925682418
0.000812300091
0.0008408475945
0.0008751619076
0.0009109237634
0.0009433649029
0.0009668497954
0.0009898169121
0.001020518805
0.001102913412
0.001228059357
0.001363925103
0.00142199854
0.001524406424
0.001455888499
0.001486809123
0.001629247284
0.001646399625
0.001588178331
0.001181860649
0.001017197305
0.0001628250004
0.0004434758839
0.0006424067753
0.000804480176
0.0009085378222
0.0009747079086
0.001006969792
0.0009981472533
0.0009334317813
0.0008546897649
0.0008185580467
0.0008129055431
0.0008056688704
0.0008072398686
0.0008215773695
0.0008452721504
0.0008749538259
0.0009081021432
0.0009381447617
0.0009619220317
0.000988824434
0.001057117112
0.001165139515
0.001300301716
0.001414111813
0.001399463687
0.001341200088
0.001355791856
0.001490082021
0.001533452574
0.001401887547
0.001124258392
0.001060847453
0.000164367476
0.0004701904618
0.0006760768085
0.0008293692379
0.0009127019824
0.0009657958949
0.0009907882848
0.0009863125626
0.0009540971715
0.0009116582841
0.0008745957862
0.0008441125092
0.0008187552195
0.0008048108385
0.0008059071147
0.000819772125
0.0008432827015
0.0008747153447
0.0009079818487
0.0009323872657
0.0009505317425
0.0009891126501
0.001061164601
0.001150519266
0.001240172499
0.001231933647
0.001149707572
0.001071258513
0.001155640652
0.001147949522
0.001117092249
0.001074916813
0.001079021661
0.0001634416995
0.0004675662824
0.0006705125945
0.00082426383
0.0008991645157
0.0009451779451
0.000966258275
0.0009656600919
0.0009483150863
0.0009226526817
0.0008929590999
0.0008588910698
0.0008249358322
0.0008004649117
0.0007906792879
0.000795140388
0.0008114514081
0.0008377214899
0.0008682063513
0.0008888126126
0.0008958399427
0.0009096601372
0.0009459469224
0.0009991884723
0.001054993355
0.001064302383
0.001014450297
0.0009412705389
0.00101282704
0.000994380568
0.001038822802
0.001047001496
0.001040717453
0.0001609768084
0.0004475154474
0.000637779304
0.0007940326095
0.0008706906222
0.0009168613969
0.0009400666587
0.0009458177623
0.0009380340504
0.0009204791685
0.0008941698926
0.0008583235094
0.0008189913152
0.0007890038284
0.0007727571881
0.0007696267363
0.0007788503937
0.0007985650122
0.0008242141054
0.0008429751998
0.000844389499
0.0008423055701
0.0008517394538
0.0008819350852
0.000921877792
0.0009215384786
0.0009200014222
0.0009251710215
0.001005814382
0.0009916329358
0.001012511527
0.001008005495
0.001011733705
0.000157289616
0.0004201252635
0.0005891168909
0.0007419410835
0.0008289681592
0.0008804187337
0.0009095055464
0.0009223819041
0.000921180024
0.0009067764813
0.0008788364407
0.0008377657276
0.0007939895895
0.0007674362745
0.0007521301011
0.0007451932795
0.0007491770864
0.0007629048793
0.0007816236443
0.0007926936344
0.000793797712
0.0007970930962
0.0008035901331
0.0008235330141
0.0008515347592
0.0008726635148
0.0008983135318
0.0009506930878
0.001001244982
0.0009832386186
0.0009715425338
0.0009683399907
0.0009908637352
0.0001530009332
0.0003934407932
0.0005363473889
0.0006750182752
0.000775325393
0.0008320945639
0.0008674524571
0.0008863312494
0.0008892712363
0.0008751122249
0.0008427503689
0.0007938525807
0.0007422170546
0.0007355271607
0.0007312489927
0.0007260925187
0.0007279622194
0.0007372462845
0.0007489947809
0.0007494540179
0.0007512494187
0.00076654972
0.0007875102038
0.0008140005692
0.0008467146563
0.0008887866813
0.0009201188246
0.0009667439775
0.0009718530693
0.0009509450644
0.0009342010218
0.0009393795404
0.0009776025526
0.000148913869
0.000373765499
0.0004917248475
0.0006060368428
0.0007110171773
0.0007703351888
0.0008093499615
0.0008314540588
0.0008362351973
0.0008211317672
0.0007841906459
0.0007253207143
0.0006780828711
0.0006893190615
0.0007083013904
0.0007120098262
0.0007148276673
0.0007188290288
0.0007201909494
0.0007214636744
0.0007305737075
0.0007545240364
0.0007829538501
0.0008180745058
0.0008594351487
0.0009010547792
0.0009237379096
0.0009595795997
0.0009512021523
0.0009242450148
0.0009071070213
0.0009218454372
0.0009712802025
0.000145676516
0.0003647144955
0.0004653857515
0.0005514427338
0.0006360261948
0.0007019589115
0.000737385125
0.000758287084
0.0007622466227
0.0007459703752
0.0007072149288
0.0006470091897
0.0006173040313
0.0006368505259
0.0006674623782
0.0006893885892
0.0007024267349
0.000703016188
0.0006974278679
0.0007013422428
0.0007147785341
0.0007429870644
0.0007706869376
0.0007994768228
0.0008368014822
0.0008730254066
0.0008928335415
0.0009392034271
0.0009394969162
0.0009076787118
0.0008866855011
0.000901329105
0.0008945800544
0.0001435530903
0.0003662255825
0.0004610931252
0.0005258001874
0.0005797958233
0.0006275470595
0.0006624744575
0.0006762889867
0.0006751944892
0.0006573791141
0.0006159933371
0.0005740228961
0.0005657340017
0.0005978112561
0.0006493661932
0.0006976551902
0.0007238604446
0.0007198756803
0.000695100537
0.0006774637255
0.0006850453444
0.0007163153483
0.0007415321602
0.0007721379323
0.0008288744034
0.0008811263612
0.0008950052481
0.0009177494139
0.0009155508818
0.0008898572819
0.0008676167185
0.0008820733373
0.0008492347106
0.0001423863708
0.0003753437637
0.0004746932207
0.0005299642598
0.0005590324141
0.0005743030705
0.0005834802803
0.000585692189
0.0005773137393
0.0005562966318
0.0005279922228
0.0005115171369
0.0005263461216
0.0005792315387
0.0006528576028
0.0007262360375
0.0007737355542
0.0007661059696
0.0007116109433
0.0006545198561
0.0006453285339
0.0006818647812
0.0007154025623
0.0007596698946
0.0008415131642
0.0009114781873
0.0009205449415
0.0009110257726
0.0008811941094
0.000841642339
0.0008341696182
0.0008514686818
0.0008045230672
0.0001416514487
0.0003870785714
0.0004966577652
0.000552461384
0.0005680782681
0.0005571741848
0.0005348006124
0.0005106593296
0.0004878660869
0.0004671694357
0.000452838589
0.0004551120732
0.0004863818555
0.0005563162068
0.0006433320799
0.0007373679045
0.0007995600374
0.0007894333069
0.0007147048553
0.0006255194846
0.0006064026706
0.0006466664368
0.0006926328804
0.0007435450589
0.0008322205005
0.0009103100205
0.0009183608753
0.0008929060091
0.0008396037183
0.0007881636793
0.0007991922076
0.0008255859217
0.0007948029453
0.000140507954
0.0003949928881
0.0005154009952
0.0005761812604
0.000587135326
0.0005608241204
0.0005149346477
0.0004661821677
0.0004261338737
0.0004003551662
0.0003909148207
0.000399995726
0.0004339156713
0.0005043699729
0.0005976256467
0.0006927652342
0.0007575846702
0.0007484269404
0.0006741517699
0.0005850808015
0.0005752631364
0.0006165675534
0.000667048072
0.0007135846887
0.0007843535192
0.000854144791
0.0008637134825
0.0008409043283
0.0007845203653
0.0007383401615
0.0007664061153
0.0008041384202
0.0007900464713
0.0001378376803
0.0003915017157
0.0005189891294
0.0005845692901
0.000594636644
0.000560658859
0.0005010682956
0.0004359697251
0.0003822167837
0.0003492790604
0.0003385569472
0.0003467882104
0.000373384907
0.0004271280536
0.0005123669368
0.000595403731
0.0006516990838
0.0006497779807
0.0006009165149
0.0005414734871
0.0005527771472
0.0005930593778
0.0006361759272
0.0006792678068
0.0007216066007
0.0007667268992
0.0007773427021
0.0007698266191
0.0007116137062
0.0006949640942
0.0007348758357
0.0007811277077
0.0007801591323
0.0001324105925
0.0003692116261
0.0004964755792
0.0005641734699
0.000574295414
0.0005372356676
0.0004719551225
0.0004002189919
0.0003409737397
0.00030493439
0.0002930572035
0.0002995520614
0.0003184550413
0.0003515588904
0.0004064856188
0.0004759026422
0.000526310389
0.0005360350728
0.0005104389566
0.000500875706
0.0005305383202
0.0005693468623
0.0006033750464
0.0006380997441
0.0006693630625
0.0006916822942
0.0007002560306
0.0007067942945
0.0006487905297
0.0006538267156
0.0006983966143
0.0007509213755
0.0007584998895
0.0001232575271
0.0003246524438
0.0004409132663
0.0005061999844
0.0005169980343
0.0004817028664
0.0004191955234
0.0003516559124
0.0002977308832
0.0002667861615
0.0002582613813
0.000265455846
0.000280793738
0.0003012957938
0.0003302102062
0.0003690319042
0.0004068314113
0.0004276229638
0.0004356333546
0.0004577659878