/*--------------------------------*- C++ -*----------------------------------*\
  =========                 |
  \\      /  F ield         | OpenFOAM: The Open Source CFD Toolbox
   \\    /   O peration     | Website:  https://openfoam.org
    \\  /    A nd           | Version:  8
     \\/     M anipulation  |
\*---------------------------------------------------------------------------*/
FoamFile
{
    version     2.0;
    format      ascii;
    class       volScalarField;
    location    "1.8";
    object      O2;
}
// * * * * * * * * * * * * * * * * * * * * * * * * * * * * * * * * * * * * * //

dimensions      [0 0 0 0 0 0 0];

internalField   nonuniform List<scalar> 
67286
(
0.2100026821
0.2100024409
0.2100013912
0.2099994222
0.209998629
0.2100003668
0.2100005619
0.2100007504
0.2100007794
0.2100007762
0.2100007823
0.2100008086
0.2100008358
0.2100008411
0.210000804
0.210000698
0.2100005284
0.2100003286
0.2100000988
0.2099998861
0.2099997364
0.209999562
0.2099999839
0.2100001782
0.2100002093
0.2100001308
0.2099999838
0.2099998396
0.210002386
0.210001998
0.2100013726
0.2100008447
0.210000051
0.2100004939
0.2100004814
0.2100005485
0.2100005834
0.2100005333
0.210000479
0.2100004544
0.2100004663
0.2100005041
0.2100005531
0.2100005774
0.2100005219
0.2100003729
0.210000108
0.2099995616
0.209999505
0.2099993405
0.2099998456
0.2099999106
0.2099998161
0.209999714
0.2099997077
0.2099997265
0.2099997307
0.2099997652
0.2099997884
0.209999819
0.2100021484
0.210001614
0.2100009735
0.2100007691
0.2100006146
0.2100004547
0.2100004464
0.2100004277
0.2100003868
0.2100002857
0.2100001662
0.2100000926
0.2100000637
0.2100000601
0.2100000623
0.2100000607
0.2100000571
0.2100000386
0.2099999528
0.2099997223
0.2099993145
0.2099985972
0.2099993027
0.2099994809
0.2099994398
0.2099993655
0.2099993755
0.2099994539
0.2099995348
0.2099996136
0.2099996609
0.2099996975
0.2100017403
0.2100010156
0.2100004297
0.2100003279
0.2100003601
0.2100002845
0.2100002581
0.2100001896
0.2100001289
0.2099999898
0.2099998246
0.2099997261
0.2099996937
0.209999709
0.2099997407
0.2099997594
0.2099997433
0.2099996843
0.2099995654
0.2099993526
0.2099990134
0.2099985063
0.2099989028
0.209999159
0.2099991595
0.2099991113
0.2099991156
0.2099991924
0.2099992926
0.2099993841
0.2099994557
0.2099995049
0.2099995305
0.2100010656
0.2100003817
0.2100000766
0.2100001226
0.2100000894
0.2100001638
0.210000045
0.2099999325
0.2099998478
0.2099996868
0.2099994978
0.2099993829
0.2099993324
0.2099993345
0.209999362
0.2099993942
0.2099994208
0.2099994322
0.2099994046
0.2099993022
0.2099990876
0.2099987398
0.209998783
0.2099989403
0.2099989205
0.2099989228
0.2099989157
0.209998973
0.2099990445
0.2099991148
0.2099991941
0.2099992257
0.2099992749
0.2099991993
0.2099992695
0.209999422
0.2099997741
0.2099994648
0.2099997823
0.2099997954
0.209999713
0.209999636
0.2099994653
0.2099992566
0.209999127
0.2099990542
0.2099990414
0.2099990661
0.2099991071
0.2099991475
0.2099991807
0.2099991889
0.2099991629
0.2099990878
0.2099989391
0.2099988715
0.2099988334
0.2099988425
0.209998854
0.2099987359
0.209998749
0.2099987979
0.2099988614
0.2099989846
0.2099989748
0.2099990254
0.210000434
0.2099995243
0.2099993596
0.2099996517
0.209999937
0.2099998001
0.2099996868
0.2099996164
0.2099995291
0.2099993323
0.209999069
0.2099989077
0.2099987918
0.2099987413
0.2099987419
0.2099987796
0.2099988436
0.209998923
0.2099989985
0.2099990336
0.2099990154
0.2099989518
0.209998871
0.2099988371
0.2099988278
0.209998803
0.2099985295
0.2099985227
0.2099986123
0.2099987876
0.2099994349
0.2099989794
0.2099989618
0.2100011099
0.2100001696
0.2099997362
0.2099998836
0.2099997502
0.2099996485
0.2099996067
0.2099995422
0.2099994723
0.2099992356
0.2099988913
0.2099987
0.2099985611
0.2099984984
0.2099984883
0.209998504
0.2099985312
0.2099985781
0.2099986539
0.2099987339
0.2099987124
0.2099986969
0.209998666
0.2099986587
0.209998755
0.2099985462
0.209998407
0.2099983976
0.2099985073
0.2099986892
0.2099988924
0.2099988936
0.2099989126
0.2100010636
0.2100004582
0.2099998937
0.2099996314
0.2099995102
0.2099995112
0.2099994736
0.209999428
0.2099993776
0.2099991206
0.2099987267
0.209998526
0.209998413
0.2099983829
0.2099983875
0.2099983825
0.2099983628
0.2099983641
0.209998423
0.2099985
0.2099985574
0.2099985981
0.2099986428
0.2099987317
0.2099991424
0.2099985012
0.2099984188
0.2099983437
0.2099985142
0.2099986174
0.20999891
0.2099989183
0.2099989046
0.2100008102
0.2100004325
0.2099999973
0.209999696
0.2099995324
0.2099994245
0.2099993111
0.2099992184
0.2099991517
0.2099989386
0.2099985993
0.2099984073
0.2099983383
0.2099983447
0.2099983431
0.209998318
0.2099982981
0.2099983252
0.2099984062
0.2099984915
0.2099985504
0.2099985926
0.2099986499
0.209998833
0.2099990957
0.2099983376
0.2099982858
0.2099981962
0.2099984581
0.2099983172
0.2099988995
0.2099989959
0.2099989291
0.2100005724
0.210000344
0.2100000817
0.2099998501
0.2099996586
0.2099994944
0.2099993367
0.2099992025
0.2099990536
0.2099987553
0.2099984312
0.2099983014
0.2099982816
0.2099982932
0.2099982927
0.2099982886
0.2099982986
0.2099983366
0.2099983987
0.2099984651
0.2099985017
0.2099985152
0.209998534
0.2099986478
0.2099988775
0.2099983681
0.2099982462
0.2099982677
0.2099984543
0.209997646
0.2099986917
0.2099991653
0.209999114
0.2100002707
0.2100001787
0.210000055
0.2099999128
0.2099997532
0.2099995793
0.209999393
0.209999193
0.2099989184
0.2099985561
0.2099983081
0.2099982411
0.2099982511
0.2099982636
0.2099982763
0.2099982984
0.2099983301
0.2099983628
0.2099983988
0.2099984487
0.209998404
0.2099984417
0.2099985484
0.2099987871
0.2099983518
0.2099987709
0.2099980714
0.2099979799
0.2099963743
0.2099942328
0.2099966115
0.2099983107
0.2099990186
0.2100001117
0.2100000069
0.2099999208
0.2099998257
0.2099997066
0.2099995444
0.2099993307
0.2099990468
0.209998688
0.2099983754
0.2099982018
0.2099981532
0.2099981612
0.2099981774
0.2099982018
0.2099982435
0.2099983039
0.2099983684
0.2099984162
0.2099984414
0.2099983508
0.2099983811
0.2099985352
0.2099989513
0.2099993808
0.2100014715
0.2099989019
0.2099987827
0.2099980798
0.2099948618
0.2099978662
0.2099990932
0.2099990776
0.210000049
0.2099999162
0.2099998172
0.2099997178
0.2099996001
0.2099994341
0.2099992113
0.2099989362
0.2099986523
0.2099984131
0.2099982288
0.2099981274
0.2099981019
0.2099981125
0.2099981374
0.209998178
0.2099982363
0.209998304
0.2099983632
0.2099983852
0.2099983217
0.2099983439
0.2099983972
0.2099986825
0.209998986
0.2099998533
0.2099985263
0.2099986266
0.2099988762
0.2099971114
0.2099990559
0.2099990267
0.2099987984
0.21000001
0.2099998607
0.2099997321
0.2099995998
0.2099994555
0.2099992759
0.2099990706
0.2099988611
0.2099986684
0.2099984783
0.2099982699
0.2099980997
0.2099980412
0.209998057
0.2099980826
0.2099981148
0.2099981625
0.2099982259
0.2099982964
0.2099983218
0.2099982179
0.2099983118
0.2099983184
0.2099984982
0.2099987227
0.2099991135
0.2099983442
0.2099985329
0.2099988125
0.2099986706
0.2099990557
0.2099987511
0.2099986813
0.2099999868
0.2099998348
0.2099996817
0.2099995172
0.2099993501
0.209999164
0.2099989713
0.2099987898
0.2099986296
0.2099984778
0.2099982997
0.2099981094
0.2099980113
0.2099980174
0.2099980361
0.2099980535
0.2099980833
0.2099981325
0.2099982053
0.2099982838
0.2099982905
0.2099983237
0.2099982989
0.2099983806
0.2099985759
0.2099987884
0.2099983293
0.2099985688
0.2099986394
0.2099989666
0.2099987335
0.2099986209
0.2099986641
0.2099999722
0.2099998362
0.2099996787
0.2099994978
0.2099993187
0.2099991348
0.2099989514
0.209998782
0.2099986335
0.2099984991
0.2099983481
0.2099981637
0.2099980318
0.2099980068
0.2099980056
0.2099980018
0.2099980094
0.2099980377
0.2099980944
0.2099981787
0.2099982469
0.2099982812
0.2099982758
0.2099983113
0.2099984647
0.2099985724
0.20999839
0.2099985649
0.2099985414
0.2099987565
0.2099985924
0.2099986286
0.2099987082
0.2099999566
0.2099998518
0.2099997128
0.2099995313
0.2099993446
0.2099991638
0.2099989842
0.2099988158
0.2099986668
0.2099985375
0.2099984086
0.2099982493
0.2099981052
0.2099980349
0.2099980028
0.209997975
0.2099979617
0.2099979719
0.2099980125
0.2099980843
0.2099981654
0.2099982268
0.2099982561
0.2099982886
0.2099983917
0.2099984665
0.209998434
0.2099985414
0.2099985156
0.2099986442
0.2099985968
0.2099986965
0.2099987437
0.2099999348
0.2099998636
0.2099997634
0.2099996005
0.2099994104
0.2099992276
0.2099990485
0.2099988765
0.2099987216
0.2099985915
0.2099984785
0.2099983516
0.2099982108
0.2099981022
0.2099980285
0.2099979674
0.2099979227
0.2099979104
0.2099979526
0.2099980359
0.2099981129
0.2099981983
0.2099982597
0.2099983106
0.2099983793
0.2099984239
0.2099983695
0.2099985482
0.2099985258
0.2099986501
0.2099986669
0.2099988059
0.2099988842
0.2099999111
0.2099998597
0.2099998052
0.2099996842
0.2099995092
0.2099993186
0.2099991346
0.2099989571
0.2099987949
0.2099986615
0.2099985595
0.2099984609
0.2099983301
0.2099982022
0.209998098
0.2099980076
0.2099979407
0.2099979206
0.2099979702
0.2099980592
0.2099981317
0.2099982352
0.2099983259
0.209998407
0.2099984637
0.2099984649
0.2099983627
0.2099986033
0.2099985916
0.2099987145
0.2099987582
0.2099989303
0.2099989538
0.2099998956
0.2099998448
0.2099998213
0.2099997524
0.2099996193
0.2099994411
0.209999248
0.2099990607
0.2099988894
0.2099987511
0.2099986558
0.2099985663
0.2099984336
0.209998268
0.2099980849
0.2099978974
0.2099977592
0.2099977391
0.2099978827
0.2099980853
0.2099981898
0.2099983335
0.2099984247
0.209998466
0.2099984137
0.2099982896
0.2099981992
0.2099985027
0.2099985817
0.2099987798
0.2099989216
0.2099992562
0.2099995969
0.2099998982
0.2099998371
0.2099998196
0.2099997865
0.2099997057
0.2099995702
0.2099993938
0.2099992018
0.209999019
0.2099988697
0.2099987645
0.2099986659
0.2099985121
0.2099982859
0.2099980161
0.209997753
0.2099975562
0.2099975226
0.2099977361
0.2099981156
0.2099983067
0.2099985142
0.2099986098
0.2099986038
0.209998452
0.2099982258
0.2099980613
0.2099983997
0.2099985614
0.2099988207
0.2099990355
0.2099993952
0.2099998263
0.209999919
0.2099998519
0.209999825
0.2099997992
0.2099997506
0.2099996633
0.2099995292
0.2099993572
0.2099991718
0.2099990069
0.209998888
0.2099987931
0.2099986504
0.2099984106
0.2099981068
0.2099978049
0.2099975665
0.2099975038
0.209997723
0.2099982367
0.209998495
0.2099987544
0.2099988942
0.2099989043
0.2099987124
0.209998432
0.2099981822
0.2099985243
0.2099987097
0.209998945
0.2099991509
0.2099994076
0.2099997488
0.2099999472
0.2099998849
0.2099998511
0.2099998176
0.2099997723
0.2099997088
0.2099996138
0.2099994771
0.2099993058
0.2099991332
0.209999006
0.2099989344
0.2099988511
0.2099986684
0.2099983849
0.2099980751
0.2099978099
0.2099977126
0.2099979097
0.2099984446
0.2099986967
0.2099989618
0.2099991558
0.2099992224
0.209999082
0.2099988014
0.2099984767
0.2099988463
0.2099990059
0.2099991421
0.2099992853
0.2099994451
0.2099997196
0.2099999681
0.2099999162
0.2099998858
0.2099998486
0.2099997959
0.2099997309
0.2099996491
0.2099995373
0.2099993873
0.2099992204
0.2099990919
0.209999042
0.2099990288
0.2099989478
0.2099987413
0.2099984577
0.2099981899
0.2099980685
0.2099982415
0.2099986747
0.2099988653
0.2099990927
0.2099993164
0.2099994598
0.209999428
0.2099992176
0.2099988601
0.2099992187
0.2099993051
0.2099993134
0.2099994028
0.209999533
0.2099997711
0.2099999691
0.2099999251
0.2099999039
0.2099998733
0.2099998204
0.209999749
0.2099996616
0.2099995526
0.2099994149
0.2099992628
0.2099991452
0.2099991077
0.2099991357
0.2099991469
0.2099990555
0.2099988494
0.2099986116
0.2099984862
0.209998625
0.2099988819
0.2099990009
0.2099991666
0.2099993697
0.2099995565
0.2099996386
0.2099995634
0.2099992581
0.2099994814
0.2099994836
0.2099994108
0.2099994989
0.2099996489
0.2099998407
0.2099999388
0.2099998998
0.2099998852
0.2099998659
0.2099998234
0.2099997558
0.2099996642
0.2099995487
0.2099994135
0.2099992805
0.2099991896
0.2099991695
0.2099992099
0.209999262
0.2099992599
0.2099991627
0.2099990007
0.2099988924
0.209998954
0.2099990642
0.2099991302
0.2099992359
0.2099993816
0.2099995474
0.2099996846
0.2099997391
0.2099995662
0.2099995841
0.2099995544
0.2099994736
0.2099996022
0.2099997845
0.2099999371
0.2099998584
0.2099998336
0.2099998194
0.2099998066
0.2099997775
0.2099997238
0.2099996412
0.2099995301
0.2099994041
0.2099992956
0.2099992385
0.2099992447
0.2099992983
0.2099993631
0.2099994
0.2099993782
0.209999299
0.2099992229
0.2099992229
0.2099992509
0.2099992815
0.2099993398
0.2099994254
0.2099995351
0.2099996528
0.2099997545
0.2099997171
0.2099996194
0.2099996086
0.2099995688
0.2099997425
0.2099999431
0.2100000646
0.2099997226
0.2099997094
0.2099996923
0.2099996759
0.2099996517
0.2099996101
0.2099995447
0.2099994553
0.2099993554
0.2099992728
0.2099992353
0.2099992577
0.2099993307
0.2099994222
0.2099994967
0.2099995309
0.2099995202
0.2099994888
0.2099994727
0.2099994669
0.2099994706
0.209999493
0.2099995354
0.2099995966
0.2099996702
0.2099997483
0.2099997747
0.2099997063
0.2099997316
0.2099997475
0.2099999314
0.2100001098
0.2100001932
0.2099995883
0.2099994942
0.2099994584
0.2099994258
0.2099993877
0.2099993398
0.2099992823
0.2099992211
0.2099991613
0.2099991085
0.2099990814
0.2099991024
0.2099991747
0.2099992792
0.2099993885
0.2099994799
0.2099995418
0.2099995787
0.209999606
0.20999963
0.2099996542
0.2099996863
0.2099997315
0.2099997892
0.2099998507
0.2099999069
0.2099999431
0.2099999265
0.2099999693
0.2099999929
0.2100001098
0.2100001772
0.2100001972
0.2100021767
0.2100019059
0.2100014876
0.2100008992
0.2100009647
0.2100006464
0.210000882
0.2100009121
0.2100009334
0.2100009001
0.2100008578
0.2100008069
0.210000757
0.2100006867
0.2100005834
0.210000445
0.2100002707
0.2100001265
0.2099997766
0.2099994876
0.2099993099
0.2099991562
0.2099995304
0.2099998103
0.2099999388
0.2099999122
0.2099998294
0.2099997036
0.2100020551
0.2100017323
0.210001255
0.2100008059
0.2100008709
0.2100006745
0.2100007726
0.2100007594
0.2100007566
0.2100006838
0.2100006005
0.2100005257
0.2100004719
0.2100004281
0.2100003851
0.2100003306
0.210000141
0.2099999193
0.209999657
0.2099994909
0.209999283
0.2099992709
0.2099993864
0.2099996156
0.2099996615
0.2099996282
0.2099996014
0.2099995816
0.2099995713
0.2099996099
0.2099996808
0.2099997552
0.2100019133
0.2100015481
0.2100010488
0.2100007558
0.2100006387
0.210000656
0.2100006801
0.2100006514
0.2100005918
0.2100004821
0.2100003504
0.2100002385
0.2100001611
0.2100001072
0.210000059
0.2099999981
0.2099998986
0.2099997484
0.2099995352
0.2099992863
0.2099990823
0.2099991253
0.2099990631
0.2099992672
0.209999339
0.2099993481
0.2099993619
0.2099993998
0.2099994543
0.209999515
0.2099995813
0.209999651
0.2100017088
0.2100013386
0.2100009584
0.2100005966
0.2100005674
0.2100005383
0.2100005364
0.2100004775
0.2100003897
0.210000242
0.2100000724
0.2099999369
0.2099998506
0.209999801
0.2099997601
0.2099997031
0.2099996148
0.2099995058
0.2099993741
0.2099992085
0.2099990177
0.2099989484
0.2099989723
0.2099990562
0.2099990973
0.2099991193
0.2099991519
0.2099992103
0.209999283
0.2099993579
0.2099994325
0.209999507
0.2099995957
0.2100016536
0.2100012466
0.2100008316
0.2100005641
0.2100004195
0.2100004064
0.2100003722
0.2100002944
0.2100001674
0.2099999787
0.2099997834
0.2099996377
0.2099995488
0.2099995061
0.2099994783
0.2099994369
0.2099993705
0.2099992844
0.2099991816
0.2099990594
0.2099989189
0.20999883
0.2099988603
0.2099988849
0.2099989228
0.2099989688
0.2099989935
0.2099990434
0.2099991007
0.2099991595
0.2099992254
0.2099992941
0.2099993764
0.2100016611
0.2100010833
0.2100008852
0.2100006613
0.2100003456
0.2100002099
0.2100002055
0.210000126
0.2099999685
0.2099997478
0.20999954
0.2099993921
0.2099993005
0.2099992602
0.2099992433
0.209999219
0.2099991742
0.2099991175
0.2099990601
0.209998999
0.2099988926
0.2099988145
0.2099987864
0.2099988104
0.2099988275
0.2099988982
0.2099988623
0.2099988683
0.2099988829
0.2099988976
0.2099989174
0.2099990113
0.209999132
0.2100014161
0.2100007914
0.2100004894
0.2100003234
0.2100002275
0.210000219
0.2100001792
0.2100000431
0.2099998551
0.2099996058
0.2099993648
0.2099992014
0.2099990963
0.2099990467
0.2099990323
0.2099990244
0.2099990055
0.2099989764
0.2099989503
0.2099989299
0.2099988644
0.2099988232
0.209998789
0.2099987848
0.2099987491
0.2099992029
0.2099987776
0.2099987134
0.2099987096
0.2099987841
0.2099986785
0.2099988298
0.2099989889
0.2100012976
0.2100008859
0.2100006536
0.2100003029
0.2100002618
0.2100002006
0.2100001085
0.2099999628
0.2099997786
0.2099995268
0.2099992324
0.2099990452
0.2099989295
0.2099988735
0.2099988592
0.2099988605
0.2099988592
0.2099988641
0.20999892
0.2099991279
0.2099987747
0.2099987039
0.2099986225
0.2099985686
0.2099984409
0.209998606
0.2099985887
0.2099985828
0.209998582
0.2099985841
0.2099987097
0.2099987504
0.2099988808
0.2100010016
0.2100006575
0.2100004242
0.2100002745
0.2100002458
0.210000152
0.2100000377
0.2099998938
0.2099997146
0.209999445
0.2099991117
0.2099989249
0.2099988324
0.2099987963
0.2099987808
0.2099987649
0.2099987322
0.2099986749
0.2099986082
0.2099985884
0.2099985525
0.2099985631
0.2099985494
0.2099984826
0.2099983485
0.2099985472
0.2099985405
0.2099985699
0.2099986057
0.2099985792
0.209998578
0.2099986468
0.2099987921
0.2100008522
0.2100005936
0.210000376
0.2100002551
0.2100001635
0.2100000296
0.2099998828
0.2099997225
0.2099995346
0.2099992818
0.2099989988
0.2099988486
0.2099987843
0.2099987509
0.2099987378
0.2099987312
0.2099987146
0.2099986833
0.2099986612
0.2099986804
0.2099986492
0.2099986571
0.2099986228
0.2099986014
0.2099984922
0.2099984988
0.2099985515
0.2099986201
0.2099986412
0.2099987198
0.2099985944
0.2099985788
0.2099986883
0.2100007013
0.2100005405
0.2100003785
0.2100002658
0.2100001492
0.2099999903
0.2099998172
0.2099996369
0.2099994259
0.2099991401
0.209998884
0.2099987638
0.2099987097
0.2099986891
0.2099986899
0.2099986955
0.2099986927
0.2099986747
0.2099986578
0.2099986808
0.2099986916
0.2099987354
0.2099987447
0.209998741
0.2099985845
0.2099983298
0.2099985673
0.2099986538
0.2099985662
0.2099986909
0.2099985962
0.2099985813
0.2099986355
0.21000047
0.2100004469
0.2100003614
0.2100002594
0.2100001346
0.2099999742
0.2099997894
0.2099995843
0.2099993358
0.2099990273
0.2099987944
0.2099986984
0.2099986628
0.2099986709
0.2099987057
0.2099987504
0.2099987924
0.20999883
0.2099988891
0.20999906
0.2099988912
0.2099989079
0.2099988666
0.2099987345
0.2099980333
0.2099983032
0.2099985485
0.2099987057
0.2099986326
0.209999326
0.209999022
0.2099989399
0.209998656
0.210000322
0.2100003201
0.2100002796
0.210000196
0.2100000763
0.2099999238
0.2099997364
0.209999513
0.209999243
0.209998962
0.2099987527
0.2099986421
0.209998606
0.2099986305
0.2099986919
0.2099987662
0.2099988323
0.2099988802
0.2099989329
0.2099991035
0.209998893
0.2099989189
0.2099989139
0.209998757
0.209998749
0.2099962751
0.2099983748
0.2099983138
0.2099984759
0.2099986212
0.2099985513
0.2099986276
0.2099986904
0.2100002274
0.2100002077
0.2100001792
0.2100001066
0.209999993
0.2099998512
0.2099996772
0.2099994736
0.2099992448
0.2099990053
0.209998785
0.2099986247
0.209998556
0.2099985759
0.2099986468
0.2099987309
0.2099987972
0.209998825
0.2099988234
0.2099988515
0.2099987708
0.2099988061
0.2099988262
0.209998794
0.209998766
0.2099980373
0.2099984741
0.2099984461
0.2099985716
0.2099987917
0.2099986084
0.2099986471
0.2099987388
0.2100001516
0.2100001103
0.2100000786
0.2100000119
0.2099999047
0.2099997768
0.2099996278
0.2099994619
0.2099992796
0.209999074
0.2099988451
0.2099986325
0.209998511
0.2099985085
0.2099985723
0.2099986495
0.209998702
0.2099987045
0.2099986617
0.2099986349
0.2099986641
0.2099986715
0.209998694
0.2099986845
0.2099986012
0.2099982729
0.2099984374
0.2099984377
0.2099985202
0.2099984292
0.2099985359
0.2099986275
0.2099987968
0.210000091
0.2100000339
0.2099999934
0.2099999293
0.2099998263
0.2099997082
0.2099995784
0.209999441
0.2099992915
0.2099991122
0.2099988858
0.2099986403
0.2099984706
0.2099984365
0.2099984796
0.2099985388
0.2099985742
0.2099985608
0.2099984983
0.2099984271
0.2099984186
0.2099984553
0.2099985123
0.2099985383
0.2099985086
0.2099984355
0.2099984366
0.2099984776
0.2099985068
0.2099984572
0.2099985852
0.2099987008
0.209998893
0.2100000415
0.2099999781
0.2099999294
0.2099998652
0.2099997678
0.2099996548
0.2099995351
0.209999412
0.2099992786
0.2099991134
0.2099988936
0.2099986372
0.2099984384
0.2099983741
0.209998388
0.2099984217
0.2099984398
0.2099984213
0.2099983664
0.2099983008
0.209998284
0.2099983301
0.209998395
0.2099984489
0.2099984747
0.2099984932
0.2099984725
0.2099985178
0.2099985108
0.2099985426
0.209998646
0.2099988017
0.2099990058
0.2100000017
0.2099999407
0.2099998879
0.2099998216
0.2099997297
0.2099996178
0.2099994984
0.2099993753
0.2099992427
0.2099990822
0.2099988734
0.2099986266
0.209998419
0.2099983356
0.2099983199
0.2099983261
0.2099983284
0.2099983121
0.2099982797
0.2099982467
0.2099982476
0.2099983034
0.2099983768
0.2099984517
0.2099985116
0.2099985546
0.2099985492
0.2099985818
0.2099985678
0.2099986375
0.2099987367
0.2099989277
0.2099991062
0.2099999735
0.2099999187
0.2099998685
0.2099997989
0.2099997121
0.2099995992
0.2099994734
0.2099993407
0.2099991996
0.2099990394
0.2099988462
0.2099986229
0.209998428
0.2099983288
0.2099982898
0.2099982692
0.2099982532
0.2099982374
0.2099982303
0.2099982422
0.2099982744
0.2099983508
0.2099984411
0.2099985344
0.2099986094
0.2099986521
0.2099986484
0.2099986826
0.2099986652
0.2099987475
0.2099988449
0.2099990689
0.2099992569
0.2099999602
0.2099999118
0.2099998704
0.2099998005
0.2099997104
0.2099996013
0.2099994698
0.2099993252
0.2099991727
0.2099990113
0.2099988346
0.2099986423
0.2099984722
0.2099983644
0.209998304
0.2099982635
0.2099982338
0.2099982224
0.2099982396
0.2099982851
0.2099983412
0.2099984452
0.2099985606
0.2099986784
0.2099987694
0.209998825
0.2099988516
0.2099988254
0.2099987961
0.2099988717
0.2099989511
0.2099991866
0.2099992783
0.209999966
0.2099999219
0.2099998903
0.2099998277
0.2099997351
0.2099996231
0.2099994927
0.2099993411
0.2099991783
0.2099990138
0.2099988476
0.2099986846
0.2099985412
0.2099984411
0.2099983883
0.2099983615
0.2099983489
0.2099983534
0.209998355
0.2099983559
0.2099984201
0.2099985578
0.2099987084
0.2099988751
0.2099990128
0.2099991158
0.2099991997
0.2099990306
0.2099989588
0.2099990047
0.2099990668
0.2099993081
0.2099993889
0.2099999908
0.2099999521
0.2099999268
0.2099998734
0.2099997855
0.2099996715
0.2099995375
0.2099993842
0.2099992158
0.2099990457
0.2099988873
0.2099987475
0.2099986333
0.2099985629
0.2099985364
0.2099985188
0.2099985109
0.2099985184
0.2099984929
0.2099984313
0.2099985088
0.2099986769
0.2099988666
0.2099990932
0.2099992667
0.209999392
0.2099994913
0.2099992533
0.2099991493
0.2099991392
0.2099991957
0.209999417
0.2099993503
0.2100000267
0.2099999978
0.2099999771
0.2099999293
0.2099998474
0.209999738
0.2099996059
0.2099994525
0.2099992813
0.2099991068
0.2099989492
0.20999882
0.2099987257
0.209998683
0.2099986785
0.2099986648
0.2099986467
0.2099986458
0.2099986111
0.2099985374
0.2099986267
0.2099988015
0.2099990155
0.2099993169
0.2099994674
0.209999595
0.2099996707
0.2099994297
0.20999931
0.2099992657
0.2099993481
0.2099995312
0.2099995057
0.2100000587
0.2100000438
0.2100000301
0.2099999862
0.2099999072
0.2099998014
0.2099996744
0.2099995266
0.2099993586
0.2099991821
0.2099990215
0.2099988949
0.2099988088
0.2099987766
0.2099987896
0.2099987902
0.2099987683
0.2099987553
0.2099987202
0.2099986774
0.20999876
0.2099989016
0.2099990813
0.2099993417
0.2099995363
0.2099996728
0.2099997293
0.2099995335
0.2099994177
0.2099993853
0.2099995009
0.2099996537
0.209999706
0.2100000703
0.2100000679
0.2100000648
0.2100000287
0.2099999533
0.2099998483
0.2099997223
0.2099995786
0.2099994169
0.2099992458
0.2099990898
0.2099989713
0.2099988932
0.2099988583
0.2099988745
0.2099988948
0.2099988857
0.2099988672
0.2099988372
0.2099988356
0.209998902
0.2099990044
0.2099991335
0.2099993223
0.2099995119
0.2099996546
0.2099997056
0.2099995762
0.2099994966
0.2099995071
0.2099996465
0.2099997939
0.2099999006
0.2100000483
0.2100000509
0.2100000587
0.2100000351
0.2099999697
0.2099998692
0.2099997433
0.2099995995
0.2099994432
0.209999285
0.2099991484
0.2099990544
0.209998998
0.209998966
0.2099989647
0.2099989874
0.2099989948
0.2099989832
0.2099989603
0.2099989976
0.2099990512
0.2099991265
0.209999215
0.2099993337
0.2099994741
0.2099996017
0.2099996581
0.2099996065
0.209999586
0.2099996296
0.2099997818
0.2099999385
0.2100000632
0.2099999815
0.2099999833
0.2099999963
0.2099999858
0.2099999369
0.2099998509
0.2099997342
0.2099995959
0.2099994484
0.2099993111
0.2099992081
0.2099991531
0.2099991345
0.2099991259
0.2099991198
0.2099991233
0.2099991297
0.2099991274
0.2099991291
0.2099991712
0.2099992142
0.2099992716
0.2099993346
0.2099994083
0.2099994943
0.209999591
0.2099996498
0.2099996684
0.209999688
0.2099997438
0.2099999087
0.2100000773
0.2100002001
0.2099998572
0.209999864
0.2099998724
0.2099998675
0.2099998359
0.2099997738
0.2099996824
0.2099995675
0.209999444
0.2099993368
0.20999927
0.2099992528
0.209999274
0.2099993061
0.209999328
0.2099993377
0.2099993416
0.209999342
0.2099993475
0.2099993696
0.2099993951
0.2099994328
0.2099994774
0.2099995282
0.2099995851
0.2099996535
0.2099997057
0.2099997569
0.2099997981
0.2099998571
0.2100000341
0.210000203
0.2100003114
0.2099997018
0.2099996939
0.2099996857
0.2099996727
0.2099996493
0.2099996103
0.2099995532
0.2099994789
0.2099993955
0.2099993208
0.2099992754
0.2099992755
0.2099993214
0.2099993924
0.2099994615
0.2099995128
0.2099995444
0.2099995604
0.2099995676
0.2099995723
0.2099995776
0.2099995929
0.2099996209
0.2099996615
0.2099997104
0.2099997658
0.2099998182
0.2099998709
0.2099999247
0.2099999887
0.2100001611
0.2100003038
0.2100003824
0.2099995849
0.2099994585
0.2099994122
0.2099993765
0.2099993409
0.2099993054
0.2099992722
0.2099992415
0.2099992065
0.2099991637
0.2099991285
0.2099991272
0.2099991728
0.2099992549
0.209999352
0.2099994448
0.2099995234
0.2099995849
0.2099996309
0.2099996648
0.2099996926
0.2099997245
0.2099997692
0.2099998278
0.2099998917
0.209999951
0.2100000013
0.2100000386
0.2100000911
0.210000134
0.2100002476
0.2100003069
0.2100003278
0.2100020758
0.210001824
0.2100015175
0.2100012041
0.2100009799
0.2100009248
0.2100009793
0.2100010469
0.2100010328
0.2100009767
0.2100009004
0.2100008055
0.2100006965
0.210000564
0.210000399
0.2100002101
0.2099999847
0.2099996957
0.209999465
0.2099992194
0.2099990146
0.2099989758
0.2099991363
0.2099994316
0.2099995546
0.2099995504
0.2099995038
0.209999473
0.2099995292
0.2100019379
0.2100016466
0.2100013035
0.2100010355
0.2100010167
0.2100009973
0.2100009633
0.2100009198
0.2100008753
0.2100007921
0.2100006913
0.2100005843
0.2100004816
0.2100003805
0.2100002662
0.2100001663
0.209999908
0.2099996922
0.2099994591
0.2099992951
0.2099990155
0.2099989764
0.2099990422
0.2099992788
0.2099993849
0.209999391
0.2099993784
0.2099993834
0.2099994258
0.2099994995
0.2099995956
0.2099997034
0.2100017796
0.2100014989
0.2100011656
0.2100009624
0.2100008605
0.2100008519
0.2100008276
0.2100007818
0.2100007144
0.2100006105
0.2100004816
0.2100003491
0.2100002266
0.2100001119
0.2099999942
0.2099998698
0.2099997155
0.209999547
0.2099993534
0.2099991485
0.2099988993
0.2099988687
0.209998867
0.2099990536
0.2099991589
0.2099991932
0.2099992141
0.2099992585
0.2099993269
0.2099994106
0.2099995027
0.2099996036
0.2100016739
0.2100013798
0.2100010539
0.21000084
0.2100007497
0.210000724
0.2100006938
0.2100006284
0.2100005387
0.2100004098
0.2100002551
0.2100001023
0.2099999685
0.209999854
0.2099997457
0.2099996295
0.2099994862
0.2099993439
0.2099991922
0.2099990232
0.209998831
0.2099987602
0.2099987681
0.2099988814
0.2099989605
0.2099990007
0.209999043
0.2099991117
0.2099991956
0.209999286
0.2099993756
0.2099994795
0.2099995907
0.2100017113
0.2100012109
0.2100008014
0.2100005746
0.2100004595
0.2100004991
0.210000518
0.210000455
0.210000346
0.2100001916
0.2100000147
0.2099998482
0.2099997073
0.2099995911
0.2099994835
0.2099993703
0.2099992505
0.2099991331
0.2099990167
0.209998892
0.2099987568
0.2099986791
0.2099986977
0.2099987551
0.2099988008
0.2099988539
0.2099988899
0.209998968
0.2099990511
0.2099991339
0.2099991978
0.2099993121
0.2099994248
0.2100015851
0.2100010971
0.2100008492
0.210000663
0.2100004622
0.2100003664
0.2100003611
0.2100002828
0.210000154
0.2099999782
0.2099997886
0.2099996181
0.2099994764
0.2099993623
0.2099992599
0.2099991546
0.2099990472
0.2099989479
0.2099988585
0.2099987691
0.2099986926
0.2099986333
0.2099986165
0.2099986397
0.209998657
0.209998692
0.209998722
0.2099988135
0.2099988816
0.209998952
0.2099989513
0.2099991035
0.2099992307
0.2100013786
0.2100008868
0.2100006084
0.210000472
0.2100003289
0.2100003078
0.2100002521
0.2100001373
0.2099999832
0.2099997999
0.2099996032
0.2099994307
0.209999289
0.2099991774
0.2099990842
0.2099989935
0.2099989007
0.2099988156
0.2099987435
0.2099986742
0.2099986247
0.2099985849
0.20999856
0.209998578
0.2099986146
0.2099985054
0.2099985373
0.2099986731
0.209998692
0.2099987268
0.2099981064
0.2099988426
0.2099990484
0.2100012406
0.2100009259
0.2100006647
0.2100004954
0.2100003702
0.2100003003
0.2100001871
0.2100000395
0.209999869
0.2099996718
0.2099994622
0.209999282
0.2099991389
0.2099990283
0.2099989439
0.2099988729
0.2099988069
0.2099987528
0.2099986982
0.2099985145
0.2099985815
0.2099985377
0.2099984843
0.2099984629
0.2099983392
0.209998505
0.209998469
0.2099985501
0.2099986148
0.2099986795
0.209998741
0.2099988757
0.2099989898
0.2100010217
0.2100008116
0.2100006129
0.2100004776
0.2100003731
0.21000026
0.2100001175
0.2099999561
0.2099997792
0.2099995714
0.2099993412
0.209999158
0.2099990233
0.209998926
0.2099988561
0.2099988015
0.2099987515
0.2099987028
0.2099986631
0.2099986246
0.2099985502
0.2099984887
0.2099983971
0.2099983019
0.2099977192
0.209998277
0.2099983137
0.2099984705
0.2099985537
0.2099986014
0.2099986465
0.2099987777
0.209998914
0.2100009177
0.2100007596
0.2100005917
0.2100004605
0.2100003304
0.2100001769
0.2100000107
0.2099998412
0.2099996622
0.2099994557
0.2099992335
0.2099990645
0.209998945
0.2099988607
0.2099988099
0.2099987823
0.2099987638