/*--------------------------------*- C++ -*----------------------------------*\
  =========                 |
  \\      /  F ield         | OpenFOAM: The Open Source CFD Toolbox
   \\    /   O peration     | Website:  https://openfoam.org
    \\  /    A nd           | Version:  8
     \\/     M anipulation  |
\*---------------------------------------------------------------------------*/
FoamFile
{
    version     2.0;
    format      ascii;
    class       volScalarField;
    location    "1.3";
    object      alphat;
}
// * * * * * * * * * * * * * * * * * * * * * * * * * * * * * * * * * * * * * //

dimensions      [1 -1 -1 0 0 0 0];

internalField   nonuniform List<scalar> 
67193
(
0.0002807208091
0.0002635626871
0.0002476883304
0.0002336707073
0.0002239707308
0.000218924595
0.0002169664268
0.0002164046601
0.0002161128963
0.0002156232635
0.000214718512
0.0002138915798
0.0002145631027
0.000218967748
0.000227384607
0.0002370118241
0.0002446876102
0.0002488481259
0.0002491985959
0.0002459744261
0.0002396001405
0.0002306645532
0.0002199750562
0.000208658959
0.000197939119
0.0001886896348
0.0001810722455
0.0001745589508
0.0001682590158
0.0001612065565
0.0001524134705
0.0001407859522
0.0001248259465
9.624912365e-05
0.0003336711396
0.0003186452429
0.0003007712323
0.0002825887101
0.0002675124274
0.0002577904265
0.0002528741203
0.0002506186127
0.0002490688174
0.0002473436557
0.0002450590176
0.0002436761275
0.0002468285165
0.0002571384756
0.0002712742625
0.0002839940132
0.0002923960476
0.0002958904564
0.0002948331176
0.0002898060075
0.0002814463091
0.0002703688095
0.00025714052
0.0002426553565
0.0002281692506
0.0002149346276
0.0002036190997
0.000193961792
0.000184986411
0.000175476759
0.000164258195
0.000150262922
0.0001322866814
0.0001007731235
0.000358328393
0.0003436030608
0.0003247248895
0.0003049475698
0.0002875749053
0.0002751876526
0.0002680489564
0.0002643074531
0.000261728393
0.0002595188346
0.0002565142264
0.0002560026993
0.0002640263974
0.0002811925535
0.0002996269362
0.0003137726356
0.0003219246644
0.0003244278249
0.0003220910614
0.0003156980543
0.0003061927801
0.0002943237117
0.0002803311874
0.0002647414486
0.0002484998798
0.0002328160794
0.0002187069654
0.0002064090504
0.0001952197755
0.0001838893477
0.0001710876209
0.0001556539878
0.0001364378817
0.0001040742101
0.0003675041562
0.000354662616
0.0003351353042
0.0003146448668
0.0002973183255
0.0002846823404
0.0002768311781
0.0002723013392
0.0002692367791
0.0002687587653
0.000264673413
0.0002645411148
0.0002770246596
0.0002994151773
0.000320512506
0.0003355758702
0.0003435234105
0.0003450351997
0.0003412564683
0.0003331617653
0.000322551055
0.0003105996814
0.0002965500901
0.0002806456839
0.0002637481926
0.0002468376771
0.0002309037696
0.0002165202
0.0002034289285
0.0001906180366
0.0001767471954
0.0001605595127
0.0001408486608
0.0001083482189
0.0003650824054
0.0003530482768
0.0003358839983
0.0003173119666
0.0003018010526
0.0002906524399
0.0002833875727
0.0002790806561
0.000277452267
0.0002861885903
0.000278794336
0.0002744545435
0.0002872644609
0.0003120874479
0.000335712791
0.0003507742385
0.0003575282648
0.0003578600245
0.0003531053112
0.0003442910753
0.0003333130004
0.000323471515
0.0003100130367
0.0002933137527
0.0002755858947
0.0002579409136
0.0002409844412
0.0002251806171
0.0002105682171
0.0001965117637
0.0001818463666
0.0001652962818
0.0001455444261
0.0001128126469
0.0003564505167
0.0003449327943
0.0003309651471
0.0003172117291
0.0003052764218
0.0002960869956
0.0002898792356
0.0002870622157
0.0002923941575
0.0003246404036
0.0003103396891
0.0002919839283
0.000295973628
0.0003189798692
0.0003433217173
0.0003578160318
0.0003636118989
0.0003630387843
0.0003575642097
0.0003485166147
0.0003411598038
0.0003420206754
0.0003300044526
0.0003090260676
0.0002871652823
0.0002672643364
0.00024918934
0.0002324388112
0.000216757815
0.0002017199717
0.0001864001875
0.0001696022766
0.0001499225273
0.0001168470178
0.0003464936613
0.000335809413
0.000326330104
0.0003180212367
0.0003104290819
0.0003030244748
0.0002976939109
0.0002985527764
0.0003232018021
0.0003891199389
0.000366602493
0.0003255767933
0.0003078848203
0.000321232204
0.0003442745433
0.0003585998635
0.0003639315975
0.0003628335175
0.0003570961761
0.000349329971
0.0003558522517
0.0003838827751
0.0003724730676
0.0003398142772
0.0003057832972
0.000278093679
0.0002565638926
0.0002384976418
0.0002220552491
0.000206349113
0.0001904863103
0.0001733664767
0.0001536146407
0.0001201291725
0.0003402998946
0.0003306877259
0.0003259580869
0.0003219432035
0.0003170856583
0.0003110048995
0.0003076894318
0.000315667353
0.0003765278309
0.000461622769
0.0004365571138
0.0003768515249
0.000329469756
0.0003229768427
0.0003408645821
0.0003549586746
0.0003604310681
0.0003593373264
0.0003542989386
0.0003520041515
0.0003933835087
0.0004550040577
0.0004411775604
0.00039260701
0.0003389263955
0.0002955730422
0.0002653844989
0.0002440709896
0.0002266274017
0.0002104338315
0.0001940907665
0.0001764666937
0.0001563248183
0.0001223469985
0.0003400484496
0.0003316484293
0.0003300477624
0.0003281000703
0.0003244740763
0.0003194394736
0.0003192717431
0.000339111379
0.0004328762466
0.0005156951526
0.000492586521
0.0004286574308
0.0003584449201
0.000327683118
0.0003357297923
0.0003486697207
0.0003549554726
0.0003544281585
0.0003515093222
0.0003621632102
0.0004555651067
0.0005332702784
0.0005129704888
0.0004516969867
0.0003806400682
0.000319821109
0.0002770733069
0.000249977399
0.000230704738
0.000213797839
0.0001967883979
0.0001783707756
0.0001575042338
0.0001230940839
0.0003430659289
0.0003364162479
0.0003360604078
0.0003346252103
0.0003315727449
0.0003278534788
0.0003307118328
0.0003610067467
0.0004575295642
0.0005286887912
0.000511655096
0.0004504020736
0.0003742236075
0.0003298910605
0.0003302999532
0.0003414619427
0.0003488430932
0.0003489267213
0.0003487696773
0.0003776805025
0.0005071601039
0.0005772690851
0.0005515851088
0.0004842444633
0.0004065083153
0.0003376918893
0.0002872069442
0.0002553452775
0.0002340793372
0.0002159827918
0.0001977514734
0.0001780820489
0.0001562493898
0.0001218907204
0.0003459072664
0.0003416846586
0.0003416730172
0.0003402234591
0.0003375627674
0.0003349904791
0.0003380336018
0.0003607713818
0.0004261522782
0.0004831284421
0.0004694340133
0.0004085994001
0.0003415143128
0.0003153140719
0.0003235103962
0.0003345046295
0.0003416053802
0.0003413172069
0.0003415702051
0.0003767556165
0.0004926228272
0.0005481103182
0.0005192705151
0.0004610154298
0.0003965104096
0.0003372277524
0.0002903315131
0.000258375555
0.0002360297445
0.0002165208187
0.0001966342065
0.0001753867276
0.0001525976688
0.0001194129111
0.0003479639428
0.0003459260275
0.0003458001069
0.0003442170382
0.0003417629419
0.0003392274793
0.0003388390238
0.0003449258279
0.0003659166199
0.0003855411632
0.0003655727342
0.0003268547247
0.0003026386358
0.0003018088172
0.0003170581159
0.0003279816764
0.0003314440353
0.0003298663235
0.000327097467
0.0003339638228
0.0003706921189
0.0004062449566
0.0004277259676
0.0004379507253
0.0004090327337
0.0003583297129
0.0003065760128
0.0002661171812
0.0002378073823
0.0002153531971
0.000193799072
0.0001713907598
0.0001483257164
0.000118474838
0.000349446916
0.0003485453939
0.0003481444925
0.0003464906903
0.0003442353059
0.0003416189524
0.0003389143241
0.0003367634192
0.0003358068499
0.0003299960217
0.0003144699774
0.0002983487337
0.0002903653134
0.0002970474927
0.000314691031
0.0003240241242
0.0003252174085
0.000321733129
0.0003152869391
0.0003091244944
0.0003131158063
0.0003490699822
0.0004698817626
0.0005060692431
0.0004796463827
0.0004193478768
0.0003494161027
0.0002878630093
0.0002432954979
0.0002128197933
0.000188277997
0.0001649616925
0.0001432754467
0.0001202536056
0.0003497701034
0.0003494691174
0.000348909907
0.0003473163566
0.0003453904546
0.0003430184542
0.0003396324397
0.0003350326867
0.0003288111929
0.0003187919145
0.0003047622348
0.0002920641533
0.000286848584
0.0002979379661
0.0003164481244
0.0003233934586
0.0003223107897
0.0003173160709
0.0003099132222
0.0003030230054
0.0003069755904
0.0003874814605
0.0005175838167
0.0005489513183
0.0005210876385
0.0004546322875
0.0003753070649
0.0003016433949
0.0002453645637
0.0002078317192
0.0001805662411
0.0001573218496
0.000139725084
0.0001248049976
0.0003489255144
0.0003490367334
0.0003484836352
0.0003470827803
0.0003456433748
0.0003437094717
0.0003400422629
0.0003344042879
0.0003266514656
0.0003157892305
0.0003013761151
0.0002892075583
0.0002842420596
0.0003002801207
0.000319381217
0.0003232877172
0.0003195015944
0.0003129170197
0.0003052714315
0.0002988199861
0.0003007446729
0.0003515108373
0.0004526618506
0.0004776322213
0.0004412706244
0.0003705140363
0.0002984968515
0.0002472942238
0.0002149857854
0.0001906923997
0.0001682851061
0.0001493506103
0.0001394360897
0.0001309879442
0.0003469703615
0.0003466528338
0.0003464225342
0.0003456967858
0.000345350623
0.0003444212547
0.0003407392781
0.0003336358301
0.0003236392284
0.0003108983738
0.0002958877727
0.0002892351681
0.0002825260228
0.0003064910471
0.000318272116
0.0003188716737
0.0003134216464
0.0003062082063
0.0002991724119
0.0002928064148
0.0002868077102
0.0002894188014
0.000322090908
0.0003353552093
0.000310066245
0.00027288955
0.0002426051253
0.00021953829
0.000198943502
0.0001777273923
0.0001580435689
0.0001459118613
0.0001438328229
0.0001383157725
0.0003539024156
0.0003444587476
0.0003421793338
0.0003425881933
0.0003449184449
0.0003478583606
0.0003492014078
0.0003415646373
0.0003262337975
0.0003074546387
0.0002907454588
0.0002778539703
0.0002770725087
0.0003102254968
0.0003151479091
0.0003088026857
0.000301951727
0.0002962527302
0.0002940416965
0.0002913261092
0.000284118254
0.0002745132766
0.0002687603039
0.0002615789333
0.000249696123
0.0002354432437
0.0002200742344
0.0002032302125
0.0001845428759
0.0001655059083
0.0001525633931
0.0001493652398
0.0001521247552
0.0001463652466
0.0003772051786
0.0003517712531
0.0003390484002
0.0003389810692
0.0003484696093
0.0003651526395
0.0003815029239
0.0003770331707
0.0003554067003
0.0003245944524
0.0002964842545
0.0002750463079
0.0002703223696
0.000294632292
0.0002984088132
0.0002936237336
0.0002883804805
0.0002887186531
0.000297969968
0.0003008071882
0.0002934611156
0.0002785443775
0.0002618167646
0.0002476113118
0.0002341400051
0.0002201741872
0.0002051388087
0.0001885203736
0.0001717971788
0.0001591740134
0.000155432321
0.0001590731197
0.0001629116628
0.0001547252523
0.0003977252394
0.0003666559935
0.0003404601513
0.0003356040969
0.0003633584909
0.0004044586345
0.0004255218805
0.0004191261005
0.0003943073698
0.0003557217949
0.0003139711034
0.0002784250987
0.0002635433919
0.0002748475716
0.0002781821715
0.00027627174
0.0002752889744
0.0002884809526
0.0003089570429
0.0003145799845
0.0003065207545
0.0002871897703
0.0002627312581
0.0002409086431
0.0002224126045
0.0002056647049
0.0001902752374
0.0001772853636
0.0001665812554
0.0001629214534
0.0001651577267
0.0001735750121
0.0001758245538
0.0001634353103
0.0004012237147
0.0003740540046
0.0003415183926
0.0003330424625
0.0003818399338
0.0004289050344
0.0004452414071
0.0004362902676
0.0004108039213
0.0003725512823
0.0003273546763
0.0002827025089
0.0002571369602
0.0002603796022
0.0002629404716
0.0002626714113
0.0002682383082
0.0002906629613
0.0003133527074
0.0003192190975
0.0003100286695
0.0002870476161
0.0002565985421
0.0002286171269
0.0002067297819
0.0001903254033
0.0001794494681
0.0001911350967
0.0001778505995
0.0001751454611
0.0001792716753
0.0001933839429
0.0001919154696
0.0001732890371
0.0003901407804
0.0003635618495
0.000337155317
0.0003249221766
0.0003789386913
0.0004251443278
0.0004386610877
0.0004280482605
0.0004018280759
0.0003651261096
0.0003219658916
0.0002751267239
0.0002464399689
0.0002466576545
0.0002478266847
0.0002483312187
0.0002566630716
0.0002828616959
0.0003015246559
0.0002988178372
0.0002823435647
0.0002539349259
0.0002252452725
0.0002037274009
0.0001895746362
0.0001829201593
0.00018568425
0.0002798620479
0.0002241025446
0.0001954205817
0.0001973809984
0.0002190918496
0.00021264355
0.0001856026612
0.0003659965082
0.0003407732962
0.0003156161472
0.0003090455023
0.000353228366
0.000398863245
0.0004115387756
0.0004001104875
0.0003733300671
0.0003383155525
0.0002980113525
0.0002531843952
0.0002309025647
0.00023024293
0.0002292874159
0.0002261940291
0.0002251794383
0.0002279492551
0.0002428118884
0.0002331236705
0.000218614522
0.0002059684672
0.0001956131945
0.0001879871561
0.000185024886
0.0001933470613
0.0002391614567
0.0004602617862
0.0003501063779
0.0002431299513
0.000220958973
0.0002487369055
0.0002382642468
0.0002012494596
0.0003307076586
0.0003097748938
0.0002908966145
0.0002856182321
0.0003181535421
0.000354876504
0.0003697985067
0.0003592638911
0.0003322941042
0.0002983945834
0.0002598190033
0.0002218824808
0.0002128723189
0.0002087926817
0.0002021692683
0.0001994795285
0.00019546903
0.0001966836862
0.0002791103638
0.0002040507596
0.0001956106296
0.0001912447742
0.0001869902356
0.0001858956868
0.0001940262289
0.0002379210047
0.0003880063126
0.0006934339024
0.0005951716434
0.0003648791007
0.0002595419629
0.0002785522995
0.0002668587548
0.0002197424798
0.0002866485952
0.0002616640714
0.0002527766415
0.0002516610568
0.0002739055682
0.0003032500476
0.0003210747289
0.0003115910413
0.0002831523516
0.0002462012131
0.000213507592
0.0001945384042
0.0001866014713
0.0001850557308
0.0001935669397
0.000206531489
0.0001977662486
0.0001894328171
0.0001851340957
0.0001834569937
0.0001821357189
0.0001807104507
0.0001819432301
0.0001908216665
0.0002100361255
0.0002407581332
0.000384557363
0.0004492827759
0.0002750136221
0.0002311901081
0.0002683636052
0.0003156799868
0.0002961712255
0.000238404373
0.0002427222283
0.0002257948173
0.0002571585572
0.0002237332473
0.0002109335964
0.0002227386178
0.0002457810512
0.0002662417921
0.000251855736
0.0002187122486
0.0001875844414
0.0001731213447
0.000163605248
0.0001690013784
0.0001874229425
0.0002257653301
0.0002435182264
0.0002280814112
0.0002058848534
0.0001864401987
0.0001762595793
0.0001711646289
0.0001729748453
0.0001835266485
0.0002059114255
0.0002341562891
0.0002601845171
0.0002601087358
0.0002699662482
0.0002363315562
0.0002416274032
0.0002929031632
0.0003434380096
0.0003203126958
0.0002532447717
0.0002246428535
0.0002447291957
0.0002870495837
0.0002531921966
0.0002281250023
0.0002033942661
0.0001980478184
0.0002100298901
0.0001846140434
0.0001540186873
0.0001356571935
0.0001389544933
0.0001530956573
0.000178966972
0.0002128663301
0.0002587585539
0.0002899250369
0.0002657480617
0.0002309019194
0.0001975005034
0.0001804745759
0.0001674869613
0.0001736491673
0.0001955776696
0.0002287728872
0.0002612858741
0.0002949238213
0.0002838575349
0.0002609477939
0.0002413833949
0.0002503975346
0.0003009435187
0.0003519552032
0.0003259853862
0.0002569852837
0.00019377153
0.0002081547262
0.0002355153804
0.0002590117892
0.0002434579766
0.0002271014357
0.0002077432071
0.000190559524
0.0001720609983
0.0001589453715
0.0001467527751
0.0001439191003
0.0001645929355
0.0001976087757
0.0002402857626
0.0002798138072
0.0003253131776
0.0002967541062
0.0002538122416
0.0002129234298
0.0002086590205
0.0001772562262
0.0001835338903
0.0002070959079
0.0002369768046
0.0002682657252
0.0002933868759
0.0002947138777
0.0002689707582
0.0002438471129
0.0002507128436
0.0002869086853
0.0003258173585
0.0002986250119
0.0002437718115
0.0002380534449
0.0002630860464
0.0002883742643
0.0003251895549
0.0003086385089
0.0002846370125
0.0002622039315
0.0002395594631
0.0002166831385
0.0001948510477
0.0001732340775
0.0001573673702
0.0001683196211
0.0002031251292
0.0002583370671
0.0002899400815
0.0003359213843
0.000305503608
0.000262188847
0.0002275634701
0.0002975270066
0.0002281287887
0.0001925307415
0.0002076375254
0.000238179071
0.0002705033486
0.0002878886307
0.0002875906124
0.0002681314698
0.0002420820789
0.0002567468333
0.0002793628097
0.0002743302652
0.0002634359619
0.0002455736904
0.0003204536859
0.0003563775034
0.0004128353372
0.00038846982
0.0003414502135
0.0003075322723
0.0002803299863
0.0002538167832
0.0002263352218
0.0001988377316
0.0001756822326
0.0001642043661
0.0001763757335
0.0002073038188
0.0002474766415
0.0002858234781
0.0002784794821
0.0002590743987
0.0002219472632
0.0001990812746
0.0001899476161
0.0001948031635
0.0002047271427
0.0002280920336
0.0002607603286
0.0002860319638
0.0002871775245
0.0002643114313
0.0002436880151
0.0002818581719
0.0003134131052
0.0003120822826
0.00030272715
0.0002786742974
0.0003693526629
0.0003957261164
0.0004146058584
0.0003920124508
0.000364083008
0.0003363728321
0.0003078325914
0.0002791451955
0.0002488706371
0.0002184120469
0.0001926799678
0.000174603507
0.0002137608353
0.0002359217833
0.0002661928285
0.0002724755979
0.0002514735859
0.0002608913361
0.000314510717
0.0003468572609
0.0003495340311
0.000338423525
0.0003046093793
0.0004286973726
0.0004083197092
0.0003830232531
0.0003548047141
0.0003240056233
0.0002921681818
0.0003036717879
0.0002911562004
0.0002762450645
0.0002644422844
0.0002576018039
0.0002546314057
0.0002536766143
0.0002533428854
0.0002527670432
0.0002515337922
0.0002495318096
0.0002471216572
0.0002452942708
0.0002456014008
0.0002486902593
0.000253345017
0.000257348865
0.0002588531507
0.0002569845779
0.0002517404998
0.0002437452884
0.0002340241261
0.0002237940842
0.0002141589479
0.0002058159614
0.000198811807
0.0001925806934
0.000186242753
0.000178918303
0.0001698710137
0.000158466169
0.0001441094103
0.0001259439584
9.46686537e-05
0.001157591174
0.001113193577
0.001033221277
0.0009644072895
0.0009223795899
0.0009060392406
0.0009028825346
0.0009005614278
0.0008913441582
0.0008702545441
0.0008389772978
0.0008029287748
0.0007762719461
0.00077107743
0.0007852191962
0.0008055398476
0.0008177243495
0.000811881166
0.0007846237721
0.0007383968247
0.000679675146
0.0006178417818
0.0005629525549
0.0005212904909
0.0004938441903
0.0004768334167
0.0004630814265
0.0004447571025
0.0004161514363
0.0003753470665
0.0003245559521
0.0002701198103
0.0002145858224
0.0001017746843
0.001495103526
0.001469673528
0.001389390702
0.001301129354
0.001234384161
0.001199991797
0.001186679985
0.001176338414
0.001157769129
0.001118610854
0.001069061804
0.001020615761
0.001002639671
0.001030516946
0.001086759315
0.001138429246
0.001167163711
0.001164967247
0.001130547402
0.001067528744
0.0009804964901
0.0008804197004
0.0007847914603
0.0007063441915
0.000650358081
0.0006141631208
0.0005886024382
0.0005613545205
0.0005217376756
0.0004649279093
0.0003936195232
0.0003176891215
0.0002433603757
0.0001048576331
0.001635685355
0.001607640797
0.001562250644
0.001499312575
0.001430049801
0.001383125514
0.001356190269
0.001331433534
0.001303193755
0.00124536557
0.001185547576
0.001139316887
0.001148859497
0.001221423334
0.001309685801
0.001365073564
0.001385544565
0.001379400981
0.001348759789
0.001295694725
0.001209445706
0.001094442985
0.0009746189412
0.0008680889301
0.0007838110434
0.0007229103008
0.0006786231414
0.0006382617506
0.0005885724067
0.0005215102702
0.0004380702261
0.0003486917374
0.0002607911237
0.0001081672778
0.001721368517
0.001693065172
0.001653748613
0.001608706776
0.001554994456
0.001506545463
0.001472258563
0.001435583132
0.001409632507
0.001343546862
0.001275848282
0.001228964886
0.001259934595
0.001360786195
0.001439298093
0.00148795588
0.00150906029
0.001502061168
0.001469712716
0.001417635456
0.001349700062
0.001243740666
0.00111709246
0.0009969127395
0.0008952489592
0.0008141594055
0.0007498716201
0.0006935551723
0.0006332765449
0.0005592935982
0.0004696764216
0.0003730071059
0.0002760691617
0.0001124111119
0.001786747848
0.0017578437
0.001720079928
0.001678493001
0.001636720537
0.001594998999
0.001567699982
0.001534444156
0.001541521599
0.001497232415
0.001419300327
0.001340163741
0.00135542086
0.001457170495
0.001529020229
0.001570281899
0.001585826572
0.001577071756
0.001550411915
0.001515198516
0.001462441108
0.001367372878
0.001232912662
0.001093480361
0.0009762861537
0.0008822505467
0.0008032077621
0.000732106903
0.0006619009324
0.0005832748566
0.0004910179798
0.0003911858275
0.0002893272448
0.0001166736055
0.001846564636
0.001816760362
0.001775478415
0.00173075931
0.001690316498
0.001665940636
0.001672019335
0.001675664932
0.001752583998
0.001719531011
0.001665505994
0.001528577479
0.001466454077
0.001536548945
0.001594277923
0.001622721044
0.001630724641
0.001622793092
0.001613899846
0.001618853357
0.001599873066
0.00151507801
0.001382533939
0.001203875531
0.001042138278
0.0009278394066
0.0008393736022
0.000759225994
0.0006820315455
0.0006010012898
0.0005073322117
0.0004049848179
0.0003001746014
0.0001203705401
0.001899255115
0.001868350658
0.001821073675
0.001771925965
0.001734157637
0.001729579472
0.001789027246
0.00187957204
0.001984091088
0.001968071298
0.001929271513
0.001791039243
0.001625096837
0.001616388802
0.001647955016
0.001659072966
0.001658822652
0.001657386927
0.0016856437
0.001758726354
0.001791328575
0.001734112699
0.001598439588
0.001373499687
0.001134503079
0.0009675034799
0.000866142049
0.000783654494
0.0007030261174
0.0006194995542
0.0005233903365
0.0004166947719
0.0003081995702
0.0001228941948
0.001939781317
0.001907079312
0.001854748989
0.001803761295
0.001772504024
0.001792786726
0.001905180576
0.002071569485
0.002167611948
0.002158950222
0.002126637164
0.001986144297
0.001804867494
0.00170419617
0.001696998056
0.001688052974
0.001679619409
0.001690528281
0.001769290832
0.0019193332
0.002008751754
0.002002072795
0.001877308213
0.001585435363
0.001269389165
0.001022768408
0.000898218133
0.0008179953201
0.0007328214238
0.0006379757094
0.0005331627809
0.0004219213456
0.0003110977414
0.0001236116224
0.001968907752
0.001932337845
0.001877144466
0.001827146267
0.001802729728
0.001839882455
0.001976740398
0.002158046882
0.002241243722
0.002232742055
0.002198556632
0.002070547992
0.001900812808
0.001778846834
0.001738694302
0.001712038234
0.001695588743
0.001716172149
0.001826827042
0.002014235985
0.002128000662
0.002160995226
0.002066117305
0.001764841118
0.001391669841
0.001088578282
0.0009420154762
0.0008667255435
0.0007699755412
0.0006453761345
0.0005210004138
0.00040927987
0.0003041738937
0.0001219851447
0.001990836688
0.001947478241
0.001890549637
0.001842172987
0.001819932725
0.001854480358
0.001977465235
0.002140815354
0.002228755364
0.002235169206
0.002198491551
0.002082037238
0.001925885845
0.001814680927
0.001764677736
0.001728334137
0.001703947284
0.001717510135
0.001811527511
0.001969540601
0.002093631157
0.002181872822
0.002135370598
0.001876199202
0.001499418907
0.001158813739
0.0009878200857
0.0009044502731
0.0007883670498
0.0006307305584
0.0004887782748
0.0003829238267
0.0002890008387
0.0001185937387
0.002006440388
0.001954892536
0.001896877469
0.001849714672
0.001824927536
0.001842131348
0.001927008401
0.002060529237
0.002157721355
0.002187500579
0.002157361588
0.002029335109
0.001860064273
0.001801457835
0.001768337226
0.001733169696
0.001702794504
0.00169371834
0.0017451252
0.00186947558
0.002013930138
0.002169423975
0.002164716512
0.00194715712
0.001610300859
0.001275444655
0.001036564905
0.0008893370846
0.0007472699257
0.0005917671172
0.0004606300659
0.0003637750257
0.0002731948036
0.0001160327371
0.002014460258
0.001955767365
0.001897699055
0.001852240694
0.001824664013
0.001823361391
0.001861509623
0.001937986987
0.002012928497
0.002046685654
0.002017426313
0.001901268999
0.001803780463
0.001796921443
0.001765624381
0.00172905055
0.001690795615
0.001659462525
0.001661942003
0.001736144926
0.0018532466
0.002047677739
0.00207555897
0.001959507499
0.001707544896
0.001366004518
0.001075050246
0.0008397097157
0.0006712875258
0.0005387993527
0.0004320035062
0.0003445056803
0.0002557590004
0.000116984031
0.002014083469
0.001950669255
0.001894191686
0.001852326304
0.001825154853
0.001813691778
0.001821283506
0.001846821549
0.001877310838
0.001892557269
0.001875305704
0.00182019399
0.001779026859
0.001793863857
0.001758218385
0.001717508989
0.001673253368
0.00163058848
0.001608765028
0.001646662826
0.001735258821
0.001906398221
0.001973055611
0.001920886175
0.001712421866
0.001369172348
0.001040931588
0.0007855300218
0.0006109262193
0.0004930508225
0.0003979081173
0.0003161944384
0.000237172966
0.0001208546448
0.002004362584
0.00193972996
0.001887248054
0.0018518405
0.001828705482
0.001814553455
0.001809047955
0.001809328668
0.001809715118
0.001806362643
0.001800730419
0.001811047674
0.001772925779
0.001819893342
0.001752759267
0.001700285577
0.00165042276
0.001603467974
0.001572081572
0.001585234469
0.001655053801
0.001741845722
0.001790105491
0.001749185101
0.001548208932
0.001242266085
0.0009489508002
0.0007277842073
0.0005726763792
0.0004527418207
0.0003567422081
0.0002828006508
0.000222549753
0.0001254284602
0.001982423631
0.001923115547
0.001878369497
0.001853084229
0.001836786278
0.001822956621
0.001811189724
0.001800113747
0.001782331618
0.001758025406
0.001745791267
0.00189141045
0.001762843266
0.001850430802
0.001755251609
0.001680656819
0.00162400432
0.001578086954
0.001543930685
0.001529706879
0.001547665474
0.001568765821
0.001547017703
0.001465227846
0.001233145916
0.0009778999872
0.0007794434485
0.0006267224315
0.0004988555291
0.0003896114084
0.000305986428
0.0002520181378
0.0002143624904
0.0001299249713
0.001930195555
0.001890461636
0.001862700992
0.001853872654
0.001846105651
0.001829501135
0.00180309855
0.001773614606
0.001733513811
0.00166281911
0.001548304255
0.001529529506
0.001615791892
0.001653132464
0.001649688066
0.00161804052
0.001582329886
0.001555323533
0.001530711471
0.001500186635
0.0014604869
0.001402610787
0.001279365446
0.001138840786
0.0009806942813
0.0008223385647
0.000674835703
0.0005395768891
0.0004199686156
0.0003234410501
0.000262464064
0.0002334504308
0.0002144635814
0.000134366808
0.001829561649
0.001819909381
0.001822177081
0.001835334478
0.001831823683
0.001805288072
0.001759019859
0.001707887443
0.001642522689
0.00153108371
0.001357657823
0.001294354548
0.001402277936
0.001509334259
0.001538936109
0.001534087353
0.001529819206
0.001536822295
0.001530293065
0.001497564777
0.001430626081
0.00132218872
0.001162313715
0.0009803880653
0.0008199981694
0.0006797972989
0.0005529370354
0.0004354722487
0.0003378146189
0.0002694982262
0.0002378845137
0.0002306102928
0.0002240026231
0.0001388353649
0.001706001337
0.001719419485
0.001749744254
0.001778133147
0.001772959404
0.00174266579
0.001697614734
0.001636219125
0.001546303435
0.001412746176
0.001202085869
0.001099060289
0.001172584195
0.001314148802
0.001390508369
0.001422656936
0.001466478751
0.001510223745
0.001518288117
0.00148106487
0.001400272048
0.001264219766
0.00108329014
0.0008693156766
0.0006896118177
0.000550760347
0.0004393945337
0.0003404567921
0.0002784274174
0.0002427648601
0.0002336321468
0.0002422451314
0.0002430006148
0.0001435012759
0.001569127055
0.001597190407
0.001671440398
0.001673136173
0.001669824969
0.001657371834
0.001625691896
0.00155907411
0.001446968259
0.001284348985
0.001052825129
0.0009254459561
0.0009844980368
0.00110949576
0.001197093615
0.001260025649
0.001365084651
0.00143766594
0.00145072985
0.001400337549
0.001308257614
0.001156852557
0.0009519395831
0.0007284108858
0.0005583220063
0.0004394212532
0.0003532160276
0.0002649640229
0.0002510716964
0.0002416977653
0.0002457993717
0.0002688471748
0.00027188817
0.0001488494427
0.001399343222
0.001437006394
0.001597950676
0.001481464218
0.001512961197
0.001527360819
0.001506510248
0.001436349253
0.001311975654
0.001139905252
0.0008742100461
0.0007632271526
0.0008273833414
0.0009254274388
0.0009940572662
0.001049511552
0.001173191854
0.001268410373
0.001266482052
0.001228421125
0.001131294144
0.0009772158951
0.000772226457
0.000596671305
0.0004751788142
0.0003858500194
0.0003059104665
0.0003221565084
0.0002635605199
0.0002552223329
0.0002748914466
0.0003174643949
0.0003133555607
0.000155789479
0.001185027615
0.00118796272
0.001173142009
0.001158109811
0.001279075588
0.001323754181
0.001309117355
0.001234417892
0.001111314716
0.0009168412702
0.0006801688603
0.0006289865065
0.0006934386719
0.0007646644548
0.0007737442453
0.000785212279
0.0008609089591
0.001016999636
0.0008997390794
0.0009981135112
0.0009003448427
0.000751539391
0.0006283112063
0.0005315914888
0.0004626101928
0.0003899877833
0.0004006295038
0.0007905903469
0.0004831375789
0.0002963654841
0.0003267572009
0.0003999250166
0.0003737979122
0.0001655404234
0.0008972473501
0.0008448631714
0.0008339767116
0.0008402467681
0.0009311427268
0.001033307095
0.001036803589
0.0009551820862
0.0008034165617
0.0006210828358
0.0005161682093
0.0005123713971
0.0005597590944
0.0006355793139
0.0005366375824
0.0005362359654
0.0006110086771
0.0006473240553
0.001235507656
0.0006831593672
0.0006792558238
0.0006155497603
0.0005669610596
0.0005327480189
0.0005178018156
0.0004531925179
0.001015988108
0.001473790557
0.001296576133
0.0004130155137
0.000411557286
0.0005195050002
0.00046310317
0.0001784525862
0.0005451716476
0.0005947647513
0.0005961781377
0.0005853656153
0.0006188867401
0.000663646183
0.0006639507494
0.0005664150787
0.0004711822043
0.0004188410804
0.0004009827399
0.0004135131452
0.0003979132354
0.0004597934707
0.0004672327597
0.0004727114538
0.0005290174292
0.0005629625589
0.000571339767
0.0005599276567
0.0005209483562
0.0005069279114
0.0005281728277
0.0005728217787
0.0006250645824
0.0006057868821
0.001163510444
0.001362912432
0.0007071556739
0.0004246689409
0.0005383578094
0.0006638819638
0.000584113218
0.0001930861349
0.0003742018842
0.000538378121
0.000825306291
0.0007032861831
0.000525390432
0.0004424053333
0.000426413529
0.0004055229977
0.0003420967564
0.0002966726275
0.0002887824495
0.0002928388313
0.000297062209
0.0003036012672
0.0004425534315
0.0006699345925
0.0006674750603
0.0006492412564
0.0005648999459
0.0004994019406
0.0004380442991
0.0004053950583
0.0004185503583
0.0005107911336
0.0006570884927
0.0007865992633
0.0008793796524
0.0008181879978
0.0006933218438
0.0005717897828
0.0004750110605
0.0006486813375
0.0007820649713
0.0006829101922
0.0002060159034
0.0006223401843
0.0008236783574
0.0009993117138
0.0008759359382