/*--------------------------------*- C++ -*----------------------------------*\
  =========                 |
  \\      /  F ield         | OpenFOAM: The Open Source CFD Toolbox
   \\    /   O peration     | Website:  https://openfoam.org
    \\  /    A nd           | Version:  8
     \\/     M anipulation  |
\*---------------------------------------------------------------------------*/
FoamFile
{
    version     2.0;
    format      ascii;
    class       volScalarField;
    location    "1.3";
    object      p;
}
// * * * * * * * * * * * * * * * * * * * * * * * * * * * * * * * * * * * * * //

dimensions      [1 -1 -2 0 0 0 0];

internalField   nonuniform List<scalar> 
67193
(
100003.961
100003.9479
100003.9386
100003.9261
100003.9148
100003.9045
100003.8957
100003.8889
100003.8837
100003.8806
100003.8785
100003.8782
100003.8804
100003.8854
100003.8927
100003.9006
100003.9076
100003.9121
100003.9131
100003.9103
100003.9045
100003.8968
100003.8884
100003.8803
100003.8744
100003.872
100003.8737
100003.8795
100003.8889
100003.9013
100003.9158
100003.9322
100003.9474
100003.971
100003.8702
100003.8663
100003.8642
100003.8597
100003.8547
100003.8496
100003.8445
100003.8404
100003.837
100003.8354
100003.8333
100003.8316
100003.8306
100003.8296
100003.8281
100003.8261
100003.8243
100003.8225
100003.8206
100003.819
100003.8179
100003.8183
100003.8199
100003.8228
100003.8272
100003.8336
100003.8423
100003.8535
100003.8673
100003.8835
100003.9012
100003.92
100003.9358
100003.9564
100003.8312
100003.8266
100003.8237
100003.8201
100003.8169
100003.8137
100003.8103
100003.808
100003.8054
100003.8052
100003.8026
100003.7996
100003.7959
100003.7913
100003.7865
100003.7826
100003.7797
100003.7773
100003.7751
100003.7737
100003.7733
100003.7758
100003.7804
100003.7873
100003.7966
100003.8081
100003.8213
100003.8363
100003.8533
100003.8721
100003.892
100003.9122
100003.9283
100003.9462
100003.7987
100003.7936
100003.7896
100003.7856
100003.7824
100003.7799
100003.7771
100003.7761
100003.7738
100003.7748
100003.7717
100003.7678
100003.762
100003.755
100003.749
100003.7454
100003.743
100003.7406
100003.7375
100003.7352
100003.7337
100003.7361
100003.7414
100003.7502
100003.7629
100003.7785
100003.7961
100003.815
100003.8354
100003.8569
100003.879
100003.9009
100003.9178
100003.9355
100003.7805
100003.775
100003.7698
100003.7649
100003.7607
100003.758
100003.755
100003.7546
100003.7519
100003.7525
100003.7498
100003.7469
100003.7406
100003.7326
100003.727
100003.7249
100003.7242
100003.7223
100003.7183
100003.7147
100003.7111
100003.7114
100003.7145
100003.7226
100003.7363
100003.7542
100003.7746
100003.7967
100003.8197
100003.8436
100003.8676
100003.8912
100003.9094
100003.9282
100003.7733
100003.7672
100003.7611
100003.7554
100003.7502
100003.7473
100003.7438
100003.7439
100003.7397
100003.7365
100003.7361
100003.7364
100003.7321
100003.7242
100003.7184
100003.7172
100003.7173
100003.7159
100003.7115
100003.7074
100003.7007
100003.6951
100003.6932
100003.6997
100003.714
100003.7332
100003.7554
100003.7795
100003.8047
100003.8304
100003.8563
100003.8816
100003.9013
100003.9222
100003.7762
100003.7692
100003.7623
100003.756
100003.7501
100003.7477
100003.7449
100003.7459
100003.7399
100003.7332
100003.7366
100003.7369
100003.7358
100003.7291
100003.722
100003.7192
100003.7191
100003.7185
100003.715
100003.7122
100003.7032
100003.6906
100003.6783
100003.6775
100003.6922
100003.7139
100003.7381
100003.7638
100003.7904
100003.8179
100003.8454
100003.8727
100003.8941
100003.918
100003.7875
100003.7795
100003.7718
100003.7652
100003.7594
100003.7582
100003.7578
100003.7601
100003.7601
100003.7647
100003.7698
100003.7519
100003.748
100003.7437
100003.7351
100003.7292
100003.728
100003.7284
100003.7278
100003.728
100003.7244
100003.7194
100003.7008
100003.6654
100003.6679
100003.6931
100003.7215
100003.7493
100003.7772
100003.806
100003.8352
100003.8644
100003.8876
100003.9142
100003.8049
100003.796
100003.7876
100003.781
100003.7757
100003.7757
100003.7782
100003.781
100003.7946
100003.8225
100003.827
100003.7791
100003.7637
100003.762
100003.7543
100003.7455
100003.7422
100003.7427
100003.7447
100003.746
100003.7623
100003.7917
100003.7802
100003.6921
100003.6514
100003.6721
100003.7056
100003.7367
100003.7658
100003.7956
100003.8265
100003.8574
100003.8819
100003.9097
100003.8258
100003.8161
100003.8073
100003.8004
100003.7954
100003.7952
100003.7988
100003.8019
100003.8172
100003.8459
100003.8408
100003.7926
100003.7784
100003.7821
100003.7763
100003.7655
100003.7595
100003.7578
100003.7593
100003.7537
100003.7879
100003.8544
100003.85
100003.7393
100003.6633
100003.6631
100003.6942
100003.7274
100003.7575
100003.7883
100003.8208
100003.8531
100003.8781
100003.9044
100003.8471
100003.8368
100003.8277
100003.8203
100003.8145
100003.8124
100003.8139
100003.8175
100003.8227
100003.8288
100003.8193
100003.8047
100003.8069
100003.8109
100003.8024
100003.7897
100003.7799
100003.7729
100003.769
100003.7582
100003.7682
100003.8015
100003.8245
100003.7649
100003.6912
100003.6701
100003.6915
100003.7234
100003.7544
100003.7861
100003.82
100003.8529
100003.8771
100003.8998
100003.8657
100003.8552
100003.8458
100003.8377
100003.8306
100003.8257
100003.8237
100003.8247
100003.8241
100003.8202
100003.8221
100003.8361
100003.8514
100003.857
100003.8436
100003.8251
100003.8077
100003.7928
100003.7821
100003.7745
100003.7699
100003.7775
100003.8079
100003.7895
100003.7261
100003.6829
100003.6912
100003.7226
100003.7564
100003.7906
100003.825
100003.8567
100003.8789
100003.8978
100003.8794
100003.8687
100003.8589
100003.8499
100003.8413
100003.8339
100003.8291
100003.8285
100003.8317
100003.8411
100003.8603
100003.8904
100003.9105
100003.9226
100003.8995
100003.8713
100003.8437
100003.8194
100003.8025
100003.7923
100003.79
100003.7818
100003.8219
100003.851
100003.7915
100003.711
100003.6875
100003.7187
100003.7609
100003.8002
100003.835
100003.8636
100003.8822
100003.8965
100003.887
100003.8759
100003.8651
100003.855
100003.8451
100003.8361
100003.8298
100003.8293
100003.8372
100003.8585
100003.8957
100003.956
100003.9822
100004.0173
100003.9689
100003.9247
100003.8829
100003.8471
100003.8219
100003.8035
100003.7958
100003.7714
100003.7829
100003.8391
100003.7781
100003.6947
100003.6718
100003.7162
100003.7688
100003.8124
100003.8454
100003.8698
100003.8845
100003.8944
100003.8884
100003.8757
100003.8631
100003.8514
100003.8406
100003.8312
100003.8248
100003.825
100003.8366
100003.8666
100003.9139
100003.9988
100004.0239
100004.0863
100004.0235
100003.9724
100003.9199
100003.8751
100003.8432
100003.8197
100003.8016
100003.7788
100003.7559
100003.745
100003.7159
100003.6973
100003.7086
100003.7432
100003.7826
100003.8191
100003.8492
100003.8712
100003.8831
100003.8899
100003.8844
100003.8696
100003.8541
100003.8401
100003.8286
100003.8196
100003.8143
100003.8169
100003.8377
100003.8908
100003.9597
100004.1918
100004.107
100004.3385
100004.1284
100004.0404
100003.955
100003.8995
100003.8674
100003.8418
100003.8205
100003.7939
100003.7598
100003.7367
100003.7264
100003.7315
100003.7498
100003.7791
100003.8091
100003.8371
100003.8587
100003.8734
100003.8798
100003.8835
100003.8769
100003.8634
100003.8436
100003.8255
100003.8127
100003.8036
100003.7967
100003.7936
100003.8026
100003.8327
100003.8819
100003.9574
100004.0128
100004.0295
100003.9836
100003.9465
100003.9227
100003.9044
100003.8933
100003.8732
100003.851
100003.8257
100003.8011
100003.7831
100003.7729
100003.773
100003.7825
100003.8073
100003.8283
100003.8484
100003.8613
100003.8698
100003.8719
100003.8733
100003.8709
100003.8665
100003.8354
100003.8089
100003.7947
100003.7864
100003.779
100003.7706
100003.7688
100003.7899
100003.8353
100003.9053
100003.9491
100003.9741
100003.9505
100003.9332
100003.9246
100003.9186
100003.9355
100003.9213
100003.8984
100003.8661
100003.8371
100003.818
100003.8097
100003.8134
100003.8141
100003.8444
100003.8537
100003.8612
100003.8596
100003.8612
100003.8593
100003.8592
100003.8641
100003.8917
100003.8322
100003.7903
100003.7745
100003.7672
100003.7628
100003.7509
100003.7368
100003.7455
100003.7811
100003.8344
100003.8718
100003.8942
100003.8959
100003.9045
100003.9324
100003.9289
100004.0076
100003.9961
100003.9734
100003.9282
100003.8901
100003.8685
100003.8565
100003.8652
100003.8373
100003.8788
100003.8867
100003.8784
100003.8565
100003.8509
100003.8444
100003.844
100003.8519
100004.2091
100003.839
100003.7673
100003.7487
100003.7401
100003.7421
100003.7312
100003.7131
100003.7162
100003.7471
100003.7983
100003.8339
100003.8625
100003.8756
100003.9004
100003.9578
100003.9565
100004.1558
100004.1089
100004.0787
100004.0128
100003.9628
100003.9393
100003.9131
100003.9361
100003.8619
100003.8429
100003.9516
100003.9245
100003.8654
100003.847
100003.8333
100003.8352
100003.7751
100003.7998
100003.7738
100003.7191
100003.7108
100003.7037
100003.711
100003.7061
100003.6954
100003.7052
100003.7378
100003.7969
100003.8252
100003.8611
100003.8784
100003.9196
100004.0529
100004.007
100004.4668
100004.294
100004.2388
100004.1414
100004.0667
100004.0353
100003.9798
100004.0091
100003.9239
100003.5381
100004.0342
100003.9699
100003.8881
100003.8606
100003.8425
100003.8438
100003.7203
100003.7208
100003.703
100003.6904
100003.6802
100003.6733
100003.6808
100003.6871
100003.6892
100003.7153
100003.7512
100003.8381
100003.8366
100003.8775
100003.8954
100003.9334
100004.0679
100003.9639
100004.4119
100004.4159
100004.421
100004.3083
100004.1845
100004.1387
100004.077
100004.094
100004.0938
100003.3966
100004.459
100003.7015
100003.8414
100003.9378
100003.9064
100003.8925
100003.7134
100003.7286
100003.7102
100003.7012
100003.686
100003.6761
100003.6757
100003.6889
100003.7013
100003.7494
100003.7803
100003.893
100003.8577
100003.9064
100003.9718
100004.0451
100004.5085
100004.3087
100006.725
100005.693
100005.1216
100004.6045
100004.3043
100004.2331
100004.1919
100004.1488
100004.3615
100003.6264
100007.3043
100005.2669
100004.8607
100004.4963
100004.1004
100003.9748
100003.7759
100003.7749
100003.7678
100003.7661
100003.7348
100003.7257
100003.7102
100003.7509
100003.7388
100003.835
100003.8151
100004.0754
100003.8635
100003.9341
100003.9068
100003.942
100004.0082
100003.949
100004.0671
100004.2631
100004.346
100004.2935
100004.1982
100004.1767
100004.1204
100004.0974
100004.1821
100003.9408
100003.6473
100003.3717
100003.5917
100003.8317
100003.8916
100003.9131
100003.8034
100003.7884
100003.7777
100003.7802
100003.7801
100003.7657
100003.7574
100003.748
100003.763
100003.7715
100003.8457
100003.8481
100004.3191
100003.872
100003.9149
100003.9046
100003.9403
100004.0359
100004.0307
100004.5478
100004.2826
100004.2628
100004.1966
100004.119
100004.1623
100004.0815
100004.167
100004.1784
100004.1342
100004.9342
100004.6475
100004.187
100004.0149
100003.9367
100003.9264
100003.8703
100003.8199
100003.8236
100003.8085
100003.8007
100003.7833
100003.8166
100003.7896
100003.8296
100003.7768
100003.8565
100003.805
100003.9124
100003.8579
100003.9037
100003.9054
100003.9951
100003.9683
100004.0006
100004.1129
100004.2497
100004.4079
100004.2303
100004.1162
100004.3142
100004.0832
100004.1302
100004.1083
100004.1101
100004.0665
100004.0494
100003.9931
100003.9661
100003.9351
100003.9359
100003.8507
100003.8288
100003.8127
100003.8251
100003.8115
100003.7808
100003.7859
100003.7904
100003.7732
100003.7758
100003.8016
100003.8155
100003.8231
100003.8177
100003.8433
100003.871
100003.9005
100003.9126
100003.9164
100004.0371
100003.9384
100003.9636
100003.9555
100003.9823
100004.0323
100004.0019
100004.066
100004.0627
100004.0891
100004.1187
100004.0751
100003.9905
100003.9651
100003.9409
100003.9465
100004.099
100003.8931
100003.8683
100003.7866
100003.7838
100003.7553
100003.7618
100003.7735
100003.7964
100003.7901
100003.822
100003.83
100003.8545
100003.828
100003.8266
100003.8621
100003.8815
100003.9147
100003.9151
100004.1351
100003.9049
100004.4703
100004.0822
100004.1015
100004.0655
100003.9936
100004.0201
100004.0143
100004.0254
100004.0537
100004.0291
100003.9842
100003.9631
100003.9389
100003.9476
100003.9249
100003.9495
100004.4226
100004.2879
100003.9023
100003.777
100003.7555
100003.7592
100003.7745
100003.798
100003.8167
100003.8205
100003.8516
100003.8183
100003.8837
100003.8325
100003.9201
100003.8359
100004.4188
100003.9303
100003.9395
100003.8747
100003.9076
100003.9256
100003.9295
100003.9598
100003.983
100004.009
100004.084
100004.015
100003.9729
100003.9634
100003.9371
100003.9482
100003.9791
100004.0266
100004.1218
100003.9918
100003.8469
100003.7606
100003.7363
100003.7438
100003.7651
100003.7862
100003.8081
100003.8086
100003.9142
100003.9108
100003.9319
100003.9557
100003.9775
100003.9981
100003.9743
100003.9466
100003.9457
100003.9289
100003.9551
100004.1742
100004.0256
100003.8763
100003.7797
100003.7395
100003.7394
100003.8125
100003.8081
100003.8055
100003.801
100003.7942
100003.7858
100003.7775
100003.7705
100003.765
100003.7615
100003.7598
100003.7597
100003.7605
100003.7609
100003.7607
100003.7602
100003.7591
100003.7575
100003.7552
100003.7522
100003.7488
100003.7456
100003.743
100003.7417
100003.742
100003.7443
100003.7492
100003.7568
100003.7674
100003.7805
100003.7957
100003.813
100003.8289
100003.852
100003.7254
100003.7268
100003.7297
100003.7315
100003.7312
100003.728
100003.7234
100003.7188
100003.7149
100003.7125
100003.7114
100003.7111
100003.7095
100003.7047
100003.6975
100003.6897
100003.6826
100003.6771
100003.6734
100003.6717
100003.6723
100003.6753
100003.6809
100003.6884
100003.6975
100003.7076
100003.7188
100003.7315
100003.7461
100003.7627
100003.7809
100003.8001
100003.8165
100003.8369
100003.6816
100003.6812
100003.6836
100003.6865
100003.6879
100003.6873
100003.6849
100003.6821
100003.6791
100003.6773
100003.6765
100003.6758
100003.6714
100003.6623
100003.6517
100003.6427
100003.6362
100003.6315
100003.6283
100003.6269
100003.6276
100003.6312
100003.6388
100003.65
100003.6637
100003.6788
100003.695
100003.712
100003.7302
100003.7499
100003.7703
100003.7909
100003.8074
100003.8244
100003.6473
100003.6468
100003.6479
100003.6497
100003.6508
100003.6507
100003.6491
100003.6475
100003.6448
100003.6422
100003.6419
100003.6412
100003.6347
100003.6225
100003.6109
100003.6026
100003.597
100003.5927
100003.5895
100003.5874
100003.5869
100003.5886
100003.5958
100003.609
100003.6266
100003.6465
100003.6673
100003.6887
100003.7107
100003.7334
100003.7562
100003.7786
100003.7959
100003.8126
100003.6282
100003.6271
100003.627
100003.6265
100003.6262
100003.6255
100003.6236
100003.6227
100003.6184
100003.6097
100003.6118
100003.6146
100003.609
100003.596
100003.5847
100003.5778
100003.5731
100003.5693
100003.5658
100003.5628
100003.5594
100003.5554
100003.5594
100003.5733
100003.594
100003.618
100003.6429
100003.6679
100003.6931
100003.7185
100003.7436
100003.7678
100003.7864
100003.8039
100003.6223
100003.62
100003.6178
100003.615
100003.6122
100003.6105
100003.608
100003.6077
100003.5984
100003.5734
100003.5801
100003.5915
100003.593
100003.5823
100003.5714
100003.565
100003.561
100003.5576
100003.5537
100003.5498
100003.5411
100003.5223
100003.5185
100003.5327
100003.5595
100003.5897
100003.6194
100003.648
100003.6758
100003.7034
100003.7305
100003.7567
100003.7769
100003.7961
100003.6266
100003.6226
100003.6176
100003.6122
100003.6077
100003.6055
100003.6028
100003.6041
100003.5861
100003.5414
100003.5511
100003.5686
100003.5835
100003.58
100003.5699
100003.5631
100003.5591
100003.556
100003.5524
100003.5493
100003.5318
100003.4884
100003.4743
100003.4828
100003.5152
100003.5572
100003.5954
100003.6284
100003.6589
100003.6884
100003.7175
100003.7458
100003.7681
100003.79
100003.6371
100003.6313
100003.6236
100003.6162
100003.6109
100003.6095
100003.6078
100003.6115
100003.5796
100003.5183
100003.5327
100003.5535
100003.5781
100003.5864
100003.5784
100003.5706
100003.5655
100003.5628
100003.5605
100003.5614
100003.5293
100003.4579
100003.4393
100003.4418
100003.4657
100003.5178
100003.5688
100003.6085
100003.642
100003.6737
100003.7046
100003.7352
100003.7597
100003.7841
100003.6509
100003.6435
100003.6336
100003.6251
100003.6199
100003.6193
100003.6196
100003.6235
100003.5782
100003.5139
100003.5272
100003.5477
100003.5788
100003.5976
100003.5942
100003.5856
100003.578
100003.5748
100003.5744
100003.5796
100003.5276
100003.4434
100003.4271
100003.4217
100003.4318
100003.482
100003.5424
100003.5895
100003.6259
100003.6599
100003.6933
100003.726
100003.7522
100003.778
100003.6667
100003.6574
100003.646
100003.6368
100003.6314
100003.6308
100003.6318
100003.6327
100003.5877
100003.531
100003.5363
100003.5574
100003.5931
100003.6175
100003.6166
100003.6064
100003.5949
100003.5894
100003.5888
100003.5915
100003.5224
100003.4442
100003.4347
100003.4278
100003.4326
100003.4671
100003.5254
100003.5753
100003.6132
100003.6492
100003.6856
100003.7205
100003.7475
100003.7721
100003.6828
100003.6714
100003.6587
100003.6489
100003.6428
100003.6409
100003.641
100003.6413
100003.6188
100003.5838
100003.5872
100003.6139
100003.6439
100003.6584
100003.6491
100003.634
100003.6181
100003.6081
100003.6034
100003.5973
100003.534
100003.4663
100003.4676
100003.4608
100003.4533
100003.4699
100003.5183
100003.5668
100003.6063
100003.6443
100003.6834
100003.7198
100003.7465
100003.7683
100003.6972
100003.6836
100003.6699
100003.6593
100003.6521
100003.6487
100003.6482
100003.6506
100003.6489
100003.649
100003.6635
100003.6892
100003.7072
100003.7155
100003.695
100003.6718
100003.6506
100003.6341
100003.6231
100003.6157
100003.6016
100003.5868
100003.557
100003.5017
100003.4667
100003.4667
100003.4992
100003.5511
100003.6012
100003.6459
100003.687
100003.723
100003.7481
100003.7668
100003.7077
100003.6926
100003.6779
100003.6662
100003.6578
100003.6529
100003.6517
100003.6551
100003.6629
100003.6799
100003.7082
100003.7524
100003.7731
100003.7959
100003.7565
100003.7195
100003.6871
100003.6617
100003.6448
100003.6352
100003.6326
100003.6257
100003.5376
100003.4857
100003.4597
100003.4586
100003.4807
100003.5319
100003.5954
100003.6514
100003.6952
100003.7289
100003.7509
100003.766
100003.7137
100003.6973
100003.6814
100003.6685
100003.659
100003.6529
100003.6515
100003.6567
100003.6715
100003.7033
100003.7531
100003.8569
100003.8599
100003.9287
100003.8371
100003.7757
100003.7257
100003.6885
100003.6635
100003.6469
100003.6401
100003.6023
100003.4946
100003.4607
100003.445
100003.449
100003.4737
100003.5259
100003.5974
100003.6601
100003.7039
100003.7344
100003.7528
100003.7639
100003.7154
100003.6971
100003.6796
100003.6655
100003.6551
100003.6486
100003.6474
100003.6544
100003.6737
100003.7146
100003.7714
100003.9299
100003.9201
100004.051
100003.9
100003.8269
100003.7624
100003.7147
100003.6829
100003.6602
100003.6427
100003.6116
100003.5436
100003.5038
100003.4926
100003.5072
100003.5409
100003.5882
100003.6367
100003.6799
100003.7141
100003.7386
100003.7525
100003.7599
100003.7127
100003.693
100003.6736
100003.6576
100003.6466
100003.64
100003.6396
100003.65
100003.6832
100003.7741
100003.8288
100004.4976
100004.0517
100004.5493
100004.0706
100003.927
100003.8075
100003.7402
100003.704
100003.6789
100003.6594
100003.6364
100003.6038
100003.579
100003.5726
100003.5823
100003.6022
100003.6324
100003.6653
100003.6978
100003.7234
100003.7407
100003.749
100003.7532
100003.7013
100003.6861
100003.6652
100003.6465
100003.6349
100003.627
100003.6228
100003.6255
100003.6413
100003.6776
100003.7321
100003.8465
100004.0764
100003.9061
100003.817
100003.7851
100003.7594
100003.7357
100003.7187
100003.6986
100003.6798
100003.659
100003.6372
100003.6229
100003.6189
100003.6242
100003.6348
100003.655
100003.6783
100003.7054
100003.7243
100003.7357
100003.7395
100003.7418
100003.6761
100003.6693
100003.6505
100003.6303
100003.6195
100003.6074
100003.5944
100003.5902
100003.5997
100003.6302
100003.6876
100003.7887
100003.851
100003.8587
100003.8149
100003.7808
100003.7566
100003.7421
100003.7431
100003.724
100003.7068
100003.6874
100003.6697
100003.6606
100003.6569
100003.6582
100003.654
100003.6589
100003.669
100003.6963
100003.7118
100003.72
100003.7218
100003.7243
100003.6573
100003.7189
100003.6486
100003.6093
100003.5956
100003.572
100003.5528
100003.5444
100003.5477
100003.5694
100003.6151
100003.6782
100003.7194
100003.7281
100003.7283
100003.7296
100003.7499
100003.7445
100003.7922
100003.768
100003.7524
100003.7293
100003.7096
100003.6993
100003.6911
100003.6862
100003.6489
100003.6109
100003.5949
100003.6479
100003.6724
100003.6858
100003.6924
100003.6996
100003.6493
100003.5821
100003.5421
100003.5539
100003.5546
100003.5308
100003.5195
100003.5142
100003.5158
100003.5331
100003.5747
100003.6362
100003.6794
100003.7006
100003.7152
100003.7164
100003.7848
100003.7439
100003.9326
100003.8675
100003.845
100003.8007
100003.7685
100003.7522
100003.7278
100003.7055
100003.6044
100003.4395
100003.3462
100003.5117
100003.5791
100003.6205
100003.6479
100003.6685
100003.5583
100003.4601
100003.5387
100003.5182
100003.5264
100003.5031
100003.4998
100003.5003
100003.5051
100003.524
100003.5623
100003.6267
100003.6662
100003.6883
100003.7167
100003.7171
100003.8612
100003.7459
100004.2544
100004.1383
100004.0659
100003.9487
100003.875
100003.8358
100003.7715
100003.6992
100003.4731
100002.8577
100002.4453
100003.164
100003.3803
100003.5131
100003.5884
100003.633
100003.5215
100003.4887
100003.4838
100003.5088
100003.5053
100003.4936
100003.4964
100003.5046
100003.5124
100003.5368
100003.5748
100003.6423
100003.6722
100003.6989
100003.7286
100003.7279
100003.8972
100003.7462
100004.2261
100004.6896
100004.4945
100004.1802
100004.0036
100003.9219
100003.8235
100003.6995
100003.5125
100002.9498
100002.4255
100002.7178
100003.0864
100003.3888
100003.5221
100003.6001
100003.5299
100003.532
100003.54
100003.5378
100003.5225
100003.5082
100003.5107
100003.5236
100003.5304
100003.5627
100003.6003
100003.6291
100003.6728
100003.6798
100003.7969
100003.8133
100004.3606
100003.9211
100006.8931
100010.0489
100006.138
100004.6414
100004.1411
100003.9897
100003.8207
100003.528
100003.4078
100002.4608
99999.97267
100001.0634
100002.3368
100003.2918
100003.4622
100003.5853
100003.5863
100003.5742
100003.5867
100003.5831
100003.5676
100003.5554
100003.5498
100003.5624
100003.5725
100003.625
100003.6275
100003.5751
100003.6706
100003.647
100003.7159
100003.728
100003.8011
100003.7053
100003.8388
100003.9642
100004.1323
100004.1047
100004.0063
100003.9959
100003.9005
100003.811
100003.7882
100003.7562
100003.7759
100003.3549
100003.2714
100003.4467
100003.5631
100003.6225
100003.6225
100003.6013
100003.5586
100003.5725
100003.5672
100003.5875
100003.5972
100003.5965
100003.6161
100003.6174
100003.6185
100003.6529
100003.1133
100003.6377
100003.6187
100003.7061
100003.7237
100003.8712
100003.7932
100004.409
100004.1991
100004.0935
100004.0101
100003.9154
100003.9622
100003.8726
100003.8622
100003.7888
100003.5622
100003.3424
100003.5976
100003.5547
100003.6143
100003.6605
100003.6821
100003.5897
100003.5765
100003.5463
100003.5622
100003.5306
100003.5543
100003.5998
100003.6257
100003.5788
100003.6307
100003.6627
100003.6557
100003.6006
100003.637
100003.716
100003.6976
100004.0787
100003.7851
100003.7466
100003.7881
100003.6327
100003.5849
100003.9773
100003.7994
100004.4556
100003.9687
100003.9098
100003.855
100003.7987
100003.7352
100003.7503
100003.6876
100003.7023
100003.7194
100003.7299
100003.6514
100003.6222
100003.5889
100003.5566
100003.5321
100003.5539
100003.5879
100003.6215
100003.6228
100003.6454
100003.6645
100003.6716
100003.6233
100003.6365
100003.6511
100003.6829
100003.6913
100003.7143
100003.6927
100003.7784
100003.7787
100003.7609
100003.8064
100003.7635
100003.8627
100003.8276
100003.8208
100003.7966
100003.7942
100003.8118
100003.8245
100003.7674
100003.7496
100003.7517
100003.7701
100003.7531
100003.6095
100003.5857
100003.4913
100003.4518
100003.4824
100003.5334
100003.5808
100003.6149
100003.6438
100003.6745
100003.6763
100003.6693
100003.6318
100003.6199
100003.6606
100003.6676
100003.6877
100003.6358
100003.6394
100003.5737
100003.2056
100003.6805
100003.6983
100003.876
100003.8099
100003.8251
100003.8261
100003.8319
100003.8988
100003.8668
100003.8134
100003.7992
100003.7925
100003.8022
100003.5949
100003.5889
100003.4711
100003.2904
100003.4409
100003.4892
100003.5402
100003.5834
100003.6233
100003.6623
100003.6704
100003.679
100003.6751
100003.658
100003.7163
100003.6486
100003.705
100003.6023
100003.7577
100003.8025
100003.7981
100003.7426
100003.7345
100003.7766
100003.7696
100003.7837
100003.8009
100003.8428
100004.1722
100003.9008
100003.815
100003.7987
100003.7833
100003.8007
100003.6089
100003.7273
100003.5909
100003.5788
100003.544
100003.5364
100003.5473
100003.5722
100003.6086
100003.6403
100003.6527
100003.6736
100003.7558
100003.7544
100003.7707
100003.7824
100003.8069
100003.8557
100003.8128
100003.7791
100003.7792
100003.7618
100003.7903
100003.6152
100003.5848
100003.5571
100003.5446
100003.5486
100003.5665
100003.6549
100003.6515
100003.6482
100003.6445
100003.6401
100003.6344
100003.6287
100003.6235
100003.619
100003.6154
100003.6126
100003.6104
100003.6084
100003.6062
100003.6036
100003.6005
100003.5968
100003.5925
100003.5879
100003.5832
100003.579
100003.576
100003.5747
100003.5756
100003.5786
100003.5839
100003.5916
100003.6016
100003.6138
100003.6279
100003.6438
100003.6615
100003.6776
100003.7002
100003.5861
100003.585
100003.5844
100003.5842
100003.5829
100003.5803
100003.577
100003.5737
100003.5705
100003.5679
100003.5655
100003.5634
100003.5608
100003.5573
100003.5526
100003.5473
100003.5421
100003.5372
100003.5332
100003.5305
100003.5295
100003.5306
100003.5342
100003.54
100003.5477
100003.5574
100003.5689
100003.5823
100003.5976
100003.6145
100003.6325
100003.651
100003.667
100003.6867
100003.5437
100003.5424
100003.5422
100003.5429
100003.5432
100003.5424
100003.5406
100003.5386
100003.5363
100003.5343
100003.5323
100003.5299
100003.5261
100003.5205
100003.5144
100003.5086
100003.5034
100003.4991
100003.4961
100003.4946
100003.495
100003.4977
100003.503
100003.5111
100003.5219
100003.535
100003.5499
100003.5665
100003.5847
100003.604
100003.6236
100003.6427
100003.6577
100003.6732
100003.5098
100003.5086
100003.5083
100003.5086
100003.5088
100003.5085
100003.5074
100003.5062
100003.5043
100003.5026
100003.5009
100003.4984
100003.4935
100003.4865
100003.4796
100003.4737
100003.4688
100003.4649
100003.4621
100003.4606
100003.4608
100003.4637
100003.47
100003.4798
100003.4929
100003.5089
100003.5272
100003.547
100003.5679
100003.5896
100003.6111
100003.6313
100003.6466
100003.6606
100003.487
100003.4859
100003.4856
100003.4854
100003.4846
100003.484
100003.4829
100003.4821
100003.4801
100003.4784
100003.4772
100003.4751
100003.4701
100003.4628
100003.4558
100003.45
100003.4456
100003.4421
100003.4395
100003.4379
100003.4372
100003.4388
100003.4441
100003.4539
100003.4681
100003.4859
100003.5064
100003.5287
100003.5521
100003.5759
100003.5991
100003.6207
100003.6368
100003.6509
100003.4758
100003.4741
100003.4727
100003.4713
100003.4699
100003.469
100003.4677
100003.467
100003.4643
100003.4618
100003.4614
100003.4607
100003.4567
100003.4496
100003.4423
100003.436
100003.4315
100003.4281
100003.4254
100003.4235
100003.4217
100003.4221
100003.4246
100003.4325
100003.4463
100003.465
100003.4869
100003.5109
100003.536
100003.5615
100003.5861
100003.6091
100003.6261
100003.6411
100003.4747
100003.472
100003.4691
100003.4662
100003.4638
100003.4627
100003.4614
100003.4604
100003.4545
100003.448
100003.45
100003.4542
100003.4531
100003.4467
100003.4381
100003.4313
100003.4266
100003.4232
100003.4202
100003.4174
100003.4121
100003.4079
100003.4085
100003.4157
100003.4278
100003.4463
100003.4691
100003.4942
100003.5204
100003.5472
100003.5733
100003.5978
100003.6161
100003.6331
100003.4813
100003.4773
100003.4728
100003.4685
100003.4653
100003.4642
100003.4629
100003.4611
100003.4507
100003.4393
100003.4417
100003.4489
100003.4542
100003.4508
100003.4424
100003.4349
100003.4297
100003.4262
100003.423
100003.4193
100003.4094
100003.3988
100003.3961
100003.4004
100003.4136
100003.4304
100003.4533
100003.4791
100003.506
100003.5337
100003.5611
100003.5871
100003.6069
100003.6257
100003.4927
100003.4874
100003.4813
100003.4759
100003.4722
100003.4711
100003.4698
100003.4666
100003.4524
100003.4385
100003.4399
100003.4484
100003.459
100003.4607
100003.4535
100003.4453
100003.439
100003.435
100003.4315
100003.4267
100003.4119
100003.3965
100003.3897
100003.3903
100003.4067
100003.4192
100003.4409
100003.4668
100003.494
100003.5222
100003.5507
100003.5782
100003.599
100003.6187
100003.5069
100003.5
100003.4926
100003.4861
100003.4818
100003.48
100003.4781
100003.4734
100003.4583
100003.4444
100003.4449
100003.4554
100003.4703
100003.4772
100003.4711
100003.4616
100003.4531
100003.4472
100003.4421
100003.4348
100003.4159
100003.3991
100003.3908
100003.3868
100003.395
100003.4119
100003.4332
100003.4588
100003.4858
100003.5143
100003.5437
100003.5723
100003.5936
100003.6126
100003.5219
100003.5132
100003.5045
100003.4969
100003.4914
100003.4885
100003.4861
100003.4816
100003.4708
100003.4614
100003.4648
100003.4809
100003.4979
100003.5077
100003.4983
100003.4851
100003.4724
100003.4625
100003.4544
100003.4439
100003.424
100003.4067
100003.3989
100003.394
100003.3973
100003.4125
100003.4315
100003.4557
100003.4824
100003.5112
100003.5412
100003.5705
100003.592
100003.6093
100003.5354
100003.5252
100003.5151
100003.5062
100003.4995
100003.4955
100003.4931
100003.4912
100003.4882
100003.4896
100003.5015
100003.5264
100003.5447
100003.5627
100003.5417
100003.5196
100003.4991
100003.483
100003.4713
100003.4612
100003.449
100003.4362
100003.4229
100003.4106
100003.4061
100003.4147
100003.4332
100003.4561
100003.4831
100003.5129
100003.5435
100003.5726
100003.5935
100003.6087
100003.5458
100003.5342
100003.5227
100003.5125
100003.5046
100003.4994
100003.4971
100003.498
100003.5029
100003.517
100003.5413
100003.5878
100003.608
100003.6637
100003.6087
100003.5687
100003.5336