/*--------------------------------*- C++ -*----------------------------------*\
  =========                 |
  \\      /  F ield         | OpenFOAM: The Open Source CFD Toolbox
   \\    /   O peration     | Website:  https://openfoam.org
    \\  /    A nd           | Version:  8
     \\/     M anipulation  |
\*---------------------------------------------------------------------------*/
FoamFile
{
    version     2.0;
    format      ascii;
    class       volScalarField;
    location    "1.3";
    object      T;
}
// * * * * * * * * * * * * * * * * * * * * * * * * * * * * * * * * * * * * * //

dimensions      [0 0 0 1 0 0 0];

internalField   nonuniform List<scalar> 
67193
(
300.0024275
300.0023539
300.0023157
300.0023031
300.0023113
300.0023296
300.0023462
300.0023568
300.0023608
300.0023589
300.0023501
300.0023343
300.0023147
300.002301
300.0022998
300.0023077
300.0023164
300.00232
300.0023162
300.0023057
300.0022909
300.0022754
300.0022636
300.0022593
300.0022645
300.0022778
300.0022956
300.0023133
300.0023269
300.0023337
300.0023336
300.0023325
300.0023468
300.0023751
300.0025209
300.0024494
300.0023963
300.002365
300.0023617
300.0023795
300.0024021
300.0024187
300.0024251
300.0024212
300.0024047
300.0023755
300.0023486
300.0023486
300.0023732
300.0024026
300.002424
300.0024339
300.002433
300.0024233
300.0024068
300.0023865
300.0023668
300.0023528
300.0023496
300.0023581
300.002375
300.0023943
300.0024099
300.0024171
300.0024148
300.0024091
300.0024182
300.0024365
300.0025121
300.0024603
300.0024086
300.0023715
300.0023602
300.0023738
300.0023973
300.0024166
300.0024244
300.0024176
300.0023936
300.0023527
300.0023289
300.0023557
300.0024038
300.0024423
300.0024639
300.0024717
300.00247
300.0024616
300.0024484
300.0024312
300.0024131
300.0023975
300.0023894
300.0023931
300.0024076
300.0024277
300.0024463
300.0024571
300.002458
300.0024546
300.002466
300.0024849
300.0024735
300.002437
300.0023937
300.0023621
300.0023524
300.0023641
300.0023849
300.0024017
300.0024076
300.0023931
300.002365
300.0023178
300.0023058
300.0023592
300.0024213
300.0024608
300.0024793
300.0024842
300.0024809
300.0024727
300.0024618
300.0024466
300.0024331
300.0024203
300.0024108
300.0024099
300.0024199
300.002438
300.0024579
300.0024722
300.0024773
300.0024769
300.0024888
300.0025084
300.0024146
300.0023925
300.0023638
300.0023468
300.0023461
300.0023587
300.0023756
300.0023846
300.0023858
300.0023548
300.0023303
300.0022852
300.002286
300.0023561
300.0024245
300.0024639
300.0024814
300.0024853
300.0024807
300.0024705
300.0024595
300.0024376
300.0024297
300.0024256
300.0024203
300.0024178
300.0024231
300.0024369
300.0024552
300.0024715
300.0024808
300.0024837
300.0024939
300.0025102
300.0023467
300.0023415
300.0023352
300.0023399
300.0023513
300.0023641
300.0023763
300.0023713
300.0023653
300.0023134
300.0022977
300.0022627
300.0022704
300.0023447
300.0024171
300.0024589
300.002478
300.0024828
300.0024786
300.0024646
300.0024497
300.0024018
300.0023969
300.0024108
300.0024196
300.0024219
300.0024245
300.002433
300.0024471
300.0024628
300.0024752
300.0024818
300.0024906
300.0025006
300.0022877
300.0023016
300.0023235
300.0023504
300.0023714
300.0023811
300.0023876
300.0023598
300.0023461
300.0022911
300.0022744
300.0022505
300.0022565
300.002325
300.0024011
300.0024475
300.00247
300.0024777
300.002476
300.0024538
300.0024295
300.0023359
300.002321
300.0023602
300.0023984
300.0024183
300.0024254
300.0024304
300.0024393
300.0024522
300.0024663
300.0024777
300.0024887
300.0024932
300.0022617
300.0022914
300.0023385
300.0023805
300.0024047
300.0024077
300.0024073
300.0023471
300.0023331
300.0023198
300.0022788
300.0022511
300.0022473
300.0023019
300.0023798
300.0024321
300.0024597
300.0024722
300.0024751
300.0024351
300.0023916
300.0022616
300.002218
300.0022699
300.0023453
300.002399
300.0024234
300.0024319
300.0024374
300.0024466
300.002461
300.0024777
300.0024957
300.0024989
300.0022774
300.0023164
300.0023778
300.0024248
300.0024473
300.0024428
300.0024322
300.0023411
300.002341
300.0024089
300.0023281
300.002275
300.0022501
300.0022845
300.0023596
300.0024172
300.0024521
300.0024707
300.0024761
300.0024088
300.0023389
300.002239
300.0021549
300.002189
300.0022758
300.002364
300.0024162
300.0024384
300.0024459
300.0024515
300.0024642
300.0024861
300.0025152
300.0025222
300.0023183
300.0023649
300.0024311
300.0024768
300.0024955
300.002487
300.0024662
300.0023716
300.0023862
300.0025105
300.0024145
300.0023277
300.0022723
300.0022839
300.0023526
300.0024115
300.0024541
300.0024784
300.0024774
300.0023893
300.0023191
300.0023205
300.0022081
300.0021975
300.0022562
300.0023435
300.0024126
300.0024504
300.0024645
300.0024681
300.0024777
300.0025049
300.0025481
300.0025612
300.0023674
300.0024231
300.002489
300.0025312
300.0025463
300.0025391
300.0025169
300.0024634
300.0024331
300.0024496
300.0023945
300.0023309
300.0022917
300.0023131
300.0023775
300.002429
300.0024718
300.0024961
300.0024804
300.0024128
300.0023731
300.0024302
300.0023314
300.0022819
300.0022963
300.0023593
300.0024254
300.0024681
300.0024867
300.002491
300.002501
300.0025369
300.0025943
300.0026078
300.0024206
300.0024826
300.0025451
300.002583
300.0025952
300.0025875
300.0025652
300.0025208
300.0024796
300.0024004
300.002368
300.0023471
300.0023352
300.0023655
300.0024282
300.0024773
300.0025067
300.0025224
300.0025254
300.0025221
300.0024909
300.0024638
300.0023944
300.0023322
300.0023159
300.0023662
300.0024373
300.0024844
300.0025044
300.0025131
300.0025338
300.0025847
300.0026487
300.0026483
300.0024735
300.0025363
300.0025946
300.0026289
300.0026385
300.0026293
300.0026056
300.0025695
300.0025292
300.0024805
300.0024494
300.0024246
300.0024056
300.0024457
300.0025081
300.0025467
300.0025605
300.0025642
300.0025561
300.002551
300.0025067
300.0024376
300.0023561
300.0022994
300.0022705
300.0023177
300.0024059
300.0024824
300.0025198
300.002541
300.0025787
300.0026446
300.0027032
300.0026821
300.0025183
300.0025802
300.0026349
300.0026664
300.0026739
300.0026634
300.0026399
300.0026096
300.0025776
300.0025444
300.0025183
300.002504
300.0024908
300.0025663
300.0026175
300.0026373
300.0026336
300.0026236
300.0026049
300.0026029
300.0025226
300.0025004
300.0024969
300.0024392
300.0023711
300.0023661
300.002413
300.0024799
300.0025303
300.0025733
300.0026312
300.0027041
300.0027463
300.0027178
300.0025525
300.0026126
300.0026647
300.0026935
300.0026985
300.0026859
300.0026604
300.0026326
300.0026068
300.0025842
300.0025615
300.0025592
300.0025528
300.0026702
300.0027156
300.002719
300.0026976
300.0026721
300.0026456
300.0026272
300.0025841
300.002544
300.002502
300.0024613
300.0024359
300.0024562
300.0024989
300.0025385
300.0025741
300.0026201
300.0026858
300.0027509
300.002776
300.0027616
300.0025662
300.0026272
300.0026792
300.0027062
300.0027076
300.0026906
300.0026578
300.0026317
300.0026192
300.0026207
300.002619
300.0027335
300.0026509
300.0029244
300.0028345
300.0027994
300.0027459
300.0027041
300.0026718
300.0026472
300.0026155
300.0025909
300.0025025
300.0024421
300.0024481
300.0024932
300.0025397
300.0025788
300.0026173
300.0026682
300.0027292
300.0027764
300.0028007
300.0028187
300.0025643
300.0026111
300.0026622
300.0026893
300.0026845
300.0026584
300.0026127
300.0025796
300.0025648
300.0025588
300.0025471
300.0025354
300.0025772
300.0027076
300.0027242
300.0027159
300.002708
300.0026938
300.002682
300.0026651
300.0026425
300.0026226
300.0025907
300.0025756
300.0025809
300.0025929
300.0026062
300.0026304
300.0026617
300.0027044
300.002749
300.0027892
300.0028381
300.002895
300.002612
300.0026179
300.0026382
300.002656
300.002641
300.0026118
300.0025901
300.0025633
300.0025393
300.0025227
300.0025062
300.0024908
300.0025246
300.0026618
300.0026976
300.002703
300.0026977
300.0026922
300.0027262
300.0027201
300.0027026
300.0026806
300.0026544
300.0026342
300.0026257
300.0026297
300.0026365
300.0026704
300.0026972
300.0027244
300.0027574
300.0028171
300.0029034
300.0029901
300.0027013
300.0026897
300.0026335
300.0026162
300.0025945
300.0026085
300.0026502
300.0026299
300.0025892
300.0025439
300.0024912
300.002441
300.0024569
300.0025768
300.0026397
300.0026657
300.0026819
300.0026996
300.0028155
300.0028052
300.0027862
300.002758
300.0027243
300.0026943
300.0026741
300.0026741
300.0026612
300.0027125
300.0027453
300.0027505
300.0027839
300.0028813
300.0029944
300.0030916
300.0027891
300.002998
300.002656
300.0025854
300.0025934
300.0026726
300.0027495
300.0027259
300.0026752
300.0026164
300.0025303
300.0024363
300.0024243
300.0025422
300.0026164
300.0026559
300.002711
300.0027373
300.0029597
300.0029264
300.0029052
300.0028563
300.0028016
300.0027575
300.0027236
300.0027324
300.0027037
300.0027029
300.0028678
300.0028239
300.0028534
300.0029804
300.0030884
300.0031784
300.0027936
300.0027444
300.0026226
300.0025502
300.0025845
300.0026796
300.0027548
300.0027318
300.0026852
300.0026383
300.002544
300.0024336
300.0024176
300.002536
300.0026092
300.0026623
300.0027879
300.0028059
300.0032783
300.003129
300.0030703
300.0029652
300.0028835
300.0028489
300.0028198
300.0028346
300.0028252
300.0023129
300.0030556
300.0029303
300.0029628
300.0030926
300.0031602
300.0032309
300.0027941
300.0027154
300.0026097
300.0025352
300.0025676
300.0026591
300.002728
300.0027092
300.002659
300.0026215
300.0025163
300.0024246
300.0024389
300.0025495
300.0026135
300.0026699
300.002814
300.0027647
300.0032997
300.0032721
300.0032515
300.0031505
300.0030515
300.0030102
300.0029895
300.0029759
300.0030392
300.0009782
300.0021643
300.0028268
300.0030703
300.0032231
300.0032181
300.0032507
300.0028053
300.0027056
300.002611
300.0025465
300.0025596
300.002631
300.0027008
300.0026937
300.0026327
300.0025705
300.0024473
300.0024367
300.0024762
300.0025276
300.0026537
300.0027528
300.0031806
300.0030789
300.0053435
300.0044075
300.0039008
300.0034723
300.0032199
300.003132
300.0031211
300.0029181
300.002799
299.9970486
299.9839497
300.0019368
300.0038768
300.003649
300.0033221
300.0032336
300.0027248
300.0026169
300.0025689
300.0025236
300.0025369
300.0025785
300.0026387
300.0026244
300.0025412
300.0024818
300.0023875
300.0025507
300.0024893
300.0025596
300.0026616
300.00276
300.0028415
300.002809
300.0029818
300.0032011
300.0032738
300.0032105
300.0031211
300.0031
300.0030677
300.003072
300.0028345
300.0019652
300.0018551
300.002151
300.0027722
300.0030509
300.0030718
300.0030685
300.0026771
300.0026286
300.0025779
300.0026407
300.0025802
300.0025319
300.0025126
300.0025317
300.0024993
300.0024055
300.0023987
300.0023951
300.0028433
300.0025901
300.002628
300.0026529
300.0028274
300.0028983
300.0028751
300.0032881
300.0030861
300.0030848
300.0030257
300.0029989
300.0030717
300.0030621
300.0031134
300.0031804
300.0028953
300.003587
300.0033765
300.0032485
300.0031359
300.0030207
300.0029465
300.0025281
300.0026192
300.0025699
300.0027184
300.0026083
300.0026212
300.0024805
300.0024377
300.0023533
300.0024643
300.0024791
300.0024801
300.0025154
300.0026176
300.0027686
300.002732
300.002926
300.002869
300.0028363
300.0028833
300.0028523
300.0029993
300.0029241
300.0029377
300.0031504
300.0030388
300.0029941
300.0030178
300.0030466
300.002952
300.0029428
300.003104
300.0030987
300.0029705
300.0028444
300.0027836
300.0028291
300.0028471
300.0029164
300.0028981
300.0028606
300.0027803
300.0026741
300.0026401
300.002665
300.0026351
300.0025631
300.0026163
300.0026212
300.0027298
300.002808
300.0028892
300.0028241
300.0027647
300.0027921
300.002651
300.0027058
300.002711
300.0028175
300.0029432
300.0029865
300.0030134
300.0029431
300.0030024
300.0029444
300.0029112
300.0030457
300.0030981
300.0029503
300.0028142
300.0030664
300.0029793
300.0029248
300.0029556
300.0029235
300.0029562
300.0029449
300.0029177
300.0028724
300.002824
300.0027454
300.0026338
300.0025922
300.0026491
300.0026165
300.0027669
300.0028612
300.0027878
300.0026724
300.0027712
300.0020773
300.0019057
300.0027397
300.0028553
300.0029266
300.0029522
300.0029948
300.0029794
300.002948
300.0028504
300.0028177
300.0029069
300.0029194
300.0029243
300.0028813
300.0030646
300.0030517
300.003068
300.0027842
300.0029772
300.0029922
300.0029828
300.0029524
300.0028895
300.0027976
300.0026921
300.0025971
300.0025957
300.0026378
300.0027215
300.0027063
300.0027468
300.0026181
300.0030214
300.0026171
300.0026343
300.0026336
300.0026836
300.0027675
300.0028474
300.0029206
300.0029226
300.0028808
300.0028112
300.0027765
300.0028501
300.0028279
300.00282
300.0027732
300.0030916
300.003129
300.0030654
300.0030624
300.0030298
300.0030027
300.0029906
300.0029689
300.0029118
300.0028194
300.0027261
300.0026297
300.0026853
300.0027348
300.0028087
300.0028235
300.0027503
300.0026891
300.0027601
300.0028426
300.0028526
300.0028384
300.0027637
300.0031296
300.0030686
300.0030092
300.0029781
300.0029693
300.0029545
300.002356
300.0023156
300.002291
300.0022898
300.0023021
300.0023195
300.0023341
300.0023428
300.0023449
300.0023404
300.0023293
300.0023119
300.0022904
300.0022703
300.0022558
300.0022469
300.0022401
300.0022318
300.0022207
300.0022074
300.0021944
300.0021853
300.0021834
300.0021908
300.0022068
300.0022286
300.0022519
300.0022727
300.0022877
300.0022954
300.0022972
300.0023003
300.0023215
300.002358
300.0024516
300.0024201
300.0023854
300.0023677
300.0023691
300.0023831
300.0023991
300.0024096
300.0024113
300.0024035
300.0023866
300.0023627
300.0023406
300.0023317
300.0023353
300.0023435
300.0023483
300.002346
300.0023362
300.0023209
300.0023034
300.002288
300.0022788
300.0022791
300.0022898
300.0023087
300.0023311
300.0023519
300.0023667
300.0023732
300.0023726
300.0023726
300.0023885
300.0024155
300.002491
300.002467
300.0024322
300.0024079
300.0024013
300.00241
300.0024239
300.0024336
300.0024336
300.0024219
300.0024004
300.0023737
300.0023591
300.0023682
300.0023902
300.0024109
300.0024228
300.0024232
300.0024132
300.0023954
300.0023741
300.0023536
300.0023388
300.0023332
300.0023384
300.0023534
300.002374
300.0023949
300.0024108
300.0024189
300.0024202
300.0024227
300.0024418
300.0024657
300.0024923
300.0024767
300.0024492
300.0024276
300.0024198
300.0024251
300.0024353
300.0024412
300.0024369
300.0024189
300.002394
300.0023689
300.0023673
300.0023953
300.0024317
300.0024619
300.0024796
300.002483
300.0024731
300.0024529
300.0024268
300.0024001
300.0023791
300.0023679
300.0023678
300.0023782
300.002396
300.0024161
300.0024333
300.0024436
300.0024475
300.0024522
300.0024722
300.0024979
300.0024676
300.0024597
300.002443
300.0024311
300.0024285
300.0024336
300.00244
300.0024393
300.0024279
300.0024013
300.0023737
300.0023541
300.0023671
300.0024104
300.0024569
300.002493
300.0025141
300.0025196
300.002511
300.0024909
300.002462
300.002429
300.0024015
300.0023867
300.0023837
300.0023905
300.0024047
300.0024228
300.0024402
300.0024525
300.0024589
300.0024642
300.0024808
300.002503
300.0024337
300.0024335
300.0024299
300.0024303
300.0024354
300.0024419
300.0024441
300.0024344
300.0024153
300.0023851
300.0023515
300.0023352
300.0023595
300.0024143
300.0024676
300.0025087
300.0025331
300.0025407
300.0025326
300.0025103
300.002478
300.0024416
300.0024061
300.0023884
300.002387
300.0023943
300.0024065
300.002422
300.0024384
300.0024519
300.0024604
300.0024659
300.0024771
300.0024915
300.002406
300.002413
300.0024232
300.0024361
300.0024481
300.0024545
300.0024513
300.0024307
300.0024103
300.0023973
300.0023496
300.0023229
300.0023469
300.0024086
300.0024686
300.0025139
300.0025414
300.0025509
300.0025425
300.0025151
300.0024807
300.0024521
300.0024066
300.0023791
300.0023773
300.0023895
300.0024042
300.0024186
300.0024336
300.0024478
300.0024585
300.0024655
300.0024738
300.0024798
300.0023961
300.0024092
300.0024313
300.0024541
300.0024705
300.0024743
300.0024631
300.002432
300.0024252
300.0024551
300.0023906
300.0023353
300.00234
300.0023991
300.002464
300.0025128
300.0025432
300.0025545
300.0025435
300.0025076
300.0024837
300.0024874
300.0024298
300.0023849
300.002368
300.00238
300.0024005
300.0024174
300.0024323
300.0024471
300.0024602
300.0024707
300.0024809
300.0024811
300.0024075
300.0024254
300.0024557
300.0024846
300.0025022
300.0025015
300.0024813
300.0024459
300.00247
300.0025504
300.0024756
300.0023805
300.0023524
300.0023954
300.0024602
300.002511
300.0025443
300.0025566
300.0025398
300.002496
300.0025084
300.0025646
300.0024957
300.0024224
300.0023812
300.0023798
300.0024015
300.0024239
300.0024403
300.0024548
300.0024698
300.002486
300.0025032
300.0025019
300.002434
300.0024567
300.0024921
300.0025237
300.0025407
300.0025357
300.0025088
300.0024768
300.0025213
300.0026165
300.0025461
300.0024346
300.0023824
300.0024084
300.0024663
300.0025158
300.0025511
300.0025631
300.0025401
300.0024995
300.0025601
300.002661
300.0025853
300.0024868
300.0024237
300.0023992
300.0024149
300.0024413
300.0024599
300.0024722
300.002487
300.0025112
300.0025403
300.0025404
300.0024667
300.0024952
300.0025339
300.0025665
300.0025828
300.002576
300.0025466
300.0025134
300.0025287
300.0025701
300.0025145
300.002438
300.0024089
300.002439
300.0024899
300.0025342
300.0025674
300.0025782
300.0025549
300.0025236
300.0025769
300.0026473
300.002583
300.0025022
300.0024449
300.0024179
300.0024312
300.0024617
300.0024848
300.0024969
300.0025128
300.0025471
300.0025887
300.0025869
300.0024997
300.0025341
300.0025748
300.0026079
300.002624
300.0026181
300.0025899
300.0025496
300.0025241
300.0025071
300.0024712
300.0024463
300.0024486
300.0024915
300.0025354
300.002571
300.0025947
300.0026029
300.0025879
300.0025536
300.0025218
300.0025041
300.0024953
300.002493
300.0024682
300.0024464
300.002446
300.0024722
300.0025021
300.0025241
300.0025523
300.0025994
300.0026439
300.002628
300.0025298
300.0025685
300.0026102
300.002643
300.0026589
300.0026545
300.0026301
300.0025925
300.0025558
300.0025273
300.002508
300.0025105
300.0025231
300.0025791
300.0026064
300.0026276
300.0026378
300.0026382
300.0026249
300.0025953
300.0025383
300.0025028
300.0025635
300.0025881
300.0025359
300.0024833
300.0024614
300.0024769
300.0025099
300.0025478
300.0025974
300.0026581
300.0026962
300.0026653
300.0025547
300.0025955
300.0026369
300.0026685
300.0026837
300.0026803
300.0026601
300.0026297
300.0025986
300.0025772
300.0025732
300.0026184
300.0026228
300.0027148
300.002704
300.0027015
300.0026927
300.0026805
300.0026625
300.0026352
300.0025763
300.002562
300.0026773
300.0027099
300.0026341
300.0025579
300.0025141
300.0025071
300.0025362
300.0025871
300.002652
300.0027151
300.0027389
300.002709
300.0025738
300.0026139
300.002653
300.0026822
300.0026954
300.0026915
300.0026732
300.0026479
300.0026241
300.0026119
300.002616
300.0027096
300.0027072
300.0028588
300.0027962
300.0027731
300.0027438
300.0027169
300.0026915
300.0026613
300.0026111
300.0025832
300.0026369
300.0026352
300.0025788
300.0025342
300.002524
300.002546
300.0025865
300.0026415
300.0027067
300.0027581
300.0027703
300.0027605
300.002588
300.0026234
300.0026576
300.0026821
300.0026919
300.0026863
300.0026682
300.0026479
300.0026383
300.0026647
300.00268
300.0030583
300.0028603
300.0032593
300.0029583
300.0028654
300.0027884
300.0027419
300.0027138
300.0026883
300.0026533
300.0026152
300.002591
300.0025683
300.0025558
300.0025606
300.0025751
300.0025992
300.0026353
300.0026864
300.0027411
300.0027769
300.0027932
300.0028174
300.0026051
300.0026275
300.0026503
300.0026669
300.0026721
300.002665
300.0026453
300.0026187
300.0025954
300.0025825
300.0025823
300.0026544
300.0028535
300.0028063
300.0027645
300.0027533
300.0027426
300.0027302
300.0027234
300.0027093
300.0026869
300.00266
300.0026319
300.0026153
300.0026105
300.0026124
300.0026172
300.0026328
300.0026618
300.0027044
300.0027456
300.0027776
300.0028167
300.0028805
300.0026447
300.0026401
300.0026385
300.0026423
300.0026458
300.0026471
300.0026402
300.0026127
300.0025775
300.0025492
300.0025355
300.002573
300.0026467
300.0027282
300.0027365
300.0027344
300.0027285
300.00273
300.0027539
300.0027527
300.0027381
300.0027141
300.0026887
300.0026681
300.002653
300.0026431
300.0026327
300.0026339
300.0026509
300.0026883
300.0027289
300.0027779
300.0028497
300.0029499
300.0027154
300.0027207
300.0026433
300.0026252
300.0026353
300.0026621
300.0026766
300.0026445
300.0025886
300.0025328
300.0024852
300.0024734
300.0025219
300.0026012
300.002649
300.0026794
300.0027142
300.002738
300.0028249
300.0028324
300.0028205
300.0027837
300.0027442
300.00271
300.0026806
300.0026572
300.0026187
300.0025791
300.0025766
300.0026357
300.0027011
300.0027854
300.0028915
300.0030207
300.0027786
300.0025851
300.0025794
300.0026008
300.0026357
300.0026911
300.002721
300.0026823
300.0026092
300.0025335
300.0024632
300.0024287
300.0024693
300.0025544
300.0026207
300.0026582
300.0027461
300.0027607
300.0029873
300.00297
300.0029523
300.0028892
300.0028247
300.0027675
300.0027142
300.0026671
300.0025829
300.0024177
300.0023644
300.002524
300.0026504
300.0027883
300.0029298
300.0030841
300.0027492
300.002611
300.0024619
300.002581
300.0026213
300.0026805
300.0027061
300.0026624
300.0025876
300.0025087
300.0024353
300.002396
300.0024417
300.002528
300.0026054
300.0026503
300.0028169
300.0027969
300.003299
300.003219
300.0031399
300.0030109
300.0029127
300.0028462
300.0027762
300.0026853
300.0025189
300.0019441
300.0016474
300.0022634
300.00253
300.0027598
300.0029465
300.0031279
300.0027293
300.0026452
300.0025821
300.0025662
300.0025967
300.0026335
300.0026412
300.0025946
300.002533
300.002458
300.0023951
300.0023659
300.0024311
300.0025072
300.0025945
300.0026432
300.0028414
300.002783
300.0032855
300.0037486
300.0035082
300.0032152
300.0030496
300.0029624
300.0028822
300.0027307
300.0025331
300.0017822
300.0014625
300.0019169
300.0023174
300.0026913
300.0029294
300.0031411
300.002687
300.0026315
300.002577
300.0025446
300.0025548
300.0025667
300.0025551
300.0024995
300.0024464
300.0023956
300.002343
300.0023273
300.0024231
300.0025182
300.0026158
300.0026997
300.0032018
300.0029277
300.0033572
300.0079171
300.0048242
300.0036079
300.003195
300.0030531
300.0029489
300.002571
300.0023679
300.0020063
300.0012199
300.0003024
300.0017134
300.0026082
300.0028835
300.0031292
300.0026203
300.0025672
300.002533
300.0024994
300.002499
300.002493
300.0024748
300.0024167
300.0023702
300.0023271
300.0023001
300.0022478
300.0023988
300.0024522
300.0025873
300.0026567
300.0027863
300.0027245
300.0029285
300.0031044
300.0032177
300.0031607
300.0030754
300.0030711
300.0029776
300.0028333
300.0025011
300.0018016
300.0021551
300.002288
300.0024446
300.0027633
300.0029522
300.0031328
300.0025855
300.0025884
300.0026247
300.0025711
300.0025073
300.0024605
300.0024221
300.0023975
300.0023586
300.0023251
300.0022836
300.0022884
300.0019086
300.0024151
300.0025295
300.0027002
300.0027568
300.0028771
300.0028057
300.0033059
300.0031089
300.0030426
300.002991
300.0029606
300.0030522
300.0029967
300.0029689
300.0029025
300.0026473
300.0024848
300.0026539
300.0027599
300.0029308
300.0030104
300.0031363
300.0026895
300.002707
300.0027976
300.0026879
300.00259
300.0024836
300.0023677
300.0023438
300.0023875
300.0024365
300.0024056
300.002427
300.0023286
300.0025692
300.0026505
300.0027695
300.0030454
300.0028504
300.0027454
300.002726
300.0025406
300.0025314
300.0028482
300.0028213
300.0032533
300.0030225
300.0029939
300.0028949
300.0028546
300.0027507
300.0027673
300.0028767
300.0030087
300.0030382
300.0031125
300.0027337
300.0027603
300.0027866
300.0027611
300.0027111
300.0026593
300.0025642
300.0025298
300.0025749
300.0026034
300.0025646
300.0025104
300.0025162
300.0025704
300.0026833
300.002758
300.0028651
300.0028051
300.0027096
300.0026774
300.0026479
300.0025846
300.0026943
300.0027532
300.0029288
300.002935
300.0029629
300.0029839
300.0028925
300.002816
300.0027964
300.0028981
300.0030037
300.0030212
300.0030445
300.0028994
300.0028771
300.0028811
300.0027672
300.0027916
300.0027953
300.0027943
300.0027887
300.0027658
300.0027259
300.0026547
300.0025725
300.002532
300.0025837
300.0027055
300.0027378
300.0028243
300.0027589
300.0026218
300.0024783
300.0024
300.0023148
300.0025347
300.0026716
300.0028832
300.0028877
300.0029183
300.0029146
300.0028838
300.0028423
300.0027734
300.0028484
300.0029036
300.0029315
300.0029437
300.0029074
300.0028701
300.0024183
300.0027428
300.002839
300.0028603
300.0028577
300.0028305
300.0027729
300.0027057
300.0026211
300.0025601
300.0025466
300.0025982
300.0026993
300.0026941
300.0027095
300.0026046
300.0025023
300.0025934
300.0026343
300.0026631
300.0026876
300.0027856
300.0028286
300.0028737
300.002886
300.002863
300.0030349
300.0027872
300.0028152
300.0028408
300.0028574
300.0028491
300.0029773
300.003081
300.0030121
300.0029739
300.0029658
300.0029415
300.0028986
300.0028519
300.0027891
300.0027234
300.0026533
300.0025922
300.0027252
300.0027648
300.0028086
300.0028157
300.0027812
300.00274
300.0027205
300.0027733
300.0028241
300.0028409
300.002817
300.003134
300.0030695
300.0030159
300.0029679
300.0029138
300.0028518
300.002265
300.002246
300.0022338
300.0022372
300.0022486
300.0022628
300.0022743
300.0022806
300.0022805
300.0022738
300.0022608
300.0022421
300.0022198
300.0021975
300.0021777
300.0021606
300.002145
300.0021294
300.0021137
300.002099
300.0020878
300.0020832
300.0020872
300.0021002
300.0021205
300.0021445
300.0021682
300.0021883
300.0022022
300.002209
300.0022113
300.002217
300.0022432
300.0022831
300.0023582
300.0023468
300.0023305
300.0023228
300.0023262
300.0023365
300.0023472
300.0023532
300.0023517
300.0023422
300.0023254
300.0023042
300.0022842
300.0022707
300.0022638
300.0022595
300.0022535
300.0022434
300.0022292
300.0022129
300.0021979
300.0021876
300.0021854
300.0021924
300.0022077
300.002228
300.002249
300.0022667
300.0022782
300.0022826
300.0022824
300.002286
300.0023058
300.0023365
300.0024142
300.0024063
300.0023887
300.002376
300.0023736
300.0023795
300.0023874
300.0023915
300.002388
300.002376
300.0023576
300.0023376
300.0023249
300.0023243
300.0023312
300.0023384
300.0023403
300.0023343
300.0023207
300.0023021
300.0022825
300.0022662
300.002257
300.0022569
300.002266
300.0022816
300.0022996
300.0023156
300.0023265
300.0023313
300.0023328
300.0023395
300.0023619
300.0023873
300.0024444
300.0024387
300.0024226
300.0024102
300.002406
300.0024089
300.0024136
300.0024142
300.0024075
300.0023925
300.0023734
300.0023572
300.0023546
300.0023673
300.0023871
300.0024049
300.0024143
300.0024122
300.0023989
300.0023772
300.0023522
300.002329
300.0023124
300.002305
300.0023073
300.0023176
300.0023322
300.0023467
300.0023576
300.0023635
300.0023669
300.0023757
300.0024004
300.0024254
300.0024469
300.0024451
300.0024355
300.0024281
300.0024259
300.0024279
300.0024292
300.0024251
300.0024144
300.0023959
300.0023764
300.0023651
300.0023726
300.002397
300.0024277
300.0024551
300.0024711
300.0024725
300.0024595
300.0024346
300.0024044
300.0023754
300.0023527
300.0023394
300.0023359
300.0023409
300.0023517
300.0023642
300.002375
300.0023817
300.0023859
300.0023939
300.0024147
300.0024375
300.0024371
300.0024388
300.0024371
300.002437
300.0024394
300.0024413
300.0024387
300.0024287
300.0024148
300.002395
300.0023731
300.0023648
300.0023804
300.0024143
300.0024533
300.0024864
300.0025063
300.0025098
300.0024965
300.0024693
300.0024365
300.0024035
300.0023767
300.0023611
300.0023546
300.0023559
300.0023631
300.0023733
300.0023834
300.0023906
300.0023948
300.0023998
300.0024127
300.0024271
300.0024279
300.002433
300.0024393
300.0024469
300.0024532
300.002454
300.0024458
300.0024299
300.0024179
300.0024033
300.0023747
300.0023628
300.0023812
300.0024217
300.0024664
300.0025036
300.0025263
300.0025305
300.0025143
300.0024823
300.0024492
300.0024143
300.0023812
300.0023683
300.002364
300.002365
300.0023704
300.0023789
300.0023884
300.0023962
300.0024006
300.0024033
300.0024091
300.0024136
300.0024277
300.0024359
300.0024494
300.0024634
300.0024723
300.0024699
300.0024551
300.002437
300.0024389
300.0024421
300.0024009
300.0023701
300.0023816
300.0024241
300.0024725
300.0025124
300.0025364
300.0025396
300.0025182
300.002482
300.0024592
300.0024302
300.0023858
300.0023642
300.0023658
300.0023703
300.0023771
300.0023859
300.002396
300.0024048
300.0024103
300.0024134
300.0024163
300.0024119
300.0024388
300.0024503
300.0024695
300.002488
300.0024977
300.0024912
300.0024708
300.0024575
300.0024841
300.0025119
300.0024583
300.0023994
300.0023926
300.0024298
300.0024782
300.0025185
300.0025426
300.0025435
300.0025164
300.0024835
300.0024909
300.0024828
300.0024168
300.002372
300.0023693
300.0023763
300.002387
300.0023989
300.0024109
300.0024209
300.0024283
300.0024347
300.00244
300.0024299
300.0024583
300.0024735
300.002497
300.0025186
300.0025284
300.002519
300.002496
300.0024894
300.0025321
300.00257
300.0025131
300.0024396
300.0024178
300.0024467
300.0024907
300.0025285
300.0025511
300.00255
300.002521
300.0025011
300.0025439
300.0025596
300.0024783
300.002402
300.0023785
300.0023877
300.0024032
300.00242
300.0024349
300.0024452
300.0024542
300.0024668
300.0024791
300.0024663
300.002481
300.0025006
300.0025275
300.0025513
300.0025619
300.0025521
300.0025276
300.002517
300.0025444
300.0025632
300.0025149
300.0024602
300.0024481
300.0024782
300.0025158
300.0025482
300.0025672
300.0025648
300.0025377
300.0025219
300.0025584
300.0025654
300.0024956
300.0024237
300.0023959
300.002405
300.0024246
300.0024465
300.0024647
300.0024759
300.0024875
300.0025083
300.0025282
300.0025112
300.002503
300.0025267
300.0025562
300.0025817
300.002594
300.0025861
300.0025606
300.0025363
300.0025309
300.0025233
300.0024928
300.0024754
300.0024872
300.0025309
300.002559
300.0025818
300.0025934
300.0025883
300.0025611
300.0025257
300.0025061
300.0024845
300.0024587
300.0024273
300.002408
300.0024169
300.0024436
300.0024703
300.0024927
300.0025098
300.0025307
300.0025609
300.0025813
300.0025525
300.0025222
300.0025485
300.0025792
300.0026056
300.0026195
300.0026149
300.0025921
300.0025621
300.0025383
300.0025213
300.00251
300.0025254
300.002554
300.0026272
300.0026281
300.0026328
300.002631
300.00262
300.002593