/*--------------------------------*- C++ -*----------------------------------*\
  =========                 |
  \\      /  F ield         | OpenFOAM: The Open Source CFD Toolbox
   \\    /   O peration     | Website:  https://openfoam.org
    \\  /    A nd           | Version:  8
     \\/     M anipulation  |
\*---------------------------------------------------------------------------*/
FoamFile
{
    version     2.0;
    format      ascii;
    class       scalarField;
    location    "1.9/lagrangian/reactingCloud1";
    object      d;
}
// * * * * * * * * * * * * * * * * * * * * * * * * * * * * * * * * * * * * * //


199
(
0.0005437965447
0.0005702955879
0.0005295610199
0.0005519875836
0.0005608404947
0.0005948112704
0.0008069576777
0.0006805142211
0.000889099893
0.000524537891
0.0005951768598
0.0007081704557
0.0006137355308
0.0005694123247
0.0007303856887
0.0007843107182
0.0008159084489
0.0005747154088
0.0006133386239
0.0005151958035
0.0006405148932
0.0008212110198
0.0005226712997
0.0005177523114
0.0005280516515
0.0006515294055
0.0007277511727
0.0005167670981
0.0007373265984
0.000720651323
0.0005228316521
0.0008005106003
0.0005739436017
0.0008484324424
0.0005833750492
0.0006329695004
0.0008894375813
0.0005227763805
0.0006576211948
0.0005010319044
0.0005165049871
0.0006501770777
0.0008846708226
0.0005581765787
0.000511020463
0.0006762826099
0.000590664472
0.001007692552
0.0007302050388
0.0005181090645
0.0006044417529
0.0005481963511
0.001036340679
0.0006816207331
0.0005816881952
0.0006582896884
0.0008727422111
0.0006149553024
0.0008945577944
0.0005730531786
0.0005493819875
0.0008351737177
0.0007231239976
0.0006658060969
0.0005608458866
0.0007950805931
0.0005296663101
0.0008675565155
0.0005904805016
0.0008357749614
0.0007380092045
0.0007198317345
0.0005415312962
0.001147476315
0.0006544988701
0.0006438850473
0.0009325386564
0.0006119931943
0.0007023505893
0.0006201352731
0.0005913843225
0.0005521946869
0.0005910301124
0.0005549332298
0.0005680875785
0.0005305295019
0.0006231593228
0.0006516593492
0.0008404807904
0.0006935796377
0.0006390650976
0.0005657371147
0.001075433201
0.000658261236
0.0007596520716
0.0008454303415
0.0006151157377
0.00059514588
0.0005988836595
0.0007798457812
0.0006963106418
0.00074295505
0.001147821696
0.0009475471297
0.0005813052222
0.0007959481728
0.0007687975909
0.0006795197336
0.0005509889141
0.00072683876
0.0005971850428
0.0005735753434
0.001020174673
0.0007849637921
0.0006251452602
0.000798412272
0.0007679899748
0.0005945304816
0.0006072478891
0.0005152252702
0.000601213215
0.00053200974
0.0007555906739
0.001038935975
0.001026681883
0.0006381193364
0.0007016856016
0.0009068670067
0.0005331210055
0.001060201769
0.0005013681573
0.0006782609458
0.001022269702
0.0008118138873
0.0008392779277
0.0005200560662
0.0006679170894
0.0006088530777
0.0006898733781
0.0007313749466
0.0005258571132
0.0006684691678
0.0005788974486
0.001029972214
0.0006322628451
0.0009520558414
0.0005542147371
0.0006006217517
0.0005918211815
0.00071262422
0.0006278954899
0.0005082605733
0.0006073595426
0.0006788084861
0.000954939454
0.0005451840157
0.0007540963997
0.0006024446413
0.0007471769172
0.000846393237
0.000855646676
0.001059041269
0.0007550400969
0.0005716014878
0.0007212526426
0.0005745818761
0.00070478602
0.0006246258127
0.0005275757055
0.0005646527371
0.0005738276944
0.0005008167691
0.0007541588107
0.0006880455897
0.0009014753975
0.00114821645
0.0007526376209
0.0006313449653
0.0007150886557
0.0006263553798
0.0007015414347
0.0006155749343
0.001128812676
0.0006842959714
0.001078640796
0.0005365519915
0.0006269311173
0.0005597514148
0.0006740681761
0.0009225859207
0.0007209969755
0.0005485075308
0.0006248613444
0.001174543936
0.000571946352
0.0006144773608
0.0009762013359
0.0007009693401
0.0006821783328
)


// ************************************************************************* //
