/*--------------------------------*- C++ -*----------------------------------*\
  =========                 |
  \\      /  F ield         | OpenFOAM: The Open Source CFD Toolbox
   \\    /   O peration     | Website:  https://openfoam.org
    \\  /    A nd           | Version:  8
     \\/     M anipulation  |
\*---------------------------------------------------------------------------*/
FoamFile
{
    version     2.0;
    format      ascii;
    class       scalarField;
    location    "1.9/lagrangian/reactingCloud1";
    object      nParticle;
}
// * * * * * * * * * * * * * * * * * * * * * * * * * * * * * * * * * * * * * //


199
(
100.1904835
101.1302057
104.3812809
104.9344881
100.0726005
100.3670956
100.038448
102.7193973
100.1177494
100.3302596
101.632826
100.0641573
102.7406461
156.7703699
137.5390274
106.1580043
100.1493304
100.0045189
100.3637587
100.5344889
267.8630827
100.0749064
100.6905383
101.0177214
100.0154977
100.0230484
100.0417072
227.0870695
100.0349794
100.0590936
120.4239107
100.0069981
768.6419695
100.0404809
4817.382815
100.1617011
100.0896471
100.6899527
100.2048057
101.0760205
100.0124451
100.1918735
100.0581972
100.5789055
112.8975173
100.0465414
100.2977653
100.0005568
100.0286635
100.1158473
100.854795
102.6494093
1336.60134
110.5842272
112.446545
100.1999825
100.0263069
100.2053622
1331.565968
100.4643188
100.1859726
100.0647854
100.3616664
100.093769
100.278995
100.1504566
6359.273032
104.5228132
100.0644124
412.214977
100.2084535
156.5974045
100.6669282
100.0591406
100.2977142
156.0500475
121.6574114
100.4527521
100.0596995
335.6105532
4628.467819
398.7463785
100.0936706
100.8205116
5187.950652
100.5497443
100.0054048
100.8528878
241.3219804
161.6988077
100.0166413
101.4855576
100.0973012
100.0504609
100.1271448
343.4323992
4073.965837
100.0177483
4436.238447
100.3088208
2850.786822
100.7495198
100.6093823
100.7807467
4809.487796
104.0438549
100.973689
3036.938882
104.2905776
2543.977638
4474.83365
100.1044596
110.2675506
102.2901066
105.1804927
101.0328994
100.212447
105.4178634
104.5249763
100.9552354
101.6452078
101.8113419
100.066211
1152.173121
333.6267675
650.2834359
100.7785983
107.3710249
101.5645611
100.161592
100.0551017
100.3995872
100.2646046
100.9795929
101.1634819
116.1810004
103.3877567
100.7918077
103.2388067
100.6533185
110.506554
102.0522969
102.4899646
226.4474796
100.0862927
112.7084653
101.578691
100.1738466
4597.610189
100.1899079
100.5929385
7258.45844
100.0163817
100.0433483
100.9426533
107.9132281
231.3561153
101.0623675
100.0235714
100.0455508
100.7000433
100.2976157
221.9427752
104.3084927
100.2631023
5023.979881
101.3632226
100.540566
6490.068721
106.0626256
100.5187035
100.8528949
100.1630016
100.4477224
116.5535106
100.3103341
101.061469
100.0262228
100.2384597
3911.306196
100.0481932
100.2970193
100.024096
100.0141934
100.2379635
104.4136059
101.2578251
100.3740389
3111.660371
100.0679637
100.3981006
100.3920365
101.2529536
100.2170405
100.3967298
100.4963105
183.6620359
2836.158239
103.3966458
)


// ************************************************************************* //
