/*--------------------------------*- C++ -*----------------------------------*\
  =========                 |
  \\      /  F ield         | OpenFOAM: The Open Source CFD Toolbox
   \\    /   O peration     | Website:  https://openfoam.org
    \\  /    A nd           | Version:  8
     \\/     M anipulation  |
\*---------------------------------------------------------------------------*/
FoamFile
{
    version     2.0;
    format      ascii;
    class       vectorField;
    location    "1.9/lagrangian/reactingCloud1";
    object      U;
}
// * * * * * * * * * * * * * * * * * * * * * * * * * * * * * * * * * * * * * //


199
(
(-0.05349207752 -0.03231830467 -1.962707562)
(-0.2773944625 0.05911963303 -2.103890808)
(-0.2153164714 0.09487761899 -2.058533046)
(-0.236858903 0.1041765213 -2.091804051)
(-0.262994495 -0.1134414157 -2.071468476)
(-0.1625856132 0.02860663252 -1.973866975)
(-0.3538277505 0.07724652046 -2.186579503)
(-0.1371580499 0.0400021278 -2.114117809)
(-0.0529369869 -0.07432557158 -2.197589569)
(-0.07391207039 -0.1511035411 -1.987348335)
(-0.2664282906 0.1430135002 -2.057715747)
(-0.3359182907 0.05167568987 -2.061081553)
(-0.2715392449 0.1411858539 -2.056993858)
(-0.2351873303 -0.04166444565 -1.976165829)
(-0.1775075727 -0.01429942047 -2.091778451)
(-0.1866012071 -0.01398644743 -2.093086983)
(-0.290163087 0.1419704331 -2.079805854)
(-0.09111720361 -0.2072907638 -1.859725824)
(-0.2583123961 0.1208883905 -1.967284003)
(-0.238055554 0.1070121269 -1.890023807)
(-0.134537969 0.008450782619 -1.986870947)
(0.02547377418 -0.1150493386 -2.034704601)
(-0.2379409208 0.1066913384 -1.883900534)
(-0.2361377411 0.1016512259 -1.865379724)
(-0.2088466086 -0.02889773204 -1.843628902)
(-0.2604887186 0.1038741282 -1.905456881)
(-0.006585836875 -0.06991339636 -1.894165603)
(0.975957804 -0.0192639234 -1.488574536)
(0.05032931999 -0.1816535121 -1.935929348)
(0.05467782057 -0.1411795052 -1.879471877)
(0.9955009865 -0.02040672022 -1.447102666)
(-0.2055082284 0.07495155241 -1.846350663)
(0.978265407 -0.07716456977 -1.582907159)
(0.0159256118 -0.07971925371 -1.865464695)
(-0.981260045 -0.3297264805 -3.069208877)
(0.05146249491 -0.164319072 -1.784885901)
(-0.2530301884 -0.04155690646 -1.771213901)
(-0.6802586821 0.03569245799 -1.64877712)
(-0.05641574814 -0.05293628611 -1.709689529)
(-0.3977348987 -0.3952050479 -2.012625591)
(-0.1616880041 -0.007390457509 -1.575440508)
(-0.2188011655 0.003556625088 -1.621967409)
(0.03079570211 -0.1592251419 -1.774584725)
(-0.3946184859 -0.2079827825 -1.960983271)
(1.094474561 -0.01851192973 -1.365356473)
(0.05277789987 -0.207057372 -1.684451039)
(-0.2153773545 -0.003294373333 -1.578734706)
(0.0368271521 -0.1336888375 -1.710639783)
(-0.3382259544 -0.03090343854 -1.601398251)
(-0.3513641424 -0.003889514184 -1.523310895)
(-1.138817513 -0.5036242089 -1.410817759)
(-1.004868649 -0.4405431551 -1.469314536)
(-0.0001409466593 -0.2872106344 -1.705948948)
(-0.001398233942 -0.1759629327 -1.634218399)
(0.0008963691048 -0.1521220812 -1.608606152)
(-0.3394393984 -0.1793232115 -1.929411248)
(-0.2595107556 -0.02552439405 -1.541729837)
(-1.077990355 -0.4906910481 -1.481989844)
(-0.7899636675 -0.5117647047 -3.170671842)
(-0.1925490727 -0.04671994182 -1.469938954)
(-0.838971891 -0.3961912125 -1.544470469)
(-0.005622356699 -0.1676167932 -1.545354982)
(-0.4103952681 -0.2002702735 -1.771691897)
(-0.4612340673 -0.2224104649 -1.739816912)
(0.04557871714 -0.2017700473 -1.511483813)
(-0.2013696858 -0.07339005793 -1.447670252)
(-0.5779904977 -0.5860278482 -3.131554576)
(-0.5529625639 -0.2686440956 -1.72321789)
(-0.1664007778 -0.08598918521 -1.402438556)
(-0.2657007651 0.1284357209 -1.440130509)
(-0.1638165231 -0.1117948857 -1.366577688)
(-0.002179087654 -0.2455207998 -1.404928288)
(-0.1399892656 -0.1177797392 -1.332814491)
(0.01119417958 -0.2591713213 -1.748532259)
(0.06564387228 -0.2395040447 -1.62308589)
(-0.01519125734 -0.2422140647 -1.299267239)
(-0.0008446225896 -0.2477777178 -1.566541664)
(0.04585027922 -0.247576039 -1.475347955)
(0.1156629001 -0.2497641085 -1.347666675)
(-0.1920073554 0.2117676067 -1.314559532)
(-0.9528257674 -0.2638148178 -2.842900679)
(0.01431385613 0.2640261882 -1.259622143)
(-0.3072690736 -0.2490401821 -1.747054237)
(0.07342134906 0.2111513159 -1.221429055)
(-0.5548296076 -0.6003530109 -3.17272435)
(0.08780057516 0.1895713101 -1.186082106)
(-0.3177218388 -0.2372979348 -1.664568155)
(0.07116144742 0.2174097552 -1.185293191)
(-0.01016906145 -0.1961675797 -1.204704871)
(0.0123979 0.304051479 -1.187840396)
(0.06561256878 -0.2432984293 -1.154945553)
(0.1271119559 0.1908513765 -1.112748566)
(-0.3486772203 -0.1674268863 -1.878195912)
(0.1246625605 0.1978472992 -1.117054855)
(0.04493696519 0.2094839991 -1.118536902)
(0.03611657499 -0.1089515576 -1.104804046)
(-0.2359965453 -0.9131806264 -3.042484087)
(0.1284874739 -0.2126571363 -1.08776266)
(-0.860906445 -0.4465815963 -2.698518001)
(0.003956854113 -0.1077843452 -1.015108875)
(-1.176103975 -0.3792571716 -2.337493271)
(-0.0009303726924 -0.3211428426 -0.937750852)
(0.3575988653 -0.198978698 -0.9494302605)
(0.3698724914 -0.2356221122 -0.9219955099)
(-0.3785495995 -0.6879475115 -2.945193441)
(0.03733432661 -0.2341617421 -1.151683794)
(0.3737949417 -0.2428954135 -0.9077917191)
(-0.5503147304 -0.7237633238 -2.760156049)
(0.3801600865 -0.2321834285 -0.9158935943)
(-0.9123691358 0.02761639944 -2.625316458)
(-1.041191578 0.1465931241 -2.472960557)
(-0.1270521945 -0.250310236 -1.10539086)
(-0.01503256479 -0.549326981 -0.8598500024)
(0.377274987 -0.2439260292 -0.871322494)
(0.3858667402 -0.2315564898 -0.8650839394)
(0.3877062439 -0.2281335264 -0.833542061)
(0.1413678774 -0.02870702654 -0.7832419282)
(0.3959511679 -0.2059506475 -0.831136258)
(0.3962173237 -0.1946274402 -0.8183022096)
(0.1631711567 0.008461479698 -0.7395785108)
(-0.4226684807 -0.5366520543 -2.091841898)
(0.1736305738 0.007148656776 -0.7220801394)
(-0.007978546616 -0.1854890998 -0.7508240528)
(-0.2707169888 -0.1637491352 -0.7285472966)
(0.0009807323525 0.09890803459 -0.7113008748)
(0.01004203434 -0.1328305786 -0.7213521423)
(0.196140887 0.001563492744 -0.6864882847)
(0.02658514528 -0.2084086772 -1.224553686)
(0.1969371656 -0.01800427727 -0.6575970552)
(-1.134670174 -0.07908533854 -0.6897009157)
(0.1845295696 -0.0332835502 -0.6372520076)
(0.003878856804 0.3088506727 -0.5821390664)
(-1.251943473 -0.07659165942 -0.6570322066)
(0.002573267635 0.3008112812 -0.5717285898)
(-1.286003874 -0.07152684521 -0.6413399393)
(-0.3831239965 -0.5536124469 -1.978303563)
(-1.290183223 -0.06304397336 -0.6374140333)
(0.005324648073 0.3107483671 -0.5949255695)
(-1.325558316 -0.05691964325 -0.6274173957)
(-1.37528685 -0.04901645282 -0.6158111108)
(-1.342045324 -0.03676012253 -0.62206527)
(-0.4210384716 -0.6047193909 -2.10852938)
(-0.4137995816 -0.5032874101 -2.089861893)
(-0.1186587214 0.2735199963 -0.5732447255)
(-0.1260338264 0.2852825876 -0.5586130691)
(-1.366081889 -0.03513478984 -0.5632695312)
(-0.1243060551 0.2836180002 -0.5469724893)
(-1.226133834 -0.02480279926 -0.5671121426)
(-1.180836729 -0.4245147794 -1.992266939)
(0.1429052249 -0.05938903789 -0.5102543474)
(-0.3905355449 -0.2473600662 -1.823239697)
(-0.9577086447 -0.6379587252 -2.073159619)
(-0.4174892961 -0.4970093897 -2.118974512)
(0.137906561 -0.1659545859 -0.4835792054)
(-0.4535958827 -0.3935654304 -1.871508925)
(-0.4108693958 -0.3275642159 -1.821847141)
(-0.9903225348 -0.02065040144 -0.4834786761)
(-0.416680696 -0.4466204544 -2.105471055)
(0.121103161 -0.1754086933 -0.4437999056)
(0.08949195028 -0.2008240389 -0.446209157)
(-0.2759384605 -0.1206524991 -1.852593352)
(-0.4605539544 -0.3932396666 -1.840941)
(-0.01384274105 -0.1646024627 -1.349619503)
(-0.3874596518 -0.5911978035 -2.007600477)
(0.1707128447 0.1088423659 -0.3828308466)
(-0.6437977346 -0.8025821555 -2.169614241)
(-0.4087530443 -0.3006919836 -1.802346563)
(-0.00265573213 -0.1732799998 -0.3694994836)
(-0.7660549276 -0.0004428825809 -2.319075904)
(-0.3641672413 -0.584330617 -1.987328728)
(-0.04340831241 -0.1766707453 -0.3231315381)
(-0.05758421738 -0.1728346452 -0.2924554172)
(0.1619438611 0.1405638534 -0.2204029316)
(-0.06630389393 -0.1375752865 -0.2087410335)
(-0.03043874273 -0.1636263305 -1.402492024)
(-0.05244031877 0.1277709208 -0.148670725)
(-0.4317194911 -0.8685177165 -1.754622988)
(-0.2704295283 -0.2562173325 -1.594678238)
(-0.4141147292 -0.8692369586 -1.679766976)
(-0.8484997634 -1.013741788 -1.664957788)
(0.1338030407 -0.1759652124 -0.1137380921)
(-0.3987509725 -0.3213603252 -1.791563013)
(-0.8467819642 -0.03564446023 -0.0996312053)
(0.1595082713 0.09932048041 -0.090233069)
(-0.1261709394 0.31862467 -0.07962951515)
(-0.3631680766 -0.6987227166 -1.571531478)
(-0.39493551 -0.3406190712 -1.788537764)
(0.1731746249 -0.1284468072 -0.05770493369)
(-0.9393380777 0.1514321963 -2.326558203)
(-0.1261493567 0.2970073481 -0.02733695286)
(-0.3916925426 -0.3815738928 -1.760096358)
(-0.3780216798 -0.3398316754 -1.776390633)
(-0.3829704169 -0.3589054122 -1.775197462)
(-0.1549657838 -0.02995785039 -0.01548635244)
(-0.1202296572 0.2875401628 -0.01400268212)
(0.1634027927 0.01938936446 -0.01017922381)
(0.1170530721 -0.07622234195 -0.007302876582)
(-0.1680265385 -1.16085107 -2.125284191)
(-0.3963163496 -0.7399759118 -1.764562082)
)


// ************************************************************************* //
