/*--------------------------------*- C++ -*----------------------------------*\
  =========                 |
  \\      /  F ield         | OpenFOAM: The Open Source CFD Toolbox
   \\    /   O peration     | Website:  https://openfoam.org
    \\  /    A nd           | Version:  8
     \\/     M anipulation  |
\*---------------------------------------------------------------------------*/
FoamFile
{
    version     2.0;
    format      ascii;
    class       scalarField;
    location    "2/lagrangian/reactingCloud1";
    object      age;
}
// * * * * * * * * * * * * * * * * * * * * * * * * * * * * * * * * * * * * * //


90
(
0.250479535
0.248477483
0.2465025313
0.2440725256
0.2395980033
0.1760978044
0.1840818363
0.1720558882
0.1660678643
0.1460578842
0.2447743836
0.1381131706
0.1270475404
0.1360804681
0.1011022692
0.1002755673
0.09780188747
0.1040637625
0.09028743845
0.08878326095
0.08696543654
0.08676883051
0.08624612775
0.08533143675
0.0819569417
0.1269491838
0.08067434798
0.09214420197
0.0789005057
0.07658831475
0.07507947628
0.07475845095
0.07270462595
0.06734472891
0.06466320024
0.06052893466
0.05887805687
0.0584998408
0.1280641204
0.1281042657
0.05776665662
0.05653376551
0.05405874139
0.1744011976
0.1824850299
0.05027820282
0.04936114972
0.1720558882
0.04681091541
0.04508295991
0.04486373165
0.04422982404
0.04405462751
0.04131779797
0.03934735623
0.03902026972
0.03634230076
0.03530752376
0.03521768273
0.03472639862
0.03436085682
0.03318930633
0.07814079424
0.03215640153
0.03117061898
0.02973338595
0.02894454664
0.02847158163
0.04584019567
0.0264321094
0.02466996877
0.02466996877
0.02452312372
0.03608517289
0.0409840163
0.01947531294
0.01917569274
0.0182708873
0.01644610195
0.08473971203
0.01065940987
0.009946272913
0.08009132101
0.005432411999
0.003697058166
0.01112970041
0.08809476659
0.01231285332
0.002197108853
0.01629240006
)


// ************************************************************************* //
