/*--------------------------------*- C++ -*----------------------------------*\
  =========                 |
  \\      /  F ield         | OpenFOAM: The Open Source CFD Toolbox
   \\    /   O peration     | Website:  https://openfoam.org
    \\  /    A nd           | Version:  8
     \\/     M anipulation  |
\*---------------------------------------------------------------------------*/
FoamFile
{
    version     2.0;
    format      ascii;
    class       labelField;
    location    "2/lagrangian/reactingCloud1";
    object      origId;
}
// * * * * * * * * * * * * * * * * * * * * * * * * * * * * * * * * * * * * * //


90
(
1322
1323
1324
1326
1327
999
995
1001
1004
1014
566
1018
597
1019
1329
1330
1331
1035
1339
1340
1343
1345
1347
1348
1352
598
1353
1045
1354
1355
1356
1357
1358
1359
1360
1361
1362
1363
1023
1328
1364
1365
1367
577
573
1368
1369
579
1370
1371
1372
1373
1374
1377
1378
1379
1381
1382
1383
1384
1385
1386
1053
1387
1388
1389
1390
1391
611
1392
1393
1394
1395
1074
614
1396
1397
1398
1399
1350
1400
1401
1052
1402
1403
1088
1048
1086
1404
1084
)


// ************************************************************************* //
