/*--------------------------------*- C++ -*----------------------------------*\
  =========                 |
  \\      /  F ield         | OpenFOAM: The Open Source CFD Toolbox
   \\    /   O peration     | Website:  https://openfoam.org
    \\  /    A nd           | Version:  8
     \\/     M anipulation  |
\*---------------------------------------------------------------------------*/
FoamFile
{
    version     2.0;
    format      ascii;
    class       Cloud<basicReactingMultiphaseParcel>;
    location    "2/lagrangian/reactingCloud1";
    object      positions;
}
// * * * * * * * * * * * * * * * * * * * * * * * * * * * * * * * * * * * * * //

90
(
(0.501476823 0.149869883 0.2086581754 0.1399951186) 1025 602 1
(0.5488902811 0.1084280988 0.2160320899 0.1266495301) 257 762 2
(0.5566346329 0.08430850469 0.1567081105 0.2023487519) 2629 7703 1
(0.06699130157 0.4856150461 0.2441696054 0.203224047) 2496 7307 2
(0.3438799353 0.430964451 0.1487184562 0.07643715755) 2496 7312 1
(0.202493588 0.004554462528 0.3193480015 0.473603948) 12635 37022 2
(0.08886931459 0.2084863742 0.5201968511 0.18244746) 5447 15968 1
(0.01807604133 0.09904743408 0.1431577966 0.739718728) 10736 31370 2
(0.1992072861 0.7701915029 0.02524317144 0.005358039617) 14364 42079 2
(0.09069318359 0.2542205095 0.1046224869 0.55046382) 16166 47254 1
(0.06101243205 0.0006589550942 0.6189133813 0.3194152316) 2599 7614 2
(0.2320913635 0.2671763882 0.3797130752 0.1210191731) 22533 64943 2
(0.3174967057 0.03084849246 0.1692665361 0.4823882658) 18705 54771 1
(0.01626326048 0.4650560627 0.1770232385 0.3416574383) 20784 58749 1
(0.3132646596 0.4854576382 0.1043975711 0.09688013115) 54192 165311 2
(0.7101193046 0.150024054 0.03179408447 0.1080625569) 54290 165822 1
(0.03779528566 0.1233782628 0.7363288094 0.1024976422) 53784 164535 2
(0.1910301825 0.3556251104 0.2230778023 0.2302669048) 62541 185907 2
(0.4911067779 0.1029509604 0.2887916182 0.1171506435) 55374 66867 1
(0.6018499556 0.1987643405 0.09813010934 0.1012555946) 55795 166383 1
(0.1416092302 0.3579005211 0.0592085519 0.4412816968) 55375 168532 2
(0.413277196 0.1753365449 0.3494923676 0.06189389153) 55592 169083 1
(0.1497365821 0.01823060138 0.2797877911 0.5522450255) 55379 168526 2
(0.2738715867 0.01150588257 0.2436306329 0.4709918978) 55583 169061 1
(0.4817983354 0.2985373092 0.1652864746 0.05437788084) 55392 168575 1
(0.2355190125 0.0353416647 0.6051409833 0.1239983395) 18698 54747 1
(0.009676917522 0.06767296554 0.3213602966 0.6012898203) 55162 167991 2
(0.02341153797 0.624898787 0.06741873078 0.2842709442) 31056 98101 2
(0.05029423141 0.8443845667 0.06196882274 0.0433523792) 56670 70304 2
(0.5234096513 0.09300236601 0.2212895465 0.1622984362) 23171 70300 2
(0.01753828727 0.007203289144 0.2275563972 0.7477020263) 23171 70301 1
(0.1761519596 0.6652512764 0.1085665794 0.05003018453) 23231 70568 1
(0.02732676956 0.1145294924 0.5950608917 0.2630828463) 56966 172267 2
(0.07379009961 0.289221225 0.483788266 0.1532004094) 56556 171483 2
(0.2159345188 0.6453580772 0.01503798179 0.1236694222) 24141 73860 2
(0.35213698 0.3098263359 0.01990113199 0.318135552) 58140 175079 2
(0.3245917239 0.1013673821 0.484896519 0.08914437506) 57832 174609 2
(0.2861479098 0.03328769099 0.2273407325 0.4532236667) 24079 73583 2
(0.2314541044 0.2432738083 0.3550229387 0.1702491486) 22183 66643 1
(0.3190968008 0.04810267115 0.3522863021 0.2805142259) 18758 52275 2
(0.04632905565 0.0956407534 0.2808176486 0.5772125424) 24017 73304 2
(0.1576944716 0.02149215658 0.3437695673 0.4770438045) 57837 174616 1
(0.1418922539 0.2188805886 0.2072567349 0.4319704226) 57941 174855 2
(0.20069195 0.04289559132 0.1681058622 0.5883065964) 12423 36305 2
(0.2934464109 0.3890812805 0.2084264786 0.1090458301) 12333 33468 1
(0.4436739956 0.1893252646 0.01751105873 0.349489681) 57697 174305 2
(0.5912347125 0.1445323977 0.1955636385 0.06866925128) 58409 175944 1
(0.4004160111 0.01662560981 0.2450699305 0.3378884486) 12423 36305 1
(0.4568829267 0.4030509916 0.03499174795 0.1050743337) 57800 174320 1
(0.06104290702 0.07764904461 0.8194629768 0.04184507152) 57803 174546 1
(0.3443824538 0.4035681835 0.1745784255 0.07747093717) 58905 174397 2
(0.2136626645 0.007935740473 0.771186659 0.00721493603) 59232 175964 2
(0.1177845919 0.1676231041 0.1476394111 0.5669528929) 51682 159169 1
(0.2840571968 0.09282337631 0.3424132984 0.2807061284) 51689 159185 1
(0.1484425012 0.3765401698 0.3156328276 0.1593845014) 24958 76731 1
(0.09252611136 0.4194780628 0.3059071457 0.1820886802) 51824 159530 2
(0.02496688331 0.4938560583 0.02594595774 0.4552311007) 51564 158864 1
(0.2449922819 0.03287922718 0.6512874527 0.07084103825) 51766 159228 2
(0.2336135128 0.2615659898 0.4355461878 0.06927430964) 59237 177970 1
(0.1683850065 0.6632081049 0.07653798927 0.09186889931) 51766 159384 1
(0.1850425088 0.4185152623 0.2179647108 0.1784775181) 51768 159389 1
(0.1548727209 0.2555441299 0.03069166833 0.5588914808) 51880 159674 1
(0.1459773538 0.5030351619 0.252488828 0.09849865632) 64647 191315 1
(0.0776491329 0.04388748002 0.7586716265 0.1197917606) 51833 159399 1
(0.2355131312 0.6183762716 0.04960074193 0.09650985529) 51770 159384 1
(0.4048851569 0.247438385 0.2458015726 0.1018748854) 51770 159384 2
(0.1517678241 0.1764788708 0.2444151814 0.4273381237) 59119 159705 2
(0.4861172285 0.1182982477 0.02204860559 0.3735359183) 51709 159227 2
(0.03702446435 0.3171189501 0.06004812582 0.5858084597) 51907 159744 1
(0.5037571824 0.01227533038 0.4580294206 0.02593806668) 51707 159234 2
(0.2629370677 0.2881676327 0.1224718448 0.3264234548) 51889 159701 2
(0.5125760263 0.03572025777 0.3165423932 0.1351613227) 51643 76590 2
(0.4702640049 0.1505095415 0.08842636915 0.2908000844) 51707 159075 1
(0.069351791 0.06193873484 0.65854779 0.2101616841) 38983 122899 2
(0.6766398649 0.05483699722 0.071051117 0.1974720208) 51901 159729 2
(0.5104670746 0.01874712062 0.2023504017 0.2684354031) 51583 158911 2
(0.5160724477 0.01150220675 0.2041175174 0.2683078281) 51644 159072 2
(0.5719075385 0.2264766901 0.007945119002 0.1936706524) 51562 158859 1
(0.08299375386 0.421634048 0.2407873689 0.2545848293) 59075 177477 1
(0.3893499415 0.1184638908 0.4102130877 0.08197308001) 55076 66540 1
(0.3840830547 0.1290315995 0.01003410283 0.476851243) 51835 158567 2
(0.2234949034 0.2306581544 0.2486990702 0.297147872) 51835 158567 2
(0.3785004315 0.4289909341 0.0293867317 0.1631219026) 32419 102627 2
(0.2387903202 0.3538197389 0.1927572999 0.214632641) 51590 203297 1
(0.2059943576 0.356550819 0.4054699816 0.03198484186) 51590 203297 2
(0.0598483715 0.360554734 0.3973702689 0.1822266256) 51490 208355 1
(0.3323254956 0.525408365 0.1239995439 0.01826659549) 62643 186336 1
(0.0868967452 0.07350967699 0.2731923524 0.5664012254) 51490 158675 1
(0.3914319861 0.3224152587 0.1087519796 0.1774007757) 51490 203286 1
(0.191763389 0.4170150985 0.3489953441 0.0422261684) 41327 129759 1
)


// ************************************************************************* //
