/*--------------------------------*- C++ -*----------------------------------*\
  =========                 |
  \\      /  F ield         | OpenFOAM: The Open Source CFD Toolbox
   \\    /   O peration     | Website:  https://openfoam.org
    \\  /    A nd           | Version:  8
     \\/     M anipulation  |
\*---------------------------------------------------------------------------*/
FoamFile
{
    version     2.0;
    format      ascii;
    class       scalarField;
    location    "2/lagrangian/reactingCloud1";
    object      rho;
}
// * * * * * * * * * * * * * * * * * * * * * * * * * * * * * * * * * * * * * //


90
(
994.5114685
994.5114686
994.5114689
994.5114689
994.5114689
1000
1000
1000
1000
1000
994.5114691
1000
994.5114764
1000
994.5114864
994.511478
994.5114731
1000
994.5114685
994.5114688
994.5114685
994.5114685
994.5114685
994.5114685
994.5114685
994.5114736
994.5114691
1000
994.5114685
994.5114685
994.5114685
994.5114685
994.5114685
994.5114686
994.5114686
994.5114686
994.5114686
994.5114686
1000
994.5114687
994.5114687
994.5114687
994.51147
994.5114688
994.5114688
994.5114705
994.5114686
994.5114688
994.5114703
994.5114701
994.5114708
994.5114687
994.5114697
994.5114695
994.5114708
994.5114688
994.5114708
994.5114703
994.5114687
994.5114708
994.511469
994.5114689
1000
994.5114697
994.5114706
994.5114704
994.5114687
994.5114701
994.5114686
994.5114705
994.5114687
994.5114693
994.5114703
1000
994.5114686
994.5114695
994.5114693
994.5114707
994.5114685
994.5114685
994.5114686
994.5114686
1000
994.5114702
994.5114699
994.5114686
1000
994.5114686
994.5114685
1000
)


// ************************************************************************* //
