/*--------------------------------*- C++ -*----------------------------------*\
  =========                 |
  \\      /  F ield         | OpenFOAM: The Open Source CFD Toolbox
   \\    /   O peration     | Website:  https://openfoam.org
    \\  /    A nd           | Version:  8
     \\/     M anipulation  |
\*---------------------------------------------------------------------------*/
FoamFile
{
    version     2.0;
    format      ascii;
    class       scalarField;
    location    "1.8/lagrangian/reactingCloud1";
    object      d;
}
// * * * * * * * * * * * * * * * * * * * * * * * * * * * * * * * * * * * * * //


64
(
0.0009729157252
0.0005166676594
0.0005107811307
0.0005756580314
0.0005340027821
0.0005868592809
0.0005466646223
0.0005392031251
0.0005761503261
0.0007413208878
0.0005853897674
0.0006165039966
0.0006356319491
0.000706412993
0.0007230150462
0.0005598175951
0.0006707810256
0.0007039664188
0.0008583642832
0.00101844561
0.0009240274182
0.0005145075061
0.0005569622393
0.0005728271538
0.0005915138011
0.001002402989
0.0005914941688
0.0007501986151
0.0005239631796
0.0007845626464
0.000741955914
0.0008023134376
0.0009697792972
0.0007368030903
0.0005426593129
0.0008050921292
0.0006397220411
0.0005220555772
0.0007259969264
0.0009415284998
0.0005546778591
0.0005200112427
0.0009803363828
0.0007465657539
0.0005354309646
0.0005106605981
0.000842555905
0.0006286463945
0.0007488120711
0.0006268843828
0.0005939307351
0.0007557987934
0.0005125151444
0.0005092504486
0.0005087267983
0.0006414439921
0.001158983206
0.0009235295513
0.0005006475466
0.0005134029587
0.0006553966735
0.0006874760828
0.0006622022498
0.0009561788042
)


// ************************************************************************* //
