/*--------------------------------*- C++ -*----------------------------------*\
  =========                 |
  \\      /  F ield         | OpenFOAM: The Open Source CFD Toolbox
   \\    /   O peration     | Website:  https://openfoam.org
    \\  /    A nd           | Version:  8
     \\/     M anipulation  |
\*---------------------------------------------------------------------------*/
FoamFile
{
    version     2.0;
    format      ascii;
    class       scalarField;
    location    "1.8/lagrangian/reactingCloud1";
    object      mass0;
}
// * * * * * * * * * * * * * * * * * * * * * * * * * * * * * * * * * * * * * //


64
(
4.795502116e-07
7.181947927e-08
6.939256704e-08
9.93349603e-08
7.929375365e-08
1.052471512e-07
8.506899962e-08
8.163297423e-08
9.959002793e-08
2.121422299e-07
1.044585031e-07
1.226891934e-07
1.337289925e-07
1.845757569e-07
1.968114784e-07
9.135830868e-08
1.571631503e-07
1.816620646e-07
3.293239628e-07
5.500750402e-07
4.13098099e-07
7.092242279e-08
9.04640191e-08
9.841683907e-08
1.083660562e-07
5.244879054e-07
1.077605555e-07
2.198554288e-07
7.490498583e-08
2.514729641e-07
2.126878699e-07
2.704150262e-07
4.775483492e-07
2.094367734e-07
8.321281251e-08
2.732343932e-07
1.370795168e-07
7.40898368e-08
1.992566229e-07
4.346191226e-07
8.886503394e-08
7.32228484e-08
4.906070463e-07
2.178726999e-07
7.993166658e-08
6.934345348e-08
3.131805643e-07
1.293682507e-07
2.198452733e-07
1.289914647e-07
1.09097756e-07
2.248158883e-07
7.010169629e-08
6.877057867e-08
6.855865123e-08
1.3743098e-07
8.106620585e-07
4.101670869e-07
6.570446737e-08
7.085552556e-08
1.465956611e-07
1.691925357e-07
1.512099514e-07
4.552246338e-07
)


// ************************************************************************* //
