/*--------------------------------*- C++ -*----------------------------------*\
  =========                 |
  \\      /  F ield         | OpenFOAM: The Open Source CFD Toolbox
   \\    /   O peration     | Website:  https://openfoam.org
    \\  /    A nd           | Version:  8
     \\/     M anipulation  |
\*---------------------------------------------------------------------------*/
FoamFile
{
    version     2.0;
    format      ascii;
    class       scalarField;
    location    "1.8/lagrangian/reactingCloud1";
    object      nParticle;
}
// * * * * * * * * * * * * * * * * * * * * * * * * * * * * * * * * * * * * * //


64
(
101.8809335
111.399724
118.2671577
105.8182444
104.9961025
107.197221
107.740387
473.1992526
101.1176319
101.4702165
103.1377129
4098.565026
161.9292301
2729.125185
106.3346661
101.9222621
100.2580163
173.5241991
100.2425745
100.1179868
1185.53073
101.8528399
5431.934276
5260.110426
4552.762052
153.0855934
100.4205439
100.5921457
106.3615596
100.0626932
101.4895466
1852.269381
1050.42352
2395.128659
100.434052
1820.439297
3671.403288
102.0004464
1766.595796
100.21181
101.0398554
100.2083429
148.9049171
2310.834024
273.3611636
100.7230781
1607.12975
104.4625458
2254.840174
3794.614097
221.2883277
143.8217845
173.6155916
291.7263649
100.1296606
100.3765368
100.49723
100.5209935
7534.046945
7009.045206
102.3221758
102.9048875
102.5795786
100.3452343
)


// ************************************************************************* //
