/*--------------------------------*- C++ -*----------------------------------*\
  =========                 |
  \\      /  F ield         | OpenFOAM: The Open Source CFD Toolbox
   \\    /   O peration     | Website:  https://openfoam.org
    \\  /    A nd           | Version:  8
     \\/     M anipulation  |
\*---------------------------------------------------------------------------*/
FoamFile
{
    version     2.0;
    format      ascii;
    class       labelField;
    location    "1.8/lagrangian/reactingCloud1";
    object      origId;
}
// * * * * * * * * * * * * * * * * * * * * * * * * * * * * * * * * * * * * * //


64
(
1179
1180
1181
1183
1184
1186
1187
1189
1190
1191
1196
859
1206
867
1212
1213
1214
1217
1221
1222
877
1224
880
887
886
1239
1240
1243
1245
1250
1256
897
900
899
1272
908
909
1280
1281
1283
1285
1287
1289
922
1317
1319
932
525
935
906
1322
1323
1324
1325
1326
1327
523
526
890
964
1205
1208
1209
1215
)


// ************************************************************************* //
