/*--------------------------------*- C++ -*----------------------------------*\
  =========                 |
  \\      /  F ield         | OpenFOAM: The Open Source CFD Toolbox
   \\    /   O peration     | Website:  https://openfoam.org
    \\  /    A nd           | Version:  8
     \\/     M anipulation  |
\*---------------------------------------------------------------------------*/
FoamFile
{
    version     2.0;
    format      ascii;
    class       volScalarField;
    location    "0.9";
    object      k;
}
// * * * * * * * * * * * * * * * * * * * * * * * * * * * * * * * * * * * * * //

dimensions      [0 2 -2 0 0 0 0];

internalField   nonuniform List<scalar> 
67193
(
0.01295179866
0.01348099956
0.01673438609
0.0235848432
0.03244723212
0.03845351746
0.02268926496
0.01780496943
0.01506560205
0.01488711174
0.01551529994
0.01618358841
0.01682508619
0.01734872605
0.01770673621
0.01787340917
0.01784612482
0.01763788822
0.01727098228
0.01678106211
0.01619022183
0.01557591595
0.01487339523
0.01467765471
0.01435749551
0.01384397591
0.01312457947
0.01216613981
0.01099060406
0.009575181242
0.007849203964
0.005930645274
0.004344286338
0.003522266563
0.01804894115
0.0216101947
0.03068082751
0.04426731024
0.05820032047
0.0666725994
0.04711553638
0.0346302996
0.02552170329
0.02198476838
0.02154467525
0.02205911762
0.02269245933
0.02314183722
0.02331479236
0.02319282109
0.02279474638
0.02215900992
0.02133825599
0.0204068712
0.01941675085
0.01848857881
0.01769076148
0.01724935759
0.01723983438
0.01696033747
0.01603513701
0.0145149107
0.01266843624
0.01069610789
0.008527004079
0.006317625957
0.004517757604
0.003831304312
0.02358376103
0.03116537591
0.04597857417
0.06428438932
0.08141093145
0.0919454241
0.07409379083
0.05616744413
0.03998817596
0.03045274652
0.02703982419
0.02662711418
0.02711930768
0.02761865868
0.02779053205
0.02755626513
0.02693328967
0.02597243902
0.02477072868
0.02345381942
0.02211291022
0.02107642607
0.02053372863
0.02093024404
0.02183915337
0.02191965689
0.02065270917
0.01828851616
0.01538161088
0.01240501195
0.009517437998
0.006802408411
0.0046810935
0.003895676694
0.02876942594
0.03946295159
0.05831673244
0.08076296777
0.103009497
0.1157959188
0.09958524844
0.07672225991
0.05536791137
0.04041205243
0.0329935
0.03066451529
0.0305830147
0.03110154533
0.03136617116
0.0310740022
0.03021921695
0.02886491341
0.02726385363
0.02557169551
0.02394409662
0.02326735702
0.02391700687
0.02623547473
0.02827369515
0.02842493988
0.02656127665
0.02319696083
0.01897221231
0.01459884274
0.01059405688
0.007190817811
0.004753790117
0.003873656323
0.03242872275
0.04360730629
0.06441920778
0.09112689323
0.1173479174
0.1313732519
0.1170044257
0.09177133468
0.06736097578
0.04952290436
0.03935410854
0.03487187197
0.03368128818
0.03383630785
0.03393172862
0.03350749552
0.03248526574
0.03087671912
0.02895009302
0.02695546384
0.02524145425
0.0259474741
0.02917883532
0.03373218554
0.03624830707
0.03568838332
0.03281738738
0.02849395569
0.02312914125
0.0173105
0.01190807569
0.007587171752
0.004804544201
0.003855242229
0.03437610366
0.04235069058
0.06134725663
0.08965479314
0.1177784122
0.1328207667
0.1199371988
0.09592882478
0.07295080844
0.05594910084
0.04529800223
0.03937204632
0.03675103797
0.03596616306
0.0355940621
0.03492748367
0.03380203876
0.03213076327
0.03020592069
0.02808006367
0.0267066406
0.03024029744
0.03689068266
0.04302666445
0.04495316609
0.04291245094
0.03850577101
0.03309995226
0.02696627435
0.02006177898
0.01333016691
0.007993333839
0.004847300637
0.003914579636
0.03648343926
0.03896338187
0.05055246965
0.07478917468
0.1030742936
0.1192767772
0.1087176993
0.08946214864
0.07267986403
0.06045860189
0.05134854767
0.04442644337
0.03998233599
0.03772378873
0.03653741331
0.03556228461
0.0346772948
0.03354496995
0.03204632624
0.0299599806
0.02949856574
0.03689109308
0.04648702433
0.05277484465
0.05335357508
0.04938659911
0.04315337432
0.03643189524
0.02962274047
0.02197521081
0.01434087229
0.008271529452
0.00491347252
0.004188175894
0.04030181798
0.0394338884
0.04156076402
0.05316215346
0.07489478409
0.09150089023
0.08954165069
0.08078542465
0.07228748196
0.06529652273
0.05784932078
0.05010292213
0.04360337455
0.03937860026
0.03700537325
0.03584828566
0.0361221606
0.03652065887
0.03582527127
0.03379221731
0.03460064648
0.04565440079
0.05653413849
0.06156770387
0.06029469439
0.05436629854
0.0463565532
0.03830804461
0.03048757382
0.02210384802
0.01415614128
0.008147892758
0.005049773775
0.005015997212
0.04549147874
0.0442524987
0.04161045161
0.04329397971
0.0525086088
0.06650097397
0.07537929942
0.07661214341
0.07382775971
0.07131995092
0.06531793545
0.05694608354
0.04834605525
0.0416261726
0.03767099086
0.0367815943
0.03965159085
0.04242052058
0.04250021685
0.04029777629
0.04207290858
0.0549208953
0.06504568975
0.06798176114
0.06453401208
0.05690355937
0.04768546722
0.03850273141
0.02910027906
0.0199466308
0.01258055666
0.007790320384
0.005554442169
0.006399702119
0.05191335038
0.05036629279
0.0465571469
0.04257794346
0.04527622386
0.05606187289
0.06793395837
0.07427057581
0.07737344939
0.07952436384
0.07465450758
0.06580462992
0.05524248626
0.04562222813
0.03978190638
0.03991412988
0.04644082022
0.05140511187
0.05214979793
0.04961755961
0.05144292027
0.06201055484
0.06991753275
0.07072055698
0.06528844537
0.05642991346
0.04672873051
0.03638481909
0.02579614729
0.01714601258
0.01164514432
0.008502818185
0.006972670135
0.008077397763
0.05736599988
0.05596703849
0.05192696152
0.04569221752
0.04234768827
0.04924330558
0.06289883793
0.07501602336
0.08491495623
0.09017168145
0.08559648445
0.07633728071
0.06430679577
0.05194527837
0.04373938569
0.04615686422
0.05600755393
0.06187710701
0.06272569308
0.06046842035
0.06038615513
0.06534988808
0.06962870826
0.06864326269
0.06229324759
0.05309012419
0.04256972857
0.03118667557
0.02170293656
0.01583134269
0.01270168971
0.01070037126
0.009298813434
0.009764087092
0.06254290479
0.0609817192
0.05678184488
0.04976807371
0.042312589
0.04768060064
0.06352815163
0.08255398496
0.09737903918
0.1014275878
0.09644032089
0.08688481971
0.07401221416
0.05980453529
0.04937157421
0.05471971983
0.06606925362
0.07146901627
0.0717779063
0.06907557579
0.0660149727
0.06438093094
0.06282705579
0.05837147837
0.050147483
0.03928087359
0.0270916117
0.01862094433
0.01511238848
0.01415894344
0.01371699774
0.01289252425
0.01168166862
0.0113351826
0.06862332526
0.06537384342
0.06098857955
0.0537703285
0.04409550667
0.05126862394
0.07251129523
0.09539849288
0.1206470769
0.1119978021
0.10533783
0.09555967393
0.08235799821
0.06751637922
0.05609866238
0.06310305793
0.07357008067
0.07769898423
0.07708856963
0.07324576102
0.06731700275
0.05996966994
0.05146055388
0.04285095512
0.03349625314
0.02347313485
0.01650239796
0.01461579659
0.01472384159
0.01510147439
0.01523240108
0.01471543545
0.01351145583
0.01254563582
0.0773036128
0.06925959027
0.06437057566
0.05758866025
0.04715290187
0.0572350502
0.08354910092
0.1162402595
0.1957003552
0.1295721837
0.1119581467
0.1007429349
0.08734114739
0.07239818278
0.06191507397
0.0680716389
0.07578661306
0.07855382572
0.07713895489
0.0725587055
0.06538495211
0.05638914345
0.04664515928
0.0364152303
0.02516799789
0.01625109288
0.01461411595
0.015065345
0.01549364828
0.01587332988
0.01603212734
0.01562618755
0.01442441872
0.01316911937
0.07130986293
0.0701911722
0.06607243697
0.05943412864
0.04871916105
0.05612090794
0.08923532713
0.1551184379
0.298012016
0.1658922882
0.1167957171
0.0991471084
0.08396806195
0.06846664586
0.05862474406
0.06381984052
0.06949098702
0.07160162018
0.06948242894
0.06466081922
0.05717127829
0.04767477492
0.03703739801
0.02538566205
0.01493799893
0.01241231185
0.01635383953
0.0165327844
0.01639967992
0.01632176051
0.01617472572
0.01559427168
0.01435099943
0.01313090406
0.06899192584
0.06816361722
0.06454521826
0.05846721981
0.04818745802
0.04821654504
0.07152293422
0.1033586417
0.1455019595
0.1128765625
0.09914848348
0.08607084356
0.0710003755
0.05581935622
0.0471348067
0.05126961822
0.05407210051
0.05585838446
0.05315066639
0.04907079432
0.04363286677
0.03612921886
0.02648697501
0.01661555722
0.01087070501
0.01223753114
0.02022292676
0.01926884838
0.01730878452
0.01620462924
0.0154275374
0.01438163942
0.01323145445
0.01252903404
0.06583557555
0.06472145121
0.06115919739
0.0552291779
0.04587879455
0.04098510307
0.05614577717
0.07828686699
0.09451151462
0.09067555286
0.08152175037
0.06835018116
0.0535214932
0.04129881337
0.03466899211
0.03648353082
0.04870206439
0.05023312367
0.04802369375
0.04110028582
0.03271994049
0.02487698613
0.01766825679
0.01191202724
0.009940158032
0.01185340076
0.02809308438
0.026921511
0.02109841861
0.01629341413
0.01347648279
0.01200470604
0.01179513346
0.01208140055
0.06094933242
0.05965499426
0.05601669391
0.05016638029
0.04174144101
0.03520764777
0.04247760062
0.05793497302
0.06906768747
0.06977224527
0.06086454575
0.04793249579
0.03559409659
0.02721821165
0.02325443638
0.03181959134
0.1042036459
0.1046014806
0.08532068139
0.06469680724
0.04471337666
0.02799792556
0.01692037558
0.01172399899
0.01401685987
0.02327721849
0.04373290592
0.04094912679
0.03167106224
0.02165609412
0.01457101581
0.01190365741
0.01190626875
0.01212521001
0.05435330057
0.05289263068
0.04930678809
0.04361198989
0.03638518681
0.03018103849
0.03163173526
0.04161007127
0.04906462496
0.04918069448
0.0403278864
0.02969272423
0.02256281775
0.01966814687
0.02734822841
0.08121320901
0.2478412522
0.2258573967
0.1619072384
0.112037977
0.07502309788
0.0467719462
0.02591562571
0.01522482162
0.02544607271
0.04371738766
0.06484506242
0.05887903465
0.04522564441
0.03210564074
0.02016156062
0.01349557633
0.01223383565
0.01201616608
0.04634142437
0.04473982326
0.04135774496
0.03605025083
0.03023699891
0.02479851279
0.02327364215
0.02826123584
0.03211558975
0.03095178727
0.02466013764
0.02099590689
0.02245869174
0.03761075398
0.09624191725
0.2033943238
0.336419503
0.3684205295
0.2643187594
0.1783481981
0.1178135486
0.07615959345
0.04452348977
0.02359337679
0.03016164295
0.05880724116
0.06884547568
0.06153510116
0.04799706803
0.03384111733
0.02018709757
0.01334547349
0.01213904053
0.01168623007
0.03770369645
0.03597953529
0.03289695597
0.02823243388
0.02340625386
0.0188532055
0.01699311886
0.01894203004
0.02078727264
0.02086608058
0.02036404897
0.02236531392
0.02435184425
0.02564633834
0.03278251495
0.06913187581
0.210038769
0.2018913447
0.1500398061
0.09833579349
0.05751080094
0.03101589895
0.01888905591
0.01608795337
0.01632231671
0.01841619924
0.04119110607
0.03930535001
0.02807686948
0.01732994278
0.01187396182
0.01108585631
0.01132946624
0.01110828414
0.02942581227
0.02767490662
0.02496291702
0.02062298148
0.01661826913
0.01359416592
0.01310160525
0.01467333428
0.01662287971
0.018915696
0.02250693669
0.02707132028
0.02629115305
0.02591548848
0.0242108645
0.02888562765
0.09492052595
0.09405582531
0.07661697118
0.05151935104
0.02941997954
0.01875976824
0.01745050055
0.01793911031
0.0174807806
0.01648318521
0.02595349466
0.0228464334
0.01613672678
0.01176602397
0.009866297713
0.009629876252
0.01027786574
0.01179712357
0.02155295414
0.02016777446
0.01808529155
0.01409651455
0.01125700702
0.01012658635
0.01111638101
0.01308300578
0.01554044398
0.01874015307
0.02284864393
0.02634635586
0.0266567228
0.02598593668
0.02323252438
0.02100773062
0.03577941345
0.03575545499
0.03368056006
0.02350060921
0.01774419008
0.01841897671
0.01990945
0.02007858544
0.01906668903
0.01736453216
0.01696179633
0.01474233889
0.01213809295
0.01005321483
0.008929298188
0.009654625415
0.01192265839
0.01367596048
0.0149018849
0.01403342152
0.01270442335
0.0096263139
0.008099844476
0.008213760136
0.009756260949
0.01174216127
0.01411378511
0.01703647002
0.02036043341
0.02289621946
0.02362862655
0.02270583789
0.01976116248
0.01739039394
0.01738529728
0.01588500912
0.01615349576
0.01524630966
0.01744929155
0.01986493129
0.02093998649
0.02063472087
0.01933524594
0.01744171928
0.01543517162
0.01336145859
0.01105093197
0.009330970538
0.009809065931
0.0119573851
0.01378535629
0.01452749338
0.009964084509
0.01024690631
0.009780842758
0.009009589585
0.007168352232
0.006566407965
0.00709390442
0.008487869401
0.01016041244
0.01213371887
0.01439097029
0.01659289367
0.01808346956
0.01850219944
0.01798046668
0.01680045546
0.01478377918
0.0126717908
0.01106088659
0.01162068396
0.01364272805
0.01600383196
0.01827314907
0.01966865296
0.01959645908
0.01844477913
0.01660837231
0.01441254359
0.01193949561
0.009509870649
0.009808982521
0.01227739902
0.01411903336
0.0151783196
0.01543555799
0.00898880881
0.007994767054
0.007392724471
0.006806632563
0.005925865366
0.005847430731
0.00650385236
0.007665267406
0.009056265791
0.01068688901
0.01257937992
0.0148595252
0.01824043253
0.01904302747
0.01840212155
0.02368321926
0.02089816954
0.01624842162
0.01341928237
0.01273839097
0.01399579568
0.01525367016
0.01585200641
0.01607417974
0.01611465158
0.01565694143
0.01458958258
0.01298086961
0.01096955506
0.009298319234
0.01115935052
0.01344914511
0.01538440081
0.0164595313
0.01661166395
0.008314295473
0.006766313443
0.00603539166
0.005523308792
0.005243580397
0.005591103998
0.00641163954
0.00747898449
0.008676538568
0.01005176894
0.01178390875
0.01410765414
0.01739563487
0.02163776334
0.02625265236
0.02879497295
0.02514692244
0.01962851506
0.0164912452
0.01545213982
0.01604696784
0.01669564553
0.01688855236
0.01670704353
0.01630243685
0.01571242969
0.01490656803
0.01378571869
0.01226598569
0.01075014344
0.01120897846
0.01330207902
0.01593103629
0.01729782827
0.01772363929
0.006968549668
0.005543326967
0.004935314742
0.004472938101
0.004792050722
0.005476024646
0.006230292465
0.007070018518
0.007957381771
0.00885721115
0.009868129301
0.01131511391
0.01350649886
0.016257168
0.01931502403
0.02071248217
0.01677835861
0.01439684864
0.01646732905
0.01789002169
0.01859004129
0.01881375444
0.01864912106
0.01820725295
0.01763614993
0.01701681524
0.01635728358
0.01559042794
0.01463463175
0.01352982794
0.01256362279
0.01322863284
0.01657942838
0.01856928231
0.01954656776
0.004621358213
0.003991663892
0.004390248763
0.004945479347
0.005564168483
0.00614053039
0.00677873252
0.007508041562
0.008282107361
0.009051716396
0.009884651241
0.01085422156
0.0121403338
0.01357547143
0.0145665501
0.01469693857
0.01611508152
0.01828667402
0.02009860291
0.02065166962
0.02065714283
0.02025926006
0.01957683119
0.01878136067
0.01802362952
0.01735624694
0.01667625698
0.01589549699
0.01514835405
0.01465053709
0.01501977658
0.01739850812
0.01981036232
0.02091783806
0.004990883089
0.004159024575
0.004947265104
0.005172937342
0.005663652197
0.006160181457
0.006692897888
0.007360546359
0.008068497007
0.008722960277
0.009517509356
0.01034991642
0.02016081164
0.01946265081
0.01877123421
0.01804238535
0.01722407058
0.01662336087
0.0165536988
0.01709661679
0.01866159325
0.02041653339
0.02126833255
0.005734256138
0.005439121548
0.005748461845
0.006299915065
0.006929455779
0.007810972581
0.01308454323
0.01251321106
0.01316398526
0.01555801098
0.019456333
0.02200521068
0.01729430289
0.01674880263
0.01706892076
0.01838025753
0.01974286367
0.02060854741
0.0212608533
0.02167806087
0.02183160855
0.02170018767
0.02128729043
0.02062592927
0.01977217118
0.01879795137
0.01777023948
0.01677281513
0.01593795622
0.01581943443
0.01468171324
0.01363336703
0.0127160613
0.01173280168
0.01058540486
0.009247408644
0.007591832983
0.005777818556
0.004375211874
0.003543136204
0.020499346
0.02054317892
0.02359171581
0.03063107025
0.04097452534
0.04675019056
0.04102434516
0.03559200678
0.0335573719
0.03403309198
0.03567338743
0.03716903282
0.03819779034
0.03860416309
0.03836507607
0.03749051754
0.03602183185
0.03404612593
0.03169306881
0.02911662451
0.02648725962
0.02396202732
0.02244859146
0.02120065116
0.01907802758
0.01682775822
0.01517306159
0.0136220776
0.01177417495
0.01014351955
0.008394643995
0.006684998655
0.005508942054
0.00414277692
0.02849781768
0.03035453809
0.03846851988
0.05645225544
0.08148071667
0.09286431556
0.08072944521
0.06220186006
0.05039046882
0.04636771653
0.04613767471
0.04702177273
0.04782409551
0.04810295073
0.0477451703
0.04669655214
0.04494858048
0.04256500187
0.03964968258
0.03635837716
0.03293724838
0.02972965342
0.02705975986
0.02545987034
0.02324407872
0.02102051065
0.01866028602
0.01612730352
0.01366725099
0.01100830214
0.008676023601
0.006713923426
0.005428145466
0.004154588962
0.03778619676
0.04236324938
0.05784368552
0.08992906828
0.126292074
0.1403092301
0.1272066037
0.09694497711
0.07236854589
0.06081695795
0.05654774709
0.05542793723
0.05516470176
0.05476184614
0.05397606013
0.05268796205
0.05077871167
0.04823271636
0.04498017415
0.04118620039
0.0372839731
0.03392225136
0.03166549265
0.03066572956
0.02942883209
0.02735491707
0.02376180239
0.01940126905
0.01530607587
0.01177589606
0.008812659828
0.006479812364
0.005099390376
0.003986675092
0.04798508439
0.05497229724
0.076115689
0.1156808989
0.1543844657
0.1696128356
0.1594938243
0.1278470945
0.09702718634
0.07814493239
0.06875415859
0.06445110266
0.06227471154
0.06071220235
0.05930241057
0.05764294583
0.05544146235
0.0525551032
0.0488915431
0.04457255477
0.04045265332
0.03777965099
0.03733159773
0.03818603727
0.03790514076
0.03516412413
0.02993724967
0.02320834856
0.01715794687
0.01235317111
0.008786917335
0.006158095906
0.004758926582
0.003817163035
0.05811531514
0.06579519104
0.08760631299
0.1254647585
0.1617356027
0.1774563687
0.1707951049
0.1446278821
0.1156411144
0.09466314884
0.0817821572
0.07415341235
0.06947848062
0.06634704974
0.06402155008
0.06186209299
0.05936889975
0.05618532663
0.05198151605
0.04721505587
0.0435079123
0.04298204712
0.04581172884
0.04908149875
0.04899371965
0.04421403911
0.03635136804
0.0267910708
0.01844365178
0.01270742944
0.008648262569
0.005793960355
0.004464035203
0.003792719965
0.0680258268
0.07458727397
0.09237686018
0.123288719
0.1544097118
0.1699639826
0.1667426012
0.1476677781
0.1248883737
0.1062424848
0.09277466562
0.08322762743
0.07646698155
0.07175553668
0.06845035786
0.0658362686
0.06319362789
0.05987571985
0.05537743564
0.05058969346
0.04847516094
0.0517982964
0.05853574345
0.06337388683
0.06174443868
0.05319385765
0.04123671257
0.02898569631
0.01874508135
0.01258608383
0.008390532629
0.00549161269
0.004327553082
0.00411711256
0.0777721704
0.08206992179
0.09382813995
0.1159610141
0.1402669927
0.1547500971
0.1546055855
0.142985339
0.1280006481
0.1140060099
0.1018196791
0.09148614515
0.08320637111
0.07710843196
0.07298066789
0.07021168518
0.06779170043
0.06480261544
0.06066022939
0.05666883884
0.05759718656
0.06543589846
0.07422780531
0.07796160158
0.07321989522
0.06060434937
0.04456335083
0.02970048577
0.01837430332
0.01213312205
0.008065396578
0.005343112173
0.004462479889
0.005022297588
0.08615032803
0.08838024851
0.09557908459
0.108457493
0.1255226853
0.1381529559
0.1415149267
0.137636436
0.1300932084
0.1207296882
0.1102605078
0.09958831701
0.09006513162
0.08280881849
0.07812696518
0.07576864883
0.07413390625
0.07211039102
0.06936728835
0.06730191373
0.0719257998
0.08127895245
0.08849601303
0.08858018513
0.07977096464
0.06363526936
0.04525073097
0.02907430789
0.01793483251
0.01169246573
0.007802683538
0.005479986251
0.004984060198
0.006513688873
0.09233591072
0.09400477091
0.09811934531
0.1053836156
0.1154376285
0.1261801527
0.1335478717
0.1364623384
0.1345889779
0.1285635933
0.1194325259
0.1083976451
0.0976425141
0.08945446923
0.08446589829
0.0832038839
0.08285540797
0.08216804254
0.08093719704
0.08143856732
0.08707093081
0.09419763791
0.09712595189
0.09247507268
0.07938472799
0.0605407232
0.04180813532
0.02707358361
0.01741757729
0.0115455943
0.008083671423
0.006241052334
0.006138101314
0.008214112646
0.09795097898
0.09950235963
0.1016920177
0.1054061552
0.1111163419
0.1207347649
0.1319447282
0.1404174415
0.1428616509
0.1383913181
0.1299425913
0.1184546128
0.1064069716
0.09773707524
0.09298680584
0.09277044928
0.09362755467
0.09398773476
0.09339949734
0.0937783381
0.09695195964
0.09976350752
0.0978301968
0.08859789253
0.07179624511
0.0515591532
0.03387899261
0.02218168217
0.01536431715
0.01152439934
0.009166492603
0.007850990608
0.007951530631
0.009743681333
0.1035728093
0.1048538643
0.1058350423
0.1075195152
0.1106930564
0.1190191963
0.1345481888
0.1493019742
0.1597482679
0.1508767614
0.1411392391
0.1291018906
0.1159560821
0.1077678291
0.1032533258
0.1031689594
0.1042669527
0.1045753542
0.103124867
0.1008007592
0.09887364928
0.09610874151
0.08929633525
0.07599043346
0.0569909355
0.03781332297
0.0236623857
0.01555131885
0.01208822394
0.01102561278
0.01040290463
0.009955332903
0.01001312331
0.01106772358
0.1112493535
0.1101400741
0.1097703933
0.1102367394
0.1122414804
0.120088799
0.1395025329
0.1688867488
0.2342223882
0.173482092
0.1518888193
0.1377990301
0.1238590677
0.1165577944
0.111834426
0.1109637831
0.1110762602
0.1102247682
0.1069871633
0.1011357542
0.0932927476
0.08357257891
0.07070447305
0.05386059066
0.03673336202
0.02343467217
0.01555866845
0.01210148098
0.01131218885
0.01201037285
0.0126123734
0.01256441366
0.01190291765
0.0120793272
0.1183985278
0.1163259485
0.1124599157
0.1117372521
0.1136842151
0.1228364958
0.1529954716
0.2552950011
0.3783764213
0.2592196746
0.1673811403
0.1422500164
0.125994779
0.1163037135
0.1131511646
0.1120709897
0.1109134578
0.1086890279
0.1038870109
0.0954635648
0.08327647356
0.06788872829
0.05067433288
0.03459145423
0.02245189901
0.01512408854
0.01228036286
0.01176808785
0.01182648966
0.01259301221
0.01371693
0.01414953678
0.01312450904
0.01265981673
0.1154376688
0.1128180911
0.1107797561
0.1093730683
0.11072318
0.1218296325
0.1754940952
0.3572097906
0.4851088926
0.3555582518
0.1893393502
0.1415739172
0.1211442619
0.1109247866
0.1074316428
0.1054986759
0.1029088021
0.09955008164
0.09387363886
0.08421026984
0.07026151004
0.05329539401
0.03632260892
0.02292687987
0.01453457098
0.01184007592
0.01265117329
0.01381249543
0.01386091571
0.01341834584
0.0135752931
0.01390447206
0.01332802913
0.01277069043
0.1067499424
0.1064337022
0.1048321043
0.1028012092
0.1020413972
0.1075272205
0.1386140671
0.2017329498
0.2970738127
0.1899507034
0.1435330164
0.1211236372
0.1044312596
0.09599049188
0.09265614517
0.09159188347
0.08841789365
0.08440331012
0.07814711037
0.06772951229
0.05345835713
0.03787096774
0.02457982332
0.01542045899
0.01119479412
0.0113365764
0.01455619937
0.01611557851
0.01542209426
0.01389557545
0.01287741816
0.01285113708
0.01298816552
0.01258887114
0.09969637733
0.09859897976
0.09634107273
0.09267296556
0.08831977402
0.08575253527
0.101960596
0.1312404825
0.1475758077
0.1281606322
0.1116568599
0.094823575
0.08056385603
0.07243442887
0.06770211216
0.06853508496
0.07083509688
0.06468902432
0.05665200143
0.04624319128
0.03520151768
0.0249710506
0.01678711951
0.01147324231
0.00993090079
0.01087073524
0.01517760308
0.01718676356
0.01569430921
0.01345407553
0.01206212179
0.0122513902
0.01300372181
0.01250147384
0.0902496023
0.08860587286
0.08536805916
0.08006795117
0.07285246467
0.06508503305
0.07065042381
0.0880004903
0.09576975637
0.08994936088
0.07784793239
0.06463583777
0.05504004598
0.0509297393
0.04660598156
0.0539995613
0.114623544
0.08356728233
0.06161093981
0.0429663134
0.02827680683
0.01870283648
0.01299243348
0.01039676064
0.01154576176
0.01559779404
0.02566206723
0.02705272195
0.01786167324
0.0141762639
0.01274464959
0.01308826623
0.01377474585
0.01257562051
0.07822428168
0.0760934775
0.0720784634
0.06572278868
0.05693959848
0.04750518709
0.04683420051
0.05552900545
0.05973115006
0.05550019864
0.04829516067
0.04274789786
0.04025685933
0.03953039909
0.04124959608
0.1187996789
0.4670732476
0.3154617905
0.1906474786
0.1091862208
0.05334710114
0.02550183144
0.01532447301
0.01248986063
0.01814108346
0.03960530795
0.05696819613
0.05370061868
0.03304297544
0.01854533803
0.01469296883
0.01443198897
0.01454599044
0.01248057044
0.06369184681
0.06124699758
0.05692542407
0.05041471618
0.04177228445
0.03313067006
0.03036491512
0.03403843979
0.03575489276
0.03446795734
0.03335307064
0.03487506354
0.03769936814
0.04255328087
0.06231253842
0.2777807574
0.4225968437
0.4373780412
0.2940708442
0.1656574252
0.08188399737
0.03673308301
0.0204692856
0.01676528718
0.02744178455
0.05607296365
0.06568699375
0.05667495591
0.03563817112
0.02113657534
0.01559274582
0.0147642465
0.01466793236
0.01214307156
0.04765505341
0.04504680202
0.04091464284
0.03514483
0.02824817528
0.02210729961
0.02018120864
0.02268817461
0.02414720576
0.02603409988
0.03026694012
0.03563671704
0.03883315715
0.04099500004
0.05589608146
0.1670914592
0.31140843
0.2831942012
0.2008714905
0.1129606609
0.04477051198
0.02157352403
0.01762142497
0.01813160407
0.01976415137
0.02892083974
0.0401311213
0.02879858484
0.01650230737
0.01275426541
0.01247102128
0.01327893679
0.0138176488
0.01140836878
0.03227027437
0.02983690936
0.02642749752
0.02209968745
0.01791894912
0.01483536664
0.01447193677
0.01664270296
0.01970836369
0.02437989656
0.03141159121
0.03765902344
0.03892588905
0.03970250556
0.03984261623
0.05498961667
0.07846722522
0.0834184285
0.05516998498
0.03051793273
0.0204283212
0.0197558251
0.02129311891
0.02190607715
0.02113795625
0.02050321255
0.02006228322
0.01655363354
0.01308586112
0.01107079991
0.0106059797
0.01149414541
0.01226416133
0.01076598708
0.0209869129
0.01888848959
0.01653562539
0.01366510002
0.01161269212
0.01068624908
0.0117050999
0.01438162039
0.0184318706
0.02434744259
0.03186520426
0.036722502
0.03799602323
0.03764545021
0.03473550239
0.03188877381
0.02998260969
0.02733291922
0.02091398253
0.01881315015
0.02171376429
0.02492067218
0.02608196341
0.02533638337
0.02328359623
0.02048085398
0.01803711029
0.01442670408
0.01133132855
0.009416356922
0.008858316077
0.009599228814
0.01091971029
0.01030631436
0.01406821121
0.0124887121
0.01120837226
0.009459937642
0.008542057672
0.008597351945
0.01015054583
0.01290654908
0.01687135718
0.0222785538
0.02863488076
0.03303552274
0.0344511488
0.03356983712
0.02936000153
0.02347046025
0.01825062609
0.01502709667
0.01515711394
0.01900846411
0.02367153615
0.02620304948
0.02649082121
0.02521228368
0.02274993895
0.01950182242
0.01614715418
0.01300175406
0.01040905338
0.008848179329
0.00890850448
0.01030238036
0.01201959788
0.01093353579
0.01158231489
0.009983292038
0.008990272727
0.008551561477
0.007652533819
0.007267518478
0.007710590898
0.009383409687
0.01196622586
0.01529539415
0.01940336584
0.02399410828
0.02773338681
0.02903951232
0.0284152195
0.02647176876
0.0222539883
0.01676061352
0.01376543671
0.01456394679
0.01848070075
0.02291038349
0.02544004068
0.0257375226
0.02448950933
0.02204810561
0.01884881625
0.01534321254
0.01209875604
0.009577411118
0.009017006889
0.01072102588
0.01262534103
0.01437304507
0.01363674115
0.01063739418
0.008492545563
0.007358406589
0.007317241175
0.006910991985
0.006878531854
0.00768251567
0.009498742559
0.01188062643
0.01453134525
0.01781341897
0.022848155
0.02873946964
0.0321060421
0.03425500227
0.03519631013
0.03154888254
0.02447456161
0.01873484111
0.01635659338
0.01762834963
0.02030087164
0.02229405793
0.02274900522
0.02171829144
0.01955491824
0.01677681575
0.01387923935
0.01129121845
0.009438467511
0.01004627032
0.01220468246
0.01436914304
0.01672151196
0.01550295406
0.009810930348
0.007505874967
0.006470595061
0.006480067692
0.006354679794
0.006848260691
0.008107519798
0.01000403562
0.01211707792
0.01433188975
0.01701553142
0.02103730929
0.02707675722
0.03284565032
0.03701052378
0.03727928613
0.0338222703
0.0285310538
0.02424912583
0.02090217483
0.01965825973
0.0196595234
0.01962684639
0.01897746679
0.01777533993
0.01627030125
0.01465758528
0.01300479497
0.01142302994
0.01020027495
0.01055095005
0.0120414114
0.01479313464
0.0172197714
0.01627413379
0.007734859604
0.005917672011
0.005390664352
0.005273105909
0.005856143572
0.006957789061
0.008395391036
0.0100286759
0.01177623024
0.01360558961
0.01558437115
0.01811935645
0.02189085555
0.02689750503
0.03128805802
0.03199659056
0.03012024595
0.02720348701
0.02499873674
0.02347750943
0.02261274671
0.02189401086
0.02104558719
0.0199022831
0.0185730595
0.01720383472
0.01597120489
0.01480696888
0.01371573306
0.01257122256
0.01186698895
0.01254385498
0.01526531748
0.01771299882
0.01797020852
0.00473645829
0.004545025841
0.005220244217
0.006052308904
0.007230027581
0.008640362719
0.01004984891
0.01157658609
0.0131935092
0.01470543403
0.01609716839
0.01764775615
0.01973916292
0.02203324051
0.02333076897
0.02365425849
0.02441989868
0.0248780412
0.02509733341
0.02506309871
0.02455747101
0.02347211272
0.02187606426
0.02009331833
0.01852003644
0.01725216808
0.01628717502
0.01522441363
0.01447856821
0.0140267733
0.01442808417
0.01648886772
0.01886876124
0.01929127676
0.004658617943
0.0047439324
0.005695076295
0.006189761993
0.007245929305
0.008691512209
0.009928558874
0.01132986146
0.01295298673
0.01446571851
0.01566253744
0.01649738009
0.0220609737
0.0203617204
0.01864795065
0.01766881128
0.01657860341
0.01615847661
0.01606639291
0.01672206987
0.01833230587
0.02034397826
0.02019411623
0.006553159073
0.006351832753
0.007074466391
0.008501751758
0.009635529307
0.01096751722
0.01333380995
0.01269693969
0.01291652474
0.01421801013
0.01651726197
0.01842462481
0.01806319564
0.0185059062
0.0197253127
0.0212948198
0.0226600393
0.02349376551
0.02404957417
0.02432838494
0.02430630385
0.023963044
0.02330335532
0.02236524648
0.0212160419
0.01994189485
0.0186271466
0.01735439575
0.01628809662
0.01579463004
0.01469106513
0.01348470396
0.01242753702
0.01138413007
0.01018767311
0.008921982238
0.007362295257
0.005648258406
0.004272810681
0.003520700007
0.02258541699
0.02252273828
0.02523866617
0.03189800221
0.04139973208
0.04759995513
0.04684821646
0.04272368056
0.04155639471
0.04210813834
0.04335820954
0.04456325818
0.04538440555
0.04562468226
0.04518480928
0.04401839642
0.04213393817
0.03960431645
0.03656978296
0.03322262118
0.0297903563
0.02656712432
0.02462550676
0.02445629356
0.02073435365
0.01698169038
0.01452261011
0.01296080637
0.01080525541
0.009163919184
0.007780858568
0.006460676036
0.005716956691
0.004270304115
0.03368119184
0.03616720217