/*--------------------------------*- C++ -*----------------------------------*\
  =========                 |
  \\      /  F ield         | OpenFOAM: The Open Source CFD Toolbox
   \\    /   O peration     | Website:  https://openfoam.org
    \\  /    A nd           | Version:  8
     \\/     M anipulation  |
\*---------------------------------------------------------------------------*/
FoamFile
{
    version     2.0;
    format      ascii;
    class       volScalarField;
    location    "0.9";
    object      nut;
}
// * * * * * * * * * * * * * * * * * * * * * * * * * * * * * * * * * * * * * //

dimensions      [0 2 -1 0 0 0 0];

internalField   nonuniform List<scalar> 
67193
(
0.0001319381396
0.0001347245742
0.0001502532365
0.0001783950984
0.0002091085162
0.0002274825466
0.0001749060054
0.0001548655861
0.0001423602738
0.0001414396841
0.000144361047
0.0001474252222
0.0001503134906
0.000152632451
0.0001541990132
0.0001549242958
0.0001548083161
0.0001539054364
0.0001522993936
0.0001501266987
0.0001474618859
0.0001446378623
0.0001413376728
0.0001404047294
0.00013888485
0.0001363930159
0.0001328101609
0.0001278718773
0.0001215427518
0.000113459637
0.000102737169
8.931143898e-05
0.0001255002574
0.0002279019783
0.000161005073
0.0001763401279
0.0002101569148
0.000252270153
0.0002890346496
0.0003091914035
0.000260211119
0.0002231695598
0.0001915606152
0.0001776702266
0.0001757978096
0.0001778497769
0.0001803741125
0.0001821499529
0.000182831541
0.0001823564457
0.0001807890558
0.0001782543858
0.0001749257766
0.0001710682675
0.0001668686243
0.0001628331726
0.0001592899218
0.0001572868677
0.0001572617534
0.000156011145
0.00015172467
0.0001443686915
0.0001348756033
0.0001239357774
0.000110663429
9.525708684e-05
8.053669323e-05
0.0002603139761
0.0001840750919
0.0002117147535
0.0002570514805
0.0003037265816
0.0003416185127
0.0003629177317
0.0003260147385
0.0002839984923
0.0002397355167
0.0002091655858
0.0001969862038
0.0001954068271
0.0001971765325
0.000198977164
0.0001995979239
0.0001987601337
0.0001965064516
0.0001929749525
0.0001884631204
0.000183388441
0.000178071517
0.0001738531107
0.0001716191145
0.0001732820745
0.0001770163187
0.0001773749271
0.000172216845
0.0001620975136
0.0001486733832
0.0001335112162
0.0001169371622
9.885606246e-05
8.198418819e-05
0.0002646879478
0.0002032739122
0.0002381020164
0.0002892847308
0.0003402563336
0.0003841103413
0.000407129884
0.0003777249237
0.0003316985382
0.0002819276623
0.0002409223854
0.000217631819
0.0002097248868
0.0002093920092
0.0002111352935
0.0002120322243
0.0002110485375
0.0002081328315
0.000203423859
0.0001977109973
0.0001914826657
0.0001852937772
0.0001826655114
0.0001852281266
0.0001939955463
0.0002013905805
0.0002019595286
0.0001952788087
0.0001825546027
0.0001651468483
0.0001448872205
0.0001234172776
0.0001016639236
8.262923344e-05
0.0002631980586
0.0002157402936
0.0002501613813
0.0003038988458
0.0003612848042
0.0004098015872
0.000433497957
0.0004092304577
0.0003626007634
0.0003108239517
0.0002666124902
0.0002376803116
0.0002236782006
0.0002197579916
0.0002202267619
0.0002205294112
0.0002191492219
0.0002157876451
0.0002103861551
0.0002037312793
0.0001965967796
0.0001902535918
0.0001928983048
0.0002045758046
0.0002199323047
0.0002279831099
0.0002262442581
0.0002170018559
0.0002022718298
0.0001823191298
0.0001577906275
0.0001308931189
0.0001044615004
8.308013185e-05
0.0002619521539
0.0002220600565
0.0002464650043
0.0002965068375
0.0003582755221
0.0004104608502
0.0004357923781
0.0004142283057
0.0003706332343
0.0003233851317
0.0002833264838
0.0002549733332
0.0002376901033
0.0002295798065
0.000227067917
0.0002258697541
0.0002237423076
0.0002201164984
0.0002146212129
0.0002081153639
0.0002006752102
0.0001957194388
0.0002082252554
0.0002299656455
0.000248322978
0.0002538308866
0.0002480380229
0.0002350057496
0.0002179421634
0.0001968051918
0.0001698468681
0.0001385113387
0.0001072537696
8.346134215e-05
0.0002659939364
0.000228732492
0.0002364114696
0.0002692204544
0.0003272778197
0.0003839991955
0.000412964806
0.0003944135039
0.0003579588456
0.0003227866453
0.0002944916251
0.0002714497811
0.0002524986884
0.0002394957416
0.0002325774859
0.0002288560142
0.0002257732593
0.0002229582578
0.0002193147804
0.0002143893353
0.0002073216454
0.0002057203191
0.0002299325937
0.0002580684647
0.0002749545168
0.0002764850494
0.0002660551836
0.0002487499
0.0002286098209
0.0002062241223
0.0001777251877
0.0001436594226
0.0001091193516
8.403795296e-05
0.0001180648865
0.0002403869494
0.0002378287363
0.0002442008645
0.0002761252378
0.0003275273433
0.0003618721809
0.0003580956587
0.0003402399891
0.000321918865
0.0003060167312
0.0002880955593
0.000268154733
0.00025014888
0.0002376693323
0.0002303475873
0.0002267023542
0.00022757622
0.0002288537241
0.0002267011395
0.0002202168417
0.0002227980648
0.0002557115902
0.0002845206585
0.0002969330748
0.0002938908544
0.0002791287593
0.0002578082959
0.0002344183808
0.0002092061184
0.0001782323153
0.0001427177902
0.0001082930529
8.519517305e-05
0.0001319379085
0.0002553987544
0.0002519186012
0.0002443243612
0.000249245673
0.0002744478108
0.0003087488313
0.0003286591506
0.0003313506317
0.0003253294844
0.0003197983681
0.0003061057014
0.0002858833436
0.0002634464867
0.0002444256186
0.0002324699633
0.0002296773867
0.0002384475768
0.0002466448202
0.0002469177255
0.0002404857254
0.0002456409993
0.0002803982175
0.0003051322693
0.0003119889705
0.0003040386569
0.0002855707344
0.0002614932914
0.0002350509693
0.0002044515383
0.0001693650426
0.000134555768
0.0001058769702
8.93511373e-05
8.860041473e-05
0.0002728178032
0.0002687389273
0.0002584063405
0.0002471643596
0.0002548745579
0.0002835376214
0.0003120430565
0.0003262776904
0.0003330801232
0.000337662846
0.0003272084204
0.0003072828212
0.0002816209383
0.0002559544554
0.0002389570539
0.0002392882252
0.0002580296249
0.0002714656071
0.0002734716538
0.0002668228419
0.0002715812502
0.0002979277297
0.0003163209638
0.0003181914276
0.0003058112554
0.0002843922837
0.0002588808103
0.0002285647015
0.0001925885099
0.0001570871167
0.0001294564316
0.0001105953815
0.0001001149249
9.952883375e-05
0.0002867675693
0.0002832617479
0.0002728679852
0.0002559992735
0.0002465176057
0.0002658267924
0.0003003486851
0.0003279976988
0.0003489663752
0.0003594948657
0.0003502895993
0.0003308849521
0.0003037967338
0.0002731395947
0.0002505953855
0.0002572981755
0.000283295648
0.0002977666718
0.0002998454215
0.0002944615022
0.0002942003334
0.0003058818619
0.0003156739839
0.0003134707681
0.000298695856
0.0002758230022
0.0002470751233
0.0002115852703
0.0001765781667
0.000150821868
0.0001350846446
0.00012399683
0.0001155903103
0.0001094227234
0.0002994246255
0.0002956575714
0.0002853067992
0.0002671233508
0.0002464150052
0.0002616821134
0.0003019767307
0.000344138602
0.0003739033301
0.0003812147757
0.0003717221048
0.0003529101526
0.000325827224
0.0002930514115
0.0002662647535
0.0002800692608
0.0003076108818
0.0003199414885
0.0003206719271
0.0003146250908
0.0003075802104
0.0003036906652
0.0002999565558
0.0002891593683
0.0002681075511
0.0002374185239
0.0001972961833
0.0001635866809
0.0001472938916
0.0001425178881
0.0001402754923
0.0001360242076
0.0001295026939
0.0001178870856
0.0003138840356
0.0003061234256
0.0002956576805
0.0002776154714
0.0002515476054
0.0002714084726
0.0003226241602
0.000370146313
0.0004181893559
0.0004007723619
0.0003884254111
0.0003700222509
0.0003436148493
0.0003112983298
0.0002837814219
0.0003006683442
0.0003245374313
0.0003335313394
0.0003322552721
0.0003239198336
0.0003105896127
0.0002932086141
0.0002716722816
0.0002479489865
0.0002193017062
0.0001836794417
0.0001539817091
0.0001448045684
0.0001452799967
0.0001471156706
0.0001477643193
0.0001452651738
0.0001392245701
0.0001240022659
0.0003330995734
0.0003151241479
0.0003037289538
0.0002872813508
0.0002601081519
0.0002867841008
0.0003465134919
0.0004103165903
0.0005365386301
0.0004328363122
0.0004006343975
0.0003798988487
0.0003537876661
0.0003222170696
0.0002979884746
0.0003122087805
0.0003293436395
0.0003353075352
0.0003323058218
0.0003223425888
0.000306062262
0.000284304326
0.0002586489918
0.0002286297009
0.0001901835198
0.0001528406442
0.0001447999885
0.0001469541279
0.0001489942453
0.0001507983997
0.0001515613158
0.0001496549002
0.0001438120753
0.0001270235481
0.0003197305849
0.0003171655627
0.0003077096387
0.0002918265371
0.0002643194472
0.0002841409655
0.0003588002126
0.0004750142788
0.0006564182893
0.0004907121804
0.0004098255929
0.0003769850394
0.0003469099727
0.000313346994
0.0002899306698
0.0003022955817
0.0003153246974
0.0003200701734
0.0003153296133
0.0003042588535
0.0002861967553
0.0002614613683
0.0002305752771
0.0001910319123
0.0001465988492
0.0001334092648
0.0001531685625
0.0001539813462
0.0001532991386
0.0001529079785
0.000152219543
0.0001494812307
0.000143420451
0.0001268189313
0.0003144093829
0.0003125273884
0.0003041254445
0.0002894611452
0.0002627897858
0.0002632163309
0.0003206187316
0.0003859593532
0.0004596439803
0.0004028773166
0.0003769648719
0.0003511878438
0.0003190303625
0.0002829584103
0.0002599867684
0.0002709304851
0.0002781529603
0.0002826821754
0.0002758224288
0.0002650579905
0.0002500062808
0.0002276236621
0.0001950577532
0.0001546158895
0.0001249830801
0.0001324012344
0.0001703777782
0.0001664297215
0.0001576449256
0.0001524197222
0.0001486827595
0.0001435577182
0.0001377056809
0.0001238637955
0.0003071314258
0.000304526985
0.0002960418442
0.0002813335883
0.0002564114157
0.0002425959985
0.0002840187678
0.0003353046052
0.000368820095
0.0003605513844
0.000341795443
0.000313030856
0.0002770769195
0.0002434422877
0.0002229813989
0.0002286356133
0.000265432807
0.0002696213715
0.000263223493
0.0002433361952
0.0002170073171
0.0001891534744
0.0001594272619
0.0001309131691
0.0001195577458
0.0001305485588
0.0002007035114
0.000196794333
0.0001743957302
0.0001531611355
0.000139135085
0.0001312289512
0.0001300227109
0.000121621322
0.0002955219918
0.0002923697814
0.0002833302471
0.0002681362334
0.0002445942313
0.0002247623668
0.0002470594022
0.00028840334
0.0003148587161
0.0003162724525
0.0002954218997
0.0002622504154
0.0002260363333
0.0001976517925
0.000182717898
0.0002148963189
0.0003894102451
0.0003899010684
0.0003516616158
0.000305956899
0.0002543975097
0.0002013921813
0.0001564438792
0.000129946541
0.0001419764098
0.0001830542905
0.0002502060967
0.0002424215803
0.0002135656707
0.0001768766537
0.0001450132148
0.0001307710864
0.0001306300211
0.0001218377741
0.0002790909755
0.0002753168022
0.0002658351309
0.0002500244394
0.0002283859353
0.0002080625427
0.0002132030032
0.0002444705682
0.0002653901759
0.0002656076584
0.0002405884661
0.0002064897034
0.0001799672924
0.0001681127493
0.0001994183695
0.0003443659016
0.0006006608098
0.0005710574459
0.0004837090126
0.0004023397794
0.0003292955507
0.0002602534506
0.0001938588164
0.0001482632433
0.0001910890781
0.0002502914925
0.0003042830036
0.0002902610833
0.0002547869602
0.0002150572272
0.0001706973412
0.0001394315162
0.000132446276
0.0001212895399
0.0002577276999
0.0002532367085
0.0002434873088
0.0002273455626
0.0002082265723
0.0001886047514
0.0001828754759
0.0002015322009
0.0002147847625
0.0002107979298
0.000188180479
0.0001736016849
0.0001797716446
0.0002337535904
0.0003733848235
0.0005410011338
0.0006941402209
0.0007254641961
0.0006160708125
0.0005065837503
0.0004120230006
0.0003315924944
0.0002538857729
0.0001848066197
0.0002077155899
0.0002898596467
0.0003135991116
0.0002967073016
0.0002623393463
0.0002207116417
0.0001707337632
0.0001385690262
0.0001319129608
0.0001196111041
0.0002324984463
0.0002271239524
0.0002171843884
0.0002012231984
0.0001832376296
0.0001644884235
0.0001562518396
0.0001649823822
0.000172802046
0.0001730646314
0.0001709028313
0.0001790220201
0.0001867920234
0.0001918952187
0.0002179172354
0.0003173507517
0.0005500906348
0.0005395768869
0.0004652788216
0.0003768345533
0.0002884677254
0.0002119651063
0.0001650737241
0.0001519526948
0.0001529637368
0.0001624894826
0.000242720076
0.0002374653622
0.000201080695
0.0001581274826
0.0001307009089
0.0001260669237
0.0001274041059
0.0001166221369
0.0002054290804
0.0001992256791
0.0001892156745
0.0001720166679
0.0001544402198
0.0001397106744
0.0001371679203
0.0001451527952
0.0001544536535
0.0001647168454
0.000179636184
0.0001969570534
0.0001940781628
0.0001926870837
0.0001864064521
0.0002044734624
0.0003710853144
0.0003693739132
0.0003329822161
0.0002730972166
0.0002064371507
0.0001644206078
0.0001581638519
0.0001603092937
0.0001582668219
0.0001537141448
0.0001929274455
0.000181300304
0.0001524359117
0.0001300422872
0.0001189779715
0.0001174882579
0.0001213691146
0.0001202037264
0.0001758575023
0.0001701086423
0.0001610758412
0.0001422402548
0.0001271275466
0.0001205826789
0.0001263149062
0.0001370108125
0.000149303489
0.0001639353305
0.0001809985035
0.0001943366658
0.0001954412091
0.0001929578598
0.0001824488251
0.0001736658768
0.0002282107408
0.000228131158
0.0002209067438
0.0001844039689
0.0001597604658
0.0001624313886
0.0001688549665
0.0001695995551
0.0001652916828
0.0001577558598
0.0001559904182
0.0001454792401
0.0001319640053
0.0001200783263
0.0001131583493
0.0001176515449
0.000130734502
0.0001294074703
0.000146261619
0.0001419258937
0.0001350154024
0.0001175392873
0.0001078224222
0.0001085824732
0.0001183250584
0.0001297976644
0.0001422921884
0.0001563173916
0.0001708701779
0.0001811782112
0.0001840269505
0.0001803983362
0.0001683140714
0.0001579202586
0.0001583702629
0.0001514605669
0.0001526157367
0.0001479629595
0.0001580841352
0.0001686545399
0.0001731839309
0.0001719376956
0.0001664525137
0.0001581047301
0.0001487472991
0.000138407053
0.0001258796912
0.0001156768977
0.0001186122419
0.0001309365898
0.0001405637348
0.0001333651875
0.0001195726278
0.0001212855661
0.0001184881652
0.0001136964045
0.0001014081629
9.705870593e-05
0.0001008932073
0.0001103614091
0.0001207425678
0.0001319415645
0.0001436795335
0.0001542643495
0.0001610302595
0.0001628746
0.0001605609351
0.00015518592
0.000145584803
0.0001348492829
0.0001259993584
0.0001291143688
0.0001398094652
0.0001513984797
0.000161763786
0.0001678428346
0.0001675565133
0.0001625763143
0.0001542865846
0.0001437408514
0.0001308429719
0.0001167801892
0.0001186095222
0.0001326750184
0.0001422597433
0.0001474854963
0.0001374685883
0.0001135213702
0.0001070966559
0.0001029907512
9.880906498e-05
9.218502582e-05
9.157852589e-05
9.659255393e-05
0.0001048665404
0.0001139868367
0.0001238271863
0.000134348617
0.0001460234918
0.0001617567756
0.0001652426712
0.000162414757
0.0001841930447
0.000173050604
0.0001526171854
0.0001387132957
0.0001351351981
0.0001416185836
0.0001478370637
0.0001507100882
0.0001517624389
0.0001519539134
0.0001497909415
0.0001446110988
0.0001364252081
0.0001254295621
0.0001154821064
0.0001264812873
0.0001388389262
0.0001484857333
0.0001535748934
0.0001426073305
0.0001091697246
9.850718756e-05
9.303760876e-05
8.899577998e-05
8.671205104e-05
8.954587707e-05
9.589427366e-05
0.0001035676926
0.0001115522562
0.000120073682
0.0001300168727
0.000142262716
0.0001579628101
0.0001761282092
0.0001939448787
0.0002030981743
0.0001898139376
0.0001677161517
0.0001537452301
0.0001488248892
0.0001516496882
0.0001546762769
0.0001555673043
0.0001547318734
0.0001528511638
0.0001500667864
0.0001461789432
0.0001405928598
0.0001326406733
0.0001241885363
0.0001267680674
0.0001380865811
0.0001511124388
0.0001574569619
0.0001473327727
9.995204217e-05
8.91620384e-05
8.412567921e-05
8.008742905e-05
8.29035836e-05
8.862114287e-05
9.452415352e-05
0.0001006893852
0.0001068182946
0.0001126961995
0.0001189617222
0.0001274018489
0.0001392021431
0.0001527042641
0.0001664134219
0.0001722879575
0.0001550876002
0.000143665299
0.0001536348559
0.0001601228912
0.0001632226152
0.0001641967202
0.0001634769293
0.0001615300816
0.0001589783717
0.000156165421
0.0001531145468
0.0001494910214
0.0001448496459
0.0001392962629
0.0001342566945
0.0001377393853
0.0001541591722
0.000163150611
0.0001547270758
8.141710121e-05
0.0003192232999
7.9362656e-05
8.42226805e-05
8.93302129e-05
9.384055493e-05
9.859567607e-05
0.0001037627756
0.0001089768516
0.0001139241314
0.0001190497494
0.0001247536478
0.0001319388394
0.0001395093024
0.0001444945979
0.0001451386381
0.0001519727837
0.000161883625
0.0001697055928
0.0001720215715
0.0001720445849
0.0001703841739
0.0001674965896
0.0001640650282
0.0001607270094
0.0001577282518
0.0001546149595
0.0001509617885
0.0001473850559
0.0001449619421
0.000146776398
0.000157913831
0.0001684866669
0.0001600332073
8.466551864e-05
7.724671184e-05
8.425100388e-05
8.613757008e-05
9.012392475e-05
9.399251235e-05
9.79781665e-05
0.0001027566922
0.0001075837722
0.0001118558789
0.0001168296403
0.0001218174716
0.0001700155081
0.0001670563209
0.0001640677545
0.000160858045
0.0001571788123
0.0001544245239
0.000154106405
0.0001565989856
0.0001635562337
0.0001710340496
0.0001613594577
9.070538763e-05
8.833012239e-05
9.079580057e-05
9.505597737e-05
9.970858798e-05
0.000105883537
0.0001284507864
0.0001256632567
0.0001289802272
0.0001403138477
0.0001569327467
0.0001668301444
0.000147866679
0.0001454274808
0.000146740863
0.0001522366538
0.0001577642474
0.0001611845911
0.0001637166767
0.0001653172356
0.000165904609
0.0001654082816
0.000163831336
0.0001612703694
0.0001579006323
0.0001539632532
0.0001496956566
0.000145432479
0.0001417701571
0.0001412556133
0.0001360931531
0.0001311314781
0.0001266362395
0.0001216349068
0.0001155383946
0.0001080151416
9.788141192e-05
8.539496828e-05
0.0003075891684
0.0002092700656
0.0002580160943
0.0002410618708
0.0002435282797
0.0002801713763
0.000354089222
0.0004073966328
0.0004064724178
0.000399648888
0.0004487924308
0.0004971023501
0.000545667904
0.0005802459686
0.0006001556069
0.0006059263812
0.0005993397735
0.0005817572
0.0005541938277
0.0005181765758
0.0004758656636
0.0004296681027
0.0003828310842
0.0003373587329
0.0003053158689
0.0002987600263
0.0002606084381
0.0002220814788
0.0001970952538
0.0001783364711
0.0001599514153
0.0001432598668
0.000127257341
0.0001137720467
0.00011265968
0.0002446673911
0.0003710798138
0.000348262312
0.0003821068684
0.0005176715811
0.0006944182508
0.0007727310711
0.0007534064427
0.0006563540227
0.0006346126204
0.0006705539719
0.0007324929354
0.0007868521828
0.0008202772422
0.000831259171
0.0008243600778
0.0008021654178
0.0007658130053
0.0007170425819
0.0006570150939
0.0005876079163
0.0005150910816
0.0004439360125
0.0003844767781
0.0003435836004
0.0003048138422
0.0002685356618
0.0002344776428
0.0002030979105
0.0001760580669
0.0001502813883
0.0001289542773
0.0001132142228
0.000108724954
0.0002453558893
0.0005165285952
0.0005027039961
0.0006002593529
0.0008282821562
0.001057732377
0.001151953655
0.001123840532
0.001001252434
0.0008867446031
0.0008525511742
0.000887727968
0.0009375947543
0.0009691958778
0.0009715822903
0.0009548153274
0.0009267516411
0.0008876555595
0.0008373452679
0.0007680432009
0.0006813296878
0.0005898551824
0.0005009010856
0.0004332538877
0.0003957752611
0.0003674836017
0.0003317189243
0.0002836527636
0.0002314554007
0.0001873662842
0.0001535509699
0.0001273732087
0.0001087773943
0.0001051763886
0.0002354479019
0.000690032729
0.0006951715705
0.0008365902611
0.001089364494
0.001316359081
0.001415440861
0.001400977784
0.001292424531
0.001171220011
0.001083465169
0.001063820782
0.001081154015
0.001093817167
0.001081581749
0.001056574482
0.001021585652
0.0009748495555
0.0009144408442
0.0008326266591
0.000726725132
0.0006210746351
0.0005285171407
0.000473690795
0.0004564655927
0.0004323921965
0.0003914745886
0.0003341341688
0.0002629838674
0.0001988314331
0.0001538521439
0.0001238183218
0.0001036519811
0.0001028716138
0.0002254391325
0.0008754006624
0.0008954136308
0.001028825637
0.001251648487
0.001450666947
0.001550074565
0.001558036625
0.001488581096
0.001389218314
0.001308567884
0.001257084161
0.001229577308
0.001208097206
0.001178064842
0.00114198761
0.001098615508
0.001043816536
0.0009721746423
0.0008678422039
0.0007413300976
0.000631059663
0.0005590998763
0.0005391323288
0.0005341732169
0.0005055049291
0.000445478407
0.0003673997214
0.0002817972105
0.0002033433176
0.0001510777792
0.000118959488
9.855789281e-05
0.0001013930821
0.0002240066126
0.001061678127
0.001095505015
0.001184794614
0.001355957962
0.001513168794
0.001606792059
0.00164146961
0.001614124681
0.001543690299
0.001463282141
0.001395242927
0.001344283786
0.001301475948
0.001258951508
0.001213459236
0.001162428557
0.001099299439
0.00101493026
0.0008914415978
0.0007510125103
0.0006529038003
0.000628007137
0.0006446637636
0.0006464904036
0.000602256547
0.0005096343811
0.0003961507684
0.0002882644655
0.0001995301213
0.0001452503039
0.0001140579678
9.498649819e-05
0.000100031372
0.0002431920969
0.001240784997
0.001286648106
0.00133722198
0.001453306709
0.001565868339
0.001646402005
0.001698511944
0.00169790526
0.001645424089
0.001563592793
0.001484632695
0.001421540755
0.001370345885
0.001322053551
0.001270876809
0.001215608184
0.001146428224
0.001056614104
0.0009309449898
0.0007902418223
0.0007213925329
0.0007452682224
0.0007724497029
0.0007641286011
0.0006941263252
0.0005675502337
0.0004199690404
0.0002895181336
0.0001921761854
0.000139391916
0.0001108647771
9.409549641e-05
9.85289351e-05
0.0002966904789
0.001378311925
0.001424352097
0.001485521696
0.001549042862
0.001634653444
0.001698424234
0.001746708643
0.001748962831
0.001701166246
0.001617476149
0.001535002768
0.001467732236
0.001414583062
0.001365804213
0.001310773781
0.001258643002
0.001190159008
0.001108315358
0.00101153873
0.0008917508626
0.000856154681
0.000876214393
0.0008879157373
0.0008518166082
0.0007504505996
0.0005954527914
0.0004275904918
0.0002842423564
0.0001856043575
0.0001366943512
0.0001108239227
9.653766486e-05
9.655669862e-05
8.310106601e-05
0.00145268127
0.001504103324
0.001573973166
0.001643446044
0.001690484328
0.001738801635
0.001777186539
0.001775444369
0.001725118877
0.001640681395
0.001558892379
0.001490841906
0.001438113555
0.001392691987
0.001332307784
0.001294346665
0.001235155033
0.001169063763
0.001101415368
0.001032880131
0.0009969966847
0.0009854956866
0.0009593150056
0.0008852482387
0.0007506789389
0.0005743463984
0.0004020892525
0.0002626658951
0.0001800661283
0.0001385763096
0.0001159433714
0.0001035364242
0.0001035448213
9.330372741e-05
0.001499660115
0.00155335228
0.001616809967
0.001677930617
0.001699016484
0.001734449647
0.001783739705
0.001784991006
0.001733596495
0.001651979964
0.00157256404
0.001504833262
0.001452346714
0.001418352049
0.001366210499
0.001335293354
0.001286169904
0.001235601637
0.00118524749
0.001132306982
0.001083381419
0.001036202239
0.000967353973
0.0008534476694
0.0006874515516
0.0004974714966
0.0003306069442
0.0002203782939
0.0001670885948
0.0001428856086
0.000127134096
0.0001166551523
0.0001170180301
0.0001016086227
0.001540681633
0.001589571491
0.001640364761
0.001685654674
0.001681236882
0.001676709083
0.00176449878
0.001790874361
0.001770228359
0.001676118005
0.001588387615
0.001519855947
0.001467641476
0.001456755648
0.001418943573
0.001380613697
0.001333736663
0.001289111525
0.001239986559
0.001179314102
0.001105487551
0.001018137597
0.0009060771467
0.0007532600722
0.0005650323276
0.0003751176978
0.0002442263126
0.000177823628
0.000155036414
0.0001504349226
0.0001432679868
0.000135487566
0.0001333403073
0.0001082842975
0.001604537767
0.00162397938
0.001652546192
0.001681413242
0.001663033916
0.001631850221
0.001734102422
0.001857591431
0.002111096534
0.001780937725
0.001613538454
0.00152895508
0.001474815974
0.001484282342
0.001454037069
0.001406283872
0.001354436308
0.001305189142
0.0012459727
0.001166606113
0.001062556073
0.0009332354896
0.0007748530828
0.0005730150074
0.0003816157863
0.0002521403309
0.0001831684059
0.0001538714072
0.0001485001454
0.0001560010174
0.0001617990114
0.0001592078904
0.0001501038368
0.0001131141596
0.001684377787
0.001663712583
0.001648099841
0.00165678574
0.001639079296
0.001602079278
0.001757400054
0.002305506708
0.002807789604
0.002238440529
0.001687686719
0.001522385577
0.001448102852
0.001432192655
0.00142281919
0.001380945316
0.001326175293
0.00126871648
0.001196262924
0.001096297247
0.0009616499807
0.0007923166203
0.0005909978964
0.0003878906474
0.0002540113736
0.0001862226743
0.0001545642679
0.0001386838077
0.0001343914226
0.000142569021
0.0001583003465
0.0001706211918
0.0001627306335
0.0001157861443
0.001597236535
0.001602324996
0.001601670987
0.001596990421
0.001572358754
0.001533123348
0.001807563918
0.002674207269
0.003149643324
0.002622645008
0.001772532939
0.001490804829
0.001391453587
0.001371947022
0.00135928726
0.001313266532
0.001245770042
0.00117606541
0.001091205507
0.0009759207718
0.000821339742
0.0006346311598
0.0004267043291
0.0002752586308
0.0001918408564
0.0001586995514
0.0001461807572
0.0001444856459
0.0001420908536
0.0001410337498
0.0001510641317
0.0001685661704
0.0001685135949
0.0001162768722
0.001483682378
0.001506525855
0.001510713278
0.001498034249
0.001460159149
0.001383460109
0.001559356272
0.001923144089
0.00234263095
0.001804922672
0.001478512372
0.001345937534
0.001279141752
0.001262788506
0.001231532306
0.001195408329
0.001103222344
0.00102420072
0.0009182643061
0.000782179543
0.0006111010331
0.0004324407973
0.0002911583476
0.0002038924926
0.0001637357163
0.0001474432943
0.0001529745154
0.0001572739574
0.0001514474139
0.0001442740794
0.0001484324523
0.0001653684391
0.0001722564023
0.0001154347907
0.001379285565
0.001394042009
0.001389990203
0.001358292966
0.001285301498
0.001132623079
0.001189356967
0.001392652992
0.00146496453
0.001338592144
0.001229196088
0.001149289023
0.00108489368
0.001005350934
0.000946958507
0.0009311590006
0.0007724628575
0.0007140639728
0.000613856796
0.0004975994706
0.0003841527352
0.0002871485926
0.0002143721033
0.0001685396301
0.0001483526372
0.0001321071568
0.000149092249
0.0001585972228
0.0001529694034
0.0001468271208
0.0001514525423
0.0001683864452
0.0001802871197
0.0001150272526
0.001248462092
0.001255627928
0.001237798434
0.001183399172
0.001077055087
0.0008772908821
0.0008389169746
0.000978000451
0.001038853078
0.001003239575
0.0009334671003
0.000827590685
0.0007663098287
0.0007466727536
0.0006794993745
0.0006544582356
0.0006934689233
0.0005998709718
0.0004944940058
0.0003728063983
0.0002708059011
0.0002069515011
0.000168261685
0.0001478218533
0.0001417103528
0.0001151075463
0.000147044573
0.0001507164672
0.0001340788495
0.0001500713706
0.0001632405985
0.0001832602182
0.0001957368251
0.0001153649736
0.001085755586
0.001085637168
0.001053820197
0.0009791121953
0.000846816851
0.00064361462
0.0005663172899
0.0006231053415
0.0006658955416
0.0006414910406
0.000604422173
0.0005970493537
0.0006296291685
0.0006476865757
0.000578399935
0.0007979076451
0.001902794388
0.001495653824
0.001058910781
0.0006871303614
0.0003833120113
0.0002210211063
0.0001660954227
0.0001554310342
0.0001635019671
0.0001985552103
0.000252167959
0.0002370301458
0.0001653718644
0.0001387239269
0.0001714739859
0.0002018453007
0.0002118229291
0.0001149269174
0.000888983115
0.0008845683866
0.0008438168179
0.0007588682833
0.0006125028195
0.0004457351129
0.0003775183148
0.0003972392987
0.0004187821217
0.0004295359174
0.0004743071279
0.0005508365269
0.0006241115764
0.0006303702992
0.0005392995692
0.001310055539
0.001948809004
0.001896078836
0.001448909765
0.0009260567355
0.0005032150397
0.0002628474887
0.0001825472396
0.0001797266255
0.0001999971728
0.0002692512657
0.0003121790377
0.0002714174944
0.0001853102721
0.0001368453126
0.0001567785024
0.0002020286096
0.000215975902
0.0001133635014
0.0006661479115
0.0006630106581
0.0006243246843
0.0005395164679
0.0004126816114
0.0003015745333
0.0002652081015
0.0002967049706
0.0003201768542
0.000382881733
0.0004985971609
0.0006160800961
0.0006775274892
0.0006760239664
0.000615340842
0.0009732951624
0.001470667634
0.001432153305
0.001115810067
0.0006900760569
0.0003268521955
0.0002169199992
0.0002259330617
0.0002501623655
0.0002575828246
0.000239022877
0.0002731591735
0.0002176274754
0.0001692346443
0.0001655320785
0.0001819278085
0.0002042408869
0.0002076423141
0.0001098808046
0.0004351443589
0.0004431830851
0.0004200551424
0.0003538779657
0.0002729885575
0.0002140481069
0.0002047890456
0.0002379062506
0.0002996717844
0.0004053517867
0.0005422203054
0.0006511612924
0.0006757488444
0.000672186017
0.0006012150669
0.0005263158991
0.0005464302386
0.0005663046005
0.0004119445618
0.000265000035
0.000226903118
0.0002589398506
0.0003002740493
0.0003229485307
0.000314124773
0.0002843525466
0.0002423994459
0.0002110428243
0.0001829103623
0.0001651136538
0.0001631871864
0.0001758731356
0.0001779205624
0.0001067562411
0.0002856053234
0.0002816694634
0.0002746614913
0.000239421842
0.0001953761131
0.0001685491434
0.0001788342679
0.0002255140494
0.0003112666374
0.0004261832193
0.000551940612
0.00062996286
0.0006466975739
0.0006331366225
0.0005770362918
0.0004802595665
0.0003469519876
0.0002756145469
0.0002287337857
0.0002339756048
0.0002961108433
0.0003653127544
0.0003991738486
0.0003960756266
0.0003714936494
0.0003346162609
0.0002848672903
0.0002358840816
0.0001866495905
0.0001529753095
0.0001411514455
0.0001450564208
0.00015114324
0.0001044520614
0.0002102338189
0.0001964443335
0.0001989560561
0.0001839033351
0.000159446691
0.0001482328024
0.0001681547882
0.0002205716244
0.0003060948141
0.0004074862808
0.0005044538735
0.0005669846466
0.0005867979183
0.0005721753297
0.0004996311794
0.0003878809462
0.0002738163626
0.0002113398475
0.0002079360776
0.0002677437428
0.0003529482236
0.0004087796652
0.0004196136612
0.0004049137562
0.0003727283521
0.0003295406674
0.0002806801761
0.0002277579803
0.0001764169848
0.0001426701896
0.0001333208667
0.0001426961027
0.0001579963988
0.000107604419
0.0002191982794
0.000169985995
0.0001550644815
0.0001627484513
0.0001561092791
0.0001426980329
0.0001420968153
0.0001679130406
0.0002184794009
0.0002864065152
0.0003631184733
0.0004440032227
0.0005085993202
0.0005300460588
0.0005093642732
0.0004668100917
0.0003977912749
0.0002923945123
0.0002292555113
0.0002251332238
0.000278920121
0.0003528196256
0.0004006099498
0.0004086731388
0.0003934282487