/*--------------------------------*- C++ -*----------------------------------*\
  =========                 |
  \\      /  F ield         | OpenFOAM: The Open Source CFD Toolbox
   \\    /   O peration     | Website:  https://openfoam.org
    \\  /    A nd           | Version:  8
     \\/     M anipulation  |
\*---------------------------------------------------------------------------*/
FoamFile
{
    version     2.0;
    format      ascii;
    class       volScalarField;
    location    "0.9";
    object      O2;
}
// * * * * * * * * * * * * * * * * * * * * * * * * * * * * * * * * * * * * * //

dimensions      [0 0 0 0 0 0 0];

internalField   nonuniform List<scalar> 
67193
(
0.2100040255
0.2100040305
0.2100039692
0.2100038049
0.2100035487
0.2100032414
0.2100035812
0.2100035368
0.21000347
0.2100033462
0.2100032223
0.2100031511
0.2100031133
0.2100031014
0.2100031147
0.2100031519
0.210003211
0.2100032899
0.2100033861
0.2100034983
0.2100036184
0.2100037519
0.2100039252
0.2100038626
0.2100043411
0.2100044831
0.2100046627
0.2100049346
0.2100048254
0.2100048857
0.2100050987
0.2100054025
0.2100057088
0.210005865
0.2100037912
0.210003764
0.2100035926
0.2100032609
0.2100028523
0.2100024644
0.2100029241
0.2100030505
0.2100030701
0.2100029785
0.2100028678
0.2100027913
0.2100027612
0.2100027707
0.2100028151
0.2100028896
0.2100029882
0.2100031047
0.2100032329
0.2100033686
0.2100035094
0.2100036535
0.2100038343
0.2100038814
0.2100041339
0.2100043168
0.2100044794
0.2100046014
0.2100046672
0.2100047879
0.2100050053
0.2100052988
0.2100055461
0.210005638
0.2100036127
0.2100035565
0.2100032826
0.2100028468
0.2100024048
0.2100020308
0.2100023353
0.2100025762
0.2100027336
0.2100027269
0.2100026337
0.2100025438
0.2100025013
0.2100025115
0.2100025703
0.2100026709
0.2100028042
0.2100029601
0.2100031282
0.2100033013
0.210003479
0.2100036637
0.2100038671
0.2100039983
0.210004125
0.2100042747
0.2100044433
0.2100045794
0.2100046599
0.2100047452
0.2100049238
0.2100052147
0.2100054664
0.2100055577
0.2100033994
0.2100033128
0.2100029776
0.2100025135
0.2100020444
0.2100016712
0.2100018357
0.2100021094
0.2100023633
0.2100024817
0.210002461
0.2100023857
0.2100023317
0.2100023315
0.2100023917
0.2100025075
0.210002668
0.2100028592
0.2100030671
0.2100032806
0.2100035034
0.2100037183
0.2100039613
0.2100040398
0.2100040625
0.2100041759
0.2100043625
0.2100045569
0.2100046889
0.2100047626
0.2100048746
0.210005111
0.2100053328
0.210005382
0.2100031461
0.2100030776
0.2100027484
0.2100022574
0.2100017276
0.2100013524
0.210001441
0.2100017404
0.2100020255
0.2100022197
0.2100022914
0.2100022732
0.2100022315
0.2100022241
0.2100022808
0.2100024044
0.2100025844
0.2100028061
0.2100030513
0.2100033024
0.2100035667
0.2100037557
0.21000397
0.2100039737
0.2100039463
0.210004035
0.2100042124
0.2100044371
0.2100046429
0.2100047738
0.2100048571
0.2100050415
0.2100052453
0.2100053164
0.2100028765
0.2100029032
0.2100026755
0.2100021893
0.2100016253
0.210001243
0.2100012728
0.2100015355
0.2100017965
0.2100019958
0.2100021305
0.2100021872
0.2100021884
0.2100021926
0.2100022506
0.2100023798
0.2100025719
0.2100028135
0.2100030874
0.2100033664
0.2100036563
0.210003736
0.2100038494
0.2100038387
0.2100038287
0.2100039204
0.2100040823
0.2100042829
0.2100045151
0.2100047082
0.2100048188
0.2100049732
0.2100051513
0.2100052334
0.2100025864
0.2100027469
0.2100027412
0.2100023916
0.2100018322
0.2100014171
0.2100013821
0.2100015186
0.2100016866
0.2100018389
0.2100020014
0.2100021286
0.2100021948
0.2100022338
0.2100023045
0.2100024396
0.2100026265
0.2100028604
0.2100031412
0.2100034311
0.2100037194
0.210003642
0.2100036227
0.210003632
0.2100036805
0.2100038097
0.210003978
0.2100041561
0.2100043709
0.2100045926
0.2100047514
0.2100049076
0.2100050778
0.2100051977
0.2100022697
0.2100025053
0.2100027383
0.2100027055
0.2100022691
0.2100017944
0.2100016626
0.2100015798
0.2100016511
0.2100017379
0.2100019112
0.2100020991
0.210002243
0.2100023407
0.2100024389
0.2100025749
0.2100027127
0.2100028833
0.2100031331
0.2100034181
0.210003685
0.2100035094
0.2100033824
0.210003402
0.2100035209
0.2100037084
0.2100039061
0.2100040843
0.2100042818
0.2100045003
0.2100046804
0.2100048495
0.2100050306
0.2100052007
0.2100019443
0.2100021863
0.2100025313
0.2100027613
0.210002619
0.2100021915
0.2100018789
0.210001675
0.2100017143
0.2100016848
0.2100018412
0.210002072
0.2100023008
0.210002486
0.2100026284
0.210002746
0.2100027603
0.210002803
0.2100029885
0.2100032648
0.2100035135
0.2100033618
0.2100031863
0.2100032116
0.2100033949
0.2100036578
0.2100039136
0.2100041233
0.210004316
0.2100044898
0.2100046413
0.2100048098
0.2100050067
0.2100052069
0.2100016636
0.2100018625
0.2100022479
0.2100026776
0.2100028132
0.2100025003
0.2100021237
0.2100018927
0.2100019064
0.2100016332
0.2100017511
0.2100020013
0.2100023114
0.210002612
0.2100028116
0.2100028724
0.2100026963
0.2100025904
0.2100027044
0.2100029757
0.2100032273
0.2100031958
0.2100030764
0.2100031145
0.2100033166
0.2100036047
0.2100039082
0.2100041884
0.2100043797
0.2100044804
0.2100045813
0.2100047493
0.2100049679
0.2100051767
0.2100014278
0.2100015514
0.2100019762
0.2100025011
0.2100029391
0.2100028191
0.2100024436
0.2100021133
0.2100022238
0.2100015542
0.2100016521
0.2100018786
0.2100022383
0.2100026577
0.2100029188
0.2100028667
0.2100025018
0.210002292
0.2100023577
0.2100026187
0.2100029063
0.2100030517
0.2100030947
0.2100031932
0.2100033725
0.2100035658
0.2100037718
0.2100039779
0.2100041077
0.2100041954
0.2100043315
0.2100045573
0.2100048373
0.2100050894
0.2100013849
0.2100012561
0.2100017557
0.210002295
0.2100029579
0.2100030335
0.2100027165
0.210002192
0.2100028805
0.2100015515
0.2100016309
0.2100017523
0.2100020982
0.2100025938
0.2100028915
0.2100027015
0.2100022363
0.2100019956
0.2100020405
0.2100022896
0.2100026277
0.2100029445
0.210003205
0.2100034516
0.2100037028
0.2100039606
0.2100041203
0.2100040623
0.2100039509
0.2100039371
0.2100040483
0.2100042875
0.210004621
0.2100049438
0.2100015015
0.2100009746
0.2100015528
0.2100020886
0.2100029007
0.2100030838
0.2100028385
0.210002132
0.2100045932
0.2100018805
0.2100017823
0.2100016899
0.2100019307
0.2100023885
0.2100027123
0.2100024492
0.2100020144
0.2100018074
0.2100018544
0.21000209
0.2100024473
0.2100028596
0.2100032625
0.2100036157
0.2100039076
0.2100041305
0.2100041047
0.210003899
0.2100037893
0.2100038036
0.2100038882
0.2100040799
0.2100044078
0.21000477
0.2100004615
0.2100008658
0.2100013312
0.2100018964
0.2100027582
0.2100030157
0.2100031079
0.2100022668
0.2100081496
0.2100035203
0.2100023208
0.2100017599
0.2100018154
0.2100021682
0.210002479
0.2100022722
0.2100019778
0.2100018463
0.2100019133
0.210002137
0.2100024667
0.2100028424
0.2100032173
0.2100035897
0.2100039229
0.2100041332
0.2100040935
0.210003909
0.2100038545
0.210003894
0.2100039546
0.2100040526
0.2100043092
0.210004632
0.2100007303
0.2100008725
0.2100012752
0.2100018375
0.2100026519
0.2100029901
0.2100025237
0.2100020377
0.2099984851
0.2100018336
0.2100015538
0.2100016895
0.2100019694
0.2100023714
0.2100026782
0.2100024986
0.210002321
0.2100022403
0.2100023411
0.2100025648
0.2100028726
0.2100032214
0.2100035704
0.2100038804
0.2100041009
0.210004124
0.2100044163
0.210004263
0.2100041221
0.2100041112
0.2100041454
0.2100041922
0.2100043732
0.2100045817
0.2100009325
0.2100010625
0.2100014416
0.2100019193
0.2100026434
0.2100030941
0.2100027558
0.2100022555
0.2100024214
0.2100018758
0.21000177
0.2100019425
0.2100022788
0.2100027135
0.2100030506
0.2100029715
0.2100031146
0.2100030567
0.2100031711
0.2100033306
0.2100034911
0.2100036925
0.2100039224
0.21000411
0.2100042897
0.2100042786
0.2100048126
0.2100049876
0.2100047841
0.2100045898
0.2100045171
0.2100045325
0.2100046275
0.2100046358
0.2100012121
0.2100013546
0.2100017093
0.2100021577
0.2100027708
0.2100032855
0.2100031124
0.2100026046
0.210002354
0.2100021284
0.2100021902
0.2100024245
0.2100028024
0.2100032315
0.2100036158
0.210003704
0.2100044541
0.2100044662
0.2100043743
0.2100044069
0.2100044137
0.210004375
0.2100043663
0.2100044473
0.2100046471
0.2100047558
0.2100044011
0.2100050909
0.2100055654
0.2100054088
0.210005154
0.2100050617
0.2100049752
0.2100047156
0.2100016146
0.2100017614
0.2100020953
0.210002511
0.2100030249
0.2100035007
0.2100034737
0.210003016
0.2100027631
0.210002551
0.2100026739
0.210002998
0.2100034229
0.2100038453
0.2100042163
0.2100045669
0.2100054138
0.2100055921
0.2100052191
0.2100049012
0.2100049109
0.2100049064
0.2100047628
0.2100047741
0.2100049141
0.2100051119
0.2100032857
0.2100038298
0.2100051457
0.2100058605
0.2100057557
0.2100053799
0.2100050627
0.2100047074
0.2100021057
0.2100022619
0.2100025735
0.2100029607
0.2100034003
0.2100037914
0.210003841
0.2100034439
0.2100031784
0.2100030712
0.2100033084
0.2100036841
0.2100040605
0.2100044726
0.2100052019
0.2100052392
0.2100066439
0.2100042335
0.2100051887
0.2100051094
0.2100049387
0.2100050819
0.2100050871
0.2100050503
0.2100048503
0.2100046357
0.2100029257
0.2100030038
0.210004085
0.2100052989
0.2100059507
0.2100056409
0.2100051362
0.2100047021
0.2100026413
0.2100028147
0.2100031018
0.2100034575
0.2100038217
0.2100041613
0.2100041706
0.210003873
0.2100036794
0.2100037049
0.2100039395
0.2100041054
0.2100042497
0.210004596
0.2100045125
0.2100032687
0.2100008624
0.2099987509
0.2100019813
0.2100042014
0.2100047218
0.2100048469
0.2100051165
0.2100051314
0.2100045418
0.210003821
0.2100030876
0.2100033449
0.2100041319
0.2100050463
0.2100055013
0.2100053191
0.2100050056
0.2100046488
0.210003168
0.2100033629
0.210003632
0.210003969
0.2100043026
0.210004567
0.2100044551
0.2100043752
0.2100041094
0.2100041128
0.2100040654
0.210003917
0.2100038679
0.2100040772
0.2100045734
0.2100048232
0.2100043196
0.2100044556
0.2100050731
0.2100051532
0.2100051861
0.2100051978
0.2100050976
0.210004992
0.2100048485
0.2100048563
0.2100038529
0.2100041976
0.2100049185
0.2100052296
0.2100052282
0.2100051037
0.2100049514
0.210004575
0.2100036837
0.2100038805
0.2100041191
0.2100044456
0.2100047137
0.2100047978
0.2100045716
0.2100044192
0.210004315
0.210004215
0.2100040326
0.2100036496
0.2100037121
0.2100038847
0.21000422
0.2100046514
0.2100049586
0.2100051127
0.2100050969
0.2100051276
0.2100051791
0.2100050882
0.2100048916
0.2100047291
0.2100046598
0.2100046216
0.2100044281
0.2100048759
0.2100051002
0.2100050893
0.210005095
0.2100050865
0.210004899
0.2100042712
0.210004178
0.2100043576
0.2100045458
0.2100048195
0.2100049699
0.2100048999
0.2100046699
0.210004572
0.2100044981
0.2100043725
0.2100041667
0.2100039333
0.2100038887
0.2100040424
0.2100043717
0.2100046636
0.2100051056
0.2100052158
0.210005167
0.2100051696
0.2100050679
0.2100048073
0.2100045957
0.2100045086
0.2100045002
0.2100045605
0.2100046643
0.2100048582
0.2100049375
0.2100050693
0.2100051369
0.2100049483
0.2100044625
0.2100041175
0.2100045689
0.2100047338
0.21000488
0.2100050479
0.2100050742
0.2100049378
0.2100047716
0.210004737
0.2100047103
0.2100046158
0.2100044639
0.2100042934
0.2100042561
0.2100043768
0.2100045816
0.2100047525
0.2100049778
0.2100050542
0.210005105
0.210005012
0.2100047324
0.2100044593
0.2100043038
0.2100042585
0.2100042988
0.2100043904
0.2100045338
0.2100047024
0.2100049181
0.2100051504
0.2100050305
0.2100046251
0.2100044295
0.2100043905
0.2100047712
0.2100048379
0.2100049993
0.2100051173
0.2100051686
0.2100051108
0.2100049744
0.2100048874
0.2100048988
0.2100048892
0.2100048174
0.2100047165
0.2100046267
0.2100045947
0.2100046213
0.2100046086
0.2100047005
0.2100048913
0.2100050403
0.2100050841
0.2100048913
0.2100046581
0.2100044368
0.210004281
0.2100042384
0.2100042853
0.2100043951
0.2100045534
0.2100047807
0.2100050815
0.2100051353
0.2100047549
0.2100045644
0.2100046188
0.210004584
0.2100049548
0.2100049916
0.2100051435
0.2100052739
0.210005242
0.2100051535
0.2100050542
0.2100050334
0.2100050556
0.2100050271
0.2100049409
0.2100048297
0.2100046095
0.2100045255
0.2100044986
0.2100042111
0.2100043173
0.2100045613
0.2100047555
0.2100048531
0.2100048086
0.210004705
0.2100046159
0.2100045547
0.2100045171
0.2100045317
0.2100046113
0.2100047557
0.2100049631
0.2100051719
0.2100049469
0.2100046882
0.2100045359
0.2100045296
0.210004465
0.210005075
0.2100051066
0.2100052641
0.2100053708
0.2100053469
0.2100052972
0.2100052622
0.2100052565
0.2100052114
0.2100051045
0.2100049558
0.2100047889
0.2100046013
0.2100044032
0.2100042003
0.2100040234
0.2100040842
0.2100043351
0.2100044951
0.2100045753
0.2100045965
0.2100046036
0.2100046287
0.2100046624
0.2100046906
0.2100047125
0.2100047366
0.2100047863
0.2100048833
0.2100050025
0.210004911
0.2100046757
0.2100043473
0.2100041521
0.2100040206
0.2100052064
0.2100053349
0.2100054992
0.2100057208
0.2100055711
0.2100054948
0.2100054211
0.2100053695
0.2100053101
0.2100052382
0.2100051451
0.2100050083
0.2100048236
0.2100046512
0.2100045182
0.2100044278
0.2100045768
0.2100046681
0.2100044905
0.2100043764
0.2100043827
0.2100044281
0.2100045323
0.2100046484
0.2100047393
0.2100047907
0.2100047949
0.210004767
0.2100047347
0.2100047399
0.2100047643
0.2100046478
0.2100042329
0.2100040133
0.2100038285
0.2100056781
0.2100057054
0.2100056141
0.2100054903
0.2100054008
0.2100053145
0.2100052393
0.2100051667
0.210005116
0.2100050926
0.2100050726
0.2100050288
0.2100049254
0.2100047989
0.2100046909
0.2100046313
0.2100044931
0.2100042873
0.2100040891
0.2100040851
0.2100041856
0.2100043522
0.2100045285
0.210004673
0.2100047564
0.2100047737
0.2100047444
0.2100046842
0.2100046344
0.2100046162
0.210004521
0.2100042612
0.210004195
0.2100040783
0.2100059725
0.2100057776
0.2100056758
0.2100055428
0.2100054188
0.2100052917
0.2100051638
0.2100050261
0.2100049289
0.2100048888
0.2100048764
0.21000489
0.2100045121
0.2100045686
0.2100045711
0.2100045488
0.2100045115
0.2100044449
0.2100044778
0.2100043946
0.2100042146
0.2100043193
0.2100042774
0.2100057357
0.2100056316
0.2100054453
0.2100053029
0.2100051436
0.2100049486
0.2100041188
0.210004115
0.2100040739
0.2100039916
0.2100038848
0.2100037673
0.2100037912
0.2100037113
0.2100036132
0.2100034811
0.2100033635
0.2100032951
0.210003258
0.2100032468
0.2100032612
0.2100033007
0.2100033635
0.2100034475
0.2100035501
0.2100036691
0.2100037993
0.2100039456
0.2100040984
0.2100042671
0.2100043642
0.210004512
0.2100047256
0.2100047497
0.2100047183
0.2100049031
0.2100051714
0.2100054798
0.210005776
0.2100059292
0.2100038485
0.2100038159
0.2100037244
0.2100035876
0.2100034419
0.2100033316
0.2100032678
0.2100032229
0.2100031425
0.2100030328
0.2100029386
0.2100028751
0.2100028493
0.2100028619
0.2100029124
0.2100029982
0.2100031146
0.2100032548
0.2100034113
0.210003576
0.2100037426
0.2100039041
0.2100040745
0.2100041737
0.2100043439
0.2100044647
0.2100045573
0.2100045468
0.2100046898
0.2100049053
0.2100051353
0.2100054019
0.2100056107
0.2100056879
0.2100036149
0.2100035946
0.2100035018
0.2100033403
0.2100030639
0.2100028623
0.210002795
0.2100028152
0.2100027584
0.2100026717
0.2100025825
0.210002515
0.2100024862
0.2100025042
0.2100025722
0.2100026885
0.2100028473
0.2100030393
0.2100032522
0.2100034725
0.2100036895
0.2100038956
0.2100040898
0.2100042863
0.2100043669
0.2100044534
0.2100045307
0.2100045923
0.2100046928
0.2100048302
0.2100050561
0.2100053433
0.2100055668
0.2100058474
0.2100033297
0.2100033357
0.2100032475
0.2100029797
0.2100025224
0.2100022574
0.2100021997
0.2100023587
0.2100023847
0.2100023472
0.2100022804
0.2100022191
0.2100021884
0.2100022062
0.2100022818
0.2100024166
0.2100026058
0.2100028391
0.210003101
0.210003373
0.2100036405
0.2100038923
0.2100041507
0.2100044838
0.2100044858
0.2100045497
0.2100045869
0.2100046139
0.210004665
0.2100047742
0.2100049647
0.2100052203
0.210005394
0.2100054003
0.210002977
0.2100030031
0.2100028984
0.2100025224
0.2100020135
0.2100017264
0.2100016399
0.2100018353
0.2100019775
0.2100020207
0.2100020043
0.2100019735
0.2100019561
0.2100019797
0.2100020604
0.2100022059
0.2100024152
0.2100026792
0.2100029805
0.210003295
0.2100036006
0.2100038661
0.2100041024
0.2100043095
0.2100044594
0.2100045879
0.210004659
0.2100046623
0.2100046533
0.2100047293
0.2100048947
0.2100051411
0.2100053171
0.2100053599
0.2100025865
0.2100026284
0.2100025266
0.2100021572
0.2100016772
0.2100013859
0.2100012688
0.210001419
0.2100015886
0.2100016917
0.21000174
0.2100017631
0.2100017835
0.210001828
0.2100019185
0.2100020711
0.2100022904
0.210002573
0.2100029048
0.2100032528
0.2100035836
0.2100038438
0.210004058
0.2100042474
0.2100044163
0.2100045735
0.2100046822
0.2100047046
0.2100046616
0.2100046909
0.2100048252
0.2100050475
0.2100052099
0.2100052625
0.210002187
0.2100022476
0.2100022082
0.2100019404
0.2100015374
0.2100012483
0.210001102
0.2100011795
0.2100013135
0.2100014281
0.2100015224
0.2100016026
0.2100016734
0.210001751
0.2100018561
0.2100020108
0.210002227
0.2100025119
0.2100028601
0.2100032273
0.2100035597
0.2100037866
0.2100039339
0.210004071
0.2100042434
0.210004444
0.2100046078
0.2100046699
0.2100046364
0.210004642
0.2100047691
0.2100049695
0.2100051345
0.2100052331
0.2100017947
0.2100018805
0.2100019431
0.2100018253
0.2100015405
0.2100012664
0.2100011016
0.2100010966
0.2100011673
0.2100012559
0.2100013717
0.2100015017
0.2100016273
0.2100017479
0.2100018675
0.210002012
0.2100022025
0.2100024632
0.2100028039
0.2100031689
0.2100034712
0.2100036348
0.210003705
0.2100038138
0.2100040116
0.2100042654
0.2100044801
0.2100045843
0.2100045804
0.2100045977
0.210004721
0.2100049097
0.2100050926
0.2100052465
0.210001427
0.2100015389
0.2100016807
0.210001736
0.2100016121
0.2100013941
0.2100012051
0.2100011124
0.210001113
0.2100011539
0.2100012748
0.2100014501
0.2100016362
0.2100018127
0.2100019399
0.2100020501
0.2100021811
0.2100023826
0.2100026787
0.210003016
0.2100032623
0.2100033757
0.210003428
0.2100035577
0.2100038047
0.210004114
0.2100043744
0.2100045045
0.21000452
0.2100045582
0.210004681
0.2100048673
0.2100050732
0.2100052614
0.2100010981
0.2100012301
0.210001437
0.2100016174
0.2100016711
0.210001545
0.2100013394
0.2100011616
0.2100010954
0.2100010789
0.2100011985
0.210001421
0.210001677
0.2100019342
0.2100020497
0.2100020893
0.2100021244
0.2100022358
0.2100024626
0.2100027468
0.2100029679
0.2100030992
0.2100032064
0.2100033975
0.2100036955
0.2100040258
0.2100042812
0.2100044019
0.2100044598
0.2100045223
0.2100046371
0.2100048236
0.2100050516
0.2100052291
0.2100008059
0.2100009592
0.2100012256
0.2100015092
0.2100017157
0.2100016844
0.2100014541
0.2100011803
0.2100010283
0.2100009893
0.210001108
0.2100013822
0.2100017139
0.2100020922
0.2100021468
0.2100020875
0.2100020106
0.2100020261
0.2100021835
0.2100024341
0.210002683
0.2100028984
0.210003116
0.2100033996
0.2100037499
0.2100040792
0.2100042701
0.2100043353
0.2100043835
0.2100044467
0.2100045583
0.2100047484
0.2100049818
0.2100051538
0.2100005095
0.2100007215
0.2100010494
0.2100014158
0.2100017455
0.2100018051
0.2100015056
0.2100011123
0.2100007503
0.2100008787
0.2100009866
0.2100013081
0.2100016923
0.2100022244
0.2100021619
0.2100020131
0.2100018576
0.2100018147
0.2100019347
0.2100021847
0.2100024957
0.210002821
0.210003158
0.2100035153
0.2100038577
0.2100041071
0.210004244
0.2100043009
0.210004346
0.2100044186
0.2100045334
0.2100046971
0.2100048911
0.2100050564
0.2099998675
0.210000516
0.2100009108
0.2100013411
0.210001753
0.2100018601
0.2100014829
0.2100010205
0.2100000765
0.2100008728
0.2100008568
0.2100011854
0.2100015248
0.210001954
0.2100019698
0.2100018607
0.2100017299
0.2100016995
0.2100018259
0.210002095
0.2100024631
0.2100028829
0.2100033144
0.2100037052
0.210004
0.2100041964
0.2100042698
0.2100042951
0.2100043535
0.2100044569
0.2100046131
0.2100047428
0.2100048516
0.2100049635
0.2099999639
0.2100004872
0.2100008513
0.2100013079
0.2100017411
0.2100018173
0.2100012368
0.2100008034
0.2099949363
0.2100009701
0.2100006441
0.210001099
0.2100014091
0.2100017205
0.2100018145
0.2100017822
0.2100017463
0.2100017763
0.2100019343
0.2100022225
0.2100026176
0.2100030741
0.210003502
0.2100038203
0.2100040589
0.2100042146
0.2100042573
0.2100042661
0.2100043448
0.2100045129
0.2100047195
0.2100048696
0.2100048908
0.2100049005
0.2100004335
0.2100005958
0.2100009488
0.2100014032
0.2100018548
0.2100019735
0.2100013293
0.210000842
0.2099966749
0.210000505
0.2100007021
0.2100012147
0.2100015285
0.2100018365
0.2100019646
0.210001986
0.2100020618
0.2100021252
0.2100022948
0.2100025728
0.2100029405
0.2100033466
0.2100036943
0.2100039541
0.2100041636
0.2100042746
0.2100042664
0.210004294
0.2100044069
0.2100046075
0.2100048533
0.2100050002
0.2100049652
0.2100048749
0.2100006809
0.2100008585
0.2100011899
0.2100016276
0.2100020911
0.2100023352
0.2100019571
0.2100015097
0.2100009575
0.2100014178
0.2100012949
0.2100016438
0.2100019286
0.2100021835
0.2100023398
0.2100024104
0.2100027135
0.2100027398
0.2100028711
0.2100031013
0.2100033859
0.2100036825
0.2100039437
0.2100041346
0.2100043401
0.2100044563
0.2100044615
0.2100045038
0.210004625
0.2100048204
0.2100050283
0.2100051015
0.2100050427
0.2100048864
0.2100010788
0.210001249
0.2100015664
0.2100019928
0.2100024658
0.2100027995
0.2100026123
0.2100022035
0.2100015785
0.2100019251
0.2100019371
0.2100022624
0.2100025419
0.2100027961
0.2100030948
0.2100031566
0.2100039346
0.2100036419
0.2100036748
0.2100038051
0.2100039587
0.2100041113
0.2100042626
0.2100044099
0.2100046332
0.2100047417
0.2100050183
0.2100049056
0.2100049379
0.2100050309
0.2100051435
0.2100051663
0.2100051088
0.2100049172
0.2100015963
0.2100017716
0.210002078
0.2100024856
0.2100029436
0.2100032835
0.2100032408
0.2100029347
0.2100026055
0.2100026662
0.2100027303
0.2100029475
0.2100031727
0.2100033793
0.2100037059
0.2100038572
0.2100052094
0.21000447
0.2100042366
0.2100042133
0.210004243
0.2100042815
0.2100044063
0.21000461
0.2100049047
0.2100049276
0.2100054196
0.2100054883
0.2100055229
0.2100052838
0.2100052526
0.2100052046
0.2100051121
0.2100049171
0.2100022229
0.2100024072
0.2100027024
0.210003082
0.2100034968
0.2100037645
0.2100037569
0.21000356
0.2100033078
0.2100033297
0.2100033922
0.2100035133
0.2100036394
0.2100037471
0.210004613
0.2100040857
0.2100083914
0.210005799
0.2100049858
0.2100046465
0.2100045428
0.2100045124
0.2100046263
0.2100048516
0.2100051586
0.2100050798
0.2100055943
0.2100058021
0.2100059811
0.2100055278
0.210005311
0.2100051808
0.2100050681
0.2100048943
0.2100029091
0.2100031055
0.2100033827
0.2100037141
0.2100040256
0.2100042146
0.21000415
0.2100040386
0.2100037949
0.2100038107
0.2100037963
0.2100037263
0.2100036177
0.2100036686
0.2100038718
0.2100037067
0.2100034999
0.2100045795
0.2100046288
0.2100048157
0.210004815
0.210004768
0.2100048397
0.2100049526
0.2100050956
0.2100052018
0.2100053174
0.2100052977
0.2100052494
0.2100051456
0.2100051708
0.2100051035
0.210005011
0.2100048627
0.2100035695
0.2100037842
0.2100040388
0.2100043081
0.2100045313
0.2100046634
0.210004526
0.2100056333
0.2100041493
0.210004137
0.2100038783
0.2100035952
0.2100034265
0.2100034844
0.2100038782
0.2100037377
0.2100039276
0.2100040721
0.2100042259
0.2100045971
0.2100048748
0.2100049634
0.2100050411
0.2100051081
0.2100051223
0.2100051875
0.2100054114
0.2100052914
0.210005164
0.2100050794
0.2100051152
0.2100050685
0.2100050122
0.2100048505
0.2100040981
0.2100043259
0.2100045432
0.2100047333
0.210004853
0.2100048198
0.2100045813
0.2100044998
0.2100042949
0.2100041678
0.2100038651
0.2100035426
0.2100033632
0.2100034801
0.2100038027
0.2100042012
0.2100043962
0.2100045216
0.2100046963
0.2100048699
0.2100049628
0.2100049617
0.2100049267
0.2100048753
0.2100048608
0.2100048396
0.21000487
0.2100049723
0.2100050503
0.2100050866
0.2100051256
0.2100051182
0.2100050507
0.2100047745
0.2100045335
0.2100047013
0.2100048598
0.2100049711
0.2100050091
0.2100049101
0.2100047003
0.2100046254
0.2100045059
0.210004331
0.2100039904
0.2100037072
0.2100036452
0.2100037893
0.2100041483
0.2100044833
0.2100047452
0.210004805
0.2100049288
0.2100049889
0.2100049367
0.2100047716
0.2100046281
0.2100045819
0.2100046121
0.2100046988
0.2100048303
0.2100049877
0.2100051169
0.2100052112
0.2100052336
0.2100051456
0.2100049594
0.2100048858
0.2100048257
0.2100049513
0.2100050558
0.2100050867
0.2100050559
0.2100049451
0.2100048093
0.2100047891
0.2100047813
0.2100046617
0.2100044295
0.2100042454
0.2100041871
0.2100042958
0.2100045081
0.2100046904
0.2100048436
0.2100049426
0.210005018
0.2100049044
0.2100046597
0.2100044028
0.2100042584
0.2100042413
0.21000433
0.2100044841
0.2100046909
0.2100049268
0.2100051479
0.2100053222
0.2100053057
0.2100051597
0.2100051976
0.2100052477
0.2100050362
0.2100050255
0.2100051308
0.2100051971
0.2100051618
0.2100050841
0.2100049886
0.2100049359
0.2100049745
0.21000499
0.2100049052
0.2100047543
0.2100046182
0.2100045503
0.2100045438
0.2100045609
0.2100046362
0.210004828
0.2100049911
0.2100050149
0.2100048317
0.2100045736
0.2100043284
0.2100042012
0.2100042061
0.2100043162
0.2100045086
0.2100047536
0.2100050103
0.2100052612
0.2100054
0.2100053449
0.2100054146
0.2100054503
0.2100052755
0.2100052359
0.2100051807
0.2100052632
0.2100053449
0.2100052502
0.2100051552
0.2100050851
0.2100050829
0.2100051128
0.2100050793
0.210004967
0.2100048128
0.210004631
0.2100044932
0.2100043853
0.2100042755
0.210004281
0.2100044994
0.2100047065
0.2100048112
0.2100047862
0.2100046682
0.2100045535
0.2100044998
0.21000452
0.2100046038
0.2100047381
0.2100049125
0.2100051149
0.2100053143
0.2100053342
0.2100053024
0.2100053318
0.2100053788
0.2100052433
0.2100053416
0.2100052936
0.2100053681
0.2100054462
0.210005388
0.2100053236
0.2100052913
0.2100052921
0.2100052545
0.2100051521
0.2100050048
0.2100048313
0.2100046482
0.2100044648
0.2100042838
0.2100041336
0.2100041008
0.2100042386
0.2100043699
0.2100045175
0.2100046068
0.2100046527
0.2100047037
0.2100047577
0.2100048087
0.210004857
0.2100049142
0.2100049926
0.2100050933
0.2100051964
0.2100051805
0.2100050698
0.210004913
0.2100050054
0.2100050654
0.2100054772
0.2100055005
0.2100056122
0.2100060791
0.2100056268
0.2100055583
0.2100054694
0.2100054114
0.210005337
0.2100052413
0.2100051241
0.2100049814
0.2100048145
0.2100046419
0.2100044917
0.210004323
0.2100042701
0.2100042558
0.2100041818
0.2100041903
0.2100043426
0.2100044167
0.2100045903
0.2100047826
0.210004946
0.2100050462
0.2100050766
0.2100050494
0.2100049995
0.2100049734
0.2100049455
0.210004839
0.2100046152
0.2100046503
0.2100048411
0.2100057752
0.2100057629
0.2100056482
0.2100055052
0.2100054251
0.210005367
0.2100053131
0.2100052528
0.2100051942
0.2100051373
0.2100050699
0.2100049811
0.2100048661
0.2100047473
0.2100046342
0.210004528
0.2100043187
0.2100040414
0.2100038923
0.2100039143
0.2100040812
0.2100043461
0.2100046277
0.2100048641
0.2100050177
0.2100050681
0.2100050285
0.2100049376
0.2100048737
0.2100047861
0.2100046831
0.2100045413
0.2100046671
0.2100049327
0.2100059337
0.2100057666
0.2100056383
0.2100054951
0.2100054069
0.2100053194
0.2100052304
0.2100051392
0.2100050699
0.2100050278
0.2100049967
0.2100049663
0.2100047283
0.2100048351
0.2100048565
0.2100048258
0.2100047446
0.2100047689
0.2100046859
0.2100045852
0.2100045113
0.2100047359
0.2100050001
0.2100056219
0.2100055229
0.2100054222
0.2100053155
0.2100051908
0.2100050569
0.2100042236
0.2100042133
0.2100041752
0.2100041115
0.2100040338
0.2100039476
0.2100038969
0.2100038074
0.2100036918
0.2100035529
0.2100034369
0.2100033704
0.2100033377
0.2100033334
0.2100033559
0.2100034041
0.2100034763
0.2100035701
0.2100036822
0.2100038087
0.2100039442
0.2100040845
0.2100042245
0.2100043089
0.210004446
0.2100045489
0.2100046051
0.2100045124
0.2100047258
0.2100049366
0.2100052221
0.2100055352
0.2100058307
0.2100059466
0.2100039134
0.2100038781
0.210003802
0.2100036838
0.2100035414
0.2100034127
0.2100033288
0.2100032523
0.2100031362
0.2100030206
0.2100029248
0.2100028621
0.210002839
0.2100028576
0.2100029178
0.2100030176
0.2100031526
0.2100033162
0.2100034997
0.2100036933
0.2100038874
0.2100040768
0.2100042467
0.2100044926
0.2100045159
0.2100045743
0.2100046367
0.2100046851
0.2100047343
0.2100050205
0.2100052231
0.2100054599
0.210005648
0.2100057401
0.2100035931
0.2100035591
0.2100034552
0.2100032559
0.2100029917
0.2100027935
0.210002711
0.2100027089
0.2100026495
0.2100025597
0.2100024721
0.2100024098
0.2100023875
0.2100024137
0.2100024922
0.210002623
0.2100028023
0.2100030219
0.2100032696
0.2100035302
0.2100037878
0.2100040296
0.2100042579
0.2100044221
0.210004474
0.2100045777
0.2100046515
0.2100047314
0.2100048319
0.2100049784
0.2100051784
0.2100054024
0.2100055892
0.2100054182
0.2100031803
0.2100031502
0.2100030054
0.2100026935
0.210002316
0.2100020725
0.2100019919
0.2100020831
0.2100021342
0.2100021105
0.2100020548
0.2100020059
0.2100019893
0.2100020208
0.2100021094
0.210002259
0.2100024679
0.2100027286
0.2100030277
0.2100033462
0.2100036641
0.2100039709
0.2100043249
0.2100043654
0.2100043081
0.210004534
0.2100046304
0.2100047084
0.2100047843
0.21000493
0.2100050887
0.2100052904
0.2100053983
0.2100053026
0.210002676
0.2100026382
0.210002453
0.2100020769
0.2100016615
0.2100014086
0.2100013238
0.2100014504
0.2100015903
0.2100016552
0.2100016621
0.2100016506
0.2100016557
0.2100016997
0.210001797
0.2100019578
0.2100021843
0.2100024711
0.2100028062
0.2100031665
0.2100035211
0.2100038377
0.2100040895
0.210004213
0.2100043499
0.2100045508
0.2100046378
0.2100046963
0.2100047407
0.2100050484
0.2100050283
0.2100052309
0.2100053469
0.2100053461
0.2100021382
0.2100020913
0.2100019003
0.2100015475
0.2100011648
0.2100009269
0.2100008377
0.2100009464
0.2100011119
0.2100012341
0.2100013021
0.2100013437
0.2100013865
0.2100014535
0.2100015622
0.2100017293
0.210001964
0.2100022664
0.2100026242
0.2100030122
0.2100033867
0.2100037066
0.2100039566
0.2100041564
0.210004343
0.2100044993
0.2100045953
0.2100046459
0.2100046949
0.210004929
0.2100049167
0.2100051119
0.2100052306
0.2100052607
0.2100016224
0.2100015834
0.2100014433
0.21000117
0.2100008553
0.2100006416
0.2100005501
0.2100006234
0.2100007666
0.2100009021
0.2100010107
0.2100011025
0.2100011896
0.2100012884
0.2100014087
0.2100015753
0.2100018052
0.2100021063
0.2100024724
0.2100028692
0.2100032342
0.2100035223
0.2100037442
0.2100039543
0.2100041785
0.2100043893
0.210004509
0.2100045595
0.2100045978
0.2100046947
0.2100048262