/*--------------------------------*- C++ -*----------------------------------*\
  =========                 |
  \\      /  F ield         | OpenFOAM: The Open Source CFD Toolbox
   \\    /   O peration     | Website:  https://openfoam.org
    \\  /    A nd           | Version:  8
     \\/     M anipulation  |
\*---------------------------------------------------------------------------*/
FoamFile
{
    version     2.0;
    format      ascii;
    class       volScalarField;
    location    "0.9";
    object      T;
}
// * * * * * * * * * * * * * * * * * * * * * * * * * * * * * * * * * * * * * //

dimensions      [0 0 0 1 0 0 0];

internalField   nonuniform List<scalar> 
67193
(
300.0029667
300.002957
300.0029454
300.0029518
300.0029768
300.0029818
300.0029626
300.0029503
300.0029657
300.0029585
300.0029508
300.002944
300.0029409
300.0029394
300.0029388
300.0029386
300.0029388
300.0029395
300.0029415
300.0029449
300.0029541
300.0029469
300.0030187
300.0028757
300.0030225
300.0030586
300.0031106
300.003208
300.0030643
300.0029833
300.0029428
300.0029041
300.0028674
300.0028538
300.0030147
300.0029882
300.0029608
300.002965
300.0029919
300.0030104
300.0029072
300.0028904
300.002909
300.0029207
300.0029318
300.0029406
300.0029493
300.002957
300.0029642
300.0029714
300.0029789
300.0029868
300.0029951
300.0030034
300.0030136
300.0030166
300.0030431
300.0030018
300.0030337
300.0030541
300.0030731
300.0030817
300.0030516
300.0030192
300.0029988
300.0029958
300.0030098
300.0030051
300.0029997
300.0029738
300.0029516
300.0029597
300.0029832
300.0030101
300.0028603
300.0028229
300.0028292
300.0028508
300.0028748
300.002894
300.0029093
300.0029217
300.0029325
300.0029433
300.0029548
300.0029671
300.0029804
300.0029936
300.0030079
300.0030158
300.0030275
300.0030283
300.0030293
300.0030317
300.003039
300.0030454
300.0030424
300.003029
300.0030185
300.0030406
300.0031023
300.0031272
300.0029602
300.0029429
300.0029303
300.0029413
300.0029581
300.0029885
300.0028367
300.0027852
300.0027757
300.0027943
300.002822
300.0028474
300.0028678
300.002884
300.0028974
300.0029101
300.0029233
300.0029372
300.0029527
300.0029673
300.0029839
300.0029857
300.0029961
300.003011
300.0030055
300.003008
300.0030165
300.0030268
300.0030333
300.0030312
300.0030227
300.0030449
300.0031098
300.0031221
300.0029143
300.0029098
300.0029022
300.0029112
300.0029295
300.0029669
300.0028131
300.0027625
300.0027519
300.002764
300.0027863
300.0028107
300.0028332
300.0028519
300.0028668
300.0028799
300.0028927
300.0029058
300.002921
300.002933
300.0029482
300.0029354
300.0029409
300.0029752
300.0029942
300.0030061
300.0030142
300.0030203
300.0030277
300.0030328
300.0030256
300.0030522
300.0031241
300.0031445
300.0028739
300.0028836
300.002878
300.0028858
300.0029089
300.0029483
300.0027978
300.0027581
300.0027556
300.002764
300.0027772
300.0027948
300.0028152
300.0028343
300.0028492
300.0028612
300.0028715
300.0028815
300.0028945
300.002901
300.0029142
300.0028962
300.0029078
300.0029633
300.002998
300.0030183
300.0030292
300.0030284
300.0030262
300.0030267
300.0030201
300.0030482
300.0031169
300.0031267
300.0028384
300.0028625
300.0028571
300.0028594
300.0028743
300.0029002
300.0027896
300.0027811
300.0027857
300.002787
300.0027908
300.0028004
300.0028162
300.0028335
300.0028465
300.0028551
300.002861
300.0028661
300.0028758
300.0028747
300.0028879
300.002887
300.0029077
300.0029604
300.0029984
300.0030246
300.0030388
300.0030361
300.0030238
300.0030155
300.0030096
300.0030369
300.0030994
300.0030919
300.002808
300.0028412
300.0028449
300.0028349
300.0028134
300.0028082
300.0028103
300.0028361
300.0028347
300.0028238
300.0028214
300.0028258
300.0028372
300.0028516
300.0028598
300.0028625
300.0028631
300.0028634
300.0028687
300.0028602
300.0028753
300.0029092
300.002931
300.0029642
300.0029968
300.0030237
300.0030383
300.003034
300.0030168
300.0030018
300.002993
300.0030168
300.0030679
300.0030361
300.0027906
300.0028179
300.0028389
300.0028493
300.0028381
300.0028285
300.002862
300.0028841
300.00289
300.0028748
300.0028722
300.0028731
300.0028801
300.0028904
300.0028897
300.0028839
300.0028804
300.0028766
300.0028762
300.0028628
300.0028775
300.0029365
300.0029583
300.0029754
300.0029944
300.0030143
300.0030252
300.003018
300.0029997
300.0029793
300.0029685
300.002986
300.0030202
300.0029759
300.0028046
300.0028031
300.0028318
300.0028655
300.0028821
300.0028833
300.0029082
300.0029271
300.0029896
300.0029529
300.0029503
300.0029439
300.0029451
300.0029509
300.0029347
300.0029183
300.0029134
300.0029035
300.002895
300.0028809
300.0028903
300.002947
300.0029787
300.0029915
300.0029958
300.0029931
300.00298
300.002967
300.0029597
300.0029548
300.0029521
300.0029567
300.002969
300.0029322
300.0028362
300.0027918
300.0028277
300.0028639
300.0029005
300.002909
300.0029476
300.0029754
300.0032088
300.0030632
300.0030639
300.0030339
300.003025
300.0030282
300.0029885
300.0029606
300.0029551
300.002936
300.0029177
300.002904
300.0029062
300.0029435
300.0029834
300.0030115
300.0030281
300.0030225
300.0029899
300.0029633
300.0029621
300.0029713
300.0029705
300.002957
300.0029467
300.0029141
300.0029629
300.0027808
300.0028427
300.0028622
300.0029167
300.002945
300.00304
300.0030619
300.0036663
300.0032216
300.0032239
300.003134
300.0031012
300.0031008
300.0030325
300.0029979
300.0029945
300.0029691
300.0029437
300.0029271
300.0029235
300.0029348
300.0029547
300.0029755
300.0029835
300.0029806
300.0029893
300.0030198
300.0030504
300.0030586
300.0030448
300.0030115
300.0029775
300.0029264
300.0030154
300.0027525
300.0028549
300.0028602
300.0029345
300.0030011
300.0032048
300.0031349
300.0044209
300.0034908
300.0034453
300.003242
300.0031516
300.003116
300.0030407
300.0030175
300.0030255
300.0030041
300.0029778
300.0029583
300.002949
300.002947
300.0029434
300.0029372
300.0029278
300.002945
300.003037
300.0031072
300.0031373
300.0031412
300.0031248
300.0030859
300.0030399
300.0029648
300.0026063
300.0027774
300.0028317
300.0028585
300.0029441
300.0030487
300.0034679
300.0029888
300.0033957
300.0041528
300.003792
300.0033493
300.003166
300.0030821
300.0030159
300.003025
300.0030539
300.0030449
300.0030231
300.0030058
300.0029996
300.0030034
300.0030048
300.0029996
300.0029722
300.0030265
300.0031571
300.0031985
300.0032078
300.0032055
300.0031907
300.0031526
300.0031028
300.0030128
300.0028159
300.0028095
300.0028286
300.0028613
300.0029235
300.0029663
300.0030071
300.0027634
300.0009838
300.0030187
300.0031754
300.0031727
300.0031214
300.0030785
300.0030481
300.0030682
300.0031065
300.0030929
300.0030653
300.0030433
300.0030313
300.0030268
300.0030187
300.0030095
300.0029472
300.0030869
300.0031231
300.0031936
300.0032261
300.0032343
300.0032265
300.0031939
300.0031458
300.0030547
300.0028403
300.0028285
300.0028455
300.0028537
300.002905
300.0029092
300.0029672
300.0030102
300.0030412
300.003207
300.0031443
300.0030897
300.0030578
300.0030482
300.0030617
300.003119
300.0032262
300.0031893
300.0031185
300.0030695
300.0030341
300.003011
300.0029908
300.0029775
300.0029212
300.0031038
300.0029089
300.0030325
300.0031569
300.0032254
300.0032416
300.0032101
300.0031652
300.0030907
300.0028321
300.0028365
300.0028533
300.0028689
300.0029131
300.0029063
300.0029374
300.0029725
300.0030336
300.0031061
300.0030819
300.0030517
300.0030495
300.0030768
300.0031576
300.0032488
300.0034307
300.0033058
300.0031899
300.003111
300.0030604
300.0030296
300.0029993
300.0030034
300.0028876
300.0029887
300.0026941
300.0026614
300.0028644
300.0030537
300.0031335
300.0031439
300.0031654
300.0031404
300.0028424
300.0028543
300.0028753
300.0028977
300.0029396
300.0029295
300.0029097
300.002945
300.0030175
300.0030494
300.0030266
300.0030154
300.0030507
300.0031389
300.0032394
300.0033414
300.0033952
300.0029712
300.0030079
300.0030249
300.0030501
300.0030736
300.0030514
300.003055
300.0028305
300.0028736
300.0025784
300.0023708
300.0024505
300.0027257
300.0029568
300.0031001
300.0031955
300.0031827
300.0028669
300.0028852
300.0029133
300.0029438
300.0029911
300.0029781
300.0029223
300.0029435
300.0029969
300.0030265
300.0030185
300.0030651
300.0031872
300.0033612
300.0036493
300.0034029
300.0041647
300.0023761
300.0025959
300.0028277
300.0029625
300.003083
300.003147
300.0031449
300.0027744
300.0028832
300.0027578
300.0024803
300.0023532
300.0023951
300.0027445
300.0030717
300.0032459
300.003227
300.0029057
300.0029298
300.0029645
300.0029994
300.003035
300.0030291
300.0029493
300.0029787
300.0030119
300.0030684
300.0031199
300.0031972
300.0032789
300.0032885
300.0030276
300.0027435
300.00294
300.0015523
300.0016567
300.0022164
300.0026644
300.0029291
300.0031149
300.003131
300.0027901
300.0029637
300.0029945
300.0027206
300.0025089
300.0025116
300.0027992
300.0030949
300.0032456
300.0032139
300.0029505
300.0029813
300.0030238
300.0030594
300.0030897
300.0030799
300.0030039
300.0031282
300.0031119
300.003184
300.0032191
300.0032393
300.0032637
300.0033118
300.0033595
300.0033133
300.0030547
300.0026581
300.0028892
300.003064
300.0031587
300.0031994
300.0032029
300.0032401
300.0031907
300.0031709
300.0027742
300.0025829
300.0026691
300.0028383
300.0030242
300.0031716
300.0032329
300.003128
300.0029891
300.0030273
300.003077
300.0031134
300.0031336
300.0030958
300.0030462
300.0031225
300.0031874
300.0032296
300.0032398
300.0031869
300.0032246
300.0032415
300.0032354
300.0032616
300.0030362
300.002899
300.0030181
300.0031082
300.0031462
300.0031671
300.0032239
300.003256
300.0032494
300.0032137
300.0028827
300.0029034
300.0030332
300.0031039
300.0031052
300.0031034
300.0030776
300.0030048
300.0030286
300.0030634
300.0031228
300.0031657
300.003178
300.003126
300.0031107
300.0031867
300.0032319
300.0032447
300.0032375
300.0032221
300.0032361
300.0032379
300.0032534
300.0032673
300.0032219
300.0031817
300.0031471
300.0031229
300.0031718
300.003257
300.0032954
300.0033106
300.003308
300.0033242
300.003203
300.0032404
300.0032643
300.0032174
300.003116
300.0030158
300.0030153
300.0031039
300.0030742
300.0030908
300.0031627
300.0032117
300.0032115
300.0031477
300.0031431
300.0031987
300.003231
300.003238
300.0032345
300.0032245
300.0032349
300.0032343
300.0032201
300.0032097
300.0031885
300.0031027
300.0030421
300.0030949
300.0032097
300.0032682
300.0032928
300.0033027
300.0033056
300.0033063
300.0032959
300.0032926
300.0032638
300.00317
300.0030345
300.0030315
300.0031413
300.0032191
300.003164
300.0031185
300.0031211
300.0031998
300.0032382
300.0032143
300.0031401
300.0031314
300.0031647
300.0031863
300.0031975
300.0032069
300.0032134
300.0032127
300.003189
300.0031451
300.0031053
300.0030643
300.0029714
300.0029509
300.003075
300.0031689
300.0032218
300.0032571
300.0032756
300.0032808
300.0032808
300.0032725
300.0032594
300.0032074
300.0030523
300.0030527
300.0031517
300.0032365
300.0032791
300.0032051
300.0031583
300.0031407
300.0032173
300.0032182
300.0031629
300.0030861
300.0030747
300.003094
300.0031088
300.0031193
300.003132
300.0031156
300.003129
300.0031457
300.0032034
300.0031718
300.0031243
300.0030616
300.0030477
300.0031257
300.0031901
300.0032045
300.0031953
300.0031857
300.0031762
300.0031656
300.0031554
300.0031421
300.0030858
300.0029986
300.0030657
300.0031654
300.003248
300.0032903
300.0032001
300.0031492
300.0031197
300.0031467
300.0030909
300.0030196
300.0029744
300.0029845
300.0030165
300.0030457
300.0030692
300.0030966
300.0031332
300.0031858
300.0032496
300.0032914
300.0032184
300.0031592
300.0031287
300.0031471
300.0032061
300.0032577
300.0032864
300.0032959
300.0032919
300.0032752
300.0032459
300.0032046
300.0031491
300.0030669
300.0030047
300.0029941
300.0030717
300.0031977
300.0032538
300.0031246
300.0030723
300.0030107
300.002973
300.002887
300.0029173
300.0029359
300.002956
300.0029722
300.0029879
300.0030038
300.0030257
300.0030567
300.0030999
300.0031484
300.0031641
300.0031067
300.0031095
300.0031752
300.0032349
300.003284
300.0033048
300.0033273
300.0033487
300.0033677
300.0033778
300.0033726
300.0033449
300.0032875
300.0032011
300.0030928
300.0029771
300.0030008
300.0031781
300.0032459
300.0028758
300.0028368
300.0029317
300.0029846
300.0030226
300.0030354
300.003025
300.0030092
300.0030022
300.0029981
300.0029971
300.0030006
300.0030202
300.0030576
300.0030946
300.0031334
300.0031904
300.003229
300.0032655
300.0032915
300.0033129
300.0033355
300.0033567
300.0033755
300.0033906
300.0033906
300.0033686
300.0033185
300.0032392
300.0031513
300.0030497
300.0030318
300.003257
300.0033323
300.0028214
300.0029914
300.0031171
300.0031233
300.0031273
300.0031343
300.0031077
300.0030713
300.0030501
300.0030346
300.0030323
300.0030374
300.0033612
300.0033569
300.003331
300.0032908
300.0032383
300.0031667
300.0031273
300.0030761
300.0030736
300.0032948
300.0033814
300.0032166
300.0032171
300.0031814
300.0031987
300.0031707
300.0031253
300.0029284
300.0029222
300.0029122
300.0029116
300.0029271
300.0029377
300.0029561
300.0029649
300.0029843
300.0029849
300.0029807
300.0029713
300.0029625
300.0029548
300.0029484
300.0029433
300.0029393
300.0029369
300.0029365
300.0029386
300.0029443
300.0029489
300.0029661
300.0029999
300.0030031
300.0030218
300.0030865
300.0030763
300.0029606
300.0029085
300.0028982
300.0028589
300.0028217
300.0028226
300.0029838
300.0029611
300.002932
300.0029216
300.0029354
300.0029502
300.0029186
300.0029197
300.0029375
300.002949
300.0029576
300.0029626
300.0029664
300.00297
300.0029741
300.0029792
300.0029856
300.0029937
300.0030033
300.0030143
300.0030263
300.0030344
300.0030516
300.0030687
300.003076
300.0030699
300.0030579
300.0030028
300.0029804
300.0029782
300.0029717
300.0029704
300.0029759
300.0029865
300.0029889
300.0029684
300.002943
300.0029359
300.0029426
300.0029574
300.0028909
300.0028693
300.0028718
300.0028882
300.0029041
300.0029169
300.0029272
300.0029363
300.0029455
300.0029558
300.0029681
300.0029826
300.0029995
300.0030177
300.003037
300.0030546
300.0030715
300.0031046
300.0030856
300.0030711
300.0030582
300.0030378
300.003027
300.0030063
300.0030041
300.0030461
300.0031219
300.0032679
300.0029602
300.0029453
300.0029268
300.0029197
300.0029217
300.0029375
300.0028546
300.0028191
300.002814
300.0028298
300.0028486
300.0028665
300.0028816
300.0028945
300.0029068
300.00292
300.0029354
300.0029536
300.0029744
300.0029968
300.0030207
300.0030444
300.0030886
300.0031936
300.0031159
300.0030959
300.0030799
300.0030576
300.0030349
300.0030167
300.0030127
300.003056
300.0031242
300.0031197
300.0029127
300.0029019
300.0028839
300.0028718
300.0028892
300.0029138
300.0028259
300.0027705
300.0027666
300.0027832
300.0028016
300.0028216
300.0028397
300.0028553
300.0028693
300.0028834
300.0028994
300.0029188
300.0029411
300.0029634
300.0029861
300.0030032
300.0030306
300.0030788
300.0031072
300.0031197
300.003113
300.0030853
300.0030472
300.0030282
300.0030242
300.0030851
300.0031679
300.0031698
300.0028622
300.0028538
300.0028342
300.0028228
300.0028465
300.0028749
300.0027987
300.0027452
300.0027389
300.0027528
300.0027703
300.0027902
300.0028106
300.0028291
300.0028441
300.0028575
300.0028717
300.0028891
300.0029103
300.0029302
300.0029521
300.002974
300.003012
300.0030707
300.0031211
300.0031506
300.0031539
300.0031257
300.0030719
300.003034
300.0030286
300.003098
300.0031756
300.0031497
300.0028153
300.0028086
300.0027903
300.0027777
300.002792
300.0028154
300.0027666
300.0027371
300.0027364
300.0027465
300.00276
300.0027781
300.0027996
300.0028201
300.0028345
300.002845
300.002855
300.002868
300.0028858
300.0029019
300.0029255
300.0029624
300.0030069
300.003065
300.0031217
300.0031639
300.0031782
300.0031515
300.0030873
300.0030342
300.0030348
300.0031055
300.0031696
300.0031118
300.0027754
300.0027725
300.0027605
300.0027456
300.0027433
300.0027557
300.0027462
300.0027469
300.0027547
300.0027612
300.0027705
300.0027866
300.0028086
300.0028309
300.0028422
300.0028468
300.0028501
300.0028565
300.0028693
300.0028816
300.0029088
300.002957
300.0030024
300.0030569
300.0031139
300.0031621
300.0031815
300.0031554
300.0030889
300.0030339
300.0030351
300.0030991
300.0031395
300.0030465
300.0027467
300.0027475
300.0027441
300.0027391
300.0027346
300.0027409
300.0027542
300.0027692
300.0027845
300.0027907
300.0027992
300.0028154
300.0028391
300.0028657
300.0028691
300.0028635
300.0028579
300.0028559
300.0028609
300.0028699
300.0028974
300.0029497
300.0029985
300.003048
300.0030977
300.0031414
300.003159
300.0031307
300.0030691
300.0030226
300.0030248
300.0030723
300.0030857
300.0029712
300.0027312
300.0027323
300.0027371
300.0027429
300.0027491
300.0027569
300.0027739
300.0027904
300.0028191
300.0028327
300.0028456
300.0028655
300.002893
300.0029323
300.0029175
300.0028954
300.0028783
300.0028665
300.0028612
300.0028634
300.0028891
300.0029439
300.0029982
300.0030443
300.0030834
300.003111
300.0031103
300.0030726
300.0030309
300.0030088
300.0030112
300.0030302
300.0030142
300.0029146
300.0027186
300.0027221
300.0027341
300.0027476
300.0027629
300.002771
300.0027838
300.0027986
300.0028358
300.0028838
300.0029065
300.0029339
300.0029663
300.0030372
300.0029833
300.0029385
300.0029088
300.0028873
300.0028725
300.0028677
300.0028888
300.00294
300.0029973
300.0030471
300.0030879
300.0031107
300.0030969
300.0030617
300.0030387
300.0030251
300.0030124
300.0029947
300.0029555
300.0028867
300.002682
300.0027092
300.0027334
300.0027515
300.0027732
300.0027801
300.0027776
300.0027809
300.0027153
300.0029278
300.0029646
300.0030022
300.0030326
300.0031566
300.0030408
300.0029768
300.0029414
300.002917
300.0028985
300.0028891
300.0029008
300.002937
300.0029845
300.0030301
300.0030601
300.0030619
300.003061
300.003079
300.0030955
300.0030868
300.0030539
300.003002
300.0029445
300.0028866
300.0024193
300.0026779
300.0027301
300.0027539
300.0027786
300.0027831
300.00276
300.0027245
300.0020551
300.0029261
300.0029883
300.0030322
300.003023
300.0030794
300.0030068
300.0029778
300.002965
300.0029516
300.0029372
300.0029263
300.0029277
300.0029457
300.0029762
300.0030051
300.0030104
300.0030175
300.003072
300.003137
300.0031692
300.0031599
300.003116
300.0030484
300.0029827
300.0029144
300.0025572
300.0026978
300.0027347
300.0027568
300.0027704
300.0027418
300.0025946
300.002267
299.9979516
300.0025324
300.0028398
300.0030086
300.0029827
300.0029797
300.0029548
300.0029652
300.0029845
300.0029856
300.0029786
300.0029719
300.0029744
300.0029916
300.0030154
300.0030306
300.0030242
300.0030649
300.003151
300.0032236
300.0032557
300.0032461
300.003196
300.0031138
300.0030425
300.0029619
300.0027419
300.0027532
300.0027641
300.0027718
300.0027767
300.0027332
300.0024994
300.0021625
300.0012114
300.0022146
300.0026855
300.0029524
300.0029484
300.0029575
300.0029619
300.00299
300.0030332
300.0030265
300.0030151
300.0030066
300.0030085
300.0030233
300.0030389
300.0030427
300.0030266
300.0031126
300.0032066
300.0032711
300.0032931
300.0032772
300.003234
300.0031593
300.0030986
300.0030187
300.0027756
300.0027852
300.0027898
300.0027928
300.0028007
300.0027914
300.002717
300.0026737
300.0023554
300.0028509
300.0028901
300.0029445
300.002924
300.0029368
300.0029702
300.0030171
300.00313
300.0030834
300.003045
300.003024
300.0030145
300.0030181
300.0030276
300.0030266
300.0030267
300.0031155
300.0032066
300.0032576
300.0032776
300.0032547
300.0032171
300.0031718
300.0031447
300.0030823
300.0028025
300.0028109
300.0028175
300.0028247
300.0028388
300.0028397
300.0028015
300.0028106
300.0026145
300.0029156
300.0028892
300.0029361
300.0029557
300.0029999
300.0030987
300.0031246
300.0034121
300.0031663
300.0030757
300.0030318
300.003019
300.0030253
300.0030352
300.003042
300.0030122
300.0030313
300.003198
300.0031813
300.0031771
300.0031388
300.0031394
300.0031558
300.0031861
300.0031505
300.0028283
300.0028422
300.0028551
300.0028689
300.0028904
300.0028916
300.0028635
300.0028781
300.0028412
300.0029326
300.0029253
300.0029611
300.0030061
300.0030609
300.0031663
300.0031857
300.0036375
300.003242
300.0030928
300.0030185
300.0029931
300.0029864
300.0029944
300.0030003
300.0029394
300.0029042
300.0030895
300.0030964
300.0030964
300.0029826
300.0030435
300.0031506
300.0032303
300.0032033
300.0028661
300.0028866
300.0029078
300.0029284
300.0029571
300.0029488
300.0029147
300.0029538
300.0029263
300.0029758
300.0029887
300.0030297
300.0031004
300.0031468
300.0035249
300.0029845
300.0040039
300.0033184
300.0032481
300.0031159
300.0030518
300.0030277
300.0030433
300.0030477
300.0030176
300.0030989
300.0032067
300.0032612
300.0032817
300.0030462
300.0030253
300.0031726
300.0032737
300.0032457
300.0029197
300.0029475
300.002976
300.0029986
300.003011
300.0030026
300.0029531
300.0030442
300.0029891
300.0030469
300.003071
300.0030985
300.0031103
300.0031175
300.0030422
300.0028075
300.003282
300.003443
300.0032892
300.0032906
300.0031828
300.0030616
300.0030343
300.003017
300.0030165
300.0033461
300.0034681
300.0033524
300.0031204
300.0028902
300.0029824
300.0031715
300.003277
300.0032554
300.0029827
300.0030215
300.0030583
300.0030811
300.0030868
300.003089
300.003037
300.0038021
300.0030944
300.0031717
300.0031422
300.0031302
300.0031344
300.003147
300.0031781
300.0029414
300.002931
300.0029455
300.0030105
300.0030435
300.0030452
300.0030584
300.0031157
300.0031725
300.0031958
300.0031506
300.0031552
300.0031157
300.003064
300.0030245
300.0031276
300.0032235
300.0032772
300.0032314
300.0030355
300.0030875
300.0031365
300.0031574
300.0031415
300.0030871
300.0030268
300.0031179
300.0031358
300.0031831
300.0031814
300.0031823
300.0031475
300.0031587
300.0031359
300.003117
300.0029609
300.0029838
300.0029702
300.0029834
300.0030245
300.0030969
300.0031795
300.0032221
300.0032456
300.0032119
300.0031313
300.0031302
300.0031479
300.0031392
300.0031346
300.0031571
300.0031636
300.0030807
300.0030993
300.0031375
300.0031985
300.0032205
300.0031929
300.0031266
300.0030955
300.0031757
300.0032023
300.0032184
300.0031914
300.0031829
300.0031842
300.0031878
300.0031887
300.0031699
300.0031108
300.0030277
300.0029891
300.003002
300.0031061
300.0031976
300.0032573
300.0032964
300.0033193
300.0033328
300.0033262
300.0033258
300.0032956
300.0032231
300.003138
300.0030757
300.0030477
300.0030778
300.0031416
300.0031655
300.0032332
300.0032524
300.0032188
300.0031546
300.0031384
300.0031882
300.0032214
300.0032297
300.0032175
300.0032119
300.0032093
300.0032028
300.0031788
300.003138
300.0030681
300.0029698
300.0029482
300.0030445
300.0031526
300.0032237
300.0032709
300.0032989
300.003317
300.0033268
300.0033289
300.0033222
300.0032812
300.0031889
300.0030767
300.0030337
300.0031018
300.0032158
300.0032306
300.0031743
300.0031823
300.003239
300.0032413
300.0032036
300.0031471
300.0031367
300.0031653
300.0031845
300.003192
300.0031941
300.0031947
300.0031947
300.0031818
300.0031561
300.0031078
300.0030405
300.0029525
300.0029577
300.0030631
300.0031542
300.0032171
300.0032599
300.00329
300.0033069
300.0033171
300.0033174
300.0032962
300.0032334
300.0031072
300.0030396
300.0030631
300.0032035
300.0033022
300.0032515
300.0031871
300.0031795
300.0032218
300.0031823
300.0031365
300.0030865
300.00308
300.0031002
300.0031194
300.0031375
300.0031683
300.0032017
300.0032024
300.0032024
300.0032182
300.0031796
300.0031224
300.0030574
300.003044
300.0031031
300.0031509
300.0031814
300.0031992
300.0032102
300.0032147
300.0032137
300.0032067
300.0031863
300.0031236
300.0030286
300.0030007
300.0030387
300.003209
300.0033147
300.0031928
300.0031369
300.0031138
300.0030992
300.0030354
300.0029974
300.0029758
300.0029932
300.0030309
300.0030669
300.0030963
300.0031267
300.0031655
300.0032049
300.0032454
300.0032632
300.0032237
300.0031839
300.0031658
300.0031566
300.0031799
300.0031999
300.0032175
300.0032249
300.0032203
300.0032058
300.0031846
300.0031588
300.0031221
300.0030583
300.0029974
300.0029512
300.002987
300.0031322
300.0032529
300.003034
300.0030155
300.0029661
300.0030929
300.0028635
300.0029017
300.002922
300.0029606
300.0029971
300.0030293
300.0030572
300.0030846
300.0031168
300.0031591
300.0032121
300.0032076
300.0031906
300.003183
300.0032019
300.0032152
300.0032807
300.0032716
300.0032874
300.0032967
300.003293
300.0032819
300.0032615
300.0032333
300.0031898
300.0031291
300.0030433
300.0029533
300.0029595
300.0030955
300.0032272
300.0028077
300.0027773
300.0028441
300.00292
300.0029737
300.0030003
300.0030151
300.0030254
300.003038
300.0030515
300.0030651
300.0030811
300.0031056
300.0031395
300.0031646
300.0031847
300.0032033
300.0032114
300.0032226
300.0032474
300.0032744
300.0033056
300.00333
300.0033407
300.0033289
300.0033008
300.0032724
300.0032294
300.0031891
300.0031128
300.0030293
300.0030157
300.0031411
300.0032893
300.0026918
300.0028613
300.00301
300.0030717
300.0031017
300.0031061
300.0030956
300.003083
300.0030786
300.0030797
300.0030856
300.0030965
300.0033412
300.0033242
300.0032924
300.0032605
300.0032051
300.0031928
300.0031356
300.0030789
300.003076
300.003192
300.0033398
300.0031068
300.003178
300.0031951
300.0031937
300.0031684
300.0031408
300.0028548
300.002856
300.0028584
300.00287
300.0028921
300.0029111
300.0029311
300.0029403
300.0029543
300.0029562
300.0029516
300.0029414
300.0029304
300.0029199
300.0029107
300.002903
300.002897
300.0028931
300.0028917
300.0028933
300.0028983
300.0029047
300.0029205
300.0029314
300.0029353
300.0029273
300.0029032
300.0027876
300.0028991
300.002808
300.0027881
300.0027435
300.0027052
300.0027057
300.002904
300.0028892
300.0028739
300.0028696
300.0028792
300.0028903
300.0028827
300.0028859
300.0028961
300.0029025
300.0029067
300.0029085
300.0029098
300.0029117
300.0029148
300.0029197
300.002927
300.0029368
300.0029492
300.0029638
300.0029799
300.0029974
300.0030116
300.0030963
300.003057
300.0030169
300.0029785
300.0029341
300.0029305
300.0029097
300.0028729
300.0028663
300.002868
300.0029084
300.0029074
300.0028901
300.0028684
300.0028516
300.0028487
300.0028509
300.0028215
300.0028133
300.0028228
300.0028342
300.0028441
300.0028522
300.0028598
300.0028677
300.0028767
300.0028877
300.0029015
300.0029186
300.0029392
300.0029628
300.0029884
300.0030154
300.003046
300.0030674
300.0030227
300.0030156
300.0029997
300.0029788
300.0029615
300.0029441
300.0029337
300.0029622
300.0030303
300.0029609
300.0028711
300.0028519
300.0028235
300.0027989
300.0028058
300.0028135
300.0027639
300.0027348
300.0027449
300.0027635
300.00278
300.0027941
300.0028069
300.0028192
300.0028319
300.002846
300.0028627
300.0028831
300.0029078
300.0029365
300.0029696
300.0030124
300.0030995
300.0030768
300.0029679
300.003011
300.0030142
300.0030044
300.0029776
300.0029738
300.0029605
300.0029986
300.0030423
300.0029817
300.00281
300.002788
300.0027545
300.0027341
300.002757
300.0027758
300.0027219
300.002675
300.0026774
300.0026999
300.0027231
300.0027429
300.0027606
300.0027767
300.0027915
300.0028067
300.0028239
300.0028445
300.0028697
300.0028987
300.00293
300.0029606
300.0029886
300.0029819
300.0029892
300.0030366
300.0030468
300.0030384
300.0030144
300.0031045
300.0030041
300.0030638
300.0031188
300.0030877
300.0027438
300.0027214
300.0026884
300.0026767
300.0027077
300.0027336
300.0026891
300.002643
300.0026384
300.002658
300.0026821
300.0027055
300.002727
300.0027461
300.0027617
300.0027759
300.0027916
300.0028109
300.0028346
300.0028624
300.0028928
300.0029247
300.0029627
300.0030065
300.0030532
300.0030818
300.0030843
300.0030665
300.0030436
300.0031065
300.0030185
300.003093
300.0031425
300.0030881
300.0026842
300.0026669
300.0026412
300.0026323
300.0026569
300.0026818
300.0026562
300.0026279
300.0026261
300.0026422
300.0026641
300.0026882
300.0027121
300.0027338
300.0027478
300.0027585
300.0027695
300.0027842
300.0028047
300.0028298
300.0028596
300.0028955
300.0029424
300.0030016
300.0030602
300.0031083
300.0031191
300.0030896
300.0030488
300.0030335
300.0030444
300.0031178
300.0031518
300.0030642
300.0026419
300.0026325
300.0026137
300.002604
300.0026158
300.0026346
300.0026302
300.002625
300.0026314
300.0026471
300.0026668
300.0026916
300.0027183
300.0027449
300.0027533
300.0027561
300.002759
300.002766
300.0027793
300.0027995
300.0028274
300.0028667
300.0029197
300.0029841
300.0030495
300.0031074
300.0031319
300.0031031
300.0030577
300.0030369
300.0030602
300.003126
300.0031283
300.0029999
300.0026167
300.0026139
300.0026026
300.002595
300.0025989
300.0026117
300.0026216
300.002633
300.0026465
300.0026665
300.0026864
300.0027162
300.0027494
300.0027913
300.0027839
300.0027714
300.0027611
300.0027571
300.0027606
300.0027723
300.0027998
300.0028456
300.0029029
300.0029662
300.0030294
300.0030873
300.0031156
300.0030953
300.0030553
300.0030362
300.003061
300.003107
300.0030767
300.0029154
300.0026069
300.0026075
300.0026027
300.0025994
300.0026022
300.002612
300.0026257
300.0026484
300.0026627
300.0026986
300.0027207
300.0027653
300.0028124
300.0029042
300.0028508
300.0028083
300.0027773
300.0027592
300.0027519
300.0027572
300.002786
300.0028378
300.0028973
300.0029557
300.0030129
300.003064
300.0030844
300.00307
300.0030444
300.0030344
300.0030499
300.0030636
300.0030016
300.0028523
300.0026071
300.0026089
300.0026087
300.0026089
300.0026126
300.0026204
300.0026276
300.0026698
300.0026563
300.0027467
300.0027637
300.0028418
300.0029134
300.0031476
300.0029669
300.0028677
300.0028071
300.0027741
300.002758
300.0027591
300.0027877
300.0028401
300.0028989
300.0029555
300.0030129
300.0030632
300.0030833
300.0030747
300.0030586
300.0030464
300.0030388
300.0030119
300.0029304
300.0028246
300.0026089
300.0026123
300.002617
300.0026193
300.0026234
300.0026305
300.0026174
300.0026839
300.0025718
300.0028025
300.0027919
300.0029251
300.0030259
300.003602
300.0031099
300.0029277
300.0028393
300.0027993
300.0027808
300.0027791
300.0028016
300.0028461
300.0029006
300.0029594
300.0030172
300.0030579
300.0030846
300.0031042
300.0031047
300.0030831
300.0030455
300.0029817
300.0028982
300.0028261
300.0025689
300.0026036
300.002623
300.0026281
300.0026305
300.0026413
300.0026046
300.002648
300.0024451
300.0028004
300.0027866
300.0029092
300.0029142
300.0030695
300.0029516
300.002882
300.0028443