/*--------------------------------*- C++ -*----------------------------------*\
  =========                 |
  \\      /  F ield         | OpenFOAM: The Open Source CFD Toolbox
   \\    /   O peration     | Website:  https://openfoam.org
    \\  /    A nd           | Version:  8
     \\/     M anipulation  |
\*---------------------------------------------------------------------------*/
FoamFile
{
    version     2.0;
    format      ascii;
    class       volVectorField;
    location    "0.9";
    object      U;
}
// * * * * * * * * * * * * * * * * * * * * * * * * * * * * * * * * * * * * * //

dimensions      [0 1 -1 0 0 0 0];

internalField   nonuniform List<vector> 
67193
(
(-0.2266923822 -0.121009289 0.1637612347)
(-0.2551531641 -0.1197323897 0.178855252)
(-0.2828118882 -0.1402429687 0.1944068107)
(-0.2813160953 -0.1844088611 0.1900382334)
(-0.2287914259 -0.2395008131 0.1561475621)
(-0.09885067688 -0.266560953 0.1264359348)
(0.01455212698 -0.1706474831 0.1721365217)
(-0.000146773631 -0.150385728 0.1883903274)
(0.04717875064 -0.1259558158 0.1430766996)
(0.04954421568 -0.1165189533 0.1199321105)
(0.09229157344 -0.1143659246 0.09482145671)
(0.1255414869 -0.1115023933 0.08505116065)
(0.1666437753 -0.1121883685 0.08036153033)
(0.2072589715 -0.1139644994 0.07873370133)
(0.2477449564 -0.1156489066 0.07901065828)
(0.2866227305 -0.1165107352 0.08061523441)
(0.3220457642 -0.1163048827 0.08331360851)
(0.3522569926 -0.1150656444 0.08710169332)
(0.3753353851 -0.112844219 0.09216983787)
(0.3917187074 -0.1098561344 0.09915994155)
(0.3851162838 -0.1068908189 0.1081588575)
(0.4036037913 -0.0947146148 0.1324038673)
(0.2933292662 -0.1067673347 0.1309422215)
(0.386922202 -0.2195148673 -0.2010352849)
(0.530380441 -0.1652910697 -0.01217329891)
(0.5112661708 -0.1221317654 0.1192324245)
(0.4796498685 -0.1080185515 0.1489696926)
(0.4521197065 -0.09625523267 0.1444814406)
(0.4370631799 -0.08490074921 0.121669965)
(0.3985553051 -0.072383355 0.1291385639)
(0.3214756561 -0.05509208126 0.1213258512)
(0.2361028779 -0.03510681619 0.1142321625)
(0.1269128185 -0.02043521926 0.1094465441)
(0.04044667167 -0.03320803727 0.09648813928)
(-0.2395047298 -0.2469697985 0.1219560564)
(-0.2692421445 -0.2622155206 0.1307735343)
(-0.2922747931 -0.3077096341 0.1070529706)
(-0.2792860015 -0.370353039 0.03405153304)
(-0.2102455776 -0.4294410134 -0.06128503225)
(-0.1048314257 -0.4519490366 -0.1176893016)
(0.03511193455 -0.3743490156 0.02100737674)
(0.05516637472 -0.3350666961 0.1083286238)
(0.08583333347 -0.2808123202 0.1121069289)
(0.09152217207 -0.2436806142 0.0949479139)
(0.1163798017 -0.2253178964 0.06526188124)
(0.1439940503 -0.2132819617 0.04502652575)
(0.1805090497 -0.2084215544 0.03235111789)
(0.2192101577 -0.2063909528 0.02533546758)
(0.2583369577 -0.2052801341 0.0221653349)
(0.2961060763 -0.2039465166 0.02163781607)
(0.3306839059 -0.2019339395 0.02319289596)
(0.3606642868 -0.1992931444 0.02667303903)
(0.3844748986 -0.1960210806 0.03209636079)
(0.4018523239 -0.1927757472 0.03995230788)
(0.4065541707 -0.1903863532 0.05044149414)
(0.4166741133 -0.1794116185 0.06802542255)
(0.3894481042 -0.1954313077 0.08078716245)
(0.4053011677 -0.1190784356 0.06176118763)
(0.4676452917 -0.1733943085 0.07967156679)
(0.486586371 -0.2067650623 0.09424358605)
(0.4857079963 -0.2116250084 0.1010605975)
(0.4678144885 -0.1897719438 0.1047876769)
(0.4451603841 -0.1560709227 0.084089315)
(0.4001766722 -0.1334520685 0.1048414275)
(0.317080021 -0.1035570811 0.1055461782)
(0.2286147278 -0.07595643627 0.09932215782)
(0.1307187177 -0.05913817704 0.09016412387)
(0.05521636899 -0.0623683568 0.08797657968)
(-0.2464614287 -0.3635219387 0.09718516107)
(-0.2866484648 -0.3862996325 0.08406429579)
(-0.3190688243 -0.4380242625 0.01334406464)
(-0.3008841327 -0.4928970986 -0.09799389928)
(-0.2105732804 -0.5277812287 -0.1906090896)
(-0.09206503187 -0.542630117 -0.2403382265)
(0.08173203464 -0.5158945562 -0.1242113615)
(0.1314857063 -0.4817531204 -0.005461928186)
(0.1492322688 -0.4202935964 0.06370605501)
(0.1416141614 -0.3668779898 0.07952357474)
(0.1458995631 -0.332282341 0.05675617953)
(0.1623704907 -0.3099895186 0.03111343185)
(0.190653176 -0.2975033797 0.01274797971)
(0.2246152179 -0.290444905 0.001791412583)
(0.2609641966 -0.2861029138 -0.003620930988)
(0.2971664485 -0.2827320404 -0.005104320252)
(0.330954289 -0.2796320414 -0.003535481106)
(0.3609123345 -0.2768768624 0.000772253551)
(0.3849010542 -0.2742552169 0.007632831956)
(0.4023883162 -0.2734183592 0.01797804169)
(0.4090713044 -0.2741776273 0.03206050325)
(0.4125917307 -0.2817780696 0.05393252233)
(0.4033107192 -0.3024072715 0.0732790768)
(0.4163228734 -0.3004379989 0.08458910785)
(0.4572278978 -0.3376915352 0.05763874858)
(0.4885865987 -0.3588269101 0.04064453426)
(0.5048228321 -0.35070877 0.04685655858)
(0.5004937181 -0.3149322335 0.07028715368)
(0.4701073624 -0.2602641163 0.09446864939)
(0.4117315017 -0.2116629752 0.1060516733)
(0.3267081759 -0.1610976245 0.1083394095)
(0.2303586848 -0.1166304029 0.098174457)
(0.122813809 -0.085728802 0.07993198256)
(0.04987541234 -0.07393546539 0.0663598007)
(-0.2492242758 -0.4195876889 0.08001639608)
(-0.2983288613 -0.4346705127 0.04503604268)
(-0.3422782679 -0.4727427307 -0.05009934248)
(-0.3167607291 -0.5009867812 -0.1590389789)
(-0.215995065 -0.5168284117 -0.2395219499)
(-0.07112783692 -0.5312934889 -0.2865174806)
(0.1055509474 -0.5300618869 -0.2062706814)
(0.1860561344 -0.5168860388 -0.1000994674)
(0.2102193026 -0.4754905936 -0.004912457916)
(0.1953550652 -0.4273468424 0.04851954695)
(0.1835209985 -0.3877412709 0.04868896053)
(0.1872060899 -0.3586087488 0.02759997498)
(0.2058156406 -0.3389880326 0.006821659656)
(0.2336048928 -0.3260324687 -0.007277026805)
(0.2660812579 -0.3176547778 -0.01470171323)
(0.2997619389 -0.312032252 -0.01681927708)
(0.3318374438 -0.3086107511 -0.01465016998)
(0.3610173072 -0.3075123162 -0.008622473226)
(0.3836910259 -0.3075262361 0.0008209569899)
(0.3993451209 -0.3111711977 0.01554453824)
(0.4004376724 -0.3172474165 0.03445346336)
(0.3946481659 -0.3427490001 0.05938837219)
(0.3789376238 -0.3789498724 0.06837936877)
(0.3951425869 -0.4068431677 0.02217750927)
(0.4458836015 -0.4403395908 -0.03825529629)
(0.4951793624 -0.4543360149 -0.05860504788)
(0.5258273742 -0.4397725976 -0.04852598012)
(0.5317055595 -0.3992397417 -0.004153902207)
(0.5032333791 -0.3394889052 0.05282535874)
(0.4388666714 -0.2710446844 0.09628187739)
(0.3438241402 -0.2009177068 0.1139561056)
(0.2382711173 -0.1414775494 0.106628333)
(0.1297362564 -0.1007861258 0.08623384501)
(0.05534658465 -0.07872885088 0.08291534131)
(-0.2316249548 -0.44397948 0.07078914835)
(-0.2821967636 -0.4395814174 0.03051734418)
(-0.3385168251 -0.456405349 -0.06150633327)
(-0.3154132245 -0.4628291193 -0.1662720585)
(-0.2176516491 -0.4626594239 -0.2518887076)
(-0.06433092442 -0.4705122347 -0.3023567883)
(0.1096107065 -0.4850451205 -0.2359552864)
(0.1979000127 -0.4875791899 -0.1397079248)
(0.2347909767 -0.4718163288 -0.05230487868)
(0.2286255021 -0.4463741425 0.01148204668)
(0.2159927408 -0.4175675426 0.0321536744)
(0.2136176847 -0.3901792265 0.02411243798)
(0.2245558355 -0.3675126902 0.007078988323)
(0.2458700567 -0.3507867767 -0.00782313914)
(0.2736335968 -0.3398936111 -0.01651866169)
(0.3038244503 -0.3332634311 -0.01888277191)
(0.3330255502 -0.3311216887 -0.01561571779)
(0.3603535539 -0.3335851436 -0.00703562116)
(0.3801696014 -0.3380577186 0.005899282545)
(0.3921894045 -0.3472978201 0.02683418843)
(0.3815517589 -0.3590131108 0.05074611915)
(0.3639131791 -0.4006526229 0.0689975339)
(0.3383667683 -0.4549968025 0.05097706662)
(0.3642769376 -0.4866472295 -0.03182830227)
(0.4277970865 -0.4985277883 -0.105283526)
(0.4944252216 -0.4963843783 -0.1412319296)
(0.5428418396 -0.4756860306 -0.1405539531)
(0.5621503468 -0.4370032094 -0.09540221479)
(0.538011528 -0.3804153323 -0.01247129968)
(0.4700656053 -0.3104977345 0.06574084076)
(0.3642193271 -0.2345410437 0.1110117961)
(0.2443232818 -0.1683204171 0.1116753581)
(0.1284716747 -0.1259767606 0.08931487494)
(0.05345464413 -0.1075959684 0.08331932877)
(-0.1873093288 -0.4438530938 0.06800761067)
(-0.2274382005 -0.4192335752 0.04042027687)
(-0.2944320089 -0.4126264165 -0.02645279159)
(-0.2906380725 -0.397502917 -0.1301258989)
(-0.2122196877 -0.3796226153 -0.227332835)
(-0.07584033845 -0.3794078425 -0.2839796689)
(0.08314228564 -0.4063704625 -0.2218391471)
(0.1686307075 -0.4269558846 -0.1348705246)
(0.2127869166 -0.4349149895 -0.06525173719)
(0.2258434574 -0.4360192447 -0.01469458244)
(0.2307072195 -0.4255296014 0.01085103613)
(0.2350320706 -0.4051146824 0.01555788721)
(0.2442540242 -0.3824051692 0.007342710927)
(0.2605804718 -0.3636065367 -0.00459818103)
(0.283125569 -0.351141392 -0.01278550699)
(0.3083831555 -0.3444287397 -0.01460739772)
(0.3330868365 -0.3454148896 -0.01014397755)
(0.3576313376 -0.3539820753 0.0007504116802)
(0.3732139411 -0.3646345085 0.01709575536)
(0.3802678792 -0.3791877868 0.04532639649)
(0.3515257058 -0.3946164636 0.07060604839)
(0.3217596586 -0.4456892675 0.06010750838)
(0.293749743 -0.507804928 0.0006754276524)
(0.3376867474 -0.523984083 -0.09637712769)
(0.414287532 -0.5129484546 -0.1604690744)
(0.4955799665 -0.4901906969 -0.1881778197)
(0.556800815 -0.4582134826 -0.1897378443)
(0.5864393039 -0.4221563864 -0.1589907175)
(0.5705430281 -0.3774972692 -0.07708145749)
(0.5003060509 -0.3169264337 0.02703890047)
(0.3829930443 -0.2473753741 0.1019228833)
(0.2493078605 -0.1824218848 0.116326442)
(0.1276831898 -0.1422716524 0.09599696531)
(0.04813949989 -0.129387708 0.09228819581)
(-0.1302078757 -0.4279294593 0.06141326067)
(-0.1545407308 -0.3971974068 0.04911870321)
(-0.2224479857 -0.3685596298 0.02915213793)
(-0.2457428718 -0.3296213532 -0.05091205856)
(-0.2024985734 -0.2947390396 -0.153929584)
(-0.100539996 -0.2870940984 -0.2173162994)
(0.02578432944 -0.3265705434 -0.1667419382)
(0.1085396626 -0.3661512616 -0.1040656685)
(0.162444689 -0.3972272372 -0.06233710817)
(0.1988636723 -0.4228005164 -0.03188649849)
(0.2291277766 -0.4278092097 -0.009683851203)
(0.2490757429 -0.4136707063 0.004374200729)
(0.262624738 -0.3913302575 0.007064486517)
(0.2759196236 -0.3709776736 0.001447935117)
(0.2927432664 -0.3577734282 -0.003917088973)
(0.3111743322 -0.3520505897 -0.004418094518)
(0.3297869336 -0.3583734923 -0.0004613188992)
(0.3511037555 -0.3755729989 0.009389972471)
(0.3628059927 -0.3937740309 0.02654582438)
(0.3651590773 -0.4106818833 0.06130995458)
(0.3151469584 -0.4247225579 0.08034350853)
(0.2807928938 -0.4699565853 0.02236726397)
(0.2724185164 -0.5133428652 -0.06586712202)
(0.3304524147 -0.5082705482 -0.1497480119)
(0.4161860369 -0.4771853941 -0.1961826123)
(0.5063721128 -0.4398835325 -0.2117571192)
(0.5747554869 -0.4042700722 -0.2077120746)
(0.6060846106 -0.3730600539 -0.1817415734)
(0.5937487591 -0.3426070651 -0.1107624048)
(0.5189564952 -0.2989861572 0.00101652089)
(0.3931935146 -0.2437883165 0.09215583077)
(0.2504244521 -0.1892206753 0.1186460533)
(0.1262316223 -0.1579360136 0.102083018)
(0.04006591566 -0.1667633153 0.1033361503)
(-0.08792988809 -0.3902621795 0.04335411787)
(-0.1038378293 -0.3745655108 0.03294169081)
(-0.1585315746 -0.3390352275 0.05324360368)
(-0.1969279479 -0.2820055727 0.03613237335)
(-0.195805285 -0.2247644472 -0.03085143843)
(-0.1276339114 -0.2094121578 -0.09347801532)
(-0.03869625086 -0.2720694445 -0.09803761257)
(0.04427613254 -0.3313410462 -0.08395426787)
(0.1103839689 -0.3755300166 -0.06665036933)
(0.1698965199 -0.4173197183 -0.04905239369)
(0.2229282128 -0.4322961987 -0.02878070323)
(0.2591430952 -0.4213651194 -0.007608331323)
(0.2794342988 -0.3982338022 0.006354441026)
(0.2906376098 -0.376007387 0.009847936175)
(0.3006354186 -0.3622702079 0.00992211354)
(0.3094501373 -0.3582359443 0.01039264749)
(0.3212419947 -0.3713765262 0.007945508933)
(0.340674438 -0.3976608625 0.009115532866)
(0.3518892664 -0.4221755718 0.02215779769)
(0.3518928864 -0.4355042405 0.06096575334)
(0.2861284986 -0.4411674366 0.06811467549)
(0.2629237707 -0.4612999066 -0.03042946436)
(0.2847788107 -0.4699440714 -0.1240797303)
(0.3541314349 -0.4433155009 -0.1860196186)
(0.446342864 -0.396162961 -0.2147256505)
(0.5365594068 -0.3497621677 -0.2177604081)
(0.6008880091 -0.317061828 -0.2035175123)
(0.6247308249 -0.3002090882 -0.1699493514)
(0.6005999985 -0.2882153402 -0.09779085716)
(0.5150617504 -0.2654483812 0.01049426998)
(0.385407236 -0.2296086742 0.09817914494)
(0.2453096699 -0.1920774775 0.1242316148)
(0.1231096595 -0.1748944032 0.1096928437)
(0.03852780855 -0.2242891235 0.1198721411)
(-0.07946140191 -0.3364644843 0.01125977242)
(-0.08073277031 -0.3388717153 0.002737003889)
(-0.113063346 -0.3113255875 0.03146513162)
(-0.1443466455 -0.2720957597 0.05200965954)
(-0.1700268288 -0.2294467809 0.03626215527)
(-0.1388480886 -0.213664223 -0.01273892958)
(-0.07595309057 -0.2578488523 -0.06167782965)
(-0.00977356501 -0.3071978293 -0.07523542212)
(0.06413434036 -0.3642642417 -0.0686025617)
(0.1439306799 -0.4155232639 -0.06599678982)
(0.2147372822 -0.4373212702 -0.05003743581)
(0.2662952884 -0.4276121931 -0.02461333749)
(0.294227474 -0.4034177479 0.0009247707403)
(0.3037162886 -0.3796857433 0.01737500273)
(0.304800282 -0.3652596757 0.02657805973)
(0.2997973311 -0.3631933659 0.0252413528)
(0.3064904947 -0.3820591415 0.00591186566)
(0.3282388611 -0.4128988251 -0.00976258078)
(0.3452971847 -0.4381077176 -0.004816983878)
(0.3477293201 -0.4419035865 0.0338697245)
(0.2846049985 -0.4323414839 0.03296936299)
(0.2808732374 -0.4175993636 -0.07411454385)
(0.3250420875 -0.393367084 -0.1616505435)
(0.4065201149 -0.3482964147 -0.2056873336)
(0.5031660985 -0.2939806544 -0.2150263417)
(0.5892254647 -0.2480546279 -0.201288913)
(0.6411265874 -0.2257065492 -0.1704635928)
(0.646101621 -0.2270960615 -0.1163790375)
(0.5902465818 -0.2374397989 -0.02853888959)
(0.4874744352 -0.241006429 0.06490786634)
(0.3627049113 -0.2295702201 0.1244851787)
(0.243276653 -0.2100892186 0.1362668136)
(0.1311022279 -0.2073977402 0.1238156214)
(0.05639320345 -0.300177165 0.14099719)
(-0.1002929972 -0.307244731 -0.03274157812)
(-0.07088349136 -0.30155733 -0.02987910733)
(-0.07312784877 -0.2772026593 -0.002366458031)
(-0.08764040147 -0.2410365399 0.03225373331)
(-0.1247944132 -0.2101277734 0.04452643467)
(-0.1374817747 -0.2008697881 0.01239506185)
(-0.1146993176 -0.2371077177 -0.03421109799)
(-0.07187194349 -0.2851259068 -0.05522786754)
(0.01245252273 -0.3734313175 -0.06772432084)
(0.1244041474 -0.416686301 -0.09172266459)
(0.2073679241 -0.438983311 -0.08045306056)
(0.2737113539 -0.4261434788 -0.05302255326)
(0.3084132141 -0.4008257098 -0.0162593817)
(0.315808068 -0.3773225253 0.01711838135)
(0.3041322584 -0.3619706236 0.04014932286)
(0.2800207985 -0.3617830494 0.03117986508)
(0.2866202167 -0.3818293553 -0.01417594142)
(0.3167167803 -0.4087213341 -0.0470560385)
(0.3467130189 -0.4250081489 -0.04989617781)
(0.3597699286 -0.4172747544 -0.01777759795)
(0.3254418064 -0.3874828273 -0.01628327032)
(0.3325926903 -0.3455303492 -0.09792384634)
(0.3853753521 -0.2959467111 -0.1733370559)
(0.4691650807 -0.2412385352 -0.2062702988)
(0.5623785074 -0.1884397907 -0.1983329551)
(0.6409833731 -0.1505581808 -0.1612628185)
(0.6827493095 -0.1404996721 -0.100220839)
(0.6589116611 -0.164123491 -0.01472113902)
(0.576191516 -0.209812913 0.06631805357)
(0.4722872148 -0.2527741421 0.1107468074)
(0.3702607975 -0.2694503142 0.1283462134)
(0.278279734 -0.262064183 0.1367523627)
(0.1717687478 -0.2661689965 0.1418773607)
(0.09114203532 -0.374042659 0.1703961953)
(-0.09242629108 -0.291792064 -0.05283131455)
(-0.04752493097 -0.2594037561 -0.05324445653)
(-0.04396803965 -0.2407145876 -0.02598826003)
(-0.05024134874 -0.2060874892 0.01386003753)
(-0.09405369321 -0.1842634219 0.05767053353)
(-0.1503703045 -0.1762819879 0.05268890787)
(-0.1700065499 -0.2124838835 0.006530866624)
(-0.1521478914 -0.2739456205 -0.03421042827)
(-0.04017906767 -0.4191956896 -0.07601518322)
(0.1255982488 -0.4124117838 -0.1291169912)
(0.2068585958 -0.4267164352 -0.117685526)
(0.2866900637 -0.4036999984 -0.09091504121)
(0.3240405807 -0.3762950879 -0.04656438332)
(0.3285698754 -0.3553020265 0.003047551099)
(0.2998029627 -0.3397448805 0.04392448508)
(0.2534835979 -0.3414192163 0.01985692023)
(0.2661758232 -0.3589653486 -0.05075191225)
(0.3087164125 -0.3768826816 -0.09209987176)
(0.3559147422 -0.3801382495 -0.09888912185)
(0.3891537055 -0.3587807285 -0.07777426068)
(0.3962762155 -0.3131769197 -0.06711142297)
(0.4145414313 -0.2537884371 -0.1044231859)
(0.4620607665 -0.192329481 -0.1554372034)
(0.5303108031 -0.1438372238 -0.1829425199)
(0.5955039291 -0.120641513 -0.1768384613)
(0.6347228155 -0.1229998285 -0.1350965697)
(0.6321715623 -0.1475119408 -0.05387238937)
(0.5821932369 -0.1948631187 0.03024266707)
(0.5181970215 -0.2564375577 0.06412292578)
(0.4616480328 -0.3069106911 0.05898687823)
(0.4065689693 -0.3287046334 0.06275837491)
(0.3452326506 -0.3267615585 0.09359112424)
(0.2394765138 -0.3324665352 0.1374525253)
(0.1347267956 -0.4234743596 0.1952976899)
(-0.08703744507 -0.2630107374 -0.07448396288)
(-0.02051444921 -0.1977141348 -0.07379814875)
(-0.02416709498 -0.1870880728 -0.04302317392)
(-0.02912325646 -0.1508810694 -0.002269860881)
(-0.08632358941 -0.1354077781 0.0664127212)
(-0.1916325846 -0.1360801006 0.08378800278)
(-0.2438055767 -0.1957205249 0.02775029127)
(-0.2634990125 -0.2698794308 -0.04576758686)
(-0.08363895854 -0.5407826051 -0.09070066287)
(0.1669675744 -0.3970237463 -0.1651849681)
(0.2191189991 -0.3927930415 -0.1494813853)
(0.3091907259 -0.3502166396 -0.1279178903)
(0.3406453016 -0.317140742 -0.08176347971)
(0.3409636011 -0.2969658047 -0.02352888249)
(0.2925034876 -0.2830003084 0.03379326829)
(0.2287059091 -0.2887281979 -0.008646159113)
(0.2512656429 -0.3070435308 -0.09251693849)
(0.306751959 -0.3172019581 -0.1328611708)
(0.3712358383 -0.3104398169 -0.140026272)
(0.4280149297 -0.2809371519 -0.1264685418)
(0.4707422857 -0.2288008584 -0.107448229)
(0.5066466331 -0.1615152545 -0.0989693818)
(0.5441328444 -0.09250025178 -0.09919236862)
(0.5783224594 -0.03752167873 -0.08891192049)
(0.5972626191 -0.00619728241 -0.04969566225)
(0.5707271011 -0.01657246413 0.02531542076)
(0.4961613859 -0.1023243682 0.09345566562)
(0.4419556415 -0.216733297 0.07263114896)
(0.426913245 -0.3112208981 0.003353775138)
(0.4291366237 -0.3606566103 -0.04602826602)
(0.4215131649 -0.3771909619 -0.0459040311)
(0.3933535064 -0.3766622792 0.005682128726)
(0.2961984902 -0.3806339938 0.09196464559)
(0.173743746 -0.4391327249 0.1993629492)
(-0.1140791374 -0.2964192805 -0.4070121048)
(0.01973991947 -0.1269176362 -0.09551037383)
(-0.01060070689 -0.118310521 -0.0565504741)
(-0.01119651819 -0.07749823341 -0.0168716976)
(-0.0904373425 -0.06482718139 0.06753923122)
(-0.2522435159 -0.07052524232 0.08257162447)
(-0.3148397059 -0.1506837534 0.004181240998)
(-0.4376512029 -0.2209628248 -0.08385470852)
(-0.1085353094 -0.829072739 -0.1751141455)
(0.3000198078 -0.3627886613 -0.1882608516)
(0.2569323602 -0.3109017326 -0.1643676086)
(0.345744082 -0.2463115725 -0.1547557342)
(0.3581996475 -0.2090842557 -0.1116275792)
(0.3491455283 -0.185664015 -0.05189894636)
(0.2806089796 -0.1806587888 0.01126685627)
(0.2117308875 -0.1993326735 -0.0438503628)
(0.2445632654 -0.2293704297 -0.1247832266)
(0.3116266933 -0.2362142357 -0.159287245)
(0.3894954233 -0.2255045876 -0.1644532573)
(0.463290512 -0.1954537102 -0.1527935101)
(0.5256072314 -0.1488636086 -0.1285879628)
(0.573924753 -0.09313459862 -0.09156024309)
(0.6050629981 -0.04121119708 -0.03988935071)
(0.6025104996 -0.01620015602 0.02420073021)
(0.5580175311 -0.04523158692 0.1073124708)
(0.4542092041 -0.107874207 0.1740703138)
(0.3588478321 -0.2402040925 0.1257044934)
(0.3688751025 -0.3301523405 0.001680503674)
(0.3998052164 -0.3778543421 -0.08818517039)
(0.4299094179 -0.3902133735 -0.1301802057)
(0.4416532515 -0.3920194816 -0.1325009301)
(0.426496383 -0.3887298051 -0.08049985301)
(0.3321257342 -0.3895300741 0.02878439211)
(0.2002637298 -0.4150798844 0.1816324249)
(-0.09712454583 -0.06798389383 -0.3410754069)
(0.07323526626 -0.04199178379 -0.1127768541)
(0.003641721902 -0.006652121591 -0.06771733328)
(0.005520820257 0.02002959038 -0.03429754967)
(-0.08334666022 0.05679547251 0.05895064482)
(-0.2863637808 0.05027139877 0.06182691715)
(-0.3549262369 -0.04427995718 -0.02179807785)
(-0.8199010545 -0.1519725664 -0.1831853535)
(0.0575208106 -0.7887960352 -1.938973002)
(0.6805288465 -0.2505561925 -0.2581890559)
(0.345486549 -0.1779023411 -0.1681413151)
(0.3817873363 -0.1226794876 -0.1749290342)
(0.3633273311 -0.08835703038 -0.1353439931)
(0.3365210408 -0.0568095967 -0.06524519714)
(0.2514538119 -0.05517591683 -0.01190123305)
(0.1976758251 -0.09629376218 -0.06852268429)
(0.2410147142 -0.1483200227 -0.1323965293)
(0.3201335945 -0.154546991 -0.160246582)
(0.4052220984 -0.1454024201 -0.1621075196)
(0.4849779837 -0.1198008947 -0.1513013155)
(0.5475530476 -0.08673861064 -0.1287896492)
(0.5869696487 -0.05677287354 -0.0912965426)
(0.5970460644 -0.03789294912 -0.03311472371)
(0.5520743877 -0.03787532678 0.04995142694)
(0.4610788179 -0.08052505631 0.1525056968)
(0.2775311849 -0.1343705471 0.1523221578)
(0.2106043279 -0.3215478606 0.01332241929)
(0.305542078 -0.373969404 -0.09218428209)
(0.3733421073 -0.3786837156 -0.1377537461)
(0.4290937656 -0.3706002029 -0.1563260063)
(0.4508800082 -0.3634384954 -0.1562353222)
(0.4399790269 -0.3609788178 -0.1199206037)
(0.3421892536 -0.3584942341 -0.01130665454)
(0.2069885983 -0.3554283355 0.1575680608)
(-0.07582574668 0.161930393 -0.1202965263)
(-0.03561932605 0.07632303792 -0.1241905844)
(0.0008697431492 0.1155190361 -0.09417820786)
(-0.009587273614 0.133395509 -0.05159697601)
(-0.07146292976 0.1915860336 0.04331155507)
(-0.2813447108 0.2272001209 0.06996455018)
(-0.4049341709 0.2385118253 -0.03266927294)
(-0.7065954664 0.1773470634 -0.3086751795)
(-0.04559275949 0.3576609722 -1.128603862)
(0.5836114698 0.1864582779 -0.3818031936)
(0.3901657908 0.1708018949 -0.1798727455)
(0.390696928 0.1230316527 -0.1668764849)
(0.3486349436 0.1087815727 -0.1197286987)
(0.3019750364 0.1088570176 -0.04831083986)
(0.2240245219 0.07827264578 -0.0005601233877)
(0.1865418489 0.01188356161 -0.04906285224)
(0.2357207027 -0.08337360343 -0.08753024852)
(0.3296817727 -0.08548106645 -0.107040914)
(0.4186530379 -0.08214439678 -0.09868424581)
(0.4995650701 -0.05584010507 -0.087665409)
(0.5489992947 -0.02700438784 -0.0676079382)
(0.5607731343 -0.00631913027 -0.02921438965)
(0.5226806245 -0.006238910752 0.03449234056)
(0.4137120158 -0.02472732959 0.118753008)
(0.2749788779 -0.09862589088 0.2095272723)
(0.04960139626 -0.1488795756 0.0525240658)
(0.1152431257 -0.4229829176 -0.08722952012)
(0.2788290173 -0.4059454447 -0.1124200562)
(0.3814697319 -0.3556561414 -0.1266365752)
(0.4478561101 -0.3220700768 -0.1426683752)
(0.4651298457 -0.3091046372 -0.1407394394)
(0.4380249387 -0.3065139182 -0.1071221183)
(0.3257803003 -0.301741495 -0.007384383521)
(0.1888566348 -0.2765756676 0.1425375172)
(-0.08491013419 0.1778203037 -0.1140635872)
(-0.0305004489 0.1756850087 -0.1213373839)
(0.003622965058 0.1978087355 -0.09687454799)
(0.01281351028 0.2286705319 -0.0602727762)
(-0.01331244176 0.2978339024 0.02097029414)
(-0.1275575291 0.361913015 0.0783522033)
(-0.2403610031 0.4130974639 0.002356609737)
(-0.2613687984 0.3928696253 -0.1394537082)
(-0.09344716865 0.7717826809 -0.2486660571)
(0.1143135898 0.394801706 -0.2115208973)
(0.1736808618 0.3492750467 -0.1533692712)
(0.2314875699 0.2754108406 -0.125317584)
(0.2427133779 0.2322543869 -0.06072854469)
(0.2090032422 0.2083346537 0.01965770774)
(0.1611228968 0.1381567433 0.06924223617)
(0.128348322 0.04957901154 0.03218491046)
(0.1860273328 -0.1194621722 0.05090472808)
(0.3248429475 -0.1150698964 0.04764941891)
(0.428032019 -0.1321190095 0.07196461227)
(0.5276033275 -0.0933435141 0.08190720163)
(0.5670805122 -0.0448624215 0.08732017904)
(0.5442975683 -0.0154652126 0.102649401)
(0.475979502 -0.01405460107 0.1404582915)
(0.3383446591 -0.02352466279 0.1895347814)
(0.2189494161 -0.1130059265 0.2282417792)
(0.01917950583 -0.1178408777 0.01870587139)
(0.1368345836 -0.4950400076 -0.2314302621)
(0.3220356081 -0.4684705751 -0.1412520947)
(0.4502142358 -0.3372779156 -0.06787241882)
(0.4981181371 -0.2611232383 -0.07594186868)
(0.476715879 -0.2368567168 -0.08049232168)
(0.3998696886 -0.2358592022 -0.03810994889)
(0.2630902428 -0.2374094459 0.04379798677)
(0.1360183425 -0.2084881575 0.1373610186)
(-0.1012159261 0.2742260878 -0.1131652147)
(-0.04887145856 0.2610858204 -0.113549625)
(0.0007248660946 0.2754059929 -0.09454478162)
(0.02352762579 0.3002246168 -0.0602094913)
(0.01554929132 0.3551696836 0.004816467441)
(-0.05515531791 0.4152501551 0.08235795957)
(-0.1766463297 0.4395490677 0.04667616065)
(-0.2314385864 0.423943413 -0.06133024602)
(-0.1052902269 0.4989055453 -0.09538617541)
(0.0679718764 0.3833322291 -0.1552453553)
(0.1050780886 0.3613700302 -0.1129132577)
(0.1500577193 0.3257737909 -0.05983517809)
(0.1495790956 0.2749879622 0.01690419656)
(0.09799029494 0.2291566608 0.08690018506)
(0.06681695704 0.1108919466 0.1298631841)
(-0.002759840644 0.02372424284 0.1245471743)
(0.05140891322 -0.3334537081 0.141328578)
(0.3229175921 -0.3461379103 0.1240144643)
(0.4851037836 -0.3919905114 0.1111169051)
(0.6034409484 -0.3266824993 0.1330539412)
(0.6337705521 -0.2132432822 0.1771658393)
(0.5839643064 -0.1254980481 0.2029041076)
(0.499385656 -0.09578223479 0.2122174895)
(0.354090321 -0.1040035219 0.2141040938)
(0.3161293167 -0.2042893057 0.2964572412)
(0.03300775355 -0.1376789602 0.1086057671)
(0.2701206368 -0.501351551 -0.5316874555)
(0.4260614168 -0.5785594118 -0.3960310286)
(0.5830454665 -0.4086672247 -0.1301913393)
(0.577047763 -0.2380032114 0.03568634719)
(0.4806235167 -0.1547946728 0.09287419821)
(0.3409970868 -0.1641083657 0.1169666331)
(0.1889230331 -0.2022657155 0.1152172738)
(0.08852525864 -0.2006790727 0.1177471971)
(-0.1172455688 0.334003519 -0.1016607063)
(-0.06396002309 0.3230884858 -0.1016601844)
(-0.008021122755 0.3277580794 -0.08585794593)
(0.02477336168 0.3469360318 -0.05444268065)
(0.0305983092 0.3841958036 -0.002767929642)
(-0.003108276263 0.437734919 0.07442009054)
(-0.1094263656 0.4687912307 0.08494961245)
(-0.1641312748 0.4606975085 0.001813874003)
(-0.1092592859 0.5036861452 -0.05070344939)
(-0.0329568185 0.4252749615 -0.0877343729)
(0.01323336832 0.4016012484 -0.03364786178)
(0.02382090991 0.3379953628 0.04049347244)
(0.01621459398 0.2615824307 0.1115378541)
(-0.04607018639 0.1878841862 0.1625175049)
(-0.03974226399 0.02631635143 0.2362435362)
(-0.1653365977 -0.1244256482 0.2420366821)
(-0.08019483151 -0.8187700173 -0.1848410475)
(0.4007050031 -0.9021051314 -0.3250566325)
(0.6365860938 -0.7875369075 -0.2081459456)
(0.754458749 -0.6196482626 -0.09967838155)
(0.7680740228 -0.4414741918 0.03240100099)
(0.6817431622 -0.2896521527 0.1688662392)
(0.5433930505 -0.2039006913 0.252155614)
(0.3203023485 -0.2259297059 0.2722968551)
(0.2114647381 -0.2995605388 0.3277903543)
(-0.2432418624 -0.2901164429 -0.09521131076)
(0.4076062928 -0.5124858067 -0.8564256576)
(0.5299931805 -0.5834814087 -0.7324453043)
(0.7465546263 -0.4725341677 -0.4703548381)
(0.723769444 -0.3097987987 -0.09321228347)
(0.5598526774 -0.2101137334 0.157770948)
(0.3675204347 -0.1939357826 0.1839690427)
(0.2005636122 -0.2007540846 0.1187286708)
(0.09680038741 -0.188983001 0.09547456824)
(-0.1311111693 0.3763595507 -0.08386334651)
(-0.07947109891 0.3603888345 -0.08507892758)
(-0.0231457079 0.355964584 -0.07277500696)
(0.01395530374 0.366793056 -0.04439276856)
(0.02867914086 0.3890782565 -0.003341243815)
(0.01077825065 0.4246609603 0.06578675494)
(-0.07885205692 0.4487086501 0.1077940704)
(-0.1473067512 0.4319562433 0.0561555916)
(-0.1342555208 0.4330833372 0.008536706972)
(-0.1056655896 0.3913144497 -0.001559961204)
(-0.08272960307 0.3356603493 0.05653426851)
(-0.08886808903 0.2360661951 0.1082199525)
(-0.09283779197 0.1387881946 0.1227711978)
(-0.1603490523 0.009403015304 0.1356793355)
(-0.2215813756 -0.1351623691 0.1284031221)
(-0.5749341788 -0.3126894317 -0.135050239)
(-0.1157655355 -0.6003365552 -1.132825008)
(0.6128203026 -0.7888610004 -1.214949049)
(0.8727956045 -0.7089433351 -0.8336168939)
(0.9805380855 -0.5608350774 -0.5233910254)
(0.9609390026 -0.4294546818 -0.3206957862)
(0.8459268634 -0.3230772223 -0.1042125961)
(0.6288881418 -0.2443921428 0.1247825876)
(0.3277567023 -0.252092888 0.2635020783)
(-0.1175889542 -0.2728788755 0.08786895627)
(-0.2816873445 -0.3567496243 -0.4434251515)
(0.4214015239 -0.3872162447 -1.025419162)
(0.6557623476 -0.3652024679 -0.9061097357)
(0.8991615121 -0.3248769178 -0.7357260339)
(0.9296025008 -0.2536661562 -0.4354485833)
(0.7229594561 -0.1789044143 -0.02766422488)
(0.4303663258 -0.1370445012 0.143135857)
(0.217192262 -0.1366820771 0.09971206084)
(0.1017953887 -0.1281044795 0.07837009177)
(-0.1379432237 0.3947770434 -0.06076739187)
(-0.09218543424 0.3722153527 -0.06457366484)
(-0.04086974939 0.3591812612 -0.05670285918)
(-0.001848411185 0.359818427 -0.03041049855)
(0.01003523002 0.3687663203 0.007095060409)
(-0.009868656976 0.3870276003 0.06917158087)
(-0.09271012427 0.4024363244 0.1225674442)
(-0.1643139782 0.3595277272 0.09482714292)
(-0.1776630359 0.3502441262 0.06963088096)
(-0.184588924 0.3015547341 0.06825180113)
(-0.1955366104 0.2293905496 0.09410463255)
(-0.218108831 0.152954718 0.104843208)
(-0.2523053197 0.1228597257 0.1093459465)
(-0.403523714 0.1120679164 0.1108122165)
(-0.6895265816 0.1280026868 -0.1972939829)
(-0.732811863 0.03722515503 -0.8524121825)
(-0.04587826682 0.05376747189 -1.703339203)
(0.5529728532 -0.1583882338 -1.937690062)
(0.9476587237 -0.1402890761 -1.503413949)
(1.153176834 -0.100211943 -0.9962859466)
(1.148989582 -0.07269221383 -0.6192773886)
(1.047999783 -0.04894575772 -0.3502235682)
(0.8143911863 -0.01490691116 -0.04437391993)
(0.5100974274 0.01621536648 0.2153640494)
(-0.02437764752 0.01721044573 0.08634813718)
(0.01049081486 -0.2066258543 -0.5276126007)
(0.35591937 -0.05151961022 -0.8980426686)
(0.6077137417 0.05530628148 -0.796782948)
(0.7920883308 0.06748242251 -0.5254274139)
(0.7815881221 0.12661125 -0.1895962135)
(0.5492047721 0.1131761019 0.07654159953)