/*--------------------------------*- C++ -*----------------------------------*\
  =========                 |
  \\      /  F ield         | OpenFOAM: The Open Source CFD Toolbox
   \\    /   O peration     | Website:  https://openfoam.org
    \\  /    A nd           | Version:  8
     \\/     M anipulation  |
\*---------------------------------------------------------------------------*/
FoamFile
{
    version     2.0;
    format      ascii;
    class       volScalarField;
    location    "1/wallFilmRegion";
    object      alpha;
}
// * * * * * * * * * * * * * * * * * * * * * * * * * * * * * * * * * * * * * //

dimensions      [0 0 0 0 0 0 0];

internalField   nonuniform List<scalar> 
1342
(
0.3626339411
2.271861869
1.901831502
0.3369844423
0.02005034153
0.004022901668
0.006711816451
0.01447380934
0.02139476421
0.02601870902
0.025868073
0.0204704471
0.01393147682
0.009308412355
0.006668835972
0.005485874452
0.005633344954
0.007092345737
0.009692874406
0.01260837283
0.01922887142
0.04057837613
0.08822696005
0.1543013001
0.1665256385
2.903354227
0.1351104955
0.1102425467
1.778367302
1.062644916
0.2622567343
0.02227400759
0.00592238069
0.008027156312
0.01419193093
0.01935783993
0.02357390537
0.02507128969
0.02160141207
0.0152802437
0.01000154087
0.007908987079
0.00493055177
0.004212822119
0.004686093286
0.006758232912
0.01018126734
0.01599243471
0.03173872713
0.06410726145
0.1070824093
0.1208483447
2.541404143
0.006913099883
0.03712086913
0.1226171707
0.7766959215
0.1851982801
0.05543742409
0.1030519967
0.01645157851
0.01227098778
0.01458224089
0.01739216464
0.02072287672
0.02335967926
0.02230403412
0.01674829641
0.01076228183
0.02898598986
0.005962265124
0.003534468598
0.003217192208
0.004455036389
0.006806678708
0.01070563344
0.01975505214
0.03625926713
0.05908664127
0.07879652376
2.252492751
0.3714461513
0.3560835377
0.260225139
0.08731689168
0.0363196162
0.02866854645
0.3669225716
0.1256565645
0.02249815928
0.01422674326
0.01450935365
0.01695774834
0.02025590143
0.02242274161
0.02030005631
0.01477937769
0.1456667563
0.02038875988
0.03233297158
0.3057687133
0.003163637751
0.002130835177
0.005541483599
0.01064461911
0.01887742647
0.03436148398
0.0683667608
2.452853874
0.3820252816
0.2616013232
0.1387158221
0.03413104092
0.02601719493
0.03260791629
0.1348152532
0.007501608749
0.003952287569
0.006770798252
0.00923947399
0.01177859329
0.01494860687
0.01892964384
0.02202035337
0.02176502795
0.5292973538
0.09846986191
0.03398334423
0.1750337113
0.0144059878
0.009704447424
0.01379365672
0.02655930012
0.04758283247
0.07569530981
0.0976588803
2.501999628
0.5841093347
0.4406468478
0.2764804694
0.2048312405
0.08348311668
0.03276987337
0.020074353
0.01743955612
0.004789484728
0.001495762224
0.003190470668
0.004821644111
0.006364856168
0.008190849174
0.01532486544
0.06109553823
0.2635912147
2.674776977
0.6967131275
0.2104656133
0.06973982079
0.03543134044
0.02538944573
0.02641313884
0.04530639784
0.07833872721
0.1163952753
0.1106299835
2.899884808
0.3634910348
0.6135739544
0.6388796344
0.3875487096
0.178549606
0.07022354099
0.03800302082
0.02495951931
0.01107840222
0.001444311528
0.003110037431
0.00462405941
0.005871016714
0.007093206349
0.00899316976
0.01318526696
0.02219555674
0.6508951493
0.1448689005
0.05169085984
0.04698136093
0.04959433125
0.04550539483
0.04303023561
0.06268408765
0.1011775461
0.1483831925
0.1150772386
3.352963391
0.04011995839
0.0646821128
0.164732926
0.3848176523
0.8397565006
0.09121598819
0.01134795369
0.002549150862
0.01246182473
0.01087168306
0.01028611975
0.01113510212
0.01236394285
0.01383210489
0.01587119716
0.01892263468
0.02384269932
0.1974166684
0.06174418434
0.05792679964
0.07080698595
0.07678561009
0.06816003398
0.06001457325
0.07789027635
0.116184527
0.1775477741
0.1194005413
3.839481304
0.03389767877
0.05565295903
0.08381575265
0.1340669367
0.1217810724
0.02445873471
0.002025078438
0.0009161994626
0.001660417367
0.006952512867
0.01145845687
0.01469721866
0.017118757
0.01928538701
0.02178733508
0.02515492166
0.03214513012
0.09141319577
0.140399364
0.1870818488
0.1845978605
0.1545391305
0.1133246736
0.08995305167
0.1038678076
0.1363277023
0.2169543589
0.1235925706
4.271570553
0.09224042364
0.2969609873
0.1620177803
0.1120427529
0.03470163469
0.01237919381
0.001328649321
0.0006231443289
0.0009819484673
0.006202488291
0.01246999752
0.01788103511
0.02246825536
0.02651871421
0.03039360349
0.03466796706
0.04727953926
0.1081757764
0.138010234
0.1299636624
0.1500758924
0.1788718549
0.1676632182
0.149720253
0.1579830348
0.1749455072
0.2803762989
0.1198336939
4.581577128
0.1940492601
0.4245540383
0.2972628361
0.1431494359
0.05730252961
0.02896559514
0.004642578418
0.001501325828
0.001245906523
0.02785441955
0.03960100144
0.04015669637
0.04050536872
0.04473247438
0.05000604497
0.05402092875
0.06559082213
0.08583869305
0.07127605311
0.04549870263
0.05778595575
0.1088349247
0.1702753778
0.2176729673
0.2266127754
0.2183640613
0.3390125864
0.1099913374
4.750708195
0.1020679307
0.1457986675
0.06389683214
0.05110134272
0.07099488021
0.3423447254
0.0106772632
0.00456844634
0.002178144629
0.2418506893
0.369094682
0.2259454953
0.1247890739
0.09799523872
0.09312954325
0.08600016442
0.0850499034
0.08245619115
0.06104236452
0.03646702051
0.03310265379
0.05326651613
0.106771376
0.2820407203
0.3047951963
0.2323582303
0.3114362089
0.1229908092
4.803954668
0.03783555163
0.0619986546
0.03021494243
0.02649264998
0.0398678022
0.1470364534
0.07711980317
0.007788725671
0.004145572909
0.03119304336
0.1413144521
0.2581680699
0.2104193644
0.1693221399
0.1450341737
0.1134051107
0.09183591868
0.07586152938
0.05343188666
0.03279333779
0.02481046245
0.03000694676
0.05002578516
0.2117711957
0.2599358096
0.1945341994
0.2312762258
0.1288685203
4.780160276
0.02873123631
0.03840197486
0.01950751994
0.02363916524
0.02969345556
0.05692591677
0.07928336953
0.005342022426
0.00574599172
0.01083361335
0.03129755269
0.09516168828
0.1668030854
0.1743928088
0.1467662577
0.1064763413
0.08002636925
0.06135937731
0.04339333196
0.02934635775
0.02249832817
0.02298118246
0.03020352906
0.1472974967
0.1842319072
0.1484125555
0.1698790738
0.1346473626
4.667801833
0.05764625827
0.03837996229
0.08891640217
0.1117766766
0.07778473673
0.04489307529
0.02922986665
0.01438722603
0.00886733119
0.006431240224
0.01306249025
0.04227844247
0.09863827437
0.1310021938
0.1305896764
0.1142930192
0.09891909783
0.09313290386
0.0802928959
0.0820051704
0.1203575007
0.1358286467
0.1045609334
0.1337780777
0.1381866012
0.1090278571
0.1365328908
0.129514873
4.483250214
0.06185000838
0.0101636386
0.01111174424
0.01369387267
0.09968571935
0.1150853165
0.08372328965
0.03274010987
0.01551462656
0.0119860975
0.02300969954
0.04063650987
0.06722380285
0.09095142521
0.1047939903
0.1107956104
0.1173574465
0.2022755045
0.6060040295
1.155310626
1.684095742
1.13325001
0.2767734678
0.1421064392
0.1979469424
0.2217899491
0.2683554692
0.2874934603
4.399283726
0.001774739616
0.002523157382
0.003606152617
0.002012051489
0.0041583591
0.005135370479
0.03075643911
0.06043767737
0.02280466796
0.028599351
0.04845449125
0.06249519425
0.07592148057
0.08868441136
0.09997427506
0.1072979238
0.1079547125
0.09809602922
0.08360409489
0.1148584261
0.1065930561
0.2479606329
0.1744704882
0.1645297204
0.225136268
0.2372355861
0.2629363329
0.243302098
4.073028658
0.0026126614
0.001757524198
0.002500617767
0.002546106211
0.003026651497
0.003531510467
0.00836510618
0.04795587317
0.03614682469
0.09699796348
0.1369547895
0.1390152785
0.1301442667
0.1239748218
0.1227702029
0.1179619777
0.1010618768
0.07098261509
0.04001654442
0.01768576105
0.01217959982
0.03436291565
0.06384683374
0.1679909696
0.2154879417
0.2133147243
0.2208886223
0.1691646775
3.718747864
0.005685150095
0.005634953872
0.007005444209
0.00763565868
0.008545917261
0.01298197962
0.0743679625
0.09605860897
0.03068045225
0.1491985175
0.2102064335
0.2046304601
0.1780893485
0.1592226997
0.1618845935
0.1685353931
0.1416370735
0.08520748481
0.03915057853
0.01829131557
0.01234475607
0.01468412122
0.02401304165
0.1549116445
0.1927239687
0.1763153188
0.165902728
0.1231316852
3.470145499
0.009061869371
0.01036152303
0.01269605863
0.01424661182
0.01598870763
0.02265312874
0.1555993532
0.198132712
0.02780230118
0.1268910264
0.1869965085
0.1883704345
0.1712484055
0.1770040473
0.249672866
0.2982893807
0.2181338027
0.1011675369
0.03728575521
0.01730269884
0.012916393
0.01359427504
0.01830700684
0.1438712511
0.1784816168
0.1497534165
0.1374048323
0.134359259
3.44194783
0.01204550231
0.01437605553
0.0179339876
0.02062899327
0.02336418887
0.02984527067
0.1701288338
0.2729919387
0.03054080212
0.08236273981
0.1274736109
0.1396162203
0.1439526866
0.1974933821
0.4152893424
0.4522024659
0.2346292161
0.08068432034
0.02848781048
0.01647325503
0.01496006741
0.0170444864
0.02825945112
0.1561153275
0.2448237716
0.3022408688
0.3502145078
0.3444253606
3.814822676
0.01437124366
0.01703202261
0.02200725947
0.02596
0.02962704412
0.03455525009
0.1353064222
0.2588685271
0.03340003498
0.05816095106
0.0902962611
0.107311562
0.1244344437
0.2010403709
0.5256852552
0.5158718727
0.1985100486
0.06010068362
0.02709661142
0.02068648678
0.02153337527
0.02972881774
0.2372790762
3.686971051
3.511878846
1.183126317
0.6382824127
0.38538551
4.482650115
0.01607125106
0.0185321603
0.02516585654
0.03050717179
0.03486224764
0.0382639996
0.09663107102
0.1821024658
0.03485990784
0.05301262555
0.07788885776
0.09544174042
0.1130558077
0.1758995786
0.4786202693
0.4767125241
0.1963920129
0.07456071788
0.04258410111
0.03523628501
0.04343045455
0.1359271348
5.865829929
2.877847349
2.23504882
1.080439831
0.6499320809
0.2176628826
6.278941891
0.01732039115
0.01945438614
0.02817285957
0.03501300638
0.03932946027
0.04303178197
0.08069509828
0.1143099923
0.04147403499
0.05779129157
0.0797058083
0.09567246822
0.1054005118
0.1387776743
0.339821306
0.3776976176
0.2221487008
0.1223709575
0.0806612592
0.06697667022
0.08387568058
0.5664022366
4.551335601
2.835530277
2.836318504
1.841075533
1.373521862
0.4045454528
8.795683521
0.01805712492
0.02042808697
0.03186619468
0.03985269105
0.04239133108
0.04993075643
0.1122288465
0.09533790181
0.0453725897
0.06561570947
0.08916947203
0.1011867307
0.0998022573
0.109561523
0.2169851843
0.2765975199
0.2302341845
0.1750672928
0.1363006431
0.1348495035
0.389414242
6.998747074
2.889515718
3.299877658
3.778204014
3.495242455
2.136660145
0.5298709308
7.881016825
0.02127830479
0.02257943896
0.03681609109
0.0442867607
0.04259759049
0.05608131446
0.2071605439
0.1030655334
0.04428794179
0.07185214843
0.09954068053
0.104056365
0.09403922075
0.09093575464
0.14188071
0.200791349
0.2174652752
0.2086704642
0.19314236
0.2525726129
3.112675426
2.597383454
2.239015347
2.710623625
3.755459642
4.722399816
3.25159232
0.7312150494
7.446706261
0.03407039709
0.03217009976
0.07069653405
0.05288745941
0.04020167314
0.06019082409
0.3232593054
0.1030485948
0.03672839819
0.07248341827
0.1004900559
0.0978169646
0.08237513986
0.07342655255
0.09893665218
0.1511558798
0.1963992308
0.2202071764
0.225191279
0.3402023319
1.526976893
1.188967802
0.9680476321
1.48267406
2.273109625
4.535130187
4.802177694
2.240328457
7.469138027
0.08787290454
0.09786547222
0.6845561532
0.1317957113
0.05558531571
0.06993209005
0.4031327833
0.09611372267
0.03140320696
0.07139491825
0.09696626126
0.09283302205
0.0778645758
0.07205314243
0.09699837557
0.1543066274
0.2254779071
0.3109350409
0.4248201825
0.7470155731
1.66164259
4.153896204
2.870921336
1.619821798
1.475744783
2.707996685
5.35384058
4.869022413
10.30051095
0.2282059054
0.3072804505
1.060999489
0.2326688536
0.08870218665
0.08114097255
0.365720574
0.07609603666
0.02506693984
0.06261244351
0.08294021139
0.07959153174
0.07183111715
0.0782073321
0.1116705268
0.1718820646
0.2459991209
0.327527676
0.4083549312
0.5424325166
0.4993714368
0.4594315893
0.5082925823
0.6365169264
0.9058240861
1.531013165
2.809348076
4.903979336
10.36995026
5.093690611
3.575384524
3.201967728
2.044444662
1.393229347
1.157555155
1.954313273
1.812568509
2.013845315
2.497746601
2.953018911
3.303527333
3.585733175
3.878673315
4.235341066
4.615414597
4.886620452
4.947844662
4.844740571
4.775075579
4.71692996
4.865721855
5.214265856
5.948084461
7.244053931
8.63566105
9.521270788
10.5204911
15.47648356
16.25875562
0.03850532729
0.02117532518
0.002432943451
0.001882765246
0.0008240128072
0.0004730111821
0.0002622326427
7.166072025e-15
9.609076326e-17
4.431193025e-17
9.007273994e-18
1.284030972e-15
4.19238581e-17
1.9512797e-17
3.877411722e-18
1.332944877e-16
9.703011368e-18
4.64319721e-18
9.456511625e-19
0.0001500148356
7.593340241e-06
4.702099094e-06
2.925977523e-06
0.9990205572
0.0002631381323
6.621493252e-05
1.291549253
1.180603542e-05
5.553358398e-06
1.422873038
3.678535104e-06
4.607378554e-06
1.546543157
6.370266778e-06
1.279141275e-05
7.299493835
2.244426147e-05
4.071846047e-05
0.9740846344
9.060440838e-05
0.0001471882074
0.8075665294
0.0002519773668
0.0005321139277
0.5086553283
0.0008465289007
0.00118221997
0.059813957
0.002388315825
0.008333369666
1.52349982
0.05514248463
0.4675640162
7.979983835e-05
0.000390962071
0.0002361212519
0.3150911674
0.1100665277
0.2474078192
0.0005043295511
0.0007631945526
0.00480709614
0.1521077309
0.0009421466657
0.0001700848227
0.0005468573601
0.0002677802273
0.1077710767
0.2143690405
0.1823545313
0.00036230339
0.0002231168326
0.0001657482612
0.0001424455753
0.7305817751
1.588102175
1.606152883
1.895283093e-05
0.001116245992
0.1691876023
0.2585235526
0.1891447954
2.041183111
0.2929393226
0.00538518058
0.004884498077
0.003251183191
0.01019769495
0.004308974249
0.005408005115
0.3074240204
2.6029997
0.3641137251
0.002021002613
0.2460924739
0.06122572894
0.4656066146
4.01458228
0.7532527855
0.1616177203
0.5185630128
0.3804622246
2.441915332
9.848833671
4.717715767
0.9574647192
4.124313001
2.602870099
0.7291844235
4.079411013
0.5836477895
1.280658926
0.3954628282
0.1752583907
0.2728544757
2.087202729
0.1568036039
0.04987527739
0.1781281299
0.01774920153
0.09581006871
1.86627355
0.06530855644
0.03851578299
0.07439741721
2.390519869
0.1615700063
0.1328552437
1.386429305e-12
0.0002159031013
4.68540452e-16
1.308851871e-11
2.429006463e-16
1.733521424e-16
3.527336425e-10
1.148508178e-16
6.785042704e-17
3.257549795e-17
7.513202981e-06
4.652273756e-05
2.595383207e-05
3.93972658e-06
1.460883947e-05
1.1039872e-05
9.593548613e-06
1.069323275e-05
1.489242721e-05
3.223857066e-05
2.678107044e-05
5.306064074e-05
0.0001325330661
0.0001617518398
0.0003164286676
0.0005441311482
0.0006005785437
0.001672400918
0.001225162953
0.002964413704
0.004608409648
0.01193406392
0.009089618552
0.0235258548
2.955973157e-16
1.350422511e-16
4.968396012e-17
1.296628482e-14
3.85589172e-17
1.483902893e-17
5.252824891e-05
0.0001653625584
9.881404222e-05
2.240507394e-05
6.947111277e-05
5.10808355e-05
1.814799066e-05
3.418061366e-05
2.526719293e-05
7.56531826e-05
4.607884866e-05
0.0001137025829
0.0005166523892
0.0004561899097
0.0009665742079
0.003993125498
0.002288632855
0.01240764749
0.01146104557
0.02617239262
0.03053159231
0.03912643793
0.0398606021
0.06287382604
1.135166401e-16
5.665776047e-15
8.865421782e-17
6.822814544e-17
7.474121309e-17
5.302293038e-17
2.443359199e-17
0.0001080881999
0.000189512807
0.0001846133985
5.102729192e-05
0.0001780879233
0.0001587639413
0.0001845599407
0.0001728244749
0.0003301827578
0.002083939431
0.002254379771
0.004728607427
0.04413407443
0.01295403007
0.1375351641
0.08936917728
0.28978059
0.2700979042
4.316757626e-16
2.585460668e-17
2.991690814e-17
2.180447659e-17
1.566819546e-17
1.074743683e-17
1.028827398e-17
0.0003795353787
0.000109151651
0.0002542589513
0.0006638766855
0.0003909260173
0.0002364234517
0.0122239677
0.01360775079
0.03951151721
0.324621461
0.08332590545
0.4887077828
7.040600615e-18
2.150529346
1.837322686
0.04235290299
0.2523649756
9.963610688e-09
0.2064779662
6.21749578e-08
0.1805930228
1.005795634e-06
1.049901158
1.831827883
0.01004635165
0.007576490404
1.408733519
2.293707453
0.1326286993
1.364913759
3.010626487
0.3432524833
3.963523544
8.015307792
1.440785605
1.709816502
6.77736582
1.329147991
0.8010839153
2.724149365
0.2483284753
0.7053445253
1.796508219
0.09273863
0.2256794005
2.391635547
0.1114032757
1.118100501
0.7569107086
0.0002139595688
0.0002252411833
3.540145212e-12
5.874945121e-11
1.802244358e-05
3.685324235e-06
5.233006325e-06
1.689057865e-05
7.992669722e-05
0.0002366255356
0.0008682219031
0.002960932715
0.07627340343
0.0002347224297
8.701028153e-05
1.899312042e-16
1.499430926e-16
8.818007955e-17
6.931287829e-17
2.020465865e-17
8.942551335e-05
3.378177229e-05
1.670072302e-05
3.411989549e-05
0.000258898987
0.001080990361
0.007884576542
0.01877019716
0.143441735
0.0003139979254
0.0001259659445
8.47667211e-05
7.305714531e-05
0.0009522494142
0.005471167027
0.09157005163
0.09010869755
0.168800858
0.002017221252
0.001674954667
0.0002088485224
0.0001212831741
7.933437946e-05
6.957059123e-05
0.0002096882755
0.0002479313816
0.0005498162314
0.005136669486
0.03250789627
0.7353595777
0.4855671421
0.0003026503535
5.549805373e-05
1.47957091e-05
1.905432602e-06
1.025751556e-16
1.487609395e-17
7.981532348e-19
4.105580925e-19
6.011303579e-19
1.798973972e-19
5.181585313e-05
7.035855922e-06
7.659666689e-06
1.874718613e-05
4.752989874e-05
0.06166075992
0.001954325915
0.0003203174002
3.672789701e-05
3.961270616e-06
0.232128115
0.0003571842148
5.808940877e-06
7.231983656e-07
4.009112596e-07
0.3187608944
0.007604632244
1.717749559
0.2066319111
0.0002529010444
3.087663835e-11
0.2159225847
1.860659476e-08
0.07722584912
0.075058249
4.030916443e-11
1.469388158e-10
0.1931683533
2.472895488e-07
0.0843463028
0.08544251728
6.414366482e-10
3.560468771e-09
0.08421854852
2.852325366e-08
0.6340005488
13.35444926
3.547551964
0.08065993816
0.06504813616
0.005903462244
1.54055198
0.003910822614
0.002794365991
0.007567850245
0.001632647592
0.001397869644
0.001062853382
0.0008028422346
0.0005997802106
0.0004431227981
1.747614519e-16
1.065460187e-16
0.002482532044
0.0005909949389
0.0009430057939
0.0003950420815
0.0006259492408
0.0005194987111
0.000299029125
0.000354043917
0.0002245332227
0.0001669704351
3.444259494e-17
1.897539845e-17
6.942810962e-18
4.973622554e-17
0.0006066000805
0.0001646780005
6.909273751e-05
0.0001354542575
0.0001033510791
3.361937178e-05
2.633746209e-05
4.632541024e-05
2.049095564e-05
0.0002487775917
0.0001589783819
9.219672307e-05
6.083238144e-05
5.691304552e-18
2.037705014e-18
1.150037873e-17
7.006836684e-18
5.934491558e-18
4.283089196e-18
2.601101929e-18
2.845530929e-18
1.607478506e-18
1.011788454e-05
0.0001425534181
1.433319899e-05
5.888971977e-06
2.374578506e-05
1.091427175e-05
1.857484454e-05
8.547788727e-06
6.853675968e-06
5.499288211e-06
9.361896224e-06
4.340690083e-06
3.045715169e-05
4.296633178e-05
1.182463555e-05
9.684107203e-19
1.624354061e-06
8.721475794e-07
5.868278135e-19
1.349694642e-06
2.19581081e-06
2.654642489e-19
4.116395964e-06
9.89453636e-06
2.848617026e-05
4.601353469e-06
0.0002500532271
0.0001656803058
1.202158485e-05
0.0002635076158
0.0003073964061
3.213781086e-05
0.0002363304362
0.000139054552
5.478384585e-05
0.0004733309361
0.00167962363
0.0001251059369
0.0001378341797
4.013066644e-05
4.894688998e-06
9.257308321e-06
1.380998907e-07
9.695833987e-08
7.070262733e-08
1.710127135e-05
9.526241517e-05
5.990584847e-06
1.455902583e-06
3.204715566e-06
1.952481546e-06
5.436290158e-07
1.452309539e-06
1.112201666e-06
3.74639884e-06
8.315952209e-07
)
;

boundaryField
{
    walls
    {
        type            zeroGradient;
    }
    wallFilmFace_top
    {
        type            zeroGradient;
    }
    region0_to_wallFilmRegion_wallFilmFace
    {
        type            zeroGradient;
    }
    mirrorFace_top
    {
        type            zeroGradient;
    }
    region0_to_wallFilmRegion_mirrorFace
    {
        type            zeroGradient;
    }
    procBoundary2to0
    {
        type            processor;
        value           nonuniform List<scalar> 
26
(
0.6744148173
2.203658896
1.086845099
0.1269004667
0.01792609517
0.001493568753
0.006563348447
0.0156563614
0.02384454415
0.02787139996
0.02524238111
0.01825506122
0.01197660419
0.008174337206
0.006357931564
0.006048778952
0.00691356933
0.008453364802
0.009823219715
0.01277617404
0.02081792573
0.04528968925
0.09806782171
0.1768525518
0.199698077
3.446393983
)
;
    }
    procBoundary2to1
    {
        type            processor;
        value           nonuniform List<scalar> 
33
(
0.6037714772
0.6037714772
0.1411734967
0.1411734967
0.0108326981
0.1530512629
0.3977622716
0.3977622716
0.6889866331
0.2656786591
0.05933085846
0.02130389928
0.04676903446
0.09984267831
0.07837372971
0.04329602978
0.03244672747
0.1418689764
0.3430347849
0.07674448223
0.023050464
0.01529710033
0.01561276866
0.01782358768
0.02037583458
0.02270370137
0.02455273603
0.08926655877
1.574872178
0.09369675153
0.01888072995
0.08070774473
4.651812884
)
;
    }
    procBoundary2to3
    {
        type            processor;
        value           nonuniform List<scalar> 
64
(
0.02099057067
0.001864356344
0.001412292786
0.0007772427195
0.0001918807627
2.127781752e-07
2.953945701e-07
7.2408915e-07
2.2227725e-06
0.0133492372
0.001634727285
0.006891085664
0.001948482595
0.001634727285
0.01591945625
0.05060482377
0.1607965433
0.7358207243
2.738351637
1.122700988
0.1041920906
0.02609506552
0.01645719137
0.009899020714
0.009899020714
0.009958635942
0.02921277848
0.02921277848
0.1518792649
0.02921277848
3.548002996e-09
2.626746399e-07
3.548002996e-09
2.193349932e-07
2.072359453e-07
0.1699618127
3.952866666e-06
0.0133492372
0.8356203405
3.548002996e-09
5.192498107e-05
1.127944088e-06
4.647845063e-06
1.622655163e-06
2.30440899e-06
2.888696588e-07
0.0802762955
5.408376654e-07
0.6447117185
0.003075333074
0.001864356344
0.001054180045
0.0003234041053
0.0001227090519
2.337342588e-07
3.490274203e-05
1.573921565e-05
4.176050915e-07
7.277366164e-06
3.337371486e-06
3.370867556e-05
1.678065685e-06
5.080480276e-08
6.054382774e-07
)
;
    }
}


// ************************************************************************* //
