/*--------------------------------*- C++ -*----------------------------------*\
  =========                 |
  \\      /  F ield         | OpenFOAM: The Open Source CFD Toolbox
   \\    /   O peration     | Website:  https://openfoam.org
    \\  /    A nd           | Version:  8
     \\/     M anipulation  |
\*---------------------------------------------------------------------------*/
FoamFile
{
    version     2.0;
    format      ascii;
    class       volScalarField;
    location    "1/wallFilmRegion";
    object      delta;
}
// * * * * * * * * * * * * * * * * * * * * * * * * * * * * * * * * * * * * * //

dimensions      [0 1 0 0 0 0 0];

internalField   nonuniform List<scalar> 
1342
(
0.0003626339411
0.002271861869
0.001901831502
0.0003369844423
2.005034153e-05
4.022901668e-06
6.711816451e-06
1.447380934e-05
2.139476421e-05
2.601870902e-05
2.5868073e-05
2.04704471e-05
1.393147682e-05
9.308412355e-06
6.668835972e-06
5.485874452e-06
5.633344954e-06
7.092345737e-06
9.692874406e-06
1.260837283e-05
1.922887142e-05
4.057837613e-05
8.822696005e-05
0.0001543013001
0.0001665256385
0.002903354227
0.0001351104955
0.0001102425467
0.001778367302
0.001062644916
0.0002622567343
2.227400759e-05
5.92238069e-06
8.027156312e-06
1.419193093e-05
1.935783993e-05
2.357390537e-05
2.507128969e-05
2.160141207e-05
1.52802437e-05
1.000154087e-05
7.908987079e-06
4.93055177e-06
4.212822119e-06
4.686093286e-06
6.758232912e-06
1.018126734e-05
1.599243471e-05
3.173872713e-05
6.410726145e-05
0.0001070824093
0.0001208483447
0.002541404143
6.913099883e-06
3.712086913e-05
0.0001226171707
0.0007766959215
0.0001851982801
5.543742409e-05
0.0001030519967
1.645157851e-05
1.227098778e-05
1.458224089e-05
1.739216464e-05
2.072287672e-05
2.335967926e-05
2.230403412e-05
1.674829641e-05
1.076228183e-05
2.898598986e-05
5.962265124e-06
3.534468598e-06
3.217192208e-06
4.455036389e-06
6.806678708e-06
1.070563344e-05
1.975505214e-05
3.625926713e-05
5.908664127e-05
7.879652376e-05
0.002252492751
0.0003714461513
0.0003560835377
0.000260225139
8.731689168e-05
3.63196162e-05
2.866854645e-05
0.0003669225716
0.0001256565645
2.249815928e-05
1.422674326e-05
1.450935365e-05
1.695774834e-05
2.025590143e-05
2.242274161e-05
2.030005631e-05
1.477937769e-05
0.0001456667563
2.038875988e-05
3.233297158e-05
0.0003057687133
3.163637751e-06
2.130835177e-06
5.541483599e-06
1.064461911e-05
1.887742647e-05
3.436148398e-05
6.83667608e-05
0.002452853874
0.0003820252816
0.0002616013232
0.0001387158221
3.413104092e-05
2.601719493e-05
3.260791629e-05
0.0001348152532
7.501608749e-06
3.952287569e-06
6.770798252e-06
9.23947399e-06
1.177859329e-05
1.494860687e-05
1.892964384e-05
2.202035337e-05
2.176502795e-05
0.0005292973538
9.846986191e-05
3.398334423e-05
0.0001750337113
1.44059878e-05
9.704447424e-06
1.379365672e-05
2.655930012e-05
4.758283247e-05
7.569530981e-05
9.76588803e-05
0.002501999628
0.0005841093347
0.0004406468478
0.0002764804694
0.0002048312405
8.348311668e-05
3.276987337e-05
2.0074353e-05
1.743955612e-05
4.789484728e-06
1.495762224e-06
3.190470668e-06
4.821644111e-06
6.364856168e-06
8.190849174e-06
1.532486544e-05
6.109553823e-05
0.0002635912147
0.002674776977
0.0006967131275
0.0002104656133
6.973982079e-05
3.543134044e-05
2.538944573e-05
2.641313884e-05
4.530639784e-05
7.833872721e-05
0.0001163952753
0.0001106299835
0.002899884808
0.0003634910348
0.0006135739544
0.0006388796344
0.0003875487096
0.000178549606
7.022354099e-05
3.800302082e-05
2.495951931e-05
1.107840222e-05
1.444311528e-06
3.110037431e-06
4.62405941e-06
5.871016714e-06
7.093206349e-06
8.99316976e-06
1.318526696e-05
2.219555674e-05
0.0006508951493
0.0001448689005
5.169085984e-05
4.698136093e-05
4.959433125e-05
4.550539483e-05
4.303023561e-05
6.268408765e-05
0.0001011775461
0.0001483831925
0.0001150772386
0.003352963391
4.011995839e-05
6.46821128e-05
0.000164732926
0.0003848176523
0.0008397565006
9.121598819e-05
1.134795369e-05
2.549150862e-06
1.246182473e-05
1.087168306e-05
1.028611975e-05
1.113510212e-05
1.236394285e-05
1.383210489e-05
1.587119716e-05
1.892263468e-05
2.384269932e-05
0.0001974166684
6.174418434e-05
5.792679964e-05
7.080698595e-05
7.678561009e-05
6.816003398e-05
6.001457325e-05
7.789027635e-05
0.000116184527
0.0001775477741
0.0001194005413
0.003839481304
3.389767877e-05
5.565295903e-05
8.381575265e-05
0.0001340669367
0.0001217810724
2.445873471e-05
2.025078438e-06
9.161994626e-07
1.660417367e-06
6.952512867e-06
1.145845687e-05
1.469721866e-05
1.7118757e-05
1.928538701e-05
2.178733508e-05
2.515492166e-05
3.214513012e-05
9.141319577e-05
0.000140399364
0.0001870818488
0.0001845978605
0.0001545391305
0.0001133246736
8.995305167e-05
0.0001038678076
0.0001363277023
0.0002169543589
0.0001235925706
0.004271570553
9.224042364e-05
0.0002969609873
0.0001620177803
0.0001120427529
3.470163469e-05
1.237919381e-05
1.328649321e-06
6.231443289e-07
9.819484673e-07
6.202488291e-06
1.246999752e-05
1.788103511e-05
2.246825536e-05
2.651871421e-05
3.039360349e-05
3.466796706e-05
4.727953926e-05
0.0001081757764
0.000138010234
0.0001299636624
0.0001500758924
0.0001788718549
0.0001676632182
0.000149720253
0.0001579830348
0.0001749455072
0.0002803762989
0.0001198336939
0.004581577128
0.0001940492601
0.0004245540383
0.0002972628361
0.0001431494359
5.730252961e-05
2.896559514e-05
4.642578418e-06
1.501325828e-06
1.245906523e-06
2.785441955e-05
3.960100144e-05
4.015669637e-05
4.050536872e-05
4.473247438e-05
5.000604497e-05
5.402092875e-05
6.559082213e-05
8.583869305e-05
7.127605311e-05
4.549870263e-05
5.778595575e-05
0.0001088349247
0.0001702753778
0.0002176729673
0.0002266127754
0.0002183640613
0.0003390125864
0.0001099913374
0.004750708195
0.0001020679307
0.0001457986675
6.389683214e-05
5.110134272e-05
7.099488021e-05
0.0003423447254
1.06772632e-05
4.56844634e-06
2.178144629e-06
0.0002418506893
0.000369094682
0.0002259454953
0.0001247890739
9.799523872e-05
9.312954325e-05
8.600016442e-05
8.50499034e-05
8.245619115e-05
6.104236452e-05
3.646702051e-05
3.310265379e-05
5.326651613e-05
0.000106771376
0.0002820407203
0.0003047951963
0.0002323582303
0.0003114362089
0.0001229908092
0.004803954668
3.783555163e-05
6.19986546e-05
3.021494243e-05
2.649264998e-05
3.98678022e-05
0.0001470364534
7.711980317e-05
7.788725671e-06
4.145572909e-06
3.119304336e-05
0.0001413144521
0.0002581680699
0.0002104193644
0.0001693221399
0.0001450341737
0.0001134051107
9.183591868e-05
7.586152938e-05
5.343188666e-05
3.279333779e-05
2.481046245e-05
3.000694676e-05
5.002578516e-05
0.0002117711957
0.0002599358096
0.0001945341994
0.0002312762258
0.0001288685203
0.004780160276
2.873123631e-05
3.840197486e-05
1.950751994e-05
2.363916524e-05
2.969345556e-05
5.692591677e-05
7.928336953e-05
5.342022426e-06
5.74599172e-06
1.083361335e-05
3.129755269e-05
9.516168828e-05
0.0001668030854
0.0001743928088
0.0001467662577
0.0001064763413
8.002636925e-05
6.135937731e-05
4.339333196e-05
2.934635775e-05
2.249832817e-05
2.298118246e-05
3.020352906e-05
0.0001472974967
0.0001842319072
0.0001484125555
0.0001698790738
0.0001346473626
0.004667801833
5.764625827e-05
3.837996229e-05
8.891640217e-05
0.0001117766766
7.778473673e-05
4.489307529e-05
2.922986665e-05
1.438722603e-05
8.86733119e-06
6.431240224e-06
1.306249025e-05
4.227844247e-05
9.863827437e-05
0.0001310021938
0.0001305896764
0.0001142930192
9.891909783e-05
9.313290386e-05
8.02928959e-05
8.20051704e-05
0.0001203575007
0.0001358286467
0.0001045609334
0.0001337780777
0.0001381866012
0.0001090278571
0.0001365328908
0.000129514873
0.004483250214
6.185000838e-05
1.01636386e-05
1.111174424e-05
1.369387267e-05
9.968571935e-05
0.0001150853165
8.372328965e-05
3.274010987e-05
1.551462656e-05
1.19860975e-05
2.300969954e-05
4.063650987e-05
6.722380285e-05
9.095142521e-05
0.0001047939903
0.0001107956104
0.0001173574465
0.0002022755045
0.0006060040295
0.001155310626
0.001684095742
0.00113325001
0.0002767734678
0.0001421064392
0.0001979469424
0.0002217899491
0.0002683554692
0.0002874934603
0.004399283726
1.774739616e-06
2.523157382e-06
3.606152617e-06
2.012051489e-06
4.1583591e-06
5.135370479e-06
3.075643911e-05
6.043767737e-05
2.280466796e-05
2.8599351e-05
4.845449125e-05
6.249519425e-05
7.592148057e-05
8.868441136e-05
9.997427506e-05
0.0001072979238
0.0001079547125
9.809602922e-05
8.360409489e-05
0.0001148584261
0.0001065930561
0.0002479606329
0.0001744704882
0.0001645297204
0.000225136268
0.0002372355861
0.0002629363329
0.000243302098
0.004073028658
2.6126614e-06
1.757524198e-06
2.500617767e-06
2.546106211e-06
3.026651497e-06
3.531510467e-06
8.36510618e-06
4.795587317e-05
3.614682469e-05
9.699796348e-05
0.0001369547895
0.0001390152785
0.0001301442667
0.0001239748218
0.0001227702029
0.0001179619777
0.0001010618768
7.098261509e-05
4.001654442e-05
1.768576105e-05
1.217959982e-05
3.436291565e-05
6.384683374e-05
0.0001679909696
0.0002154879417
0.0002133147243
0.0002208886223
0.0001691646775
0.003718747864
5.685150095e-06
5.634953872e-06
7.005444209e-06
7.63565868e-06
8.545917261e-06
1.298197962e-05
7.43679625e-05
9.605860897e-05
3.068045225e-05
0.0001491985175
0.0002102064335
0.0002046304601
0.0001780893485
0.0001592226997
0.0001618845935
0.0001685353931
0.0001416370735
8.520748481e-05
3.915057853e-05
1.829131557e-05
1.234475607e-05
1.468412122e-05
2.401304165e-05
0.0001549116445
0.0001927239687
0.0001763153188
0.000165902728
0.0001231316852
0.003470145499
9.061869371e-06
1.036152303e-05
1.269605863e-05
1.424661182e-05
1.598870763e-05
2.265312874e-05
0.0001555993532
0.000198132712
2.780230118e-05
0.0001268910264
0.0001869965085
0.0001883704345
0.0001712484055
0.0001770040473
0.000249672866
0.0002982893807
0.0002181338027
0.0001011675369
3.728575521e-05
1.730269884e-05
1.2916393e-05
1.359427504e-05
1.830700684e-05
0.0001438712511
0.0001784816168
0.0001497534165
0.0001374048323
0.000134359259
0.00344194783
1.204550231e-05
1.437605553e-05
1.79339876e-05
2.062899327e-05
2.336418887e-05
2.984527067e-05
0.0001701288338
0.0002729919387
3.054080212e-05
8.236273981e-05
0.0001274736109
0.0001396162203
0.0001439526866
0.0001974933821
0.0004152893424
0.0004522024659
0.0002346292161
8.068432034e-05
2.848781048e-05
1.647325503e-05
1.496006741e-05
1.70444864e-05
2.825945112e-05
0.0001561153275
0.0002448237716
0.0003022408688
0.0003502145078
0.0003444253606
0.003814822676
1.437124366e-05
1.703202261e-05
2.200725947e-05
2.596e-05
2.962704412e-05
3.455525009e-05
0.0001353064222
0.0002588685271
3.340003498e-05
5.816095106e-05
9.02962611e-05
0.000107311562
0.0001244344437
0.0002010403709
0.0005256852552
0.0005158718727
0.0001985100486
6.010068362e-05
2.709661142e-05
2.068648678e-05
2.153337527e-05
2.972881774e-05
0.0002372790762
0.003686971051
0.003511878846
0.001183126317
0.0006382824127
0.00038538551
0.004482650115
1.607125106e-05
1.85321603e-05
2.516585654e-05
3.050717179e-05
3.486224764e-05
3.82639996e-05
9.663107102e-05
0.0001821024658
3.485990784e-05
5.301262555e-05
7.788885776e-05
9.544174042e-05
0.0001130558077
0.0001758995786
0.0004786202693
0.0004767125241
0.0001963920129
7.456071788e-05
4.258410111e-05
3.523628501e-05
4.343045455e-05
0.0001359271348
0.005865829929
0.002877847349
0.00223504882
0.001080439831
0.0006499320809
0.0002176628826
0.006278941891
1.732039115e-05
1.945438614e-05
2.817285957e-05
3.501300638e-05
3.932946027e-05
4.303178197e-05
8.069509828e-05
0.0001143099923
4.147403499e-05
5.779129157e-05
7.97058083e-05
9.567246822e-05
0.0001054005118
0.0001387776743
0.000339821306
0.0003776976176
0.0002221487008
0.0001223709575
8.06612592e-05
6.697667022e-05
8.387568058e-05
0.0005664022366
0.004551335601
0.002835530277
0.002836318504
0.001841075533
0.001373521862
0.0004045454528
0.008795683521
1.805712492e-05
2.042808697e-05
3.186619468e-05
3.985269105e-05
4.239133108e-05
4.993075643e-05
0.0001122288465
9.533790181e-05
4.53725897e-05
6.561570947e-05
8.916947203e-05
0.0001011867307
9.98022573e-05
0.000109561523
0.0002169851843
0.0002765975199
0.0002302341845
0.0001750672928
0.0001363006431
0.0001348495035
0.000389414242
0.006998747074
0.002889515718
0.003299877658
0.003778204014
0.003495242455
0.002136660145
0.0005298709308
0.007881016825
2.127830479e-05
2.257943896e-05
3.681609109e-05
4.42867607e-05
4.259759049e-05
5.608131446e-05
0.0002071605439
0.0001030655334
4.428794179e-05
7.185214843e-05
9.954068053e-05
0.000104056365
9.403922075e-05
9.093575464e-05
0.00014188071
0.000200791349
0.0002174652752
0.0002086704642
0.00019314236
0.0002525726129
0.003112675426
0.002597383454
0.002239015347
0.002710623625
0.003755459642
0.004722399816
0.00325159232
0.0007312150494
0.007446706261
3.407039709e-05
3.217009976e-05
7.069653405e-05
5.288745941e-05
4.020167314e-05
6.019082409e-05
0.0003232593054
0.0001030485948
3.672839819e-05
7.248341827e-05
0.0001004900559
9.78169646e-05
8.237513986e-05
7.342655255e-05
9.893665218e-05
0.0001511558798
0.0001963992308
0.0002202071764
0.000225191279
0.0003402023319
0.001526976893
0.001188967802
0.0009680476321
0.00148267406
0.002273109625
0.004535130187
0.004802177694
0.002240328457
0.007469138027
8.787290454e-05
9.786547222e-05
0.0006845561532
0.0001317957113
5.558531571e-05
6.993209005e-05
0.0004031327833
9.611372267e-05
3.140320696e-05
7.139491825e-05
9.696626126e-05
9.283302205e-05
7.78645758e-05
7.205314243e-05
9.699837557e-05
0.0001543066274
0.0002254779071
0.0003109350409
0.0004248201825
0.0007470155731
0.00166164259
0.004153896204
0.002870921336
0.001619821798
0.001475744783
0.002707996685
0.00535384058
0.004869022413
0.01030051095
0.0002282059054
0.0003072804505
0.001060999489
0.0002326688536
8.870218665e-05
8.114097255e-05
0.000365720574
7.609603666e-05
2.506693984e-05
6.261244351e-05
8.294021139e-05
7.959153174e-05
7.183111715e-05
7.82073321e-05
0.0001116705268
0.0001718820646
0.0002459991209
0.000327527676
0.0004083549312
0.0005424325166
0.0004993714368
0.0004594315893
0.0005082925823
0.0006365169264
0.0009058240861
0.001531013165
0.002809348076
0.004903979336
0.01036995026
0.005093690611
0.003575384524
0.003201967728
0.002044444662
0.001393229347
0.001157555155
0.001954313273
0.001812568509
0.002013845315
0.002497746601
0.002953018911
0.003303527333
0.003585733175
0.003878673315
0.004235341066
0.004615414597
0.004886620452
0.004947844662
0.004844740571
0.004775075579
0.00471692996
0.004865721855
0.005214265856
0.005948084461
0.007244053931
0.00863566105
0.009521270788
0.0105204911
0.01547648356
0.01056918695
3.013640073e-05
1.65516874e-05
2.413158727e-06
1.788407476e-06
8.1328754e-07
4.66860666e-07
2.588345803e-07
5.987341934e-18
9.460510101e-20
4.362281771e-20
8.867742531e-21
1.009575004e-18
4.139531486e-20
1.926864774e-20
3.827823317e-21
1.112515085e-19
9.554832442e-21
4.572576923e-21
9.312672725e-22
1.111573628e-07
7.520952025e-09
4.658214074e-09
2.898400455e-09
0.0007836209452
2.056151398e-07
6.621442429e-08
0.001012244913
1.180609984e-08
5.553364564e-09
0.001114724272
3.678535521e-09
4.607378554e-09
0.001211590644
6.370266778e-09
1.279141275e-08
0.00571921236
2.244426147e-08
4.071846047e-08
0.0007633039309
9.060440838e-08
1.471882074e-07
0.0006329349635
2.519773668e-07
5.321139277e-07
0.000398844542
8.465289007e-07
1.182220097e-06
4.694468293e-05
2.388318449e-06
8.333414168e-06
0.0009834780226
5.514206207e-05
0.0003654030635
7.979433133e-08
2.427860024e-07
2.297615197e-07
0.0002431360084
0.0001071039675
0.0001535725699
4.432970625e-07
6.030180152e-07
2.494270514e-06
0.0001201662241
6.485197491e-07
1.700863803e-07
4.246774311e-07
2.594434131e-07
0.0001042969385
0.0002077010877
0.0001416477624
2.819024942e-07
2.231168326e-07
1.156191578e-07
1.234177986e-07
0.0007073403863
0.001375592398
0.001119136375
1.483864506e-08
8.869198311e-07
0.000133866563
0.0001762612827
0.0001891448065
0.001606640225
0.0002929393035
5.385180288e-06
4.884497376e-06
3.251183069e-06
1.019769619e-05
4.30897439e-06
5.408005563e-06
0.0003074240269
0.002047181517
0.0003641137084
2.021002459e-06
0.0002460924103
6.122572922e-05
0.0004656066276
0.003157104967
0.000753252766
0.0001616177201
0.0005185630514
0.0003804621945
0.002441915206
0.007745381348
0.004717715779
0.000957464623
0.004124312811
0.002602869418
0.0007291843041
0.003208235524
0.0005836477193
0.001280658745
0.0003954628474
0.0001752583751
0.0002728544537
0.001641555082
0.0001568035938
4.987527498e-05
0.0001781281448
1.774920239e-05
9.581005166e-05
0.001468286492
6.530855754e-05
3.851578191e-05
7.439741447e-05
0.00188453699
0.0001615699774
0.0001328552272
1.374928793e-15
1.836519648e-07
4.635364473e-19
1.298313458e-14
2.402977462e-19
1.715087053e-19
3.499134027e-13
1.136257932e-19
6.71290567e-20
3.222407552e-20
7.51319877e-09
4.65220076e-08
2.595397794e-08
3.939726637e-09
1.460884858e-08
1.103987233e-08
9.593548613e-09
1.069323275e-08
1.489242721e-08
3.223857066e-08
2.678107044e-08
5.306064074e-08
1.325330661e-07
1.617518398e-07
3.164286676e-07
5.441311482e-07
6.005785437e-07
1.672400918e-06
1.225163226e-06
2.964413791e-06
4.608412496e-06
1.193391163e-05
9.089668496e-06
2.352549096e-05
2.917471249e-19
1.332724726e-19
4.903212205e-20
1.053292108e-17
3.81869797e-20
1.469647498e-20
5.252859686e-08
1.653512715e-07
9.881465153e-08
2.240507461e-08
6.947116058e-08
5.108083702e-08
1.814799066e-08
3.418061366e-08
2.526719293e-08
7.56531826e-08
4.607884866e-08
1.137025829e-07
5.166523892e-07
4.561899097e-07
9.665742079e-07
3.993125498e-06
2.288632855e-06
1.240764749e-05
1.146105371e-05
2.61723934e-05
3.053161319e-05
3.912475145e-05
3.986084213e-05
6.28695862e-05
1.11798713e-19
4.450898681e-18
8.77510739e-20
6.716054299e-20
7.39248811e-20
5.243634815e-20
2.405586543e-20
1.080882014e-07
1.895128333e-07
1.846133985e-07
5.102729192e-08
1.780879233e-07
1.587639413e-07
1.845599407e-07
1.728244749e-07
3.301827578e-07
2.083939431e-06
2.254379771e-06
4.728607427e-06
4.413407443e-05
1.295403007e-05
0.0001375351641
8.93692292e-05
0.00028978059
0.0002700979416
3.394390989e-19
2.558267098e-20
2.953590527e-20
2.156123998e-20
1.549012424e-20
1.061233479e-20
1.017289512e-20
3.795353787e-07
1.058934349e-07
2.542589513e-07
6.638766855e-07
3.909260173e-07
2.364234517e-07
1.22239677e-05
1.360775079e-05
3.951151721e-05
0.000324621461
8.332590545e-05
0.0004741016318
6.976811751e-21
0.001385974495
0.001195175198
2.74880274e-05
0.0001974290353
7.786529169e-12
0.000161186412
4.850407469e-11
0.0001409142396
7.843685287e-10
0.000823109481
0.001443896031
1.004634969e-05
7.576491017e-06
0.001103807425
0.001804333427
0.0001326286777
0.00106927363
0.002367609983
0.0003432524876
0.00310526044
0.00630336783
0.001440785618
0.001339741533
0.005329960156
0.001329147949
0.000627787182
0.002142432597
0.0002483284837
0.0005529137545
0.001413055206
9.273861875e-05
0.0001770316028
0.001882754659
8.750953785e-05
0.0008844997912
0.0007569109502
1.650448928e-07
1.76047143e-07
3.511145734e-15
5.828044503e-14
1.802221384e-08
3.685325094e-09
5.233006325e-09
1.689057865e-08
7.992669722e-08
2.366255356e-07
8.682219158e-07
2.960930912e-06
7.626819628e-05
1.219458223e-07
8.266158311e-08
1.874348957e-19
1.484893041e-19
8.701509068e-20
6.863753661e-20
1.993940033e-20
8.942160819e-08
3.378179693e-08
1.670072302e-08
3.411989549e-08
2.58898987e-07
1.080990361e-06
7.884576779e-06
1.877031911e-05
0.000126086662
3.038662808e-07
1.259660183e-07
8.47667211e-08
7.305714531e-08
9.522494142e-07
5.471167027e-06
9.157005296e-05
9.010950561e-05
0.000116278012
1.685652407e-06
1.315540689e-06
2.055421797e-07
1.193996602e-07
7.848394133e-08
6.847531793e-08
2.03016681e-07
2.479313816e-07
5.498162314e-07
5.136669486e-06
3.250789627e-05
0.0007353595777
0.0003778791728
2.380447869e-07
5.479012594e-08
1.463085995e-08
1.302615274e-09
7.606214663e-20
1.241891932e-20
7.874574321e-22
4.050838795e-22
5.954401302e-22
1.775001846e-22
4.102892516e-08
5.48836303e-09
7.573860556e-09
1.853704624e-08
4.700319434e-08
4.896863961e-05
1.522855148e-06
3.167474083e-07
3.63188142e-08
3.916989057e-09
0.0001816378796
2.781983095e-07
5.743878439e-09
7.150609611e-10
3.964658481e-10
0.000250185245
5.959644326e-06
0.001358703608
0.0002066319211
1.992595689e-07
3.078480445e-14
0.0001686792718
1.452378019e-11
7.722583907e-05
7.505824088e-05
4.019117945e-14
1.465095183e-13
0.0001507471745
1.928671117e-10
8.4346306e-05
8.544253384e-05
6.395641499e-13
3.55009898e-12
8.421855184e-05
2.844087584e-11
0.0006340006123
0.008688992733
0.002784775363
6.331668499e-05
5.125184176e-05
5.884468181e-06
0.001205407728
3.898632994e-06
2.771268454e-06
6.436491687e-06
1.615267252e-06
1.382960421e-06
1.051370673e-06
7.942142569e-07
5.933254539e-07
4.382971867e-07
1.73121089e-19
1.055083606e-19
2.016409101e-06
5.855285522e-07
9.307190706e-07
3.911566735e-07
6.177736231e-07
5.145223291e-07
2.960881912e-07
3.494632497e-07
2.224075543e-07
1.653595691e-07
3.406758489e-20
1.876969063e-20
6.867095413e-21
4.914239951e-20
4.772981443e-07
1.629952092e-07
6.826658413e-08
1.339494263e-07
1.022214258e-07
3.319713258e-08
2.600745082e-08
4.581319186e-08
2.023233128e-08
2.449729401e-07
1.564713505e-07
9.078339967e-08
6.01728755e-08
5.626978658e-21
2.014271382e-21
1.132938809e-20
6.89971761e-21
5.878216073e-21
4.242634701e-21
2.56160729e-21
2.818469289e-21
1.59219669e-21
1.002579233e-08
1.189538783e-07
1.411881161e-08
5.833915764e-09
2.34761592e-08
1.074516351e-08
1.836578911e-08
8.416870682e-09
6.748791393e-09
5.415033117e-09
9.256630463e-09
4.274016468e-09
3.013649431e-08
4.242187415e-08
1.169382741e-08
9.555136906e-22
1.265764536e-09
8.624509598e-10
5.790217878e-22
1.334660208e-09
2.171413608e-09
2.619209697e-22
4.070591851e-09
9.784765288e-09
2.816868544e-08
4.549677169e-09
1.948723011e-07
1.638275058e-07
1.188663252e-08
2.605723617e-07
3.039719903e-07
3.178096075e-08
2.33716574e-07
1.375250004e-07
5.418344148e-08
4.680423651e-07
1.309434957e-06
1.237030609e-07
1.363016458e-07
3.968427131e-08
4.840786754e-09
9.153757704e-09
1.365747376e-10
9.588964794e-11
6.99272309e-11
1.691145199e-08
7.952881131e-08
5.91165183e-09
1.439605342e-09
3.161690011e-09
1.926403964e-09
5.375588752e-10
1.432978762e-09
1.097378205e-09
3.711089914e-09
8.204721545e-10
)
;

boundaryField
{
    walls
    {
        type            zeroGradient;
    }
    wallFilmFace_top
    {
        type            zeroGradient;
    }
    region0_to_wallFilmRegion_wallFilmFace
    {
        type            zeroGradient;
    }
    mirrorFace_top
    {
        type            zeroGradient;
    }
    region0_to_wallFilmRegion_mirrorFace
    {
        type            zeroGradient;
    }
    procBoundary2to0
    {
        type            processor;
        value           nonuniform List<scalar> 
26
(
0.0006744148173
0.002203658896
0.001086845099
0.0001269004667
1.792609517e-05
1.493568753e-06
6.563348447e-06
1.56563614e-05
2.384454415e-05
2.787139996e-05
2.524238111e-05
1.825506122e-05
1.197660419e-05
8.174337206e-06
6.357931564e-06
6.048778952e-06
6.91356933e-06
8.453364802e-06
9.823219715e-06
1.277617404e-05
2.081792573e-05
4.528968925e-05
9.806782171e-05
0.0001768525518
0.000199698077
0.003446393983
)
;
    }
    procBoundary2to1
    {
        type            processor;
        value           nonuniform List<scalar> 
33
(
0.0006037714772
0.0006037714772
0.0001411734967
0.0001411734967
1.08326981e-05
0.0001530512629
0.0003977622716
0.0003977622716
0.0006889866331
0.0002656786591
5.933085846e-05
2.130389928e-05
4.676903446e-05
9.984267831e-05
7.837372971e-05
4.329602978e-05
3.244672747e-05
0.0001418689764
0.0003430347849
7.674448223e-05
2.3050464e-05
1.529710033e-05
1.561276866e-05
1.782358768e-05
2.037583458e-05
2.270370137e-05
2.455273603e-05
8.926655877e-05
0.001574872178
9.369675153e-05
1.888072995e-05
8.070774473e-05
0.004651812884
)
;
    }
    procBoundary2to3
    {
        type            processor;
        value           nonuniform List<scalar> 
64
(
1.640771822e-05
1.848957099e-06
1.400663231e-06
7.707630951e-07
1.893941504e-07
2.094723851e-10
2.916715349e-10
7.130978154e-10
2.201700993e-09
1.334923596e-05
1.634727325e-06
6.891084632e-06
1.94848259e-06
1.634727325e-06
1.591945765e-05
5.060482025e-05
0.0001607965483
0.0007358207847
0.002738351317
0.001122700912
0.0001041920743
2.609506602e-05
1.64571917e-05
9.899019819e-06
9.899019819e-06
9.958636211e-06
2.921277551e-05
2.921277551e-05
0.0001518792423
2.921277551e-05
3.519473252e-12
2.59798615e-10
3.519473252e-12
2.164117158e-10
2.052170104e-10
0.000132611144
3.082534406e-09
1.334923596e-05
0.0008356204731
3.519473252e-12
5.110182684e-08
1.117279206e-09
4.586009798e-09
1.604562765e-09
2.278453712e-09
2.85656667e-10
8.027629459e-05
5.392831791e-10
0.0005037483201
3.065881e-06
1.848957099e-06
1.045530217e-06
3.199086593e-07
1.215059428e-07
2.311997038e-10
3.451982248e-08
1.554172432e-08
4.128964612e-10
7.19503657e-09
3.2856356e-09
3.332745437e-08
1.659688912e-09
5.024302137e-11
5.973356586e-10
)
;
    }
}


// ************************************************************************* //
