/*--------------------------------*- C++ -*----------------------------------*\
  =========                 |
  \\      /  F ield         | OpenFOAM: The Open Source CFD Toolbox
   \\    /   O peration     | Website:  https://openfoam.org
    \\  /    A nd           | Version:  8
     \\/     M anipulation  |
\*---------------------------------------------------------------------------*/
FoamFile
{
    version     2.0;
    format      ascii;
    class       volScalarField;
    location    "0.3";
    object      htcConv;
}
// * * * * * * * * * * * * * * * * * * * * * * * * * * * * * * * * * * * * * //

dimensions      [1 0 -1 1 0 0 0];

internalField   uniform 0;

boundaryField
{
    walls
    {
        type            calculated;
        value           uniform 0;
    }
    region0_to_wallFilmRegion_wallFilmFace
    {
        type            convectiveHeatTransfer;
        L               1;
        value           nonuniform List<scalar> 
776
(
0.267845881
0.3065361543
0.3555425082
0.4043450803
0.4498782461
0.4915837334
0.5293021906
0.562623897
0.5911379544
0.6142873933
0.6316391185
0.6429166563
0.648375115
0.6486556114
0.6455153225
0.6416124854
0.6395640984
0.642641961
0.6539563292
0.6763964411
0.7131197371
0.7670005461
0.8456954823
0.9492087683
1.101395847
1.285268009
1.554845111
1.902375076
2.391314279
2.885232772
0.3444343453
0.367339235
0.4003588261
0.4385288698
0.4778084149
0.5157618433
0.5517630999
0.5844303671
0.6131451871
0.6369059881
0.6550975763
0.6671081175
0.6729693817
0.6730780754
0.6685612753
0.6631085568
0.6585980954
0.6589051626
0.6674864107
0.6875273845
0.7222372877
0.7736739379
0.8497236222
0.9487720648
1.09794625
1.269387075
1.518512388
1.811480505
2.214153502
2.577931481
0.4256819869
0.4408892501
0.4619955316
0.4888872713
0.5202800267
0.5520755218
0.5853604525
0.6166438892
0.6456285449
0.670271729
0.6897793598
0.7027876029
0.7088252359
0.7081812435
0.6992688816
0.6903379656
0.6798006784
0.6736186365
0.6756278572
0.6899974665
0.7204967982
0.7680304691
0.8418232148
0.9391742081
1.094123337
1.267101805
1.523073544
1.796013993
2.146353807
2.360545485
0.5017065104
0.5135756529
0.5288169938
0.5472350931
0.5728727104
0.5975222911
0.6290572646
0.6588028461
0.6890173306
0.7152764619
0.7370958051
0.7518826955
0.758005766
0.7571600124
0.7389167512
0.7263805049
0.7062331133
0.690971687
0.6832529943
0.6896623838
0.7149761323
0.7587226446
0.8303904458
0.9267941189
1.093201081
1.278006207
1.551941125
1.817686446
2.117869497
2.194063144
0.5747730019
0.5849707992
0.5978516044
0.6093111675
0.6318485314
0.6474919348
0.6793021674
0.7069914804
0.7403347318
0.7692255618
0.7950761361
0.8131264017
0.8190945793
0.8204174658
0.7833109257
0.7687950766
0.7338001975
0.7076180074
0.6860501462
0.6821610126
0.7030428649
0.7484017477
0.8235733652
0.932102541
1.127438764
1.356619253
1.666088551
1.928516225
2.215148746
2.30649479
0.6481083051
0.6575678081
0.6706030105
0.6755748307
0.6974599883
0.6999530567
0.7344958056
0.7591050774
0.7986309764
0.8316104508
0.8646786275
0.8886374468
0.8952048723
0.9046047934
0.8308550003
0.816856283
0.7602224894
0.7219447698
0.679546631
0.6608179032
0.6771240959
0.7325185797
0.8188220062
0.9626858057
1.215263883
1.519739227
1.8290588
2.039045814
2.304115886
2.312645481
0.7252318145
0.7350863481
0.7509539319
0.7498098259
0.7736726303
0.7545953021
0.7945808529
0.8147717592
0.8648849861
0.9043730771
0.9502146378
0.9851870815
0.9968035382
1.026852887
0.8842604141
0.872381231
0.7867405598
0.7353804622
0.6627167125
0.6205739727
0.6311301655
0.7121112906
0.8288709671
1.047147311
1.382862767
1.73930049
1.994072716
2.188813267
2.388569077
2.44309781
0.8101443297
0.8224966971
0.845107079
0.8395215848
0.8691591655
0.8122196037
0.8603604118
0.8746480194
0.9413854766
0.991963622
1.060180214
1.116209136
1.146116455
1.222384806
0.9581678187
0.9397033502
0.8200511202
0.7530340929
0.6434760135
0.5610079724
0.558420414
0.6940159142
0.8726048252
1.192192965
1.597434749
1.949090949
2.216172079
2.450000188
2.586962818
2.624893008
0.9078317303
0.926996011
0.963336198
0.9595678086
1.001306457
0.8747329294
0.9329257347
0.9399374281
1.031572389
1.101720421
1.207338222
1.301166001
1.377220663
1.532167095
1.085067019
1.021930904
0.8764438148
0.7820375613
0.6507481473
0.5088051236
0.451535381
0.6529027541
0.9365363935
1.350416299
1.787713041
2.141026506
2.430363943
2.637324777
2.690430025
2.698197992
1.02460899
1.058856296
1.121653163
1.135158861
1.200718094
0.944937148
1.012853513
1.012778284
1.140653901
1.245700613
1.41113682
1.578615653
1.742438053
1.961426227
1.301718984
1.160654622
0.9706461769
0.8425129505
0.7077715163
0.5275484076
0.3872995936
0.6687537005
1.034241664
1.462437586
1.886026455
2.256687826
2.519010777
2.674994279
2.713502444
2.743114154
1.169960532
1.234850247
1.348704695
1.413122794
1.501056442
1.037936404
1.102103447
1.09629394
1.273815294
1.435008478
1.688781849
1.952601438
2.18946698
2.382461132
1.579691093
1.361511371
1.124648513
0.9489549564
0.8175059903
0.6536821645
0.4981052549
0.5861144698
0.8813363669
1.2358944
1.5857669
1.954236311
2.322995023
2.568171245
2.668616951
2.740649365
1.352656654
1.473014143
1.667654182
1.805736489
1.826083843
1.156647325
1.209731269
1.192400857
1.439275627
1.691540529
2.043735264
2.346624807
2.61827416
2.830820227
1.891023347
1.65592844
1.364196888
1.117082336
0.9618431195
0.8001349247
0.6548610191
0.6192895007
0.7734277658
1.056031707
1.370627027
1.656514881
1.942450488
2.307413513
2.53788564
2.704155022
1.596581146
1.786364728
2.023666746
2.185124131
2.150825752
1.272186636
1.367635479
1.326461433
1.648040251
1.991181963
2.364408164
2.698450219
3.014362592
3.147613772
2.328129622
1.947037893
1.688255709
1.377263295
1.137136193
0.9545074972
0.7981681509
0.7226907573
0.7388658871
0.9093244478
1.156258315
1.43699275
1.654244722
1.875167064
2.237226363
2.608463387
1.869901592
2.070295071
2.323708306
2.535311708
2.479157571
1.402830831
1.542413985
1.477404096
1.865006974
2.256774574
2.657386719
3.05692215
3.235024255
3.285208846
2.762705653
2.345186725
2.032971557
1.691567042
1.348942606
1.112446273
0.9285709261
0.8262072403
0.759207921
0.82342142
0.9691561061
1.191446912
1.420660422
1.613332882
1.832687225
2.479853923
2.068673861
2.251603484
2.630490002
2.7801296
2.693062911
1.73982772
1.611498787
1.638017915
2.044759648
2.485543932
2.943458154
3.20303561
3.213219784
3.224476698
2.920713857
2.762993898
2.350846891
1.999515801
1.581189484
1.269707857
1.042955266
0.9149815721
0.8102286506
0.8122102656
0.8534331274
0.9943203123
1.160992719
1.395788493
1.57198688
2.22948169
2.041282742
2.426829073
2.829748581
2.874153171
2.774486278
2.125502688
1.595611467
1.585474677
2.124565598
2.661397171
3.036391128
3.201920735
3.160556697
3.056319181
2.773728968
2.870991266
2.489526129
2.148316348
1.762346099
1.405887999
1.165552808
1.008729209
0.8818528486
0.840978947
0.8041214255
0.8891307996
0.9616698
1.166860335
1.321571242
1.934343099
1.93114594
2.617839621
2.874689526
2.852338308
2.765603875
2.340954759
2.003278167
1.43453055
1.359703494
1.669857003
2.120960054
2.637015983
2.783931347
2.409007719
2.61819143
2.818999477
2.29933787
1.902782357
1.563037278
1.343120687
1.157859311
1.034321449
0.9174787097
0.8695441541
0.7963109569
0.8437377222
0.8332470134
1.000942821
1.060846975
1.617790235
1.876146032
2.407083905
2.734046896
2.790405632
2.691782828
2.404626282
1.810843045
1.191014479
1.494870668
1.925871512
2.369864447
2.612962932
2.622910808
2.762390123
3.392092916
3.059871415
2.564161129
2.13893517
1.807898308
1.476085637
1.285912777
1.11437119
0.9927463708
0.9115360736
0.8185574348
0.8323937307
0.7703504565
0.9054264472
0.8675346241
1.28154953
1.78556041
1.881220345
2.371955891
2.572802018
2.518476431
1.837481191
0.9332749547
1.074449688
1.423924489
1.797564558
2.388753199
2.857571632
3.267523995
3.555085365
3.691398656
3.315033499
3.015817479
2.417784152
1.983324753
1.583750111
1.315557593
1.140241656
1.009798218
0.9331331509
0.8441138409
0.8324305049
0.7510664592
0.8418217028
0.759167317
1.030866196
1.53269592
1.647382896
1.892146934
2.206920808
2.300013211
1.138191396
1.155903292
1.374670609
1.80339611
2.352461824
2.915462229
3.441865337
3.732255636
3.775235586
3.864098589
3.558217641
3.260858475
2.827134589
2.335605207
1.877968863
1.525436212
1.259099038
1.09915161
0.9830642824
0.8800208648
0.8402377711
0.7550418987
0.7981912505
0.7112466103
0.8711247003
1.206092336
1.360474074
1.592501466
1.768503835
1.821876703
0.9244306563
1.006058449
1.069372931
1.40324263
1.721056605
2.142638275
2.421749934
2.740367827
2.976376617
3.119832346
1.851104324
2.394362345
2.001395993
1.759233271
1.500411474
1.324740537
1.181920699
1.064281225
0.9782049056
0.8918220737
0.8448383755
0.7633958812
0.7688296899
0.6857626931
0.7656479439
0.9009734935
1.015744741
1.22223777
1.381448275
1.42476504
0.9095569965
1.01875915
1.115059296
1.354350905
1.624375787
2.000717907
2.382421634
2.749887017
2.268152294
1.632728361
2.724474433
2.782356509
2.395710899
1.987727268
1.624997459
1.425047249
1.241847621
1.116143168
1.012128708
0.91760904
0.8537540863
0.7727025268
0.749921935
0.6728764789
0.7016803186
0.6892745322
0.788267695
0.9226726183
1.036996493
1.080607859
0.9967404089
1.101458111
1.08112559
1.313963984
1.611604969
2.002617441
2.439139337
2.863202058
2.636546748
3.045670281
3.696081021
2.879233045
2.397914633
2.027808172
1.651763297
1.417229354
1.235976953
1.104425665
1.005356343
0.918290974
0.8525176135
0.7756534328
0.7344509776
0.6568999977
0.643917174
0.6114715757
0.7226774495
0.8492944985
1.001010701
1.092335001
1.304220338
1.411532885
1.2106763
1.220453834
1.512664846
1.986822446
2.538748642
3.071818864
3.620766711
4.024412205
4.074104714
3.504634444
2.74328237
2.281581618
1.820914661
1.489361228
1.28097668
1.14022714
1.031351681
0.9367576875
0.8589649682
0.7785755427
0.7215178779
0.644133037
0.6121341214
0.7119219034
0.845369747
1.018892248
1.243337962
1.469827626
1.756445079
1.877523402
1.512282456
1.39151819
1.892560556
2.543292977
3.264807098
3.957976133
4.392791702
4.44751828
4.575336543
3.893288551
3.56901405
2.814975286
2.214939066
1.692148357
1.352926702
1.148462765
1.019560577
0.9246748749
0.8482725565
0.7726446998
0.7089056222
0.6291422928
0.5667589049
0.7764376732
0.9598517563
1.22093938
1.551326696
1.91127581
2.204692885
2.367228687
1.890250189
1.329248266
1.370925234
1.822076565
2.274999431
2.788229257
3.485114288
3.980949213
4.064166095
3.391959795
2.756933476
2.07089085
1.817211126
1.468704884
1.282349008
1.13380464
1.024700186
0.6034734268
0.5386416781
)
;
    }
    region0_to_wallFilmRegion_mirrorFace
    {
        type            convectiveHeatTransfer;
        L               1;
        value           nonuniform List<scalar> 
703
(
4.003416745
4.217993443
4.350700766
4.398520709
4.473680814
4.549015644
4.574122274
4.531221904
4.478687638
4.37901517
4.188111696
4.119469304
4.209637856
4.293968802
4.348827196
4.3991492
4.409523944
4.374997578
4.339392136
4.292660285
4.06748087
3.893819588
3.880404496
3.878980478
3.877790261
3.819811947
3.814423668
3.9012821
3.968790789
3.99849899
1.55555813
1.573130981
1.421908671
1.115024422
1.292706206
1.789793654
1.579878152
1.863164273
1.798073134
1.678836549
1.774787209
1.775322705
1.686625472
1.776520519
1.758956696
1.563807738
1.680841492
1.570388722
1.568262477
1.886174257
1.476064647
1.816262444
2.733091834
3.587508812
3.960431995
3.982134815
4.024935386
4.129807446
3.297115446
4.028641595
3.659460869
3.709050715
3.481651978
3.442108406
1.595516469
1.134134501
1.244057149
1.703340859
1.237486422
1.231468392
1.08470863
1.220456522
1.183671581
1.120794714
1.155756567
1.191775738
1.265725114
1.215696801
1.211718649
1.331091917
1.215404601
1.23766156
1.277859157
1.223564335
1.216346728
1.291292004
1.190265432
1.221189997
1.427280122
1.261607275
1.340920059
1.494738303
1.400516749
1.415104497
1.606317108
1.442026748
1.497898502
1.045801353
1.186600368
1.032481911
1.04512267
1.019462445
0.9769774029
0.9206196673
0.9433884763
0.9132963116
0.8894785569
0.8826324289
0.8784894997
0.9398542701
0.8818555889
0.8861975187
0.9759837575
0.8837354235
0.8945718571
0.962288701
0.8833462144
0.8807962474
0.9449205224
0.8611593378
0.8733601556
0.990864153
0.8856388614
0.9224262443
1.040618359
0.9566710956
0.9966642218
1.030770111
1.307146503
1.069628848
0.9061014613
1.014013147
0.9249861112
0.8181170331
0.8671551921
0.8257779699
0.7583215613
0.778326435
0.7532555198
0.7367290527
0.7243609916
0.7100220525
0.7325634287
0.6923732204
0.684393121
0.7218131384
0.6708068827
0.6646196052
0.7198581598
0.6529742707
0.6572835432
0.7557245551
0.6666540167
1.103087181
1.376784463
1.161024319
0.9363836342
1.076540684
0.9702721753
0.8160958392
0.8896872683
0.8336018931
0.7179279202
0.7674084586
0.7235870855
0.6406627849
0.6711256704
0.6333376477
0.5820941834
0.5916083234
0.5593923857
0.5391969265
0.5265015041
0.5029737579
0.5256438558
0.4824214625
0.479374896
1.234507016
1.522681026
1.299903936
1.00961862
1.161965143
1.043750374
0.852241473
0.9389678098
0.8679111246
0.7228616252
0.7876667265
0.7297040349
0.6089836033
0.664545779
0.6114492557
0.5041361595
0.5546166546
0.5036436417
0.4053676559
0.4508528598
0.4021186199
3.664281992
3.592128396
3.866618959
3.857375859
4.013502073
4.113910745
3.894193336
4.183359239
4.171717681
3.921576727
4.175479885
4.181462744
3.914754976
4.186745068
4.184158199
3.821642089
4.170184541
4.148991725
3.74528952
4.130162408
4.126225894
3.924450152
4.1535876
4.21713774
4.187483238
4.28078997
4.302412074
3.882208681
4.220866781
4.042728834
3.189727782
3.803146439
3.534050623
1.916027072
1.417015979
1.189186475
2.048854779
1.195191647
2.102136139
1.925216498
1.892780887
1.977243371
1.917185045
2.02474751
2.038641745
1.772477339
1.978591548
1.918493138
3.983688437
4.271227255
4.31859278
4.305928909
4.320602858
4.322344013
4.319651828
4.357027544
4.349777016
4.128693948
3.883992514
4.329998032
4.334122026
4.351635269
4.375977085
4.43384424
4.427772819
4.418147781
4.397315261
2.871928522
2.578907809
3.756667154
2.092290671
3.138499373
1.825579631
2.024422454
1.985631893
2.021806177
2.106683349
2.130337462
2.134360962
2.008226747
2.085464105
2.034585101
4.10812329
4.121711858
4.096519843
4.303534488
4.146808021
4.181813914
4.378026884
4.434247125
4.512918867
4.578573934
4.539817337
4.601109541
4.55203686
4.568963462
4.50670939
4.437881192
4.416781751
4.381322725
4.300726812
4.338344261
4.285296506
1.678756255
3.702116846
2.942313288
2.022858497
2.405917861
2.123332389
2.148999847
2.164368165
2.101276234
2.056852521
2.051688921
1.958707394
4.147210793
4.010497477
4.151008076
4.020818992
4.039965385
4.266586165
4.072081603
4.321095245
4.077703935
4.392614515
4.111506922
4.177115667
4.175920683
4.25994515
4.168080285
4.154100247
2.256868964
3.230859205
2.799800666
1.858810044
2.272461389
1.898463463
1.653545568
1.734314677
1.891225393
2.270114223
3.735149601
3.581584901
3.518234312
3.791547604
1.237761675
1.25102782
2.797385277
2.798433997
3.306993981
1.998463652
3.221424738
1.945800115
3.136900907
1.809474438
3.253060145
1.478841329
3.108292065
1.450513579
2.758074743
0.9937304485
2.59932274
1.686874665
3.493609754
2.34638827
3.939781801
1.983999537
2.905785325
1.364277002
1.415604356
1.596396448
1.213018229
0.9455701467
1.387618402
1.317684194
1.311579269
1.225773682
1.349539759
1.470828382
1.552830072
1.675217452
1.154816965
1.061042007
0.9472552916
0.8802484159
0.9495044348
0.9537369315
0.9602883222
0.9207004211
0.9540045335
1.013008412
1.647423203
1.239974836
0.9777088104
0.8508905971
0.7766193671
0.7425225045
0.7280960971
0.7212738966
0.7047689849
0.727664142
1.693622265
1.331456499
1.035235645
0.8657292769
0.7561192093
0.6719058867
0.6065266305
0.5562798302
0.521846314
1.625761463
1.442972648
1.120422788
0.9163369182
0.7766156257
0.6594428522
0.5530199955
0.4522303544
1.692216918
3.340060293
3.787557914
3.894509929
3.905860924
3.928429746
3.876597008
3.769145131
3.788476437
4.085859402
4.115109978
3.555569931
1.494854412
1.774057554
1.912875873
1.935202977
1.850673909
2.841493951
3.744362803
4.141584974
4.164143535
4.367753196
4.340594051
4.307446695
4.313045057
4.323750137
4.425147613
4.319040523
4.44279413
4.332787755
4.36922456
4.268259098
4.28485396
1.116078829
1.873759063
1.913869685
2.062371011
2.060056253
3.54381315
3.498490646
2.205081665
2.178058989
2.108151094
3.847923916
2.701553726
2.014244516
1.773408171
1.529140312
3.872723495
4.0377324
3.863012655
3.534847772
3.418199315
3.608736291
3.371602893
3.344156558
3.218970661
3.199159554
3.650873366
3.29234053
3.75601578
3.406923838
3.502375078
3.559473573
3.797193985
3.225735296
2.996065172
2.845583991
2.594945245
2.121385105
2.153406355
2.344594308
2.545657476
3.455369054
3.737817902
3.17965944
3.006689782
2.885030763
2.663922107
2.336628051
2.106717876
1.900761644
1.670324769
3.441336798
3.72230586
2.680213669
3.219968421
1.818470043
1.959069092
3.046211823
3.407745741
2.391596154
3.319070254
1.740146125
1.49345094
3.496947915
3.536162007
1.986328038
3.080449243
1.744893254
1.574532458
3.522393213
3.520621945
1.814002729
3.225612436
1.461416071
1.753936603
3.542536672
3.5755039
1.661786908
3.21707238
1.780502848
1.756534813
3.589073086
3.563525503
1.522417903
2.942439044
1.665660711
1.706233248
3.491263871
3.383661028
1.248628637
2.609001057
1.663837293
1.579620666
3.271179989
3.19870714
1.160041578
2.939873202
1.543503025
1.647950957
3.239206691
3.489082038
2.175679787
3.906942822
1.822200194
2.054032332
3.809045396
4.041722976
2.100800072
3.531495666
2.193879261
2.16519419
4.002016548
3.689288724
2.285485171
2.200093769
2.141289313
2.157590811
3.238183449
2.737825921
4.027012164
4.275086752
4.401961372
4.442027863
4.356711091
4.182482144
4.231011343
4.307438165
4.344896378
4.388248587
4.434849643
4.485593382
4.522510836
4.483933249
4.448206809
4.094115539
4.375528752
4.411334696
4.357128304
4.318646108
4.095055876
4.109822843
4.123890378
4.131356888
4.128059604
4.112767249
4.135492918
4.15467325
4.170925616
3.916419074
3.882314161
3.688807556
3.650994417
3.875533969
3.625654814
3.607579055
3.883675872
3.61522542
3.854461038
3.609817316
3.786434251
3.545726513
3.858325059
3.535578645
3.589958684
3.942128287
3.712279976
3.98713642
4.005229335
3.818570767
3.84380915
3.630150731
3.844166157
3.501245823
3.465736496
3.356701367
3.247535979
3.385416114
3.169217916
3.110730246
3.365869328
3.071649806
3.044189834
3.269746914
2.994983526
2.821301285
3.193027892
2.743498409
2.715666267
3.235839082
2.733078727
2.788507924
3.357501141
2.87072288
2.964438834
3.458243704
3.033573465
3.118782857
3.577005594
3.186176848
3.363984968
3.400286508
3.759547404
3.337279506
3.093123793
3.159214021
3.027074215
2.916882302
2.929796287
2.842811256
2.765289907
2.746091724
2.6144377
2.207250687
2.403735993
2.077469904
2.110771351
1.877606399
1.759523973
2.235770224
1.720742596
1.749281498
2.456990034
1.81279479
1.875754956
2.673176107
1.941648803
2.074020806
3.332536252
3.727767944
3.38769041
3.075117119
3.277233462
3.208963655
2.949200327
3.17175653
3.145154804
2.796991608
3.11647304
3.074934883
2.48337076
3.009102973
2.915809721
2.212735729
2.828600249
2.749266127
2.008979233
2.676818815
2.608829399
1.766282234
2.543421083
2.490877891
1.692183787
2.542698142
2.84999535
3.473767752
)
;
    }
    procBoundary2to0
    {
        type            processor;
        value           uniform 0;
    }
    procBoundary2to1
    {
        type            processor;
        value           uniform 0;
    }
    procBoundary2to3
    {
        type            processor;
        value           uniform 0;
    }
}


// ************************************************************************* //
