/*--------------------------------*- C++ -*----------------------------------*\
  =========                 |
  \\      /  F ield         | OpenFOAM: The Open Source CFD Toolbox
   \\    /   O peration     | Website:  https://openfoam.org
    \\  /    A nd           | Version:  8
     \\/     M anipulation  |
\*---------------------------------------------------------------------------*/
FoamFile
{
    version     2.0;
    format      ascii;
    class       volScalarField;
    location    "0.3";
    object      nut;
}
// * * * * * * * * * * * * * * * * * * * * * * * * * * * * * * * * * * * * * //

dimensions      [0 2 -1 0 0 0 0];

internalField   nonuniform List<scalar> 
67410
(
4.27042901e-07
5.206411747e-07
5.214349995e-07
5.214524671e-07
5.214555638e-07
5.214613495e-07
5.214733491e-07
5.214994216e-07
5.215702638e-07
5.222633359e-07
5.386923314e-07
8.506648816e-07
4.657239921e-06
3.138098069e-05
0.0001276723656
0.0001231008864
9.759753263e-05
9.938361754e-05
0.000201458365
4.128015057e-05
4.184196829e-06
6.834190752e-07
5.25185012e-07
5.221560283e-07
5.22256477e-07
5.227218283e-07
4.571627576e-07
5.734901864e-07
5.751037829e-07
5.751683533e-07
5.751816785e-07
5.751986772e-07
5.752229917e-07
5.752660972e-07
5.756970038e-07
5.886632877e-07
8.875245335e-07
5.244867829e-06
4.101235768e-05
0.0001847383875
9.334525949e-05
0.0001241725776
0.0001459868955
0.0001563246818
0.0001135349721
0.0002477152466
4.191103635e-05
3.46396719e-06
6.53962148e-07
5.763063522e-07
5.757998694e-07
5.84520976e-07
4.573968204e-07
5.743374286e-07
5.765425825e-07
5.766768335e-07
5.767024039e-07
5.767320686e-07
5.767754241e-07
5.769639628e-07
5.824430789e-07
7.348889286e-07
3.456921673e-06
3.091181178e-05
0.0001648172492
9.321751074e-05
0.0001278951158
0.0001553733753
0.0001776677196
0.0001859554547
0.000151962207
0.0001109623254
0.0002016835154
2.683803319e-05
1.697040839e-06
5.866027736e-07
5.865559031e-07
8.440039083e-07
4.574026277e-07
5.743666321e-07
5.766192555e-07
5.767642142e-07
5.767906041e-07
5.768199246e-07
5.768761737e-07
5.777938244e-07
6.108700484e-07
1.44208549e-06
1.35461052e-05
9.7849826e-05
7.993267141e-05
0.0001163753728
0.0001457659091
0.0001763559701
0.0002063977249
0.0002090856889
0.000168444535
0.0001427310849
9.69665538e-05
0.0001189978028
9.154053615e-06
6.376234605e-07
8.068403298e-07
4.725248314e-06
4.574062755e-07
5.743683001e-07
5.766231494e-07
5.767694337e-07
5.767968788e-07
5.768291187e-07
5.769843399e-07
5.821356921e-07
7.357955623e-07
3.581312268e-06
3.174844478e-05
0.0001589508225
8.821742127e-05
0.0001161624441
0.0001428399142
0.0001803834067
0.0002205298887
0.0002133808292
0.0001699817267
0.0001482744649
0.0001176585441
0.0002772942498
3.758071706e-05
1.123724174e-06
3.556556964e-06
3.289597603e-05
4.574105029e-07
5.743691776e-07
5.766237501e-07
5.767687732e-07
5.767933836e-07
5.768187278e-07
5.768532375e-07
5.769525935e-07
5.790756013e-07
6.366903145e-07
1.78888214e-06
1.265194294e-05
5.243631153e-05
0.0001635827467
9.806516574e-05
0.0001550825012
0.0002007228765
0.0001974649967
0.0001390572263
9.145151895e-05
0.0001053126788
1.423337794e-05
7.671500734e-07
2.05863735e-06
2.173384045e-05
0.0001282574972
4.574184038e-07
5.743710629e-07
5.766256808e-07
5.767712458e-07
5.767970955e-07
5.768243941e-07
5.768593831e-07
5.76903256e-07
5.770028421e-07
5.784463493e-07
6.072365039e-07
1.034591017e-06
5.385912452e-06
3.789693932e-05
0.0002008365329
0.0001095608124
0.0001543841299
0.0001569777191
8.089034225e-05
8.313947933e-05
6.527605399e-06
7.005155901e-07
8.274191405e-07
7.41173755e-06
6.7299517e-05
0.0002736488234
4.574289182e-07
5.743735248e-07
5.766280043e-07
5.767734365e-07
5.767983759e-07
5.76823676e-07
5.768561329e-07
5.768976508e-07
5.769549659e-07
5.771034636e-07
5.78972187e-07
6.114152783e-07
1.034146605e-06
4.842631159e-06
2.760430026e-05
0.0001303204764
0.0001007853593
0.0001143831121
0.0001005610384
6.051475773e-06
6.558056188e-07
5.810683386e-07
6.52409135e-07
3.333924095e-06
4.179196906e-05
0.0002620539599
4.574425652e-07
5.743769009e-07
5.766316583e-07
5.767785814e-07
5.7680655e-07
5.768378893e-07
5.768814769e-07
5.769433549e-07
5.771013273e-07
5.794792293e-07
6.284589517e-07
1.322314418e-06
7.375478117e-06
3.768823525e-05
0.0001193442781
0.0002505299424
7.420720918e-05
8.718348487e-05
7.191668643e-06
9.582455092e-06
9.553669411e-07
5.976056586e-07
5.79891019e-07
6.176450543e-07
1.784317021e-06
2.50864603e-05
4.574572113e-07
5.743806298e-07
5.766358867e-07
5.767845466e-07
5.768153785e-07
5.768513149e-07
5.769037371e-07
5.770331815e-07
5.791468437e-07
6.310009653e-07
1.503036322e-06
1.035223308e-05
5.921745566e-05
0.000196501634
8.553716242e-05
0.0001022886277
8.050151928e-05
2.385287786e-05
8.840062813e-06
7.505717965e-05
6.56851721e-06
1.027357817e-06
6.322652836e-07
1.057753937e-06
1.123277817e-05
1.098291021e-06
4.57470254e-07
5.743841444e-07
5.766403702e-07
5.767916237e-07
5.768275529e-07
5.768744742e-07
5.769748343e-07
5.78285438e-07
6.157241039e-07
1.371682508e-06
1.046127466e-05
6.833294119e-05
0.0002429201437
9.6817601e-05
0.0001161106816
0.0001201651644
0.0002547188109
0.0001089279434
6.785547862e-05
0.0002723197989
4.58597333e-05
6.0892248e-06
1.744475137e-06
9.679000721e-06
9.498844583e-05
8.875351178e-06
4.574775823e-07
5.743863856e-07
5.766437999e-07
5.767973201e-07
5.768377663e-07
5.769012215e-07
5.774372959e-07
5.947369356e-07
1.02537385e-06
7.461644974e-06
5.783253288e-05
0.0002387567493
9.985467653e-05
0.0001228807992
0.0001327548135
0.0001311478391
9.109563166e-05
0.0002700092344
0.0002539942996
9.953787137e-05
0.0001579306942
3.48185128e-05
1.480338245e-05
8.334972753e-05
8.012149641e-05
6.950130737e-05
4.574742412e-07
5.743861213e-07
5.766452086e-07
5.768005553e-07
5.768459396e-07
5.769975832e-07
5.814604672e-07
7.250636594e-07
3.61198548e-06
3.454952201e-05
0.0001821181425
9.460463594e-05
0.0001213188356
0.0001361520085
0.0001453961283
0.000140503025
0.0001030795506
8.907571954e-05
0.0001001275451
0.0001162535138
7.786619457e-05
0.0001204043346
9.194810713e-05
7.861724169e-05
0.000116171807
0.0002745187214
4.574580874e-07
5.743831436e-07
5.766442982e-07
5.768010331e-07
5.768672892e-07
5.781354494e-07
6.293765718e-07
1.930964875e-06
1.923194388e-05
0.0001212195113
8.279638736e-05
0.0001114549708
0.000127659684
0.0001402426734
0.0001481734025
0.0001386190698
0.0001108298972
0.0001040374506
0.0001213805887
0.0001303421364
9.490069177e-05
0.0002555231087
0.0002958821377
0.0001184522996
0.0001540861214
0.000118020481
4.574227432e-07
5.743759727e-07
5.766403906e-07
5.767952551e-07
5.768400267e-07
5.769199321e-07
5.77652046e-07
6.009493212e-07
1.181894083e-06
9.415437033e-06
5.461116616e-05
0.0001660595111
7.965047604e-05
0.0001022902634
0.0001206939016
0.0001226644474
0.0001076731723
0.0001183365839
0.0001382692614
0.0001472107393
0.0001088607098
8.656223111e-05
0.0001118033385
0.0001583366147
0.0002052158794
0.0001924501818
4.573752871e-07
5.743675516e-07
5.766365984e-07
5.767883434e-07
5.768252582e-07
5.768765341e-07
5.769818514e-07
5.779196432e-07
6.036986684e-07
1.137870806e-06
6.944149499e-06
4.008777921e-05
0.0001480312899
7.943643333e-05
9.943611093e-05
9.796128654e-05
8.911552043e-05
0.0001195733456
0.0001521670521
0.0001617583878
0.0001097040788
0.0001074030521
0.0001568587822
0.0001991477626
0.000267029999
0.0002979823225
4.573175677e-07
5.743593281e-07
5.766369044e-07
5.767876522e-07
5.768224974e-07
5.768713279e-07
5.769538551e-07
5.771074622e-07
5.779040033e-07
5.976121795e-07
9.718575851e-07
5.157501457e-06
3.322605832e-05
0.0001317759784
0.0002908987332
7.770951754e-05
0.0001733936585
8.399137858e-05
0.0001213927817
0.0001418577425
0.0002658204668
0.0002291562636
0.0001094823797
0.0001662195339
0.0002458352865
0.0003043795276
4.572536534e-07
5.743532824e-07
5.766433287e-07
5.767926966e-07
5.768222749e-07
5.768609491e-07
5.769242581e-07
5.770271223e-07
5.772115972e-07
5.779887932e-07
5.934878867e-07
8.733181306e-07
4.163037242e-06
2.576047738e-05
9.342685109e-05
0.0001500971719
3.57814197e-05
0.0001058220517
7.996323823e-05
0.0001175621256
8.752145068e-05
4.48328996e-05
0.0001779355876
0.000106923709
0.0001746633638
0.0001749660855
4.571888842e-07
5.743520017e-07
5.766602737e-07
5.768102361e-07
5.768375273e-07
5.768710669e-07
5.769248538e-07
5.770042147e-07
5.771214843e-07
5.773071986e-07
5.779042161e-07
5.888814021e-07
7.831016717e-07
2.877121712e-06
1.474743462e-05
3.759893831e-05
4.329870862e-06
1.46311427e-05
7.834758538e-05
0.000309937589
2.215477597e-05
5.123860863e-06
2.379536321e-05
0.0001376992306
0.0001080132797
8.440591073e-05
4.571278556e-07
5.743577762e-07
5.766909739e-07
5.768429747e-07
5.768704835e-07
5.769016953e-07
5.769575638e-07
5.770349858e-07
5.771625758e-07
5.773113706e-07
5.775025814e-07
5.779561836e-07
5.844411475e-07
6.873244855e-07
1.604681905e-06
4.872735232e-06
8.146169977e-07
1.56505933e-06
8.506713125e-06
6.384933068e-05
3.12462916e-06
8.707498904e-07
2.122992098e-06
1.458950814e-05
0.0001310329977
4.602844552e-05
4.570760367e-07
5.743732207e-07
5.767387063e-07
5.7689198e-07
5.769207114e-07
5.769464557e-07
5.770284172e-07
5.772550858e-07
5.78179247e-07
5.806584362e-07
5.775558259e-07
5.775806787e-07
5.778325249e-07
5.80796402e-07
6.178488445e-07
8.340327085e-07
5.879847045e-07
6.188771055e-07
9.915779814e-07
6.545997846e-06
7.423221361e-07
5.908148669e-07
6.37693702e-07
1.301012897e-06
1.255678676e-05
3.397090243e-06
4.570409802e-07
5.744028015e-07
5.768143223e-07
5.769781565e-07
5.770356004e-07
5.771643028e-07
5.782992595e-07
5.870024076e-07
6.343067324e-07
7.920369928e-07
5.960865488e-07
5.782766076e-07
5.777455546e-07
5.778151202e-07
5.786533441e-07
5.864148663e-07
5.779352109e-07
5.787111397e-07
5.905930978e-07
8.717607498e-07
5.843933936e-07
5.778944159e-07
5.789998913e-07
5.998601256e-07
1.097572183e-06
6.83832058e-07
4.570231795e-07
5.74447192e-07
5.769024046e-07
5.770818283e-07
5.774498852e-07
5.808531801e-07
6.144959132e-07
8.649741753e-07
2.138339209e-06
5.584530702e-06
1.480983651e-06
6.524908898e-07
5.802405853e-07
5.777982168e-07
5.776693959e-07
5.777778048e-07
5.775324633e-07
5.774563087e-07
5.777114561e-07
5.860669185e-07
5.775262537e-07
5.772838833e-07
5.773235424e-07
5.777865451e-07
5.900428978e-07
5.801051656e-07
4.571978881e-07
5.747209601e-07
5.772098961e-07
5.781026765e-07
5.869254032e-07
6.718397633e-07
1.374562788e-06
5.439303208e-06
1.994478043e-05
4.560377903e-05
1.621114588e-05
3.048208063e-06
7.587119079e-07
5.846485701e-07
5.779632433e-07
5.776532881e-07
5.77519423e-07
5.774193269e-07
5.773730524e-07
5.774713407e-07
5.772780754e-07
5.772312144e-07
5.77231993e-07
5.772533484e-07
5.774331714e-07
5.773597719e-07
4.627620102e-07
5.812454839e-07
5.812686556e-07
5.977778533e-07
7.700915855e-07
2.098964236e-06
1.009971325e-05
4.005892211e-05
0.0001017842246
0.0001667015271
0.0001003648063
2.975150187e-05
4.67518219e-06
8.659863233e-07
5.895608325e-07
5.78168841e-07
5.776258178e-07
5.774568835e-07
5.773634329e-07
5.772811179e-07
5.772459815e-07
5.772065449e-07
5.772007326e-07
5.772117546e-07
5.772052077e-07
6.102013036e-07
7.354874274e-07
6.688885973e-07
9.23267612e-07
3.096859584e-06
1.483163148e-05
5.829832842e-05
0.00014949452
0.0002583121858
7.803933306e-05
0.0002791913975
0.0001373046199
3.732937052e-05
5.467749538e-06
9.218459553e-07
5.92346711e-07
5.781148243e-07
5.775001797e-07
5.773704446e-07
5.772853512e-07
5.772403568e-07
5.77208196e-07
5.771935088e-07
5.772049034e-07
5.771982726e-07
3.140802676e-06
3.170935616e-06
1.97619542e-06
4.339581229e-06
2.006928455e-05
7.09433526e-05
0.0001739869118
0.0003023878856
8.730074971e-05
9.56972216e-05
9.212239246e-05
0.0003091269236
0.0001428211205
3.581823298e-05
4.986013566e-06
8.727931667e-07
5.899918635e-07
5.780676125e-07
5.774770232e-07
5.77321719e-07
5.772451339e-07
5.77209705e-07
5.771877459e-07
5.772042644e-07
5.771980624e-07
2.868228344e-05
2.682850964e-05
1.455983101e-05
2.546920443e-05
8.47142979e-05
0.0001884612056
0.0003101797195
8.847577319e-05
0.0001005959854
0.0001125674818
0.0001083001927
9.242527552e-05
0.0003046872279
0.000135894122
3.437133238e-05
5.142721654e-06
9.211548655e-07
5.936263055e-07
5.780882111e-07
5.77396915e-07
5.7728038e-07
5.772359565e-07
5.77202998e-07
5.772215234e-07
5.772130935e-07
0.0001649034403
0.0001556497354
8.894344529e-05
9.275242408e-05
0.0002003837619
0.0003178088811
8.652625317e-05
9.664914067e-05
0.000111023856
0.0001328298894
0.0001290940443
0.000105624682
9.067011949e-05
0.0002913445832
0.0001308644707
3.514267421e-05
5.068770825e-06
8.513750285e-07
5.87647138e-07
5.775997718e-07
5.772507353e-07
5.772269484e-07
5.77205069e-07
5.772422781e-07
5.772324707e-07
5.773196013e-07
9.864830803e-05
9.81458757e-05
8.13155171e-05
0.0002093707983
0.000271710838
8.350661625e-05
9.71299478e-05
0.0001075823118
0.000124557765
0.0001439946646
0.0001477319966
0.0001336906261
0.0001139460227
9.984380623e-05
8.607581499e-05
0.0002216852091
7.22247455e-05
1.188552746e-05
1.452801462e-06
6.154033145e-07
5.784331196e-07
5.773418311e-07
5.772621021e-07
5.772946438e-07
5.77279403e-07
5.773787636e-07
3.760832181e-07
4.84643118e-07
4.864029945e-07
4.864942711e-07
4.865444998e-07
4.866138967e-07
4.86711377e-07
4.868470097e-07
4.870346889e-07
4.87317514e-07
4.880752698e-07
5.025339339e-07
7.359537843e-07
3.23799577e-06
1.751715634e-05
5.739904616e-05
9.923925322e-05
0.0001143659668
2.646057393e-05
3.562946415e-06
6.353290759e-07
4.976024928e-07
4.914127173e-07
4.929086786e-07
4.929543736e-07
4.952966012e-07
3.846063475e-07
3.871758794e-06
5.500462667e-06
5.567199496e-06
5.526652328e-06
5.46057757e-06
5.360337761e-06
5.208868092e-06
4.985127942e-06
4.677415012e-06
4.179781979e-06
3.260292779e-06
5.726259877e-06
2.438098853e-05
2.905467998e-05
2.26081343e-05
2.152329396e-05
5.091299754e-05
2.329066711e-05
3.051533726e-05
4.988506746e-06
3.656191194e-06
4.290944784e-06
4.499861785e-06
4.477181022e-06
4.394848939e-06
3.853986008e-07
4.997590867e-06
8.446540514e-06
8.682548038e-06
8.591298185e-06
8.426416433e-06
8.169022911e-06
7.777153397e-06
7.207001697e-06
6.37735389e-06
4.527456923e-06
5.030398449e-06
2.032219286e-05
2.880045907e-05
2.456690356e-05
3.097251536e-05
0.0001142999498
0.00014638416
2.462898547e-05
2.432091258e-05
2.341307673e-05
4.345273395e-06
5.321946889e-06
6.089982894e-06
5.995312165e-06
5.991324406e-06
3.854372885e-07
5.050600194e-06
8.65514329e-06
8.930205537e-06
8.842449517e-06
8.679931146e-06
8.428589879e-06
8.043223656e-06
7.433506084e-06
5.936869512e-06
3.704744452e-06
9.690695525e-06
3.027435361e-05
2.159489425e-05
1.589030516e-05
9.891023171e-05
0.0002425613885
0.0002517934029
7.338016254e-05
2.239188391e-05
1.859612794e-05
1.168270425e-05
3.920362435e-06
6.168786702e-06
6.032693671e-06
5.835603771e-06
3.854583114e-07
5.055347477e-06
8.67172716e-06
8.948847592e-06
8.853148822e-06
8.666496518e-06
8.360918761e-06
7.873206521e-06
6.969007602e-06
4.567087128e-06
4.558464188e-06
1.728644363e-05
2.786802957e-05
1.675375879e-05
1.409717824e-05
0.0001273843431
0.0003130832236
0.0002705069489
0.0001332226481
2.162265183e-05
1.797571089e-05
3.593456686e-05
5.225157591e-06
5.142583265e-06
5.226561115e-06
7.723125919e-06
3.854861549e-07
5.059491386e-06
8.683618718e-06
8.966632872e-06
8.886107312e-06
8.739142795e-06
8.524337642e-06
8.219223881e-06
7.7991409e-06
7.197947809e-06
5.64771906e-06
3.867399433e-06
5.283857557e-06
4.219142747e-06
1.879117787e-05
0.0001329561586
0.0002607792448
0.0002137263552
0.0001219601837
1.626027428e-05
5.869037963e-06
3.920497316e-06
6.846492686e-06
5.871770805e-06
6.14893161e-06
2.067572802e-05
3.855333727e-07
5.064598945e-06
8.695914161e-06
8.980181759e-06
8.897753938e-06
8.740903761e-06
8.500004708e-06
8.140940414e-06
7.62887563e-06
6.964641557e-06
6.192736839e-06
5.121232756e-06
3.722135347e-06
5.06055114e-06
1.48607052e-05
2.620629671e-05
7.043902507e-05
0.0001060597416
3.861092735e-05
6.19362811e-06
4.573001375e-06
5.339498104e-06
6.16736922e-06
4.535418513e-06
9.305226123e-06
3.29034558e-05
3.85596581e-07
5.070552954e-06
8.709253019e-06
8.994646448e-06
8.914728872e-06
8.768894282e-06
8.558716712e-06
8.267436353e-06
7.882839335e-06
7.408881182e-06
6.924715536e-06
6.449211101e-06
6.229217315e-06
4.247431154e-06
5.379048219e-06
1.764778262e-05
1.861533417e-05
2.805476799e-05
5.448278591e-06
2.765766733e-06
8.67875277e-06
6.697381188e-06
6.437332022e-06
5.64734482e-06
5.297797171e-06
2.418173741e-05
3.856766809e-07
5.077471128e-06
8.72348165e-06
9.00827142e-06
8.924556841e-06
8.769628769e-06
8.541446736e-06
8.218748824e-06
7.790456527e-06
7.271002742e-06
6.698906892e-06
5.741089611e-06
4.333825029e-06
5.514314663e-06
1.406850079e-05
3.620899334e-05
1.062161357e-05
1.402627525e-05
3.52822752e-06
3.858304437e-06
7.170574121e-06
5.922781658e-06
6.495344836e-06
6.764437061e-06
6.131073485e-06
5.506392271e-06
3.857618971e-07
5.084964378e-06
8.738251742e-06
9.020047837e-06
8.9267968e-06
8.751261022e-06
8.485758494e-06
8.107593685e-06
7.630840469e-06
7.037739526e-06
6.028489896e-06
4.284376057e-06
7.898822334e-06
2.377077674e-05
2.43040168e-05
2.102938134e-05
1.175091148e-05
6.061498165e-06
4.967362715e-06
8.990505076e-06
6.094797936e-06
5.983511547e-06
6.549167015e-06
6.709226651e-06
5.222868768e-06
6.630239848e-06
3.858370928e-07
5.092650573e-06
8.75425667e-06
9.03323373e-06
8.930755722e-06
8.737564827e-06
8.446765033e-06
8.047467221e-06
7.564109594e-06
6.530643545e-06
4.688450629e-06
8.893708309e-06
2.954122376e-05
2.571103511e-05
1.236241235e-05
1.239944248e-05
3.024378904e-05
2.683600995e-05
9.532611608e-06
3.115591994e-05
9.081991813e-06
6.02867806e-06
7.797781358e-06
8.14619641e-06
1.121390064e-05
6.60207452e-06
3.858783576e-07
5.099503947e-06
8.770030312e-06
9.044347672e-06
8.923395196e-06
8.683373995e-06
8.30675649e-06
7.74748381e-06
6.851778849e-06
4.45378735e-06
7.355685981e-06
2.917203021e-05
2.508834808e-05
1.883529423e-05
3.497084827e-05
3.984707309e-05
7.618308591e-06
7.562829036e-05
1.972891721e-05
1.028267387e-05
1.711847706e-05
1.142436642e-05
1.288447686e-05
1.426226427e-05
1.608450264e-05
9.64656576e-06
3.858613433e-07
5.104574028e-06
8.787949134e-06
9.067488876e-06
8.954424349e-06
8.734248878e-06
8.393770678e-06
7.727762066e-06
5.315497374e-06
4.56399469e-06
1.622384881e-05
1.919639662e-05
1.315250141e-05
4.210504436e-05
9.069906844e-05
7.956050307e-05
3.250192477e-05
4.736851346e-05
1.228109279e-05
1.009649032e-05
9.749627674e-06
2.846706106e-05
3.700630416e-05
2.545034451e-05
2.638554528e-06
6.376163174e-06
3.857689556e-07
5.106117642e-06
8.800998903e-06
9.080606138e-06
8.948425659e-06
8.666628218e-06
8.184731617e-06
6.342091653e-06
4.153471778e-06
1.157504554e-05
2.634265694e-05
1.562394685e-05
1.950768706e-05
6.267013083e-05
9.833977288e-05
9.142441079e-05
7.297410229e-05
2.788153858e-05
2.346041306e-05
3.204216441e-05
4.365288368e-06
2.87068228e-05
1.502347745e-05
5.127262022e-06
6.978324426e-06
2.761663428e-06
3.855832923e-07
5.103239164e-06
8.81811904e-06
9.132246573e-06
9.076154589e-06
8.95700952e-06
8.796806697e-06
8.629529323e-06
7.802156987e-06
4.748211808e-06
5.084958066e-06
6.986399334e-06
4.780363703e-06
2.477149584e-05
6.965434488e-05
8.273089809e-05
5.594264495e-05
1.992607909e-05
5.61400087e-05
6.305968711e-05
3.855763821e-05
2.389155775e-05
1.337559376e-05
1.532503363e-05
8.227076737e-05
9.251217318e-05
3.853237102e-07
5.093240501e-06
8.816000576e-06
9.143754452e-06
9.09370431e-06
8.949341167e-06
8.693578013e-06
8.27321901e-06
7.879154964e-06
7.006844453e-06
5.127574571e-06
5.994462815e-06
1.634779996e-05
2.29354827e-05
8.86838537e-06
1.187513612e-05
1.771600603e-05
4.076399986e-05
8.045683324e-05
8.870451454e-05
8.628729698e-05
1.982555204e-05
7.905828372e-06
5.674504253e-05
0.0001999828298
0.0003310865336
3.850128103e-07
5.075509184e-06
8.798382001e-06
9.151811003e-06
9.155807582e-06
9.124888798e-06
9.072609582e-06
8.99980853e-06
8.85503487e-06
8.872065576e-06
8.470101599e-06
6.570651352e-06
5.428821229e-06
1.251532538e-05
2.086436812e-05
1.538053303e-05
5.004523757e-06
1.287355839e-05
1.532130519e-05
5.579866819e-05
2.119155584e-05
9.342640125e-06
7.371531542e-06
2.096903639e-05
0.0001945840377
0.0003559000324
3.846694191e-07
5.047564754e-06
8.749967538e-06
9.113749617e-06
9.134525891e-06
9.121820046e-06
9.080263757e-06
8.996569769e-06
8.900958547e-06
8.820820394e-06
8.86024885e-06
8.615872123e-06
6.983005679e-06
5.319260855e-06
8.570672764e-06
1.519457767e-05
1.040559553e-06
3.563563765e-06
6.483405205e-06
1.422579308e-05
2.648482279e-06
2.081861876e-06
1.109515049e-05
7.607067321e-06
1.259934774e-05
6.809852003e-05
3.843260769e-07
5.00805393e-06
8.666035849e-06
9.030541074e-06
9.060703182e-06
9.068636439e-06
9.075703777e-06
9.075051181e-06
9.051762087e-06
9.022357338e-06
8.891444705e-06
8.913985885e-06
8.619831946e-06
6.865425156e-06
4.053636967e-06
5.215829132e-06
9.04477653e-07
1.458271584e-06
1.47438254e-06
9.141960242e-06
6.338432921e-07
1.771985944e-06
3.585828389e-06
3.505468764e-06
6.675850616e-06
1.296603484e-05
3.840036734e-07
4.954025721e-06
8.53604828e-06
8.88420542e-06
8.903163973e-06
8.895184946e-06
8.898692115e-06
8.900221811e-06
8.931005383e-06
8.932856951e-06
9.013239366e-06
9.021749842e-06
8.992347972e-06
8.774107598e-06
7.02485568e-06
4.571455371e-06
3.612079481e-06
4.302280261e-06
6.717016053e-07
1.985327838e-06
1.208430774e-06
6.382123113e-06
6.793098758e-06
1.368243828e-06
3.986243858e-06
1.334351759e-06
3.837170418e-07
4.881166984e-06
8.346385135e-06
8.650859603e-06
8.630132848e-06
8.557311781e-06
8.518455584e-06
8.44912632e-06
8.471393854e-06
8.433294087e-06
8.723444594e-06
8.821021313e-06
8.927151626e-06
8.957283194e-06
9.009661065e-06
8.091475622e-06
8.470084743e-06
7.769709283e-06
3.4447624e-06
1.231452027e-06
5.635303116e-06
8.039201528e-06
8.700978966e-06
4.953641126e-06
1.913027962e-06
1.950350271e-07
3.834740118e-07
4.784638819e-06
8.091428026e-06
8.327400933e-06
8.246867828e-06
8.054314072e-06
7.931937615e-06
7.689218383e-06
7.684728444e-06
7.349135124e-06
8.069166749e-06
8.239226581e-06
8.54548299e-06
8.725083428e-06
8.82309933e-06
8.748500229e-06
8.889820505e-06
8.784564861e-06
8.410443279e-06
5.80067004e-06
8.783953205e-06
8.794572912e-06
8.864835628e-06
8.498689704e-06
6.21794251e-06
5.604334394e-07
3.832108434e-07
4.648648089e-06
7.721687258e-06
7.832513141e-06
7.670267611e-06
7.35061596e-06
7.251518487e-06
6.734838604e-06
5.951946134e-06
4.484678613e-06
6.582851338e-06
7.365676228e-06
7.952039199e-06
8.324270007e-06
8.622032365e-06
8.784775962e-06
8.996994148e-06
8.882792453e-06
9.143527058e-06
8.626798358e-06
9.134159188e-06
8.911686368e-06
9.004632785e-06
9.034672293e-06
8.634754802e-06
5.428637885e-06
3.83188912e-07
4.487170753e-06
7.342061897e-06
7.328442459e-06
7.07778752e-06
6.52983767e-06
5.916240585e-06
4.515653706e-06
4.565979717e-06
6.132135613e-06
4.005416726e-06
5.061373153e-06
6.763129935e-06
7.418461516e-06
7.851615568e-06
8.274432987e-06
8.588166675e-06
8.774803627e-06
8.99047095e-06
8.996701509e-06
9.154840506e-06
9.10098376e-06
9.13063879e-06
9.164653218e-06
8.984098506e-06
8.971368951e-06
3.837471795e-07
4.163285271e-06
6.698729084e-06
6.535136828e-06
6.092083524e-06
5.057549968e-06
4.717066791e-06
7.296875521e-06
1.554355043e-05
2.281989776e-05
1.179074288e-05
5.350602713e-06
5.070849229e-06
6.981469482e-06
7.614703726e-06
8.127314633e-06
8.534066817e-06
8.799861707e-06
9.004505019e-06
9.065516566e-06
9.17184765e-06
9.17123878e-06
9.189020367e-06
9.213064817e-06
9.115388757e-06
3.941467978e-07
3.760374599e-06
6.070143713e-06
5.648334964e-06
4.647944477e-06
5.054180655e-06
1.139699336e-05
2.813757589e-05
4.549519627e-05
3.869602292e-05
3.185625079e-05
1.858909046e-05
6.093487854e-06
4.361157957e-06
5.990850112e-06
6.88623266e-06
7.503633204e-06
8.048140727e-06
8.472115072e-06
8.74733428e-06
8.952544528e-06
9.064450859e-06
9.127595505e-06
9.179174012e-06
9.146073895e-06
5.978925683e-07
2.575234369e-06
4.048344947e-06
4.006049711e-06
5.721162247e-06
1.463240795e-05
3.854728757e-05
6.983783267e-05
4.738418271e-05
1.896534226e-05
9.463610556e-06
3.522199724e-05
2.055100969e-05
7.670383209e-06
5.790376945e-06
7.461653291e-06
7.938307599e-06
8.343500495e-06
8.667284059e-06
8.870019449e-06
9.000753882e-06
9.078224489e-06
9.112310011e-06
9.140120813e-06
9.128424521e-06
3.36759136e-06
3.90385343e-06
3.806144447e-06
6.500605796e-06
1.783475082e-05
3.910046256e-05
5.799476761e-05
4.133919423e-05
1.691188931e-05
2.89858853e-05
2.100959271e-05
1.256893515e-05
4.005959342e-05
1.915032996e-05
5.654058266e-06
4.404907034e-06
6.131040223e-06
7.06172662e-06
7.707128342e-06
8.221039357e-06
8.569534866e-06
8.798987779e-06
8.9215819e-06
8.994569491e-06
9.034933645e-06
2.573808324e-05
1.602896167e-05
1.309457578e-05
2.149052646e-05
4.956087277e-05
5.070267301e-05
1.883229135e-05
1.001552061e-05
3.567227096e-05
0.0001212226066
9.75022236e-05
3.183450172e-05
6.097855988e-06
1.685106411e-05
1.308657905e-05
5.033255724e-06
4.850870242e-06
7.446156289e-06
8.209793474e-06
8.532514646e-06
8.729871702e-06
8.856775755e-06
8.923587971e-06
8.925805916e-06
8.966853917e-06
8.881942223e-06
0.0001185821936
3.051437972e-05
3.420502244e-05
4.969570556e-05
7.776257904e-05
4.336641782e-05
1.546666333e-05
2.86536692e-05
7.767748929e-05
0.0001454797652
0.000154489282
0.0001145274356
5.663752323e-05
1.042359854e-05
2.205432604e-05
2.87246742e-05
8.640320213e-06
3.724882996e-06
6.066016693e-06
7.736426662e-06
8.219947658e-06
8.50540618e-06
8.660671007e-06
8.678238922e-06
8.777006386e-06
8.611300736e-06
3.7534422e-07
4.848843451e-07
4.872974072e-07
4.874731208e-07
4.875456463e-07
4.876454109e-07
4.878031305e-07
4.880648222e-07
4.885065956e-07
4.892386184e-07
4.904195903e-07
4.926417166e-07
5.073854986e-07
6.688037042e-07
1.867407209e-06
6.834213896e-06
1.302092803e-05
1.679053322e-05
2.412974713e-06
6.769943313e-07
5.064983493e-07
4.935208725e-07
4.947770215e-07
4.943871544e-07
4.960374543e-07
4.990671328e-07
3.843160858e-07
5.567223635e-06
1.020140123e-05
1.065531667e-05
1.069334771e-05
1.071991314e-05
1.075902645e-05
1.081495372e-05
1.088138272e-05
1.090582326e-05
1.072826038e-05
9.043699457e-06
4.957997398e-06
4.311122264e-06
6.333892304e-06
4.8855953e-06
2.77701535e-06
1.249677947e-05
2.802326076e-06
3.729748292e-06
8.723743463e-06
9.52904199e-06
1.13321474e-05
1.07799347e-05
1.124250746e-05
1.144992576e-05
3.85593582e-07
8.591323592e-06
3.452341736e-05
4.288840916e-05
4.380311416e-05
4.408460679e-05
4.442837089e-05
4.483015438e-05
4.498743815e-05
4.324260033e-05
3.457832367e-05
1.198535469e-05
6.911770528e-06
8.921132401e-06
8.971420451e-06
4.143874699e-06
3.867884006e-05
9.632539555e-05
5.535084658e-06
4.917289096e-06
2.234892451e-05
1.660470751e-05
4.554794743e-05
3.801670124e-05
4.265412571e-05
4.180879703e-05
3.856883008e-07
8.815846242e-06
4.003017305e-05
5.302799565e-05
5.467703139e-05
5.513205296e-05
5.570494737e-05
5.652135057e-05
5.728246888e-05
5.380788545e-05
3.082663224e-05
7.32853435e-06
5.311049282e-06
3.1426821e-06
4.260228468e-06
3.587606867e-05
0.000217566879
0.0002288363166
5.863573181e-05
5.441270262e-06
6.548019075e-06
1.105883076e-05
5.562875149e-05
4.916939642e-05
5.28811106e-05
4.447967989e-05
3.857187929e-07
8.829438088e-06
4.047435096e-05
5.403391531e-05
5.581650235e-05
5.630790843e-05
5.68217761e-05
5.719027377e-05
5.607197195e-05
4.31056177e-05
1.412509769e-05
5.566021988e-06
5.168298786e-06
2.994621284e-06
1.927576583e-05
0.0001427477564
0.0003286792403
0.0002706688489
0.0001570026135
1.226800758e-05
7.566006758e-06
7.971130661e-06
3.322259408e-05
4.555844385e-05
4.848601496e-05
2.905575379e-05
3.857550817e-07
8.83429703e-06
4.052872623e-05
5.411479514e-05
5.584393655e-05
5.625502892e-05
5.675952697e-05
5.755693458e-05
5.773995352e-05
3.97323178e-05
5.580856659e-06
6.842410923e-07
1.526488763e-06
1.20395452e-05
6.826441548e-05
0.0001937965398
0.0002798194996
0.0002234902616
0.0001685218966
2.230005701e-05
1.199047741e-06
1.137196765e-05
6.413833949e-05
5.513082683e-05
3.456776547e-05
1.926254828e-05
3.85809832e-07
8.841506314e-06
4.059212274e-05
5.423216259e-05
5.60060559e-05
5.646345765e-05
5.695196172e-05
5.75224719e-05
5.796572898e-05
5.626751137e-05
4.501703782e-05
1.100389519e-05
1.946359118e-06
1.207246407e-06
5.135595557e-06
3.089094725e-05
0.0001210600079
0.0001320848074
9.208400584e-05
4.085907109e-06
3.989675053e-06
3.302678894e-05
8.620568736e-05
4.280003784e-05
1.865961653e-05
9.861601733e-06
3.858816277e-07
8.850681332e-06
4.066080886e-05
5.432417852e-05
5.605886886e-05
5.643305731e-05
5.682595837e-05
5.741507133e-05
5.838985798e-05
5.929496855e-05
6.295898727e-05
6.121552336e-05
5.712883302e-05
1.679796266e-05
4.791657764e-06
2.262543558e-06
6.983089982e-06
1.416488858e-05
2.98763469e-06
7.529687364e-06
6.370886192e-05
7.491503663e-05
7.718935842e-05
4.445691798e-05
1.073254569e-05
3.80282459e-06
3.859707387e-07
8.862643384e-06
4.075860299e-05
5.450587272e-05
5.634252313e-05
5.692113276e-05
5.769658167e-05
5.888990918e-05
6.064303949e-05
6.256439557e-05
6.530362441e-05
5.934549008e-05
3.906072388e-05
9.39919179e-06
4.798653718e-06
5.325382014e-06
4.366133883e-06
2.158906335e-06
1.771618645e-05
3.859985868e-05
0.0001131926027
6.353037951e-05
8.961809981e-05
7.554469989e-05
2.953983741e-05
5.495487694e-06
3.860662585e-07
8.875795938e-06
4.086542409e-05
5.469224141e-05
5.659332897e-05
5.725811756e-05
5.817234942e-05
5.963494408e-05
6.21354018e-05
6.398013508e-05
6.033712432e-05
2.762728553e-05
7.249037744e-06
2.641531069e-06
3.004431169e-06
4.491199605e-06
6.485911451e-06
1.822056507e-05
4.600439503e-05
1.335922791e-05
6.371648495e-05
6.00599981e-05
7.263624251e-05
7.242424508e-05
4.303175809e-05
7.000327971e-05
3.861538169e-07
8.88871647e-06
4.098260611e-05
5.492720059e-05
5.69878589e-05
5.799363495e-05
5.965533745e-05
6.255118252e-05
6.681277591e-05
6.418326858e-05
2.984650444e-05
6.126311421e-06
2.819454247e-06
3.762166437e-06
8.095355067e-06
9.815381228e-06
3.358442749e-06
9.357365941e-06
9.968580357e-06
5.432696682e-06
1.738214478e-05
4.556320078e-05
1.775586282e-05
2.929746857e-05
5.820244845e-06
1.971192743e-05
3.862097077e-07
8.897815234e-06
4.10741295e-05
5.510338402e-05
5.724777887e-05
5.838883723e-05