/*--------------------------------*- C++ -*----------------------------------*\
  =========                 |
  \\      /  F ield         | OpenFOAM: The Open Source CFD Toolbox
   \\    /   O peration     | Website:  https://openfoam.org
    \\  /    A nd           | Version:  8
     \\/     M anipulation  |
\*---------------------------------------------------------------------------*/
FoamFile
{
    version     2.0;
    format      ascii;
    class       volScalarField;
    location    "0.3";
    object      p_rgh;
}
// * * * * * * * * * * * * * * * * * * * * * * * * * * * * * * * * * * * * * //

dimensions      [1 -1 -2 0 0 0 0];

internalField   nonuniform List<scalar> 
67410
(
100003.845
100003.8455
100003.8464
100003.8477
100003.8496
100003.852
100003.8549
100003.8586
100003.8631
100003.8686
100003.8755
100003.8841
100003.8947
100003.9078
100003.926
100003.951
100003.9576
100003.9452
100003.9367
100003.9322
100003.9394
100003.9436
100003.9543
100003.9651
100003.9769
100003.9897
100003.8462
100003.8467
100003.8476
100003.8489
100003.8508
100003.8532
100003.8561
100003.8598
100003.8642
100003.8697
100003.8764
100003.884
100003.8902
100003.8935
100003.8978
100003.8998
100003.8922
100003.8959
100003.9065
100003.9209
100003.9355
100003.9442
100003.9564
100003.9679
100003.981
100003.9944
100003.8486
100003.8491
100003.85
100003.8514
100003.8533
100003.8558
100003.8588
100003.8625
100003.867
100003.8725
100003.879
100003.8842
100003.8857
100003.8846
100003.8835
100003.887
100003.9165
100003.9232
100003.8963
100003.9196
100003.9369
100003.9473
100003.9622
100003.9741
100003.9891
100004.0037
100003.8523
100003.8527
100003.8537
100003.8551
100003.8571
100003.8595
100003.8625
100003.8662
100003.8707
100003.8762
100003.8817
100003.8837
100003.8816
100003.8775
100003.8813
100003.9147
100003.986
100003.9951
100003.9164
100003.9153
100003.9415
100003.9524
100003.9691
100003.9818
100003.9987
100004.0137
100003.8572
100003.8577
100003.8587
100003.8603
100003.8623
100003.8649
100003.8681
100003.8718
100003.8762
100003.881
100003.884
100003.8816
100003.8735
100003.869
100003.8853
100003.9349
100004.0161
100004.0263
100003.9423
100003.9068
100003.9359
100003.9551
100003.9777
100003.9908
100004.0077
100004.0176
100003.8633
100003.8639
100003.865
100003.8667
100003.8689
100003.8716
100003.8747
100003.8783
100003.8821
100003.8864
100003.8903
100003.891
100003.8912
100003.8953
100003.907
100003.9316
100003.9807
100003.9949
100003.9518
100003.9363
100003.9552
100003.9634
100003.9831
100003.9931
100004.0079
100004.0085
100003.8707
100003.8714
100003.8727
100003.8746
100003.8772
100003.8802
100003.8837
100003.8876
100003.8917
100003.8961
100003.9007
100003.905
100003.9099
100003.9166
100003.9273
100003.9416
100003.9371
100003.9528
100003.9508
100003.9583
100003.9728
100003.9809
100003.9959
100004
100004.0034
100003.984
100003.8794
100003.8801
100003.8817
100003.884
100003.887
100003.8905
100003.8945
100003.8988
100003.9035
100003.9086
100003.9143
100003.9206
100003.9284
100003.9387
100003.9513
100003.9738
100003.961
100003.9673
100003.9772
100003.9956
100004.001
100004.0044
100004.0152
100004.0068
100004.0186
100003.9893
100003.8892
100003.8901
100003.8921
100003.8949
100003.8985
100003.9028
100003.9076
100003.9129
100003.9185
100003.9247
100003.9316
100003.9395
100003.9485
100003.9569
100003.9679
100003.9786
100003.9868
100004.0077
100004.0155
100004.0396
100004.0418
100004.0404
100004.0508
100004.0249
100004.0474
100003.9962
100003.9
100003.9012
100003.9036
100003.9071
100003.9116
100003.9169
100003.9229
100003.9293
100003.9362
100003.9436
100003.9517
100003.9596
100003.9654
100003.9677
100003.9762
100003.969
100004.0073
100004.0301
100004.0586
100004.0742
100004.0966
100004.0937
100004.1001
100004.0596
100004.0742
100004.0281
100003.9117
100003.9132
100003.9162
100003.9206
100003.9262
100003.9329
100003.9403
100003.9483
100003.9568
100003.9657
100003.9744
100003.9783
100003.9776
100003.9718
100003.9746
100003.9583
100004.0325
100004.0566
100004.1072
100004.0965
100004.1617
100004.1735
100004.1693
100004.1097
100004.0846
100004.0471
100003.924
100003.9259
100003.9296
100003.935
100003.942
100003.9504
100003.9598
100003.9699
100003.9804
100003.99
100003.9948
100003.9916
100003.9837
100003.9713
100004.0019
100004.0166
100004.0595
100004.1063
100004.1585
100004.1137
100004.2404
100004.3068
100004.2586
100004.1644
100004.0625
100004.0496
100003.9364
100003.9387
100003.9432
100003.9497
100003.9583
100003.9684
100003.9798
100003.992
100004.0047
100004.014
100004.0167
100004.0094
100003.9949
100004.018
100004.1259
100004.1665
100004.1589
100004.1792
100004.2121
100004.1883
100004.3103
100004.4629
100004.3624
100004.2197
100004.0475
100004.0379
100003.9486
100003.9513
100003.9566
100003.9644
100003.9747
100003.9871
100004.0013
100004.0164
100004.03
100004.0326
100004.0209
100003.9954
100003.9867
100004.0546
100004.1969
100004.2856
100004.3139
100004.2637
100004.3617
100004.5377
100004.5142
100005.2474
100004.7059
100004.3191
100004.135
100004.0362
100003.96
100003.963
100003.969
100003.9778
100003.9891
100004.0025
100004.0171
100004.0314
100004.0428
100004.049
100004.0449
100004.0353
100004.0202
100004.0368
100004.1269
100004.2413
100004.2905
100004.2366
100004.4762
100004.6079
100004.3979
100004.4102
100004.3566
100004.2039
100004.4981
100004.1481
100003.9704
100003.9736
100003.9801
100003.9896
100004.0019
100004.0165
100004.0325
100004.0486
100004.0631
100004.0699
100004.0714
100004.0671
100004.057
100004.0467
100004.0363
100004.0622
100004.1179
100004.164
100004.4225
100004.5327
100004.5153
100004.3812
100004.1774
100004.3569
100004.7691
100004.489
100003.9793
100003.9827
100003.9895
100003.9993
100004.0116
100004.0258
100004.0408
100004.0551
100004.0663
100004.0746
100004.0762
100004.0734
100004.0652
100004.0625
100004.0607
100004.0601
100004.0833
100004.0874
100004.1387
100004.1293
100004.1975
100004.1758
100004.0867
100004.0084
100004.2032
100004.3433
100003.9868
100003.9904
100003.9973
100004.0071
100004.0192
100004.0325
100004.0464
100004.0602
100004.0729
100004.0818
100004.0844
100004.0804
100004.0588
100004.0534
100004.0471
100004.0393
100004.0577
100004.0646
100004.0931
100004.0475
100004.0949
100004.0857
100004.0494
100004.0173
100003.8954
100003.9134
100003.9929
100003.9966
100004.0038
100004.0137
100004.0252
100004.0366
100004.046
100004.0518
100004.0541
100004.0535
100004.0483
100004.0409
100004.0297
100004.0252
100004.0217
100004.0172
100004.0256
100004.0368
100004.0542
100004.039
100004.0456
100004.0461
100004.0289
100004.0209
100003.9683
100003.9418
100003.9974
100004.0014
100004.0091
100004.0195
100004.0312
100004.0416
100004.0478
100004.048
100004.0438
100004.0377
100004.028
100004.0183
100004.0048
100003.9981
100003.9935
100003.9923
100003.9934
100004.0018
100004.0096
100004.0108
100004.0072
100004.0094
100003.9994
100003.9922
100003.972
100003.9352
100003.9998
100004.0042
100004.0127
100004.0243
100004.0373
100004.0485
100004.0531
100004.0472
100004.034
100004.0226
100004.0062
100003.9942
100003.9798
100003.9721
100003.9661
100003.9645
100003.9634
100003.969
100003.9721
100003.9787
100003.9724
100003.9744
100003.9675
100003.96
100003.953
100003.9221
100003.9995
100004.0042
100004.0134
100004.026
100004.0401
100004.0519
100004.0548
100004.0409
100004.021
100004.0047
100003.9867
100003.9716
100003.9581
100003.9486
100003.942
100003.9393
100003.9372
100003.9405
100003.9409
100003.9463
100003.9415
100003.943
100003.9369
100003.9299
100003.9227
100003.9016
100003.9961
100004.0007
100004.01
100004.0234
100004.0404
100004.0582
100004.0681
100004.047
100004.0176
100003.9943
100003.9711
100003.9528
100003.9381
100003.9277
100003.9205
100003.9166
100003.9141
100003.9151
100003.9145
100003.9173
100003.9142
100003.9143
100003.9091
100003.9031
100003.8951
100003.8818
100003.9899
100003.993
100003.9994
100004.0077
100004.0166
100004.0227
100004.0213
100004.0073
100003.9877
100003.9661
100003.9475
100003.9316
100003.918
100003.908
100003.9008
100003.8964
100003.8936
100003.8929
100003.8919
100003.8926
100003.8902
100003.8892
100003.8847
100003.8796
100003.8724
100003.8632
100003.9833
100003.9843
100003.988
100003.9923
100003.9971
100003.9994
100003.996
100003.9815
100003.9603
100003.9368
100003.9217
100003.9109
100003.9003
100003.8908
100003.8834
100003.8785
100003.8752
100003.8734
100003.872
100003.8713
100003.8692
100003.8674
100003.8636
100003.8592
100003.8531
100003.9801
100003.9784
100003.979
100003.9783
100003.9777
100003.9736
100003.9628
100003.9455
100003.925
100003.9021
100003.8899
100003.8848
100003.8785
100003.8717
100003.8659
100003.8617
100003.8587
100003.8565
100003.8547
100003.8532
100003.8512
100003.849
100003.8456
100003.8418
100003.8368
100003.9826
100003.9772
100003.9746
100003.9696
100003.9645
100003.9544
100003.9368
100003.9188
100003.9005
100003.8812
100003.8674
100003.865
100003.8621
100003.8581
100003.8536
100003.8489
100003.8448
100003.8418
100003.8396
100003.8376
100003.8355
100003.8332
100003.8302
100003.827
100003.8229
100003.9913
100003.9807
100003.9766
100003.9669
100003.9568
100003.9422
100003.9162
100003.8984
100003.8847
100003.8789
100003.8686
100003.8426
100003.8409
100003.8374
100003.835
100003.8328
100003.831
100003.829
100003.8268
100003.8246
100003.8224
100003.82
100003.8173
100003.8145
100003.8111
100004.0011
100003.9876
100003.9867
100003.9717
100003.9608
100003.952
100003.9087
100003.9009
100003.9116
100003.9404
100003.9318
100003.8738
100003.8271
100003.8259
100003.8267
100003.8261
100003.8229
100003.8191
100003.8159
100003.8134
100003.811
100003.8088
100003.8063
100003.8039
100003.8011
100003.7987
100004.0096
100003.9952
100004.005
100003.9939
100003.9964
100004.0294
100003.9366
100003.946
100003.9828
100004.0342
100004.0293
100003.9589
100003.8517
100003.7975
100003.8021
100003.8074
100003.8109
100003.8111
100003.8082
100003.805
100003.8022
100003.7998
100003.7974
100003.7952
100003.7927
100003.791
100003.8432
100003.8436
100003.8444
100003.8457
100003.8474
100003.8495
100003.8521
100003.8551
100003.8586
100003.8626
100003.867
100003.8716
100003.8749
100003.8731
100003.8637
100003.847
100003.8446
100003.8548
100003.887
100003.9023
100003.9235
100003.9303
100003.9438
100003.9556
100003.9674
100003.9784
100003.8443
100003.8447
100003.8456
100003.8469
100003.8486
100003.8507
100003.8532
100003.8562
100003.8595
100003.8632
100003.8667
100003.8689
100003.8659
100003.8471
100003.822
100003.8111
100003.8392
100003.8247
100003.8537
100003.885
100003.9164
100003.9297
100003.9449
100003.9578
100003.971
100003.9827
100003.8467
100003.8471
100003.848
100003.8493
100003.851
100003.8532
100003.8557
100003.8586
100003.8618
100003.8651
100003.8675
100003.8651
100003.8516
100003.8235
100003.8341
100003.8539
100003.8701
100003.8647
100003.8686
100003.8678
100003.9119
100003.9289
100003.9481
100003.9616
100003.9772
100003.9887
100003.8502
100003.8507
100003.8516
100003.8529
100003.8547
100003.8569
100003.8594
100003.8621
100003.8649
100003.8674
100003.8682
100003.8602
100003.8416
100003.8359
100003.862
100003.865
100003.8834
100003.8727
100003.8863
100003.8674
100003.9028
100003.9277
100003.9511
100003.9651
100003.9834
100003.994
100003.855
100003.8555
100003.8564
100003.8579
100003.8598
100003.8621
100003.8647
100003.8675
100003.8703
100003.8725
100003.8719
100003.86
100003.8512
100003.8623
100003.8856
100003.8876
100003.9052
100003.8962
100003.9031
100003.8888
100003.9055
100003.9263
100003.9551
100003.9661
100003.9826
100003.981
100003.861
100003.8615
100003.8626
100003.8642
100003.8663
100003.8687
100003.8714
100003.8743
100003.8772
100003.8798
100003.8818
100003.8814
100003.8792
100003.878
100003.8829
100003.8882
100003.9001
100003.9047
100003.92
100003.9095
100003.9367
100003.945
100003.9615
100003.9652
100003.9712
100003.9415
100003.8683
100003.8689
100003.8702
100003.872
100003.8744
100003.8771
100003.8802
100003.8834
100003.8866
100003.8897
100003.8924
100003.8941
100003.8956
100003.8965
100003.8968
100003.8948
100003.9027
100003.9151
100003.939
100003.9351
100003.9535
100003.9579
100003.9703
100003.9635
100003.955
100003.9054
100003.8767
100003.8775
100003.879
100003.8812
100003.884
100003.8873
100003.8907
100003.8943
100003.8979
100003.9013
100003.9045
100003.9073
100003.9102
100003.9119
100003.9147
100003.9152
100003.914
100003.9259
100003.9506
100003.9615
100003.9771
100003.9783
100003.9872
100003.9718
100003.9668
100003.9186
100003.8864
100003.8873
100003.8892
100003.8919
100003.8954
100003.8993
100003.9035
100003.9078
100003.9118
100003.9155
100003.9189
100003.921
100003.922
100003.9174
100003.9135
100003.9039
100003.9423
100003.9636
100003.9811
100003.9871
100004.009
100004.0085
100004.0148
100003.9885
100003.9839
100003.9508
100003.8971
100003.8983
100003.9006
100003.904
100003.9083
100003.9132
100003.9183
100003.9234
100003.9279
100003.9312
100003.9337
100003.9309
100003.924
100003.9015
100003.8941
100003.8928
100003.9512
100003.9812
100004.0091
100003.9979
100004.0517
100004.0564
100004.0552
100004.0124
100003.989
100003.9655
100003.9087
100003.9102
100003.9131
100003.9174
100003.9229
100003.929
100003.9355
100003.9416
100003.9468
100003.9493
100003.949
100003.9352
100003.9118
100003.8813
100003.907
100003.926
100003.9505
100003.9863
100004.0249
100003.9629
100004.0933
100004.1201
100004.1104
100004.0263
100003.9491
100003.9625
100003.9208
100003.9227
100003.9264
100003.9318
100003.9387
100003.9465
100003.9547
100003.9621
100003.968
100003.9672
100003.958
100003.9242
100003.8986
100003.9187
100003.9522
100003.9688
100003.9752
100003.984
100004.0214
100004.021
100004.1902
100004.306
100004.2158
100004.0407
100003.8971
100003.9314
100003.9332
100003.9355
100003.9401
100003.9468
100003.9553
100003.9652
100003.9755
100003.9846
100003.9911
100003.9869
100003.9671
100003.9315
100003.937
100003.9606
100003.983
100003.9919
100004.0144
100003.982
100004.0378
100004.1036
100004.1293
100004.3228
100004.2158
100003.9172
100003.9652
100003.8761
100003.9453
100003.9481
100003.9536
100003.9617
100003.9722
100003.9845
100003.9977
100004.0091
100004.0166
100004.0051
100003.9716
100003.9661
100003.9777
100003.9922
100004.0255
100004.0594
100004.0742
100004.0131
100004.1838
100004.3238
100004.626
100005.949
100004.6719
100004.1573
100004.1489
100003.94
100003.9568
100003.9599
100003.9662
100003.9756
100003.9878
100004.0022
100004.0179
100004.0325
100004.0437
100004.0441
100004.0324
100004.0098
100003.9918
100003.9977
100004.0194
100004.0409
100004.0535
100004.053
100004.1904
100004.1788
100004.1243
100004.029
100003.9965
100003.9187
100004.0795
100003.9682
100003.967
100003.9705
100003.9775
100003.9878
100004.0012
100004.0173
100004.0352
100004.0531
100004.0696
100004.0731
100004.0684
100004.0513
100004.0096
100003.991
100003.9864
100004.017
100004.029
100004.0193
100004.149
100004.1355
100004.2635
100004.0507
100003.9943
100003.8736
100004.0574
100004.0084
100003.976
100003.9796
100003.9869
100003.9975
100004.0111
100004.0268
100004.0435
100004.0595
100004.0727
100004.0816
100004.0781
100004.0644
100004.0371
100004.0153
100004.0021
100004.0035
100004.0192
100003.998
100004.1208
100004.0422
100004.108
100003.9577
100003.8717
100003.8069
100003.9041
100003.8484
100003.9835
100003.9873
100003.9947
100004.0055
100004.0187
100004.0335
100004.0492
100004.0662
100004.0842
100004.1
100004.1065
100004.1068
100004.0419
100004.0318
100004.0074
100003.9996
100004.0181
100003.9924
100004.0234
100003.9502
100004.0346
100003.9853
100003.9129
100003.8229
100003.7914
100003.8402
100003.9896
100003.9936
100004.0015
100004.0124
100004.0252
100004.0379
100004.0479
100004.0527
100004.0535
100004.0512
100004.0425
100004.0322
100004.0139
100004.0063
100003.997
100003.9926
100003.9983
100003.9956
100004.0167
100003.9726
100004.0157
100003.996
100003.9708
100003.9195
100003.8462
100003.8707
100003.9941
100003.9986
100004.0073
100004.0193
100004.0328
100004.0448
100004.0513
100004.0483
100004.0425
100004.036
100004.0253
100004.0149
100003.9933
100003.9844
100003.9761
100003.9748
100003.9753
100003.9792
100003.9848
100003.9758
100003.9879
100003.9857
100003.9677
100003.9454
100003.8985
100003.9029
100003.9967
100004.0019
100004.012
100004.0263
100004.043
100004.059
100004.0673
100004.0544
100004.0354
100004.0191
100004.0012
100003.9865
100003.9705
100003.9611
100003.9539
100003.9513
100003.9505
100003.9535
100003.957
100003.9583
100003.9605
100003.9616
100003.9522
100003.94
100003.9217
100003.9053
100003.9965
100004.0022
100004.0134
100004.0292
100004.0472
100004.0634
100004.0718
100004.0389
100004.0148
100003.9969
100003.9784
100003.9627
100003.9487
100003.939
100003.9324
100003.9295
100003.9281
100003.9309
100003.9318
100003.9358
100003.9345
100003.9365
100003.9289
100003.9204
100003.9055
100003.8921
100003.9928
100003.9987
100004.0115
100004.0318
100004.0607
100004.0971
100004.1375
100004.081
100004.0274
100003.9903
100003.962
100003.9429
100003.9287
100003.9188
100003.9123
100003.9088
100003.9071
100003.908
100003.9083
100003.9107
100003.9095
100003.91
100003.9043
100003.8981
100003.8872
100003.8765
100003.9847
100003.9885
100003.9962
100004.0062
100004.0163
100004.0221
100004.0184
100003.9929
100003.9693
100003.9457
100003.9307
100003.9178
100003.907
100003.8988
100003.8931
100003.8896
100003.8877
100003.8874
100003.8871
100003.8881
100003.8866
100003.886
100003.8814
100003.8764
100003.868
100003.8596
100003.9756
100003.9773
100003.982
100003.9879
100003.9947
100004.0001
100003.9983
100003.9721
100003.9367
100003.9089
100003.8988
100003.8928
100003.8867
100003.8804
100003.8755
100003.872
100003.8699
100003.8687
100003.868
100003.8676
100003.8662
100003.8647
100003.861
100003.8567
100003.8502
100003.9685
100003.9675
100003.9683
100003.9677
100003.9652
100003.9565
100003.936
100003.9032
100003.8773
100003.8677
100003.8558
100003.8547
100003.8602
100003.8593
100003.8573
100003.8549
100003.8533
100003.8521
100003.851
100003.8499
100003.8483
100003.8463
100003.8432
100003.8394
100003.8344
100003.965
100003.9603
100003.9579
100003.951
100003.9407
100003.9202
100003.8882
100003.867
100003.8626
100003.8664
100003.846
100003.8324
100003.8338
100003.8417
100003.842
100003.8407
100003.8389
100003.8373
100003.8359
100003.8345
100003.8327
100003.8306
100003.8279
100003.8247
100003.8206
100003.9669
100003.9564
100003.9509
100003.9339
100003.9087
100003.8687
100003.8483
100003.8492
100003.8528
100003.8449
100003.8317
100003.8169
100003.8045
100003.809
100003.8198
100003.8226
100003.8242
100003.8238
100003.8228
100003.8214
100003.8196
100003.8175
100003.815
100003.8122
100003.8089
100003.9661
100003.9442
100003.9395
100003.9078
100003.8759
100003.8433
100003.8439
100003.8534
100003.856
100003.8531
100003.8414
100003.834
100003.8078
100003.8022
100003.8046
100003.8127
100003.8138
100003.8131
100003.8117
100003.8101
100003.8083
100003.8063
100003.804
100003.8016
100003.7989
100003.7964
100003.9542
100003.9214
100003.9228
100003.8792
100003.8473
100003.7942
100003.8206
100003.8258
100003.8416
100003.846
100003.8414
100003.821
100003.8048
100003.7822
100003.7787
100003.7825
100003.7975
100003.8017
100003.8022
100003.8008
100003.799
100003.7971
100003.7949
100003.7928
100003.7904
100003.7885
100003.8394
100003.8397
100003.8405
100003.8417
100003.8433
100003.8453
100003.8477
100003.8505
100003.8538
100003.8574
100003.8614
100003.8658
100003.8705
100003.8752
100003.8816
100003.8846
100003.8908
100003.8898
100003.901
100003.9033
100003.9163
100003.9239
100003.9372
100003.9508
100003.9659
100003.9813
100003.8405
100003.8409
100003.8417
100003.8428
100003.8444
100003.8464
100003.8488
100003.8516
100003.8547
100003.8582
100003.8618
100003.8655
100003.8692
100003.8723
100003.8772
100003.8813
100003.8859
100003.8849
100003.8967
100003.9009
100003.916
100003.9252
100003.9395
100003.9546
100003.9721
100003.9906
100003.8427
100003.8431
100003.8439
100003.8451
100003.8468
100003.8488
100003.8512
100003.854
100003.8571
100003.8604
100003.8638
100003.8672
100003.8709
100003.8746
100003.8842
100003.8832
100003.8868
100003.8895
100003.9023
100003.9051
100003.918
100003.9286
100003.9442
100003.9617
100003.9838
100004.0083
100003.8461
100003.8465
100003.8474
100003.8486
100003.8503
100003.8523
100003.8547
100003.8574
100003.8604
100003.8635
100003.8667
100003.8696
100003.8729
100003.8776
100003.8825
100003.8877
100003.8985
100003.8968
100003.9026
100003.9098
100003.9211
100003.9325
100003.9494
100003.969
100003.9967
100004.0307
100003.8507
100003.8511
100003.852
100003.8534
100003.8551
100003.8573
100003.8598
100003.8626
100003.8656
100003.8687
100003.8717
100003.8748
100003.879
100003.8838
100003.8913
100003.9001
100003.9068
100003.9087
100003.9159
100003.9178
100003.9269
100003.9373
100003.9541
100003.9729
100004.0024
100004.0429
100003.8564
100003.8569
100003.8579
100003.8594
100003.8613
100003.8637
100003.8663
100003.8691
100003.8721
100003.8752
100003.8784
100003.8815
100003.8853
100003.8898
100003.8934
100003.8949
100003.9009
100003.9166
100003.9197
100003.9254
100003.9344
100003.9431
100003.957
100003.9689
100003.989
100004.0093
100003.8634
100003.8639
100003.8651
100003.8669
100003.8691
100003.8718
100003.8747
100003.8779
100003.8811
100003.8843
100003.8877
100003.891
100003.895
100003.8997
100003.9042
100003.9114
100003.9124
100003.9202
100003.9176
100003.9338
100003.9444
100003.952
100003.9634
100003.9651
100003.9773
100003.9775
100003.8715
100003.8722
100003.8737
100003.8758
100003.8784
100003.8816
100003.885
100003.8885
100003.8919
100003.8953
100003.8987
100003.902
100003.906
100003.9107
100003.9154
100003.9229
100003.9237
100003.9416
100003.9445
100003.9554
100003.9649
100003.9685
100003.9788
100003.9696
100003.9813
100003.9742
100003.8808
100003.8817
100003.8835
100003.8861
100003.8895
100003.8934
100003.8976
100003.9018
100003.9058
100003.9093
100003.9126
100003.9156
100003.9191
100003.9232
100003.9289
100003.9359
100003.9458
100003.9579
100003.9681
100003.9806
100003.9959
100003.9982
100004.0072
100003.9808
100003.9947
100003.9669
100003.8911
100003.8923
100003.8946
100003.898
100003.9024
100003.9074
100003.9127
100003.9178
100003.9224
100003.9259
100003.9287
100003.9304
100003.9326
100003.9357
100003.9423
100003.9523
100003.9656
100003.9817
100003.9985
100004.0147
100004.0436
100004.0548
100004.0486
100004.0066
100004.011
100003.9775
100003.9024
100003.9039
100003.9069
100003.9114
100003.9171
100003.9237
100003.9307
100003.9373
100003.9429
100003.9464
100003.9481
100003.9478
100003.9476
100003.9496
100003.9581
100003.9687
100003.9896
100004.0121
100004.0407
100004.0712
100004.1295
100004.1827
100004.1224
100004.0515
100004.0385
100003.9893
100003.9143
100003.9163
100003.9202
100003.926
100003.9335
100003.9423
100003.9518
100003.9608
100003.968
100003.9712
100003.9712
100003.9681
100003.9647
100003.9658
100003.9641
100003.9783
100004.0146
100004.0481
100004.0985
100004.1695
100004.2815
100004.5422
100004.2425
100004.1226
100004.0865
100004.0083
100003.9265
100003.929
100003.934
100003.9414
100003.9512
100003.9629
100003.9758
100003.9882
100003.998
100004.0013
100003.9989
100003.9932
100003.9837
100003.9711
100003.9809
100004.0102
100004.0438
100004.1004
100004.1764
100004.2489
100004.4333
100005.1991
100004.4506
100004.2135
100004.0993
100004.0219
100003.9386
100003.9416
100003.9478
100003.9571
100003.9696
100003.9851
100004.0026
100004.0201
100004.0345
100004.0376
100004.0323
100004.0241
100003.9959
100003.9916
100004.0143
100004.0507
100004.0778
100004.1832
100004.3223
100004.5965
100005.0388
100007.9633
100004.7122
100004.4582
100004.2298
100004.0846
100003.9499
100003.9535
100003.9607
100003.9718
100003.9869
100004.0061
100004.0288
100004.0527
100004.0735
100004.0787
100004.0719
100004.054
100004.0215
100004.0035
100004.0017
100004.0346
100004.086
100004.1663
100004.2235
100004.1623
100004.143
100003.8459
100004.0435
100004.0231
100004.0056
100003.9963
100003.9601
100003.9641
100003.9721
100003.9845
100004.0017
100004.0243
100004.0531
100004.0872
100004.124
100004.1303
100004.1343
100004.1176
100004.0541
100004.0412
100004.0378
100004.0569
100004.0896
100004.1108
100004.2472
100004.1654
100004.2832
100004.394
100004.2173
100003.9859
100004.119
100003.9456
100003.9689
100003.973
100003.9814
100003.9941
100004.0111
100004.0322
100004.0562
100004.0796
100004.0965
100004.1225
100004.1232
100004.097
100004.0453
100004.0389
100004.0277
100004.0443
100004.0891
100004.1468
100004.391
100004.0705
100004.1189
100004.0787
100004.0496
100003.9669
100003.9179
100003.8493
100003.9762
100003.9806
100003.9892
100004.0019
100004.0186
100004.0388
100004.0627
100004.0922
100004.1269
100004.1682
100004.1919
100004.2017
100004.052
100004.0631
100004.0118
100004.0144
100004.013
100004.0109
100004.0219
100003.9955
100004.0055
100004.0332
100004.0439
100003.9909
100004.0138
100003.9409
100003.9823
100003.987
100003.9962
100004.0094
100004.0256
100004.0426
100004.0562
100004.0604
100004.0571
100004.0534
100004.0318
100004.0222
100003.9985
100004
100003.9855
100003.9908
100003.9989
100004.0202
100004.0605
100004.0174
100004.0284
100004.0253
100004.0245
100003.9903
100003.9668
100003.8974
100003.9871
100003.9925
100004.0031
100004.0181
100004.0358
100004.0524
100004.0622
100004.0565
100004.0489
100004.0481
100004.0341
100004.0281
100003.9844
100003.98
100003.9627
100003.9645
100003.9644
100003.9707
100003.9782
100003.9832
100003.9952
100004.0113
100004.0154
100003.9964
100003.9751
100003.9384
100003.9902
100003.9968
100004.0102
100004.0307
100004.0576
100004.0871
100004.1071
100004.0806
100004.043
100004.0229
100003.997
100003.9799
100003.9584
100003.95
100003.9409
100003.9401
100003.9403
100003.9474
100003.9551
100003.9624
100003.9682
100003.9794
100003.9781
100003.966
100003.9468
100003.9176
100003.9902
100003.9977
100004.0127
100004.0342
100004.0602
100004.0893
100004.1214
100004.0485
100004.0151
100003.9924
100003.9704
100003.9534
100003.937
100003.9272
100003.9205
100003.9186
100003.9183
100003.9234
100003.9267
100003.935
100003.9371
100003.9455
100003.9415
100003.9341
100003.9178
100003.8994
100003.9867
100003.996
100004.0178
100004.057
100004.1146
100004.2073
100004.3648
100004.1617
100004.061
100004.0034
100003.9592
100003.9356
100003.9184
100003.9079
100003.9017
100003.8989
100003.8981
100003.9007
100003.9023
100003.9078
100003.9083
100003.9129
100003.9085
100003.9033
100003.891
100003.8783
100003.9754
100003.9806
100003.9907
100004.0036
100004.0161
100004.0266
100004.0316
100003.9853
100003.9597
100003.9381
100003.9228
100003.9091
100003.8977
100003.8894
100003.884
100003.8809
100003.8797
100003.8804
100003.881
100003.8835
100003.8832
100003.8846
100003.8806
100003.8762
100003.8671
100003.8579
100003.9636
100003.9669
100003.9744
100003.9861
100004.0026
100004.0199
100004.0312
100003.9989
100003.9611
100003.9367
100003.9093
100003.8926
100003.8809
100003.873
100003.8677
100003.8645
100003.8628
100003.8623
100003.8621
100003.8625
100003.8618
100003.8611
100003.8577
100003.8537
100003.847
100003.9526
100003.953
100003.9554
100003.9575
100003.9593
100003.9573
100003.9492
100003.928
100003.9083
100003.8917
100003.8793
100003.8702
100003.8619
100003.8561
100003.852
100003.8492
100003.8475
100003.8463
100003.8455
100003.8448
100003.8435
100003.8419
100003.839
100003.8354
100003.8303
100003.944
100003.942
100003.9417
100003.94
100003.9386
100003.9354
100003.9279
100003.9151
100003.8988
100003.8827
100003.8681
100003.8573
100003.8489
100003.8431
100003.839
100003.836
100003.8338
100003.8322
100003.8309
100003.8296
100003.828
100003.8261
100003.8234
100003.8203
100003.8164
100003.9389
100003.934
100003.9316
100003.9254
100003.9201
100003.9115
100003.9006
100003.8853
100003.87
100003.8486
100003.8372
100003.8353
100003.8275
100003.8255
100003.8233
100003.8217
100003.8206
100003.8194
100003.8182
100003.8167
100003.815
100003.813
100003.8106
100003.8079
100003.8047
100003.9351
100003.9271
100003.9249
100003.9167
100003.9129
100003.9096
100003.9015
100003.8897
100003.8719
100003.859
100003.8447
100003.8293
100003.8218
100003.8174
100003.8154
100003.8128
100003.8107
100003.8089
100003.8072
100003.8056
100003.8039
100003.802
100003.7998
100003.7975
100003.7949
100003.7925
100003.9345
100003.9243
100003.922
100003.9102
100003.9032
100003.893
100003.8779
100003.8611
100003.8635
100003.8417
100003.8279
100003.8168
100003.792
100003.7945
100003.7962
100003.7968
100003.7982
100003.7983
100003.7977
100003.7963
100003.7947
100003.7929
100003.7909
100003.7889
100003.7867
100003.7849
100003.8338
100003.8341
100003.8348
100003.8359
100003.8372
100003.8388
100003.8407
100003.8427
100003.8448
100003.8469
100003.8489
100003.8505
100003.8516
100003.8519
100003.8526
100003.8544
100003.8572
100003.8631
100003.8726
100003.8819
100003.8937
100003.905
100003.9179
100003.9324
100003.9478
100003.9633
100003.8348
100003.8352
100003.8359
100003.8369
100003.8382
100003.8399
100003.8417
100003.8437
100003.8457
100003.8476
100003.8492
100003.85
100003.85
100003.848
100003.847
100003.8481
100003.8534
100003.8578
100003.8683
100003.8797
100003.893
100003.9056
100003.9199
100003.9363
100003.9553
100003.9757
100003.8369
100003.8373
100003.838
100003.839
100003.8404
100003.842
100003.8438
100003.8457
100003.8476
100003.8492
100003.8503
100003.8501
100003.8489
100003.8464
100003.8494
100003.8585
100003.8598
100003.8653
100003.8731
100003.88
100003.8938
100003.9073
100003.9234
100003.9432
100003.9693
100004.0021
100003.8401
100003.8404
100003.8411
100003.8422
100003.8436
100003.8453
100003.8471
100003.8489
100003.8507
100003.852
100003.8527
100003.8516
100003.8503
100003.85
100003.8556
100003.8602
100003.8648
100003.8754
100003.8786
100003.8839
100003.8959
100003.9096
100003.9276
100003.9512
100003.9888
100004.0483
100003.8443
100003.8447
100003.8455
100003.8466
100003.8481
100003.8499
100003.8518
100003.8536
100003.8553
100003.8564
100003.8567
100003.8553
100003.8537
100003.8552
100003.8591
100003.8667
100003.8694
100003.8831
100003.8885
100003.8904
100003.8983
100003.911
100003.9283
100003.9512
100003.9973
100004.105
100003.8496
100003.8501
100003.8509
100003.8522
100003.8539
100003.8558
100003.8578
100003.8598