/*--------------------------------*- C++ -*----------------------------------*\
  =========                 |
  \\      /  F ield         | OpenFOAM: The Open Source CFD Toolbox
   \\    /   O peration     | Website:  https://openfoam.org
    \\  /    A nd           | Version:  8
     \\/     M anipulation  |
\*---------------------------------------------------------------------------*/
FoamFile
{
    version     2.0;
    format      ascii;
    class       surfaceScalarField;
    location    "0.3";
    object      phi;
}
// * * * * * * * * * * * * * * * * * * * * * * * * * * * * * * * * * * * * * //

dimensions      [1 0 -1 0 0 0 0];

internalField   nonuniform List<scalar> 
197783
(
-5.093289753e-07
-3.00648557e-07
8.097799987e-07
-1.039717336e-06
-3.054306661e-07
8.356240417e-07
-1.595771487e-06
-3.054041114e-07
8.612682805e-07
-2.192713219e-06
-3.069916889e-07
9.037507224e-07
-2.852747741e-06
-3.107020138e-07
9.705631587e-07
-3.608783324e-06
-3.181210049e-07
1.073994282e-06
-4.508958737e-06
-3.340293486e-07
1.234054965e-06
-5.623821534e-06
-3.704319985e-07
1.485158622e-06
-7.056032642e-06
-4.550352377e-07
1.887124603e-06
-8.948721061e-06
-6.522604505e-07
2.544842043e-06
-1.149473156e-05
-1.095384568e-06
3.641303273e-06
-1.489181748e-05
-2.089146352e-06
5.486155046e-06
-1.915219547e-05
-4.366386709e-06
8.626700896e-06
-2.302857536e-05
-9.242139424e-06
1.311846965e-05
-2.311686399e-05
-1.693710043e-05
1.702535973e-05
-1.591318285e-05
-2.474097575e-05
1.753728863e-05
1.920317723e-06
-3.066431305e-05
1.283082736e-05
1.532927258e-05
-2.776265176e-05
1.435371764e-05
1.464968032e-05
-1.373218722e-05
1.441179593e-05
9.941231932e-06
-6.634003936e-06
1.134246944e-05
5.98696986e-06
-3.030950272e-06
6.985230197e-06
2.53326518e-06
-1.763130299e-06
5.216858461e-06
3.633838679e-07
-1.482227314e-06
3.652132624e-06
-1.62176197e-06
-1.445224178e-06
3.430393181e-06
-2.876921932e-06
-1.856048349e-06
3.111228733e-06
-2.470159178e-06
3.87164011e-06
-5.187264402e-07
-6.045623743e-07
8.224461302e-07
-1.060100697e-06
-6.150381572e-07
8.507903189e-07
-1.627764253e-06
-6.164243346e-07
8.784976125e-07
-2.234809692e-06
-6.217412472e-07
9.216164528e-07
-2.904424459e-06
-6.302417533e-07
9.889856577e-07
-3.674096118e-06
-6.424114671e-07
1.0938047e-06
-4.603048727e-06
-6.632063933e-07
1.257985024e-06
-5.787133101e-06
-7.079789527e-07
1.521500488e-06
-7.382661877e-06
-8.180053867e-07
1.958382528e-06
-9.63691426e-06
-1.108760245e-06
2.710650544e-06
-1.292747335e-05
-1.864462898e-06
4.059550412e-06
-1.766117958e-05
-3.834221144e-06
6.478708095e-06
-2.361719575e-05
-8.449792996e-06
1.003936598e-05
-2.855256388e-05
-1.657364185e-05
1.226683967e-05
-2.816081959e-05
-2.611232832e-05
8.783481996e-06
-2.121127653e-05
-3.416907389e-05
2.478577392e-06
-5.186876084e-06
-4.142869743e-05
-5.259990051e-06
1.151485411e-05
-4.040899839e-05
-4.055348009e-06
1.47889051e-05
-2.460875237e-05
7.60254618e-06
1.105107216e-05
-1.419691282e-05
1.130075926e-05
6.951034359e-06
-7.011638204e-06
8.080737267e-06
2.902283501e-06
-3.611623756e-06
5.897258598e-06
2.848399007e-07
-2.870901166e-06
4.00613274e-06
-2.092418198e-06
-2.814118744e-06
3.746168532e-06
-3.72144457e-06
-3.745187498e-06
3.518180027e-06
-5.165026982e-06
4.534201774e-06
-5.19675942e-07
-9.087929651e-07
8.237197907e-07
-1.0628073e-06
-9.25749631e-07
8.53659076e-07
-1.637781287e-06
-9.293449915e-07
8.877166809e-07
-2.259684138e-06
-9.348452673e-07
9.348372338e-07
-2.955763589e-06
-9.420463411e-07
1.007724878e-06
-3.77284428e-06
-9.503414628e-07
1.124863698e-06
-4.788985673e-06
-9.624405901e-07
1.31524198e-06
-6.139485301e-06
-9.916443921e-07
1.634045574e-06
-8.067291281e-06
-1.079936811e-06
2.189632333e-06
-1.102275294e-05
-1.357626209e-06
3.204236859e-06
-1.581357516e-05
-2.202387125e-06
5.128669551e-06
-2.330634812e-05
-4.534269859e-06
8.192760468e-06
-3.208664711e-05
-9.751544654e-06
1.008201337e-05
-3.738939872e-05
-1.758556316e-05
6.314666018e-06
-3.55968187e-05
-2.592549593e-05
-1.979396696e-06
-2.840703048e-05
-3.379508976e-05
-7.563754428e-06
-9.782060115e-06
-4.000062584e-05
-2.005303175e-05
1.37803996e-05
-3.947946093e-05
-2.449197791e-05
2.110938133e-05
-2.803634135e-05
-3.901368898e-06
1.662158544e-05
-1.744604721e-05
7.73693446e-06
1.02280252e-05
-9.680765603e-06
9.0626858e-06
4.152410725e-06
-5.122556911e-06
7.586545043e-06
3.994195731e-07
-4.104673166e-06
4.986762326e-06
-2.876415495e-06
-4.05052675e-06
4.512245556e-06
-5.418682843e-06
-5.640812175e-06
4.437896451e-06
-8.291826003e-06
6.101938192e-06
-5.220907744e-07
-1.212568922e-06
8.256924412e-07
-1.065954364e-06
-1.237696634e-06
8.556397378e-07
-1.637193124e-06
-1.248968356e-06
8.906979037e-07
-2.244949638e-06
-1.264762204e-06
9.375186685e-07
-2.911908821e-06
-1.281807441e-06
1.006577204e-06
-3.684189069e-06
-1.294091569e-06
1.115900604e-06
-4.648796804e-06
-1.291915252e-06
1.293966924e-06
-5.981628885e-06
-1.257142586e-06
1.598229387e-06
-8.066292592e-06
-1.148285383e-06
2.152925735e-06
-1.181611111e-05
-8.454614331e-07
3.237581016e-06
-1.895327614e-05
-2.932192479e-07
5.227938619e-06
-2.981566279e-05
-8.472305204e-07
7.175308682e-06
-3.932988791e-05
-4.941784202e-06
4.704454472e-06
-4.229127896e-05
-1.233144777e-05
-2.292705725e-06
-3.995699529e-05
-1.995407038e-05
-8.305690363e-06
-3.197993532e-05
-2.586686693e-05
-1.590527473e-05
-1.095296226e-05
-2.878246809e-05
-3.224511214e-05
1.640908898e-05
-2.919818367e-05
-3.764331422e-05
2.869031076e-05
-2.322998753e-05
-1.708758844e-05
2.531032425e-05
-1.399095619e-05
-7.517372529e-08
1.649718667e-05
-6.837477037e-06
5.969824761e-06
6.387798389e-06
-2.862817263e-06
7.849624634e-06
-8.950166886e-08
-3.231688242e-06
5.604292618e-06
-4.859206141e-06
-4.585195622e-06
5.304358869e-06
-8.914268942e-06
-7.398691423e-06
5.812934749e-06
-1.19762879e-05
8.822101118e-06
-5.292449282e-07
-1.511917612e-06
8.284383037e-07
-1.081129501e-06
-1.544391144e-06
8.584278491e-07
-1.665190522e-06
-1.559173184e-06
8.941224524e-07
-2.296312348e-06
-1.577269639e-06
9.434969055e-07
-3.004381001e-06
-1.593250338e-06
1.01939267e-06
-3.84779994e-06
-1.595190601e-06
1.144414087e-06
-4.937132543e-06
-1.558514409e-06
1.355843425e-06
-6.493526383e-06
-1.431425602e-06
1.730603699e-06
-8.98238052e-06
-1.100589683e-06
2.441099292e-06
-1.333470662e-05
-3.112217249e-07
3.818039656e-06
-2.07357972e-05
1.271715613e-06
5.836122937e-06
-2.999977044e-05
2.553620022e-06
5.863114124e-06
-3.574328434e-05
1.09662401e-06
-2.948694624e-07
-3.669499759e-05
-2.874179672e-06
-8.505503796e-06
-3.568473747e-05
-5.868353629e-06
-1.509596194e-05
-3.004332499e-05
-6.437961014e-06
-2.507032115e-05
-1.254407409e-05
-7.560040636e-06
-3.872166845e-05
1.298422519e-05
-1.305800947e-05
-4.166847718e-05
2.843129699e-05
-1.316873959e-05
-2.55083515e-05
2.694184566e-05
-6.762250058e-06
-5.739298899e-06
1.969422103e-05
-1.207746203e-06
1.61785966e-06
8.763674245e-06
2.120650789e-07
7.855619924e-06
1.777207167e-07
-1.928814183e-06
7.28303108e-06
-7.11242259e-06
-4.294611209e-06
6.999525187e-06
-1.462340765e-05
-8.198422139e-06
8.310696404e-06
-1.451934346e-05
1.222116156e-05
-5.383537756e-07
-1.804819068e-06
8.311270209e-07
-1.095654676e-06
-1.847722501e-06
8.605090039e-07
-1.673195746e-06
-1.876318119e-06
8.945722273e-07
-2.272316437e-06
-1.917459864e-06
9.392103517e-07
-2.900564485e-06
-1.967935226e-06
1.002848244e-06
-3.5747388e-06
-2.020144105e-06
1.099060368e-06
-4.318562857e-06
-2.059449836e-06
1.244709293e-06
-5.161846256e-06
-2.055590234e-06
1.467413849e-06
-6.131464337e-06
-1.945711208e-06
1.81471917e-06
-7.189849876e-06
-1.614884684e-06
2.362038966e-06
-8.171802129e-06
-9.748079259e-07
3.228474703e-06
-9.677237094e-06
-2.372503487e-07
4.296313899e-06
-1.25730535e-05
-1.30125024e-07
4.122600615e-06
-1.781952121e-05
-4.406207528e-08
2.416512241e-06
-2.337444454e-05
3.058755252e-06
-3.37214714e-06
-2.406157956e-05
8.803449809e-06
-1.45542735e-05
-1.487473801e-05
1.378333992e-05
-3.053023206e-05
4.311960558e-06
4.859646722e-06
-3.710438857e-05
1.342173101e-05
-3.724495756e-06
-1.855406557e-05
6.108463152e-06
-2.50079027e-06
3.05173633e-06
8.926631742e-07
-7.960800975e-07
4.804048557e-06
-3.063676654e-06
-1.913401983e-06
6.08171992e-06
-6.819208753e-06
-3.457346485e-06
5.283985022e-06
-1.406416611e-05
-4.327679899e-06
7.277964909e-06
-2.525628657e-05
-7.069039142e-06
1.006270648e-05
-1.243709972e-05
1.139528756e-05
-5.556739321e-07
-2.082988125e-06
8.337514931e-07
-1.130700509e-06
-2.135799964e-06
8.630186441e-07
-1.728751715e-06
-2.175643239e-06
8.973025441e-07
-2.356669044e-06
-2.232959786e-06
9.433595301e-07
-3.028224994e-06
-2.308090155e-06
1.011672174e-06
-3.763636979e-06
-2.403378345e-06
1.118627707e-06
-4.588621284e-06
-2.518480755e-06
1.284016169e-06
-5.528233652e-06
-2.65493137e-06
1.538971379e-06
-6.590980435e-06
-2.815376268e-06
1.932442572e-06
-7.733354533e-06
-3.008542649e-06
2.53607029e-06
-8.871987332e-06
-3.286146317e-06
3.450010104e-06
-1.015294256e-05
-3.770768613e-06
4.814502436e-06
-1.215014151e-05
-4.829600585e-06
6.696666594e-06
-1.5273603e-05
-5.996876435e-06
9.07612984e-06
-1.739154031e-05
-4.214274198e-06
9.390938338e-06
-1.514373989e-05
5.726710889e-07
5.982966571e-06
-1.0176674e-05
1.647262224e-05
-7.656374374e-06
6.112498252e-07
1.133031013e-05
-1.725863964e-05
3.976497656e-06
-2.793583963e-06
-4.296246309e-06
5.091909255e-07
-7.482405136e-06
8.448802026e-06
-9.423973075e-07
-5.122454138e-06
5.777825504e-06
-3.666027568e-06
-5.492254172e-06
6.302340294e-06
-8.094404693e-06
-4.984586687e-06
5.955482514e-06
-1.800364075e-05
-3.081683307e-06
8.663126334e-06
-3.271588438e-05
-2.74880241e-06
1.039193412e-05
-3.164229465e-06
5.782733501e-06
-5.791864492e-07
-2.33911134e-06
8.352654985e-07
-1.176896084e-06
-2.40239795e-06
8.642709919e-07
-1.79437091e-06
-2.456414715e-06
8.982239795e-07
-2.431572523e-06
-2.539519053e-06
9.437582038e-07
-3.092784705e-06
-2.656702185e-06
1.009844519e-06
-3.791375358e-06
-2.815479932e-06
1.110736439e-06
-4.543515401e-06
-3.029585863e-06
1.263311567e-06
-5.365687366e-06
-3.325133837e-06
1.492458944e-06
-6.269318514e-06
-3.746526273e-06
1.834877593e-06
-7.253197191e-06
-4.366721762e-06
2.342158433e-06
-8.291564551e-06
-5.322083274e-06
3.074400099e-06
-9.485615909e-06
-6.76002643e-06
4.183389049e-06
-1.090538166e-05
-8.997556029e-06
5.587770057e-06
-1.280285615e-05
-1.220538508e-05
8.105984936e-06
-1.130651238e-05
-1.584308768e-05
1.013246566e-05
-6.030598367e-06
-1.935749924e-05
1.465423696e-05
-1.856960349e-06
5.009813368e-06
7.289124575e-06
2.080219286e-06
9.356042708e-07
6.457438484e-06
5.750050562e-07
-7.970034684e-06
6.681529109e-06
-1.858778342e-07
-1.549952608e-05
8.777823834e-06
-1.068405955e-06
-9.355741155e-06
5.115607068e-06
-3.293789946e-06
-9.161331839e-06
5.894239207e-06
-5.272214041e-06
-8.443031416e-06
5.436652825e-06
-1.091381732e-05
-4.916643852e-06
7.476368418e-06
-1.946351594e-05
-4.196645183e-06
9.997378062e-06
3.237098093e-06
8.898424269e-06
-6.112712646e-07
-2.562730386e-06
8.349042796e-07
-1.242716501e-06
-2.634783252e-06
8.638537738e-07
-1.898165547e-06
-2.699346558e-06
8.984216777e-07
-2.583938207e-06
-2.800008013e-06
9.463264038e-07
-3.315041051e-06
-2.944999069e-06
1.019492319e-06
-4.118759845e-06
-3.148645658e-06
1.137005523e-06
-5.032974476e-06
-3.438623478e-06
1.323398815e-06
-6.100504062e-06
-3.874122824e-06
1.616684606e-06
-7.369961012e-06
-4.552434467e-06
2.075541926e-06
-8.890325493e-06
-5.639436307e-06
2.793256146e-06
-1.067405447e-05
-7.433238226e-06
3.895050095e-06
-1.274677938e-05
-1.031952821e-05
5.632370181e-06
-1.457413521e-05
-1.518260041e-05
8.01251024e-06
-1.533762641e-05
-2.251592814e-05
1.107410609e-05
-1.031399025e-05
-3.22821323e-05
1.141544696e-05
-2.393822214e-06
-3.927281095e-05
1.199515313e-05
3.405876033e-07
-9.467933695e-06
1.17432692e-05
8.95747928e-07
-1.294358028e-05
1.332389343e-05
2.616299378e-07
-1.543741453e-05
8.101303497e-06
2.056773542e-06
-2.886620659e-05
1.157127659e-05
1.364130465e-06
-1.508866434e-05
6.425258007e-06
-9.267830506e-07
-1.38334846e-05
6.962723853e-06
-1.873419061e-06
-1.359990007e-05
6.103182432e-06
-3.62432676e-06
-1.030867396e-05
7.142631449e-06
-2.718640054e-06
-1.496017692e-05
9.857579262e-06
-2.201538981e-06
1.059779817e-05
-6.494337118e-07
-2.74463078e-06
8.314160673e-07
-1.321097521e-06
-2.823109873e-06
8.600836214e-07
-2.02118583e-06
-2.894082722e-06
8.949389231e-07
-2.760085611e-06
-3.006074089e-06
9.451092869e-07
-3.55971128e-06
-3.17090401e-06
1.02570741e-06
-4.45899001e-06
-3.41112842e-06
1.161971909e-06
-5.518684267e-06
-3.769652989e-06
1.39096353e-06
-6.827534666e-06
-4.340264038e-06
1.775252182e-06
-8.50584961e-06
-5.290524396e-06
2.416674415e-06
-1.073242855e-05
-6.914982274e-06
3.502389731e-06
-1.362843399e-05
-9.776585359e-06
5.239598457e-06
-1.739004178e-05
-1.471995607e-05
8.162249341e-06
-2.054565085e-05
-2.302306308e-05
1.099624581e-05
-2.083835863e-05
-3.434343212e-05
1.21203478e-05
-1.335956312e-05
-4.599094557e-05
6.230109362e-06
-3.164855696e-06
-5.018250236e-05
7.150232038e-07
3.720419126e-07
-2.400636253e-05
1.100144258e-05
-3.652762086e-06
-2.569951782e-05
1.678057481e-05
-2.114931224e-06
-2.786411104e-05
1.088859095e-05
3.788475358e-06
-4.926873369e-05
1.449875293e-05
3.205924618e-06
-2.325178842e-05
8.745222129e-06
1.887901584e-07
-2.001521693e-05
9.198341578e-06
-8.689018908e-07
-2.04978786e-05
7.955212304e-06
-1.250924939e-06
-1.861528517e-05
8.688187314e-06
3.944499444e-06
-3.321998104e-05
1.306400162e-05
-9.909250641e-06
1.022241561e-05
-6.915836877e-07
-2.876635931e-06
8.237463678e-07
-1.408456203e-06
-2.957658303e-06
8.515917653e-07
-2.160838338e-06
-3.027228761e-06
8.857241558e-07
-2.966471124e-06
-3.137195907e-06
9.36984867e-07
-3.861849273e-06
-3.299611954e-06
1.024355681e-06
-4.916599342e-06
-3.53751618e-06
1.181446611e-06
-6.248742655e-06
-3.900502765e-06
1.463335124e-06
-8.058230788e-06
-4.499794762e-06
1.969382656e-06
-1.06395602e-05
-5.586718231e-06
2.87789314e-06
-1.446590403e-05
-7.649965984e-06
4.56168586e-06
-1.991526207e-05
-1.170956742e-05
7.382669568e-06
-2.671956859e-05
-1.890672611e-05
1.099136648e-05
-3.133413174e-05
-2.959969419e-05
1.119144581e-05
-2.968550344e-05
-4.157350672e-05
5.581653693e-06
-1.997935814e-05
-5.179985669e-05
-3.897088465e-06
-6.616521172e-06
-5.370028654e-05
-9.84501056e-06
9.471102773e-07
-3.874832089e-05
7.178224502e-06
-6.411319469e-06
-3.904615298e-05
2.070484306e-05
-3.325673679e-06
-4.629962895e-05
1.534948859e-05
6.154690838e-06
-6.770027086e-05
8.950677583e-06
5.678484439e-06
-3.436144837e-05
1.158519772e-05
1.129975083e-06
-2.902753613e-05
1.355999081e-05
-1.275112635e-06
-2.980978005e-05
1.171637777e-05
5.418404515e-07
-3.324388261e-05
1.281103893e-05
1.165630207e-05
-5.796887054e-05
1.363392954e-05
-2.016001801e-05
1.177318587e-05
-7.331838807e-07
-2.954453179e-06
8.112382363e-07
-1.495477634e-06
-3.032517077e-06
8.374048236e-07
-2.30379133e-06
-3.088006831e-06
8.693728511e-07
-3.191246398e-06
-3.170248308e-06
9.208278077e-07
-4.221039404e-06
-3.288370145e-06
1.018916539e-06
-5.501674001e-06
-3.473026043e-06
1.216554336e-06
-7.22384894e-06
-3.782208229e-06
1.604327085e-06
-9.719474718e-06
-4.360553226e-06
2.35685279e-06
-1.354473801e-05
-5.530497916e-06
3.769513067e-06
-1.985588693e-05
-7.847321676e-06
6.508954579e-06
-2.922938421e-05
-1.229507776e-05
9.959421081e-06
-3.964512207e-05
-1.970224041e-05
1.121162627e-05
-4.414901086e-05
-2.935276137e-05
4.257286034e-06
-4.052941336e-05
-4.020271752e-05
-4.990126521e-06
-2.759430513e-05
-4.896488086e-05
-1.576993262e-05
-6.142394516e-06
-5.117923652e-05
-2.397294003e-05
4.48370796e-06
-4.832811901e-05
-1.04643366e-06
-8.756457684e-06
-4.718283743e-05
2.137655161e-05
-7.269414079e-06
-6.096630946e-05
1.317916336e-05
5.66541276e-06
-7.371418218e-05
-6.921565664e-06
6.77263658e-06
-4.328771017e-05
7.818063357e-06
2.460028673e-08
-3.991949711e-05
1.763849981e-05
-5.289245501e-06
-4.178618595e-05
1.728960054e-05
-1.150348477e-06
-5.308307882e-05
1.569952048e-05
1.686023249e-05
-7.351400301e-05
-2.466030089e-06
-3.399175503e-05
1.123127787e-05
-7.662591663e-07
-2.981607285e-06
7.937294715e-07
-1.561140547e-06
-3.053334856e-06
8.16031917e-07
-2.399588075e-06
-3.089494943e-06
8.40299826e-07
-3.307751627e-06
-3.141366693e-06
8.79689073e-07
-4.347287111e-06
-3.207518563e-06
9.591403213e-07
-5.661954733e-06
-3.286876239e-06
1.12902278e-06
-7.555233619e-06
-3.380911272e-06
1.492525983e-06
-1.071727152e-05
-3.478448597e-06
2.280497586e-06
-1.664981425e-05
-3.511314772e-06
3.913918288e-06
-2.755102904e-05
-3.722458337e-06
6.776881106e-06
-4.195444162e-05
-6.162996455e-06
8.271820826e-06
-5.292283083e-05
-1.217766291e-05
3.444259948e-06
-5.626079609e-05
-2.031710243e-05
-5.69730665e-06
-5.093766608e-05
-2.891741605e-05
-1.660816179e-05
-3.339035179e-05
-3.384223246e-05
-3.266979041e-05
-5.765773237e-06
-3.76382044e-05
-4.116557556e-05
2.35494311e-06
-4.346629306e-05
-1.298271439e-05
-1.845220141e-05
-4.454634502e-05
1.817029496e-05
-1.712149749e-05
-6.188604657e-05
-4.11397554e-07
4.378241074e-06
-6.796034115e-05
-2.725441206e-05
9.441787176e-06
-4.491508556e-05
-3.437169362e-06
-3.294112332e-06
-4.734090042e-05
2.015557789e-05
-1.460102862e-05
-5.144467309e-05
2.096437614e-05
-8.163749338e-06
-6.38391317e-05
4.31779692e-06
1.921550978e-05
-7.436729557e-05
-2.652654578e-05
-4.459161314e-05
-1.246608335e-06
-7.897865577e-07
-2.964997066e-06
7.73566435e-07
-1.612568578e-06
-3.021537738e-06
7.913919448e-07
-2.497096346e-06
-3.012483981e-06
8.079560474e-07
-3.499828715e-06
-2.978836029e-06
8.406850281e-07
-4.737921074e-06
-2.897342765e-06
9.284505986e-07
-6.462592306e-06
-2.716836771e-06
1.155215755e-06
-9.212637789e-06
-2.328624887e-06
1.69838242e-06
-1.415843845e-05
-1.510412747e-06
2.978404695e-06
-2.312913131e-05
9.924141068e-08
5.36075929e-06
-3.671170633e-05
2.348338845e-06
7.512367452e-06
-4.954818811e-05
3.004083486e-06
3.669949526e-06
-5.709048184e-05
1.068857777e-06
-5.703735382e-06
-5.993442477e-05
-1.057072902e-06
-1.641570757e-05
-5.544561544e-05
-1.197972778e-06
-3.220799654e-05
-3.975863781e-05
-2.198025575e-06
-4.73310178e-05
-1.776373563e-05
-8.495285216e-06
-5.113779815e-05
-1.817741915e-05
-1.732434309e-05
-2.572845478e-05
-4.080812089e-05
-2.757562882e-05
5.659583552e-06
-3.415040825e-05
-4.459179518e-05
-2.395263849e-05
2.292984498e-06
-4.495889903e-05
-5.944617096e-05
1.210267015e-05
-3.253162674e-05
-2.219447075e-05
-5.39719837e-06
-2.071814045e-05
-9.127270045e-06
-2.301195127e-05
-3.073421841e-05
-3.09701224e-06
-1.832698968e-05
-5.114254467e-05
-1.738265487e-05
1.918981328e-05
-6.612266914e-05
-4.576210648e-05
-4.826591604e-05
-2.227118224e-05
-7.861344699e-07
-2.930906285e-06
7.524985499e-07
-1.591369776e-06
-2.977758e-06
7.619264363e-07
-2.417579659e-06
-2.944824969e-06
7.590520868e-07
-3.267611368e-06
-2.879037546e-06
7.507758844e-07
-4.162031795e-06
-2.752641477e-06
7.503094083e-07
-5.152251e-06
-2.514526518e-06
7.885462453e-07
-6.337458454e-06
-2.066918175e-06
9.241751737e-07
-7.908474867e-06
-1.222902268e-06
1.284193959e-06
-1.020820835e-05
3.0239275e-07
2.097243583e-06
-1.40211685e-05
2.456953175e-06
3.704944502e-06
-2.101979327e-05
5.049425922e-06
4.953803468e-06
-3.135161321e-05
7.986922043e-06
3.414198243e-06
-4.309405415e-05
1.330065457e-05
-2.614930507e-06
-5.079355257e-05
2.205960881e-05
-1.555784635e-05
-4.827887988e-05
3.016713366e-05
-3.487971741e-05
-4.29945172e-05
2.879152506e-05
-4.257118018e-05
-4.93205227e-05
2.055018467e-05
-3.15486614e-05
-5.95319383e-05
5.651827941e-06
-2.301637508e-05
-4.004762908e-05
-4.315554708e-06
-5.976109654e-05
6.502497378e-06
-8.394662137e-06
-8.311502684e-05
2.287033071e-05
-9.517864482e-06
-3.938249048e-05
-2.28388318e-05
9.613670427e-06
1.537621083e-05
-5.284490619e-05
-1.284559592e-06
5.555450141e-07
-4.346720962e-05
-2.671111328e-05
-3.380970031e-05
2.00754241e-05
-3.4867583e-05
-9.479807469e-05
-4.01698176e-05
-5.398221373e-05
-7.683830661e-07
-2.899607329e-06
7.375922792e-07
-1.550634993e-06
-2.935319548e-06
7.40335269e-07
-2.349805163e-06
-2.868693628e-06
7.235862047e-07
-3.176168676e-06
-2.746942017e-06
6.948497553e-07
-4.04888833e-06
-2.548035152e-06
6.687337295e-07
-4.998968565e-06
-2.240111199e-06
6.76322276e-07
-6.061285697e-06
-1.774317578e-06
7.704010605e-07
-7.272614027e-06
-1.075007022e-06
1.064119387e-06
-8.603219643e-06
-4.670977795e-08
1.680337254e-06
-1.070255105e-05
1.489418293e-06
3.067420298e-06
-1.43966434e-05
3.600600759e-06
5.143379939e-06
-2.089019084e-05
6.55359194e-06
7.927257709e-06
-2.85321293e-05
1.260403844e-05
8.338850173e-06
-3.367206016e-05
2.302860013e-05
4.171137972e-06
-3.654612055e-05
3.556170087e-05
-2.520435893e-06
-4.12332947e-05
4.057464466e-05
-7.096045677e-06
-4.977306269e-05
3.470864889e-05
-5.61894067e-06
-5.554410408e-05
3.327045271e-05
-2.184800919e-05
-3.933268971e-05
3.976002279e-05
-6.028764425e-05
-5.58286056e-06
3.882405336e-05
-8.096929871e-05
-1.205468503e-05
2.944106616e-05
-3.248809334e-05
-5.907397181e-05
4.148763982e-05
1.514406227e-05
-7.230554303e-05
3.127433595e-05
-1.932818594e-05
-5.329007485e-05
2.777483522e-05
-7.350209964e-05
9.023032474e-06
2.368196399e-05
-0.0001208631091
-5.417166144e-06
-9.910455289e-05
-7.312561687e-07
-2.901046237e-06
7.332447939e-07
-1.465725789e-06
-2.93038844e-06
7.300984231e-07
-2.192868141e-06
-2.840290534e-06
6.993177923e-07
-2.899944859e-06
-2.685538975e-06
6.462760438e-07
-3.575785063e-06
-2.446333557e-06
5.74765529e-07
-4.224535841e-06
-2.085133856e-06
4.944203805e-07
-4.86707286e-06
-1.556205975e-06
4.250820223e-07
-5.54904799e-06
-8.102136121e-07
4.17828849e-07
-6.419214322e-06
2.30993701e-07
5.930625946e-07
-7.547485961e-06
1.52248223e-06
1.095718403e-06
-9.659386487e-06
3.324594522e-06
2.38831521e-06
-1.326340452e-05
5.812912265e-06
4.345015793e-06
-1.846669982e-05
1.0507101e-05
7.300447982e-06
-2.210473377e-05
1.829213728e-05
8.374615129e-06
-2.191369694e-05
2.962897727e-05
5.741698955e-06
-2.137755862e-05
3.558576898e-05
4.452604543e-06
-2.499129769e-05
2.691139355e-05
1.141072161e-05
-3.158204413e-05
3.125328039e-05
8.607518096e-06
-2.413580039e-05
4.41045164e-05
-1.17913486e-05
-8.028459933e-06
5.373338415e-05
-3.101737458e-05
-9.068302708e-06
3.245610931e-05
-1.976134334e-06
-3.071435483e-05
3.945526009e-05
2.367738414e-05
-4.220026169e-05
4.032471931e-05
2.434519618e-06
-4.55960016e-05
5.121092359e-05
-2.004122548e-05
-1.958630612e-05
6.647471856e-05
-6.880324293e-05
3.473780021e-05
-9.072202814e-05
-6.796726878e-07
-2.965079012e-06
7.442861325e-07
-1.353083214e-06
-2.993596425e-06
7.372057224e-07
-2.002015522e-06
-2.888279569e-06
6.975197034e-07
-2.608358291e-06
-2.71048131e-06
6.318956393e-07
-3.162119546e-06
-2.437821119e-06
5.458675963e-07
-3.665776107e-06
-2.033177802e-06
4.523180117e-07
-4.129739657e-06
-1.456076041e-06
3.644352254e-07
-4.56289562e-06
-6.706871038e-07
2.941956315e-07
-4.951497861e-06
3.657893201e-07
2.54307293e-07
-5.475695045e-06
1.726819794e-06
3.202766566e-07
-6.358626434e-06
3.457013291e-06
7.508338316e-07
-7.571157757e-06
5.605342492e-06
1.420329885e-06
-1.038098897e-05
8.527376481e-06
4.789678591e-06
-1.257651482e-05
1.313052674e-05
7.357153198e-06
-1.138432407e-05
2.042584549e-05
8.010862108e-06
-9.610269009e-06
2.596860866e-05
7.842906433e-06
-1.167213246e-05
1.940691952e-05
9.565994088e-06
-1.710777229e-05
2.348210506e-05
1.320633412e-05
-1.145085766e-05
3.262738588e-05
5.819568789e-06
-2.034022355e-06
4.582453326e-05
-1.508744836e-06
-2.914879007e-06
2.334082848e-05
9.995131913e-06
-1.226899623e-05
2.901715297e-05
1.979110109e-05
-1.928642213e-05
2.981235473e-05
1.752863489e-05
-1.773699232e-05
4.211327494e-05
7.547150423e-06
-2.794913077e-06
6.40410382e-05
-1.25093421e-05
3.591286936e-05
-1.753418238e-05
-6.189807151e-07
-3.121287842e-06
7.75791909e-07
-1.222819591e-06
-3.154710565e-06
7.65559137e-07
-1.784126247e-06
-3.04475394e-06
7.183926281e-07
-2.272182356e-06
-2.863892036e-06
6.420817803e-07
-2.656933115e-06
-2.596512284e-06
5.440525213e-07
-2.925099482e-06
-2.205256973e-06
4.408381181e-07
-3.085741035e-06
-1.64808916e-06
3.532123586e-07
-3.175928059e-06
-8.948620344e-07
3.148694209e-07
-3.320743724e-06
1.32397623e-07
3.786441007e-07
-3.44732978e-06
1.325074973e-06
5.286720703e-07
-3.821900989e-06
2.880647775e-06
9.511767261e-07
-4.397831795e-06
4.593555816e-06
1.587854524e-06
-5.540491402e-06
6.748216034e-06
2.921850088e-06
-6.477477531e-06
9.476092829e-06
4.591349231e-06
-5.240516207e-06
1.319937938e-05
5.989335425e-06
-3.625465635e-06
1.695469713e-05
7.39858212e-06
-4.96378023e-06
1.406784139e-05
6.67697871e-06
-8.167108361e-06
1.72908121e-05
9.39406257e-06
-4.546744108e-06
2.135941359e-05
7.646866725e-06
1.656883573e-06
3.178471896e-05
7.835310963e-06
2.362689769e-07
1.765582229e-05
7.104529313e-06
-3.773116054e-06
2.124408818e-05
1.178123566e-05
-7.787068613e-06
2.185803786e-05
1.196700687e-05
-6.339491414e-06
2.85430573e-05
1.212142226e-05
6.808624311e-06
4.579195779e-05
5.099923293e-06
2.36788434e-05
4.934628245e-06
-5.539263223e-07
-3.403486618e-06
8.367397192e-07
-1.086840914e-06
-3.444732167e-06
8.235534398e-07
-1.562804174e-06
-3.336305467e-06
7.681353844e-07
-1.941414808e-06
-3.165075076e-06
6.804143854e-07
-2.175356302e-06
-2.933339355e-06
5.713793287e-07
-2.24194462e-06
-2.607785735e-06
4.696987437e-07
-2.15740609e-06
-2.144963279e-06
4.128623592e-07
-1.961963181e-06
-1.529123055e-06
4.39268801e-07
-1.824514557e-06
-5.680963532e-07
5.634003895e-07
-1.616384988e-06
4.155234056e-07
7.016662733e-07
-1.68053735e-06
2.012343733e-06
9.325941521e-07
-1.853230797e-06
3.508207692e-06
1.258073699e-06
-2.360965558e-06
5.196258171e-06
2.059632674e-06
-2.877533133e-06
7.049961485e-06
2.942546961e-06
-2.441657688e-06
9.116264315e-06
3.64699833e-06
-1.716342506e-06
1.146871832e-05
4.760321987e-06
-2.481347101e-06
1.088190876e-05
3.950474992e-06
-3.684161963e-06
1.304942414e-05
5.443603437e-06
-1.957291528e-06
1.445592395e-05
5.17585174e-06
1.96489309e-06
2.027762332e-05
7.583979388e-06
9.939900893e-07
1.378102828e-05
4.844584691e-06
-3.356120674e-07
1.60409804e-05
6.531472655e-06
-1.846430366e-06
1.596969303e-05
7.397873665e-06
-2.016068188e-07
1.870698288e-05
8.190001099e-06
8.199568039e-06
2.657143416e-05
1.08182273e-05
1.649690211e-05
5.93464896e-06
-4.86095895e-07
-3.859113009e-06
9.423371059e-07
-9.519493012e-07
-3.904457543e-06
9.261967656e-07
-1.354726043e-06
-3.793112571e-06
8.602067724e-07
-1.649058438e-06
-3.62551494e-06
7.553984309e-07
-1.766029938e-06
-3.432696554e-06
6.169486342e-07
-1.666001921e-06
-3.178186432e-06
4.709623744e-07
-1.351199805e-06
-2.843761325e-06
3.845164264e-07
-8.695066983e-07
-2.445738629e-06
4.353453972e-07
-4.90509338e-07
-1.71524056e-06
7.684651297e-07
-2.203049223e-08
-1.074890912e-06
1.022128725e-06
7.856206871e-08
7.61830212e-07
1.150019091e-06
-2.836523388e-08
2.247410587e-06
1.36769726e-06
-2.940190593e-07
3.785898966e-06
1.675896584e-06
-6.153237694e-07
5.25535928e-06
2.11570195e-06
-5.778297329e-07
6.656700705e-06
2.421783037e-06
-3.45010541e-07
8.209966358e-06
3.025555955e-06
-6.266259066e-07
8.433822527e-06
2.729218092e-06
-1.121887589e-06
1.001754752e-05
3.526532009e-06
-4.622429106e-07
1.054338846e-05
3.252136198e-06
1.451052858e-06
1.354176653e-05
4.821656592e-06
1.169391116e-06
1.092151037e-05
3.140124051e-06
9.042520468e-07
1.23818929e-05
3.923062515e-06
5.511243279e-07
1.217700668e-05
4.144607788e-06
1.503629468e-06
1.333707673e-05
4.416234744e-06
5.537821306e-06
1.596407469e-05
6.572107331e-06
1.233208562e-05
3.82264464e-06
-4.134810758e-07
-4.563495106e-06
1.118461675e-06
-8.186652029e-07
-4.602464589e-06
1.103794001e-06
-1.164558258e-06
-4.483662089e-06
1.037053447e-06
-1.409696444e-06
-4.319955326e-06
9.401990066e-07
-1.455430476e-06
-4.217066192e-06
8.307284052e-07
-1.246620635e-06
-4.157667411e-06
7.712756634e-07
-7.356800932e-07
-4.176988336e-06
8.228196244e-07
-9.324751181e-08
-4.254654178e-06
1.166894332e-06
6.866384925e-07
-4.099355459e-06
1.604540202e-06
1.674520307e-06
-4.06686259e-06
2.004277185e-06
1.856067768e-06
-1.186696143e-06
1.767044717e-06
1.691707057e-06
6.234556361e-07
1.78826529e-06
1.391931687e-06
2.306857131e-06
1.778671842e-06
1.034119473e-06
3.706601362e-06
1.906342275e-06
8.272971929e-07
4.902349025e-06
1.960870012e-06
7.204594258e-07
6.125193695e-06
2.191226867e-06
4.784751345e-07
6.637610782e-06
2.037722636e-06
3.101955033e-07
7.830138232e-06
2.355111655e-06
5.14642533e-07
8.148349367e-06
2.189896158e-06
1.464780123e-06
9.819905334e-06
2.770904197e-06
1.408215e-06
8.817967117e-06
2.159172584e-06
1.548166877e-06
9.804784813e-06
2.436137584e-06
1.630056738e-06
9.551874919e-06
2.542193226e-06
2.12618563e-06
1.02184477e-05
2.621485195e-06
3.857594353e-06
1.072792356e-05
3.503810436e-06
9.70098958e-06
2.500807647e-06
-3.130381952e-07
-5.652733597e-06
1.402838172e-06
-6.516085398e-07
-5.656968381e-06
1.393639736e-06
-9.646879782e-07
-5.493637507e-06
1.323627289e-06
-1.247827949e-06
-5.235059702e-06
1.198821451e-06
-1.37923273e-06
-5.070497631e-06
9.854005367e-07
-1.259499303e-06
-4.993131237e-06
7.162261464e-07
-6.550918733e-07
-5.327329363e-06
5.462678518e-07
1.618679796e-07
-6.264376555e-06
1.193111817e-06
1.639891849e-06
-8.107592209e-06
2.53048839e-06
3.738482808e-06
-9.597751263e-06
3.432464169e-06
4.076914171e-06
-4.30870701e-06
2.783626466e-06
3.617783252e-06
-1.394650227e-06
2.477174817e-06
3.054942755e-06
7.73722838e-07
2.095822081e-06
2.475405937e-06
2.363878009e-06
1.922030722e-06
1.999237566e-06
3.578091271e-06
1.800128068e-06
1.706181904e-06
4.618719814e-06
1.799163409e-06
1.379980306e-06
5.27612152e-06
1.687251499e-06
1.259528942e-06
6.150418817e-06
1.799649319e-06
1.217321551e-06
6.521191142e-06
1.668754015e-06
1.638337312e-06
7.49500031e-06
1.903185326e-06
1.621595637e-06
7.220181346e-06
1.613740293e-06
1.839429294e-06
7.855966868e-06
1.730138799e-06
1.961001995e-06
7.69995183e-06
1.729485532e-06
2.280833232e-06
8.137908681e-06
1.759868031e-06
2.964418861e-06
8.011218548e-06
2.032339491e-06
7.849435558e-06
1.731046286e-06
-1.92409915e-07
-7.331845731e-06
1.872026625e-06
-4.672641239e-07
-7.280993562e-06
1.899389425e-06
-7.426051906e-07
-7.139221617e-06
1.921445712e-06
-1.057493075e-06