/*--------------------------------*- C++ -*----------------------------------*\
  =========                 |
  \\      /  F ield         | OpenFOAM: The Open Source CFD Toolbox
   \\    /   O peration     | Website:  https://openfoam.org
    \\  /    A nd           | Version:  8
     \\/     M anipulation  |
\*---------------------------------------------------------------------------*/
FoamFile
{
    version     2.0;
    format      ascii;
    class       volScalarField;
    location    "0.3/wallFilmRegion";
    object      alpha;
}
// * * * * * * * * * * * * * * * * * * * * * * * * * * * * * * * * * * * * * //

dimensions      [0 0 0 0 0 0 0];

internalField   nonuniform List<scalar> 
1369
(
0.4500055582
0.01946891255
0.0314025648
0.0480006697
0.07599030922
0.07629499812
0.05954268161
0.4839343777
0.03411293914
0.05574638294
0.06765851344
0.06656489247
0.05267577708
0.04144232417
0.03647350824
0.03623458284
0.04118091094
0.05391272007
0.4643247196
0.0398659889
0.0553317363
0.05250004227
0.04196113711
0.03199921482
0.02683889132
0.02548090401
0.02728579325
0.03556905155
0.05533540695
0.08199809511
0.09430986719
0.3368787172
0.02220124099
0.02829106431
0.02392230893
0.01817053806
0.01460275438
0.01387221738
0.01500882243
0.01743737242
0.03154323112
0.0651435207
0.09611404793
0.1020226752
0.08034871481
0.0468166675
0.0007005953087
0.002800244862
0.1308052578
0.001669698666
0.00129711429
0.0003226342857
6.329385596e-05
0.0003779365194
0.002173672225
0.008651567285
0.01062131013
0.04645867421
0.1021153819
0.121835398
0.1149401485
0.1004268142
0.07480175122
0.0002209040244
0.0003078389844
4.020728643e-05
1.247700556e-07
0.02523329444
0.001550723231
0.000527647068
0.0001079235329
4.560831884e-08
3.462964625e-06
0.0002869924455
0.005283250655
0.0415673147
0.1100324993
0.1486304757
0.1457502923
0.1363468682
0.1473319946
0.1269846518
0.009631806297
0.015704782
0.009516520064
0.001742410969
6.58194374e-06
9.057152023e-15
5.131775461e-27
9.742382171e-40
0.06010475715
0.003602080902
0.001109610959
0.0002066862395
0.0001476062759
0.006375694465
0.03271253114
0.08545846522
0.1271993752
0.1476803901
0.1507606147
0.1473173497
0.1687151434
0.2074088383
0.166798714
0.02157024843
0.04406371909
0.05682546361
0.03976647227
0.006782377222
2.486020601e-05
2.969082219e-14
8.210791776e-27
1.172691112e-39
1.012161393e-52
0.09096683629
0.005915500971
0.001957169316
0.002186538634
0.02130533373
0.1014869236
0.1386692055
0.1331863638
0.1202125469
0.1085860119
0.1099510705
0.1407940235
0.1972572527
0.2241390136
0.1519676231
0.01555174218
0.02876421518
0.03995715023
0.05277537066
0.04148739472
0.006996809023
2.333954687e-05
2.315045811e-14
5.769127969e-27
6.999489091e-40
5.352387782e-53
0.1168106695
0.00950997764
0.003438965824
0.00505774708
0.03144309216
0.05546351207
0.02748651567
0.001352413183
0.02751323817
0.08120509295
0.1181539621
0.1674196645
0.1983550775
0.1769523358
0.1050507018
2.49825234e-06
2.771752531e-07
1.800248182e-07
1.051257711e-07
1.862625561e-08
2.675031387e-11
1.008271517e-18
8.27869535e-28
4.370837473e-40
8.829823247e-53
1.085088607e-65
0.1306785914
0.01841344289
0.01157688393
0.03164368499
0.06777077173
0.04918260537
0.01835084252
0.00353940953
0.04296437318
0.1289863483
0.1896211994
0.1902480114
0.1559128308
0.1141912666
0.06768239282
0.00213064798
0.00045089929
3.538434019e-05
1.528590285e-06
1.905961452e-08
9.102631665e-12
1.185372484e-18
1.338195884e-31
9.497283726e-45
4.267375702e-58
1.242139996e-71
2.301704225e-85
0.1253391287
0.04383868181
0.04706810063
0.09047506834
0.06881846233
0.03986157226
0.02610923626
0.04455801636
0.09786138153
0.1190731728
0.1229286606
0.1104932633
0.09048144447
0.07021114765
0.04632522814
0.02407756395
0.02088807083
0.01012922959
0.004060862019
0.001210492338
0.0001471793332
3.255608288e-06
4.078736974e-09
1.731416963e-17
1.169925481e-30
4.949214448e-44
1.333637725e-57
0.06794259348
0.08475947152
0.1182763502
0.1112518104
0.08224988742
0.06693469575
0.07109814677
0.08625818578
0.0854175476
0.07533677604
0.06706993536
0.06085913385
0.05500671652
0.04721627628
0.03165344686
0.04385444425
0.06549424821
0.07379711609
0.06936124282
0.05119355352
0.02379043209
0.006376086266
0.0008659830573
4.0977225e-06
1.918582887e-14
1.033982703e-27
3.225061872e-41
0.01251721715
0.06979461998
0.1166599092
0.1183820551
0.1208261235
0.1123540141
0.09593361455
0.07897491294
0.06538790469
0.05439881296
0.04750771031
0.04349005382
0.03996484352
0.03422581094
0.02173417913
0.04657393427
0.07863263779
0.1020061913
0.118130809
0.1303292824
0.1355085171
0.1196813642
0.06348936751
0.008932366663
4.178710744e-05
1.981728869e-13
7.061516361e-27
1.40510467e-40
0.0299899293
0.07060803323
0.06419007778
0.04517523032
0.03132171103
0.01839635552
0.00647833058
0.0009181955911
0.02246992793
0.06102124505
0.05814809386
0.04763256463
0.04263688672
0.03915292133
0.0292183524
6.470537784e-06
0.003048197683
0.005620532697
8.210639212e-07
5.578992796e-07
3.288978118e-07
1.282100486e-07
1.479275712e-08
2.335879837e-11
1.057234974e-19
3.014016115e-27
1.84440718e-40
4.809795722e-54
4.995237825e-68
0.09590234634
0.06598101243
0.05028684924
0.03597085846
0.02450491923
0.01367892792
0.004812543773
2.049750839e-05
0.006006615739
0.03753414762
0.07079580179
0.062786178
0.05400169605
0.04926058898
0.03787664981
0.003529163618
0.03768341968
0.03306209758
1.103534061e-08
6.035709401e-15
7.15611197e-16
2.213825202e-17
2.504294142e-20
1.183450011e-24
1.570608202e-32
4.063065249e-41
3.322827227e-54
1.063317135e-67
5.729491568e-67
0.1714701873
0.05104199893
0.04166781403
0.03293421972
0.02433626813
0.01501114796
0.007568075457
0.006053189469
0.03323109225
0.007693891286
0.05274316373
0.07461131936
0.06519074353
0.05812823238
0.04821804679
0.03315814217
0.07123962559
0.03701864015
4.549637319e-08
1.143664973e-17
4.306951958e-28
4.400655913e-30
1.822833195e-33
3.722028084e-38
9.126143474e-46
4.647929949e-55
4.561678896e-68
1.877755781e-81
2.867358888e-39
0.2654717732
0.03840979183
0.03673530618
0.03180405155
0.02584483949
0.02016194375
0.02097467966
0.04047574954
0.05610731068
0.0168584016
0.02375667128
0.07283996368
0.07721288056
0.06817824139
0.06143113539
0.06155391738
0.06195095183
0.03304862766
5.477245099e-08
6.353332844e-17
8.270036251e-28
3.997865708e-39
3.46098619e-47
6.865312978e-52
2.867324088e-59
4.318986483e-69
5.07059411e-82
1.722269929e-94
3.55203037e-53
5.689260737e-39
6.493653476e-26
2.815530611e-18
2.171900907e-10
4.822810561e-08
0.6430290568
0.0328885221
0.03792478588
0.03551868061
0.03310875327
0.03468519989
0.0458660716
0.05417492
0.03131522696
0.0235397726
0.0472779561
0.07361167274
0.109405012
0.08775392022
0.07347518556
0.06532197683
0.05717117337
0.03637858971
6.629681163e-08
2.188777482e-16
4.963369997e-27
3.984276035e-38
1.767029681e-49
4.450076501e-61
1.077814807e-72
3.062443201e-83
4.524574923e-96
1.015795878e-86
7.194641387e-45
1.226833653e-30
2.058166216e-22
8.385382355e-18
1.375636224e-15
1.149220854e-14
0.3037332998
0.03890105425
0.03951284291
0.03831604456
0.04092932727
0.04871917262
0.05339361706
0.03728805151
0.01415132684
0.0003155360228
0.02277121454
0.1066319446
0.1773173306
0.1415405123
0.09431787878
0.0662476286
0.05934032987
0.04138151173
9.681676919e-08
7.14340726e-16
2.526016382e-26
2.973118925e-37
1.770209594e-48
5.645682358e-60
2.185515178e-68
4.124135268e-79
6.089021655e-91
3.264303618e-77
8.928271227e-31
2.83513167e-17
6.20251134e-10
6.95142658e-08
2.890612392e-07
4.388394396e-07
0.1733940331
0.0528012665
0.04723768085
0.04468031657
0.04788200017
0.05311462871
0.04924680914
0.02964467669
0.01187148173
0.00885356468
0.08152735671
0.1207348526
0.1567510984
0.2154239206
0.1489471611
0.06822733362
0.06313304343
0.04685602798
1.635981778e-07
2.712089246e-15
1.517734592e-25
2.946316394e-36
1.005429682e-46
7.856653086e-51
3.904752558e-55
4.629437721e-62
1.716323868e-74
3.591243864e-24
1.233400351e-10
0.0002584621075
0.01536673818
0.06431564237
0.0789042713
0.08705275899
0.06903358989
0.05905921555
0.05247240908
0.05378482462
0.05636675436
0.04940473871
0.02857210648
0.01535579509
0.03074599302
0.1067720261
0.09840627049
0.08669743315
0.179606195
0.2302421324
0.06967877729
0.06749441006
0.05296751919
3.102518902e-07
1.406503798e-14
1.244863967e-24
2.828736363e-30
1.392003094e-34
4.981703822e-38
3.090609331e-42
7.98131796e-48
2.847339936e-60
4.179132699e-38
3.064110252e-24
1.566151926e-11
3.315949568e-05
0.001971102744
0.02398038117
0.07101597274
0.07694982647
0.06986804843
0.07074729145
0.0707860628
0.0541794665
0.02840916817
0.01939065876
0.04307601506
0.1141018739
0.09240017275
0.06043894076
0.07910574244
0.1336776292
0.06826110528
0.07231073446
0.05918459127
6.732202931e-07
1.239427871e-13
1.348774591e-16
6.550526599e-19
1.396207595e-22
1.977670251e-25
1.280770452e-29
2.783447843e-34
1.257595394e-46
4.052260515e-52
4.568657799e-38
1.045008767e-24
4.506226231e-14
9.154452512e-08
0.002932470879
0.04243016092
0.09904578873
0.1166682909
0.119718272
0.1007015212
0.05661437346
0.02556091867
0.01770695826
0.03830523656
0.1351180729
0.1017735921
0.05558401051
0.05228706014
0.06091811997
0.06596515355
0.07490266469
0.06302949483
2.16773055e-06
2.905269686e-07
1.318654159e-07
2.227476466e-08
5.327487884e-11
2.148272933e-13
8.78871484e-18
9.079845642e-22
2.00298881e-29
6.928587891e-38
2.249116994e-51
9.286682336e-39
4.016193478e-27
4.815980578e-20
0.3046987202
0.08664010098
0.1241439595
0.1512572547
0.1456947126
0.1107642715
0.07057968498
0.04674100777
0.02945882385
0.03135258407
0.2125973587
0.1542474096
0.1108171744
0.1029355346
0.1057277588
0.1199993664
0.1359343679
0.1170807735
0.04024904944
0.05425858979
0.06129579546
0.04502473802
0.008386258005
4.676295301e-05
5.933705011e-08
9.886129232e-10
1.805457195e-16
6.465629811e-24
2.269138722e-37
5.779066309e-52
1.49870385e-41
0.3012239862
0.1105849162
0.1198364063
0.1281146292
0.1259860448
0.1180776466
0.1152998515
0.1092094767
0.08325368621
0.05234569488
0.04571668182
0.06586851864
0.1042191002
0.1241334614
0.132753671
0.1418475575
0.1412034372
0.1045380432
0.03221137153
0.04412820376
0.0447543258
0.03622710119
0.03359074136
0.04504796063
0.04981691009
0.01607333241
0.0003816280198
5.541974984e-10
1.143763149e-22
3.258745593e-36
5.646658706e-73
0.1478930756
0.1092524134
0.1155037676
0.1195621682
0.1255304338
0.1313707718
0.127755171
0.1006716404
0.0594536854
0.03472455156
0.03107839601
0.03675862994
0.05054073449
0.07359418302
0.1143884662
0.2028711393
0.2516267771
0.1071624353
0.02015438639
0.03085714876
0.03894895921
0.04879866525
0.05846572059
0.04695177482
0.0117888263
0.0002124686218
2.041843487e-10
9.370745459e-23
7.415298915e-36
9.067568053e-51
1.200093986e-67
0.03422906825
0.09157435715
0.1269568595
0.1456185824
0.1636507324
0.1785711586
0.1727938154
0.1344605582
0.08321502683
0.05210848053
0.04237094318
0.03793470522
0.03229888697
0.02808348784
0.04484376562
0.1791639769
0.360813431
0.1190228286
0.00750894449
0.01619483743
0.01996968341
0.01743797841
0.009359915025
0.002126572803
3.121378987e-05
1.736177462e-11
5.210865859e-23
1.124698968e-35
3.653720663e-49
2.744757254e-60
1.971229162e-54
0.002524197372
0.04230727727
0.1312503411
0.2042315119
0.2768719457
0.3425154407
0.3459398685
0.2369605736
0.1153415207
0.06436652432
0.05070700874
0.04319937387
0.03296882056
0.02057233077
0.02585897618
0.1301682232
0.2977283456
0.1227388271
0.0002667009091
0.001065169991
0.0008758301827
0.000334798505
3.446770157e-05
1.730163279e-07
4.275724629e-14
4.973645527e-24
5.161546239e-36
6.096670493e-49
1.928288807e-58
2.351540393e-45
1.546158541e-41
1.363837701e-06
0.003684947752
0.05082975509
0.1476194651
0.2314685303
0.2926377365
0.2548639073
0.1827448585
0.1148777676
0.07440709468
0.05931201151
0.05021573849
0.03938157499
0.02694653793
0.02731306962
0.09390153653
0.1939683607
0.1139866128
4.697115871e-07
4.610025821e-08
1.509395777e-08
3.818544277e-10
1.828863798e-13
6.249515959e-19
1.741183848e-26
5.912544123e-37
2.99422974e-49
2.758358123e-52
4.98218755e-38
1.556396168e-31
5.338692917e-29
2.275577628e-13
8.432801656e-07
0.001900892509
0.02129427482
0.0531327939
0.04680145068
0.05635039318
0.0829596249
0.09566984915
0.08345472503
0.07081045355
0.05994813766
0.04825411702
0.03662151547
0.03549654388
0.06863352747
0.1168642912
0.09487588756
2.400847411e-07
1.166070773e-14
3.206688949e-19
2.179449704e-21
3.746142199e-25
5.7049244e-31
3.098115002e-39
4.750406506e-50
2.790324714e-57
4.148010202e-29
1.496413367e-24
9.656417688e-20
8.606024044e-18
1.043376101e-06
8.666354176e-08
1.869451749e-07
0.0002186763383
0.005365318943
0.01458102962
0.01593491576
0.03125254902
0.06627646819
0.08524879128
0.0849314677
0.07466083614
0.05998711887
0.04618426584
0.03999896219
0.05046001534
0.06976448566
0.07027912133
1.212260263e-07
3.500675871e-15
1.571081971e-25
5.757137614e-33
3.487989559e-37
2.373083588e-43
3.912265638e-52
2.837853237e-63
4.492889421e-30
1.361895263e-16
4.983623009e-12
7.737660814e-09
2.481782272e-08
0.1023242116
0.007311613929
0.00757309959
0.007939579473
0.008612888121
0.008689917846
0.008641773023
0.01537005668
0.03846133546
0.07242337331
0.09700693016
0.1012181638
0.08320083014
0.06046280141
0.04471210065
0.0402079349
0.04111043355
0.04434121287
6.959489501e-08
1.316222631e-15
3.742182015e-26
2.751547017e-37
1.155361235e-48
6.452010905e-56
3.459209219e-65
5.302953527e-30
3.743039349e-17
3.729268095e-06
0.003676115819
0.01950598273
0.01273884247
0.2449255142
0.01878609215
0.01823638976
0.01784946258
0.01744366638
0.01627426631
0.01434251209
0.01388948449
0.02028498513
0.04227350274
0.08772347861
0.1324895683
0.1267746874
0.08866660496
0.05383598821
0.0384763844
0.02597314285
0.02331671151
5.240241924e-08
5.636606298e-16
1.057331432e-26
4.554324852e-38
9.878856383e-50
1.118940124e-61
7.850062283e-74
2.190789265e-30
4.479784348e-17
4.399913267e-06
0.004351280216
0.03405023317
0.03933414998
0.3131631779
0.0324167199
0.02883060832
0.02663701235
0.02504367941
0.02281344838
0.01927664253
0.0149630756
0.01215849961
0.01546415154
0.04022131628
0.123297701
0.1507395813
0.1138889922
0.06921328902
0.04588876973
0.02191369723
0.01209748196
4.743456704e-08
2.527113256e-16
3.201257203e-27
8.604162848e-39
1.194736926e-50
8.781419982e-63
3.25054255e-75
4.915043541e-44
4.826971677e-24
6.071374446e-11
0.0002177360341
0.01533767419
0.05771982864
0.2885938106
0.04930694753
0.04005574317
0.03404241751
0.03028752259
0.0267536543
0.02206737441
0.01596861074
0.009693171568
0.005442666426
0.004233176711
0.04937324086
0.09973548241
0.0979444511
0.1063674795
0.06246042876
0.02747815191
0.009379465875
4.596923245e-08
1.099496196e-16
9.065687734e-28
1.541318778e-39
1.378963011e-51
6.669166303e-64
1.64682135e-76
2.331147886e-55
1.080774297e-36
3.527883466e-23
2.463135193e-10
0.0003334061182
0.01572178836
0.1942465925
0.06969657213
0.05516992815
0.04260104438
0.0347549798
0.0290328098
0.02316773709
0.0161920549
0.008872312153
0.003211332801
3.602329002e-06
0.003690788768
0.01985161683
0.03331970439
0.1792520181
0.07832088553
0.04405463317
0.01403880828
4.671311749e-08
4.315827533e-17
2.180184276e-28
2.603051051e-40
1.638007208e-52
5.585550076e-65
9.911586717e-78
2.016264996e-68
7.076493512e-50
3.219999983e-36
4.753011365e-23
1.487342932e-10
0.0001446830825
0.0700054744
0.07816276833
0.07390215697
0.05542297367
0.0410227517
0.0314131386
0.02371190448
0.01598264521
0.008361940093
0.002610704559
5.5378818e-08
1.6673696e-06
0.0006688115289
0.02812674138
0.3392476519
0.05888803023
0.0666359823
0.02862935843
4.218017861e-08
1.113049681e-17
3.011513401e-29
2.226678279e-41
8.732780049e-54
1.959081779e-66
7.519189745e-73
2.603710567e-85
1.983858461e-63
1.253184512e-49
2.590342516e-36
1.750892749e-23
1.011652443e-11
0.005635455256
0.03947812278
0.07976082839
0.07211824571
0.05161674663
0.0358151839
0.02487127154
0.01591098222
0.008127237976
0.005447092114
0.03988193254
0.1544321521
0.3192012446
0.6287161287
1.372682138
0.3434119489
0.1656000555
0.06906428792
0.003114599552
6.86998109e-07
3.385129802e-19
2.175881738e-32
9.648363773e-46
2.967675534e-59
3.689655436e-59
3.434509725e-72
1.876273173e-77
2.029117549e-63
6.120850906e-50
5.989395313e-37
1.167132739e-24
5.263622247e-06
0.003988157416
0.04275950471
0.08051824172
0.0670476968
0.04427274161
0.02789782692
0.0165475531
0.007987086978
0.002517367614
0.0005121629055
0.01384141059
0.09056119303
0.2641400551
0.6952442734
0.04170768609
0.01740707339
0.01028062278
1.432896998e-05
2.554775752e-15
2.108809159e-28
1.115688747e-41
4.417118229e-55
7.374831521e-60
8.105105747e-46
8.381687252e-59
5.028386217e-72
1.249954507e-77
5.102553052e-64
9.201732094e-51
3.303386645e-38
3.710772377e-16
8.545699017e-06
0.00633298809
0.05440636564
0.08044493131
0.05837064245
0.03449524976
0.01870216874
0.008483468851
0.002384603408
2.691376896e-08
7.091533191e-05
0.008892390243
0.09990920234
0.3823821985
0.0008771022182
0.0002245132055
0.01335483228
2.274854207e-10
2.522927495e-22
1.281717361e-34
4.011994669e-47
2.420479847e-56
9.769918251e-47
8.544529868e-33
9.979551959e-46
8.385039177e-59
2.317267158e-72
1.255706931e-70
6.355049581e-58
2.013166068e-45
1.997303306e-26
1.445851847e-12
8.367361643e-05
0.01336573766
0.07089024824
0.07595306761
0.04704574881
0.02391124869
0.01012089749
0.002762872392
2.378561937e-08
6.589568499e-12
0.0001158445051
0.01859823811
0.2054156835
7.499193975e-06
0.006833153517
0.05124118871
2.563709846e-08
5.983374814e-19
8.041247711e-31
1.677692405e-41
4.306534948e-44
7.685096047e-34
4.05600984e-20
5.60274314e-33
6.141601242e-46
2.90257797e-59
2.631686909e-58
1.627305121e-45
3.286641344e-33
8.766349322e-37
9.602970636e-23
3.392344934e-09
0.0007323960859
0.02917035759
0.08307896839
0.06683739011
0.03520219568
0.01445941235
0.003955631523
2.290893074e-08
1.553566522e-17
1.731532716e-08
0.001352148709
0.07818177695
0.0008713900212
0.02894702507
0.05406824809
9.500134367e-08
5.518815275e-17
2.261908256e-27
1.453950393e-29
3.810643967e-32
3.589739744e-21
6.03483517e-08
1.242032089e-20
1.673469319e-33
1.186291497e-46
1.962416805e-46
5.934882635e-33
5.47806202e-21
7.996121257e-48
1.662042909e-33
9.630710067e-20
7.302290992e-07
0.003516799726
0.0522085409
0.085391099
0.05608763447
0.02540793258
0.007944707781
2.33909773e-08
2.511104775e-17
4.291272127e-16
6.491856361e-06
0.00954713431
0.003768185827
0.0352776167
0.03712103868
1.536359496e-07
4.618942752e-15
1.85681255e-16
4.741784337e-18
1.546066907e-20
9.245799161e-09
0.001391634451
1.316468796e-14
3.456216553e-27
4.893306779e-40
1.78373179e-46
2.711137476e-29
6.383387067e-17
1.851940285e-57
7.281442669e-43
1.253024445e-28
7.84134402e-15
2.038405267e-05
0.009670363728
0.06793810958
0.07856194022
0.04654781963
0.02030025968
4.287921256e-08
7.851698305e-08
1.329317854e-07
2.222981402e-07
6.096153478e-05
0.003415651531
0.0185413544
0.018672263
7.09862861e-07
2.214732425e-07
1.020724474e-07
4.195023237e-08
2.737288464e-09
0.0002172899749
0.02992454701
2.031495633e-09
3.140741502e-21
1.924717658e-33
9.347530029e-43
1.468583742e-28
1.297855354e-15
4.030862776e-69
1.888075835e-54
3.735165399e-40
3.981532744e-26
1.889721389e-12
0.0001050521217
0.01450573243
0.05860228351
0.05901528128
0.0448712939
0.0514376084
0.05157539223
0.0446110669
0.04444963798
0.05042167852
0.06167541024
0.07399235461
0.06868093068
0.02597493767
0.02980903915
0.03436218273
0.04199750214
0.0234810618
0.005736415538
0.1040323124
7.736979833e-08
5.457074631e-18
3.062386589e-27
3.476526824e-30
1.846993739e-34
1.673104752e-18
4.042236943e-82
2.345544875e-67
5.448301923e-53
6.534198146e-39
4.460015822e-25
1.490821287e-11
0.0001729963536
0.009087168325
0.02106410705
0.01340834027
0.05047629981
0.08965142703
0.08795071056
0.08465990409
0.08989554001
0.1042737695
0.1222158105
0.1156036538
0.05097387582
0.06361154106
0.07219370543
0.05142571283
0.007205674966
0.01603883398
0.1675014894
4.072436331e-07
1.25474526e-13
1.829253737e-15
7.091531823e-18
1.153687846e-21
2.731826919e-22
1.382933502e-95
1.031796904e-80
2.838137585e-66
3.786752054e-52
2.821640962e-38
1.24861739e-24
2.646593303e-11
4.275645704e-05
0.0007776365473
0.0001094915905
0.008187465768
0.05679675977
0.09246958769
0.09446407775
0.09439365122
0.1009319478
0.1112846796
0.1020406577
0.06000004729
0.06730889001
0.04286640172
0.007812992944
0.0005943124275
0.029787519
0.2241073993
9.085253731e-06
1.892605189e-06
5.332163689e-07
9.93650286e-08
2.79977101e-09
3.683909696e-14
1.157570917e-109
1.071964916e-94
3.314240376e-80
4.638312278e-66
3.422705087e-52
1.432155318e-38
3.277285644e-25
1.816116833e-13
7.849981448e-09
3.25774497e-12
4.255346472e-05
0.009483575527
0.07831399859
0.1973365199
0.3395903449
0.5246352656
0.7389457883
0.7771116011
0.06791447375
0.1553276659
0.2490726624
0.3620931237
0.5426309032
0.8507757352
1.424262308
0.5550333614
0.3515375217
0.229165964
0.1310163813
0.03616732941
0.001841865998
)
;

boundaryField
{
    walls
    {
        type            zeroGradient;
    }
    wallFilmFace_top
    {
        type            zeroGradient;
    }
    region0_to_wallFilmRegion_wallFilmFace
    {
        type            zeroGradient;
    }
    mirrorFace_top
    {
        type            zeroGradient;
    }
    region0_to_wallFilmRegion_mirrorFace
    {
        type            zeroGradient;
    }
    procBoundary1to0
    {
        type            processor;
        value           nonuniform List<scalar> 
52
(
0.4033334118
0.01157230915
0.01413483122
0.0167583384
0.03482641749
0.08105262241
0.07888495807
0.04823929566
0.04823929566
0.04353890819
0.04459601393
0.05218638939
0.07451032294
0.07451032294
0.08912119955
0.07487923386
0.07487923386
0.03723301327
0.0045795949
0.01577282858
0.008651931748
0.008651931748
0.02248907216
5.066731128e-09
5.066731128e-09
3.966730768e-13
5.167622597e-19
1.828266636e-31
1.07478698e-52
1.07478698e-52
6.625493518e-66
5.597112874e-66
5.597112874e-66
2.576591623e-66
7.273802803e-79
7.273802803e-79
1.18991641e-79
2.215893857e-71
5.959733014e-55
5.959733014e-55
1.499763275e-54
1.499763275e-54
7.329778978e-53
9.003528667e-40
5.108020357e-25
5.108020357e-25
4.490749352e-12
0.0001045275341
0.01129021243
0.05451083592
2.266312282e-07
3.773753343e-14
)
;
    }
    procBoundary1to2
    {
        type            processor;
        value           nonuniform List<scalar> 
33
(
4.999720199e-07
0.06374458211
0.06374458211
0.01062105429
0.01062105429
2.360197595e-05
1.57860728e-14
1.267616281e-32
1.267616281e-32
6.495670905e-60
5.085655549e-61
8.161344029e-52
1.465971616e-39
1.040548469e-27
6.494770716e-17
2.700608142e-08
0.004114610187
0.01911653924
0.05048436351
0.05219800659
0.006219187675
8.29132565e-06
3.279465538e-16
4.024983321e-29
3.571208696e-33
5.021002064e-21
2.399005243e-09
3.555544276e-06
1.07681936e-05
1.806028864e-06
4.487799709e-09
9.854845304e-17
1.627459417e-07
)
;
    }
}


// ************************************************************************* //
