/*--------------------------------*- C++ -*----------------------------------*\
  =========                 |
  \\      /  F ield         | OpenFOAM: The Open Source CFD Toolbox
   \\    /   O peration     | Website:  https://openfoam.org
    \\  /    A nd           | Version:  8
     \\/     M anipulation  |
\*---------------------------------------------------------------------------*/
FoamFile
{
    version     2.0;
    format      ascii;
    class       volScalarField;
    location    "0.3/wallFilmRegion";
    object      kappa;
}
// * * * * * * * * * * * * * * * * * * * * * * * * * * * * * * * * * * * * * //

dimensions      [1 1 -3 -1 0 0 0];

internalField   nonuniform List<scalar> 
1369
(
0.6088100005
0.6088100028
0.6088100023
0.6088100017
0.6088100013
0.608810001
0.608810001
0.6088100006
0.6088100024
0.608810002
0.6088100016
0.6088100013
0.6088100011
0.6088100012
0.6088100014
0.6088100017
0.608810002
0.6088100022
0.6088100007
0.6088100025
0.6088100022
0.6088100019
0.6088100017
0.6088100017
0.6088100018
0.608810002
0.6088100022
0.6088100022
0.6088100021
0.6088100018
0.6088100016
0.6088100007
0.6088100035
0.6088100033
0.6088100031
0.6088100033
0.6088100034
0.6088100034
0.6088100033
0.6088100031
0.6088100024
0.6088100017
0.6088100012
0.608810001
0.6088100009
0.6088100009
0.6088100368
0.6088100128
0.6088100008
0.6088100181
0.6088100259
0.6088100667
0.6088103353
0.6088100887
0.6088100224
0.6088100085
0.6088100069
0.6088100021
0.6088100012
0.6088100008
0.6088100006
0.6088100005
0.6088100006
0.6088101186
0.6088100812
0.6088103027
0.6088141847
0.6088100034
0.6088100225
0.6088100574
0.6088101819
0.6088150188
0.6088113452
0.6088100409
0.6088100041
0.6088100018
0.6088100011
0.6088100007
0.6088100005
0.6088100004
0.6088100004
0.6088100004
0.6088100063
0.608810005
0.6088100061
0.6088100161
0.6088107722
0.60881
0.60881
0.60881
0.6088100023
0.608810012
0.6088100322
0.6088101098
0.6088100725
0.6088100041
0.6088100013
0.6088100009
0.6088100007
0.6088100006
0.6088100005
0.6088100004
0.6088100004
0.6088100003
0.6088100003
0.6088100022
0.6088100016
0.6088100016
0.6088100021
0.6088100056
0.6088102664
0.60881
0.60881
0.60881
0.60881
0.6088100019
0.6088100075
0.6088100181
0.608810012
0.608810002
0.6088100009
0.6088100006
0.6088100005
0.6088100004
0.6088100004
0.6088100005
0.6088100004
0.6088100004
0.6088100003
0.6088100003
0.6088100023
0.6088100015
0.6088100011
0.6088100011
0.6088100017
0.6088100051
0.6088102819
0.60881
0.60881
0.60881
0.60881
0.6088100016
0.6088100048
0.6088100106
0.6088100066
0.6088100019
0.6088100014
0.6088100017
0.6088100089
0.6088100019
0.608810001
0.6088100007
0.6088100005
0.6088100003
0.6088100003
0.6088100003
0.6088139235
0.6088147312
0.6088145794
0.608814463
0.6088144531
0.6088139047
0.60881
0.60881
0.60881
0.60881
0.60881
0.6088100015
0.6088100028
0.6088100042
0.6088100022
0.6088100012
0.6088100012
0.6088100015
0.6088100033
0.6088100013
0.6088100009
0.6088100006
0.6088100004
0.6088100003
0.6088100003
0.6088100003
0.6088100175
0.6088100582
0.6088103297
0.6088120822
0.6088141434
0.608812106
0.60881
0.60881
0.60881
0.60881
0.60881
0.60881
0.6088100015
0.6088100018
0.6088100018
0.6088100012
0.6088100011
0.6088100012
0.6088100012
0.6088100009
0.6088100007
0.6088100006
0.6088100005
0.6088100004
0.6088100003
0.6088100003
0.6088100004
0.6088100025
0.6088100033
0.6088100047
0.6088100073
0.6088100142
0.6088100613
0.6088109962
0.6088129369
0.60881
0.60881
0.60881
0.60881
0.6088100016
0.6088100015
0.6088100013
0.6088100011
0.6088100011
0.608810001
0.6088100008
0.6088100007
0.6088100006
0.6088100005
0.6088100004
0.6088100004
0.6088100004
0.6088100004
0.6088100005
0.608810001
0.6088100009
0.608810001
0.6088100011
0.6088100014
0.6088100019
0.6088100031
0.6088100095
0.6088105811
0.60881
0.60881
0.60881
0.6088100024
0.6088100014
0.6088100011
0.608810001
0.608810001
0.608810001
0.6088100008
0.6088100007
0.6088100006
0.6088100005
0.6088100005
0.6088100004
0.6088100004
0.6088100005
0.6088100007
0.6088100006
0.6088100004
0.6088100004
0.6088100004
0.6088100005
0.6088100006
0.6088100008
0.6088100011
0.608810002
0.6088100736
0.60881
0.60881
0.60881
0.6088100015
0.6088100011
0.608810001
0.6088100011
0.6088100016
0.6088100024
0.6088100048
0.6088100128
0.6088100015
0.6088100008
0.6088100007
0.6088100006
0.6088100005
0.6088100005
0.6088100007
0.6088129696
0.6088100184
0.6088100118
0.6088140596
0.6088139395
0.6088138502
0.6088139446
0.6088138354
0.6088117678
0.60881
0.60881
0.60881
0.60881
0.60881
0.608810001
0.6088100009
0.608810001
0.6088100013
0.6088100018
0.6088100029
0.608810006
0.6088103872
0.6088100057
0.6088100012
0.6088100008
0.6088100006
0.6088100005
0.6088100005
0.6088100006
0.6088100143
0.6088100037
0.6088100033
0.6088143835
0.60881
0.60881
0.60881
0.60881
0.60881
0.60881
0.60881
0.60881
0.60881
0.60881
0.6088100008
0.6088100009
0.6088100011
0.6088100014
0.608810002
0.6088100032
0.6088100058
0.6088100091
0.6088100031
0.6088100048
0.6088100014
0.6088100011
0.608810001
0.6088100009
0.608810001
0.6088100034
0.6088100021
0.6088100021
0.6088143761
0.60881
0.60881
0.60881
0.60881
0.60881
0.60881
0.60881
0.60881
0.60881
0.60881
0.6088100006
0.608810001
0.6088100012
0.6088100015
0.6088100021
0.608810003
0.6088100036
0.6088100032
0.608810002
0.6088100048
0.6088100038
0.6088100022
0.6088100021
0.608810002
0.608810002
0.6088100021
0.6088100017
0.6088100015
0.6088143841
0.60881
0.60881
0.60881
0.60881
0.60881
0.60881
0.60881
0.60881
0.60881
0.60881
0.60881
0.60881
0.60881
0.6088138395
0.6088141505
0.6088100004
0.6088100011
0.6088100013
0.6088100015
0.6088100019
0.6088100022
0.6088100022
0.6088100019
0.6088100016
0.6088100022
0.6088100024
0.608810004
0.6088100043
0.6088100042
0.6088100037
0.6088100017
0.6088100014
0.6088100011
0.6088143698
0.60881
0.60881
0.60881
0.60881
0.60881
0.60881
0.60881
0.60881
0.60881
0.60881
0.60881
0.60881
0.60881
0.60881
0.60881
0.6088100005
0.608810001
0.6088100011
0.6088100014
0.6088100016
0.6088100018
0.6088100017
0.6088100017
0.608810002
0.6088100299
0.608810003
0.6088100032
0.6088100055
0.6088100073
0.6088100066
0.6088100015
0.6088100011
0.6088100008
0.6088143511
0.60881
0.60881
0.60881
0.60881
0.60881
0.60881
0.60881
0.60881
0.60881
0.60881
0.60881
0.6088133563
0.6088140221
0.6088138883
0.6088140591
0.6088100008
0.6088100009
0.608810001
0.6088100012
0.6088100014
0.6088100015
0.6088100015
0.6088100016
0.6088100025
0.6088100043
0.6088100017
0.6088100019
0.6088100046
0.6088100086
0.6088100099
0.6088100013
0.6088100009
0.6088100007
0.6088143869
0.60881
0.60881
0.60881
0.60881
0.60881
0.60881
0.60881
0.60881
0.60881
0.6088118966
0.6088100233
0.6088100033
0.6088100023
0.608810002
0.6088100011
0.608810001
0.608810001
0.6088100011
0.6088100012
0.6088100013
0.6088100013
0.6088100015
0.6088100026
0.6088100023
0.6088100012
0.6088100013
0.6088100032
0.6088100074
0.6088100099
0.608810001
0.6088100007
0.6088100006
0.6088143897
0.60881
0.60881
0.60881
0.60881
0.60881
0.60881
0.60881
0.60881
0.60881
0.60881
0.6088114059
0.6088101439
0.60881001
0.6088100018
0.6088100012
0.608810001
0.608810001
0.6088100011
0.6088100012
0.6088100013
0.6088100017
0.6088100027
0.6088100021
0.6088100011
0.608810001
0.6088100015
0.6088100025
0.6088100048
0.6088100008
0.6088100006
0.6088100005
0.6088143003
0.60881
0.60881
0.60881
0.60881
0.60881
0.60881
0.60881
0.60881
0.60881
0.60881
0.60881
0.60881
0.6088137464
0.6088100049
0.6088100015
0.6088100011
0.608810001
0.608810001
0.6088100011
0.6088100013
0.6088100019
0.6088100028
0.6088100021
0.6088100009
0.6088100009
0.6088100011
0.6088100011
0.6088100008
0.6088100006
0.6088100005
0.6088100004
0.608814182
0.608814513
0.6088144362
0.6088143246
0.6088141253
0.60881
0.60881
0.60881
0.60881
0.60881
0.60881
0.60881
0.60881
0.60881
0.6088100012
0.608810001
0.6088100009
0.6088100008
0.6088100008
0.6088100008
0.6088100008
0.6088100011
0.6088100016
0.6088100024
0.6088100008
0.6088100006
0.6088100005
0.6088100004
0.6088100003
0.6088100003
0.6088100002
0.6088100002
0.6088100008
0.6088100007
0.6088100019
0.6088100038
0.6088100082
0.6088102048
0.6088142127
0.6088142472
0.60881
0.60881
0.60881
0.60881
0.60881
0.6088100011
0.6088100009
0.6088100008
0.6088100007
0.6088100007
0.6088100007
0.6088100007
0.6088100008
0.608810001
0.6088100012
0.6088100011
0.608810001
0.6088100008
0.6088100006
0.6088100004
0.6088100003
0.6088100003
0.6088100003
0.6088100014
0.6088100016
0.6088100028
0.6088100037
0.6088100035
0.6088100028
0.608810003
0.6088100048
0.6088100349
0.6088131693
0.60881
0.60881
0.60881
0.6088100012
0.6088100009
0.6088100007
0.6088100007
0.6088100006
0.6088100006
0.6088100006
0.6088100007
0.6088100009
0.6088100011
0.6088100011
0.6088100013
0.6088100013
0.608810001
0.6088100007
0.6088100004
0.6088100004
0.6088100003
0.6088100036
0.6088100041
0.6088100043
0.608810004
0.6088100037
0.6088100042
0.6088100067
0.6088100614
0.6088132525
0.60881
0.60881
0.60881
0.60881
0.6088100015
0.608810001
0.6088100008
0.6088100006
0.6088100006
0.6088100006
0.6088100006
0.6088100007
0.6088100008
0.6088100009
0.608810001
0.6088100012
0.6088100015
0.6088100016
0.6088100013
0.6088100007
0.6088100005
0.6088100004
0.608810015
0.6088100115
0.6088100099
0.6088100095
0.6088100108
0.60881002
0.608810292
0.6088128223
0.60881
0.60881
0.60881
0.60881
0.60881
0.608810004
0.6088100013
0.6088100009
0.6088100007
0.6088100006
0.6088100006
0.6088100006
0.6088100006
0.6088100007
0.6088100008
0.6088100009
0.608810001
0.6088100013
0.6088100019
0.6088100019
0.6088100009
0.6088100007
0.6088100006
0.6088102894
0.6088101023
0.6088100881
0.6088101327
0.608810475
0.6088137728
0.60881
0.60881
0.60881
0.60881
0.60881
0.60881
0.60881
0.6088111324
0.6088100033
0.6088100013
0.608810001
0.6088100009
0.6088100008
0.6088100008
0.6088100008
0.6088100007
0.6088100007
0.6088100008
0.6088100009
0.6088100011
0.6088100016
0.608810002
0.6088100011
0.6088100009
0.6088100006
0.6088143085
0.6088142991
0.6088142436
0.6088142602
0.60881
0.60881
0.60881
0.60881
0.60881
0.60881
0.60881
0.60881
0.60881
0.6088104132
0.6088115019
0.6088100053
0.6088100021
0.6088100019
0.6088100024
0.6088100017
0.6088100012
0.6088100009
0.6088100008
0.6088100008
0.6088100008
0.608810001
0.6088100014
0.6088100018
0.6088100014
0.6088100012
0.6088100008
0.6088142164
0.60881
0.60881
0.60881
0.60881
0.60881
0.60881
0.60881
0.60881
0.60881
0.60881
0.60881
0.60881
0.6088138802
0.6088143231
0.608813963
0.6088100413
0.6088100068
0.6088100032
0.6088100028
0.608810002
0.6088100013
0.608810001
0.6088100009
0.6088100008
0.608810001
0.6088100013
0.6088100017
0.6088100016
0.6088100015
0.608810001
0.6088142034
0.60881
0.60881
0.60881
0.60881
0.60881
0.60881
0.60881
0.60881
0.60881
0.6088126421
0.6088142609
0.608814278
0.6088100007
0.6088100022
0.6088100026
0.6088100031
0.6088100037
0.608810004
0.6088100046
0.6088100035
0.6088100021
0.6088100014
0.6088100011
0.6088100009
0.608810001
0.6088100013
0.6088100017
0.6088100018
0.6088100019
0.6088100014
0.6088142531
0.60881
0.60881
0.60881
0.60881
0.60881
0.60881
0.60881
0.60881
0.6088108446
0.6088100076
0.6088100041
0.6088100046
0.6088100006
0.6088100013
0.6088100016
0.6088100019
0.6088100023
0.6088100028
0.6088100035
0.6088100041
0.6088100034
0.6088100022
0.6088100016
0.6088100012
0.6088100011
0.6088100013
0.6088100017
0.6088100018
0.6088100023
0.608810002
0.6088142706
0.60881
0.60881
0.60881
0.60881
0.60881
0.60881
0.60881
0.60881
0.6088105899
0.6088100055
0.6088100032
0.608810003
0.6088100006
0.608810001
0.6088100012
0.6088100014
0.6088100017
0.6088100021
0.6088100027
0.6088100037
0.6088100048
0.6088100044
0.6088100035
0.6088100018
0.6088100014
0.6088100015
0.6088100018
0.6088100017
0.6088100024
0.6088100028
0.6088142558
0.60881
0.60881
0.60881
0.60881
0.60881
0.60881
0.60881
0.60881
0.6088114844
0.6088100288
0.608810004
0.6088100029
0.6088100006
0.6088100008
0.6088100009
0.6088100011
0.6088100014
0.6088100017
0.6088100023
0.6088100033
0.6088100054
0.6088100089
0.6088100174
0.6088100032
0.6088100019
0.6088100018
0.6088100015
0.6088100017
0.6088100021
0.6088100033
0.6088142592
0.60881
0.60881
0.60881
0.60881
0.60881
0.60881
0.60881
0.60881
0.60881
0.6088118805
0.6088100249
0.6088100043
0.6088100008
0.6088100008
0.6088100008
0.608810001
0.6088100012
0.6088100015
0.608810002
0.6088100029
0.6088100049
0.6088100099
0.6088111702
0.6088100078
0.6088100034
0.6088100023
0.6088100003
0.6088100018
0.6088100018
0.6088100028
0.6088142464
0.60881
0.60881
0.60881
0.60881
0.60881
0.60881
0.60881
0.60881
0.60881
0.60881
0.6088121665
0.6088100528
0.608810001
0.6088100009
0.6088100008
0.6088100009
0.608810001
0.6088100013
0.6088100018
0.6088100026
0.6088100044
0.6088100093
0.6088143238
0.6088117226
0.6088100254
0.6088100008
0.6088100001
0.6088100023
0.6088100019
0.6088100023
0.6088142589
0.60881
0.60881
0.60881
0.60881
0.60881
0.60881
0.60881
0.60881
0.60881
0.60881
0.60881
0.6088116696
0.6088100023
0.6088100012
0.6088100009
0.6088100009
0.6088100009
0.6088100011
0.6088100015
0.6088100023
0.6088100038
0.6088100046
0.6088100012
0.6088100004
0.60881
0.60881
0.60881
0.6088100001
0.6088100005
0.6088100016
0.6088100051
0.6088112312
0.60881
0.60881
0.60881
0.60881
0.60881
0.60881
0.60881
0.60881
0.60881
0.60881
0.60881
0.6088103945
0.6088100028
0.6088100012
0.6088100009
0.6088100009
0.608810001
0.6088100013
0.608810002
0.6088100034
0.6088100071
0.6088100142
0.608810001
0.6088100003
0.60881
0.60881
0.6088100009
0.6088100025
0.6088100044
0.6088102671
0.60881
0.60881
0.60881
0.60881
0.60881
0.60881
0.60881
0.60881
0.60881
0.60881
0.60881
0.60881
0.60881
0.6088102715
0.6088100023
0.6088100011
0.6088100009
0.6088100009
0.6088100011
0.6088100017
0.6088100029
0.6088100065
0.6088143661
0.6088100496
0.6088100011
0.6088100002
0.60881
0.6088100075
0.6088100451
0.6088100024
0.6088140717
0.60881
0.60881
0.60881
0.60881
0.60881
0.60881
0.60881
0.60881
0.60881
0.60881
0.60881
0.60881
0.60881
0.6088103827
0.6088100421
0.6088100018
0.608810001
0.6088100009
0.608810001
0.6088100014
0.6088100024
0.6088100053
0.6088143464
0.608810484
0.6088100327
0.6088100007
0.6088100002
0.6088106916
0.6088100044
0.608810001
0.6088141873
0.60881
0.60881
0.60881
0.60881
0.60881
0.60881
0.60881
0.60881
0.60881
0.60881
0.60881
0.60881
0.60881
0.60881
0.6088118239
0.608810008
0.6088100014
0.608810001
0.6088100009
0.6088100011
0.6088100018
0.6088100039
0.6088143274
0.60881
0.6088117254
0.608810004
0.6088100007
0.6088100219
0.6088100019
0.6088100007
0.6088141182
0.60881
0.60881
0.60881
0.60881
0.60881
0.6088133599
0.60881
0.60881
0.60881
0.60881
0.60881
0.60881
0.60881
0.60881
0.60881
0.6088114324
0.6088100031
0.6088100012
0.6088100009
0.608810001
0.6088100013
0.6088100024
0.6088143139
0.60881
0.60881
0.6088102931
0.6088100021
0.6088100102
0.6088100015
0.6088100009
0.6088141735
0.60881
0.60881
0.60881
0.60881
0.608813103
0.6088100101
0.60881
0.60881
0.60881
0.60881
0.60881
0.60881
0.60881
0.60881
0.60881
0.60881
0.6088101279
0.6088100019
0.6088100011
0.608810001
0.6088100012
0.6088100017
0.6088142242
0.6088141927
0.6088142765
0.6088142858
0.6088101898
0.6088100109
0.6088100018
0.6088100013
0.6088141367
0.6088141172
0.6088142006
0.6088142416
0.6088142422
0.6088100394
0.6088100014
0.6088140932
0.60881
0.60881
0.60881
0.60881
0.60881
0.60881
0.60881
0.60881
0.60881
0.6088103805
0.6088100326
0.6088100017
0.6088100012
0.6088100013
0.6088100014
0.6088100007
0.6088100006
0.6088100005
0.6088100004
0.6088100004
0.6088100004
0.6088100003
0.6088100002
0.6088100008
0.6088100007
0.6088100006
0.6088100007
0.6088100017
0.6088100047
0.6088100005
0.6088140479
0.60881
0.60881
0.60881
0.60881
0.60881
0.60881
0.60881
0.60881
0.60881
0.60881
0.6088107733
0.6088100227
0.6088100022
0.6088100019
0.6088100024
0.6088100009
0.6088100006
0.6088100004
0.6088100004
0.6088100003
0.6088100002
0.6088100002
0.6088100002
0.6088100006
0.6088100005
0.6088100006
0.6088100009
0.6088100046
0.6088100017
0.6088100001
0.6088136479
0.60881
0.60881
0.60881
0.60881
0.60881
0.60881
0.60881
0.60881
0.60881
0.60881
0.60881
0.6088109255
0.6088100813
0.6088100106
0.6088100524
0.6088100019
0.6088100008
0.6088100005
0.6088100004
0.6088100003
0.6088100002
0.6088100002
0.6088100002
0.6088100006
0.6088100007
0.608810001
0.6088100038
0.6088100349
0.6088100008
0.6088100001
0.6088117366
0.6088128568
0.6088135842
0.6088140214
0.6088137362
0.60881
0.60881
0.60881
0.60881
0.60881
0.60881
0.60881
0.60881
0.60881
0.6088126836
0.6088107827
0.6088100805
0.6088100018
0.6088100007
0.6088100004
0.6088100003
0.6088100002
0.6088100001
0.6088100001
0.6088100012
0.6088100008
0.6088100004
0.6088100002
0.60881
0.60881
0.60881
0.60881
0.60881
0.6088100001
0.6088100002
0.6088100006
0.6088100041
)
;

boundaryField
{
    walls
    {
        type            zeroGradient;
    }
    wallFilmFace_top
    {
        type            zeroGradient;
    }
    region0_to_wallFilmRegion_wallFilmFace
    {
        type            zeroGradient;
    }
    mirrorFace_top
    {
        type            zeroGradient;
    }
    region0_to_wallFilmRegion_mirrorFace
    {
        type            zeroGradient;
    }
    procBoundary1to0
    {
        type            processor;
        value           nonuniform List<scalar> 
52
(
0.6088100005
0.6088100033
0.6088100031
0.6088100024
0.6088100018
0.6088100012
0.608810001
0.6088100011
0.6088100011
0.6088100014
0.6088100017
0.6088100021
0.6088100022
0.6088100022
0.6088100022
0.6088100015
0.6088100015
0.6088100015
0.6088100103
0.6088100051
0.6088100053
0.6088100053
0.6088100031
0.608814493
0.608814493
0.6088113623
0.60881
0.60881
0.60881
0.60881
0.60881
0.60881
0.60881
0.60881
0.60881
0.60881
0.60881
0.60881
0.60881
0.60881
0.60881
0.60881
0.60881
0.60881
0.60881
0.60881
0.6088112411
0.6088100804
0.6088100054
0.6088100028
0.6088140769
0.60881
)
;
    }
    procBoundary1to2
    {
        type            processor;
        value           nonuniform List<scalar> 
33
(
0.60881419
0.6088100021
0.6088100021
0.6088100055
0.6088100055
0.6088103696
0.60881
0.60881
0.60881
0.60881
0.60881
0.60881
0.60881
0.60881
0.60881
0.6088142692
0.6088100098
0.6088100042
0.6088100029
0.6088100033
0.6088100067
0.608810543
0.60881
0.60881
0.60881
0.60881
0.6088142678
0.6088111991
0.6088104466
0.6088113508
0.6088131915
0.60881
0.6088119424
)
;
    }
}


// ************************************************************************* //
