/*--------------------------------*- C++ -*----------------------------------*\
  =========                 |
  \\      /  F ield         | OpenFOAM: The Open Source CFD Toolbox
   \\    /   O peration     | Website:  https://openfoam.org
    \\  /    A nd           | Version:  8
     \\/     M anipulation  |
\*---------------------------------------------------------------------------*/
FoamFile
{
    version     2.0;
    format      ascii;
    class       volScalarField;
    location    "0.3/wallFilmRegion";
    object      sigma;
}
// * * * * * * * * * * * * * * * * * * * * * * * * * * * * * * * * * * * * * //

dimensions      [1 0 -2 0 0 0 0];

internalField   nonuniform List<scalar> 
1369
(
0.07244713475
0.07244713442
0.07244713449
0.07244713458
0.07244713464
0.07244713468
0.07244713468
0.07244713474
0.07244713447
0.07244713454
0.07244713459
0.07244713464
0.07244713466
0.07244713465
0.07244713462
0.07244713458
0.07244713454
0.07244713451
0.07244713473
0.07244713446
0.07244713451
0.07244713455
0.07244713457
0.07244713458
0.07244713457
0.07244713454
0.07244713451
0.0724471345
0.07244713452
0.07244713456
0.0724471346
0.07244713472
0.07244713431
0.07244713435
0.07244713437
0.07244713435
0.07244713433
0.07244713433
0.07244713434
0.07244713438
0.07244713448
0.07244713458
0.07244713464
0.07244713468
0.07244713469
0.07244713469
0.07244712949
0.07244713296
0.0724471347
0.0724471322
0.07244713106
0.07244712516
0.07244708623
0.07244712196
0.07244713158
0.0724471336
0.07244713382
0.07244713452
0.07244713466
0.07244713471
0.07244713474
0.07244713475
0.07244713474
0.07244711763
0.07244712305
0.07244709095
0.0724465282
0.07244713434
0.07244713156
0.0724471265
0.07244710845
0.07244640729
0.07244693983
0.07244712889
0.07244713423
0.07244713457
0.07244713466
0.07244713472
0.07244713475
0.07244713477
0.07244713477
0.07244713476
0.07244713391
0.07244713409
0.07244713393
0.07244713249
0.07244702289
0.07244713482
0.07244713482
0.07244713482
0.07244713449
0.07244713308
0.07244713016
0.07244711891
0.07244712431
0.07244713423
0.07244713464
0.0724471347
0.07244713472
0.07244713474
0.07244713476
0.07244713477
0.07244713477
0.07244713478
0.07244713478
0.0724471345
0.07244713459
0.0724471346
0.07244713451
0.07244713402
0.0724470962
0.07244713482
0.07244713482
0.07244713482
0.07244713482
0.07244713455
0.07244713373
0.07244713221
0.07244713309
0.07244713453
0.07244713469
0.07244713473
0.07244713476
0.07244713476
0.07244713476
0.07244713476
0.07244713476
0.07244713477
0.07244713478
0.07244713478
0.07244713449
0.07244713461
0.07244713466
0.07244713466
0.07244713458
0.07244713408
0.07244709397
0.07244713482
0.07244713482
0.07244713482
0.07244713482
0.07244713459
0.07244713413
0.07244713329
0.07244713386
0.07244713455
0.07244713462
0.07244713458
0.07244713354
0.07244713455
0.07244713467
0.07244713472
0.07244713475
0.07244713477
0.07244713479
0.07244713478
0.07244656608
0.07244644898
0.07244647099
0.07244648787
0.0724464893
0.07244656879
0.07244713482
0.07244713482
0.07244713482
0.07244713482
0.07244713482
0.07244713461
0.07244713441
0.07244713422
0.07244713451
0.07244713465
0.07244713465
0.07244713461
0.07244713435
0.07244713464
0.0724471347
0.07244713473
0.07244713476
0.07244713478
0.07244713479
0.07244713478
0.07244713229
0.07244712639
0.07244708703
0.07244683298
0.0724465342
0.07244682954
0.07244713482
0.07244713482
0.07244713482
0.07244713482
0.07244713482
0.07244713482
0.07244713461
0.07244713457
0.07244713456
0.07244713464
0.07244713467
0.07244713465
0.07244713465
0.07244713469
0.07244713472
0.07244713474
0.07244713475
0.07244713477
0.07244713477
0.07244713478
0.07244713477
0.07244713445
0.07244713435
0.07244713415
0.07244713376
0.07244713277
0.07244712593
0.07244699042
0.07244670909
0.07244713482
0.07244713482
0.07244713482
0.07244713482
0.07244713458
0.0724471346
0.07244713464
0.07244713467
0.07244713467
0.07244713468
0.0724471347
0.07244713473
0.07244713474
0.07244713475
0.07244713476
0.07244713477
0.07244713477
0.07244713477
0.07244713475
0.07244713468
0.07244713469
0.07244713468
0.07244713466
0.07244713462
0.07244713455
0.07244713437
0.07244713345
0.07244705059
0.07244713482
0.07244713482
0.07244713482
0.07244713447
0.07244713462
0.07244713467
0.07244713467
0.07244713467
0.07244713468
0.0724471347
0.07244713473
0.07244713474
0.07244713475
0.07244713476
0.07244713476
0.07244713476
0.07244713475
0.07244713472
0.07244713474
0.07244713477
0.07244713477
0.07244713477
0.07244713475
0.07244713473
0.0724471347
0.07244713467
0.07244713453
0.07244712416
0.07244713482
0.07244713482
0.07244713482
0.0724471346
0.07244713467
0.07244713468
0.07244713466
0.0724471346
0.07244713447
0.07244713413
0.07244713297
0.07244713461
0.0724471347
0.07244713473
0.07244713474
0.07244713475
0.07244713474
0.07244713472
0.07244670436
0.07244713216
0.07244713311
0.07244654635
0.07244656375
0.07244657669
0.07244656302
0.07244657884
0.07244687856
0.07244713482
0.07244713482
0.07244713482
0.07244713482
0.07244713482
0.07244713467
0.07244713469
0.07244713468
0.07244713464
0.07244713456
0.0724471344
0.07244713395
0.0724470787
0.072447134
0.07244713465
0.07244713471
0.07244713473
0.07244713475
0.07244713475
0.07244713473
0.07244713274
0.07244713428
0.07244713434
0.07244649939
0.07244713482
0.07244713482
0.07244713482
0.07244713482
0.07244713482
0.07244713482
0.07244713482
0.07244713482
0.07244713482
0.07244713482
0.07244713471
0.07244713469
0.07244713467
0.07244713462
0.07244713454
0.07244713436
0.07244713398
0.0724471335
0.07244713437
0.07244713413
0.07244713462
0.07244713466
0.07244713468
0.07244713469
0.07244713467
0.07244713433
0.07244713451
0.07244713452
0.07244650047
0.07244713482
0.07244713482
0.07244713482
0.07244713482
0.07244713482
0.07244713482
0.07244713482
0.07244713482
0.07244713482
0.07244713482
0.07244713474
0.07244713468
0.07244713465
0.0724471346
0.07244713452
0.07244713438
0.07244713429
0.07244713436
0.07244713454
0.07244713412
0.07244713427
0.0724471345
0.07244713452
0.07244713454
0.07244713454
0.07244713452
0.07244713458
0.0724471346
0.0724464993
0.07244713482
0.07244713482
0.07244713482
0.07244713482
0.07244713482
0.07244713482
0.07244713482
0.07244713482
0.07244713482
0.07244713482
0.07244713482
0.07244713482
0.07244713482
0.07244657825
0.07244653317
0.07244713477
0.07244713466
0.07244713464
0.0724471346
0.07244713455
0.0724471345
0.07244713451
0.07244713454
0.07244713458
0.0724471345
0.07244713447
0.07244713424
0.0724471342
0.07244713422
0.07244713429
0.07244713457
0.07244713462
0.07244713467
0.07244650138
0.07244713482
0.07244713482
0.07244713482
0.07244713482
0.07244713482
0.07244713482
0.07244713482
0.07244713482
0.07244713482
0.07244713482
0.07244713482
0.07244713482
0.07244713482
0.07244713482
0.07244713482
0.07244713474
0.07244713468
0.07244713466
0.07244713462
0.07244713458
0.07244713457
0.07244713458
0.07244713458
0.07244713454
0.07244713049
0.07244713439
0.07244713437
0.07244713402
0.07244713376
0.07244713386
0.0724471346
0.07244713466
0.0724471347
0.07244650408
0.07244713482
0.07244713482
0.07244713482
0.07244713482
0.07244713482
0.07244713482
0.07244713482
0.07244713482
0.07244713482
0.07244713482
0.07244713482
0.07244664829
0.07244655177
0.07244657118
0.07244654642
0.07244713471
0.07244713469
0.07244713467
0.07244713465
0.07244713462
0.07244713461
0.07244713461
0.07244713459
0.07244713446
0.0724471342
0.07244713458
0.07244713455
0.07244713415
0.07244713357
0.07244713339
0.07244713464
0.0724471347
0.07244713472
0.07244649889
0.07244713482
0.07244713482
0.07244713482
0.07244713482
0.07244713482
0.07244713482
0.07244713482
0.07244713482
0.07244713482
0.0724468599
0.07244713144
0.07244713434
0.07244713449
0.07244713453
0.07244713466
0.07244713468
0.07244713468
0.07244713466
0.07244713464
0.07244713464
0.07244713463
0.0724471346
0.07244713444
0.07244713449
0.07244713464
0.07244713464
0.07244713436
0.07244713376
0.07244713338
0.07244713468
0.07244713472
0.07244713474
0.07244649849
0.07244713482
0.07244713482
0.07244713482
0.07244713482
0.07244713482
0.07244713482
0.07244713482
0.07244713482
0.07244713482
0.07244713482
0.07244693103
0.07244711396
0.07244713338
0.07244713456
0.07244713465
0.07244713468
0.07244713467
0.07244713466
0.07244713465
0.07244713464
0.07244713457
0.07244713443
0.07244713453
0.07244713467
0.07244713468
0.0724471346
0.07244713446
0.07244713413
0.07244713471
0.07244713474
0.07244713475
0.07244651145
0.07244713482
0.07244713482
0.07244713482
0.07244713482
0.07244713482
0.07244713482
0.07244713482
0.07244713482
0.07244713482
0.07244713482
0.07244713482
0.07244713482
0.07244659174
0.07244713411
0.07244713461
0.07244713467
0.07244713468
0.07244713467
0.07244713466
0.07244713464
0.07244713455
0.07244713442
0.07244713453
0.07244713469
0.07244713469
0.07244713466
0.07244713467
0.0724471347
0.07244713473
0.07244713475
0.07244713476
0.07244652859
0.07244648061
0.07244649175
0.07244650792
0.07244653682
0.07244713482
0.07244713482
0.07244713482
0.07244713482
0.07244713482
0.07244713482
0.07244713482
0.07244713482
0.07244713482
0.07244713465
0.07244713468
0.07244713469
0.0724471347
0.07244713471
0.07244713471
0.07244713471
0.07244713467
0.07244713459
0.07244713447
0.07244713471
0.07244713473
0.07244713475
0.07244713476
0.07244713477
0.07244713478
0.07244713479
0.07244713479
0.07244713471
0.07244713472
0.07244713455
0.07244713427
0.07244713363
0.07244710513
0.07244652416
0.07244651916
0.07244713482
0.07244713482
0.07244713482
0.07244713482
0.07244713482
0.07244713466
0.0724471347
0.07244713471
0.07244713472
0.07244713473
0.07244713473
0.07244713472
0.0724471347
0.07244713467
0.07244713465
0.07244713466
0.07244713468
0.07244713471
0.07244713474
0.07244713476
0.07244713478
0.07244713479
0.07244713479
0.07244713463
0.07244713459
0.07244713442
0.07244713428
0.07244713432
0.07244713442
0.07244713439
0.07244713413
0.07244712976
0.0724466754
0.07244713482
0.07244713482
0.07244713482
0.07244713465
0.07244713469
0.07244713472
0.07244713473
0.07244713474
0.07244713474
0.07244713473
0.07244713472
0.07244713469
0.07244713467
0.07244713466
0.07244713463
0.07244713464
0.07244713468
0.07244713473
0.07244713476
0.07244713477
0.07244713478
0.0724471343
0.07244713423
0.07244713419
0.07244713424
0.07244713428
0.07244713422
0.07244713385
0.07244712592
0.07244666335
0.07244713482
0.07244713482
0.07244713482
0.07244713482
0.07244713461
0.07244713468
0.07244713471
0.07244713473
0.07244713474
0.07244713474
0.07244713474
0.07244713473
0.07244713471
0.0724471347
0.07244713468
0.07244713465
0.07244713461
0.07244713459
0.07244713464
0.07244713473
0.07244713475
0.07244713476
0.07244713266
0.07244713316
0.07244713339
0.07244713345
0.07244713326
0.07244713193
0.0724470925
0.0724467257
0.07244713482
0.07244713482
0.07244713482
0.07244713482
0.07244713482
0.07244713424
0.07244713464
0.0724471347
0.07244713472
0.07244713473
0.07244713474
0.07244713474
0.07244713473
0.07244713472
0.07244713471
0.0724471347
0.07244713468
0.07244713463
0.07244713455
0.07244713455
0.07244713469
0.07244713472
0.07244713474
0.07244709288
0.07244712
0.07244712205
0.07244711558
0.07244706596
0.07244658792
0.07244713482
0.07244713482
0.07244713482
0.07244713482
0.07244713482
0.07244713482
0.07244713482
0.07244697068
0.07244713435
0.07244713464
0.07244713468
0.0724471347
0.0724471347
0.0724471347
0.07244713471
0.07244713472
0.07244713472
0.07244713471
0.07244713469
0.07244713466
0.07244713459
0.07244713454
0.07244713466
0.07244713469
0.07244713473
0.07244651027
0.07244651162
0.07244651966
0.07244651727
0.07244713482
0.07244713482
0.07244713482
0.07244713482
0.07244713482
0.07244713482
0.07244713482
0.07244713482
0.07244713482
0.07244707493
0.0724469171
0.07244713406
0.07244713453
0.07244713454
0.07244713448
0.07244713457
0.07244713465
0.07244713469
0.07244713471
0.07244713471
0.07244713471
0.07244713467
0.07244713462
0.07244713456
0.07244713462
0.07244713465
0.07244713471
0.07244652362
0.07244713482
0.07244713482
0.07244713482
0.07244713482
0.07244713482
0.07244713482
0.07244713482
0.07244713482
0.07244713482
0.07244713482
0.07244713482
0.07244713482
0.07244657235
0.07244650815
0.07244656035
0.07244712883
0.07244713383
0.07244713436
0.07244713442
0.07244713454
0.07244713464
0.07244713468
0.0724471347
0.0724471347
0.07244713468
0.07244713463
0.07244713457
0.07244713459
0.07244713461
0.07244713468
0.07244652549
0.07244713482
0.07244713482
0.07244713482
0.07244713482
0.07244713482
0.07244713482
0.07244713482
0.07244713482
0.07244713482
0.07244675182
0.07244651716
0.07244651468
0.07244713472
0.0724471345
0.07244713445
0.07244713437
0.07244713429
0.07244713424
0.07244713416
0.07244713432
0.07244713452
0.07244713462
0.07244713467
0.07244713469
0.07244713468
0.07244713464
0.07244713457
0.07244713456
0.07244713455
0.07244713462
0.07244651829
0.07244713482
0.07244713482
0.07244713482
0.07244713482
0.07244713482
0.07244713482
0.07244713482
0.07244713482
0.07244701239
0.07244713372
0.07244713423
0.07244713416
0.07244713474
0.07244713463
0.07244713459
0.07244713455
0.0724471345
0.07244713442
0.07244713432
0.07244713423
0.07244713434
0.07244713451
0.07244713459
0.07244713465
0.07244713466
0.07244713463
0.07244713457
0.07244713456
0.07244713449
0.07244713454
0.07244651576
0.07244713482
0.07244713482
0.07244713482
0.07244713482
0.07244713482
0.07244713482
0.07244713482
0.07244713482
0.07244704931
0.07244713402
0.07244713436
0.07244713439
0.07244713474
0.07244713468
0.07244713466
0.07244713462
0.07244713458
0.07244713452
0.07244713443
0.07244713428
0.07244713412
0.07244713419
0.07244713432
0.07244713456
0.07244713462
0.07244713461
0.07244713456
0.07244713458
0.07244713448
0.07244713442
0.0724465179
0.07244713482
0.07244713482
0.07244713482
0.07244713482
0.07244713482
0.07244713482
0.07244713482
0.07244713482
0.07244691964
0.07244713064
0.07244713425
0.0724471344
0.07244713473
0.07244713471
0.07244713469
0.07244713466
0.07244713462
0.07244713457
0.07244713449
0.07244713434
0.07244713405
0.07244713354
0.0724471323
0.07244713436
0.07244713454
0.07244713457
0.07244713461
0.07244713458
0.07244713452
0.07244713434
0.0724465174
0.07244713482
0.07244713482
0.07244713482
0.07244713482
0.07244713482
0.07244713482
0.07244713482
0.07244713482
0.07244713482
0.07244686222
0.07244713121
0.0724471342
0.07244713471
0.07244713471
0.0724471347
0.07244713468
0.07244713465
0.07244713461
0.07244713453
0.0724471344
0.07244713411
0.07244713338
0.07244696519
0.0724471337
0.07244713433
0.07244713448
0.07244713478
0.07244713456
0.07244713456
0.07244713442
0.07244651927
0.07244713482
0.07244713482
0.07244713482
0.07244713482
0.07244713482
0.07244713482
0.07244713482
0.07244713482
0.07244713482
0.07244713482
0.07244682076
0.07244712716
0.07244713468
0.07244713469
0.0724471347
0.0724471347
0.07244713468
0.07244713463
0.07244713457
0.07244713445
0.07244713419
0.07244713348
0.07244650805
0.07244688512
0.07244713115
0.07244713471
0.07244713482
0.07244713448
0.07244713454
0.07244713449
0.07244651746
0.07244713482
0.07244713482
0.07244713482
0.07244713482
0.07244713482
0.07244713482
0.07244713482
0.07244713482
0.07244713482
0.07244713482
0.07244713482
0.0724468928
0.07244713449
0.07244713465
0.07244713469
0.0724471347
0.07244713469
0.07244713466
0.0724471346
0.07244713449
0.07244713427
0.07244713415
0.07244713465
0.07244713476
0.07244713482
0.07244713482
0.07244713483
0.07244713481
0.07244713475
0.0724471346
0.07244713408
0.07244695635
0.07244713482
0.07244713482
0.07244713482
0.07244713482
0.07244713482
0.07244713482
0.07244713482
0.07244713482
0.07244713482
0.07244713482
0.07244713482
0.07244707764
0.07244713441
0.07244713465
0.07244713469
0.0724471347
0.07244713468
0.07244713463
0.07244713454
0.07244713433
0.0724471338
0.07244713277
0.07244713468
0.07244713479
0.07244713482
0.07244713483
0.0724471347
0.07244713447
0.07244713418
0.0724470961
0.07244713482
0.07244713482
0.07244713482
0.07244713482
0.07244713482
0.07244713482
0.07244713482
0.07244713482
0.07244713482
0.07244713482
0.07244713482
0.07244713482
0.07244713482
0.07244709547
0.07244713448
0.07244713466
0.07244713469
0.07244713469
0.07244713466
0.07244713458
0.0724471344
0.07244713388
0.07244650191
0.07244712764
0.07244713466
0.07244713479
0.07244713482
0.07244713374
0.07244712828
0.07244713447
0.07244654459
0.07244713482
0.07244713482
0.07244713482
0.07244713482
0.07244713482
0.07244713482
0.07244713482
0.07244713482
0.07244713482
0.07244713482
0.07244713482
0.07244713482
0.07244713482
0.07244707935
0.07244712873
0.07244713457
0.07244713467
0.07244713469
0.07244713468
0.07244713463
0.07244713448
0.07244713405
0.07244650477
0.07244706467
0.07244713009
0.07244713472
0.07244713479
0.07244703457
0.07244713419
0.07244713468
0.07244652784
0.07244713482
0.07244713482
0.07244713482
0.07244713482
0.07244713482
0.07244713482
0.07244713482
0.07244713482
0.07244713482
0.07244713482
0.07244713482
0.07244713482
0.07244713482
0.07244713482
0.07244687043
0.07244713366
0.07244713462
0.07244713468
0.07244713469
0.07244713466
0.07244713456
0.07244713426
0.07244650753
0.07244713482
0.07244688471
0.07244713424
0.07244713472
0.07244713165
0.07244713454
0.07244713472
0.07244653785
0.07244713482
0.07244713482
0.07244713482
0.07244713482
0.07244713482
0.07244664777
0.07244713482
0.07244713482
0.07244713482
0.07244713482
0.07244713482
0.07244713482
0.07244713482
0.07244713482
0.07244713482
0.07244692718
0.07244713438
0.07244713466
0.07244713469
0.07244713468
0.07244713463
0.07244713447
0.07244650947
0.07244713482
0.07244713482
0.07244709234
0.07244713452
0.07244713334
0.0724471346
0.0724471347
0.07244652984
0.07244713482
0.07244713482
0.07244713482
0.07244713482
0.07244668502
0.07244713335
0.07244713482
0.07244713482
0.07244713482
0.07244713482
0.07244713482
0.07244713482
0.07244713482
0.07244713482
0.07244713482
0.07244713482
0.07244711628
0.07244713454
0.07244713466
0.07244713468
0.07244713466
0.07244713458
0.07244652248
0.07244652705
0.0724465149
0.07244651355
0.07244710732
0.07244713325
0.07244713456
0.07244713463
0.07244653516
0.07244653799
0.07244652591
0.07244651996
0.07244651988
0.07244712911
0.07244713462
0.07244654147
0.07244713482
0.07244713482
0.07244713482
0.07244713482
0.07244713482
0.07244713482
0.07244713482
0.07244713482
0.07244713482
0.07244707967
0.0724471301
0.07244713457
0.07244713465
0.07244713464
0.07244713462
0.07244713472
0.07244713474
0.07244713476
0.07244713476
0.07244713476
0.07244713477
0.07244713479
0.07244713479
0.07244713471
0.07244713473
0.07244713474
0.07244713473
0.07244713458
0.07244713414
0.07244713475
0.07244654804
0.07244713482
0.07244713482
0.07244713482
0.07244713482
0.07244713482
0.07244713482
0.07244713482
0.07244713482
0.07244713482
0.07244713482
0.07244702273
0.07244713154
0.0724471345
0.07244713455
0.07244713447
0.0724471347
0.07244713474
0.07244713476
0.07244713477
0.07244713478
0.07244713479
0.0724471348
0.0724471348
0.07244713474
0.07244713475
0.07244713474
0.07244713469
0.07244713416
0.07244713458
0.07244713481
0.07244660603
0.07244713482
0.07244713482
0.07244713482
0.07244713482
0.07244713482
0.07244713482
0.07244713482
0.07244713482
0.07244713482
0.07244713482
0.07244713482
0.07244700067
0.07244712304
0.07244713329
0.07244712722
0.07244713455
0.07244713471
0.07244713475
0.07244713477
0.07244713478
0.07244713479
0.0724471348
0.0724471348
0.07244713474
0.07244713473
0.07244713468
0.07244713427
0.07244712976
0.0724471347
0.07244713482
0.07244688308
0.0724467207
0.07244661526
0.07244655189
0.07244659323
0.07244713482
0.07244713482
0.07244713482
0.07244713482
0.07244713482
0.07244713482
0.07244713482
0.07244713482
0.07244713482
0.07244674581
0.07244702136
0.07244712316
0.07244713457
0.07244713472
0.07244713476
0.07244713478
0.0724471348
0.0724471348
0.07244713481
0.07244713465
0.07244713471
0.07244713476
0.0724471348
0.07244713482
0.07244713483
0.07244713483
0.07244713482
0.07244713482
0.07244713481
0.07244713479
0.07244713474
0.07244713423
)
;

boundaryField
{
    walls
    {
        type            zeroGradient;
    }
    wallFilmFace_top
    {
        type            zeroGradient;
    }
    region0_to_wallFilmRegion_wallFilmFace
    {
        type            zeroGradient;
    }
    mirrorFace_top
    {
        type            zeroGradient;
    }
    region0_to_wallFilmRegion_mirrorFace
    {
        type            zeroGradient;
    }
    procBoundary1to0
    {
        type            processor;
        value           nonuniform List<scalar> 
52
(
0.07244713475
0.07244713434
0.07244713437
0.07244713447
0.07244713456
0.07244713465
0.07244713468
0.07244713466
0.07244713466
0.07244713463
0.07244713458
0.07244713452
0.0724471345
0.0724471345
0.07244713451
0.07244713461
0.07244713461
0.0724471346
0.07244713332
0.07244713409
0.07244713405
0.07244713405
0.07244713437
0.07244648352
0.07244648352
0.07244693735
0.07244713482
0.07244713482
0.07244713482
0.07244713482
0.07244713482
0.07244713482
0.07244713482
0.07244713482
0.07244713482
0.07244713482
0.07244713482
0.07244713482
0.07244713482
0.07244713482
0.07244713482
0.07244713482
0.07244713482
0.07244713482
0.07244713482
0.07244713482
0.07244695492
0.07244712317
0.07244713404
0.07244713441
0.07244654383
0.07244713482
)
;
    }
    procBoundary1to2
    {
        type            processor;
        value           nonuniform List<scalar> 
33
(
0.07244652744
0.07244713452
0.07244713452
0.07244713402
0.07244713402
0.07244708124
0.07244713482
0.07244713482
0.07244713482
0.07244713482
0.07244713482
0.07244713482
0.07244713482
0.07244713482
0.07244713482
0.07244651596
0.0724471334
0.07244713421
0.0724471344
0.07244713434
0.07244713385
0.07244705612
0.07244713482
0.07244713482
0.07244713482
0.07244713482
0.07244651617
0.072446961
0.07244707009
0.07244693902
0.07244667219
0.07244713482
0.07244685326
)
;
    }
}


// ************************************************************************* //
