/*--------------------------------*- C++ -*----------------------------------*\
  =========                 |
  \\      /  F ield         | OpenFOAM: The Open Source CFD Toolbox
   \\    /   O peration     | Website:  https://openfoam.org
    \\  /    A nd           | Version:  8
     \\/     M anipulation  |
\*---------------------------------------------------------------------------*/
FoamFile
{
    version     2.0;
    format      ascii;
    class       volScalarField;
    location    "1.3";
    object      alphat;
}
// * * * * * * * * * * * * * * * * * * * * * * * * * * * * * * * * * * * * * //

dimensions      [1 -1 -1 0 0 0 0];

internalField   nonuniform List<scalar> 
67451
(
0.0001712121974
0.0001798004963
0.0001976612659
0.0002195164268
0.0002381235452
0.0002398914405
0.000208269812
0.0002030944897
0.0002018042367
0.0002023442742
0.0002016285666
0.000259553808
0.0002282464423
0.0002036078754
0.0001862940424
0.0001819141121
0.0001741827415
0.000179596234
0.0001865746613
0.0002011240159
0.0001928910284
0.0001983462778
0.000205690774
0.0002179356978
0.0002116827158
0.0002075728164
0.000208040792
0.0002151703024
0.000225235302
0.0002335483987
0.0002585314032
0.0003056199664
0.0003560103603
0.000381091786
0.0003835012925
0.000369155387
0.0003250206474
0.0003191373938
0.0002875719035
0.0002559864376
0.0002280645145
0.0002086568416
0.0001965329428
0.0001877972196
0.0001831107375
0.0001887150452
0.0002023750999
0.0002328683645
0.0002114109353
0.0002135732643
0.0002244983201
0.0002485713042
0.0002362540537
0.0002247049493
0.0002156869331
0.000218770965
0.000233456366
0.0002605950803
0.0003061357116
0.0003561180084
0.0003962465097
0.000414784463
0.0004154521117
0.0003978766304
0.0003414280418
0.000307072178
0.0002750134786
0.0002464114191
0.0002245464519
0.0002116525231
0.0002053499651
0.0002012420134
0.0001965289786
0.0002058161735
0.0002307041853
0.0002793100425
0.0002483626851
0.0002399488969
0.0002539402201
0.0002843167823
0.0002735047401
0.0002561770104
0.0002345973433
0.0002310392393
0.000256005661
0.000301115901
0.0003530033864
0.0003962833805
0.0004288249785
0.0004431181246
0.0004425535087
0.0004236119607
0.0003547282903
0.0002501014994
0.0002349657665
0.0002245542423
0.0002186757294
0.0002165734467
0.0002154129333
0.0002119559102
0.0002277561969
0.0002641652622
0.000327558614
0.0002987485145
0.0002793471429
0.0002881646087
0.0003124658447
0.0003171414637
0.000299159323
0.0002691170686
0.0002556460049
0.0002746501099
0.0003298039747
0.0003833159384
0.0004214569591
0.0004496591356
0.0004622795013
0.0004618303621
0.0004431437939
0.0003644907697
0.0002420891656
0.000238542632
0.0002349146461
0.0002318686959
0.0002307587823
0.0002311193708
0.0002286259962
0.0002530035912
0.0003056714755
0.0003753463752
0.0003623731239
0.0003316251688
0.0003335139178
0.0003569685546
0.0003629674176
0.0003477413404
0.0003175856942
0.0002788732204
0.0002798842542
0.0003362876685
0.0003978833252
0.0004336607898
0.0004603481543
0.000472187448
0.0004717901658
0.0004538442162
0.0003702787953
0.0002542584964
0.0002533027799
0.0002500218117
0.0002466580762
0.0002455143397
0.0002504990239
0.0002462432565
0.0002847378686
0.0003689573223
0.0004435070853
0.0004380495906
0.0003991498342
0.0003849450176
0.0003987478184
0.0004051209357
0.0003934168884
0.0003659192498
0.0003265545052
0.0002876831381
0.0003102870136
0.0003949161944
0.0004213006715
0.0004491396186
0.0004637301819
0.0004620990544
0.0004415888973
0.000359919526
0.0002708906362
0.0002685721146
0.0002645580882
0.0002613228858
0.0002604182246
0.0002595626007
0.0002663476674
0.0003294502668
0.0004355990848
0.0005157484534
0.0005117962997
0.0004710780238
0.0004429058825
0.000435583274
0.0004400178753
0.0004322524069
0.0004091995447
0.0003745985327
0.0003307822222
0.0002902157984
0.0003179594747
0.0003832060319
0.0004308732305
0.0004561632348
0.0004440129663
0.0004199312149
0.0003471593011
0.0002849381715
0.0002810579759
0.0002774235596
0.000275614888
0.0002761596364
0.0002762739986
0.0002812816344
0.0003383183043
0.000449868648
0.0005515606636
0.0005523692809
0.0005181757132
0.0004763024767
0.0004602801565
0.0004612689977
0.0004562762059
0.0004380419593
0.0004123249289
0.0003730600164
0.0003289780286
0.0002965975787
0.000325430885
0.00038265725
0.0004095329236
0.0004093882746
0.0003904550839
0.000331374278
0.0002998250201
0.0002926599307
0.0002898953891
0.0002903622915
0.0002931086402
0.0002943536162
0.0002914735589
0.0002917501815
0.0003505568091
0.0004999424831
0.0004757059373
0.0004106592474
0.0004067406
0.0004395411675
0.0004546971914
0.0004496836324
0.0004288611615
0.0003954635618
0.0003529926048
0.000314180259
0.0002876483971
0.0002908624937
0.0003370633143
0.0003678848206
0.0003758714011
0.0003626570881
0.0003138589606
0.0003309159098
0.0003093765049
0.0003043645013
0.0003065078209
0.0003112473647
0.0003134851745
0.0003102085041
0.0002999388497
0.000294831271
0.0003782515042
0.0003554794346
0.0003256420816
0.0003441385896
0.0003975592543
0.0004220914658
0.0004187006073
0.0003963024996
0.0003625003291
0.0003295993455
0.0003052751361
0.0002904376255
0.0002849656117
0.000304529933
0.0003312201718
0.0003472561454
0.0003346665142
0.0002946021166
0.0004159256928
0.0003435213763
0.0003236172746
0.000324468185
0.0003303663069
0.0003336322036
0.0003307417685
0.0003195939089
0.0003054960053
0.0003016210802
0.0003017452504
0.0003085708426
0.0003335592582
0.0003661697456
0.0003866736007
0.0003840136606
0.0003663204859
0.0003427027362
0.0003223609931
0.0003073862158
0.0002982267725
0.0002918780759
0.0002926582954
0.0003042339921
0.0003154383249
0.0003068584828
0.0002737991327
0.000589108987
0.0004191898859
0.0003535750917
0.000345323086
0.0003494145986
0.0003521235889
0.0003498774323
0.0003409861736
0.0003257386273
0.0003106681724
0.0003146244157
0.0003416804352
0.0003547729768
0.0003732446147
0.000384225669
0.0003834924381
0.0003742908127
0.0003599155292
0.0003425511521
0.0003252023792
0.000311701929
0.0003019202443
0.0002946645845
0.0002924025026
0.0002929357106
0.0002838196607
0.0002539855225
0.0008071613104
0.0005608820118
0.0004076601144
0.0003728435127
0.0003705346799
0.0003703157304
0.0003674052428
0.0003600409415
0.0003470518115
0.0003300124198
0.0003249979203
0.0003432402638
0.0003709732362
0.0003894885641
0.0003977242083
0.0003978155588
0.0003917175139
0.0003805577052
0.0003649408265
0.00034634166
0.0003280857586
0.0003127470761
0.0003006022736
0.0002914376237
0.0002835504484
0.0002711256714
0.0002394075964
0.0005562893182
0.0004145435023
0.0003946010524
0.0004193225949
0.000406766057
0.0003926271815
0.0003858273942
0.0003783684429
0.0003664172735
0.000348863819
0.0003393431746
0.0003537396269
0.0003798932415
0.0003977658982
0.0004061004986
0.000407234165
0.000402703399
0.0003932159234
0.000379081206
0.0003609835793
0.0003408846137
0.000321566093
0.0003053217053
0.0002927734434
0.0002814834516
0.0002670556095
0.0002319640136
0.00042441768
0.0004188820811
0.0004466230819
0.00055919922
0.0005061780601
0.0004305626252
0.0004071484306
0.0003975584691
0.0003867366185
0.0003687064428
0.0003511161414
0.0003563646331
0.0003800821405
0.0003991279043
0.0004088728934
0.0004113620471
0.0004081353993
0.0003998444714
0.0003867572268
0.000369288513
0.0003485630763
0.0003266976647
0.0003074391315
0.0002923034389
0.0002796764658
0.0002652050391
0.0002289993352
0.0004320830717
0.0004535747067
0.0004875345293
0.0006455590025
0.0007846104851
0.0005323541473
0.0004397392059
0.0004224451414
0.0004155371908
0.0004013566575
0.0003783751351
0.0003661740505
0.0003778324714
0.0003951835755
0.000406283279
0.0004103169904
0.0004083864975
0.0004011247182
0.0003888325844
0.0003718537636
0.0003509073948
0.0003276835622
0.0003065323298
0.0002890542487
0.000275303528
0.0002615145953
0.0002265796168
0.0004521720265
0.0004692478962
0.0004802623622
0.0005278236622
0.0005490789242
0.0004700487139
0.0004477019492
0.0004434477552
0.0004418085618
0.0004328075777
0.0004118538926
0.0003876694009
0.0003799294527
0.0003882632901
0.0003984592993
0.000403743222
0.0004031517516
0.0003969348906
0.0003853888441
0.0003688583652
0.0003479319349
0.0003246533969
0.0003022346271
0.000282741468
0.0002678466546
0.0002547872178
0.0002223788594
0.0004639542236
0.0004780406904
0.0004820406732
0.0004899447965
0.0004825005253
0.0004643825462
0.0004558229038
0.0004556688642
0.0004567573268
0.0004506454256
0.0004327970609
0.0004060538332
0.0003848261989
0.0003803947187
0.0003861699181
0.000391622262
0.0003922496489
0.0003871488531
0.000376414574
0.0003604055016
0.0003398313325
0.0003172084159
0.0002940285084
0.0002730352683
0.0002573332373
0.0002450544605
0.0002155969747
0.0004683738794
0.000481672974
0.0004835560718
0.0004822263122
0.0004744252706
0.0004645410045
0.0004580497065
0.0004597170149
0.000461934608
0.0004570937882
0.0004409072959
0.0004143559333
0.0003865763195
0.0003712059644
0.000370345413
0.0003744962603
0.0003759489986
0.0003719577576
0.0003621146252
0.0003467955295
0.0003273994258
0.0003052845148
0.000281526915
0.0002596894725
0.0002439971131
0.0002327897546
0.0002062045467
0.0004658056262
0.0004799321974
0.0004813573761
0.0004778458867
0.0004701430578
0.000460588581
0.0004541641972
0.0004576321057
0.0004588351113
0.0004539128029
0.0004377409866
0.0004112517746
0.0003808624551
0.0003593158012
0.0003518860652
0.000353385675
0.0003549961787
0.0003519414097
0.0003430610577
0.0003290771847
0.0003108352642
0.0002887753863
0.0002646200399
0.0002429620298
0.0002285347277
0.0002188084813
0.0001946409663
0.0004557995325
0.0004721821198
0.0004738638973
0.0004696672388
0.0004614038279
0.0004513060138
0.0004450883073
0.0004613897623
0.0004520098108
0.0004458454499
0.0004253559279
0.0003972922436
0.0003667011811
0.0003433827072
0.0003322835758
0.0003308304434
0.0003314571194
0.00032885614
0.0003211074963
0.0003080848342
0.0002900560315
0.0002677759467
0.0002439251242
0.0002240334859
0.0002122186606
0.0002042047773
0.0001817754577
0.0004377936066
0.00045779709
0.0004601737473
0.0004558159181
0.0004469271129
0.0004360020909
0.0004276934943
0.0004869442852
0.0004350389886
0.0004200482294
0.0004000532153
0.0003723629766
0.0003444195137
0.0003218900809
0.0003097051706
0.0003067004357
0.0003065589033
0.000303930343
0.0002964177206
0.0002834213436
0.0002651990014
0.0002432188609
0.0002212240425
0.0002048578991
0.0001964398216
0.0001900177934
0.0001687627711
0.0004119055375
0.0004359121258
0.0004396155647
0.0004354826985
0.0004262993075
0.0004141950839
0.0004025282654
0.0004136533878
0.0003985938459
0.0003859409213
0.0003682702574
0.000348254603
0.0003240695664
0.0003006741655
0.0002862892583
0.0002813830082
0.000280064506
0.0002767925463
0.0002688684923
0.000255610604
0.0002377190363
0.0002175094101
0.0001991536059
0.0001872382156
0.0001819917958
0.0001768333766
0.0001566275073
0.0003787531516
0.0004060496127
0.0004118070866
0.0004082279464
0.0003992170807
0.0003871959107
0.0003749658285
0.0003704337293
0.000362473361
0.0003487732638
0.0003418528789
0.0004165597081
0.0004115018815
0.0003536841335
0.0002997827646
0.0002692534579
0.0002569804218
0.0002499442114
0.0002407572934
0.0002275073289
0.0002110651587
0.0001939927264
0.0001799028505
0.0001718459674
0.0001687945786
0.0001646345383
0.0001457618344
0.0003429065789
0.0003703377034
0.0003780071346
0.0003755677005
0.0003677759179
0.0003568082918
0.0003442293926
0.0003348972498
0.0003253751266
0.0003095117662
0.0003195900698
0.0005054343612
0.0004867782106
0.0004047911111
0.0003205775495
0.0002654706009
0.0002398850135
0.0002276788734
0.0002168102137
0.0002038134838
0.0001891978658
0.0001750202803
0.0001639876985
0.0001581586188
0.0001562440943
0.0001529998648
0.0001358150218
0.0003082030512
0.0003317408035
0.0003397965723
0.000338238001
0.0003316903451
0.0003218189126
0.0003092893248
0.0002982169456
0.0002874737595
0.0002750234005
0.0002857314486
0.0004788950152
0.0004456698847
0.0003647149694
0.0002916269964
0.0002465900692
0.0002249560172
0.0002123232317
0.0002004961828
0.0001874430568
0.0001735885177
0.0001604791635
0.0001504194218
0.000145221955
0.0001437779023
0.0001415234141
0.0001261715318
0.0002771994231
0.0002922251329
0.0002976884169
0.0002961307475
0.0002908079105
0.0002824705634
0.0002715679854
0.0002623183045
0.0002543996278
0.0002494889038
0.0002537965601
0.0003888239998
0.000357499797
0.0002984217978
0.0002536471746
0.000229028667
0.0002148726189
0.0002029621838
0.0001903925006
0.0001766729514
0.0001622651437
0.0001486057505
0.0001380583156
0.0001325062593
0.0001312466194
0.0001301475607
0.000116589322
0.0002490773998
0.0002539224856
0.0002543643834
0.0002519036729
0.0002481488558
0.0002430518028
0.0002372789443
0.000233999868
0.0002325264229
0.0002338097353
0.0002360040974
0.0002998872089
0.0002794973663
0.0002496225709
0.0002300795368
0.0002175623923
0.0002065391209
0.0001947427666
0.0001816950106
0.000167437436
0.0001525171785
0.0001383768413
0.0001271419587
0.0001206121838
0.0001190866685
0.0001191755244
0.0001074315431
0.0002187809905
0.0002161574354
0.0002126587706
0.0002103197216
0.0002096800997
0.0002099629186
0.0002110297535
0.0002136069523
0.0002165942033
0.0002201566329
0.0002218216555
0.0002402198511
0.0002322088703
0.0002216137715
0.0002127840363
0.0002039483558
0.0001940113067
0.0001827645663
0.0001702972226
0.0001568833848
0.0001431510572
0.0001300799854
0.0001186420998
0.0001102032774
0.0001072193875
0.00010824349
9.848419253e-05
0.0001728725967
0.0001679346337
0.0001645941053
0.0001644503666
0.0001672850575
0.0001716362881
0.0001763035983
0.0001809240528
0.0001849181116
0.0001887078631
0.0001904811206
0.0001952321474
0.0001933823308
0.0001895992064
0.0001845864268
0.0001781439607
0.0001702536699
0.000161135
0.0001512228555
0.0001410635743
0.0001310521894
0.0001210083693
0.0001096348848
9.63597544e-05
9.092485412e-05
9.403817832e-05
0.0001927035047
0.0004219364488
0.0004867011748
0.0006597467961
0.0008076884102
0.0009168600067
0.0008986291066
0.0008557678441
0.0008493598961
0.0008215345677
0.0007921768933
0.0007270909585
0.0005360471339
0.000486902639
0.0005027003295
0.0004839129563
0.0005325715983
0.0004707011067
0.0005534498309
0.000640109456
0.0006762208629
0.0006738924558
0.0006946148166
0.0007906347832
0.0008617036559
0.0008089247123
0.000762212394
0.0007982859357
0.0008881495468
0.0009670511448
0.000948684818
0.0008449371253
0.0008077310081
0.0009132302091
0.001009286805
0.00099491176
0.0007719058118
0.0002816509167
0.001065757973
0.0007744751177
0.000568956749
0.0005285214262
0.0005555713706
0.0005433992897
0.0005051795049
0.0004894520215
0.0005622365301
0.0006731427361
0.000719510777
0.0006620217971
0.0006504221159
0.0007835343487
0.0009525962273
0.0008649154527
0.0007842329893
0.0008139503562
0.0008743235981
0.0009578665115
0.000991576871
0.0009814208201
0.00107284166
0.001178853242
0.001259221591
0.001237296176
0.000998064674
0.0003041593778
0.0009724709439
0.0007223658471
0.0005743332258
0.0005418064272
0.0005707866463
0.0005934124568
0.0005664316884
0.0005556468622
0.0006648475617
0.0008468837474
0.0009844883116
0.0008527249378
0.000735537479
0.0008249947236
0.001008508464
0.0009356790253
0.0007967791579
0.0008249045522
0.0008902334261
0.0009298506683
0.001047811491
0.001157561762
0.001274227018
0.001383313616
0.001453528463
0.001425445607
0.001173989311
0.0003249366297
0.0006905708647
0.0006145027365
0.0005950401
0.0006180215519
0.0006588512215
0.0006548998711
0.0006569167168
0.0008575993188
0.001071579974
0.001231843267
0.001121647602
0.0009916894775
0.0008617033933
0.0009332262675
0.0009302993256
0.0008440904313
0.0008391594053
0.001071357651
0.0009518045212
0.001116154589
0.00125928521
0.001394957544
0.00150744761
0.001575365356
0.001546286212
0.001285737436
0.0003387415717
0.000722157989
0.0007254782886
0.000724961966
0.0007338344969
0.0007659513854
0.0007869468076
0.0007663087464
0.0009830324161
0.001251328439
0.001379738615
0.001327909556
0.00107132938
0.001025322186
0.00107907457
0.001064811727
0.001009393833
0.0008852048318
0.0008498198591
0.0008877995512
0.00118298814
0.001335486984
0.001466170304
0.001573762104
0.001636398102
0.001601151076
0.001335636882
0.0003445657626
0.0008840702583
0.0009168738198
0.0009081035995
0.0008856576727
0.0008947065864
0.0009526404445
0.0008552330923
0.0009808007209
0.001408518914
0.001590147796
0.001579023812
0.001431787671
0.001379863158
0.001323861141
0.001276109947
0.001205635588
0.001099398901
0.0009352739217
0.0009173300824
0.001219591678
0.001361449156
0.001479501975
0.001591501779
0.001668548748
0.001590248124
0.001310601422
0.0003320244838
0.001093652026
0.001119182344
0.001094697111
0.001048056725
0.001010002874
0.0009654738533
0.0009398715191
0.001140023379
0.001623452959
0.001837900848
0.001856777881
0.00177651432
0.001681616102
0.001562296844
0.001477569234
0.001397170876
0.001299007092
0.001190547395
0.001027188887
0.001022194699
0.001175729149
0.00138487993
0.001618212531
0.001873972107
0.001583038129
0.001239504327
0.0003141674319
0.001261896016
0.001273073655
0.001252492066
0.001209993964
0.001162719982
0.00109395753
0.001061351396
0.001227568499
0.001684539726
0.001921127038
0.001955355279
0.001908871886
0.001806143608
0.001717556682
0.001617214805
0.001527034148
0.001435329573
0.001372120196
0.001230405274
0.001069548942
0.0009752883114
0.001065269646
0.001289408357
0.001392592096
0.001299030264
0.001042293012
0.000288635329
0.001368652149
0.001392952535
0.00138938981
0.00136663288
0.001332615517
0.001278324295
0.001227523708
0.001247098354
0.001602418841
0.001828679129
0.001930765908
0.001860881705
0.001786467263
0.001794092679
0.001699083936
0.001611427724
0.001527066088
0.001442060495
0.001334073579
0.001195955464
0.0010694041
0.0009967813327
0.001028058805
0.00108324713
0.001062483136
0.000857890673
0.0002650101932
0.001408296352
0.001482080321
0.001516438559
0.001514062457
0.001494085724
0.001457299729
0.001399918864
0.001316801767
0.001334582785
0.00144527259
0.001482378954
0.00137793366
0.001491378095
0.001666321772
0.001678160636
0.001644552643
0.001577948589
0.001478544617
0.001354536408
0.00126440307
0.001183833609
0.001075146046
0.0009646443688
0.0009012291003
0.0008924508499
0.0006849883724
0.0002467250683
0.001583127874
0.001554978018
0.001630442049
0.00164689175
0.001623353925
0.001588161723
0.001549385131
0.001483690053
0.001380409334
0.001316913141
0.001549692255
0.001484603029
0.001535009604
0.001649447479
0.001681897019
0.00166778608
0.00161365849
0.001523326534
0.00141726594
0.001349183101
0.00128919208
0.001189621589
0.00103799181
0.0008817660526
0.0007956708395
0.0005846641672
0.000234060584
0.002204426335
0.001761837544
0.001743969173
0.001775069707
0.001751050119
0.001711306787
0.001672251814
0.001632225067
0.001563916071
0.001459947211
0.001581574924
0.001582146014
0.00160830078
0.001657104715
0.001678401612
0.001666400494
0.001620909785
0.001550382312
0.001477083252
0.001418298633
0.001360984644
0.001276017582
0.001139235078
0.0009594530533
0.000785178259
0.0005631713353
0.0002278265411
0.002605222767
0.001942614302
0.001846959948
0.001911664263
0.001890721202
0.001839797497
0.001793947257
0.001755322452
0.001718850134
0.001658354108
0.001635181694
0.001646158699
0.001655582959
0.00166981231
0.001676532407
0.001662554301
0.001623350671
0.00156438593
0.001499443108
0.00143925718
0.001381494171
0.001312350153
0.00120399034
0.001044109791
0.0008457509829
0.0006033101839
0.0002270407122
0.002177292371
0.001959161832
0.002088257063
0.002157832512
0.002105362785
0.001992610578
0.001920671671
0.00187546524
0.001839385529
0.001803164268
0.001755987245
0.001729519677
0.001705358888
0.001695697053
0.001688880738
0.001670637464
0.001633519483
0.001578063411
0.001511405659
0.001442206382
0.001374669848
0.001304538729
0.001212812701
0.001080606587
0.0008998910715
0.0006530558478
0.000229196592
0.001955653921
0.002041264371
0.002407830054
0.002844532094
0.002979370037
0.002296231755
0.002067167108
0.001978500684
0.00192900552
0.001890126881
0.001842766499
0.0017990206
0.001754709088
0.001725367723
0.001705425769
0.001681361807
0.001642847795
0.001585831471
0.001512546805
0.001429712875
0.00134490278
0.001260657624
0.001163610404
0.001050193313
0.0009026405882
0.0006749872024
0.0002305877723
0.001841431723
0.0019658518
0.002450003185
0.003567463229
0.00392401358
0.003064304559
0.00218153566
0.002031330636
0.001971040928
0.001928349184
0.001886582275
0.001838460289
0.001785073471
0.001741525301
0.001709874958
0.001679169086
0.001637060067
0.001575776892
0.001493760764
0.001395490825
0.001289440405
0.001184239265
0.001066152503
0.0009629089947
0.0008500966347
0.0006585081444
0.0002286108564
0.001781286599
0.001861347299
0.002116359747
0.002615631451
0.003110660122
0.002347739615
0.002098855458
0.00202360489
0.00197726942
0.001932330475
0.00188563426
0.001834709539
0.001778746654
0.001727410462
0.001686673735
0.001649427893
0.001602781046
0.001536248059
0.001445312413
0.001332377249
0.001206084729
0.001070340449
0.000937454846
0.0008441701814
0.0007628676488
0.0006127775263
0.0002225518191
0.001756713551
0.001813886257
0.001929867359
0.002105714688
0.002185375039
0.00208658686
0.00204400607
0.00201454414
0.001973438344
0.001922469481
0.001863105639
0.001798001509
0.001731854507
0.001672412676
0.001624308664
0.001581451634
0.001530511367
0.001459043084
0.001360452485
0.001236024928
0.001097217916
0.0009335238157
0.000799838518
0.0007215243971
0.0006673285711
0.0005548958533
0.000212995374
0.001741153926
0.001794717577
0.001862052962
0.001943968963
0.001988665795
0.002005410947
0.002021797999
0.00200737105
0.001958081213
0.001897549474
0.001818826507
0.00173042325
0.001643167255
0.001569980959
0.001515616641
0.001469724248
0.001416321084
0.001341499335
0.001238055522
0.00111052575
0.0009518091932
0.0007879987039
0.0006726623781
0.0006153379598
0.0005836005858
0.0005003615983
0.0002010940105
0.0017123976
0.001768271894
0.001822052234
0.00187396
0.001915973006
0.001955921614
0.002009708401
0.002045741757
0.001946463043
0.001873114299
0.001751165428
0.001626949701
0.001506665211
0.001404920051
0.001352928458
0.00131375197
0.001263447051
0.001190960047
0.001088880741
0.0009488607875
0.0007890316578
0.0006532741511
0.0005693063625
0.0005352959007
0.0005209276948
0.0004576481437
0.0001881608191
0.001656822066
0.001714106534
0.001763610187
0.001803649989
0.001838452233
0.001884032392
0.002032180432
0.002345208584
0.002017679028
0.001922337492
0.001678521623
0.001488405216
0.001320209954
0.001193401294
0.001136890475
0.001111662528
0.001076025755
0.001006227217
0.0008986886559
0.000766571374
0.0006393920745
0.0005449440538
0.0004941451793
0.0004807497099
0.000478271956
0.0004266510652
0.0001754277726
0.00156763597
0.001621223102
0.001667236806
0.001699367207
0.001721097214
0.001752994758
0.001958051859
0.002995204536
0.001966189214
0.001658483747
0.00147176697
0.001306774789
0.001133993877
0.001006399968
0.0009422442031
0.0009115725818
0.0008743110285
0.0008080551815
0.0007143228186
0.0006119664386
0.0005247849643
0.0004673365066
0.000442414457
0.000443704483
0.0004475152599
0.0004009670039
0.0001637020382
0.001443478177
0.001485997869
0.001525051013
0.001549720465
0.00155864995
0.001557202454
0.00159447283
0.001865143916
0.001515977806
0.001357897764
0.001312597162
0.001305653095
0.001207915172
0.001021501367
0.0008711230848
0.0007874766092
0.0007276239285
0.0006598955413
0.0005813258321
0.0005056154519
0.0004474727045
0.0004134965284
0.0004037220261
0.0004126568593
0.0004180973837
0.0003729820493
0.0001530835781
0.001289992169
0.001312733622
0.001337397602
0.001352424788
0.001350903459
0.001318804006
0.001266978513
0.00127346421
0.001144985484
0.001084318103
0.001293935402
0.001559033899
0.001579378283
0.001311232818
0.0009715364109
0.000768760204
0.0006598947945
0.0005792551823
0.0005053752177
0.000441765268
0.0003961825992
0.0003715759191
0.0003674627075
0.0003786863884
0.0003834153522
0.0003397423791
0.0001431904848
0.001102200822
0.001104466984
0.001104828156
0.001098362603
0.001078428692
0.001033894831
0.0009721250852
0.0009228921249
0.0008695220675
0.000868123055
0.001234442262
0.001617757006
0.001698379123
0.001379953583
0.0009883028548
0.0007501193769
0.0006303905712
0.0005440906125
0.0004670457204
0.0004021977869
0.0003562473951
0.0003319594506
0.0003288206067
0.0003401943067
0.0003444095182
0.0003046410786
0.0001336796728
0.0009356800311
0.000888498153
0.0008579337612
0.0008373451584
0.0008172550836
0.0007876426072
0.000753601446
0.0007280712433
0.0007274815371
0.0007519815144
0.001051376645
0.00141921256
0.00147146404
0.00118395436
0.0008855383213
0.0007226151158
0.0006215454694
0.0005299943401
0.000442851734
0.0003696140812
0.0003186415057
0.0002928626829
0.0002901639445
0.0003014079511
0.0003065329567
0.0002733791866
0.0001245175151
0.0007923202551
0.000717664804
0.0006706022678
0.0006463312713
0.0006367656944
0.0006350332068
0.0006432149409
0.000663858796
0.0007049720764
0.0007428224284
0.0009008150318
0.001086748182
0.001105328505
0.0009368711803
0.0007960829069
0.0007009033677
0.0006082591566
0.0005086055605
0.0004130059978
0.0003352796501
0.0002835233585
0.0002586896793
0.0002559937619
0.0002657570673
0.0002724511953
0.0002477738827
0.0001158463328
0.0006516104112
0.0005871098939
0.0005494705617
0.0005379641121
0.0005488505032
0.0005773549632
0.000620388769
0.000671627184
0.0007276834986
0.0007659953914
0.0008328026745
0.000871197688
0.0008563675951
0.0007922033105
0.0007251254969
0.000648442191
0.0005564188442
0.0004585076956
0.0003693981937
0.0003005599589
0.0002561152486
0.0002338131947
0.000227820737
0.0002322454726
0.0002392057634
0.0002239731137
0.0001076567284
0.0004954906733
0.0004653937415
0.0004544017493
0.0004631629766
0.0004896039322
0.0005287047644
0.0005742543986
0.0006191582029
0.0006578464145
0.0006810474228
0.0006977403267
0.0006783379676
0.0006616015498
0.0006267464647
0.0005761787709
0.0005109678024
0.0004375219978
0.0003661069358
0.0003057167969
0.0002603347637
0.0002290470267
0.000208045854
0.000194066534
0.0001893267505
0.0001951409939
0.0001908632514
9.849192103e-05
0.0001859487135
0.0001825705392
0.0001818147978
0.0001842141637
0.0001892554484
0.0001956469553
0.0002020983397
0.0002078573974
0.0002122723765
0.0002152891081
0.0002159339035
0.00021447828
0.0002114021751
0.00020569212
0.0001974781351
0.000187187231
0.0001756332565
0.000163827259
0.0001525845424
0.0001422062273
0.0001323946499
0.0001221713757
0.0001098961473
9.707912295e-05
9.617372591e-05
0.0001003018969
8.75070358e-05
0.0006755277526
0.0008068823318
0.0009557602623
0.001203621505
0.001335958021
0.001421801362
0.001413550655
0.001414185776
0.00136060956
0.001284982297
0.001217843418
0.001172105543
0.001219888607
0.00131458737
0.001388055591
0.0007770677991
0.0007514258384
0.0007859654527
0.0008073134405
0.0009215999031
0.0009120749003
0.001060142605
0.001184394643
0.001249850282
0.001264828352
0.001283377177
0.001328207001
0.001350452233
0.001310374556
0.00126344523
0.001281149038
0.001344149857
0.001404324633
0.001411267464
0.001338117094
0.001254422357
0.001264496186
0.001315973606
0.001249298112
0.0008969446994
0.000258685598
0.001470530738
0.001117599273
0.0008741256164
0.0008400721581
0.0008788280009
0.000881550106
0.000889687517
0.0009252660467
0.001069956851
0.001203020819
0.001262652222
0.001252616004
0.001262951571
0.001358505917
0.001449388048
0.001411758359
0.001349996514
0.00136993151
0.001411189015
0.001495220185
0.001487046023
0.001434295661
0.001449948557
0.001522224321
0.001580789095
0.001520277307
0.001147546518
0.00028141503
0.001454615851
0.001144458595
0.0009401552414
0.0008977316488
0.0009376042552
0.0009700021178
0.0009709043392
0.00103896129
0.001230147747
0.001403592104
0.001516628535
0.001458755714
0.001406334911
0.001435602502
0.001524835367
0.001496080393
0.001425393456
0.001490019877
0.001507948881
0.001479516241
0.001478332971
0.001511228329
0.001602689458
0.001707728317
0.001774905335
0.001722249197
0.001368623379
0.0003025159312
0.001162812758
0.001028772817
0.0009917310081
0.001025953997
0.001082752398
0.00112268079
0.00122313573
0.00147722695
0.001682697186
0.001804963827
0.001748746923
0.001657776347
0.001516539365
0.00149933523
0.001479975402
0.001446532345
0.001535232442
0.001604958449
0.001528393758
0.00152407894
0.001598532795
0.001712929537
0.001828146588
0.001899267068
0.001849492925
0.001487733261
0.000322189117
0.001224459972
0.001179810045
0.001159841647
0.001183033603
0.001243129545
0.001321675496
0.001402803948
0.001656309943
0.001863740035
0.001978435408
0.001953818874
0.00180426023
0.001666042421
0.00159396975
0.001554142809
0.001527592959
0.001530450265
0.001561848775
0.001541738616
0.001605389511
0.001687987452
0.00179796651
0.001913980486
0.001989426758
0.001917535829
0.001544768517
0.0003349329232
0.001391221593
0.001386499528
0.001377481792
0.001377986426
0.001423931081
0.001518626508
0.001539828181
0.00176152432
0.002042401888
0.002185718578
0.002189506332
0.002082830455
0.001936041277
0.001793899509
0.001703345199
0.001656515984
0.001651117052
0.001624037496
0.001632892691
0.001709502574
0.001777448731
0.001882318715
0.002050801631
0.00217645438
0.001995245162
0.00155062956
0.0003311827399
0.001599354754
0.001604873643
0.001592621717
0.001573328342
0.00157349983
0.001599268851
0.001664020011
0.00192092902
0.002220388941
0.002373934815
0.002386716415
0.00229792253
0.002139792955
0.001988624071
0.001861100452
0.001779692658
0.00175086395
0.001768173463
0.001750935053
0.001757527325
0.001820370265
0.001986408088
0.002339076626
0.003278226367
0.002269739023
0.001607809104
0.0003211003713
0.001770508164
0.001784348019
0.001778480772
0.001760536581
0.001758017829
0.001742955228
0.001794125755
0.002006609397
0.002304974052
0.002479968316
0.002507858134
0.00243283245
0.0022887629
0.002180131856
0.0020112136
0.001897902954
0.001832107495
0.001836367604
0.001834976946
0.001786153406
0.001757372305
0.001834533828
0.002014099959
0.002140861907
0.001833858529
0.001363376242
0.0002906721385
0.001827633154
0.001909419844
0.00193473367
0.001929965575
0.001919504744
0.001917432585
0.001957589291
0.002064071929
0.002305221422
0.002509985075
0.002606918464