/*--------------------------------*- C++ -*----------------------------------*\
  =========                 |
  \\      /  F ield         | OpenFOAM: The Open Source CFD Toolbox
   \\    /   O peration     | Website:  https://openfoam.org
    \\  /    A nd           | Version:  8
     \\/     M anipulation  |
\*---------------------------------------------------------------------------*/
FoamFile
{
    version     2.0;
    format      ascii;
    class       volScalarField;
    location    "1.3";
    object      k;
}
// * * * * * * * * * * * * * * * * * * * * * * * * * * * * * * * * * * * * * //

dimensions      [0 2 -2 0 0 0 0];

internalField   nonuniform List<scalar> 
67451
(
0.01536390846
0.01696364946
0.02051152074
0.02531034825
0.02981342741
0.03026975926
0.02277582828
0.02165031936
0.02136015407
0.02148429624
0.02133057525
0.03530403118
0.0272953528
0.02172493618
0.01819128282
0.01731902125
0.01590597235
0.01691236723
0.0182422492
0.02118628364
0.01949940854
0.02062563731
0.02218815286
0.02489511978
0.02349125183
0.0225944871
0.02270640656
0.02429169206
0.02661612432
0.02860066899
0.03503646701
0.04899957984
0.06656816839
0.07628458193
0.07722994881
0.07154380094
0.06491502818
0.05342249231
0.04336669436
0.03435172177
0.02726393833
0.02282606715
0.02024992968
0.01848799943
0.01757294731
0.01865601561
0.02143553805
0.02838301403
0.02338776909
0.02388650085
0.02640537422
0.03238144467
0.02924272815
0.02645634568
0.02439359393
0.02509866256
0.02857476198
0.03560159886
0.04917016255
0.066595122
0.08250126099
0.09040262279
0.09067371181
0.08314192002
0.07166741929
0.04945133876
0.03965986324
0.031832012
0.02643209172
0.02348714169
0.02210925166
0.02122865197
0.02023883643
0.02217740905
0.02784507181
0.04085652637
0.03224672421
0.03011600424
0.03378097994
0.04240683168
0.03920294457
0.03437187392
0.02883507246
0.02796377913
0.03436732564
0.0475733589
0.06544376707
0.08253058465
0.09666977035
0.1032163955
0.1029332846
0.09428542251
0.07738898295
0.03280910607
0.02895028079
0.02643617176
0.02506929643
0.02459152086
0.0243232347
0.02354008904
0.02715282742
0.03649214093
0.05620921359
0.0466509921
0.04076013575
0.04350132992
0.05122832537
0.05276504747
0.04691673173
0.03794155227
0.03410122466
0.03960535149
0.05714176181
0.0772227055
0.09339289836
0.1063222712
0.1123658302
0.1121308899
0.1032182364
0.0817335854
0.03073612225
0.02983999743
0.02893540385
0.02818848329
0.0279209769
0.02799628616
0.02739014441
0.03350656312
0.04883274166
0.07382663014
0.06868040472
0.0575045112
0.05828094397
0.0669195015
0.06918857262
0.06346641907
0.05288313413
0.04076367559
0.04110454504
0.05942021288
0.08321340214
0.0988894462
0.1114444717
0.1172353234
0.1170295631
0.1082784987
0.08436833815
0.03390838052
0.03365346108
0.0327818553
0.03190326854
0.03160856997
0.03289529525
0.03177381799
0.04239189754
0.07123454575
0.1031840097
0.1005675092
0.08338756732
0.07764275342
0.08352705845
0.08625570224
0.08130875517
0.07028851896
0.05592595213
0.04337228631
0.05054958845
0.08197351486
0.09329874131
0.1060575512
0.113016211
0.1122553158
0.1024993662
0.0796979663
0.03849728042
0.03784060082
0.03670996826
0.03581352957
0.03556689568
0.03533694047
0.03718891451
0.05687740001
0.09960442684
0.139880481
0.1376561439
0.1164035094
0.1027911335
0.09965568853
0.1018096384
0.09822790743
0.08797519612
0.07366023201
0.0573880432
0.04414946174
0.05306980512
0.07710390487
0.09744283656
0.1084331179
0.1034097504
0.09259237811
0.07410708972
0.04258197866
0.04144030012
0.04036964712
0.03984157204
0.04000199465
0.04003983801
0.04151254115
0.06012015933
0.1064625549
0.1602235064
0.1606258901
0.1411373875
0.1190877997
0.1112652695
0.1118800047
0.1094907234
0.1008731857
0.08925389677
0.0730379938
0.05676750225
0.04613317855
0.05557360519
0.07688752778
0.08796253338
0.08799291505
0.08004471243
0.06749194228
0.04706056047
0.04490400674
0.04407576882
0.04422269362
0.04507116335
0.04546167366
0.04457429609
0.04463621407
0.06445222335
0.1314614852
0.1187319136
0.08826954954
0.08667377939
0.1014647196
0.1086254837
0.1062929481
0.09661020579
0.08205551801
0.0653219959
0.05174232652
0.04339556487
0.04438313389
0.0596420571
0.07103181048
0.07416238317
0.069030259
0.06051563521
0.05695785756
0.05007118656
0.04856430961
0.04928201735
0.05083615553
0.05157672142
0.0505008199
0.04720194143
0.04558448306
0.07511193799
0.06618158192
0.05553222673
0.06213507438
0.08306238406
0.0936208437
0.09206644837
0.08239896215
0.0688788256
0.05693502361
0.04887045963
0.04427420916
0.04263225756
0.04867322747
0.05757195545
0.06327952484
0.05875938435
0.0532855092
0.08902198689
0.0613492904
0.05482281775
0.05522421247
0.05728415026
0.05843070761
0.05742229177
0.05360307542
0.04896926728
0.04771106331
0.04774029043
0.04997812813
0.05846141394
0.07044342847
0.07851444961
0.07738294329
0.07037239926
0.0615847186
0.05450288705
0.04958173541
0.04670080003
0.04474656419
0.04496989958
0.04857103793
0.05218684761
0.04937619026
0.04599800631
0.1783402093
0.09042920301
0.06517616001
0.06251274368
0.06407728642
0.06509011342
0.06426189032
0.06103127294
0.05568196103
0.05064256879
0.05196823471
0.06127346174
0.06613829446
0.07323284445
0.07756914494
0.07724131706
0.07356487173
0.06801839558
0.0616082444
0.05552668547
0.05102259867
0.04787996727
0.04560268431
0.04488473508
0.0450134083
0.042238024
0.03957132266
0.3383539661
0.1613776723
0.08589835672
0.07270333189
0.07201210147
0.07198245656
0.07086021247
0.06804206611
0.06321249738
0.05714540312
0.05545193179
0.06192637216
0.072378526
0.07976440898
0.08314466314
0.08316207377
0.08061874077
0.07607925955
0.06994978118
0.06298951882
0.0565214966
0.05136697172
0.04745534527
0.04460097179
0.04220104152
0.03856771216
0.03517164883
0.1584779442
0.08916560809
0.08161800367
0.091824381
0.08635412998
0.08082574592
0.07813056533
0.07514313681
0.07045834711
0.06385593047
0.0604447166
0.06578168665
0.07589725806
0.08318740466
0.0866881489
0.08715615413
0.08521396975
0.08123209789
0.07548072594
0.06842879407
0.06100866321
0.05428666906
0.04894100068
0.04500431565
0.04159890602
0.03743800604
0.03303967277
0.0936625798
0.09221549801
0.1044256882
0.1620503716
0.1307445741
0.09652705296
0.08688916519
0.08294901647
0.07849211227
0.07131187988
0.06467305432
0.06671942134
0.07595357529
0.08375014248
0.08787266719
0.0889311997
0.08752771375
0.08399209034
0.07856533554
0.07160843274
0.06377807298
0.05601586692
0.04960369788
0.04484420275
0.04105989516
0.0369235484
0.03221267573
0.09814956693
0.1081577479
0.1238153817
0.2124754279
0.3079194327
0.1425005114
0.1006125701
0.09364743154
0.0906854832
0.08456747228
0.07511553729
0.07038657148
0.07501649813
0.08208505979
0.08675267595
0.08847126923
0.08762667126
0.08452117495
0.07940023684
0.07259525243
0.06462539348
0.05633918581
0.04929385974
0.04383450055
0.03977183903
0.03589506792
0.03153562876
0.1075631762
0.1158358842
0.1210409705
0.144324683
0.1526172091
0.1149709494
0.1051719338
0.1033422173
0.102608506
0.09843990993
0.08907318112
0.07888063611
0.07579701493
0.07919939245
0.0834225798
0.08564263985
0.08537857487
0.08274806219
0.07798287133
0.07141305372
0.06351681146
0.0552864958
0.04790262585
0.04192125325
0.03763017029
0.03406002258
0.03036992116
0.1132267746
0.1202220287
0.1221519845
0.1257295935
0.1215824981
0.1131916851
0.1091718916
0.1091539647
0.1096989876
0.1067551942
0.09840129378
0.08654773526
0.07771966694
0.07597336417
0.07832377657
0.08055401418
0.08080181481
0.07869648663
0.0743712718
0.06815585835
0.0605743886
0.05276041944
0.04531528238
0.03907167876
0.0347175888
0.03149479501
0.02853506713
0.1153659278
0.1220346775
0.1229605434
0.1221742232
0.1182287798
0.113380982
0.1102366304
0.1110857343
0.1121859802
0.1098168515
0.1021159649
0.09011080953
0.07838878391
0.07229459244
0.07199586912
0.07363426858
0.07420123424
0.07261764877
0.06880351583
0.06308219116
0.05620388294
0.04884480394
0.04151909611
0.03532451141
0.03119779476
0.02840949144
0.02609095035
0.1140621347
0.1211188411
0.1218256113
0.1200132079
0.1161470597
0.1114417879
0.1083332878
0.110003883
0.1106268205
0.1082316494
0.1006080636
0.08872403793
0.07604350125
0.06768872756
0.06495497438
0.06553675777
0.06613626546
0.06498840616
0.06172986224
0.05678021203
0.05063531488
0.04367658444
0.03665628828
0.03090273989
0.02735883163
0.02509048634
0.02323534404
0.1091558855
0.1171917746
0.118020423
0.1159120663
0.1118381607
0.1069549871
0.1039623564
0.1114689315
0.1071382185
0.1040528431
0.0948464435
0.0827164892
0.07044176231
0.06177120836
0.0578785501
0.05740605235
0.05763198319
0.0567209166
0.05406035972
0.04974047568
0.04406124742
0.03752587059
0.03112580465
0.02626536903
0.02358758171
0.02184767211
0.0202565993
0.1006288017
0.110101538
0.1112440143
0.1091250157
0.1048836716
0.09976748784
0.0959013029
0.1203874688
0.09875823771
0.09238107944
0.08384153325
0.07260313103
0.06208675691
0.05423519497
0.05024285175
0.04930741644
0.04927318206
0.04842298656
0.04603882369
0.04206443742
0.03680251628
0.03093567021
0.02559157912
0.02196107334
0.0202111491
0.01891529602
0.01745587694
0.08900196253
0.09975375346
0.1014596703
0.09954240857
0.0953641777
0.08998271808
0.08494006309
0.08890495355
0.08313075104
0.07799562423
0.07101061428
0.06348436924
0.05493284624
0.04727700521
0.04289535958
0.04147482754
0.04109949613
0.04013587718
0.03785108936
0.03418739974
0.0295501827
0.02473218017
0.02074185373
0.01835141299
0.01735018901
0.01638147666
0.01503541774
0.07517560815
0.0864796056
0.08895764342
0.0874034024
0.08356915932
0.07858484423
0.0736683778
0.0717588718
0.0687828254
0.06365382394
0.06118923017
0.09177843561
0.08924400241
0.0655731075
0.04697886978
0.03791209148
0.03456856173
0.03270570925
0.03033285199
0.02707132602
0.02329163625
0.01967813465
0.01693427614
0.01546462357
0.01492748372
0.01420007924
0.01302345091
0.06157294225
0.07187486219
0.0748891979
0.07391516163
0.07086821557
0.06668837126
0.06204518718
0.0586849172
0.05538810341
0.05008300626
0.05346312095
0.1354300517
0.1247798525
0.08572056876
0.05355954622
0.03674974568
0.03008494681
0.02712993926
0.02459942779
0.02173202645
0.01872504489
0.01602783658
0.01407868949
0.01310338059
0.01279145409
0.01226474586
0.01130848379
0.04972400306
0.05762456356
0.06045207453
0.05989146192
0.05759118169
0.05420535638
0.05004833116
0.04651004769
0.04321035292
0.03955031279
0.04266260312
0.1208255781
0.1039124547
0.06920288183
0.04419496129
0.03170370871
0.02647186971
0.02360669641
0.02104964876
0.01839435665
0.01577414726
0.01348307524
0.01184967363
0.01104926943
0.01083238293
0.01049456456
0.009760814985
0.04022848545
0.04468703339
0.04635246623
0.04586135728
0.04422878697
0.0417275813
0.0385642156
0.03598512478
0.03385798405
0.03258634648
0.03368843782
0.07916121845
0.06650589213
0.04624823566
0.03350833976
0.02742795154
0.02418573123
0.02158574456
0.01899219701
0.01634987876
0.01378919587
0.01156500718
0.009983822991
0.009199952347
0.009027300916
0.008876368638
0.008335651006
0.03248901673
0.03373474298
0.03382660478
0.03316940907
0.03219425646
0.0308951282
0.02945992204
0.02867137719
0.02833411396
0.02866383893
0.0291961408
0.04693713273
0.04064661057
0.03248846043
0.02769119234
0.02480122028
0.02236018109
0.01987740419
0.01729944652
0.01468731434
0.01218389683
0.01002926967
0.008468757143
0.007623597863
0.007433340596
0.007444355387
0.007079065093
0.02506773563
0.02445146606
0.02365334195
0.02313776298
0.02300878182
0.0230863678
0.02333872973
0.02392633408
0.02461112577
0.02543094334
0.02581566518
0.03016881392
0.02818509066
0.02571389197
0.02372899447
0.02180453732
0.01973024393
0.01750619991
0.01519630624
0.01289433409
0.01073491338
0.008864705134
0.007375741909
0.00636538322
0.006026763073
0.006142672168
0.005950509906
0.01670920735
0.01576439254
0.01514387961
0.01512319356
0.015657482
0.0164909928
0.01740680589
0.01833503637
0.01915620042
0.01994863817
0.02032563329
0.02132929235
0.02092637311
0.02012100745
0.01907239836
0.01776280826
0.0162217835
0.01452845678
0.01279469362
0.01113316587
0.009609674778
0.008193802567
0.006725549539
0.005195315766
0.004628705876
0.004951124364
0.005259076192
0.02343692955
0.02710266351
0.03653580519
0.04595455552
0.05130802385
0.0480998775
0.04249616422
0.0406501763
0.03885329571
0.03836626065
0.03822382358
0.04043818776
0.03400642849
0.03116011622
0.02844244998
0.02811290466
0.02597382912
0.02968379289
0.03433152888
0.03750606632
0.03648854364
0.03714176215
0.03980494454
0.04183112444
0.04088769151
0.0398239223
0.042334172
0.04843599447
0.05464560709
0.0574330024
0.05838540762
0.06457161185
0.07966884605
0.09383263583
0.09482769578
0.08069509777
0.05632240925
0.07143474418
0.05459776676
0.04186731574
0.03641651896
0.03444472775
0.03175355392
0.02946598876
0.02764850104
0.03096601524
0.03705738421
0.04183335712
0.03834744093
0.03877105686
0.0438728299
0.0489198998
0.04644484903
0.04310532459
0.04352028996
0.04759508617
0.05545310119
0.06402244448
0.07244435304
0.08757532932
0.1047614505
0.1174794822
0.1188837677
0.104484282
0.06571269762
0.06600003233
0.05127522196
0.04140733312
0.0370657861
0.03604103386
0.03523849328
0.03328243059
0.03220544916
0.03726957081
0.04796744738
0.05881032231
0.05148124916
0.04728779283
0.05214029782
0.05953382527
0.05497477679
0.0483977054
0.04756807068
0.0517849064
0.05906300384
0.07354392115
0.09089097445
0.1094130045
0.1261192781
0.1374574156
0.1391504051
0.1259381724
0.07504597181
0.04798901323
0.0422871216
0.0395214815
0.03911756761
0.03965479639
0.03883339124
0.03883501312
0.04879549534
0.06429130937
0.07934195323
0.07212202047
0.06615185851
0.06279824103
0.06698352572
0.06390778952
0.05713067125
0.05542680154
0.06676532106
0.06708623258
0.08363458551
0.10433192
0.1237200153
0.1394750994
0.1502209865
0.1527581706
0.1410121581
0.0816017843
0.04902060346
0.04728187993
0.04589245604
0.04548997107
0.04621493921
0.04630129206
0.04671650574
0.0612001856
0.08505635137
0.10126336
0.09735078024
0.08449255168
0.08189194288
0.08487226465
0.08250461134
0.0738904433
0.06357229845
0.06125971132
0.06710100781
0.09173222867
0.1122557519
0.131203368
0.1460241002
0.1559403419
0.1583642138
0.1475753308
0.08444547159
0.0563482695
0.0559111272
0.05449713985
0.05344739229
0.05411639618
0.05605871745
0.05500012075
0.07121720315
0.1129074953
0.1358269225
0.1351443761
0.1194545046
0.1147999058
0.1135008856
0.1101939036
0.1002006646
0.0846078874
0.06988400668
0.07042352583
0.09469534862
0.1129643171
0.131809218
0.1488244321
0.1619934265
0.157700617
0.1426359463
0.07838010938
0.06569096911
0.06481096708
0.06326623087
0.06191707873
0.06126372858
0.06120387425
0.06328021504
0.08883104407
0.1485775716
0.1804131241
0.1819022932
0.1643815182
0.1505821726
0.143134371
0.1374268116
0.1276207289
0.1114016613
0.09356694346
0.07813080017
0.07972341967
0.0968764348
0.1215277592
0.1549145395
0.2025144654
0.1568997958
0.1305794239
0.07004292933
0.07456508135
0.07294923432
0.07178285521
0.07096655008
0.07032382366
0.06910981492
0.07144347633
0.09553039272
0.1598632895
0.1993962043
0.202158793
0.185905621
0.170916663
0.162548414
0.1545287724
0.1448977421
0.1314541343
0.1140466986
0.09636070654
0.08239366736
0.07862137873
0.09135883831
0.1139669691
0.129522385
0.1230841849
0.1062111367
0.05911749505
0.08565897787
0.08199737685
0.08080956009
0.08062131709
0.08052399625
0.07950172593
0.07946448618
0.08853222441
0.1341517677
0.1784032928
0.1862630001
0.1710720663
0.1598303383
0.1658440124
0.1579214122
0.148722786
0.1356838451
0.1196844012
0.1019347597
0.08784554893
0.07911953053
0.07848214914
0.08695862284
0.09658105738
0.0995349018
0.08519729437
0.04983807152
0.1093212345
0.09581759474
0.09180609862
0.09118473082
0.09104759849
0.0902009419
0.08882171563
0.0878173875
0.09700310905
0.1169575612
0.1231897031
0.1177221597
0.1296042885
0.1452887185
0.1475392309
0.1431206701
0.1325151381
0.1178319853
0.1030674519
0.09174330124
0.08375464452
0.07861753044
0.07726054659
0.07925499344
0.08457796519
0.0675770182
0.04319480177
0.1793687579
0.1250574829
0.1078750075
0.1036200227
0.1020057062
0.1003210053
0.0984480069
0.09583848804
0.09353358297
0.09644966941
0.1138914939
0.1129867398
0.1211252487
0.1332145193
0.1382444393
0.1363187027
0.1283720312
0.1167684735
0.1048041785
0.09548185441
0.08849072301
0.08261997415
0.0772340078
0.07276722345
0.07130075345
0.05753341253
0.03888501039
0.3664294258
0.1942055783
0.1347521975
0.1199151553
0.1149364643
0.1113539853
0.1083044639
0.1054983634
0.1027833123
0.1015482057
0.1099120776
0.1137570116
0.1206329396
0.1288042415
0.1326657746
0.1313535044
0.1254017569
0.1166200525
0.1073648555
0.09922871566
0.09250295886
0.08656098388
0.08038644969
0.07340833829
0.06616967407
0.05337912343
0.03686074583
0.4754319648
0.2349384004
0.1572791662
0.1428004425
0.1326902224
0.1249917897
0.1197475396
0.1160194888
0.1135276323
0.111877909
0.1137702704
0.1177481039
0.1234929586
0.1280851793
0.1303829181
0.1292668926
0.1247695655
0.1178944951
0.1100152667
0.1022651159
0.095302998
0.08915180087
0.08295891992
0.07577863765
0.0669057595
0.05404197817
0.03662880298
0.2949561969
0.1860687427
0.1726997797
0.2023787864
0.1771805337
0.1475140386
0.1356880214
0.1301068265
0.1265478665
0.1241311973
0.123045098
0.1245312271
0.1270765123
0.1296022621
0.1307916372
0.129693583
0.1260497859
0.1202024428
0.1128569717
0.104873449
0.097116309
0.09010151132
0.08353966296
0.07661342187
0.06821133
0.05601875815
0.03734029374
0.1919301727
0.1771626382
0.2476004771
0.423403043
0.3961673167
0.215652932
0.1619668221
0.1470616737
0.141064183
0.1369081743
0.1332977199
0.1314634369
0.1311921572
0.1317960589
0.1320136579
0.1308082896
0.1275783581
0.1221722013
0.114862366
0.1063107363
0.09745634989
0.08915047601
0.08158726087
0.07463443108
0.06723596705
0.0564709993
0.03779321697
0.1600507459
0.1732145752
0.26956566
0.608308421
0.6478957217
0.3965108732
0.1976863526
0.1619901511
0.1534505933
0.1481374286
0.1427344234
0.1378097393
0.134460943
0.132938186
0.1321386053
0.1307128218
0.127646962
0.1223925689
0.114920624
0.1057296533
0.09573711213
0.08601522532
0.0770827259
0.06986303362
0.06343373626
0.05438541868
0.03713591421
0.154408247
0.1632959156
0.1995827919
0.3288384953
0.4125731124
0.2299424533
0.1777301033
0.1660761692
0.1608720999
0.1555103796
0.148816041
0.1415215177
0.135424894
0.1316870924
0.1297157142
0.1279507936
0.1249436322
0.1197789288
0.112179918
0.1024973247
0.09158100772
0.0804285426
0.07042264575
0.06304648904
0.0575164498
0.050141644
0.03517706052
0.1549349978
0.1609101858
0.1728337248
0.2064984647
0.2119862675
0.1823338724
0.173542866
0.1697026454
0.1654836923
0.1596809401
0.1517231223
0.1421943914
0.133381434
0.1273087516
0.123979296
0.1217621091
0.1187907831
0.1137807222
0.1062230841
0.09633630436
0.08489309099
0.07272500957
0.06233354064
0.05522350484
0.0506234806
0.04473797447
0.03220423911
0.1554544492
0.1610026966
0.1663593096
0.1742485268
0.1751962153
0.1734522915
0.1739262125
0.1718373146
0.1669961573
0.1603786715
0.1509111858
0.1392305957
0.1278247029
0.1194826613
0.1148008524
0.1121214949
0.1092146044
0.1044570967
0.09714455988
0.08738243229
0.07558367539
0.06347017711
0.05367717834
0.04740276072
0.04381530049
0.03919609469
0.02869179992
0.1532836129
0.1595140574
0.1634426093
0.1661052366
0.1676154617
0.1696468162
0.174487805
0.1781787822
0.1675113026
0.1603733705
0.1465724254
0.1320302729
0.1182443484
0.1079013888
0.1024109973
0.09958009856
0.0968608861
0.09246914061
0.08552344447
0.07584434942
0.06447745487
0.05363566504
0.04533683938
0.04034855784
0.03779807837
0.03420681902
0.02511042914
0.1471352272
0.1544883284
0.1583739364
0.1599342441
0.1609057572
0.1632104651
0.1796062877
0.2223405227
0.1769339116
0.1712230191
0.1403641916
0.1205757684
0.1047775891
0.0934018317
0.08750332248
0.08487304107
0.08255003665
0.07844916788
0.07175088509
0.06280660673
0.05305973808
0.04433886343
0.03798726764
0.03444235328
0.03282727558
0.02999432683
0.0218229708
0.13663925
0.1450933461
0.1493956854
0.1506485908
0.150534448
0.1516866338
0.1745509413
0.3399572079
0.177265033
0.1401955186
0.1212048987
0.1067818225
0.0921847214
0.08028575997
0.07353972765
0.07038865679
0.06788288673
0.063941465
0.05792426204
0.05044025092
0.04282814122
0.03637145003
0.03190526278
0.02967260478
0.0287678753
0.02641179037
0.01900350599
0.1223500066
0.1313263124
0.136069749
0.1373062395
0.1363464244
0.1343862179
0.1385315983
0.1732787363
0.1302461489
0.1132417368
0.1079612037
0.1118876909
0.1024010927
0.08242848593
0.06730510695
0.05987506899
0.05577631767
0.05161197621
0.04630853168
0.04030275437
0.03458115018
0.02997248064
0.02699547722
0.02574261366
0.02527459435
0.02318386045
0.01662020926
0.1057386358
0.1140546203
0.1187169995
0.1198498889
0.1183153227
0.1146853093
0.110556672
0.1110293562
0.09833485485
0.09250066668
0.1126353977
0.146452917
0.1461560903
0.1124859162
0.07726101529
0.0576642868
0.0486823332
0.04315282217
0.03800682011
0.03290215256
0.02838881012
0.02497194171
0.0229542593
0.02229428616
0.02204308802
0.02014976548
0.01454337569
0.08856510065
0.09479312455
0.09817416548
0.09853148906
0.09639798385
0.09217762153
0.08645869083
0.0812733218
0.07501796046
0.07457818
0.1091813366
0.1751116725
0.1739845209
0.1237252044
0.07754555758
0.05405415327
0.04392767861
0.03791718142
0.03269138744
0.02786287556
0.02384644293
0.02099883748
0.01948211074
0.01911586446
0.01897867607
0.0173455506
0.01267712314
0.07349147743
0.07600603129
0.07702808846
0.07634385627
0.07419149353
0.07071007958
0.06630176067
0.06228202179
0.05946273931
0.06071144157
0.0861902645
0.1504254417
0.1434594203
0.09775100021
0.06426039899
0.04874114932
0.04092147185
0.03497316095
0.02939822238
0.02437401718
0.02038661153
0.01773206124
0.01644223085
0.01620186773
0.01617541314
0.01490641228
0.01100048798
0.0609231177
0.06006379808
0.05891639933
0.05752605678
0.0559924263
0.05427233287
0.05256824157
0.05161395744
0.05169171149
0.05361961947
0.06435042736
0.09316852958
0.0882317413
0.06697901805
0.05282802332
0.04491188505
0.03875949321
0.03267705913
0.02672872681
0.02152103242
0.01756141915
0.01503709368
0.01383483846
0.01359681029
0.01368358445
0.01285258602
0.009523468309
0.04968058694
0.04718132325
0.04523056568
0.04413508051
0.04392855387
0.04439126316
0.0453925018
0.04698654947
0.04886214424
0.05086223239
0.05438487273
0.06095466455
0.05862548176
0.05200673041
0.0463732175
0.04112373587
0.035423248
0.02940570622
0.02368863838
0.01888720169
0.01532692122
0.01301794711
0.01176786103
0.01134975825
0.01145502318
0.01105591416
0.008226185911
0.03767770717
0.03563031881
0.03447396076
0.03452254166
0.0356926431
0.0376071663
0.03988297059
0.04223478858
0.04425455932
0.04570298003
0.04651681935
0.04625001084
0.04479516204
0.0419215551
0.03823236169
0.03378786166
0.028874857
0.02400756883
0.01967210761
0.0161272882
0.0133944779
0.01134674383
0.009852593092
0.009024218994
0.009004931088
0.009038412118
0.0068861952
0.02060843237
0.01987057818
0.0197128793
0.02024444009
0.02137511685
0.02284885274
0.02438356509
0.02579325203
0.02689983516
0.02766721763
0.02783072776
0.02745389357
0.026666144
0.02523710418
0.02325351137
0.02088672056
0.01838452278
0.01599559716
0.01387699062
0.01205548196
0.01045081258
0.008899317415
0.007199696171
0.005618909164
0.005518585103
0.006001835259
0.005436052137
0.0301535279
0.03504621719
0.04392278066
0.06107013586
0.07111243185
0.07324320167
0.06735759158
0.06268713507
0.05584462053
0.04997681739
0.04872720775
0.0512092954
0.05903896749
0.06796172742
0.07420466696
0.04340219954
0.03915238173
0.03723261781
0.03634684897
0.03894972001
0.03900792798
0.04659458339
0.05437695938
0.05815543783
0.05691313487
0.05451286462
0.05329935728
0.05197696667
0.0514740701
0.05174488487
0.05606703157
0.06333188952
0.06971430574
0.07434437328
0.0764159746
0.08004769999
0.09024084998
0.1002414842
0.09831404014
0.08042065119
0.04749763658
0.07938253451
0.06053734822
0.0476047091
0.04338734003
0.041786964
0.03931145231
0.03920469075
0.03932259074
0.04566907472
0.05292598396
0.05653750675
0.05520883685
0.05481976689
0.05716094398
0.05759312307
0.05659585002
0.05447312654
0.05647785632
0.06208334958
0.07278603342
0.07991848166
0.08620205603
0.09811768528
0.1128778856
0.1235118597
0.1230125105
0.1043370508
0.05623720111
0.07763995009
0.06098188907
0.04996597305
0.04586111946
0.04487540039
0.0437054748
0.04240218221
0.04498215813
0.05459883156
0.0655317755
0.07249308811
0.06843665933
0.06526042057
0.06597469839
0.06691212092
0.0643927452
0.06024939701
0.06358840661
0.06802564356
0.07487247358
0.08584943644
0.09899594729
0.1152566429
0.1306377599
0.1413836952
0.1427417204
0.1270354337
0.06501068529
0.06097894555
0.05294964724
0.04937279475
0.04877536481
0.04904394423
0.04938935438
0.05478970493
0.07103376655
0.08816224161
0.09425484068
0.09106258192
0.08462444841
0.07842855159
0.07607827681
0.07122304249
0.06687118209
0.07131577614
0.0771525088
0.08390398191
0.09525607322
0.1108615127
0.1267074171
0.1409899029
0.1516405363
0.1548746773
0.1417484918
0.07377310305
0.063096592
0.05859907663
0.05563839256
0.05514911503
0.05635865646
0.05850566687
0.0659748316
0.09033389773
0.1131756889
0.1207143024
0.1180782959
0.1081160596
0.09938980289
0.09371265877
0.08738747143
0.08039375643
0.07653044317
0.08255469529
0.08957417693
0.1044679738
0.1190510684
0.1337902212
0.1475632407
0.1591739518
0.1602523796
0.1483795038
0.07973434544
0.0686737174
0.06567834034
0.06350651113
0.06283406021
0.06478775661
0.06851195655
0.07750549292
0.1119032983
0.1492511229
0.159874011
0.1569306013
0.1449202283
0.1321912545
0.1223019358
0.1142735082
0.1042623443
0.09439682361
0.08934099522
0.09670264863
0.1118875555
0.1254131319
0.1421990501
0.1669730476
0.1931574389
0.1716450599
0.1485645598
0.0779603049
0.07574405496
0.07308158488
0.07132627607
0.07071234744
0.07159181321
0.07590075984
0.0900726902
0.1366677998
0.1862062528
0.199601068
0.1958286624
0.1811211663
0.1621969359
0.1509763123
0.1406922026
0.1295988079
0.1167080455
0.1073441344
0.1030815906
0.1130367455
0.1310059163
0.1600337852
0.2472072822
0.4518257866
0.2310601281
0.1541694501
0.07295606236
0.08313822723
0.08038505334
0.07916964826
0.07911249319
0.08056300403
0.08292080911
0.09761138598
0.1447016031
0.2016896344
0.2184263563
0.215693614
0.2014588028
0.1847669961
0.1756885498
0.1586241438
0.1459660746
0.1323726851
0.1201506594
0.1125284236
0.1094051595
0.1172072702
0.1339202255
0.1669954257
0.1993349653
0.1545207247
0.1219778312
0.0599164513
0.09473161258
0.08966854944
0.08788876922
0.08799028673
0.08878228445
0.09068371402
0.09980196108
0.130670284
0.1865576722
0.2186945427
0.2311838033
0.217666163
0.1982431484
0.1820351692
0.1664680372
0.1541512173
0.14143643
0.1289644474
0.1156938495
0.1076746712
0.1069011299
0.1123869661
0.1223907495
0.1272208954
0.1180191532
0.09772441454
0.04914550442
0.1260356578
0.1066915195
0.0994347584
0.09777256096
0.09778146847
0.09874160187
0.1025958737
0.1150023803
0.1444069164
0.1777512308
0.1897002754
0.1830828891
0.1764480252
0.1723063902
0.1621138677
0.153203124
0.142882867
0.1299779186
0.1168085887
0.1077795061
0.1036324521
0.1032648042
0.1042806525
0.1024733061
0.09723383979
0.08177726383
0.04229844026
0.2271375542
0.1481499057
0.1186001399
0.1103561796
0.1079674262
0.1071101452
0.1079361015
0.1119389647
0.1219802756
0.1392968026
0.1485891028
0.1512493333
0.1532228293
0.1538571355
0.151495036
0.1468167474
0.1387046981
0.1276149936
0.1164225746
0.1079469483
0.102927904
0.1002789306
0.09772149122
0.09265220802
0.08481489371
0.07030339442
0.03937860393
0.4182542718
0.2328746169
0.1503346289
0.1280402995
0.1209205625
0.1170848675
0.1155213395
0.1160797576
0.1193777437
0.1265423946
0.1338175202
0.1381897862
0.1410490408
0.1427940711
0.1425753786
0.1396712641
0.1335572461
0.1249665281
0.115946391
0.108440056
0.1032373898
0.09974730829
0.09615782884
0.09024212212
0.0807111319
0.06547330686
0.03890347034
0.4960127931
0.2624102629
0.1719583107
0.1582211953
0.1432449121
0.1312957519
0.1258534098
0.1239619819
0.1244785675
0.1271566566
0.13152275
0.1351508485
0.1366933948
0.137601225
0.1373393886
0.1351252613
0.1305236013
0.1239147826
0.1164793702
0.1095594551
0.104013188
0.09978495054
0.09577401184
0.09009952644
0.08088269684
0.06584554429
0.0398196674
0.3219741272
0.2046207135
0.2073568123
0.2774727241
0.2293971044
0.1653447481
0.1429565704
0.1359122992
0.1340242763
0.1341578424
0.1354217755
0.136558657
0.136868264
0.136742622
0.1359208277
0.1338940636
0.1301892129
0.1247300065
0.1180198037
0.1109917687
0.1046104941
0.09931926754
0.09464901321
0.08919188966
0.08101733163
0.06716362072
0.04097690579
0.2007712769
0.1965596189
0.3289739062
0.5026372875
0.4912907705
0.2607509988
0.1713627906
0.1504874575
0.1453461537
0.1435755784
0.1424434795
0.1412494955
0.1398840994
0.1384897234
0.1369367699
0.1347888717
0.1314188084
0.1263495002
0.1196034294
0.1118411106
0.1041424755
0.09740986731
0.09166475027
0.0860807066
0.07885479446
0.06657610953
0.04122319058
0.1614236187
0.1868418671
0.3540994889
0.6049690468
0.5551054818
0.390689643
0.1986360434
0.1616795052
0.1546960899
0.151992182
0.149323465
0.1461508381
0.1430505964
0.1404331407
0.138182756
0.1357557065
0.1323260811
0.127120397
0.119847475
0.1109860096
0.1017019964
0.093261279
0.08625646641
0.08036227305
0.07389717717
0.0632168785
0.03992575586
0.150790366
0.1637263446
0.2317137769
0.3926965682
0.4038515502
0.2412582134
0.1768772333
0.1641785024
0.1606495191
0.1579344803
0.1542299025
0.1493384836
0.144445647
0.1405098062
0.1375010548
0.1346792161
0.1309774009
0.1253911472
0.1174253557
0.1074363099
0.09665901141
0.08661052537
0.07854867479
0.07248248609
0.06677245078
0.05761410048
0.03712983498
0.1492312473
0.154953658
0.1759505205
0.2288568102
0.22241583
0.1829100334
0.171298131
0.1677804165
0.1651925935
0.1619434146
0.1569545973
0.1501491634
0.1431346032
0.1374854966
0.133430696
0.1300501186
0.1259880765
0.1200083756
0.1114603334
0.1006269986
0.08876503025
0.07779043352
0.06932050833
0.06351893636
0.0587107928
0.05098942005
0.0333682925
0.1499771965
0.1539174637
0.1611368023
0.1752449099
0.1751836311
0.1713589294
0.1732896634
0.1741454318
0.1696753838
0.1657853931
0.1575377121
0.1480158148
0.1384945506
0.1307769582
0.1254023894
0.1213340075
0.1169086824