/*--------------------------------*- C++ -*----------------------------------*\
  =========                 |
  \\      /  F ield         | OpenFOAM: The Open Source CFD Toolbox
   \\    /   O peration     | Website:  https://openfoam.org
    \\  /    A nd           | Version:  8
     \\/     M anipulation  |
\*---------------------------------------------------------------------------*/
FoamFile
{
    version     2.0;
    format      ascii;
    class       volScalarField;
    location    "1.3";
    object      O2;
}
// * * * * * * * * * * * * * * * * * * * * * * * * * * * * * * * * * * * * * //

dimensions      [0 0 0 0 0 0 0];

internalField   nonuniform List<scalar> 
67451
(
0.2100010809
0.2100010319
0.2100011249
0.2100010216
0.2100008468
0.2100005494
0.2100005394
0.2100002119
0.210000247
0.2100000325
0.2100000281
0.2100036104
0.2100029143
0.2100020793
0.2100012872
0.2100007108
0.2100006501
0.2100007001
0.2100006456
0.2100004472
0.2100002641
0.2100001095
0.20999991
0.2099997859
0.209999722
0.2099997361
0.2099998187
0.2099999482
0.2100000734
0.210000127
0.210000067
0.2100000583
0.2100001395
0.2100003378
0.21000051
0.2100006078
0.2100004929
0.2100037523
0.210003551
0.2100031349
0.2100024283
0.2100016839
0.2100010805
0.2100006431
0.2100003884
0.2100003079
0.2100002307
0.2100000513
0.209999991
0.2099998572
0.2099996685
0.2099995511
0.2099994652
0.2099995036
0.2099995718
0.2099997616
0.2099998692
0.2100000467
0.2099998826
0.2099999083
0.2099999882
0.2100001226
0.2100002759
0.2100003913
0.210000184
0.2100034359
0.210003114
0.2100025805
0.2100018996
0.2100012964
0.2100008346
0.2100005374
0.2100002524
0.2100000976
0.2099999724
0.2099998299
0.2099998241
0.209999774
0.2099995037
0.2099991929
0.2099991737
0.2099992537
0.2099992834
0.2099994996
0.2099996522
0.2099997267
0.2099997083
0.209999779
0.2099998297
0.2099999327
0.2100000628
0.2100001868
0.2099999216
0.2100023093
0.2100017739
0.2100012542
0.2100008588
0.2100005539
0.2100003436
0.2100001145
0.2099999184
0.2099997831
0.2099998724
0.2099996451
0.2099999348
0.2099994938
0.2099991849
0.2099990202
0.2099991342
0.2099989665
0.2100000997
0.2099997525
0.2099996837
0.2099995843
0.2099996585
0.2099996896
0.209999814
0.2099999266
0.210000044
0.2099997285
0.2100012906
0.2100009292
0.2100006185
0.2100004182
0.2100002523
0.2100001331
0.2099999632
0.209999624
0.2099996074
0.2099994003
0.2099994536
0.2099995949
0.209999414
0.2099991077
0.2099989363
0.2099988878
0.2099988752
0.2099992569
0.2099993628
0.2099994808
0.2099995157
0.209999634
0.2099996685
0.2099999591
0.2099999971
0.2100000432
0.209999648
0.2100004765
0.2100002992
0.21000015
0.2100000594
0.2099999743
0.2099997828
0.2099998185
0.2099996253
0.2099994842
0.2099992675
0.2099992642
0.2099994111
0.2099994222
0.2099991645
0.2099989307
0.2099988075
0.2099987537
0.2099989345
0.2099990769
0.2099993399
0.2099991997
0.209999476
0.2099995099
0.2099997861
0.2099998347
0.2099999574
0.2099997425
0.2099999761
0.2099998836
0.2099998064
0.2099997614
0.2099997184
0.2099996379
0.2099995838
0.2099994023
0.2099992287
0.2099989889
0.2099989135
0.2099990878
0.2099994984
0.2099992864
0.2099989795
0.209998768
0.2099986589
0.2099986533
0.2099987706
0.2099990551
0.2099994324
0.2099998764
0.2099996788
0.2100014816
0.2100006078
0.210000475
0.2100001893
0.2099996394
0.209999573
0.2099995284
0.2099995081
0.2099994896
0.2099994222
0.2099993538
0.2099991749
0.2099989875
0.2099987496
0.2099985379
0.2099986479
0.209998989
0.2099991142
0.2099989416
0.2099987467
0.2099985995
0.209998875
0.2099986875
0.2099987746
0.209999124
0.2099995435
0.2099996327
0.2100001987
0.2100001854
0.2100003042
0.2100002241
0.2099993901
0.2099993284
0.2099992992
0.2099992865
0.2099992622
0.2099992109
0.2099991891
0.2099991721
0.2099991305
0.2099985396
0.2099989201
0.2099991082
0.2099991507
0.2099990778
0.2099991227
0.2099987164
0.2099986028
0.2099986918
0.2099987484
0.2099988797
0.2099990494
0.2099993057
0.2099995308
0.2099999138
0.2100000713
0.2100002469
0.210000309
0.2099992607
0.2099991635
0.2099991389
0.2099991224
0.2099990867
0.2099990303
0.2099989978
0.2099989904
0.2099990851
0.209998908
0.2099991725
0.2099991915
0.2099990157
0.2099987894
0.2099986981
0.2099986045
0.2099986021
0.2099986971
0.2099988002
0.2099988874
0.20999896
0.20999909
0.2099993227
0.2099996383
0.2099998922
0.2100003173
0.210000398
0.209999248
0.20999908
0.2099990556
0.2099990285
0.2099989811
0.2099989084
0.2099988579
0.2099988401
0.2099988921
0.2099989759
0.2099990164
0.2099990242
0.2099988211
0.209998665
0.209998617
0.209998595
0.2099986144
0.2099986675
0.209998727
0.2099987855
0.2099988394
0.2099989189
0.2099991026
0.2099994155
0.209999787
0.2100001953
0.210000411
0.2099996508
0.2099992155
0.2099990708
0.2099990129
0.2099989631
0.20999886
0.2099987808
0.2099987392
0.2099987424
0.2099987861
0.2099987838
0.2099987369
0.209998724
0.2099986025
0.2099985545
0.2099985383
0.209998538
0.2099985462
0.2099985738
0.2099986332
0.2099987069
0.2099987853
0.2099989175
0.2099991692
0.2099995507
0.2099999493
0.2100003103
0.2099984156
0.2099997069
0.2099994262
0.2099991903
0.2099991429
0.2099989275
0.2099987883
0.2099987063
0.2099986694
0.2099986662
0.2099986848
0.2099986923
0.2099986263
0.2099985312
0.2099984801
0.2099984545
0.2099984399
0.2099984346
0.2099984513
0.2099985035
0.2099985839
0.209998673
0.2099987838
0.2099989697
0.2099992766
0.2099996591
0.2100000952
0.2100000424
0.2099993288
0.2099992162
0.20999921
0.2099997226
0.2099992575
0.2099989749
0.2099987812
0.2099986679
0.2099986156
0.2099985997
0.2099986089
0.2099985598
0.2099984765
0.2099984162
0.2099983792
0.2099983581
0.2099983529
0.2099983708
0.2099984203
0.209998499
0.2099985932
0.2099987018
0.2099988538
0.2099990876
0.2099994135
0.2099998408
0.2099992031
0.2099988225
0.2099988904
0.2099987591
0.2099995614
0.2099989814
0.2099988245
0.2099987001
0.2099986479
0.2099986353
0.2099986271
0.2099986126
0.2099985509
0.2099984561
0.2099983822
0.2099983373
0.2099983161
0.209998317
0.2099983422
0.2099983942
0.2099984706
0.2099985637
0.2099986757
0.2099988172
0.2099990063
0.2099992689
0.2099996419
0.2099987863
0.209998836
0.2099999538
0.2099999764
0.2100043069
0.2100016091
0.2100001992
0.2099993946
0.2099989394
0.2099987537
0.209998699
0.2099986728
0.209998601
0.209998489
0.2099983962
0.2099983416
0.2099983208
0.2099983292
0.209998364
0.2099984216
0.2099984968
0.2099985884
0.2099987072
0.2099988493
0.2099990144
0.2099992278
0.2099995494
0.2099983892
0.2099985131
0.2099989575
0.2099992987
0.2100016734
0.2099996641
0.2099991594
0.2099989196
0.2099987783
0.2099987059
0.2099986859
0.209998695
0.2099986646
0.2099985669
0.2099984633
0.2099983974
0.2099983746
0.2099983888
0.2099984319
0.2099984947
0.2099985698
0.2099986664
0.2099987953
0.2099989426
0.2099990929
0.2099992736
0.2099995714
0.2099981702
0.2099982889
0.2099984765
0.2099988367
0.2099998211
0.2099991726
0.2099989793
0.2099988774
0.2099987867
0.209998734
0.2099987191
0.2099987433
0.2099987516
0.2099986855
0.2099985824
0.2099985052
0.2099984765
0.2099984925
0.2099985401
0.2099986053
0.2099986828
0.2099987941
0.2099989394
0.2099990929
0.2099992295
0.2099993911
0.209999696
0.209998086
0.209998156
0.2099982428
0.2099985316
0.2099989444
0.2099988828
0.2099989169
0.2099989758
0.2099989186
0.2099988912
0.2099988585
0.2099988722
0.2099988932
0.2099988504
0.2099987506
0.2099986607
0.2099986214
0.2099986333
0.2099986803
0.2099987466
0.2099988398
0.2099989761
0.2099991415
0.2099992957
0.2099994142
0.2099995676
0.2099999012
0.2099981055
0.2099981234
0.2099981906
0.2099984209
0.209998703
0.2099988901
0.209999094
0.2099994154
0.2099992578
0.2099992115
0.2099991209
0.2099990986
0.2099991042
0.2099990656
0.2099989618
0.2099988555
0.2099988002
0.2099988028
0.2099988475
0.2099989277
0.209999052
0.2099992201
0.2099993993
0.2099995394
0.2099996326
0.2099997856
0.2100001536
0.2099982092
0.2099981885
0.2099982701
0.2099984936
0.2099987923
0.2099991702
0.2099995634
0.2100005567
0.2099999929
0.210000163
0.2099996929
0.209999486
0.2099994077
0.209999334
0.2099992113
0.2099990852
0.2099990129
0.2099990093
0.2099990645
0.2099991736
0.209999335
0.2099995271
0.2099996974
0.209999802
0.2099998656
0.2100000211
0.2100004111
0.2099983818
0.2099983326
0.2099984392
0.209998682
0.2099990284
0.209999709
0.2100003924
0.2100062425
0.2100014983
0.2100007556
0.2100001016
0.2099997582
0.2099996524
0.2099995866
0.2099994696
0.2099993448
0.2099992738
0.2099992794
0.2099993582
0.2099995014
0.2099996902
0.2099998788
0.2100000082
0.2100000618
0.2100000978
0.2100002518
0.2100006394
0.2099985964
0.2099985305
0.2099986554
0.2099988929
0.2099992038
0.2099997022
0.2100001365
0.2100019525
0.210000723
0.2100004541
0.2100001779
0.2099999325
0.2099998973
0.2099998555
0.2099997514
0.2099996447
0.2099995957
0.2099996273
0.209999736
0.2099999036
0.2100000917
0.210000242
0.2100003107
0.2100003142
0.210000328
0.2100004718
0.2100008303
0.2099988281
0.2099987576
0.2099988927
0.2099991084
0.2099993514
0.209999656
0.2099999279
0.2100005451
0.2100002905
0.2100001758
0.2100001386
0.2099992532
0.2099993659
0.2099997511
0.2099999512
0.209999979
0.2099999842
0.2100000468
0.2100001755
0.2100003433
0.2100005016
0.2100005985
0.210000613
0.2100005798
0.2100005744
0.2100006972
0.2100010066
0.2099990525
0.2099990072
0.209999148
0.2099993361
0.2099995141
0.2099997034
0.2099998969
0.2100001737
0.210000207
0.2100000978
0.2100002325
0.2099984044
0.2099988436
0.2099997821
0.2100003241
0.2100004383
0.2100004449
0.2100005094
0.2100006368
0.210000787
0.2100009115
0.2100009697
0.2100009519
0.2100008943
0.2100008679
0.2100009579
0.2100012061
0.2099992528
0.2099992742
0.2099994267
0.2099995893
0.2099997212
0.2099998566
0.2100000201
0.2100002084
0.2100003319
0.2100003436
0.2100004834
0.2099987231
0.2099996087
0.2100005165
0.2100008408
0.210000851
0.2100008648
0.2100009561
0.2100010956
0.2100012445
0.2100013619
0.2100014088
0.2100013724
0.2100012898
0.2100012317
0.2100012735
0.2100014525
0.2099994587
0.2099995564
0.2099997293
0.2099998833
0.2100000038
0.2100001321
0.2100002853
0.2100004425
0.2100005433
0.2100006092
0.2100006834
0.209999907
0.2100006921
0.2100010823
0.2100011364
0.2100011594
0.2100012527
0.210001403
0.210001583
0.2100017657
0.2100019078
0.2100019566
0.2100018952
0.2100017705
0.2100016578
0.2100016291
0.210001731
0.209999756
0.2099999097
0.2100001047
0.2100002701
0.2100004028
0.2100005292
0.2100006471
0.2100007422
0.2100007822
0.2100008232
0.2100008659
0.2100008144
0.2100011998
0.2100013048
0.2100013765
0.2100015038
0.2100016836
0.2100019017
0.2100021432
0.2100023766
0.2100025413
0.2100025761
0.2100024754
0.2100022965
0.2100021055
0.2100019782
0.2100019912
0.2100003215
0.2100005103
0.2100007105
0.2100008644
0.2100009684
0.2100010386
0.2100010792
0.2100010996
0.210001103
0.2100011312
0.2100011809
0.2100012818
0.2100014709
0.210001601
0.2100017648
0.2100019721
0.2100022189
0.210002497
0.2100027818
0.2100030232
0.210003157
0.2100031457
0.2100030107
0.2100027966
0.2100025204
0.2100022712
0.210002185
0.2100014158
0.2100015904
0.2100017303
0.2100017984
0.2100017984
0.21000176
0.2100017129
0.2100016798
0.2100016688
0.2100016968
0.2100017551
0.2100018539
0.210002016
0.2100021886
0.2100023938
0.2100026354
0.2100029061
0.2100031816
0.2100034212
0.2100035797
0.2100036278
0.2100035683
0.2100034292
0.2100031782
0.2100027085
0.2100024029
0.2100023042
0.2100009727
0.2100010443
0.2100010908
0.2100010385
0.2100009725
0.2100007545
0.2100006484
0.2100004414
0.2100002784
0.2100003194
0.2100002651
0.2100029446
0.2100023268
0.2100016767
0.2100011438
0.2100005962
0.2100006846
0.2100006964
0.2100006518
0.2100005277
0.2100003505
0.2100002358
0.2100001375
0.2100000425
0.2099999995
0.2099999877
0.2100000634
0.2100001683
0.2100002967
0.2100003221
0.2100003173
0.2100003423
0.2100005146
0.2100008235
0.2100011304
0.2100013344
0.2100012382
0.21000333
0.2100029836
0.2100025424
0.2100019937
0.2100014589
0.2100010071
0.2100006458
0.210000446
0.2100003653
0.2100002948
0.2100001871
0.2100000532
0.2099999206
0.2099998586
0.2099998188
0.2099997365
0.2099997352
0.2099997917
0.209999879
0.2100001401
0.2100001731
0.2100001706
0.2100001955
0.2100003206
0.2100005313
0.2100007732
0.2100010062
0.2100010131
0.2100028642
0.2100025315
0.2100021033
0.2100016197
0.2100011839
0.2100008165
0.2100004933
0.2100002699
0.2100001304
0.2100000354
0.2099999441
0.2099998597
0.2099996507
0.2099996663
0.2099996435
0.2099994937
0.2099994798
0.2099995086
0.2099994927
0.2099997538
0.2099998214
0.2099998987
0.2099999954
0.2100001198
0.2100002996
0.2100004947
0.2100007195
0.2100008415
0.2100019633
0.2100015623
0.2100011616
0.2100008352
0.2100005741
0.210000321
0.2100001259
0.2100000039
0.2099998771
0.2099998484
0.2099997418
0.2099992556
0.2099994947
0.2099993968
0.2099993369
0.2099992952
0.2099992112
0.2099988492
0.2099995901
0.2099996445
0.20999972
0.2099998216
0.2099999427
0.2100001472
0.2100003152
0.2100005278
0.2100007461
0.2100013048
0.210000998
0.2100006923
0.2100004659
0.2100003018
0.2100001008
0.2099999796
0.2099998929
0.2099997614
0.2099998146
0.2099996528
0.2099995146
0.2099994383
0.2099993699
0.2099992706
0.2099992164
0.209999168
0.2099992826
0.2099993862
0.2099994571
0.2099995633
0.2099997239
0.2099998579
0.2100003147
0.2100003837
0.2100005361
0.2100007782
0.2100006737
0.2100004682
0.2100002664
0.2100001165
0.2100000221
0.2099998829
0.2099998112
0.2099996825
0.2099996285
0.2099996341
0.2099995564
0.2099994797
0.2099993724
0.2099993595
0.2099992488
0.2099991579
0.2099990854
0.209999091
0.2099992048
0.2099992844
0.2099994252
0.2099995495
0.209999689
0.2100002307
0.2100002214
0.2100004175
0.2100007362
0.2100001854
0.2100000387
0.2099999007
0.2099998055
0.2099997612
0.2099996864
0.209999645
0.2099995741
0.2099995546
0.2099995987
0.2099995142
0.2099994422
0.2099991421
0.2099993483
0.2099992474
0.2099991251
0.209999029
0.2099990104
0.2099990568
0.2099991958
0.2099993292
0.2099999589
0.2099997096
0.2100029664
0.2100014457
0.2100011416
0.2100011795
0.2099997578
0.2099996535
0.2099995694
0.209999527
0.2099995732
0.2099994711
0.2099994478
0.2099994338
0.2099994637
0.209999567
0.2099994848
0.2099993912
0.2099993512
0.2099994621
0.2099992598
0.2099991167
0.2099989715
0.2099987034
0.209998955
0.2099990629
0.2099992361
0.2099995426
0.209999704
0.210000598
0.2100005538
0.210000809
0.2100009885
0.2099993739
0.2099993034
0.2099992646
0.2099992458
0.2099992508
0.2099992369
0.2099992484
0.2099992598
0.2099992841
0.2099993889
0.2099996357
0.2099993609
0.2099993685
0.2099992007
0.2099992052
0.2099990684
0.2099989488
0.2099989136
0.2099989487
0.2099990294
0.2099991755
0.2099994016
0.2099996303
0.2100002241
0.2100004472
0.2100007417
0.2100009688
0.2099990326
0.20999899
0.2099989988
0.2099990063
0.2099990203
0.2099990328
0.2099990595
0.2099990955
0.2099991692
0.2099991904
0.2099993224
0.2099992844
0.2099992054
0.2099991642
0.209999099
0.2099989664
0.2099988932
0.2099988797
0.2099989143
0.2099989866
0.2099990994
0.2099992604
0.2099994829
0.20999986
0.2100003245
0.210000627
0.2100008806
0.2099986428
0.2099986806
0.2099987818
0.2099988125
0.2099988396
0.2099988651
0.2099988937
0.2099989312
0.2099989937
0.2099990497
0.209999089
0.209999117
0.2099990986
0.2099990399
0.2099989721
0.209998903
0.2099988632
0.2099988528
0.2099988705
0.2099989224
0.2099990113
0.2099991399
0.2099993233
0.2099996001
0.2099999657
0.210000363
0.2100007206
0.2099982215
0.2099985287
0.2099986486
0.2099986658
0.2099986964
0.2099987347
0.2099987667
0.2099987996
0.2099988459
0.2099988966
0.2099989429
0.2099990555
0.2099989834
0.2099989622
0.2099989184
0.2099988746
0.2099988413
0.2099988194
0.2099988172
0.209998849
0.2099989206
0.2099990316
0.2099991891
0.2099994145
0.2099997035
0.2100001011
0.2100005287
0.209998156
0.2099982835
0.2099984305
0.2099984383
0.2099984988
0.2099985903
0.2099986572
0.2099987015
0.2099987363
0.2099987723
0.2099988184
0.2099988811
0.2099989128
0.2099989059
0.2099988761
0.2099988408
0.2099988053
0.2099987747
0.209998762
0.2099987828
0.2099988427
0.2099989412
0.2099990842
0.2099992815
0.2099995355
0.2099998895
0.2100003172
0.209998226
0.2099983616
0.2099985289
0.2099983574
0.2099983683
0.2099985917
0.2099986612
0.2099986841
0.2099986846
0.209998704
0.2099987493
0.2099988141
0.2099988497
0.2099988511
0.2099988303
0.2099987986
0.2099987628
0.2099987315
0.2099987187
0.2099987378
0.2099987934
0.2099988844
0.209999015
0.2099991938
0.2099994264
0.2099997325
0.2100001183
0.2099984045
0.2099981636
0.2099983423
0.2099972185
0.2099979772
0.2099983627
0.2099984516
0.2099985525
0.2099986216
0.2099986613
0.2099987042
0.2099987629
0.2099988044
0.2099988111
0.209998793
0.2099987631
0.2099987305
0.2099987054
0.2099987002
0.2099987251
0.2099987825
0.2099988697
0.2099989882
0.2099991508
0.2099993645
0.2099996349
0.2099999738
0.2099984574
0.2099983197
0.2099984299
0.209997159
0.2099956078
0.2099987189
0.2099986451
0.2099987191
0.2099987252
0.2099987143
0.2099987236
0.2099987594
0.2099987935
0.2099987985
0.2099987788
0.2099987493
0.209998722
0.2099987074
0.2099987151
0.2099987512
0.209998815
0.2099989011
0.2099990077
0.2099991556
0.2099993517
0.209999599
0.209999911
0.2099984142
0.2099984162
0.2099987452
0.2099987455
0.20999941
0.2099991919
0.2099988182
0.2099987685
0.2099987748
0.2099987801
0.2099987798
0.2099987961
0.2099988191
0.2099988211
0.2099987997
0.2099987705
0.2099987492
0.2099987467
0.2099987695
0.2099988195
0.2099988924
0.2099989764
0.2099990755
0.2099992119
0.2099993921
0.2099996262
0.2099999399
0.2099983662
0.2099984496
0.2099986409
0.2099988334
0.2099991815
0.2099988923
0.2099988022
0.209998827
0.2099988616
0.2099988891
0.2099988788
0.209998878
0.2099988889
0.2099988869
0.2099988642
0.2099988357
0.2099988202
0.2099988294
0.2099988674
0.2099989317
0.2099990142
0.2099990972
0.2099991939
0.2099993219
0.2099994873
0.2099997161
0.2100000563
0.2099983425
0.2099984439
0.2099985486
0.2099987119
0.209998861
0.2099988126
0.209998826
0.2099989167
0.209998984
0.2099990933
0.2099990429
0.2099990158
0.209999011
0.2099990013
0.2099989758
0.2099989479
0.2099989376
0.2099989578
0.20999901
0.2099990885
0.2099991761
0.2099992632
0.2099993634
0.2099994838
0.2099996333
0.2099998603
0.2100002385
0.2099983489
0.209998443
0.209998526
0.2099986652
0.2099987855
0.2099988462
0.2099988736
0.2099990652
0.209999111
0.20999924
0.2099992001
0.2099991918
0.2099991815
0.2099991607
0.20999913
0.2099991032
0.2099990992
0.2099991309
0.2099991979
0.2099992852
0.2099993784
0.2099994766
0.20999958
0.2099996867
0.2099998166
0.2100000394
0.2100004475
0.2099983993
0.2099984795
0.2099985682
0.2099987069
0.2099988353
0.2099989857
0.2099988724
0.2099984388
0.2099992663
0.2100006915
0.2099998309
0.2099995891
0.2099994563
0.2099993762
0.2099993215
0.209999292
0.2099992978
0.2099993429
0.209999421
0.2099995191
0.2099996277
0.2099997362
0.2099998307
0.2099999127
0.2100000183
0.2100002282
0.2100006403
0.2099985019
0.2099985745
0.209998676
0.2099988363
0.2099989773
0.2099994937
0.2099991584
0.2099986212
0.2100002105
0.2100012831
0.2100002737
0.2099998541
0.2099996775
0.2099995891
0.2099995353
0.2099995126
0.2099995316
0.2099995931
0.2099996887
0.2099998059
0.2099999286
0.2100000318
0.2100000991
0.2100001476
0.2100002257
0.2100004119
0.2100007956
0.2099986533
0.2099987278
0.2099988383
0.2099990014
0.2099991715
0.2099995474
0.2099994783
0.2100008872
0.2100002838
0.2100006135
0.210000192
0.2099999573
0.2099998311
0.2099998012
0.2099997809
0.2099997786
0.2099998184
0.2099999017
0.2100000181
0.21000015
0.21000027
0.2100003485
0.2100003787
0.2100003924
0.2100004421
0.2100005965
0.210000928
0.2099988358
0.2099989254
0.2099990463
0.2099992005
0.2099993601
0.2099995885
0.2099996679
0.210000345
0.2100001462
0.2100002764
0.210000115
0.210000154
0.209999931
0.2099998943
0.2099999645
0.2100000537
0.2100001515
0.2100002681
0.2100004019
0.2100005346
0.2100006368
0.2100006843
0.2100006812
0.2100006654
0.2100006872
0.2100008052
0.2100010752
0.2099990358
0.2099991406
0.2099992736
0.209999419
0.2099995572
0.2099997115
0.2099998325
0.2100001394
0.2100001724
0.2100002693
0.2100002163
0.2100004083
0.2100001366
0.2100001746
0.2100002695
0.2100003959
0.2100005348
0.21000068
0.2100008244
0.2100009508
0.2100010353
0.2100010604
0.2100010342
0.2100009937
0.2100009861
0.2100010632
0.2100012706
0.2099992642
0.2099993819
0.2099995262
0.2099996684
0.209999795
0.2099999232
0.2100000504
0.2100002307
0.2100003177
0.2100004187
0.2100003862
0.2100005011
0.2100003288
0.2100004463
0.2100005974
0.210000775
0.2100009583
0.2100011333
0.2100012918
0.210001421
0.2100015011
0.2100015143
0.2100014666
0.2100013957
0.2100013497
0.2100013771
0.2100015205
0.2099995472
0.20999968
0.2099998354
0.2099999806
0.2100001076
0.2100002294
0.210000346
0.2100004653
0.210000532
0.2100006059
0.2100006083
0.2100006838
0.2100006411
0.210000795
0.2100009909
0.2100012128
0.2100014359
0.2100016456
0.2100018319
0.2100019805
0.2100020665
0.2100020646
0.2100019816
0.2100018628
0.2100017596
0.2100017215
0.2100017966
0.209999943
0.2100000902
0.2100002533
0.2100003991
0.2100005199
0.2100006207
0.2100006997
0.2100007616
0.210000794
0.210000839
0.2100008757
0.2100009326
0.2100010303
0.2100012191
0.2100014533
0.2100017102
0.2100019713
0.2100022217
0.2100024445
0.2100026144
0.2100026945
0.21000266
0.21000253
0.2100023539
0.2100021756
0.2100020514
0.2100020488
0.2100005667
0.2100007197
0.2100008679
0.2100009809
0.2100010548
0.2100010982
0.2100011202
0.2100011354
0.2100011518
0.2100011955
0.2100012633
0.2100013638
0.2100015194
0.2100017314
0.2100019833
0.2100022613
0.2100025496
0.210002827
0.2100030641
0.2100032225
0.210003268
0.2100031946
0.2100030346
0.2100028172
0.2100025514
0.2100023212
0.2100022339
0.2100016007
0.2100017115
0.2100017899
0.2100018227
0.2100018145
0.2100017835
0.2100017515
0.2100017371
0.2100017487
0.2100017978
0.2100018803
0.2100020034
0.21000217
0.2100023801
0.2100026262
0.2100028958
0.210003169
0.2100034158
0.2100036006
0.2100036952
0.2100036904
0.2100036011
0.2100034519
0.2100031862
0.2100027179
0.2100024362
0.2100023373
0.2100012934
0.2100011069
0.2100010978
0.2100011488
0.2100010459
0.2100009655
0.2100008496
0.2100006817
0.2100006873
0.2100006378
0.2100005919
0.2100005705
0.210000621
0.2100006701
0.2100007217
0.2100026356
0.2100021001
0.2100015698
0.2100011272
0.210000923
0.2100007698
0.2100007852
0.2100006784
0.210000579
0.2100004555
0.2100003316
0.2100003143
0.2100002987
0.2100002486
0.2100002403
0.2100002814
0.2100003346
0.2100004012
0.2100004615
0.2100004945
0.2100005487
0.2100006541
0.2100008944
0.2100011636
0.2100013631
0.2100014605
0.2100031174
0.2100027419
0.2100023033
0.2100018361
0.2100013866
0.2100009933
0.2100006769
0.2100005129
0.2100004374
0.2100003463
0.210000239
0.2100001441
0.2100000365
0.2100000142
0.210000016
0.2099999469
0.2099999333
0.2099999622
0.2099999362
0.2100000303
0.2100000611
0.210000244
0.2100003184
0.2100004155
0.2100005934
0.2100008097
0.2100010278
0.2100011866
0.2100026958
0.2100023485
0.210001951
0.2100015314
0.2100011512
0.2100008152
0.2100005176
0.210000307
0.2100001829
0.2100000901
0.2099999819
0.2099999238
0.2099998094
0.2099997869
0.20999979
0.2099996852
0.2099996671
0.2099996972
0.209999767
0.2099998757
0.2099999167
0.2099999781
0.2100000521
0.2100001555
0.210000328
0.2100005145
0.2100007228
0.2100009472
0.2100018922
0.2100015647
0.210001171
0.2100008574
0.2100005909
0.2100003395
0.2100001385
0.2100000131
0.2099999066
0.2099995914
0.2099997545
0.2099996751
0.2099995894
0.2099995314
0.209999465
0.2099993987
0.2099994594
0.2099992513
0.20999951
0.2099995735
0.2099996889
0.2099997944
0.2099999086
0.2100001267
0.2100002945
0.2100004934
0.2100007426
0.2100013962
0.210001317
0.2100008116
0.210000542
0.2100003359
0.2100001484
0.2099999824
0.2099998839
0.209999788
0.2099997364
0.2099996557
0.2099995674
0.2099995048
0.2099994338
0.2099993487
0.2099992886
0.2099992865
0.2099992911
0.2099993786
0.2099994191
0.20999949
0.2099996295
0.209999699
0.2100002566
0.2100003587
0.2100004975
0.2100007221
0.2100008431
0.2100006369
0.210000385
0.210000197
0.2100000572
0.2099999613
0.2099998136
0.2099997003
0.2099996414
0.2099996023
0.2099995196
0.2099994617
0.2099993991
0.2099993731
0.2099992709
0.2099991724
0.2099991126
0.2099990572
0.2099991624
0.2099992312
0.2099993135
0.2099994675
0.209999564
0.2100003666
0.2100002966
0.2100003589
0.2100006234
0.2100003631
0.2100001875
0.2100000088
0.2099998689
0.2099997736
0.2099997023
0.2099996518
0.2099995792
0.2099995703
0.2099995749
0.2099994707
0.2099994423
0.209999427
0.2099993647
0.2099992533
0.2099991443
0.2099990566
0.2099990327
0.2099990724
0.2099991461
0.2099991336
0.209999829
0.2099989405
0.2100021761
0.2100024854
0.2100013799
0.2100013021
0.2099999298
0.2099997888
0.2099996652
0.2099995681
0.2099995191
0.2099994926
0.2099994699
0.2099994353
0.2099994554
0.2099995148
0.2099993941
0.2099995024
0.2099994172
0.2099997478
0.2099993703
0.2099991619
0.2099990348
0.2099988566
0.2099989365
0.2099990381
0.2099991716
0.2099994977
0.2099995538
0.2100009709
0.2100006573
0.2100007112
0.2100009814
0.2099995497
0.209999441
0.2099993564
0.2099993011
0.2099992946
0.2099992721
0.2099992787
0.209999274
0.2099992701
0.209999315
0.2099991396
0.2099992846
0.2099992816
0.2099991866
0.209998957
0.2099990329
0.2099989734
0.209998911
0.2099989536
0.2099990253
0.2099991535
0.2099993788
0.2099995232
0.2100003268
0.2100004087
0.2100007303
0.2100009716
0.2099992321
0.2099991541
0.2099990973
0.2099990641
0.2099990638
0.2099990744
0.2099991031
0.209999138
0.2099991777
0.2099991956
0.2099992853
0.209999263
0.209999253
0.2099992069
0.2099991051
0.2099990093
0.2099989335
0.2099988966
0.2099989247
0.2099989878
0.2099990954
0.2099992601
0.2099994638
0.2099998894
0.2100001621
0.210000562
0.2100009063
0.2099990253
0.2099989799
0.2099989088
0.2099988669
0.2099988707
0.2099988966
0.2099989351
0.2099989823
0.2099990369
0.2099990787
0.2099991847
0.2099991738
0.2099991992
0.2099991364
0.2099990513
0.2099989741
0.2099989184
0.209998891
0.2099989009
0.2099989454
0.2099990324
0.2099991704
0.2099993693
0.2099996666
0.2099999735
0.2100003634
0.2100007831
0.2099984061
0.20999875
0.2099987479
0.2099987043
0.2099987067
0.2099987432
0.2099987897
0.2099988394
0.2099988957
0.2099989466
0.2099990256
0.2099990429
0.2099990781
0.2099990611
0.2099990127
0.2099989586
0.2099989116
0.2099988787
0.20999887
0.2099988954
0.2099989651
0.2099990855
0.2099992675
0.2099995182
0.2099998157
0.2100001794
0.2100006236
0.2099986914
0.2099989527
0.209998693
0.2099985066
0.2099985167
0.2099985833
0.2099986525
0.2099987217
0.2099987812
0.2099988367
0.2099988992
0.2099989549
0.2099990011
0.2099990057
0.2099989805
0.2099989404
0.2099988954
0.209998855
0.2099988334
0.2099988458
0.2099989028
0.2099990111
0.2099991754
0.2099994011
0.2099996807
0.2100000196
0.2100004529
0.2099986893
0.2099986645
0.2099985975
0.2099982366
0.209998285
0.2099984864
0.2099985609
0.2099986349
0.2099986947
0.2099987498
0.2099988109
0.2099988763
0.2099989281
0.2099989487
0.2099989401
0.2099989099
0.2099988673
0.209998825
0.2099987996
0.2099988073
0.2099988579
0.2099989567
0.2099991071
0.2099993142
0.2099995757
0.2099998919
0.2100002979
0.2099986554
0.2099984212
0.2099982806
0.2099968579
0.2099978635
0.2099983711
0.2099984063
0.2099985268
0.2099986227
0.2099986886
0.209998747
0.2099988093
0.2099988631
0.2099988925
0.2099988939
0.2099988717
0.2099988353
0.209998799
0.2099987797
0.2099987918
0.2099988432
0.2099989369
0.2099990758
0.2099992662
0.2099995094
0.2099998063
0.210000188
0.2099985121
0.2099982888
0.2099981976
0.2099960012
0.2099943258
0.2099977758
0.2099980433
0.2099984345
0.2099986013
0.2099986785
0.2099987249
0.2099987725
0.2099988188
0.2099988483
0.2099988542
0.2099988392
0.2099988132
0.2099987903
0.2099987856
0.2099988103
0.209998869
0.2099989622
0.2099990912
0.2099992653
0.2099994906
0.2099997729
0.2100001462
0.2099984436
0.2099983723
0.2099985785
0.2099977832
0.2099976081
0.2099984757
0.2099984657
0.2099985764
0.2099986663
0.2099987197
0.2099987438
0.2099987703
0.2099988036
0.2099988291
0.2099988374
0.2099988303
0.2099988178
0.2099988133
0.2099988289
0.2099988717
0.2099989426
0.2099990373
0.2099991579
0.2099993166
0.2099995248
0.2099997976
0.2100001831
0.2099984039
0.2099984246
0.2099985624
0.2099984796
0.2099983582
0.209998507
0.2099985509
0.2099986367
0.2099987182
0.2099987873
0.2099987927
0.2099988017
0.2099988241
0.2099988469
0.2099988588
0.2099988614
0.2099988645
0.2099988807
0.2099989192
0.2099989831
0.2099990674
0.2099991638
0.209999277
0.209999421
0.2099996123
0.2099998794
0.2100002913
0.2099983805
0.209998445
0.2099985194
0.2099985686
0.2099985363
0.2099985689
0.2099986026
0.2099986281
0.2099987709
0.2099990609
0.2099989334
0.2099988893
0.2099988945
0.2099989134
0.2099989297
0.2099989434
0.209998963
0.2099990007
0.2099990632
0.2099991475
0.209999242
0.2099993398
0.2099994453
0.2099995733
0.2099997466
0.2100000068
0.2100004431
0.2099983682
0.2099984453
0.2099985062
0.2099985722
0.2099985834
0.2099985875
0.2099985807
0.2099984626
0.2099986898
0.2099988873
0.2099988962
0.2099989685
0.2099990088
0.2099990322
0.2099990536
0.209999078
0.2099991162
0.2099991772
0.2099992618
0.2099993616
0.2099994636
0.20999956
0.2099996539
0.209999762
0.2099999138
0.2100001597
0.2100005992
0.2099983805
0.2099984537
0.2099985184
0.2099985867
0.2099986091
0.2099985304
0.2099984272
0.2099971872
0.2099985319
0.2099999342
0.209999865
0.2099995503
0.209999327
0.209999252
0.2099992461
0.2099992713
0.2099993245
0.2099994063
0.20999951
0.2099996223
0.2099997279
0.2099998163
0.209999891
0.2099999734
0.2100000989
0.2100003198
0.210000731
0.20999844
0.2099985073
0.2099985787
0.2099986518
0.2099986675
0.2099984811
0.2099982085
0.2099933531
0.2099986981
0.2100052815
0.2100007265
0.2099998186
0.2099995221
0.2099994578
0.2099994671
0.2099995087
0.2099995822
0.2099996852
0.2099998061
0.2099999273
0.2100000295
0.2100001007
0.2100001482
0.2100002006
0.2100002963
0.2100004831
0.2100008402
0.2099985613
0.2099986305
0.2099987126
0.2099988046
0.2099988528
0.2099988593
0.2099987897
0.2099979849
0.2099995162
0.2100012288
0.2100001389
0.2099997673
0.2099996016
0.209999619
0.2099996942
0.2099997807
0.2099998862
0.2100000131
0.2100001486
0.2100002723
0.2100003629