/*--------------------------------*- C++ -*----------------------------------*\
  =========                 |
  \\      /  F ield         | OpenFOAM: The Open Source CFD Toolbox
   \\    /   O peration     | Website:  https://openfoam.org
    \\  /    A nd           | Version:  8
     \\/     M anipulation  |
\*---------------------------------------------------------------------------*/
FoamFile
{
    version     2.0;
    format      ascii;
    class       surfaceScalarField;
    location    "1.3";
    object      phi;
}
// * * * * * * * * * * * * * * * * * * * * * * * * * * * * * * * * * * * * * //

dimensions      [1 0 -1 0 0 0 0];

internalField   nonuniform List<scalar> 
197859
(
-6.594872766e-06
-3.889120706e-05
1.134498388e-05
-1.27005427e-05
-2.949230703e-05
1.730706644e-05
-1.252667145e-05
-2.642998423e-05
1.237785169e-05
-9.107729367e-06
-1.639474819e-05
7.84102614e-06
-3.529222171e-06
-1.923726148e-05
1.005185568e-06
-2.881660508e-06
-1.459994177e-05
-5.068951625e-07
-1.341042574e-06
-1.958733821e-05
4.371558509e-06
2.708750516e-06
-1.338739753e-05
7.161804464e-06
6.000451794e-06
-2.256823711e-05
7.964487296e-06
3.043232504e-06
-2.191705124e-05
5.182524556e-06
-2.517487962e-05
8.26099598e-06
4.404397994e-05
-2.837499229e-05
1.002261342e-05
3.075585294e-05
-3.197449598e-05
1.222801188e-05
1.465781112e-05
-3.391904388e-05
1.346661988e-05
2.898481213e-06
-3.715128409e-05
1.261214529e-05
1.043152545e-05
-2.671185717e-05
-1.971261457e-05
2.50021346e-06
-3.647704127e-05
1.491526652e-05
-6.018071905e-06
-3.493601388e-05
1.702350629e-05
-6.947551905e-06
-2.899823076e-05
1.35319901e-05
-6.275246121e-06
-3.219810191e-05
1.228739137e-05
-7.131879119e-06
-2.70590451e-05
1.331436941e-05
-6.784181499e-06
-3.204638062e-05
1.210966869e-05
-4.958077418e-06
-2.264341451e-05
7.428203602e-06
-1.203247098e-06
-2.947527555e-05
3.150414159e-06
-1.165978542e-06
-2.856792346e-05
6.611620945e-06
-5.001351041e-06
-2.990374617e-05
8.562032155e-06
-7.896412925e-06
-2.557368062e-05
7.528523033e-06
-6.731241619e-06
-2.337008896e-05
5.926306844e-06
-1.705850939e-06
-1.797842315e-05
3.437227917e-06
3.619410063e-06
-1.768612246e-05
4.398236244e-06
5.736257464e-06
-2.459554393e-05
7.935653973e-06
7.686275161e-06
-3.440111024e-05
6.096354289e-06
9.97830574e-06
-4.582548641e-05
-1.24845881e-06
1.311336514e-05
-5.340014845e-05
-5.969371712e-06
1.644901881e-05
-5.826646764e-05
-6.145881702e-06
1.585217287e-05
-6.325963821e-05
-2.215711868e-06
-7.139218858e-05
1.2045335e-05
5.940220088e-05
-1.63555398e-05
-2.655674103e-06
5.311236144e-05
-2.285584352e-05
4.565423011e-06
4.292902491e-05
-2.884967877e-05
1.065777055e-05
3.213823428e-05
-3.338964127e-05
1.22056445e-05
2.320505403e-05
-3.659574664e-05
1.160953698e-05
1.426223015e-05
-4.006879906e-05
1.185988282e-05
8.65579353e-06
-3.691441928e-05
1.580849248e-05
-4.688394921e-07
-4.327331599e-05
1.592027515e-05
-5.686457623e-06
-4.511285157e-05
1.539375833e-05
-6.968279803e-06
-3.920909507e-05
1.149187324e-05
-4.471011814e-06
-4.298211536e-05
8.285781841e-06
-5.209596025e-06
-4.095568861e-05
1.46341411e-05
-8.404358242e-06
-4.482260035e-05
1.596968403e-05
-5.333275113e-06
-3.384584596e-05
8.129967362e-06
1.34920118e-06
-3.096223894e-05
-5.19702179e-06
2.215105668e-06
-3.432520346e-05
4.889758859e-06
-2.196001751e-06
-3.492967174e-05
9.435266549e-06
-7.077097196e-06
-2.920374524e-05
8.509319054e-06
-7.369059158e-06
-3.139183417e-05
8.311767766e-06
-5.745243802e-06
-2.312752516e-05
3.523483401e-06
-1.552732377e-06
-2.314441756e-05
1.263961754e-06
1.325371977e-07
-2.837066492e-05
2.089032039e-06
3.787795169e-06
-3.44990096e-05
-3.558161533e-06
9.278824894e-06
-4.135233264e-05
-9.964579958e-06
1.529604841e-05
-4.639603294e-05
-1.302131468e-05
1.979127234e-05
-5.024367131e-05
-1.251761158e-05
1.910538704e-05
-5.460459477e-05
-7.968469516e-06
-6.189190205e-05
9.605951602e-06
6.166466448e-05
2.882054835e-06
5.376768469e-05
-2.41474154e-05
9.188365897e-06
4.344030343e-05
-3.186852213e-05
1.334601782e-05
3.309695533e-05
-3.71405197e-05
1.409398884e-05
2.436862964e-05
-4.096090244e-05
1.309319494e-05
1.60302113e-05
-4.373351981e-05
1.200278607e-05
1.02834426e-05
-4.654392788e-05
1.537591078e-05
6.98162355e-07
-4.837812936e-05
1.468960174e-05
-5.617853615e-06
-4.98118519e-05
1.101444245e-05
-6.306315645e-06
-4.49934709e-05
6.472200943e-06
-3.863198866e-07
-4.755961536e-05
-1.343222661e-06
-1.063760394e-07
-4.984643459e-05
8.609950125e-06
-5.640549669e-06
-5.207805503e-05
1.278854832e-05
-3.750530938e-06
-4.298852714e-05
7.251541976e-06
7.098589296e-06
-3.296010189e-05
-8.852445898e-06
8.813163714e-06
-3.775760082e-05
1.716563818e-06
3.560551313e-06
-3.922501464e-05
9.54657086e-06
-2.672121196e-06
-3.26335551e-05
9.661090231e-06
-6.472224869e-06
-3.638190074e-05
8.788878881e-06
-9.151556382e-06
-2.748650419e-05
7.037024856e-06
-9.107082867e-06
-2.560129166e-05
2.411318827e-06
-5.770679772e-06
-2.692658307e-05
-4.781314942e-06
9.515984944e-07
-2.879497074e-05
-1.242698402e-05
9.175441772e-06
-3.159743016e-05
-1.797912547e-05
1.750424675e-05
-3.476989258e-05
-1.995505054e-05
2.29945372e-05
-3.721618812e-05
-1.851761589e-05
2.21385127e-05
-4.044975366e-05
-1.329847987e-05
-4.614693881e-05
6.393994863e-06
4.738352016e-05
-3.168886799e-05
1.2348301e-05
4.028559081e-05
-3.846243024e-05
1.369166687e-05
3.205848577e-05
-4.290428276e-05
1.399067823e-05
2.383195768e-05
-4.61979434e-05
1.346334296e-05
1.608508493e-05
-4.76282435e-05
1.164131867e-05
8.480062778e-06
-5.166382638e-05
1.272461689e-05
-1.248601227e-06
-5.133925583e-05
1.268940501e-05
-7.671170053e-06
-4.690172739e-05
3.511958609e-06
-8.044706027e-06
-4.587404816e-05
1.253615446e-06
2.541041719e-06
-4.036612655e-05
-1.778006988e-05
6.028244681e-06
-5.376461537e-05
4.302960438e-07
1.228045852e-05
-4.442648375e-05
-1.390469146e-05
7.612336176e-06
-4.763456608e-05
9.313254166e-06
9.080624115e-06
-3.918076833e-05
4.751401014e-06
1.045248708e-05
-4.129158223e-05
2.161128575e-06
2.052621692e-06
-3.812600295e-05
7.299592731e-06
-4.810199444e-06
-3.614911712e-05
1.037736567e-05
5.212516734e-06
-1.799924128e-05
-2.84070425e-05
-5.012852635e-06
-2.334217172e-05
6.079792843e-06
-1.1650563e-05
-1.972211944e-05
7.57541252e-07
-7.79154547e-06
-2.048405196e-05
-1.030234308e-05
4.312943031e-07
-1.872028061e-05
-1.829816122e-05
1.009450172e-05
-1.7437714e-05
-2.38232875e-05
1.998977143e-05
-1.905607704e-05
-2.560929978e-05
2.595716117e-05
-1.948395416e-05
-2.369961534e-05
2.470257474e-05
-2.106726866e-05
-1.812777805e-05
-2.366895268e-05
2.224774665e-06
4.07753921e-05
-4.068901552e-05
1.376255028e-05
3.588245575e-05
-4.435486022e-05
1.078521345e-05
2.958370234e-05
-4.746420147e-05
1.08585186e-05
2.188234351e-05
-4.987761248e-05
1.138085296e-05
1.491144388e-05
-5.052460096e-05
9.867032079e-06
8.439053314e-06
-5.074746947e-05
5.555776409e-06
-1.068737907e-06
-5.278832424e-05
1.095655182e-05
-6.324119773e-06
-4.398918305e-05
2.342487898e-06
-5.34814699e-06
-4.532492089e-05
-1.525483961e-06
7.82813933e-06
-4.266435991e-05
-1.087851332e-05
1.310549261e-05
-5.434466868e-05
-4.69781086e-06
1.352071134e-05
-5.274343959e-05
7.901170801e-06
1.126069174e-05
-5.216454432e-05
6.789286946e-06
1.530713881e-05
-4.338439737e-05
1.563990358e-07
1.817084655e-05
-4.060994461e-05
-3.54616282e-06
1.854748945e-05
-3.752001425e-05
-9.835469374e-07
1.15983784e-05
-3.466323171e-05
5.46241789e-06
4.391160789e-06
-2.242464816e-05
1.163156598e-05
-9.632777652e-06
-2.252630945e-05
1.320729151e-05
-1.317350122e-05
-1.470572349e-05
-1.476494536e-06
-8.308471123e-06
-8.362217095e-06
-1.698759423e-05
-8.670632632e-07
-2.956276629e-06
-2.320609495e-05
9.293919555e-06
8.70207379e-07
-2.846924813e-05
2.259494139e-05
-1.312240593e-06
-3.104542959e-05
2.913516479e-05
2.120017943e-06
-2.814445509e-05
2.720358263e-05
2.995680133e-06
-2.213151287e-05
5.794368497e-06
-2.259802841e-06
3.545369489e-05
-4.653497916e-05
9.211094677e-06
3.251731396e-05
-4.836601463e-05
6.947422394e-06
2.798510882e-05
-5.02320231e-05
7.299905979e-06
1.973171468e-05
-5.068116456e-05
9.056824617e-06
1.315853003e-05
-5.177191661e-05
7.820317308e-06
1.455615271e-05
-4.311389753e-05
-9.03127052e-06
1.895984252e-06
-5.073662161e-05
1.060822144e-05
-1.068762811e-05
-4.392427538e-05
1.251844604e-05
-7.648126653e-06
-4.241717029e-05
-5.947560765e-06
8.213062278e-06
-3.987137289e-05
-1.865453956e-05
1.69023662e-05
-4.723923069e-05
-1.579515272e-05
1.887183362e-05
-4.977228428e-05
-4.941116118e-06
1.791074362e-05
-4.574835781e-05
-5.455747996e-06
2.200957704e-05
-3.977426503e-05
-7.709632615e-06
2.625177925e-05
-3.4162607e-05
-1.069021644e-05
2.872289595e-05
-3.07989726e-05
-9.192865853e-06
2.515736614e-05
-2.816221576e-05
-2.936163527e-06
1.954689827e-05
-2.393151608e-05
7.116538084e-06
1.857246882e-07
-1.782957803e-05
1.466371179e-05
-4.775225527e-06
-1.07596021e-05
1.014062387e-06
3.186317826e-06
6.213196479e-06
-2.253760648e-05
5.972355322e-06
1.393418777e-05
-1.967710847e-05
1.12659551e-05
1.784045264e-05
-2.226418223e-05
2.210422233e-05
1.396964905e-05
-2.612049494e-05
2.760476522e-05
1.954331158e-05
-2.292385734e-05
2.511779262e-05
2.292326936e-05
-1.744059843e-05
3.03500223e-05
5.621801042e-07
3.165408216e-05
-5.095894147e-05
4.437909963e-06
3.11953462e-05
-5.129671672e-05
3.389345114e-06
2.869588303e-05
-5.212820447e-05
4.395544774e-06
2.402888362e-05
-5.227224842e-05
6.25797639e-06
1.729099216e-05
-5.219262957e-05
7.158463984e-06
1.009861135e-05
-4.609031924e-05
1.016865313e-05
-5.677827448e-06
-4.785545872e-05
1.289507964e-05
-1.622501409e-05
-4.067583107e-05
7.298535938e-06
-9.432676038e-06
-3.29645627e-05
-1.624519275e-05
8.599044613e-06
-2.48154487e-05
-3.308790129e-05
1.96120436e-05
-2.661603169e-05
-3.163650725e-05
2.262355091e-05
-2.893167273e-05
-2.38524473e-05
3.269495918e-05
-2.134301382e-05
-3.447748046e-05
3.283334992e-05
-2.318095232e-05
-1.673233878e-05
3.49687697e-05
-1.910280172e-05
-1.719583381e-05
3.808769245e-05
-1.694451292e-05
-1.697395888e-05
3.865152628e-05
-1.601441627e-05
-1.271221146e-05
3.599080922e-05
-1.579132928e-05
-5.480061119e-06
2.405829798e-05
-1.070807784e-05
4.810387056e-06
7.330855355e-06
-5.065341967e-06
1.103246624e-05
-2.039561441e-06
1.235756635e-05
3.225436876e-06
-3.510521521e-06
2.544322613e-05
-1.003892101e-05
1.155460796e-06
3.459490201e-05
-2.142090305e-05
2.495429937e-05
4.577632425e-05
-5.560784644e-05
2.99790567e-05
4.415275278e-05
-2.963491599e-05
2.489688004e-05
4.525911963e-05
-1.725424766e-05
5.323576892e-05
2.010719618e-06
3.178338578e-05
-5.430720547e-05
2.475338458e-06
3.194604294e-05
-5.359024039e-05
2.130792901e-06
3.015825765e-05
-5.324510007e-05
2.904600258e-06
2.62451322e-05
-5.253688691e-05
4.177678071e-06
2.030366806e-05
-5.073520562e-05
4.483936733e-06
1.196044866e-05
-4.608872243e-05
8.341517716e-06
-3.997798564e-06
-4.294558478e-05
1.104822424e-05
-1.59156968e-05
-3.480982909e-05
6.051726881e-06
-9.309135747e-06
-2.224657303e-05
-1.732475687e-05
9.207995796e-06
-2.457314445e-06
-4.087546548e-05
2.393801408e-05
4.577854463e-07
-4.180403289e-05
3.218611524e-05
1.641797902e-06
-3.882181612e-05
3.598544318e-05
1.109032113e-06
-2.625170302e-05
3.717601892e-05
-9.060213067e-07
-2.346595274e-05
4.00068729e-05
4.852306472e-07
-2.241931781e-05
4.247783131e-05
2.376265927e-06
-2.179219449e-05
4.18455039e-05
2.87461719e-06
-1.825716817e-05
5.320966205e-05
6.787396283e-06
-3.394366335e-05
4.547253263e-05
3.768433219e-06
-6.739971141e-06
2.949761644e-05
5.887275213e-06
5.021674621e-06
1.407027959e-05
1.444274486e-05
1.334153885e-05
6.673268394e-06
2.502909713e-05
7.810463211e-06
7.156203549e-06
3.925268021e-05
-5.141029455e-06
1.775063968e-05
5.073034975e-05
-1.554895604e-05
2.228912968e-05
5.156557275e-05
-1.195146134e-05
1.995871807e-05
5.528364741e-05
-7.694330178e-06
6.544527609e-05
7.749093499e-06
3.401012147e-05
-5.813767622e-05
2.291208805e-06
3.386260174e-05
-5.591654175e-05
2.473766769e-06
3.217594712e-05
-5.400236605e-05
2.443858164e-06
2.920020606e-05
-5.224855675e-05
2.687340038e-06
2.495975625e-05
-4.932453396e-05
2.829695099e-06
1.9183915e-05
-4.467242013e-05
4.359442985e-06
9.225973977e-06
-3.996079212e-05
6.973020213e-06
-5.926333627e-06
-3.117608612e-05
1.15184184e-05
-6.443190903e-06
-2.012550373e-05
-1.604418939e-06
1.087746513e-05
1.482137808e-05
-3.459946495e-05
2.245955217e-05
1.807129091e-05
-2.919595231e-05
2.020256623e-05
1.473176693e-05
-1.083326413e-05
2.467425113e-05
1.527661327e-05
-1.863959212e-05
2.97124592e-05
1.634717967e-05
-2.229176189e-05
4.084488577e-05
1.907468469e-05
-2.972277287e-05
4.614083647e-05
1.787432095e-05
-2.079447748e-05
4.922698664e-05
1.609695941e-05
-1.63089635e-05
5.091978417e-05
1.598731958e-05
-1.08932871e-05
4.450743054e-05
1.262642201e-05
-2.446153826e-06
3.331178351e-05
1.303710613e-05
4.045291988e-06
2.095705643e-05
1.785347536e-05
8.943466616e-06
1.140898981e-05
2.452074446e-05
1.005590063e-05
8.607784931e-06
3.832040277e-05
3.733135497e-06
1.232890161e-05
5.118434627e-05
-4.175704172e-06
1.529349013e-05
5.698203032e-05
-8.381391692e-06
1.62451851e-05
6.436529198e-05
-1.003364454e-05
7.232938425e-05
9.361051177e-06
3.840171327e-05
-6.350916447e-05
1.623102297e-06
3.69910129e-05
-5.8150709e-05
3.644845733e-06
3.457295965e-05
-5.4192401e-05
2.608050097e-06
3.201819423e-05
-5.120247296e-05
1.508631277e-06
2.923411437e-05
-4.702239645e-05
4.818766865e-07
2.585671636e-05
-4.18978071e-05
6.02706902e-07
2.027527299e-05
-3.686657573e-05
2.487126074e-06
1.131778581e-05
-2.971997736e-05
7.501252941e-06
2.893050747e-06
-2.239881096e-05
1.069787204e-05
9.993095223e-06
7.94028087e-06
-2.191148507e-07
1.733300145e-05
6.551440513e-06
4.179718497e-06
1.518713744e-05
2.956169587e-06
1.392120993e-05
1.692800669e-05
5.864337799e-06
7.671098927e-06
2.4432021e-05
1.463990424e-05
-5.797055908e-06
3.544548763e-05
2.031201028e-05
-1.225113531e-05
4.453857522e-05
2.099988361e-05
-1.221899225e-05
4.951938493e-05
1.917364375e-05
-8.057857998e-06
5.062098016e-05
1.697708959e-05
-2.091754017e-06
4.513716939e-05
1.528736303e-05
2.82245886e-06
3.650418508e-05
1.669092566e-05
4.978736064e-06
2.725920063e-05
2.106371368e-05
6.034312062e-06
1.747221553e-05
2.657453986e-05
7.732769418e-06
1.05832103e-05
3.687168201e-05
8.33737599e-06
6.576448409e-06
4.991711048e-05
5.273626486e-06
1.067233447e-05
6.156999075e-05
-8.68410911e-06
1.390583564e-05
6.666972378e-05
-5.538191049e-06
7.423047589e-05
1.200461021e-05
4.623121929e-05
-6.638608982e-05
-6.356328009e-06
4.23385706e-05
-5.843607226e-05
4.178101211e-06
3.791006951e-05
-5.303645629e-05
3.272571234e-06
3.525820939e-05
-4.945309878e-05
9.024765795e-07
3.3573495e-05
-4.407742172e-05
-1.260290791e-06
3.204888821e-05
-3.802061612e-05
-2.352623225e-06
2.922861278e-05
-3.247727427e-05
-1.569084975e-06
2.389381835e-05
-2.644445951e-05
2.059189057e-06
1.486684704e-05
-2.064107503e-05
7.269107781e-06
1.745721324e-05
-7.152340966e-06
1.250210228e-05
2.276721447e-05
-3.002706245e-06
4.243936108e-06
1.85492302e-05
1.347179589e-06
5.826723598e-06
1.661630331e-05
3.464370247e-06
4.332619144e-06
2.283365722e-05
1.025894989e-05
-1.836693181e-06
3.342955781e-05
1.596773098e-05
-6.251938846e-06
4.293927958e-05
1.785866979e-05
-6.368823913e-06
4.850503886e-05
1.723651551e-05
-3.628955275e-06
4.926953839e-05
1.632843216e-05
-1.161817649e-07
4.530259496e-05
1.683595201e-05
2.418004414e-06
3.91126988e-05
1.978135118e-05
3.099111924e-06
3.250214854e-05
2.456311655e-05
3.11078679e-06
2.503194819e-05
2.978600632e-05
4.258384065e-06
1.785376343e-05
3.695637866e-05
7.093170461e-06
1.179368791e-05
4.721644315e-05
8.760442033e-06
1.351940464e-05
5.963606978e-05
2.079606215e-07
1.24198735e-05
6.305799978e-05
4.711029409e-06
7.194048217e-05
1.47096801e-05
5.601128893e-05
-3.337448678e-05
-5.067742748e-05
4.972956535e-05
-4.587533585e-05
-6.279171636e-06
4.214740785e-05
-4.773091864e-05
2.276620052e-06
3.913506013e-05
-4.720937103e-05
7.686699909e-07
3.85304294e-05
-4.150542197e-05
-1.9673143e-06
3.822469781e-05
-3.35541545e-05
-4.160681107e-06
3.73070183e-05
-2.707773778e-05
-4.481839488e-06
3.471797483e-05
-2.151312225e-05
-2.342319179e-06
2.866467578e-05
-1.661526132e-05
2.027414396e-06
2.366453858e-05
-9.491205805e-06
7.338891405e-06
2.341354051e-05
-1.758179342e-06
-9.937030057e-07
2.853686643e-05
8.463952998e-06
-1.224025856e-05
2.702996983e-05
9.1340181e-06
-4.163000399e-06
2.910666678e-05
1.294935795e-05
-4.767371991e-06
3.58271708e-05
1.660443641e-05
-7.35749626e-06
4.314141655e-05
1.843480298e-05
-7.890673763e-06
4.803081624e-05
1.898388312e-05
-6.637069591e-06
4.930865884e-05
1.956172925e-05
-4.511447539e-06
4.716356614e-05
2.124932139e-05
-2.268585752e-06
4.290284185e-05
2.461925936e-05
-5.774941646e-07
3.787318815e-05
2.916988646e-05
4.22573318e-07
3.22061858e-05
3.382702825e-05
1.625675548e-06
2.610529992e-05
3.884905991e-05
4.207912833e-06
2.028161475e-05
4.542969916e-05
7.610149969e-06
1.781518076e-05
5.432664913e-05
7.775607181e-06
1.151642116e-05
5.78113207e-05
1.154521324e-05
6.734252918e-05
1.611415889e-05
0.0001197841861
3.607811439e-05
-0.0001140769243
9.437290024e-05
-8.095795686e-06
-1.23680128e-05
6.182905749e-05
-2.422382793e-05
9.037160979e-06
4.82728161e-05
-3.757782814e-05
3.925034465e-06
4.645414667e-05
-3.896600174e-05
-7.204745651e-07
4.535614125e-05
-2.807567098e-05
-4.380230789e-06
4.482469658e-05
-2.050723212e-05
-6.038905734e-06
4.339130532e-05
-1.486270436e-05
-5.216953281e-06
3.964305768e-05
-1.060060163e-05
-2.266412996e-06
3.425705869e-05
-6.087400678e-06
1.982134292e-06
2.926485126e-05
5.326523986e-07
2.701260645e-06
2.854732568e-05
9.9744539e-06
-7.931473561e-07
2.835583246e-05
1.459784966e-05
-5.27256591e-06
3.169231897e-05
1.901070142e-05
-9.398079389e-06
3.794147005e-05
2.219602163e-05
-1.18410012e-05
4.454990218e-05
2.419336873e-05
-1.236727175e-05
4.951269431e-05
2.544245628e-05
-1.142164472e-05
5.18160654e-05
2.67204948e-05
-9.462418094e-06
5.12468322e-05
2.869533328e-05
-6.877059168e-06
4.835873627e-05
3.169201958e-05
-4.184943429e-06
4.40422879e-05
3.54233941e-05
-1.937338338e-06
3.889919909e-05
3.91100455e-05
-1.40207546e-07
3.310609571e-05
4.250025508e-05
2.141634969e-06
2.703922304e-05
4.620051148e-05
5.295792471e-06
2.137617369e-05
5.120448147e-05
8.784962956e-06
1.18019046e-05
5.463464538e-05
1.27507028e-05
6.291324903e-05
1.623095301e-05
7.126512766e-05
4.555263989e-05
-2.966394053e-05
4.963781427e-05
8.310861996e-06
5.221087983e-06
3.645759746e-05
-1.318771384e-05
2.144699674e-06
3.628120784e-05
-3.102269437e-05
-6.378133619e-06
5.224362997e-05
-5.257721245e-05
-2.350774707e-06
5.288684082e-05
-2.446436466e-05
-4.254225451e-06
5.221302903e-05
-1.357654381e-05
-6.256757221e-06
5.082997093e-05
-6.925484347e-06
-6.554108914e-06
4.766089052e-05
-2.87819169e-06
-4.553295165e-06
4.171877464e-05
8.157489925e-07
-9.610409432e-07
3.452680707e-05
6.418238764e-06
1.306330136e-06
3.096310936e-05
1.44958033e-05
-9.577712844e-07
3.078654716e-05
2.138447395e-05
-6.610242835e-06
3.436415565e-05
2.685586775e-05
-1.142299056e-05
4.026217214e-05
3.048663337e-05
-1.418886604e-05
4.666658926e-05
3.278271545e-05
-1.499401407e-05
5.202889526e-05
3.433480455e-05
-1.425491089e-05
5.535598686e-05
3.576543439e-05
-1.237229055e-05
5.615091328e-05
3.757330892e-05
-9.673162039e-06
5.442204935e-05
3.997354173e-05
-6.552918204e-06
5.061655771e-05
4.275411055e-05
-3.525485152e-06
4.534576392e-05
4.53286184e-05
-9.480402718e-07
3.906328894e-05
4.736710944e-05
1.415359787e-06
3.208886325e-05
4.914964698e-05
4.025029551e-06
2.434678412e-05
5.14823443e-05
7.46395792e-06
1.318992179e-05
5.426386109e-05
1.15273925e-05
6.037854943e-05
1.572437778e-05
2.903890447e-05
3.503045498e-05
-9.820442924e-07
2.063972518e-05
1.550771932e-05
1.202898312e-06
1.987907771e-05
-1.196895519e-06
-1.122913095e-05
4.1881018e-05
-6.309295576e-06
-4.671459511e-05
5.989675404e-05
-4.141102871e-05
-2.918184146e-05
5.974958719e-05
-1.436041037e-05
-9.95638005e-06
5.824087032e-05
-5.103588722e-06
-6.963828501e-06
5.713718365e-05
1.34175732e-06
-7.163177011e-06
5.519257861e-05
4.7822739e-06
-5.715541337e-06
5.018667717e-05
8.169095946e-06
-2.347222195e-06
4.251108203e-05
1.339885147e-05
6.950747747e-07
3.653324425e-05
2.112047999e-05
-6.468609894e-07
3.483642407e-05
2.905955814e-05
-5.978378815e-06
3.7474059e-05
3.541737762e-05
-1.119931782e-05
4.277462147e-05
3.966894516e-05
-1.448308203e-05
4.898824507e-05
4.230860156e-05
-1.573973711e-05
5.464846118e-05
4.400006835e-05
-1.532571755e-05
5.871581075e-05
4.533103901e-05
-1.363319716e-05
6.053055189e-05
4.674579735e-05
-1.098747561e-05
5.978423154e-05
4.843897516e-05
-7.719361232e-06
5.652694842e-05
5.025166251e-05
-4.240518661e-06
5.110798555e-05
5.173237347e-05
-9.850435506e-07
4.403746844e-05
5.259118669e-05
1.846186459e-06
3.592831513e-05
5.303728948e-05
4.221254193e-06
2.677269737e-05
5.375953338e-05
6.878168767e-06
1.490854603e-05
5.572839882e-05
1.039935243e-05
6.01035091e-05
1.51833329e-05
9.882775206e-07
4.071253223e-05
-8.099976166e-06
-1.205094827e-05
3.87638851e-05
-1.021634777e-05
-3.405788864e-05
3.586159465e-05
-1.505033373e-05
-1.107774524e-05
4.594482704e-05
-7.523379469e-05
0.0001132604821
7.928686375e-05
-0.0002450325877
0.0001055889546
3.463552703e-05
-4.132407014e-05
8.114497469e-05
2.478774941e-05
-5.446167065e-06
6.854768307e-05
1.999066684e-05
-6.051205084e-06
6.264085851e-05
1.816839916e-05
-7.478940696e-06
5.769234665e-05
1.876907254e-05
-5.651126723e-06
5.073696708e-05
2.236547809e-05
-2.010990927e-06
4.376861927e-05
2.901449172e-05
-9.255411526e-07
4.034809355e-05
3.689127322e-05
-4.411198669e-06
4.143145587e-05
4.370547607e-05
-9.371565185e-06
4.568822602e-05
4.849839174e-05
-1.308637981e-05
5.139204991e-05
5.147549595e-05
-1.487091511e-05
5.703804037e-05
5.324980538e-05
-1.489594283e-05
6.148797595e-05
5.439638843e-05
-1.351551091e-05
6.39427543e-05
5.534552071e-05
-1.105473465e-05
6.389032984e-05
5.629464302e-05
-7.803481512e-06
6.108021327e-05
5.713518599e-05
-4.07364867e-06
5.555544981e-05
5.754774284e-05
-2.908501135e-07
4.770755386e-05
5.731257481e-05
3.126259696e-06
3.851416064e-05
5.672429303e-05
5.506135256e-06
2.834633964e-05
5.646133943e-05
7.465753671e-06
1.616084289e-05
5.781339236e-05
1.010023707e-05
6.13600044e-05
1.490408596e-05
-4.651717625e-06
5.115705827e-05
-1.681168179e-05
-6.736491909e-07
5.379785269e-05
-1.901092754e-05
2.265992921e-06
5.281755104e-05
-1.989594488e-05
2.266997767e-05
6.431230881e-05
-3.877038088e-05
7.103516147e-05
8.681070808e-05
-5.588963487e-05
7.016494123e-05
5.229345383e-05
-1.678715263e-05
6.497799819e-05
3.972361393e-05
-9.74821536e-06
6.281501016e-05
3.309948955e-05
-1.094501506e-05
6.26700215e-05
3.049165095e-05
-1.217743664e-05
6.199378654e-05
3.038066506e-05
-1.093461849e-05
5.835315187e-05
3.299127542e-05
-6.984584252e-06
5.240453166e-05
3.826204617e-05
-3.29856134e-06
4.769294949e-05
4.506933161e-05
-3.466306736e-06
4.671150377e-05
5.15142961e-05
-6.827361459e-06
4.929726998e-05
5.637330875e-05
-1.046077092e-05
5.396822391e-05
5.949386391e-05
-1.268946844e-05
5.915318318e-05
6.127191352e-05
-1.320724756e-05
6.356547626e-05
6.220957596e-05
-1.222568107e-05
6.625314853e-05
6.269691602e-05
-1.003928187e-05
6.652995391e-05
6.291563738e-05
-6.898024095e-06
6.390100842e-05
6.279241561e-05
-3.028515089e-06
5.814983689e-05
6.209128639e-05
1.207392068e-06
4.965897246e-05
6.082578433e-05
4.977412114e-06
3.960193329e-05
5.940671074e-05
7.374368714e-06
2.875028717e-05
5.856546711e-05
8.747255211e-06
1.654078924e-05
5.960809393e-05
1.041452563e-05
6.307951912e-05
1.482100508e-05
-7.389782539e-06
6.379246609e-05
-2.173120082e-05
3.835699436e-06
6.66466011e-05
-2.407350129e-05
1.365886394e-05
6.551853431e-05
-2.252361973e-05
2.925169844e-05
7.259051321e-05
-2.386981248e-05
5.669899974e-05
7.692835172e-05
-1.756389706e-05
5.960061786e-05
6.150057118e-05
-1.210764439e-05
5.838796373e-05
5.21580511e-05
-1.122079182e-05
5.934919503e-05
4.527197468e-05
-1.313261408e-05
6.217209165e-05
4.266354369e-05
-1.499355427e-05
6.52135047e-05
4.195871335e-05
-1.461825368e-05
6.5107374e-05
4.402417499e-05
-1.092576167e-05
6.126173801e-05
4.809299941e-05
-5.984600339e-06
5.622052418e-05
5.338812797e-05
-3.277158192e-06
5.326685112e-05
5.872723406e-05
-4.259075178e-06
5.371973145e-05
6.302691136e-05
-7.106451546e-06
5.682573222e-05
6.591124541e-05
-9.523447267e-06
6.106055492e-05
6.753798355e-05
-1.050101528e-05
6.49819432e-05
6.82400145e-05
-9.951985736e-06
6.746168933e-05
6.829384062e-05
-8.076854842e-06
6.764125783e-05
6.780850954e-05
-5.072642797e-06
6.483792974e-05
6.672218156e-05
-1.126651765e-06
5.864748025e-05
6.491825366e-05
3.363258385e-06
4.959764327e-05
6.269563703e-05
7.17974812e-06
3.896365747e-05
6.063773354e-05
9.402711615e-06
2.780051117e-05
5.955234358e-05
1.017600385e-05
1.593829832e-05
6.058684563e-05
1.088318534e-05
6.436370613e-05
1.465383359e-05
-7.860066559e-06
7.617953339e-05
-2.321912113e-05
6.382089545e-06
7.835856467e-05
-2.595331541e-05
1.844438998e-05
7.751173658e-05
-2.405458212e-05
3.248031127e-05
8.008183454e-05
-2.152594187e-05
4.704217438e-05
7.854552687e-05
-1.617774382e-05
5.089605076e-05
7.067171309e-05
-1.302346496e-05
5.124359588e-05
6.368841316e-05
-1.18762327e-05
5.595904137e-05
5.463357822e-05
-1.407530663e-05
6.117703152e-05
5.359706038e-05
-1.614957541e-05
6.768743685e-05
5.232968521e-05
-1.687954962e-05
7.051918728e-05
5.429559771e-05
-1.310163051e-05
6.885051199e-05
5.729842444e-05
-7.535609098e-06
6.432264711e-05
6.090810633e-05
-2.991371928e-06
6.01310171e-05
6.469204783e-05
-1.772762799e-06
5.857707563e-05
6.799215117e-05
-3.411101616e-06
5.986084948e-05
7.033078214e-05
-5.703257065e-06
6.275879975e-05
7.166191918e-05
-7.021922349e-06
6.576116157e-05
7.210271038e-05
-6.865153713e-06
6.757024634e-05
7.174520774e-05
-5.260589924e-06
6.715302452e-05
7.056746569e-05
-2.341902017e-06
6.371235367e-05
6.850628077e-05
1.656382335e-06
5.693153895e-05
6.570665815e-05
5.99220168e-06
4.743454162e-05
6.270300162e-05
9.489403473e-06
3.65670926e-05
6.026716498e-05
1.123776617e-05
2.551438307e-05
5.927473649e-05
1.133004632e-05
1.441286845e-05
6.055555139e-05
1.113252678e-05
6.465784491e-05
1.411844278e-05
-7.225101022e-06
8.682068667e-05
-2.197437901e-05
7.455784543e-06
8.874922194e-05
-2.507058072e-05
2.001990275e-05
8.837487857e-05
-2.342604123e-05
3.194119217e-05
8.854161324e-05
-2.037946137e-05
4.064706505e-05
8.582911443e-05
-1.598747075e-05
4.395412793e-05
7.98938446e-05
-1.252660732e-05
4.390224835e-05
7.4539645e-05
-1.079596163e-05
5.396163014e-05
5.894799329e-05
-1.437059417e-05
6.031440233e-05
6.266512189e-05
-1.541737458e-05
6.985657095e-05
5.963902045e-05
-1.684864097e-05
7.432290013e-05
6.272652257e-05
-1.289500378e-05
7.421252131e-05
6.455796463e-05
-7.147532304e-06
7.059332191e-05
6.618822549e-05
-1.659828825e-06
6.597109867e-05
6.821939042e-05
1.0955668e-06
6.305043932e-05
7.03954875e-05
5.177204626e-07
6.268257841e-05
7.214661681e-05
-1.447768688e-06
6.407393701e-05
7.319325139e-05
-2.922613297e-06
6.580980503e-05
7.339271054e-05
-3.02587929e-06
6.650058718e-05
7.264412155e-05
-1.589770896e-06
6.501520292e-05
7.079263478e-05
1.260093125e-06
6.060623901e-05
6.787618613e-05
5.03889943e-06
5.318488888e-05
6.432414516e-05
8.803670956e-06
4.344303133e-05
6.08488105e-05
1.159582442e-05
3.275635594e-05
5.838558017e-05
1.256800603e-05
2.222804487e-05
5.780495045e-05
1.199782033e-05
1.221922865e-05
5.952645862e-05
1.103761894e-05
6.371638932e-05
1.316038713e-05
-5.648558257e-06
9.477852857e-05
-1.857069973e-05
8.074540551e-06
9.70721643e-05
-2.204490426e-05
1.99373869e-05
9.730782028e-05
-2.079426906e-05
2.95973405e-05
9.678424764e-05
-1.790045808e-05
3.502871651e-05
9.427865583e-05
-1.387775507e-05
3.667448987e-05
8.92972435e-05
-1.104409589e-05
3.419019286e-05
8.608488919e-05
-9.051531471e-06
5.287812568e-05
6.324771123e-05
-2.29762915e-05
5.852568379e-05
7.587282089e-05
-1.884697932e-05
7.381649134e-05
7.759097154e-05
-3.323790761e-05
7.756569762e-05
7.520785263e-05
-1.622732522e-05
7.742867871e-05
7.107009096e-05
-6.373046759e-06
7.426799748e-05
6.854909634e-05
8.011832883e-07
6.960132993e-05
6.822606141e-05
4.660922336e-06
6.594587613e-05
6.91982859e-05
4.853255835e-06
6.437451669e-05
7.053308118e-05
3.185265968e-06
6.437748216e-05
7.151278642e-05
1.677707679e-06
6.468296694e-05
7.16187614e-05
1.468553175e-06
6.397648696e-05
7.054742246e-05
2.803177776e-06
6.121756504e-05
6.819178704e-05
5.35969828e-06
5.583784257e-05
6.476987735e-05
8.485902605e-06
4.793405398e-05
6.086496651e-05
1.13627886e-05
3.831919334e-05
5.733376895e-05
1.312967914e-05
2.824232285e-05
5.515910631e-05
1.330308445e-05
1.858269333e-05
5.524975657e-05
1.221453816e-05
9.804495555e-06
5.753640422e-05
1.07679524e-05
6.151434878e-05
1.20062278e-05
-2.885364857e-06
9.92862714e-05
-1.354276986e-05
9.155670312e-06
0.0001024809273
-1.744852782e-05
1.957725698e-05
0.0001035137952
-1.662582676e-05
2.733903928e-05
0.0001031747258
-1.414970276e-05
3.035244958e-05
0.0001016770774
-1.040755467e-05
2.765068606e-05
0.0001012354209
-9.228999246e-06
1.891571149e-05
9.999235452e-05
-5.148510817e-06
6.493334828e-05
0.0001113386412
-9.41103895e-05
6.567041251e-05
9.62819058e-05
-2.113262705e-05
7.215889431e-05
8.961989483e-05
-1.851339292e-05
7.36606248e-05
8.193318411e-05
-8.224087758e-06
7.503162366e-05
6.942021387e-05
2.807701443e-07
7.42020708e-05
6.258507942e-05
6.795052862e-06
7.093463679e-05
6.173701647e-05
9.757572764e-06
6.722535335e-05
6.328022372e-05
9.628123712e-06
6.469967174e-05
6.51137925e-05
7.945502104e-06
6.336402443e-05
6.63994656e-05
6.44930847e-06
6.222256719e-05
6.662052944e-05
6.139879373e-06
6.011776005e-05
6.54743072e-05
7.177993493e-06
5.617330864e-05
6.296635954e-05
9.169854111e-06
5.004834807e-05
5.947462318e-05
1.142011066e-05
4.205331212e-05
5.568475991e-05
1.317507171e-05
3.297217865e-05
5.24436629e-05
1.397101395e-05
2.386611529e-05
5.079199613e-05
1.34729063e-05
1.528568502e-05
5.167909353e-05
1.215079838e-05
7.669305807e-06
5.45666175e-05
1.058585503e-05
5.813788399e-05
1.10454504e-05
1.2024944e-06
9.97892503e-05
-7.462619532e-06
1.116768478e-05
0.0001041718013
-1.165475768e-05
2.001055536e-05
0.0001059788332
-1.130619111e-05