/*--------------------------------*- C++ -*----------------------------------*\
  =========                 |
  \\      /  F ield         | OpenFOAM: The Open Source CFD Toolbox
   \\    /   O peration     | Website:  https://openfoam.org
    \\  /    A nd           | Version:  8
     \\/     M anipulation  |
\*---------------------------------------------------------------------------*/
FoamFile
{
    version     2.0;
    format      ascii;
    class       volScalarField;
    location    "1.3";
    object      T;
}
// * * * * * * * * * * * * * * * * * * * * * * * * * * * * * * * * * * * * * //

dimensions      [0 0 0 1 0 0 0];

internalField   nonuniform List<scalar> 
67451
(
300.0025612
300.0025051
300.0025417
300.0025366
300.0025919
300.0025533
300.0026184
300.0025335
300.0026877
300.0026427
300.0026455
300.0029002
300.0028114
300.0027368
300.0026599
300.0024671
300.0024911
300.0024698
300.0024412
300.0024358
300.0024194
300.0025093
300.0025414
300.0025818
300.0025738
300.0025898
300.0026215
300.0026556
300.0026788
300.00269
300.0026538
300.0026824
300.0027979
300.0028485
300.0028583
300.0028508
300.0027647
300.0029475
300.0029179
300.0028509
300.002764
300.0027045
300.0026505
300.0026042
300.0024978
300.0024426
300.0024175
300.0024382
300.0023854
300.0024393
300.002508
300.0025572
300.0025327
300.0025405
300.0025653
300.0026428
300.0026752
300.0027586
300.0026855
300.0027529
300.0028485
300.0028781
300.0028846
300.0028825
300.0027946
300.0028857
300.0028425
300.0027752
300.0027052
300.0026621
300.0026309
300.0026
300.0025178
300.0024568
300.0024407
300.0025014
300.0023978
300.0024205
300.0025057
300.0025255
300.002521
300.0025164
300.0024761
300.0025086
300.0025971
300.0026664
300.0027165
300.0028143
300.0029077
300.0029419
300.0029449
300.0029393
300.0028508
300.002741
300.0026975
300.0026567
300.0026283
300.0026109
300.0025826
300.0025263
300.0024709
300.0024622
300.0026659
300.0024214
300.0025627
300.002537
300.0026168
300.0025974
300.0026176
300.0024211
300.002907
300.0026902
300.0027204
300.002761
300.0028822
300.0029843
300.0030445
300.0030438
300.0030298
300.0029365
300.002657
300.0026588
300.0026376
300.002613
300.0025964
300.0025621
300.0025292
300.0024326
300.0024718
300.0025428
300.0024516
300.0025093
300.0025513
300.0026638
300.002669
300.0026558
300.002568
300.0026393
300.0025256
300.0026332
300.0027754
300.0029438
300.0030747
300.0032432
300.003209
300.0031588
300.0030419
300.0026433
300.0026497
300.0026305
300.0026015
300.0025861
300.0025001
300.0025314
300.0024713
300.0025264
300.0026024
300.0025284
300.0025173
300.0025769
300.0027023
300.0027293
300.0027147
300.0026699
300.0026569
300.0025044
300.0025055
300.0025998
300.0027644
300.0029147
300.0031095
300.0030805
300.0030577
300.00297
300.0026422
300.0026372
300.0026155
300.0025906
300.0025705
300.0025567
300.0025231
300.0025026
300.002589
300.0027231
300.0026271
300.0025609
300.002623
300.0027562
300.002796
300.0027725
300.0027253
300.0026691
300.0025988
300.0025145
300.0025278
300.0028618
300.0028912
300.0038763
300.0033562
300.0032144
300.0030592
300.002624
300.0026138
300.0025946
300.0025764
300.0025705
300.0025567
300.0025369
300.0025212
300.0026176
300.0028313
300.0026968
300.0025597
300.0025916
300.0027173
300.0028063
300.0028253
300.0027994
300.0028349
300.0027078
300.0026169
300.0025273
300.0026203
300.0027723
300.0030665
300.0030082
300.002991
300.0029001
300.0026092
300.0025946
300.0025757
300.0025613
300.0025625
300.0025693
300.0025789
300.0025344
300.0025175
300.0024414
300.0025064
300.0024309
300.0024762
300.0026925
300.0028978
300.0027309
300.0026441
300.0026054
300.0025407
300.0025359
300.0025443
300.0025541
300.0026574
300.0028456
300.0028324
300.0028055
300.0027702
300.0025985
300.0025859
300.0025702
300.0025573
300.0025645
300.0025804
300.0025965
300.0025825
300.0025614
300.0024131
300.0024195
300.0023701
300.0024176
300.0025235
300.0025815
300.002541
300.0024879
300.0024541
300.0024438
300.0024878
300.0025463
300.0025657
300.002573
300.0026398
300.0026499
300.0026994
300.0026729
300.00255
300.0025756
300.0025798
300.0025679
300.0025826
300.0026019
300.0026165
300.0026125
300.0025931
300.0024868
300.0024288
300.002436
300.0024436
300.002437
300.0024513
300.0024301
300.0024007
300.0023849
300.0023976
300.0024493
300.0025186
300.0025609
300.0025554
300.002552
300.0025579
300.00259
300.0025966
300.0024897
300.0025624
300.0025953
300.002589
300.0026158
300.0026328
300.0026412
300.0026337
300.002609
300.002549
300.0024727
300.0024348
300.0025008
300.0024979
300.0024873
300.0024716
300.002457
300.0024441
300.002437
300.0024511
300.0024908
300.0025321
300.0025428
300.0025272
300.0025107
300.0025025
300.002534
300.0007762
300.0022719
300.0026712
300.0026887
300.0027175
300.0026874
300.0026758
300.0026559
300.0026212
300.0025634
300.0025033
300.0025024
300.0025501
300.0025656
300.0025622
300.0025506
300.0025349
300.0025153
300.0024936
300.0024793
300.002484
300.0025039
300.002518
300.0025126
300.002489
300.0024607
300.0024783
300.0025984
300.0028461
300.0028811
300.0028039
300.003047
300.0028537
300.0027668
300.0026951
300.0026297
300.0025622
300.0025023
300.0025111
300.0025647
300.0025936
300.0025981
300.0025886
300.0025707
300.0025469
300.0025201
300.0024957
300.0024817
300.0024818
300.0024891
300.0024918
300.0024788
300.0024487
300.0024325
300.0028823
300.0028343
300.0028322
300.002567
300.0025612
300.002603
300.002605
300.0025755
300.0025471
300.0025074
300.0024658
300.0024805
300.0025448
300.002588
300.0026012
300.0025956
300.0025783
300.0025539
300.0025263
300.0024995
300.002478
300.0024659
300.0024639
300.0024677
300.0024654
300.0024433
300.0024004
300.0029463
300.0030344
300.0035825
300.0029683
300.0038684
300.0034006
300.003227
300.0028811
300.0026602
300.0025408
300.0024684
300.0024582
300.0025131
300.0025646
300.0025857
300.0025846
300.0025699
300.0025474
300.0025215
300.0024958
300.0024727
300.0024541
300.0024441
300.0024447
300.0024478
300.0024346
300.002379
300.002849
300.0029584
300.0031637
300.0030483
300.0036967
300.0030222
300.0028038
300.0026834
300.0026219
300.0025709
300.0025097
300.0024699
300.0024898
300.0025341
300.0025605
300.0025645
300.0025538
300.0025348
300.0025124
300.0024895
300.0024671
300.0024454
300.0024291
300.0024249
300.002429
300.0024215
300.0023634
300.0027774
300.0028977
300.0029662
300.0029724
300.0033012
300.0029186
300.0027593
300.0026955
300.0026672
300.0026349
300.002573
300.0025109
300.0024907
300.0025113
300.0025352
300.0025431
300.0025367
300.0025222
300.002504
300.0024845
300.0024629
300.0024388
300.0024177
300.0024092
300.0024117
300.0024066
300.0023516
300.0027155
300.0028223
300.0028268
300.0028367
300.0029101
300.00278
300.0027219
300.0027527
300.002746
300.0027289
300.0026501
300.0025662
300.0025134
300.002505
300.0025183
300.002527
300.0025244
300.0025141
300.0024998
300.0024825
300.0024604
300.002434
300.0024101
300.002399
300.0023992
300.0023937
300.0023448
300.0026568
300.0027462
300.002731
300.0027296
300.002749
300.002743
300.0027771
300.002974
300.0029002
300.0028757
300.0027473
300.0026333
300.0025515
300.0025152
300.0025133
300.0025195
300.0025193
300.0025122
300.0024999
300.0024823
300.0024585
300.0024314
300.0024082
300.0023971
300.0023945
300.002387
300.0023455
300.0026035
300.0026814
300.0026656
300.0026694
300.0027074
300.0028113
300.0029606
300.0035709
300.0032139
300.003273
300.002935
300.0027366
300.00261
300.0025423
300.002521
300.00252
300.0025196
300.0025134
300.0025009
300.0024821
300.0024584
300.0024343
300.002415
300.0024051
300.0023992
300.0023886
300.0023541
300.0025624
300.0026341
300.0026215
300.0026373
300.0027081
300.002969
300.0033097
300.0062437
300.0037837
300.003418
300.0030221
300.0027711
300.0026215
300.002547
300.0025215
300.0025191
300.0025195
300.0025143
300.0025022
300.0024846
300.0024648
300.0024466
300.0024315
300.0024214
300.0024116
300.0023971
300.0023677
300.0025381
300.0026049
300.002593
300.0026064
300.002665
300.0028301
300.0030074
300.0038089
300.0032623
300.0031355
300.0029387
300.0027458
300.0026237
300.0025547
300.0025278
300.002524
300.0025242
300.0025198
300.00251
300.0024966
300.0024826
300.0024686
300.0024534
300.0024404
300.002427
300.0024086
300.0023813
300.0025323
300.0025919
300.0025819
300.0025891
300.0026287
300.0027135
300.002797
300.0030507
300.0029432
300.0028721
300.0027919
300.0025686
300.0024501
300.0024281
300.0024639
300.0025056
300.0025287
300.0025344
300.0025307
300.0025222
300.0025104
300.0024941
300.0024734
300.0024561
300.0024409
300.0024198
300.0023914
300.0025497
300.0025937
300.002586
300.0025892
300.0026152
300.0026596
300.0026985
300.0027841
300.0027746
300.002641
300.0026707
300.0024379
300.0022744
300.0023078
300.0024152
300.0025075
300.002554
300.0025685
300.0025676
300.0025582
300.0025406
300.0025149
300.0024862
300.0024658
300.0024516
300.0024303
300.002399
300.00259
300.0026107
300.002602
300.0026015
300.0026164
300.0026368
300.0026507
300.0026688
300.0026855
300.0025608
300.0026193
300.0022597
300.002231
300.0023607
300.0024994
300.002581
300.0026141
300.002621
300.0026142
300.0025963
300.0025671
300.0025299
300.0024949
300.0024739
300.0024627
300.0024437
300.0024101
300.0026428
300.0026413
300.0026267
300.0026192
300.0026222
300.0026273
300.0026299
300.0026333
300.0026542
300.002593
300.0026504
300.0023257
300.0024102
300.0025456
300.0026286
300.002667
300.0026785
300.0026753
300.0026603
300.0026332
300.0025948
300.002551
300.0025126
300.0024901
300.0024802
300.0024643
300.0024317
300.0026853
300.0026693
300.0026482
300.0026339
300.0026297
300.0026316
300.0026371
300.0026476
300.0026664
300.0026531
300.0026916
300.002538
300.002627
300.0026863
300.0027145
300.002725
300.0027249
300.0027165
300.0026986
300.0026706
300.0026339
300.0025918
300.0025506
300.0025194
300.0025031
300.0024881
300.0024623
300.002701
300.0026817
300.0026627
300.0026514
300.0026517
300.0026607
300.0026724
300.0026852
300.0026965
300.0027017
300.002721
300.0026944
300.0027327
300.0027452
300.002748
300.0027474
300.0027442
300.0027375
300.002726
300.0027083
300.0026816
300.0026431
300.002593
300.0025437
300.0025158
300.0025015
300.0024902
300.002707
300.0027042
300.0026997
300.0026948
300.0026946
300.0026982
300.0027001
300.0026998
300.0026971
300.0026998
300.0027034
300.0027168
300.0027243
300.0027215
300.0027179
300.0027165
300.0027179
300.0027207
300.0027219
300.0027162
300.0026966
300.0026554
300.0025877
300.0025132
300.0024794
300.0024748
300.0024784
300.00254
300.0025258
300.0025585
300.0025639
300.0026015
300.0025664
300.0026102
300.002567
300.0025706
300.0026529
300.0026629
300.0027834
300.0027247
300.0026681
300.0026218
300.0025101
300.0024952
300.0024781
300.0024666
300.0024628
300.0024536
300.0025091
300.0025522
300.0025814
300.0026146
300.0026382
300.0026759
300.0027
300.0027297
300.0027183
300.0027046
300.002698
300.0027242
300.0027729
300.0028149
300.0028374
300.0028067
300.0028925
300.0028281
300.0027591
300.0027087
300.0026736
300.0026333
300.0025484
300.0024999
300.0024607
300.0024379
300.0024332
300.0024145
300.0024421
300.0025184
300.0025808
300.0025801
300.0026037
300.0026369
300.0026622
300.0027622
300.0027433
300.0027389
300.0027381
300.0027728
300.0028146
300.0028439
300.0028607
300.0028319
300.0028293
300.0027761
300.0027194
300.0026767
300.0026514
300.002623
300.0025638
300.0025124
300.0024782
300.0024529
300.002433
300.0024283
300.0023882
300.002503
300.0025831
300.002544
300.002555
300.0025684
300.0025296
300.0026546
300.002678
300.0027166
300.0027765
300.0028408
300.0028965
300.0029157
300.0029175
300.0028855
300.0027178
300.0026827
300.0026495
300.0026285
300.0026118
300.0025718
300.0025305
300.0025212
300.0024843
300.0024567
300.0024563
300.0022622
300.0024692
300.0025123
300.0025336
300.002535
300.002479
300.0020718
300.002602
300.0026581
300.002735
300.0028297
300.0029174
300.0030031
300.0030142
300.0030006
300.0029602
300.002675
300.0026747
300.0026446
300.0026212
300.0026076
300.0025774
300.0025438
300.0025396
300.002507
300.002558
300.0024814
300.0024337
300.0024938
300.0025536
300.0025714
300.0025721
300.0025388
300.0025391
300.0025572
300.0026256
300.0027322
300.002866
300.002969
300.0031937
300.0031615
300.0031194
300.0030661
300.0026641
300.0026655
300.0026427
300.0026164
300.0026036
300.0025928
300.002545
300.0025005
300.0025203
300.0025661
300.0025207
300.0024876
300.0025054
300.0026034
300.0026303
300.0026203
300.0025721
300.0025278
300.0025174
300.0025723
300.0026761
300.0027721
300.0028562
300.0031036
300.0030511
300.0030245
300.0029889
300.0026622
300.0026577
300.002638
300.0026162
300.0026063
300.0025674
300.0025525
300.0025393
300.0025915
300.002687
300.0026318
300.0025548
300.0024538
300.0026435
300.0026978
300.0026888
300.0026308
300.002566
300.0025289
300.0025204
300.0025365
300.0028723
300.0026931
300.0039864
300.0034809
300.0032741
300.0031625
300.0026433
300.0026376
300.0026259
300.0026198
300.0026517
300.0025913
300.0025692
300.0025637
300.0026241
300.0027651
300.0027088
300.002641
300.0026041
300.0027251
300.002739
300.0027388
300.0026586
300.0023863
300.0025402
300.0025412
300.0025287
300.0026148
300.0026581
300.0030253
300.00293
300.0029353
300.0029506
300.0026084
300.0026057
300.0026048
300.0026035
300.0026108
300.0025991
300.0025887
300.0025625
300.0025656
300.0026525
300.0027126
300.0025487
300.0026083
300.0025894
300.0026317
300.0026964
300.0026396
300.0025703
300.0025582
300.0025607
300.0025669
300.002587
300.0026097
300.0027979
300.0027724
300.0028153
300.0028536
300.0025516
300.0025612
300.0025806
300.0025901
300.002602
300.0026087
300.0026089
300.0025897
300.0025633
300.0025244
300.0025348
300.0024934
300.002523
300.0025883
300.002629
300.0025975
300.0025556
300.0025258
300.0025292
300.0025562
300.0025818
300.0025875
300.0025823
300.002623
300.0026713
300.0026848
300.002745
300.0023984
300.0024712
300.0025527
300.0025786
300.0025996
300.0026166
300.0026227
300.0026114
300.0025847
300.0025352
300.0025327
300.0025175
300.0025362
300.002552
300.0025589
300.0025422
300.0025208
300.0025093
300.0025178
300.0025464
300.0025772
300.0025885
300.0025757
300.0025578
300.0025519
300.0025634
300.0026321
300.0021452
300.0023961
300.0025331
300.0025634
300.0025904
300.0026182
300.0026304
300.0026234
300.0026008
300.0025659
300.0025459
300.0025785
300.0025564
300.0025695
300.0025695
300.0025579
300.0025432
300.0025316
300.0025301
300.0025427
300.0025635
300.002577
300.0025706
300.0025444
300.0025078
300.0024913
300.0025412
300.0020374
300.0022481
300.0024524
300.0024757
300.0025133
300.0025783
300.0026149
300.0026203
300.0026011
300.002568
300.0025423
300.0025552
300.0025817
300.0026006
300.0026042
300.0025961
300.0025809
300.0025629
300.002548
300.0025427
300.002548
300.0025561
300.0025562
300.0025388
300.0025027
300.0024676
300.0024771
300.0021355
300.0024279
300.0025817
300.0024241
300.002362
300.0025551
300.0026207
300.0026265
300.0025961
300.0025612
300.0025415
300.0025586
300.0025907
300.0026175
300.0026293
300.0026257
300.0026098
300.0025859
300.0025604
300.0025408
300.0025317
300.0025313
300.0025321
300.002524
300.0024995
300.0024618
300.0024337
300.0025432
300.0025128
300.0024746
300.0019752
300.0015386
300.002273
300.0024759
300.002547
300.0025596
300.0025406
300.0025234
300.0025383
300.0025763
300.0026126
300.0026334
300.0026357
300.0026212
300.0025947
300.0025629
300.0025337
300.0025134
300.0025039
300.0025014
300.0024986
300.0024852
300.0024536
300.0024036
300.0027413
300.0026556
300.0023975
300.0010235
299.9941596
300.0013806
300.0023551
300.0025893
300.0026026
300.002566
300.0025313
300.0025275
300.002556
300.0025928
300.0026187
300.002626
300.0026147
300.0025889
300.002555
300.0025208
300.002493
300.0024753
300.0024679
300.0024671
300.0024613
300.0024376
300.0023806
300.0027868
300.0027693
300.0027539
300.0022654
300.0016455
300.0025163
300.0026274
300.0026443
300.0026366
300.0026083
300.0025641
300.0025364
300.0025426
300.0025687
300.002593
300.0026028
300.0025947
300.0025714
300.0025385
300.0025028
300.0024707
300.0024467
300.0024355
300.0024349
300.0024337
300.0024165
300.0023621
300.0027788
300.0028144
300.0028246
300.0026662
300.002639
300.0026878
300.0026785
300.002688
300.0026892
300.0026728
300.0026154
300.0025628
300.0025413
300.0025487
300.0025651
300.0025738
300.0025677
300.0025473
300.0025169
300.0024816
300.0024468
300.0024212
300.0024083
300.0024077
300.0024088
300.0023962
300.0023497
300.0027447
300.0027995
300.0027983
300.0027445
300.0027346
300.0027
300.0026894
300.0027307
300.0027452
300.0027686
300.0026788
300.002599
300.0025508
300.0025366
300.0025411
300.0025456
300.0025396
300.0025215
300.0024935
300.0024589
300.0024262
300.0024025
300.0023905
300.0023904
300.0023923
300.0023827
300.0023465
300.0026921
300.0027499
300.0027458
300.0027211
300.0027049
300.0026911
300.0026785
300.0027646
300.0027718
300.0028244
300.0027151
300.0026304
300.0025646
300.0025316
300.0025229
300.0025215
300.0025142
300.0024967
300.0024705
300.0024405
300.0024138
300.0023946
300.0023853
300.0023858
300.0023872
300.0023792
300.0023537
300.0026323
300.0026847
300.0026857
300.002675
300.0026659
300.0026983
300.0025725
300.0022941
300.0027385
300.0033359
300.0028848
300.0027193
300.0026007
300.002537
300.002512
300.0025029
300.0024933
300.0024775
300.0024563
300.0024332
300.0024131
300.0023993
300.002393
300.0023934
300.0023927
300.0023848
300.0023681
300.0025771
300.0026203
300.0026271
300.002633
300.0026372
300.0028457
300.0024512
300.0007694
300.0028233
300.0035551
300.0030033
300.0027383
300.0025988
300.0025277
300.0025005
300.0024913
300.0024835
300.0024717
300.0024561
300.0024396
300.0024257
300.002416
300.0024102
300.0024083
300.0024042
300.0023948
300.0023827
300.0025379
300.0025674
300.0025734
300.0025828
300.0026008
300.0027212
300.0026393
300.0029376
300.0029107
300.0031032
300.0028389
300.0026821
300.0025693
300.0025134
300.0024944
300.0024908
300.0024882
300.0024816
300.0024715
300.0024603
300.0024497
300.0024399
300.0024307
300.0024242
300.0024165
300.0024045
300.0023921
300.0025201
300.0025339
300.0025348
300.0025412
300.0025595
300.0026203
300.0026278
300.0028532
300.0027727
300.0028046
300.0026948
300.0027619
300.0026574
300.0025446
300.0024942
300.0024933
300.0025028
300.0025052
300.0025006
300.0024916
300.0024793
300.002464
300.0024482
300.0024371
300.0024269
300.0024125
300.002396
300.0025238
300.0025198
300.0025132
300.0025155
300.0025297
300.0025617
300.002582
300.0026796
300.0026584
300.0026471
300.0026203
300.0028092
300.0026893
300.0025764
300.0025212
300.0025235
300.0025395
300.0025452
300.0025406
300.0025278
300.0025079
300.0024835
300.002461
300.002447
300.0024369
300.0024216
300.0024003
300.0025456
300.0025297
300.0025159
300.0025127
300.0025204
300.0025371
300.002553
300.0025934
300.0026022
300.0025924
300.0025827
300.0027155
300.0026149
300.0025631
300.002552
300.0025737
300.0025918
300.0025946
300.0025847
300.0025637
300.0025338
300.0025007
300.0024738
300.0024594
300.0024512
300.0024373
300.002413
300.0025756
300.0025539
300.0025351
300.0025267
300.0025288
300.0025387
300.002553
300.0025782
300.0025986
300.0026039
300.0025993
300.0026521
300.0025958
300.0025909
300.002612
300.002636
300.0026469
300.002644
300.0026285
300.0026012
300.0025652
300.0025279
300.0024983
300.0024819
300.0024741
300.0024623
300.0024399
300.0026001
300.0025778
300.0025585
300.002549
300.0025513
300.0025629
300.0025807
300.0026039
300.002625
300.0026367
300.0026388
300.0026324
300.0026292
300.0026478
300.0026699
300.0026847
300.0026898
300.0026853
300.0026704
300.0026451
300.0026116
300.0025745
300.0025396
300.0025139
300.0025005
300.0024898
300.0024756
300.0026142
300.0025975
300.0025854
300.0025824
300.0025903
300.0026058
300.0026238
300.0026414
300.0026553
300.0026649
300.0026692
300.0026628
300.0026721
300.0026861
300.0026984
300.0027075
300.0027127
300.002713
300.0027065
300.0026912
300.0026651
300.0026268
300.0025785
300.0025348
300.0025128
300.0025042
300.0025047
300.0026486
300.0026493
300.0026493
300.00265
300.0026547
300.0026618
300.0026675
300.0026704
300.0026703
300.0026698
300.0026672
300.0026636
300.002667
300.0026735
300.0026813
300.00269
300.0026995
300.0027085
300.0027132
300.002708
300.0026864
300.002642
300.0025725
300.0025034
300.0024801
300.00248
300.0024894
300.0025412
300.0025456
300.0025233
300.0025824
300.0025602
300.0025651
300.0025579
300.0025096
300.0025742
300.0026006
300.0026255
300.002645
300.0026757
300.0026996
300.0027194
300.0026953
300.0026524
300.0026076
300.0025654
300.0025952
300.0024889
300.0025012
300.0024696
300.002465
300.0024665
300.0024725
300.0025261
300.0025718
300.002591
300.0026125
300.0026338
300.002641
300.0026428
300.0026446
300.0026454
300.0026481
300.0026444
300.0026738
300.0027174
300.0027499
300.0027665
300.00281
300.0027472
300.0026855
300.0026457
300.0026117
300.0025721
300.0025103
300.0024723
300.0024544
300.0024331
300.0024185
300.0024249
300.0024419
300.0024976
300.0025565
300.0025621
300.0025794
300.002593
300.0025575
300.0025271
300.0024861
300.0026168
300.0026502
300.0026717
300.0027064
300.0027378
300.0027589
300.0027615
300.0027702
300.0027184
300.0026683
300.0026275
300.0026007
300.0025695
300.0025209
300.0024778
300.0024553
300.0024385
300.0024136
300.0024273
300.0024353
300.0024811
300.0025469
300.002535
300.0025494
300.0025623
300.002581
300.0026175
300.0026173
300.002646
300.0026844
300.0027285
300.0027809
300.0028025
300.0028019
300.0027764
300.0026844
300.0026623
300.0026135
300.0025895
300.0025661
300.0025315
300.0024921
300.002474
300.0024477
300.0022932
300.0024213
300.0024539
300.0024499
300.0024847
300.0024986
300.0024974
300.0025246
300.0024653
300.0025271
300.0025669
300.0026454
300.0027213
300.0027889
300.0028752
300.0028873
300.0028685
300.0028195
300.002675
300.0027691
300.0026268
300.0025926
300.002569
300.0025492
300.0025061
300.0024918
300.0024726
300.0024516
300.0024423
300.0024286
300.0024573
300.0024905
300.0025086
300.0025196
300.0025277
300.0025004
300.0025484
300.0025886
300.0026523
300.0027479
300.0027888
300.0030363
300.0030297
300.0029875
300.00293
300.0026465
300.0026565
300.0026141
300.0025873
300.0025672
300.0025684
300.0025103
300.002479
300.0024831
300.0024871
300.0024523
300.0024332
300.0024558
300.0025116
300.0025306
300.0025265
300.0025062
300.0024631
300.0025003
300.0025522
300.0026129
300.0026882
300.0026741
300.0028261
300.0029496
300.0029038
300.0028613
300.0026377
300.0026341
300.0026094
300.0025827
300.0025549
300.0025375
300.0025188
300.0025008
300.0025449
300.0025891
300.0025313
300.0024989
300.0025239
300.0025494
300.0025807
300.0025821
300.0025446
300.0025041
300.0024972
300.002509
300.0024722
300.0027542
300.0019967
300.0018863
300.003439
300.0032788
300.003147
300.0026284
300.0026214
300.0026057
300.002585
300.0025613
300.0025515
300.0025316
300.0025125
300.002559
300.0026327
300.0025578
300.0026081
300.0025724
300.0027098
300.0026503
300.0026314
300.0025723
300.0024948
300.0024749
300.0024838
300.0024947
300.0025961
300.002505
300.0028586
300.0028787
300.0028398
300.0028487
300.0026083
300.0026051
300.0025971
300.0025876
300.0025889
300.002564
300.0025421
300.0025098
300.0024976
300.0025166
300.0022398
300.0024519
300.0024773
300.0024609
300.0024001
300.0025683
300.0025661
300.0025189
300.0025136
300.0025132
300.0025174
300.002551
300.0025187
300.0027937
300.0027236
300.0027615
300.0027517
300.0025562
300.002578
300.0025871
300.0025855
300.0025853
300.0025763
300.002561
300.0025331
300.0025023
300.0024778
300.0024802
300.0024758
300.0025048
300.0025253
300.0025458
300.0025579
300.002537
300.002512
300.0025136
300.0025217
300.0025263
300.0025264
300.0025107
300.0025762
300.002558
300.0026157
300.0026471
300.0024458
300.0025347
300.0025731
300.0025794
300.0025838
300.0025842
300.0025755
300.0025541
300.0025271
300.002499
300.0025234
300.0025053
300.002534
300.0025373
300.0025412
300.0025357
300.0025211
300.0025102
300.002514
300.0025245
300.0025315
300.0025278
300.0025122
300.0025065
300.0024829
300.0025047
300.0025489
300.0022337
300.0024134
300.0025313
300.0025553
300.0025681
300.0025797
300.00258
300.0025663
300.0025414
300.0025132
300.0025166
300.0025067
300.0025271
300.002541
300.0025456
300.0025401
300.0025289
300.0025198
300.0025186
300.0025239
300.0025295
300.0025275
300.0025151
300.002494
300.0024614
300.0024464
300.0024695
300.0020657
300.0024269
300.0025193
300.0024598
300.0024792
300.0025296
300.0025542
300.002558
300.0025423
300.0025199
300.0025122
300.002518
300.0025404
300.0025578
300.0025648
300.0025607
300.002549
300.0025353
300.0025249
300.0025204
300.0025202
300.0025192
300.0025103
300.0024909
300.0024583
300.0024248
300.0024152
300.0022643
300.0024875
300.002467
300.0022371
300.0021772
300.002415
300.0025055
300.0025355
300.0025306
300.0025148
300.0025084
300.0025207
300.0025462
300.0025695
300.002582
300.0025808
300.002568
300.0025483
300.002528
300.0025124
300.0025039
300.0024999
300.0024937
300.0024799
300.002453
300.0024154
300.0023794
300.0025497
300.0024761
300.002201
300.0020585
300.0013527
300.0020615
300.0023547
300.0024748
300.0025067
300.0025037
300.0024985
300.0025101
300.0025372
300.002566
300.0025849
300.002588
300.0025754
300.0025517
300.0025236
300.0024986
300.0024815
300.0024723
300.0024667
300.0024578
300.0024375
300.0024027
300.0023532
300.002662
300.0024638
300.0019702
300.0010699
299.9998413
300.0012054
300.0020509
300.0024219
300.0025058
300.0025117
300.0024997
300.0025004
300.0025203
300.0025484
300.0025706
300.0025776
300.002567
300.0025422
300.00251
300.0024786
300.0024545
300.0024401
300.0024337
300.0024278
300.0024129
300.0023832
300.0023315
300.0027088
300.0026116
300.0023897
300.0017198
300.0011595
300.0020531
300.0023998
300.0025183
300.0025495
300.0025444
300.0025174
300.0024996
300.0025038
300.0025234
300.0025437
300.0025524
300.0025442
300.0025207
300.0024878
300.0024533
300.0024241
300.002407
300.0023995
300.0023953
300.0023846
300.0023602
300.0023141
300.0027082
300.0026881
300.0026057
300.0023027
300.0021478
300.0024163
300.0025141
300.0025588
300.0025831
300.0025909
300.0025449
300.0025061
300.0024911
300.0024975
300.0025115
300.0025193
300.0025126
300.0024913
300.0024596
300.0024244
300.0023953
300.0023774
300.0023695
300.0023665
300.0023591
300.00234
300.0023044
300.0026799
300.0026976
300.0026631
300.0025479
300.0024984
300.0025285
300.0025348
300.0025274
300.0025934
300.0027149
300.0025923
300.0025204
300.0024845
300.0024754
300.0024806
300.0024851
300.0024784
300.0024588
300.0024288
300.0023971
300.0023715
300.0023554
300.0023484
300.0023468
300.002342
300.0023279
300.0023053
300.0026326
300.0026626
300.0026451
300.0025941
300.0025499
300.0025115
300.0024545
300.0023017
300.0024529
300.0025515
300.0025229
300.0025103
300.0024782
300.0024575
300.0024532
300.0024522
300.0024444
300.0024271
300.0024029
300.0023777
300.0023572
300.0023444
300.0023392
300.0023386
300.0023355
300.0023258
300.0023156
300.0025753
300.0026032
300.0025933
300.0025603
300.0025107
300.0023968
300.0021716
300.0013407
300.0020629
300.0019561
300.0026141
300.0026547
300.0025274
300.0024611
300.0024392
300.0024311
300.002422
300.0024076
300.002389
300.0023701
300.0023549
300.0023453
300.0023414
300.0023407
300.0023378
300.0023309
300.0023291
300.0025201
300.0025385
300.0025319
300.0025065
300.0024526
300.0022488
300.001595
299.99628
300.0016776
300.0053917
300.0031616
300.0027091
300.002518
300.0024482
300.0024269
300.0024197
300.002413
300.0024027
300.0023896
300.0023758
300.0023642
300.002356
300.0023511
300.0023486
300.0023445
300.0023382
300.0023386
300.0024777
300.0024832
300.0024775
300.0024643
300.0024322
300.0023546
300.0021717
300.0011974
300.002383
300.0033618
300.0028253
300.0026207
300.0024929
300.0024374
300.0024223
300.0024204
300.0024188
300.0024133
300.0024044
300.0023935
300.0023824
300.0023719
300.0023633
300.0023576
300.0023517
300.0023441
300.0023412
300.0024525
300.002443
300.0024339
300.0024259
300.002412
300.0024008
300.0023535
300.0022332
300.0024798
300.0027055
300.0026112
300.0026327
300.0025643
300.0024844
300.0024478
300.0024393
300.0024398
300.0024378
300.0024307
300.0024192
300.0024043
300.0023883
300.0023746
300.0023659
300.0023586
300.0023492
300.00234
300.0024456
300.0024257
300.0024115
300.0024042
300.0024
300.0024038
300.0023952
300.0024118
300.0024658
300.0025242
300.0025179
300.0026182
300.0025598
300.0024879
300.002466
300.0024691
300.0024746
300.0024736
300.0024647
300.0024482
300.0024263
300.0024032
300.0023853
300.0023753
300.0023682
300.0023576
300.0023423
300.0024523
300.002427
300.0024092
300.0024005
300.0023994
300.0024063
300.0024139
300.0024425
300.0024672
300.0024893
300.0024904
300.0025489
300.002511
300.0024914
300.0024998
300.0025125
300.002519
300.0025158
300.0025024
300.0024793
300.0024499
300.0024212
300.0024006
300.0023906
300.0023848
300.0023746
300.0023559
300.0024655
300.0024398
300.0024212
300.0024126
300.0024137
300.0024238
300.0024397
300.002467
300.0024912
300.0025099
300.0025156
300.0025328
300.0025255
300.0025347
300.0025492
300.0025607
300.0025649
300.0025597
300.0025436
300.0025169
300.002484
300.0024523
300.002429
300.0024166
300.0024104
300.0024014
300.0023844
300.002479
300.002457
300.0024418
300.0024368
300.0024425
300.002457
300.0024771
300.002502
300.0025244
300.0025419
300.0025522
300.0025591
300.0025658
300.0025781
300.0025905
300.0026001
300.0026046
300.0026016
300.0025886
300.0025652
300.0025342
300.0025005
300.0024696
300.0024481
300.0024372
300.0024294
300.00242
300.0024943
300.0024803
300.002473
300.0024745
300.0024848
300.0025011
300.0025196
300.0025384
300.0025545
300.0025677
300.0025773
300.0025837
300.0025927
300.0026031
300.0026136
300.0026237
300.0026317
300.0026349
300.0026303
300.0026151
300.0025881
300.0025488
300.0025017
300.0024636
300.0024474
300.0024426
300.0024461
300.0025413
300.0025416
300.0025425
300.0025452
300.0025515
300.0025601
300.0025681
300.0025745
300.0025789
300.0025827
300.0025854
300.0025884
300.0025934
300.0026001
300.002609
300.0026203
300.0026324
300.0026427
300.0026464
300.0026382
300.0026128
300.0025644
300.0024928