/*--------------------------------*- C++ -*----------------------------------*\
  =========                 |
  \\      /  F ield         | OpenFOAM: The Open Source CFD Toolbox
   \\    /   O peration     | Website:  https://openfoam.org
    \\  /    A nd           | Version:  8
     \\/     M anipulation  |
\*---------------------------------------------------------------------------*/
FoamFile
{
    version     2.0;
    format      ascii;
    class       volVectorField;
    location    "1.3";
    object      U;
}
// * * * * * * * * * * * * * * * * * * * * * * * * * * * * * * * * * * * * * //

dimensions      [0 1 -1 0 0 0 0];

internalField   nonuniform List<vector> 
67451
(
(-0.02782422245 -0.407208321 0.0817164684)
(-0.08019581214 -0.2351706358 0.1363235889)
(-0.1204672174 -0.1828135155 0.09396812902)
(-0.08959055198 -0.1019665992 0.05015978456)
(-0.05737366386 -0.1227354287 -0.02310963966)
(-0.004526917601 -0.1193395474 -0.06071297161)
(-0.03567960708 -0.116601035 0.009504496236)
(0.008558614491 -0.1221931561 0.02860444574)
(0.0436367717 -0.1975322326 0.06379058743)
(0.04444114502 -0.19572253 0.02002828844)
(0.004693727825 -0.2169751314 0.07040202699)
(0.4161113447 -0.2579374741 0.02462718036)
(0.2942559121 -0.2872868141 0.05935238366)
(0.2191023995 -0.3108274327 0.06944696963)
(0.005135867588 -0.3246853558 0.07479112378)
(0.04920220693 -0.2523115424 -0.3286228245)
(0.1053806654 -0.2926258817 0.1067938999)
(-0.05876499449 -0.2738619945 0.128562476)
(-0.04661288151 -0.1933457103 0.1019618886)
(-0.06037269925 -0.2147162533 0.09193254801)
(-0.04638031136 -0.1479048307 0.1105438372)
(-0.06300027624 -0.2158710954 0.09656069169)
(-0.05356785196 -0.1230899777 0.04847840459)
(-0.02326426246 -0.2235860897 0.007551613398)
(0.002317075765 -0.2082189772 0.05394001909)
(-0.02134083551 -0.2379886259 0.07643959004)
(-0.05955966215 -0.2047109405 0.07048987266)
(-0.06752305158 -0.1736773747 0.06016547169)
(-0.04258877334 -0.115574493 0.04229624354)
(0.01585680785 -0.09989017021 0.05411116997)
(0.04398287037 -0.1770516267 0.08541392473)
(0.04877995923 -0.2870773592 0.0457690016)
(0.07399942343 -0.41911423 -0.05574091505)
(0.08616044859 -0.4968579716 -0.1013170248)
(0.1315663208 -0.5431036047 -0.09719424127)
(0.1285681688 -0.5897668266 -0.0560149559)
(0.1373228551 -0.6642534631 0.05292177352)
(0.5012236127 -0.1604616001 -0.07688192331)
(0.4697987788 -0.2061922526 -0.02054424785)
(0.3990023305 -0.2488175138 0.04125670246)
(0.2988675299 -0.2839215977 0.06593374743)
(0.2300625496 -0.3033199701 0.06000206373)
(0.137497889 -0.3377532566 0.06389354168)
(0.1028103227 -0.2445983947 0.1065600605)
(0.03123018168 -0.3552899491 0.1158566381)
(-0.03732343522 -0.3584639151 0.1101332695)
(-0.06035850521 -0.3184109179 0.06876807584)
(-0.04833919129 -0.3580862997 0.01944804615)
(-0.02681069023 -0.3246098045 0.1140725096)
(-0.05537100695 -0.3462412938 0.1358194946)
(-0.07968665619 -0.2696642041 0.05573495537)
(-0.01001157189 -0.293051581 -0.096936947)
(0.03277962306 -0.2920626701 0.03674784061)
(0.004035529838 -0.292331462 0.08551934288)
(-0.04273571345 -0.2449290813 0.08028738464)
(-0.06604301441 -0.2283243175 0.07746926541)
(-0.05936411014 -0.1935043913 0.04429151149)
(-0.02734984892 -0.2011176657 0.03912006704)
(-0.00236520033 -0.2548226576 0.02762788345)
(0.005234646839 -0.326033454 -0.0486444632)
(0.05732174122 -0.3972221928 -0.1228654772)
(0.09518852768 -0.4506690528 -0.1456062553)
(0.157740105 -0.4897499527 -0.1366227749)
(0.1551820352 -0.5323922766 -0.09541906428)
(0.1651206329 -0.6021756481 0.02231361727)
(0.5281660234 -0.1270364965 -0.02239811802)
(0.4779481639 -0.1950557234 0.03888549425)
(0.3997501813 -0.2590533063 0.0828360944)
(0.3059424478 -0.3048701542 0.09419298795)
(0.2370412362 -0.3390441014 0.08454612757)
(0.1496105101 -0.3694914102 0.07235252948)
(0.1217531967 -0.3905198292 0.1001954396)
(0.03655939392 -0.4116308933 0.1053790823)
(-0.02314878132 -0.4376199095 0.06301535433)
(-0.07399530645 -0.3825774807 0.0191332826)
(-0.02195367892 -0.4219511477 -0.08856641919)
(0.01403161724 -0.4108254482 0.05151099167)
(-0.0150616815 -0.475846339 0.1209437716)
(-0.07568306003 -0.3402943624 0.05116703588)
(0.01651036253 -0.2514090751 -0.1461729109)
(0.0942099352 -0.3130510739 -0.006377570646)
(0.0556770631 -0.3308794706 0.07600592932)
(-0.002087543518 -0.2752216188 0.09675154736)
(-0.04217793939 -0.3673688746 0.1086500228)
(-0.05913385776 -0.233477324 0.07314586796)
(-0.08838306997 -0.2271686964 0.02538479518)
(-0.06462181396 -0.2570503747 -0.04768836748)
(-0.02832356524 -0.2900042128 -0.1247649098)
(0.04476833625 -0.3311132643 -0.1778795701)
(0.106562194 -0.3668936061 -0.1892146876)
(0.1817715985 -0.3954325363 -0.1740298802)
(0.1816604348 -0.4300518259 -0.1309335095)
(0.1892486782 -0.4892608571 -0.004348208476)
(0.4130803424 -0.2321533958 0.07831497618)
(0.3605870004 -0.3057215228 0.09600926008)
(0.2923794645 -0.3538865804 0.09963080147)
(0.2335822257 -0.3882228445 0.0951454856)
(0.1466158571 -0.4073836027 0.07629843561)
(0.1227461538 -0.4428460505 0.0855510256)
(0.008768517472 -0.4483883903 0.09206721834)
(-0.02624611564 -0.4478622986 -0.01763648438)
(-0.1102585762 -0.4109663293 -0.01481754689)
(-0.002134366436 -0.3860729387 -0.1495936103)
(0.03116759786 -0.4679321584 -0.01963402954)
(0.08610693439 -0.4003132703 -0.1943580492)
(0.09058449405 -0.4075133237 0.08200697688)
(0.04438695587 -0.3219776016 0.01457530972)
(0.09307879552 -0.3590516706 -0.0200137778)
(0.09226739206 -0.3466537759 0.02739408803)
(-0.07108783001 -0.3072724804 0.09965533188)
(0.0169665661 -0.2160967599 -0.04282712977)
(0.04824943163 -0.2301767561 0.08342238954)
(-0.1190668562 -0.206778054 0.002045964208)
(-0.07980791951 -0.21172344 -0.1040262096)
(-0.040440825 -0.2128169528 -0.1719222758)
(0.04725207541 -0.2244038621 -0.2198900532)
(0.1220487998 -0.2501150412 -0.2293123633)
(0.2050515239 -0.2624264965 -0.2112874326)
(0.2051092291 -0.2825527883 -0.167059416)
(0.2087346581 -0.3217470462 -0.03245738736)
(0.3522829088 -0.3276618568 0.1044880103)
(0.3137341921 -0.3737032173 0.07712536903)
(0.2652419954 -0.4065279647 0.07166664687)
(0.222217493 -0.4312779467 0.07665096052)
(0.1266417433 -0.4396133052 0.06602610052)
(0.1215609224 -0.4865964969 0.01992068903)
(0.01094781965 -0.4665580859 0.08318384391)
(-0.02589813933 -0.3809739996 -0.02861741035)
(-0.08449390161 -0.4035138332 -0.02782239239)
(0.00613955302 -0.3610153707 -0.1549516626)
(0.1100715759 -0.4912971552 -0.09098695695)
(0.1169803688 -0.4278699468 0.04973156362)
(0.09098368275 -0.4508953203 0.04636000902)
(0.09936617337 -0.3866161122 -0.0365893298)
(0.1424367867 -0.3788093487 -0.08550209106)
(0.1606087481 -0.348482234 -0.06397252197)
(0.1273335574 -0.3270596295 0.01327501511)
(0.07747186815 -0.1430263073 0.1005349607)
(-0.01478327396 -0.2036921737 0.1322034353)
(-0.1379488359 -0.1581153158 -0.005307452482)
(-0.07841749055 -0.1528784617 -0.1727876413)
(-0.05257827565 -0.1149989749 -0.2110608379)
(0.03600653794 -0.07498527947 -0.2561727339)
(0.1280346275 -0.07002130714 -0.2694721904)
(0.2300188017 -0.06859933676 -0.246154304)
(0.2301889005 -0.0809940808 -0.2002867951)
(0.2248832854 -0.09148220726 -0.06046297266)
(0.2998389544 -0.3953584153 0.05787061472)
(0.278297202 -0.4170335019 0.03609304234)
(0.2461845946 -0.4372577595 0.04025085398)
(0.2170548725 -0.4479149674 0.05855512767)
(0.09380067758 -0.4555469403 0.05598068693)
(0.1299195318 -0.3940763117 -0.1779873695)
(0.09635624298 -0.4631830733 0.08389947259)
(-0.06215783857 -0.3949401283 0.1062384727)
(-0.120591988 -0.4055430166 -0.08082640846)
(0.004091373898 -0.3966277198 -0.2300333577)
(0.1236578534 -0.4822426371 -0.2033682524)
(0.1579707068 -0.4958199165 -0.08237767433)
(0.1399514183 -0.4999970692 -0.05973711705)
(0.1585282514 -0.393003387 -0.09045806368)
(0.1959808786 -0.344607986 -0.1354755293)
(0.2283142286 -0.3146862138 -0.1342380988)
(0.2282952441 -0.2931657963 -0.08281654818)
(0.1967746784 -0.23055924 0.0140385671)
(0.1113513024 -0.1835066874 0.1374255685)
(-0.1084446427 -0.09810353573 0.03802522766)
(0.02988944211 -0.0007324627812 -0.2858337705)
(0.02650764685 0.05705043153 -0.1835466747)
(0.06393143918 0.08746092787 -0.1918672019)
(0.1320908032 0.03778141196 -0.2174497993)
(0.2205976836 0.09685406001 -0.2009895678)
(0.2162671745 0.1255931261 -0.1610440484)
(0.2044834702 0.1853292137 -0.02123780062)
(0.2579799854 -0.4354498615 0.01983514941)
(0.2582104421 -0.4444683784 0.0111082165)
(0.2472320359 -0.456366289 0.02197113666)
(0.2237868699 -0.4581004235 0.0404487884)
(0.1606410288 -0.4631215942 0.05165469306)
(0.1269653873 -0.3866876998 0.08047834406)
(0.0325519908 -0.442108451 0.1056780337)
(-0.1214922301 -0.3909491863 0.03848428139)
(-0.1520856849 -0.3414399709 -0.1920325811)
(0.0067347598 -0.2960400917 -0.3677451051)
(0.1357361977 -0.3367262468 -0.3425431394)
(0.1658353327 -0.3677756205 -0.243638848)
(0.2283391597 -0.2694182 -0.4258118972)
(0.2753396433 -0.2920481406 -0.149187771)
(0.270607958 -0.249418282 -0.1702059723)
(0.29813758 -0.2244188291 -0.1830277396)
(0.3151209081 -0.2102874681 -0.1578030824)
(0.3164494167 -0.2158968165 -0.09746229512)
(0.2700450511 -0.1417511479 0.007821329795)
(0.1216391818 -0.0873785387 0.1138991502)
(-0.005374098924 0.1175212369 0.03671505052)
(-0.0210784276 0.2074051346 -0.07732408391)
(-0.05236962187 0.2427033765 -0.1715709524)
(0.08607871512 0.2581373 -0.3278694352)
(0.2678852432 0.2853788465 -0.216755341)
(0.223983538 0.3103088502 -0.1476965017)
(0.1913700155 0.3788898093 -0.00449401651)
(0.2595277751 -0.4679595652 0.01597929216)
(0.2610448482 -0.4664279824 0.01237332574)
(0.2566126848 -0.4691428388 0.01939728001)
(0.2351804542 -0.4672465898 0.03087952489)
(0.1886011507 -0.4589893458 0.03835335174)
(0.1464609598 -0.4184804226 0.06284585142)
(0.04401505406 -0.3994812581 0.08734255494)
(-0.1066342807 -0.3253484839 0.02452670315)
(-0.1607619059 -0.2395945166 -0.2077178674)
(0.01649123212 -0.1390548216 -0.4603816081)
(0.1371777146 -0.141573587 -0.4480218213)
(0.240227245 -0.1441336787 -0.3959677096)
(0.2919507186 -0.1352327952 -0.256435503)
(0.2919203404 -0.1303064547 -0.1928667231)
(0.3085112853 -0.1006837518 -0.2004797875)
(0.341151279 -0.07086530324 -0.2131024793)
(0.3287368381 -0.06403885683 -0.1912595599)
(0.388310813 -0.03736318697 -0.2533145766)
(0.4360802347 -0.04002952651 -0.09989402899)
(0.3220168085 -0.003897777052 0.01201878007)
(0.1660513724 0.0972221642 0.1226980122)
(0.06112712723 0.2259478011 0.07874671425)
(0.03748904547 0.3533620434 -0.06064007775)
(0.09373760335 0.4768984607 -0.1407134932)
(0.1811216765 0.4521780932 -0.1225515772)
(0.1736895179 0.4590486081 -0.08676943084)
(0.1591442605 0.5381212544 0.03559147004)
(0.2859504969 -0.4986206099 0.02848129007)
(0.2754642298 -0.4877078999 0.02686631314)
(0.2716184844 -0.477965325 0.02530472814)
(0.2524789933 -0.4674421706 0.0256496246)
(0.2206033162 -0.4464816974 0.02370098749)
(0.1878938661 -0.4047298637 0.03006842135)
(0.1200041046 -0.3669002352 0.05083855833)
(0.03430559665 -0.2853676117 0.1092567356)
(-0.1334409399 -0.1522578931 -0.0115664476)
(0.02289849838 0.09197015705 -0.4566774985)
(0.1676078439 0.1519883176 -0.2876960879)
(0.1781017766 0.171345357 -0.07809289671)
(0.1644262341 0.1588694805 -0.2701672815)
(0.221428773 0.1166132889 -0.1834300537)
(0.285666957 0.113791254 -0.1909208227)
(0.3564818687 0.1151513138 -0.1920621884)
(0.3921320702 0.1122134003 -0.1605898468)
(0.4164233673 0.142744928 -0.1084117764)
(0.4033970052 0.1024962164 -0.03519393009)
(0.3248087059 0.104436839 0.0289688244)
(0.2215799899 0.1525337882 0.08350553108)
(0.1175903396 0.2175300979 0.1010703598)
(0.066583141 0.3518992449 0.0188578376)
(0.08121264913 0.4579858654 -0.06704946751)
(0.116675307 0.4773953735 -0.09518575763)
(0.1250626199 0.5311151254 -0.06889744115)
(0.1457389435 0.619953909 0.06377990801)
(0.3372910674 -0.5412382235 0.03922711164)
(0.301420896 -0.5075696005 0.04810895645)
(0.2932194021 -0.4816140622 0.03577338736)
(0.271137361 -0.4610960277 0.02331277369)
(0.2485528742 -0.4303042083 0.009419251443)
(0.2276667277 -0.3879616264 0.003313111842)
(0.1895305221 -0.3452859718 0.01379290814)
(0.1439479863 -0.2743358335 0.06188567356)
(0.03916439705 -0.2048124872 0.1071398763)
(0.008772947122 0.177730252 -0.05561482651)
(0.1519961922 0.1571846504 0.04603727173)
(0.132437793 0.09450846702 0.1665499988)
(0.1131767407 0.1010058394 0.1031160117)
(0.1589775473 0.1622931206 -0.02615314815)
(0.2445828369 0.2015370624 -0.0960596392)
(0.3288830664 0.1947659664 -0.09961080025)
(0.3898174432 0.1761629043 -0.06205870283)
(0.4192976011 0.1532607042 -0.005339017456)
(0.3995740071 0.1271375973 0.04160627449)
(0.335544931 0.1309507794 0.05800884053)
(0.2608179516 0.1680317234 0.06088157418)
(0.1817620805 0.219527491 0.07447570306)
(0.1050530755 0.3283622547 0.07019101002)
(0.06732118587 0.4531799235 0.01206917138)
(0.04152537298 0.5350382209 -0.2126989664)
(0.1252762023 0.6016590476 -0.05846372451)
(0.1080643148 0.6624995545 0.09071359478)
(0.4155391632 -0.5632804941 -0.01520189312)
(0.3542387359 -0.5050025368 0.06804668441)
(0.3267083017 -0.4723125327 0.05212823417)
(0.2945209695 -0.4472092356 0.02631039933)
(0.2781646025 -0.4058964628 -0.0006048424072)
(0.2676276814 -0.3570728118 -0.01817566823)
(0.2511864327 -0.3107209908 -0.01715610068)
(0.2260355032 -0.2541493707 0.01133460951)
(0.1600861326 -0.1972302974 0.06023554154)
(0.08874798296 -0.0360626181 0.1331609738)
(0.1866369542 -0.04057235376 0.1199572735)
(0.185597206 -0.04484658072 0.1065695127)
(0.1214171171 0.006801731874 0.07506259618)
(0.1438311851 0.100088529 0.01866070035)
(0.2299555671 0.1622584421 -0.02521566066)
(0.3148215893 0.1748118841 -0.02479364902)
(0.3794992512 0.1600617154 0.0007085504189)
(0.4078139385 0.143156179 0.03118312803)
(0.3921771363 0.1395910697 0.04865453733)
(0.3456644945 0.1616555722 0.04725836628)
(0.2916444984 0.2027569492 0.03736759067)
(0.2366907416 0.2491754804 0.04033656857)
(0.1733011612 0.3228125491 0.06146940723)
(0.1158138073 0.4328918611 0.05785758479)
(0.07955502441 0.5553116294 -0.1153556002)
(0.1330515055 0.587236262 0.005822330793)
(0.07557331573 0.6574281477 0.111586135)
(0.4722948581 -0.6584369813 -0.4135257236)
(0.4455211964 -0.567341648 -0.01032835041)
(0.3683165532 -0.4954696105 0.05892958459)
(0.3200985287 -0.4478688431 0.03495970039)
(0.3126975309 -0.3864202666 -0.001498679026)
(0.3113117425 -0.32141357 -0.02982842919)
(0.3080415399 -0.2673615579 -0.03838690335)
(0.2976888104 -0.2170479798 -0.02235641278)
(0.2648565486 -0.1713739996 0.01771773188)
(0.2098450604 -0.09324793655 0.08303239332)
(0.1653641226 -0.01216105531 0.01590565184)
(0.2239070817 0.07020403649 -0.2247358564)
(0.2323779938 0.05368828871 -0.05533304643)
(0.2123579002 0.08522966657 -0.02485671684)
(0.2599463594 0.1250213083 -0.04072024196)
(0.3232870491 0.1434487804 -0.04415760205)
(0.3759681522 0.145168267 -0.03610066869)
(0.4027280148 0.1463253309 -0.02208028741)
(0.3987185361 0.1588396495 -0.005026639293)
(0.3695532176 0.1899484746 0.008510179598)
(0.3291088633 0.2341799916 0.01324178104)
(0.2864060184 0.2797530209 0.01716574707)
(0.2386315251 0.3320985478 0.03426942962)
(0.1848829611 0.4057108977 0.05531115328)
(0.1490049141 0.5057057587 0.01385157603)
(0.1343114852 0.5331333466 0.06952075357)
(0.05829704162 0.6208453293 0.1191852866)
(1.024710076 0.1111803029 -1.517009299)
(0.9727923969 -0.2172486882 -0.2436708374)
(0.6018839506 -0.320532336 0.1020817906)
(0.4065300739 -0.3677027174 0.07031088346)
(0.378942179 -0.3555394336 0.0156394443)
(0.372542288 -0.2762847238 -0.02798364165)
(0.3669483016 -0.2129710452 -0.04796283492)
(0.3614717705 -0.1632230834 -0.04329092838)
(0.3434212549 -0.1235258425 -0.01653948021)
(0.305325116 -0.07783403286 0.02862040274)
(0.2516805189 -0.01760281383 0.04776242846)
(0.2292180866 0.07692955656 -0.002554673221)
(0.2287057263 0.1058667025 -0.04401034251)
(0.236477968 0.1403228439 -0.07756705837)
(0.2804624605 0.1663803473 -0.09475222745)
(0.3364182477 0.1823552371 -0.09782740743)
(0.3858530388 0.1915305733 -0.09169241275)
(0.4168894695 0.2013724605 -0.07813464812)
(0.424528242 0.2186490849 -0.05738369093)
(0.4094200593 0.2470653749 -0.03315969946)
(0.3779281978 0.2838157884 -0.01301942232)
(0.3384796968 0.3211290728 0.0005804992019)
(0.2941630043 0.3576700532 0.01481210651)
(0.2430548829 0.4003244167 0.03519439012)
(0.2005500391 0.4590170481 0.05090425383)
(0.1418070747 0.4908876744 0.08583945281)
(0.05497897557 0.5747345281 0.1153133244)
(0.743943652 0.4942283095 -0.3049413262)
(0.4546375155 0.08007904182 0.08634750771)
(0.3338468736 -0.1158133299 0.06301087885)
(0.2583630014 -0.2999058396 -0.00715048873)
(0.3709211981 -0.2880671131 -0.0006146655083)
(0.4361133582 -0.1938588699 -0.02689873655)
(0.4286963172 -0.1349907755 -0.04702062905)
(0.4211253012 -0.09272126367 -0.04947301678)
(0.4060137904 -0.06180946892 -0.03065125999)
(0.3725264414 -0.02840248945 0.007409246406)
(0.3094595949 0.02637324678 0.03452069536)
(0.2551641408 0.1015568393 0.00963218083)
(0.2438356316 0.1563780512 -0.05192772048)
(0.2594277252 0.2010040331 -0.09688480173)
(0.3012571116 0.2310283438 -0.1189229338)
(0.3538246462 0.2500043269 -0.124651417)
(0.4035644384 0.2627955491 -0.1195778282)
(0.4403326583 0.2753816178 -0.1063204843)
(0.4580688891 0.2926353864 -0.08572020344)
(0.4544731566 0.3166688753 -0.05966724045)
(0.4310236283 0.3453589949 -0.03300815564)
(0.3928146308 0.3730547318 -0.01083299522)
(0.3449892188 0.3968507848 0.006307028314)
(0.2892439236 0.4196186338 0.02253070274)
(0.2355215688 0.4490650926 0.04357607668)
(0.1560044936 0.4769383057 0.07353453431)
(0.06366913144 0.5411328189 0.1059489973)
(0.3034592851 0.3224592156 0.05527566616)
(0.1858177777 0.05431996188 0.06128717204)
(0.1314040876 -0.1469783716 -0.0289962415)
(0.2088540823 -0.289685636 -0.2426433873)
(0.4618252853 -0.7774747803 -0.1042363161)
(0.4988761417 -0.2864852354 -0.03226213051)
(0.4769404829 -0.1333253874 -0.03537495433)
(0.4692313641 -0.04409714721 -0.04132665409)
(0.4607864442 0.005239024947 -0.02789866736)
(0.4385595571 0.04133960163 0.006818580968)
(0.381445723 0.08863490825 0.04050351272)
(0.3110163009 0.1575553231 0.02332669445)
(0.2799344328 0.2238135808 -0.03910480301)
(0.287896124 0.2761314669 -0.09227378177)
(0.3236248612 0.3109044381 -0.1213068626)
(0.3728170842 0.3327639774 -0.1316017243)
(0.4228643899 0.3472929499 -0.1291742778)
(0.4638871997 0.3597527068 -0.1176543343)
(0.4889599449 0.3741999763 -0.09875995387)
(0.4940935337 0.392355143 -0.07384653862)
(0.4779381034 0.4126011424 -0.04545196963)
(0.4423036195 0.4305288391 -0.01752005726)
(0.3897618847 0.4433291136 0.005348230416)
(0.3257195906 0.4526078941 0.02154759251)
(0.2607023433 0.4646427747 0.03687934458)
(0.1704895772 0.4851072466 0.06003674553)
(0.07765232178 0.5297903958 0.09688162376)
(0.06216899709 0.3112907568 -0.04756068844)
(-0.05171503078 0.2403167798 -0.08606986528)
(-0.1156543965 0.1376564925 -0.09481913425)
(-0.5314475532 0.2047927158 -0.4062195157)
(0.434443861 0.2198483848 -1.062725416)
(1.140364001 0.07782242219 -0.1753302158)
(0.7217201916 0.06600750459 -0.02913922922)
(0.5941589625 0.07709646209 -0.03975991015)
(0.5314880245 0.08957440217 -0.04707473304)
(0.4953700091 0.1091354375 -0.0260547521)
(0.4491654277 0.1500915325 0.01519486707)
(0.3794295321 0.2181646118 0.0265838033)
(0.331001405 0.2920458399 -0.01729738504)
(0.324879506 0.3516386442 -0.0723729738)
(0.3505779684 0.3919954444 -0.1087060566)
(0.3936747771 0.4170398616 -0.1249813765)
(0.4416774325 0.4325597034 -0.1266216647)
(0.484284462 0.4436882188 -0.1179974488)
(0.513657291 0.4542611488 -0.1016117168)
(0.5245167275 0.4659980353 -0.07881579354)
(0.5138357063 0.4777564296 -0.05071583221)
(0.4807588955 0.486318479 -0.01936153614)
(0.4239731258 0.4891084342 0.009463387183)
(0.3515164574 0.4881990018 0.02853497075)
(0.2768024248 0.4894447653 0.0394298143)
(0.1796880213 0.5034361862 0.05434497351)
(0.08919467085 0.5365683927 0.09141711924)
(-0.05260610823 0.403680825 -0.1369837727)
(-0.01906669019 0.42048668 -0.1692472496)
(0.01064212612 0.4357359701 -0.1655791384)
(0.01261398152 0.5516993837 -0.2358939339)
(0.4162619001 0.9686579878 -0.2614179057)
(0.6386190779 0.474692509 -0.1046056846)
(0.5465399316 0.327009944 -0.06891673588)
(0.5155542497 0.2492837303 -0.07767498073)
(0.5089458158 0.2184409093 -0.09212127549)
(0.5107222039 0.2177399983 -0.08383017555)
(0.4984962735 0.2436782764 -0.04408402865)
(0.45321949 0.2955775842 -0.003462960963)
(0.3993671132 0.3621723098 -0.007745414745)
(0.3749710645 0.4228558431 -0.04743688867)
(0.3851839354 0.4667038733 -0.08610493084)
(0.4178018477 0.4942556511 -0.1084031473)
(0.460034036 0.5102740128 -0.1151149723)
(0.5007778402 0.5196464604 -0.110262468)
(0.5311079617 0.5260635354 -0.09688231457)
(0.5445075332 0.5312650803 -0.07645769037)
(0.5369115279 0.5345737966 -0.04915802814)
(0.5036801413 0.5335960775 -0.01555234849)
(0.4434006585 0.5269957558 0.01792643266)
(0.3640421945 0.5178725559 0.04002523372)
(0.2820266652 0.5123474818 0.04793652333)
(0.1807478042 0.5222269421 0.05493702304)
(0.09434849429 0.5518788611 0.08936475604)
(-0.1039842604 0.509807734 -0.1817152148)
(-0.009772345441 0.537135113 -0.2107855066)
(0.06908479227 0.5269760718 -0.1938295801)
(0.1464120211 0.6087568426 -0.1849864054)
(0.370710816 0.6825598916 -0.1364465361)
(0.4979174276 0.4922322187 -0.0954445145)
(0.4813133936 0.4043206227 -0.07788814585)
(0.4746887698 0.3481172572 -0.09435536697)
(0.4918074321 0.3255250279 -0.1189729869)
(0.519800286 0.3220534089 -0.1221250785)
(0.537519842 0.342439595 -0.09061170751)
(0.5214728614 0.3827461439 -0.04110621233)
(0.4763206033 0.4363165072 -0.013469835)
(0.4373989313 0.489811023 -0.02682211155)
(0.4283398649 0.5316823627 -0.05901005656)
(0.4460840816 0.5590814588 -0.08493235285)
(0.4785508851 0.5745592352 -0.09684256428)
(0.5137244738 0.5819657067 -0.09628323232)
(0.5414427852 0.5843985171 -0.08613882382)
(0.5539746316 0.5833157433 -0.06789388742)
(0.5461742537 0.5784693754 -0.04098241182)
(0.5095907083 0.5674486147 -0.005193388724)
(0.4455432963 0.5518566181 0.03089172185)
(0.3609877932 0.5360479762 0.05392037622)
(0.2746928755 0.5267837227 0.05841206295)
(0.1726007211 0.5352639333 0.05795288718)
(0.09232689324 0.5666560388 0.08835831553)
(-0.1195750345 0.6220800384 -0.1964958081)
(-0.00277269286 0.6449315745 -0.2252915743)
(0.1018563685 0.6357756095 -0.2050946861)
(0.2033097377 0.6754968562 -0.1797861212)
(0.335884828 0.6794629912 -0.1373828145)
(0.4105330687 0.5850254697 -0.09955182878)
(0.4147399988 0.5147879091 -0.07906516585)
(0.4295122752 0.4481485106 -0.1014068144)
(0.4735016471 0.4305011895 -0.130611361)
(0.5252029081 0.4220791977 -0.1427685844)
(0.5683920596 0.4389172427 -0.1169091847)
(0.5757154708 0.4695568834 -0.06762652519)
(0.5452976868 0.5089212428 -0.02318973566)
(0.5015012498 0.5501274183 -0.0122289665)
(0.4757637705 0.5845564007 -0.03187140116)
(0.4770175475 0.6081475582 -0.0576371538)
(0.4969160855 0.6214937809 -0.0737740852)
(0.5232665001 0.6266671434 -0.07741844668)
(0.5448730587 0.6254587618 -0.07018799584)
(0.5531219284 0.6186853285 -0.0531021115)
(0.5395639908 0.6049533489 -0.02494237015)
(0.4976851125 0.5842850109 0.01210135588)
(0.4294808938 0.5606557423 0.0477645133)
(0.3417527101 0.54002037 0.06819780841)
(0.2547806937 0.5299255134 0.06770979206)
(0.1555888064 0.5395461755 0.06010626689)
(0.08382405174 0.5744844552 0.08569287317)
(-0.116914544 0.725810127 -0.190635059)
(0.003230806738 0.7435490937 -0.2205241511)
(0.114423359 0.7383482786 -0.2011686402)
(0.2142996529 0.7487120632 -0.1726436906)
(0.3034826758 0.7286643276 -0.1338424342)
(0.3542454667 0.6692385074 -0.09424267071)
(0.3505329875 0.6143711683 -0.07087214238)
(0.388427799 0.5096717734 -0.1021859954)
(0.4649504545 0.5159157574 -0.1282629704)
(0.5304213077 0.4924919885 -0.1460123839)
(0.5922879671 0.519026998 -0.1232289879)
(0.6128815565 0.5444411314 -0.07628145092)
(0.5952607906 0.5702394692 -0.0248925833)
(0.5539528731 0.5967540583 0.001933514946)
(0.5188833102 0.621240894 -0.005285600053)
(0.5062827863 0.6389789146 -0.02811733611)
(0.5131648616 0.6489000138 -0.04679497044)
(0.528534297 0.6515580898 -0.05374940799)
(0.5411287596 0.6470222634 -0.04828812489)
(0.5403703868 0.6335150487 -0.03031678831)
(0.5175890282 0.6107965765 -0.0007197887003)
(0.4690762229 0.5819353915 0.03495884632)
(0.397047098 0.5523178865 0.06612414667)
(0.3089857956 0.5296156891 0.08008844681)
(0.2252416122 0.521759889 0.07343307426)
(0.1321845009 0.5346227991 0.05965529762)
(0.07067398422 0.5719477018 0.07969792936)
(-0.1017343491 0.8100231191 -0.1688878877)
(0.01235038137 0.8278307156 -0.2022420187)
(0.1168118562 0.8273335902 -0.1850357695)
(0.2065408036 0.8246806229 -0.1568500864)
(0.2692490426 0.8013321399 -0.1201612296)
(0.307837445 0.7526623069 -0.08535888885)
(0.2633296948 0.7138268412 -0.05739186339)
(0.3389834808 0.4928835947 -0.1353788345)
(0.4656260173 0.6063401609 -0.1387178653)
(0.5349085884 0.6038027877 -0.2019214784)
(0.6253115733 0.6134751326 -0.1341281848)
(0.6384169047 0.608313689 -0.07156548474)
(0.6234363897 0.6061778934 -0.0120110882)
(0.5857428872 0.613464451 0.02287641641)
(0.5471321103 0.6272089968 0.02330849702)
(0.5254652676 0.640983435 0.003516221839)
(0.521413297 0.6500179328 -0.01592453666)
(0.5254706652 0.6511937757 -0.02399863315)
(0.5264649202 0.6425915358 -0.01813013577)
(0.5143456906 0.6231562523 0.0007693660814)
(0.4820064855 0.5941626599 0.02897585711)
(0.4270746292 0.5600019521 0.05927149443)
(0.353443322 0.5278021779 0.08174320603)
(0.2687968907 0.5063459238 0.08670678347)
(0.1917463682 0.5035862931 0.07467933135)
(0.1070161511 0.5211824508 0.05711919658)
(0.05571754937 0.5580742264 0.07100263871)
(-0.07443322319 0.8672151449 -0.1342569786)
(0.02887196045 0.8904929454 -0.1741832868)
(0.1192211199 0.8959630837 -0.1598206422)
(0.1967063763 0.891813213 -0.1340241846)
(0.2378946133 0.8745753461 -0.09998136924)
(0.2736087648 0.8512671483 -0.07856213723)
(0.1113238504 0.8330147729 -0.03227844028)
(0.3055555652 0.7775634283 -0.3416218928)
(0.5931907013 0.7739260574 -0.1424470663)
(0.5510573865 0.7558801535 -0.1413744504)
(0.5970462011 0.7112289311 -0.08949960398)
(0.607073594 0.6515956292 -0.02041233084)
(0.6126146949 0.6120021419 0.03728061421)
(0.5943995789 0.5991984528 0.06486953159)
(0.5605789558 0.6024291205 0.06132110471)
(0.533245225 0.612087818 0.04039896388)
(0.5190803856 0.6202865908 0.020447686)
(0.5115477041 0.6208452692 0.01221019787)
(0.5006998213 0.610237274 0.01797778977)
(0.4776149745 0.5877222233 0.03521055998)
(0.4368077749 0.555865442 0.05813550217)
(0.378010756 0.5205214445 0.07910502729)
(0.306426385 0.4896033851 0.09060826328)
(0.2286334147 0.4722007988 0.0874060838)
(0.1605364612 0.4764639271 0.07287885766)
(0.08521219071 0.4995198715 0.05509056299)
(0.04209697945 0.5333535611 0.06278236281)
(-0.03325562834 0.8922345117 -0.0894630289)
(0.05371404763 0.9243153418 -0.1369900511)
(0.1281962872 0.9364589083 -0.1272619426)
(0.1952708822 0.9337019918 -0.1046106443)
(0.2361800987 0.921383385 -0.07501914439)
(0.2737694449 0.9207727466 -0.04780269557)
(0.2217835782 0.9128159852 -0.01256596358)
(0.321575311 1.030899544 -0.1194137276)
(0.4669131382 0.8862322062 -0.06680443813)
(0.4851930499 0.8086326115 -0.05805746598)
(0.5177378333 0.7337578787 -0.02084820696)
(0.5308088689 0.5760445926 0.04746296269)
(0.5693469686 0.4963525673 0.0952107161)
(0.5772638591 0.4993408679 0.1130364002)
(0.5536170711 0.5234486606 0.1026665897)
(0.5254051154 0.5447808722 0.07830809601)
(0.5044225774 0.5588437394 0.05731398972)
(0.4873079826 0.5621348349 0.048539925)
(0.4663359325 0.5523520376 0.05253498621)
(0.4345857017 0.5302697384 0.06507603767)
(0.3886706573 0.4999173251 0.07951291552)
(0.3298920301 0.467594319 0.08971498412)
(0.2634246367 0.4408347292 0.09211614184)
(0.1942820285 0.4289346235 0.0843842651)
(0.1355794945 0.4404813777 0.07067634247)
(0.06983824513 0.4687996191 0.05607325945)
(0.03206555781 0.4985324485 0.05876443383)
(0.01824101273 0.880578182 -0.03623580788)
(0.08468024697 0.9239022932 -0.08952008895)
(0.1428634965 0.9423761968 -0.08675260814)
(0.1983350221 0.9388076201 -0.06849657335)
(0.2379843863 0.9238321676 -0.04459458019)
(0.2733106482 0.9167908792 -0.01680741346)
(0.2660849855 0.9023976389 0.01201932353)
(0.3208647619 0.9381926035 -0.013332118)
(0.3739147712 0.856720871 -0.001787692715)
(0.4046407573 0.746703168 0.03908657897)
(0.3559196311 0.6941104816 0.04476986443)
(0.4150949306 0.5091939053 -0.154269207)
(0.528670511 0.3991070789 -0.1430328562)
(0.6045558332 0.3892861985 -0.02475241967)
(0.5882192248 0.4178221747 0.06490050425)
(0.5389917759 0.4504303366 0.09077732724)
(0.496879029 0.4742367091 0.08408076583)
(0.4639651958 0.4833153684 0.07620087753)
(0.4319040505 0.4770633795 0.07671683177)
(0.3935015221 0.4587110786 0.08273030926)
(0.3455278917 0.4333048685 0.08869287968)
(0.2891716016 0.4064355625 0.09122968279)
(0.2285809021 0.384831249 0.08912492273)
(0.1676110135 0.3779657106 0.08069134218)
(0.1172119601 0.3950672892 0.06994474437)
(0.06060838259 0.4274670769 0.06033811774)
(0.02611222988 0.4539144124 0.06018295201)
(0.07278138286 0.8243111061 0.01590098265)
(0.1168639773 0.8807230363 -0.03276926781)
(0.1599765908 0.9039129005 -0.03575821078)
(0.2023518652 0.8965280875 -0.02293938045)
(0.2350901692 0.8742880033 -0.005776125262)
(0.2648362132 0.8548789933 0.01739855207)
(0.2671189955 0.831906853 0.04289129164)
(0.3034071546 0.8213601991 0.05105183145)
(0.2857990895 0.7718054044 0.05987422461)
(0.3296822839 0.6724220824 0.1504529168)
(0.05561740451 0.6515003294 0.04949381777)
(0.371963959 0.6054538507 -0.5171287733)
(0.516771898 0.5401360649 -0.4772457885)
(0.6593711126 0.4891001916 -0.2728489918)
(0.6585234805 0.4427597207 -0.05407845624)
(0.5744458632 0.4176654787 0.06727554008)
(0.4979494633 0.4118112225 0.09267835716)
(0.4446628142 0.4090283775 0.08777920694)
(0.4021650329 0.4001395227 0.08470526864)
(0.3594244244 0.3842493461 0.08589248346)
(0.3111757293 0.3638614738 0.08762721293)
(0.257314631 0.3422771066 0.08772967962)
(0.2012198147 0.3246984975 0.08502847191)
(0.1468406914 0.3205453332 0.07800700118)