/*--------------------------------*- C++ -*----------------------------------*\
  =========                 |
  \\      /  F ield         | OpenFOAM: The Open Source CFD Toolbox
   \\    /   O peration     | Website:  https://openfoam.org
    \\  /    A nd           | Version:  8
     \\/     M anipulation  |
\*---------------------------------------------------------------------------*/
FoamFile
{
    version     2.0;
    format      ascii;
    class       volScalarField;
    location    "0.2";
    object      epsilon;
}
// * * * * * * * * * * * * * * * * * * * * * * * * * * * * * * * * * * * * * //

dimensions      [0 2 -3 0 0 0 0];

internalField   nonuniform List<scalar> 
67286
(
1.016497956e-05
9.015535094e-06
9.033503188e-06
9.034764265e-06
9.035460958e-06
9.036291809e-06
9.037264132e-06
9.038350084e-06
9.039500528e-06
9.040637102e-06
9.041649839e-06
9.04239923e-06
9.042780851e-06
9.042559178e-06
9.042022859e-06
9.041308214e-06
9.04053603e-06
9.039801511e-06
9.039166105e-06
9.038693985e-06
9.038429183e-06
9.038299181e-06
9.038250791e-06
9.038260347e-06
9.038312009e-06
9.038397314e-06
9.038509542e-06
9.038674699e-06
1.016493325e-05
9.015633271e-06
9.033603715e-06
9.034853795e-06
9.035529515e-06
9.036328375e-06
9.03725589e-06
9.038288426e-06
9.039387259e-06
9.040485611e-06
9.041483307e-06
9.042239517e-06
9.04263496e-06
9.042431583e-06
9.041885129e-06
9.041176701e-06
9.040430145e-06
9.039749374e-06
9.039170161e-06
9.038761696e-06
9.03853882e-06
9.038433518e-06
9.038402771e-06
9.038428914e-06
9.038501521e-06
9.038613911e-06
9.038760091e-06
9.038934776e-06
9.039154808e-06
9.039359935e-06
9.039562408e-06
9.03977759e-06
1.016493454e-05
9.015640958e-06
9.033596585e-06
9.034821464e-06
9.035455661e-06
9.036187181e-06
9.037012516e-06
9.037901098e-06
9.038811668e-06
9.039689902e-06
9.040458436e-06
9.041024367e-06
9.04131221e-06
9.04124512e-06
9.040945255e-06
9.040508662e-06
9.040008921e-06
9.039517416e-06
9.039093865e-06
9.038815172e-06
9.038656896e-06
9.038589168e-06
9.038588346e-06
9.038643445e-06
9.038750003e-06
9.038905159e-06
9.03910855e-06
9.039358527e-06
9.039642722e-06
9.039933347e-06
9.040200037e-06
9.040465678e-06
1.016495047e-05
9.015531259e-06
9.033459321e-06
9.034654221e-06
9.035248345e-06
9.035923005e-06
9.036673044e-06
9.037468069e-06
9.038272338e-06
9.039041468e-06
9.039718198e-06
9.040237851e-06
9.040545797e-06
9.040592635e-06
9.040427058e-06
9.04011894e-06
9.03974822e-06
9.039377401e-06
9.039075088e-06
9.038885553e-06
9.038784983e-06
9.038757407e-06
9.038792719e-06
9.038888451e-06
9.039047631e-06
9.039276341e-06
9.039584351e-06
9.039939642e-06
9.040307994e-06
9.040664617e-06
9.040988029e-06
9.041267479e-06
9.041549138e-06
1.016498278e-05
9.015308801e-06
9.033196696e-06
9.034354453e-06
9.034903319e-06
9.035519823e-06
9.036199269e-06
9.036913389e-06
9.037630809e-06
9.038315178e-06
9.038923622e-06
9.039409129e-06
9.039727422e-06
9.0398628e-06
9.039832722e-06
9.039698514e-06
9.039496428e-06
9.039274518e-06
9.039103675e-06
9.0389935e-06
9.038945668e-06
9.038959309e-06
9.039037648e-06
9.039188169e-06
9.039425084e-06
9.039762055e-06
9.040156983e-06
9.040589599e-06
9.041035421e-06
9.041467235e-06
9.041855878e-06
9.042183329e-06
9.042450585e-06
1.01650308e-05
9.01499156e-06
9.032831708e-06
9.033953483e-06
9.034458283e-06
9.035030201e-06
9.0356608e-06
9.036326443e-06
9.037000442e-06
9.037653967e-06
9.038254749e-06
9.038768068e-06
9.039162018e-06
9.039416065e-06
9.039532813e-06
9.039530635e-06
9.03944627e-06
9.039329255e-06
9.039231809e-06
9.039173654e-06
9.039165925e-06
9.039217801e-06
9.039342466e-06
9.039564723e-06
9.039881253e-06
9.040276806e-06
9.040738276e-06
9.041246246e-06
9.041776089e-06
9.042290643e-06
9.04274625e-06
9.043125929e-06
9.043382846e-06
1.016507703e-05
9.01465105e-06
9.032395577e-06
9.033481493e-06
9.033950604e-06
9.034486759e-06
9.035092804e-06
9.035741955e-06
9.036413686e-06
9.037085642e-06
9.03773175e-06
9.038321343e-06
9.038822088e-06
9.039206271e-06
9.03945847e-06
9.039585372e-06
9.039600381e-06
9.039558718e-06
9.039497702e-06
9.03946094e-06
9.039475579e-06
9.039559595e-06
9.039727662e-06
9.039983891e-06
9.040331521e-06
9.040766223e-06
9.041279671e-06
9.041854527e-06
9.042462262e-06
9.043058429e-06
9.043580638e-06
9.04401892e-06
9.044225281e-06
1.016509968e-05
9.014497313e-06
9.032122987e-06
9.033055867e-06
9.033422904e-06
9.033925401e-06
9.034522036e-06
9.035186661e-06
9.035896568e-06
9.036634449e-06
9.037377042e-06
9.038093317e-06
9.038743829e-06
9.03928662e-06
9.039685785e-06
9.039922987e-06
9.03999601e-06
9.039986662e-06
9.03993214e-06
9.039891837e-06
9.039899452e-06
9.039975895e-06
9.040134949e-06
9.040385191e-06
9.040733049e-06
9.041178601e-06
9.041717226e-06
9.042335148e-06
9.042999707e-06
9.043660054e-06
9.044229539e-06
9.044722772e-06
9.044852307e-06
1.016510937e-05
9.014460749e-06
9.032011641e-06
9.032827743e-06
9.033057665e-06
9.033433705e-06
9.033984384e-06
9.034676108e-06
9.035459032e-06
9.036304843e-06
9.037192275e-06
9.038086469e-06
9.038935121e-06
9.039670188e-06
9.040223117e-06
9.040555513e-06
9.040632735e-06
9.040609052e-06
9.040506368e-06
9.040416334e-06
9.040378219e-06
9.040408455e-06
9.0405257e-06
9.040734598e-06
9.041045968e-06
9.041464288e-06
9.041989842e-06
9.042612801e-06
9.043302055e-06
9.044004779e-06
9.044604912e-06
9.045174886e-06
9.045168977e-06
1.016511755e-05
9.01445139e-06
9.03198293e-06
9.032747132e-06
9.03282684e-06
9.03308186e-06
9.033542462e-06
9.034223188e-06
9.03509447e-06
9.036080193e-06
9.037148361e-06
9.038256615e-06
9.039335738e-06
9.040291817e-06
9.041014478e-06
9.041422297e-06
9.041465068e-06
9.041380376e-06
9.041177323e-06
9.040994488e-06
9.040870722e-06
9.040819997e-06
9.040861887e-06
9.040991779e-06
9.041225603e-06
9.041567899e-06
9.042021102e-06
9.042575643e-06
9.043203195e-06
9.043848702e-06
9.044403449e-06
9.044912473e-06
9.044910683e-06
1.016512359e-05
9.01444231e-06
9.031955349e-06
9.032716053e-06
9.032755698e-06
9.032824705e-06
9.033173546e-06
9.033830659e-06
9.034786517e-06
9.03592702e-06
9.0372146e-06
9.038594196e-06
9.039981106e-06
9.04123951e-06
9.042185099e-06
9.042705436e-06
9.042520861e-06
9.042306443e-06
9.041895859e-06
9.041566718e-06
9.041315424e-06
9.041154788e-06
9.041097807e-06
9.041116762e-06
9.041239429e-06
9.041467057e-06
9.041804625e-06
9.042243817e-06
9.042757795e-06
9.043294871e-06
9.043761383e-06
9.044175154e-06
9.044199275e-06
1.016512492e-05
9.014432949e-06
9.03192738e-06
9.032685736e-06
9.032723456e-06
9.032746487e-06
9.032865078e-06
9.033462825e-06
9.034495152e-06
9.035753924e-06
9.03722384e-06
9.038840074e-06
9.040486044e-06
9.041988555e-06
9.043099984e-06
9.043554797e-06
9.043277141e-06
9.042919958e-06
9.04237921e-06
9.041927661e-06
9.041572465e-06
9.041308024e-06
9.041157236e-06
9.041054077e-06
9.04105448e-06
9.041147603e-06
9.041344872e-06
9.041638589e-06
9.042004894e-06
9.042400542e-06
9.04275282e-06
9.043054637e-06
9.043117058e-06
1.016511928e-05
9.014423111e-06
9.031899214e-06
9.032655295e-06
9.032692043e-06
9.032712205e-06
9.032741404e-06
9.0330855e-06
9.034172778e-06
9.035526026e-06
9.037138153e-06
9.038995198e-06
9.040974879e-06
9.042858475e-06
9.044268878e-06
9.045051666e-06
9.044086793e-06
9.043577045e-06
9.042687977e-06
9.042065668e-06
9.041578463e-06
9.041212405e-06
9.040983591e-06
9.040759725e-06
9.04064631e-06
9.040605896e-06
9.040662407e-06
9.040808605e-06
9.041025277e-06
9.041278847e-06
9.04151609e-06
9.041719076e-06
9.041803821e-06
1.016510492e-05
9.01441273e-06
9.0318713e-06
9.032624906e-06
9.032660688e-06
9.032679628e-06
9.032702731e-06
9.03275058e-06
9.033738413e-06
9.03509802e-06
9.036743988e-06
9.038658669e-06
9.040763386e-06
9.042809409e-06
9.044618681e-06
9.044435003e-06
9.043731035e-06
9.043075915e-06
9.042260027e-06
9.041635399e-06
9.041147261e-06
9.040758296e-06
9.040505617e-06
9.0401943e-06
9.039997198e-06
9.039846316e-06
9.039784964e-06
9.039804791e-06
9.039892776e-06
9.040024182e-06
9.040161966e-06
9.040286354e-06
9.040374362e-06
1.0165081e-05
9.014401844e-06
9.031843879e-06
9.032595181e-06
9.03262992e-06
9.032647295e-06
9.032668433e-06
9.032697294e-06
9.033216295e-06
9.034432447e-06
9.035940622e-06
9.037675209e-06
9.039511594e-06
9.041244371e-06
9.042580919e-06
9.042831037e-06
9.042376742e-06
9.041873498e-06
9.041222175e-06
9.040696688e-06
9.040275679e-06
9.039920807e-06
9.039659145e-06
9.039337418e-06
9.039095631e-06
9.038883076e-06
9.038744672e-06
9.038674861e-06
9.03866822e-06
9.038707304e-06
9.038767363e-06
9.03883568e-06
9.038912823e-06
1.01650478e-05
9.014390631e-06
9.031817484e-06
9.032566461e-06
9.032599946e-06
9.032615892e-06
9.032635104e-06
9.03265861e-06
9.032757011e-06
9.03364986e-06
9.034895023e-06
9.03634148e-06
9.037855947e-06
9.039246888e-06
9.040282658e-06
9.040623973e-06
9.040455088e-06
9.04015399e-06
9.039729289e-06
9.039355587e-06
9.039040802e-06
9.038756426e-06
9.038521471e-06
9.038233418e-06
9.037987805e-06
9.037760196e-06
9.037586548e-06
9.037466302e-06
9.037399631e-06
9.037377455e-06
9.037384187e-06
9.037411956e-06
9.037473563e-06
1.016500649e-05
9.01437931e-06
9.031792349e-06
9.032539251e-06
9.0325716e-06
9.032586046e-06
9.032603144e-06
9.032623856e-06
9.032649774e-06
9.032937473e-06
9.033820487e-06
9.034921797e-06
9.036086704e-06
9.037158381e-06
9.037958172e-06
9.038314559e-06
9.03833162e-06
9.038218602e-06
9.038000961e-06
9.037782395e-06
9.037581228e-06
9.037381707e-06
9.037197123e-06
9.036966358e-06
9.036749413e-06
9.036540715e-06
9.036364176e-06
9.0362261e-06
9.036130116e-06
9.036073569e-06
9.036047485e-06
9.036047326e-06
9.036094734e-06
1.016495898e-05
9.014368076e-06
9.031768839e-06
9.032513722e-06
9.032544979e-06
9.032558071e-06
9.032573407e-06
9.032591671e-06
9.032613167e-06
9.03264023e-06
9.032934302e-06
9.03364162e-06
9.034469603e-06
9.035243039e-06
9.035849917e-06
9.0361948e-06
9.036307181e-06
9.036292084e-06
9.03622e-06
9.036132959e-06
9.03603573e-06
9.035921512e-06
9.035794868e-06
9.035629823e-06
9.035459618e-06
9.035286379e-06
9.035128625e-06
9.034995645e-06
9.034893936e-06
9.03482354e-06
9.034780385e-06
9.034763675e-06
9.034798915e-06
1.016490745e-05
9.014357181e-06
9.031747039e-06
9.032490213e-06
9.032520578e-06
9.032532417e-06
9.032546085e-06
9.032562365e-06
9.032581205e-06
9.032602643e-06
9.032628186e-06
9.032741004e-06
9.033180953e-06
9.033680834e-06
9.03410649e-06
9.034383814e-06
9.034524497e-06
9.03457554e-06
9.034569539e-06
9.034539428e-06
9.034513353e-06
9.034472139e-06
9.03440493e-06
9.034302207e-06
9.034181861e-06
9.034050426e-06
9.033926923e-06
9.033855381e-06
9.033822346e-06
9.033803387e-06
9.033788795e-06
9.033775914e-06
9.033794726e-06
1.016485426e-05
9.014346886e-06
9.031727368e-06
9.032468956e-06
9.032498416e-06
9.032509163e-06
9.032521566e-06
9.03253591e-06
9.032552556e-06
9.032571384e-06
9.03259222e-06
9.032615162e-06
9.032641512e-06
9.032680585e-06
9.03286087e-06
9.033007819e-06
9.033113041e-06
9.033167124e-06
9.033180438e-06
9.033171133e-06
9.033154764e-06
9.03312756e-06
9.033087847e-06
9.033098462e-06
9.033123713e-06
9.033147788e-06
9.033170691e-06
9.033189718e-06
9.033200696e-06
9.033203283e-06
9.033197674e-06
9.033183853e-06
9.033192284e-06
1.016480146e-05
9.014337298e-06
9.031709573e-06
9.032449909e-06
9.032478685e-06
9.032488487e-06
9.032499606e-06
9.032512637e-06
9.032527506e-06
9.032544101e-06
9.032562515e-06
9.032582269e-06
9.032602978e-06
9.032624394e-06
9.032646476e-06
9.032668197e-06
9.032689116e-06
9.032708664e-06
9.03272649e-06
9.032742929e-06
9.032758412e-06
9.032773109e-06
9.032787319e-06
9.032802853e-06
9.032818904e-06
9.032835859e-06
9.032854525e-06
9.032871887e-06
9.03288499e-06
9.032891782e-06
9.032891013e-06
9.032884121e-06
9.032903579e-06
1.016475085e-05
9.014328612e-06
9.031693867e-06
9.032433004e-06
9.032461177e-06
9.032470294e-06
9.032480485e-06
9.032492209e-06
9.032505593e-06
9.032520626e-06
9.032536889e-06
9.032554574e-06
9.032573071e-06
9.032592051e-06
9.032611201e-06
9.032630157e-06
9.032648312e-06
9.032665859e-06
9.032682318e-06
9.032697655e-06
9.032711921e-06
9.032724991e-06
9.032737002e-06
9.032747901e-06
9.032757689e-06
9.032766533e-06
9.032774642e-06
9.032781579e-06
9.032786707e-06
9.03278938e-06
9.032789227e-06
9.032786569e-06
9.032812349e-06
1.016470382e-05
9.014320866e-06
9.031680179e-06
9.032418312e-06
9.03244593e-06
9.032454343e-06
9.032463765e-06
9.032474563e-06
9.032486772e-06
9.032500349e-06
9.032515306e-06
9.03253114e-06
9.032547912e-06
9.032565179e-06
9.032582661e-06
9.032600008e-06
9.032617113e-06
9.032633391e-06
9.032648957e-06
9.032663595e-06
9.032677235e-06
9.032689655e-06
9.032700864e-06
9.032710883e-06
9.032719556e-06
9.032726935e-06
9.032732883e-06
9.032737382e-06
9.032740331e-06
9.032741589e-06
9.03274117e-06
9.032739389e-06
9.032767004e-06
1.01646615e-05
9.01431413e-06
9.031668443e-06
9.032405694e-06
9.032432854e-06
9.032440705e-06
9.032449398e-06
9.032459465e-06
9.032470798e-06
9.03248329e-06
9.032496902e-06
9.03251159e-06
9.032526924e-06
9.032542879e-06
9.032559068e-06
9.032575256e-06
9.03259111e-06
9.032606568e-06
9.032621431e-06
9.032635326e-06
9.032648454e-06
9.032660392e-06
9.032671262e-06
9.032680804e-06
9.032689088e-06
9.032696036e-06
9.032701601e-06
9.032705668e-06
9.032708312e-06
9.032709419e-06
9.032709033e-06
9.032707489e-06
9.03273555e-06
1.016462458e-05
9.014308346e-06
9.031658523e-06
9.032395135e-06
9.032421885e-06
9.032429234e-06
9.032437344e-06
9.032446685e-06
9.032457258e-06
9.032468974e-06
9.032481675e-06
9.032495254e-06
9.032509673e-06
9.032524458e-06
9.032539609e-06
9.032554865e-06
9.03256997e-06
9.032584556e-06
9.032598695e-06
9.032612215e-06
9.032624689e-06
9.032636268e-06
9.032646828e-06
9.032656074e-06
9.032664187e-06
9.032670922e-06
9.032676279e-06
9.032680243e-06
9.03268278e-06
9.032683903e-06
9.032683524e-06
9.032682062e-06
9.032710301e-06
1.01645937e-05
9.014303566e-06
9.031650099e-06
9.032386053e-06
9.032412567e-06
9.032419539e-06
9.032427169e-06
9.032435951e-06
9.032445899e-06
9.032456977e-06
9.032468983e-06
9.032481778e-06
9.032495275e-06
9.032509409e-06
9.032523681e-06
9.032538172e-06
9.032552575e-06
9.032566693e-06
9.032580178e-06
9.032593128e-06
9.032605331e-06
9.032616636e-06
9.032626777e-06
9.032635864e-06
9.032643821e-06
9.032650373e-06
9.032655639e-06
9.032659547e-06
9.032662067e-06
9.032663158e-06
9.032662806e-06
9.03266139e-06
9.032689712e-06
1.016456915e-05
9.01429755e-06
9.031633581e-06
9.032367614e-06
9.03239372e-06
9.032400443e-06
9.03240771e-06
9.032416081e-06
9.032425535e-06
9.03243603e-06
9.032447517e-06
9.032459747e-06
9.032472597e-06
9.032486017e-06
9.032499861e-06
9.032513654e-06
9.032527511e-06
9.032541098e-06
9.032554311e-06
9.032566788e-06
9.03257862e-06
9.032589622e-06
9.032599679e-06
9.032608535e-06
9.032616233e-06
9.032622726e-06
9.032627933e-06
9.032631825e-06
9.032634291e-06
9.03263537e-06
9.03263505e-06
9.032633648e-06
9.032662028e-06
1.016452474e-05
9.014159658e-06
9.031212283e-06
9.031911148e-06
9.031935138e-06
9.031941384e-06
9.031948273e-06
9.031956083e-06
9.031964945e-06
9.031974777e-06
9.031985518e-06
9.03199705e-06
9.032009156e-06
9.032021665e-06
9.032034615e-06
9.032047625e-06
9.032060616e-06
9.03207349e-06
9.032085827e-06
9.032097772e-06
9.032108861e-06
9.032119244e-06
9.032128707e-06
9.032137224e-06
9.032144554e-06
9.032150659e-06
9.03215557e-06
9.032159217e-06
9.032161538e-06
9.032162568e-06
9.032162278e-06
9.03216103e-06
9.032189602e-06
1.016227384e-05
9.008394996e-06
9.020381676e-06
9.020690251e-06
9.020698961e-06
9.020702474e-06
9.020706538e-06
9.020711151e-06
9.0207163e-06
9.020721928e-06
9.020727956e-06
9.020734311e-06
9.02074085e-06
9.020747465e-06
9.020754106e-06
9.020760679e-06
9.020766982e-06
9.020773057e-06
9.020778803e-06
9.020784127e-06
9.020789016e-06
9.020793435e-06
9.020797348e-06
9.020800764e-06
9.020803657e-06
9.020806019e-06
9.020807832e-06
9.020809098e-06
9.020809823e-06
9.020810036e-06
9.020809708e-06
9.020809204e-06
9.02083949e-06
1.05357827e-05
9.449327812e-06
9.456140787e-06
9.456241322e-06
9.456250482e-06
9.456260688e-06
9.45627264e-06
9.456286017e-06
9.456300476e-06
9.456315636e-06
9.456331111e-06
9.456346469e-06
9.456361301e-06
9.456375241e-06
9.456387981e-06
9.456399272e-06
9.456408959e-06
9.456416989e-06
9.456423365e-06
9.456428178e-06
9.456431557e-06
9.456433689e-06
9.456434765e-06
9.456435003e-06
9.456434603e-06
9.456433766e-06
9.45643267e-06
9.456431492e-06
9.456430354e-06
9.456429335e-06
9.456428501e-06
9.456428223e-06
9.456464086e-06
1.133775137e-05
1.115030597e-06
5.703617112e-07
5.491308888e-07
5.481792114e-07
5.479095199e-07
5.476857128e-07
5.47527112e-07
5.474766683e-07
5.47569231e-07
5.477815001e-07
5.479868509e-07
5.481685102e-07
5.474792591e-07
5.469301315e-07
5.465956189e-07
5.46442348e-07
5.464211793e-07
5.464766887e-07
5.466910572e-07
5.471564755e-07
5.476149849e-07
5.479087567e-07
5.480231144e-07
5.479784486e-07
5.478136453e-07
5.475799081e-07
5.473121861e-07
1.133777916e-05
1.115029471e-06
5.70355852e-07
5.491192412e-07
5.48164045e-07
5.478930759e-07
5.476725245e-07
5.475200932e-07
5.474712752e-07
5.475392547e-07
5.476837443e-07
5.478210671e-07
5.478863015e-07
5.474357744e-07
5.469678678e-07
5.466496917e-07
5.464814738e-07
5.464431746e-07
5.464903233e-07
5.467397476e-07
5.471696912e-07
5.475404232e-07
5.477334772e-07
5.477515661e-07
5.476233362e-07
5.473937346e-07
5.471173684e-07
5.468372876e-07
5.465912125e-07
5.464144562e-07
5.463003684e-07
5.462168969e-07
1.133779727e-05
1.115037592e-06
5.703521628e-07
5.491072922e-07
5.48139313e-07
5.478447707e-07
5.475818437e-07
5.47360449e-07
5.472057982e-07
5.47132723e-07
5.471277961e-07
5.471381314e-07
5.471350291e-07
5.469183101e-07
5.46678811e-07
5.46514208e-07
5.464481315e-07
5.464563498e-07
5.465358854e-07
5.468300437e-07
5.471599519e-07
5.473993706e-07
5.474711869e-07
5.473857892e-07
5.471758186e-07
5.468931565e-07
5.466069574e-07
5.463805104e-07
5.462444481e-07
5.461782335e-07
5.461235911e-07
5.460709336e-07
1.133778356e-05
1.115076288e-06
5.703787324e-07
5.491161182e-07
5.481411127e-07
5.47836296e-07
5.475541924e-07
5.472958416e-07
5.470803665e-07
5.46922163e-07
5.468207605e-07
5.46756706e-07
5.467086791e-07
5.466098994e-07
5.465048688e-07
5.464389507e-07
5.464226929e-07
5.464467818e-07
5.465678902e-07
5.468287312e-07
5.470525466e-07
5.471641888e-07
5.471291914e-07
5.469617663e-07
5.467127101e-07
5.464599732e-07
5.463022521e-07
5.462163204e-07
5.461389391e-07
5.460753755e-07
5.460257456e-07
5.459886221e-07
5.459428758e-07
1.133775943e-05
1.115165978e-06
5.704642902e-07
5.491713883e-07
5.481807184e-07
5.478713514e-07
5.47582354e-07
5.473134947e-07
5.470825608e-07
5.469033666e-07
5.467793652e-07
5.466994815e-07
5.466477231e-07
5.465921488e-07
5.465308181e-07
5.464756636e-07
5.464461611e-07
5.464492042e-07
5.465776741e-07
5.467458955e-07
5.46854812e-07
5.468642753e-07
5.467595495e-07
5.465770258e-07
5.46393409e-07
5.463064575e-07
5.462230593e-07
5.461466674e-07
5.460847664e-07
5.460405643e-07
5.460123465e-07
5.460002071e-07
5.459623215e-07
1.133774523e-05
1.115331096e-06
5.706403611e-07
5.493165049e-07
5.482765285e-07
5.479593792e-07
5.476687925e-07
5.473954834e-07
5.471567095e-07
5.469662653e-07
5.468290359e-07
5.467366705e-07
5.466692817e-07
5.466053955e-07
5.46536359e-07
5.46470047e-07
5.464242296e-07
5.464066059e-07
5.464739019e-07
5.465588125e-07
5.46593855e-07
5.465553308e-07
5.464571118e-07
5.463758311e-07
5.463181291e-07
5.46252568e-07
5.461897352e-07
5.461417272e-07
5.461168115e-07
5.461171906e-07
5.461325104e-07
5.461738993e-07
5.461180625e-07
1.133776954e-05
1.115788888e-06
5.709565311e-07
5.495814884e-07
5.484848508e-07
5.481087212e-07
5.478162713e-07
5.475433171e-07
5.47301338e-07
5.47102825e-07
5.469524079e-07
5.468425923e-07
5.467541912e-07
5.466655782e-07
5.465688851e-07
5.464696212e-07
5.463918265e-07
5.463471636e-07
5.463340527e-07
5.463523534e-07
5.463618035e-07
5.463584378e-07
5.463478144e-07
5.463213277e-07
5.4628432e-07
5.462459401e-07
5.462188041e-07
5.462168718e-07
5.462511796e-07
5.463222869e-07
5.464010976e-07
5.46535681e-07
5.464209172e-07
1.13378549e-05
1.117266111e-06
5.722177711e-07
5.503293508e-07
5.488794756e-07
5.483750719e-07
5.480151046e-07
5.477353955e-07
5.474844282e-07
5.472711204e-07
5.471010896e-07
5.469689116e-07
5.468566835e-07
5.467411921e-07
5.466130543e-07
5.464778285e-07
5.463638965e-07
5.462965589e-07
5.462735047e-07
5.462796985e-07
5.462958424e-07
5.463097677e-07
5.463144039e-07
5.463097655e-07
5.463005258e-07
5.462969923e-07
5.46314936e-07
5.463719814e-07
5.464841234e-07
5.466519077e-07
5.468120278e-07
5.470967477e-07
5.468476447e-07
1.133797975e-05
1.119457629e-06
5.743474767e-07
5.520297671e-07
5.500537291e-07
5.490166871e-07
5.483461644e-07
5.479555407e-07
5.476839998e-07
5.474484413e-07
5.47255025e-07
5.471040141e-07
5.469813994e-07
5.468618123e-07
5.467260514e-07
5.465658698e-07
5.464048725e-07
5.463103984e-07
5.462718848e-07
5.462720004e-07
5.46291833e-07
5.46315223e-07
5.463348588e-07
5.463506907e-07
5.463671661e-07
5.463952023e-07
5.464532748e-07
5.465646137e-07
5.467547719e-07
5.470302544e-07
5.472840464e-07
5.47802475e-07
5.473024943e-07
1.133811456e-05
1.121920308e-06
5.769903427e-07
5.544665235e-07
5.518412514e-07
5.502387451e-07
5.490258015e-07
5.482662278e-07
5.478897892e-07
5.476299299e-07
5.474305895e-07
5.473026488e-07
5.472405991e-07
5.472033897e-07
5.471281574e-07
5.469804558e-07
5.466662563e-07
5.465259832e-07
5.464138495e-07
5.463773565e-07
5.463788507e-07
5.463949444e-07
5.464169882e-07
5.464395527e-07
5.464662135e-07
5.465039207e-07
5.465686267e-07
5.466809331e-07
5.468625881e-07
5.471199344e-07
5.4736023e-07
5.478243898e-07
5.473634445e-07
1.13382366e-05
1.124459644e-06
5.797122244e-07
5.571932515e-07
5.543475262e-07
5.518617872e-07
5.500038089e-07
5.487790795e-07
5.481703464e-07
5.478176841e-07
5.476344549e-07
5.475908887e-07
5.47690957e-07
5.478566097e-07
5.479643142e-07
5.478291877e-07
5.472078681e-07
5.469375697e-07
5.467121469e-07
5.465897961e-07
5.465503725e-07
5.465347097e-07
5.465441949e-07
5.46551843e-07
5.46570548e-07
5.465965953e-07
5.466437056e-07
5.467259149e-07
5.468575142e-07
5.470425666e-07
5.472102585e-07
5.475162649e-07
5.471905782e-07
1.133832193e-05
1.127028264e-06
5.824493105e-07
5.599415239e-07
5.570578068e-07
5.542764891e-07
5.512870704e-07
5.49516924e-07
5.486830418e-07
5.481100059e-07
5.478842615e-07
5.479725686e-07
5.483238892e-07
5.488592736e-07
5.49301901e-07
5.491264388e-07
5.480359054e-07
5.475608427e-07
5.471337818e-07
5.468904851e-07
5.467796133e-07
5.467056573e-07
5.466923359e-07
5.466632992e-07
5.466633134e-07
5.466636719e-07
5.466810348e-07
5.467180055e-07
5.467819629e-07
5.468751608e-07
5.4695657e-07
5.471079883e-07
5.469152412e-07
1.133834938e-05
1.129597293e-06
5.851734076e-07
5.62685813e-07
5.597986476e-07
5.569587879e-07
5.534687928e-07
5.504732822e-07
5.494675418e-07
5.487214033e-07
5.483553629e-07
5.486152185e-07
5.495355987e-07
5.509385555e-07
5.52539757e-07
5.526734457e-07
5.497548855e-07
5.487749589e-07
5.478055877e-07
5.472850705e-07
5.470327932e-07
5.468794637e-07
5.468274814e-07
5.467581054e-07
5.467324576e-07
5.467048656e-07
5.466931395e-07
5.466897638e-07
5.466983092e-07
5.46720771e-07
5.46737864e-07
5.46788251e-07
5.466843207e-07
1.133830293e-05
1.132142845e-06
5.878611423e-07
5.65420294e-07
5.625692365e-07
5.597523436e-07
5.562370242e-07
5.520259854e-07
5.504947861e-07
5.495814228e-07
5.491081194e-07
5.493354676e-07
5.506443049e-07
5.532515837e-07
5.578200405e-07
5.529604944e-07
5.502882139e-07
5.489229775e-07
5.47938644e-07
5.474082745e-07
5.471524862e-07
5.469809229e-07
5.469314218e-07
5.468255063e-07
5.46778656e-07
5.467339062e-07
5.467068086e-07
5.46684764e-07
5.466676218e-07
5.466560415e-07
5.466428679e-07
5.466454586e-07
5.465885771e-07
1.133817472e-05
1.134656217e-06
5.905014987e-07
5.681309282e-07
5.653651159e-07
5.626590964e-07
5.592694593e-07
5.551151913e-07
5.519727178e-07
5.506527514e-07
5.498545444e-07
5.495954136e-07
5.499610354e-07
5.510195047e-07
5.526984345e-07
5.509603653e-07
5.4942574e-07
5.484844269e-07
5.477730679e-07
5.473549131e-07
5.471479363e-07
5.470069438e-07
5.469461349e-07
5.468576545e-07
5.468125406e-07
5.46778146e-07
5.467573209e-07
5.46741245e-07
5.467262055e-07
5.467110904e-07
5.46694282e-07
5.466829461e-07
5.466499388e-07
1.13379668e-05
1.137114304e-06
5.93074419e-07
5.708040411e-07
5.681749076e-07
5.656477752e-07
5.62494188e-07
5.586379488e-07
5.54331755e-07
5.522198028e-07
5.509381912e-07
5.501837512e-07
5.498816247e-07
5.49928434e-07
5.501534264e-07
5.493625156e-07
5.485259767e-07
5.47976289e-07
5.475305366e-07
5.472610917e-07
5.471208566e-07
5.470219464e-07
5.469756461e-07
5.469225838e-07
5.468965426e-07
5.468859526e-07
5.468857916e-07
5.468893926e-07
5.468918086e-07
5.468900605e-07
5.468846666e-07
5.468770128e-07
5.468565252e-07
1.133768864e-05
1.139499122e-06
5.955623049e-07
5.734100036e-07
5.709503652e-07
5.68657604e-07
5.658207536e-07
5.623697485e-07
5.582967323e-07
5.546173764e-07
5.526481135e-07
5.513490687e-07
5.504814894e-07
5.499035687e-07
5.49451177e-07
5.486567812e-07
5.480195207e-07
5.476927014e-07
5.47439363e-07
5.472808974e-07
5.471944766e-07
5.47133126e-07
5.471074377e-07
5.470866304e-07
5.47084487e-07
5.470974874e-07
5.47119265e-07
5.471438513e-07
5.471657714e-07
5.471814565e-07
5.471910364e-07
5.471930606e-07
5.4718132e-07
1.133735656e-05
1.141792478e-06
5.979425183e-07
5.759223937e-07
5.736518837e-07
5.716183685e-07
5.691270139e-07
5.661283615e-07
5.626162487e-07
5.586423201e-07
5.553129005e-07
5.533079768e-07
5.519305231e-07
5.508504656e-07
5.499841821e-07
5.491490653e-07
5.484208473e-07
5.478777193e-07
5.476151016e-07
5.475042853e-07
5.474415534e-07
5.474013777e-07
5.473871017e-07
5.473851201e-07
5.473985745e-07
5.474266166e-07
5.474624925e-07
5.475008572e-07
5.475366012e-07
5.475657686e-07
5.47586409e-07
5.476000888e-07
5.475970958e-07
1.13369889e-05
1.143970948e-06
6.001947072e-07
5.783059799e-07
5.76225633e-07
5.74455097e-07
5.72311587e-07
5.697546707e-07
5.667930162e-07
5.634682878e-07
5.598741305e-07
5.565011638e-07
5.543782818e-07
5.528286314e-07
5.51602564e-07
5.505434415e-07
5.496593931e-07
5.489574149e-07
5.484114126e-07
5.480242487e-07
5.478730548e-07
5.478287049e-07
5.478106353e-07
5.478126971e-07
5.478305188e-07
5.478624925e-07
5.479167561e-07
5.481122438e-07
5.483669505e-07
5.485885961e-07
5.487392877e-07
5.488061778e-07
5.48788764e-07
1.133660455e-05
1.146011025e-06
6.022918578e-07
5.805304531e-07
5.786342036e-07
5.771113727e-07
5.752871275e-07
5.731409297e-07
5.706754014e-07
5.679298562e-07
5.649778114e-07
5.619313931e-07
5.589462696e-07
5.562493675e-07
5.544424198e-07
5.529744641e-07
5.518257043e-07
5.508724616e-07
5.500635492e-07
5.493919069e-07
5.488953586e-07
5.485616177e-07
5.483761309e-07
5.485768014e-07
5.489465567e-07
5.493859318e-07
5.498436866e-07
5.502775132e-07
5.506399142e-07
5.509143443e-07
5.510948088e-07
5.511770824e-07
5.511527906e-07
1.133622032e-05
1.147901695e-06
6.042253483e-07
5.825763053e-07
5.808438928e-07
5.79542708e-07
5.780052298e-07
5.762083077e-07
5.741665603e-07
5.719128941e-07
5.694977434e-07
5.670081847e-07
5.64547734e-07
5.622241975e-07
5.601472066e-07
5.583731257e-07
5.569100504e-07
5.557200804e-07
5.547646921e-07
5.54000468e-07
5.534175214e-07
5.530040478e-07
5.527639275e-07
5.527049582e-07
5.527892806e-07
5.529874374e-07
5.532644952e-07
5.535697662e-07
5.53855415e-07
5.540961865e-07
5.542760826e-07
5.543954779e-07
5.544528248e-07
1.133585062e-05
1.14962094e-06
6.059764716e-07
5.844286622e-07
5.828396313e-07
5.817263985e-07
5.804285428e-07
5.789290982e-07
5.772370611e-07
5.753774855e-07
5.733994591e-07
5.713517556e-07
5.693130034e-07
5.67357726e-07
5.65550741e-07
5.639358262e-07
5.625347893e-07
5.613279559e-07
5.603054963e-07
5.594502919e-07
5.587513765e-07
5.582053215e-07
5.578127241e-07
5.575634242e-07
5.574414097e-07
5.574267191e-07
5.574953754e-07
5.576204897e-07
5.577702257e-07
5.57927329e-07
5.580792031e-07
5.582196105e-07
5.583363499e-07
1.133550654e-05
1.151161258e-06
6.07538116e-07
5.860759012e-07
5.846089093e-07
5.83655521e-07
5.825549359e-07
5.812934986e-07
5.798809126e-07
5.783380134e-07
5.766931993e-07
5.749960783e-07
5.732884356e-07
5.716250237e-07
5.700506798e-07
5.68599382e-07
5.672839887e-07
5.661177483e-07
5.65089885e-07
5.641979702e-07
5.63438789e-07
5.628161983e-07
5.623278116e-07
5.619639679e-07
5.617195978e-07
5.61579477e-07
5.615209029e-07
5.615287995e-07
5.615839257e-07
5.616773443e-07
5.617948232e-07
5.619322983e-07
5.620786728e-07
1.133519634e-05
1.152513983e-06
6.089060204e-07
5.875158438e-07
5.861492018e-07
5.853255012e-07
5.843858604e-07
5.83312668e-07
5.821176973e-07
5.808189531e-07
5.794385394e-07
5.780038499e-07
5.765545213e-07
5.751210673e-07
5.737388037e-07
5.724328855e-07
5.712221496e-07
5.701119343e-07
5.691078329e-07
5.682178998e-07
5.674364928e-07
5.66773275e-07
5.662238137e-07
5.65790684e-07
5.654646865e-07
5.652358351e-07
5.650922519e-07
5.650249811e-07
5.650182749e-07
5.650648816e-07
5.651544231e-07
5.652835142e-07
5.654401464e-07
1.133492549e-05
1.153681764e-06
6.100816496e-07
5.88748231e-07
5.874635157e-07
5.867442145e-07
5.859311921e-07
5.850081115e-07
5.839822901e-07
5.828680225e-07
5.816849745e-07
5.80454499e-07
5.791983008e-07
5.779479025e-07
5.767219547e-07
5.755412843e-07
5.7442275e-07
5.733814172e-07
5.724193714e-07
5.715434385e-07
5.707667163e-07
5.700862266e-07
5.695049279e-07
5.690278589e-07
5.686460248e-07
5.683589183e-07
5.681587068e-07
5.680363611e-07
5.679849112e-07
5.679940866e-07
5.680621453e-07
5.681825276e-07
5.683426617e-07
1.133469841e-05
1.154660907e-06
6.110775645e-07
5.897957316e-07
5.885743734e-07
5.879359597e-07
5.872208405e-07
5.864117824e-07
5.855145144e-07
5.845394839e-07
5.835037595e-07
5.824245765e-07
5.813188502e-07
5.802027728e-07
5.791017979e-07
5.780254846e-07
5.7699049e-07
5.760086545e-07
5.75093878e-07
5.742478417e-07
5.734793459e-07
5.727951566e-07
5.722029478e-07
5.716993122e-07
5.712841282e-07
5.709603051e-07
5.707201254e-07
5.705591029e-07
5.704734208e-07
5.7045777e-07
5.705079128e-07
5.706203968e-07
5.707820054e-07
1.133451395e-05
1.155607203e-06
6.122146419e-07
5.910275662e-07
5.898630986e-07
5.892850942e-07
5.886425769e-07
5.879169882e-07
5.8711414e-07
5.862426872e-07
5.853135617e-07