/*--------------------------------*- C++ -*----------------------------------*\
  =========                 |
  \\      /  F ield         | OpenFOAM: The Open Source CFD Toolbox
   \\    /   O peration     | Website:  https://openfoam.org
    \\  /    A nd           | Version:  8
     \\/     M anipulation  |
\*---------------------------------------------------------------------------*/
FoamFile
{
    version     2.0;
    format      ascii;
    class       volScalarField;
    location    "0.2";
    object      O2;
}
// * * * * * * * * * * * * * * * * * * * * * * * * * * * * * * * * * * * * * //

dimensions      [0 0 0 0 0 0 0];

internalField   nonuniform List<scalar> 
67286
(
0.2100067193
0.210006715
0.2100067125
0.2100067147
0.2100067181
0.2100067221
0.2100067266
0.2100067313
0.2100067356
0.2100067389
0.2100067405
0.21000674
0.2100067377
0.210006733
0.2100067281
0.2100067232
0.2100067188
0.2100067154
0.2100067132
0.2100067121
0.2100067121
0.210006713
0.2100067147
0.210006717
0.21000672
0.2100067233
0.210006727
0.2100067309
0.2100067207
0.2100067163
0.2100067137
0.2100067158
0.2100067189
0.2100067226
0.2100067267
0.2100067311
0.2100067353
0.210006739
0.2100067409
0.2100067414
0.2100067398
0.2100067348
0.2100067293
0.210006724
0.2100067196
0.2100067164
0.2100067144
0.2100067136
0.2100067139
0.210006715
0.210006717
0.2100067196
0.2100067228
0.2100067264
0.2100067303
0.2100067345
0.2100067389
0.2100067433
0.210006748
0.2100067526
0.2100067212
0.2100067167
0.2100067139
0.2100067157
0.2100067184
0.2100067216
0.2100067249
0.2100067282
0.2100067311
0.2100067333
0.2100067348
0.2100067342
0.210006732
0.2100067287
0.2100067251
0.2100067217
0.2100067188
0.2100067167
0.2100067155
0.2100067153
0.210006716
0.2100067175
0.2100067198
0.2100067228
0.2100067262
0.2100067301
0.2100067344
0.2100067388
0.2100067435
0.2100067483
0.2100067532
0.2100067581
0.2100067206
0.2100067161
0.2100067132
0.2100067148
0.2100067172
0.2100067199
0.2100067227
0.2100067255
0.210006728
0.2100067299
0.210006731
0.2100067308
0.2100067295
0.2100067271
0.2100067244
0.2100067215
0.2100067192
0.2100067177
0.210006717
0.2100067173
0.2100067184
0.2100067204
0.210006723
0.2100067263
0.2100067302
0.2100067345
0.2100067391
0.2100067439
0.210006749
0.2100067541
0.2100067594
0.2100067648
0.2100067703
0.2100067194
0.2100067148
0.2100067117
0.2100067131
0.2100067152
0.2100067176
0.21000672
0.2100067223
0.2100067244
0.210006726
0.2100067269
0.210006727
0.2100067262
0.2100067246
0.2100067226
0.210006721
0.2100067197
0.210006719
0.2100067189
0.2100067197
0.2100067212
0.2100067236
0.2100067266
0.2100067303
0.2100067345
0.2100067392
0.2100067442
0.2100067495
0.210006755
0.2100067607
0.2100067663
0.2100067721
0.2100067778
0.2100067174
0.2100067127
0.2100067095
0.2100067108
0.2100067127
0.2100067148
0.2100067171
0.2100067193
0.2100067212
0.2100067229
0.210006724
0.2100067245
0.2100067244
0.2100067238
0.2100067228
0.2100067219
0.2100067212
0.210006721
0.2100067214
0.2100067226
0.2100067245
0.2100067271
0.2100067304
0.2100067344
0.210006739
0.2100067441
0.2100067496
0.2100067554
0.2100067615
0.2100067676
0.2100067737
0.2100067799
0.2100067858
0.2100067148
0.2100067101
0.2100067069
0.2100067081
0.2100067099
0.210006712
0.2100067143
0.2100067165
0.2100067187
0.2100067206
0.2100067223
0.2100067234
0.2100067241
0.2100067243
0.2100067242
0.2100067239
0.2100067237
0.2100067239
0.2100067246
0.210006726
0.2100067281
0.2100067309
0.2100067344
0.2100067387
0.2100067435
0.210006749
0.2100067549
0.2100067612
0.2100067678
0.2100067745
0.2100067811
0.2100067877
0.2100067936
0.2100067118
0.2100067071
0.2100067039
0.2100067051
0.2100067071
0.2100067093
0.2100067117
0.2100067143
0.2100067169
0.2100067195
0.2100067219
0.2100067239
0.2100067255
0.2100067266
0.2100067273
0.2100067275
0.2100067275
0.2100067278
0.2100067285
0.2100067299
0.210006732
0.2100067349
0.2100067385
0.2100067429
0.2100067479
0.2100067536
0.2100067598
0.2100067665
0.2100067736
0.2100067807
0.2100067878
0.2100067948
0.2100068005
0.2100067085
0.2100067039
0.2100067007
0.2100067021
0.2100067042
0.2100067067
0.2100067096
0.2100067127
0.210006716
0.2100067195
0.2100067229
0.2100067261
0.2100067288
0.2100067308
0.2100067321
0.2100067327
0.2100067326
0.2100067328
0.2100067333
0.2100067345
0.2100067364
0.2100067391
0.2100067426
0.2100067468
0.2100067518
0.2100067575
0.2100067639
0.2100067709
0.2100067783
0.2100067859
0.2100067932
0.2100068006
0.210006806
0.210006705
0.2100067005
0.2100066974
0.2100066989
0.2100067014
0.2100067043
0.2100067077
0.2100067116
0.2100067159
0.2100067204
0.2100067251
0.2100067297
0.2100067337
0.2100067365
0.2100067388
0.2100067394
0.2100067391
0.2100067388
0.2100067387
0.2100067394
0.2100067409
0.2100067432
0.2100067463
0.2100067503
0.2100067551
0.2100067606
0.2100067669
0.2100067738
0.2100067812
0.2100067889
0.2100067964
0.210006804
0.2100068092
0.2100067016
0.210006697
0.2100066941
0.2100066958
0.2100066986
0.210006702
0.2100067061
0.2100067109
0.2100067162
0.2100067222
0.2100067285
0.2100067348
0.2100067407
0.2100067456
0.2100067477
0.2100067479
0.2100067466
0.2100067456
0.2100067445
0.2100067446
0.2100067455
0.2100067472
0.21000675
0.2100067534
0.2100067576
0.2100067626
0.2100067684
0.210006775
0.2100067821
0.2100067895
0.2100067967
0.210006804
0.2100068094
0.210006698
0.2100066936
0.2100066908
0.2100066927
0.2100066958
0.2100066997
0.2100067045
0.2100067102
0.2100067166
0.2100067239
0.2100067319
0.21000674
0.2100067476
0.2100067537
0.2100067574
0.2100067565
0.2100067544
0.2100067522
0.2100067502
0.2100067495
0.2100067496
0.2100067507
0.2100067528
0.2100067555
0.2100067591
0.2100067634
0.2100067686
0.2100067745
0.210006781
0.2100067878
0.2100067946
0.2100068014
0.210006807
0.2100066945
0.2100066901
0.2100066874
0.2100066895
0.2100066929
0.2100066972
0.2100067026
0.2100067091
0.2100067165
0.2100067251
0.2100067346
0.2100067443
0.2100067535
0.2100067608
0.2100067651
0.2100067645
0.2100067616
0.2100067584
0.2100067554
0.2100067536
0.2100067529
0.2100067533
0.2100067547
0.2100067566
0.2100067595
0.2100067631
0.2100067675
0.2100067726
0.2100067783
0.2100067844
0.2100067907
0.210006797
0.2100068028
0.210006691
0.2100066866
0.210006684
0.2100066862
0.2100066898
0.2100066943
0.2100067001
0.2100067072
0.2100067154
0.2100067249
0.2100067356
0.2100067472
0.2100067587
0.2100067687
0.2100067773
0.2100067703
0.2100067669
0.2100067619
0.2100067579
0.2100067556
0.2100067544
0.2100067543
0.2100067552
0.2100067564
0.2100067586
0.2100067615
0.2100067651
0.2100067695
0.2100067745
0.2100067799
0.2100067856
0.2100067915
0.2100067973
0.2100066874
0.2100066831
0.2100066805
0.2100066828
0.2100066863
0.210006691
0.2100066969
0.210006704
0.2100067124
0.210006722
0.2100067326
0.2100067438
0.2100067545
0.2100067633
0.2100067694
0.210006767
0.2100067643
0.2100067604
0.2100067569
0.2100067547
0.2100067536
0.2100067534
0.2100067539
0.2100067548
0.2100067565
0.2100067588
0.2100067618
0.2100067655
0.2100067698
0.2100067746
0.2100067798
0.2100067854
0.210006791
0.2100066839
0.2100066795
0.2100066769
0.2100066791
0.2100066826
0.2100066872
0.2100066929
0.2100066998
0.2100067079
0.210006717
0.2100067269
0.210006737
0.2100067467
0.2100067547
0.2100067599
0.2100067594
0.2100067577
0.2100067552
0.2100067527
0.2100067512
0.2100067505
0.2100067504
0.2100067509
0.2100067516
0.210006753
0.210006755
0.2100067576
0.2100067608
0.2100067646
0.2100067689
0.2100067737
0.2100067789
0.2100067844
0.2100066803
0.2100066759
0.2100066732
0.2100066753
0.2100066787
0.210006683
0.2100066883
0.2100066947
0.2100067022
0.2100067105
0.2100067193
0.2100067282
0.2100067366
0.2100067436
0.2100067482
0.2100067492
0.2100067487
0.2100067476
0.2100067463
0.2100067456
0.2100067454
0.2100067457
0.2100067463
0.2100067472
0.2100067485
0.2100067503
0.2100067527
0.2100067556
0.210006759
0.210006763
0.2100067674
0.2100067723
0.2100067776
0.2100066767
0.2100066723
0.2100066695
0.2100066715
0.2100066746
0.2100066786
0.2100066834
0.2100066892
0.2100066958
0.2100067031
0.2100067109
0.2100067186
0.2100067258
0.2100067318
0.210006736
0.210006738
0.2100067386
0.2100067387
0.2100067385
0.2100067386
0.2100067391
0.2100067397
0.2100067407
0.2100067418
0.2100067432
0.210006745
0.2100067473
0.2100067501
0.2100067533
0.210006757
0.2100067612
0.2100067658
0.2100067708
0.2100066732
0.2100066687
0.2100066659
0.2100066676
0.2100066705
0.210006674
0.2100066784
0.2100066835
0.2100066893
0.2100066956
0.2100067023
0.2100067089
0.2100067151
0.2100067204
0.2100067243
0.2100067269
0.2100067284
0.2100067294
0.2100067302
0.2100067311
0.2100067321
0.2100067332
0.2100067345
0.2100067359
0.2100067375
0.2100067395
0.2100067418
0.2100067445
0.2100067476
0.2100067511
0.2100067551
0.2100067595
0.2100067642
0.2100066699
0.2100066653
0.2100066623
0.2100066639
0.2100066664
0.2100066696
0.2100066735
0.2100066779
0.2100066829
0.2100066884
0.2100066941
0.2100066997
0.2100067051
0.2100067098
0.2100067137
0.2100067166
0.2100067187
0.2100067204
0.2100067219
0.2100067234
0.2100067249
0.2100067265
0.2100067281
0.2100067298
0.2100067317
0.2100067338
0.2100067361
0.2100067388
0.2100067419
0.2100067453
0.2100067491
0.2100067533
0.2100067578
0.2100066667
0.2100066621
0.210006659
0.2100066603
0.2100066626
0.2100066654
0.2100066688
0.2100066727
0.210006677
0.2100066817
0.2100066866
0.2100066915
0.2100066961
0.2100067004
0.2100067041
0.2100067071
0.2100067097
0.2100067119
0.2100067139
0.2100067159
0.2100067178
0.2100067197
0.2100067217
0.2100067237
0.2100067258
0.2100067281
0.2100067306
0.2100067334
0.2100067364
0.2100067397
0.2100067434
0.2100067474
0.2100067517
0.2100066637
0.210006659
0.2100066558
0.210006657
0.210006659
0.2100066615
0.2100066645
0.2100066679
0.2100066717
0.2100066758
0.21000668
0.2100066842
0.2100066884
0.2100066922
0.2100066958
0.2100066989
0.2100067017
0.2100067042
0.2100067066
0.2100067089
0.2100067111
0.2100067133
0.2100067156
0.2100067179
0.2100067202
0.2100067227
0.2100067253
0.2100067282
0.2100067312
0.2100067345
0.2100067381
0.2100067419
0.2100067459
0.210006661
0.2100066563
0.210006653
0.210006654
0.2100066558
0.210006658
0.2100066607
0.2100066637
0.210006667
0.2100066706
0.2100066743
0.2100066781
0.2100066818
0.2100066854
0.2100066887
0.2100066918
0.2100066948
0.2100066975
0.2100067001
0.2100067026
0.2100067051
0.2100067076
0.2100067101
0.2100067126
0.2100067151
0.2100067177
0.2100067205
0.2100067234
0.2100067265
0.2100067297
0.2100067332
0.2100067369
0.2100067407
0.2100066586
0.2100066538
0.2100066504
0.2100066513
0.2100066529
0.2100066549
0.2100066573
0.21000666
0.2100066629
0.2100066661
0.2100066695
0.2100066729
0.2100066763
0.2100066796
0.2100066829
0.210006686
0.2100066889
0.2100066918
0.2100066945
0.2100066973
0.2100066999
0.2100067026
0.2100067052
0.2100067079
0.2100067106
0.2100067133
0.2100067162
0.2100067192
0.2100067223
0.2100067255
0.2100067289
0.2100067324
0.2100067361
0.2100066564
0.2100066517
0.2100066482
0.210006649
0.2100066504
0.2100066523
0.2100066544
0.2100066568
0.2100066595
0.2100066624
0.2100066654
0.2100066686
0.2100066718
0.2100066749
0.210006678
0.2100066811
0.2100066841
0.210006687
0.2100066899
0.2100066927
0.2100066955
0.2100066983
0.2100067011
0.2100067039
0.2100067067
0.2100067095
0.2100067125
0.2100067155
0.2100067186
0.2100067218
0.2100067251
0.2100067285
0.210006732
0.2100066547
0.2100066498
0.2100066463
0.210006647
0.2100066484
0.21000665
0.210006652
0.2100066543
0.2100066567
0.2100066594
0.2100066622
0.2100066651
0.2100066681
0.2100066712
0.2100066742
0.2100066772
0.2100066802
0.2100066832
0.2100066861
0.210006689
0.2100066919
0.2100066948
0.2100066976
0.2100067005
0.2100067034
0.2100067064
0.2100067093
0.2100067124
0.2100067155
0.2100067187
0.2100067219
0.2100067253
0.2100067286
0.2100066532
0.2100066484
0.2100066448
0.2100066455
0.2100066467
0.2100066483
0.2100066501
0.2100066522
0.2100066545
0.210006657
0.2100066597
0.2100066625
0.2100066654
0.2100066683
0.2100066712
0.2100066742
0.2100066772
0.2100066802
0.2100066831
0.2100066861
0.210006689
0.210006692
0.2100066949
0.2100066979
0.2100067008
0.2100067038
0.2100067068
0.2100067099
0.210006713
0.2100067162
0.2100067194
0.2100067226
0.2100067259
0.2100066521
0.2100066473
0.2100066439
0.2100066445
0.2100066457
0.2100066472
0.2100066489
0.2100066509
0.2100066531
0.2100066555
0.2100066581
0.2100066608
0.2100066635
0.2100066664
0.2100066693
0.2100066723
0.2100066752
0.2100066782
0.2100066812
0.2100066842
0.2100066871
0.2100066901
0.2100066931
0.2100066961
0.2100066991
0.2100067022
0.2100067052
0.2100067083
0.2100067114
0.2100067145
0.2100067177
0.2100067209
0.2100067241
0.2100066515
0.2100066478
0.2100066466
0.2100066473
0.2100066485
0.21000665
0.2100066517
0.2100066536
0.2100066557
0.210006658
0.2100066605
0.2100066632
0.2100066659
0.2100066687
0.2100066716
0.2100066745
0.2100066774
0.2100066804
0.2100066834
0.2100066864
0.2100066894
0.2100066924
0.2100066955
0.2100066985
0.2100067015
0.2100067046
0.2100067076
0.2100067107
0.2100067138
0.2100067169
0.2100067201
0.2100067232
0.2100067264
0.2100066513
0.2100066513
0.2100066519
0.2100066528
0.2100066539
0.2100066553
0.210006657
0.2100066589
0.210006661
0.2100066633
0.2100066657
0.2100066683
0.210006671
0.2100066738
0.2100066767
0.2100066796
0.2100066825
0.2100066855
0.2100066885
0.2100066915
0.2100066945
0.2100066976
0.2100067006
0.2100067036
0.2100067067
0.2100067097
0.2100067128
0.2100067159
0.210006719
0.2100067221
0.2100067252
0.2100067284
0.2100067314
0.210006272
0.2100062706
0.2100062646
0.2100062655
0.210006269
0.2100062734
0.2100062782
0.2100062832
0.2100062877
0.2100062913
0.2100062934
0.2100062925
0.2100062896
0.2100062829
0.2100062775
0.2100062721
0.2100062676
0.2100062641
0.2100062618
0.2100062608
0.2100062608
0.2100062617
0.2100062635
0.2100062659
0.2100062689
0.2100062723
0.210006276
0.2100062796
0.2100062734
0.2100062721
0.2100062661
0.2100062668
0.21000627
0.2100062742
0.2100062789
0.2100062841
0.2100062892
0.210006294
0.2100062972
0.2100062978
0.2100062959
0.2100062887
0.2100062821
0.2100062752
0.2100062696
0.2100062657
0.2100062633
0.2100062624
0.2100062627
0.2100062639
0.210006266
0.2100062687
0.2100062719
0.2100062755
0.2100062794
0.2100062835
0.2100062877
0.2100062921
0.2100062967
0.2100063011
0.2100062739
0.2100062725
0.2100062663
0.2100062667
0.2100062694
0.2100062727
0.2100062762
0.2100062797
0.2100062832
0.2100062857
0.210006287
0.2100062863
0.210006284
0.2100062795
0.2100062744
0.2100062705
0.2100062675
0.2100062653
0.2100062641
0.210006264
0.2100062647
0.2100062664
0.2100062688
0.2100062718
0.2100062753
0.2100062793
0.2100062835
0.210006288
0.2100062926
0.2100062973
0.2100063021
0.2100063068
0.2100062734
0.210006272
0.2100062656
0.2100062658
0.2100062682
0.210006271
0.210006274
0.210006277
0.2100062796
0.2100062816
0.2100062826
0.2100062823
0.2100062808
0.2100062776
0.2100062744
0.210006271
0.2100062682
0.2100062664
0.2100062657
0.210006266
0.2100062672
0.2100062692
0.210006272
0.2100062754
0.2100062793
0.2100062837
0.2100062883
0.2100062932
0.2100062982
0.2100063034
0.2100063085
0.2100063139
0.2100063188
0.2100062721
0.2100062705
0.210006264
0.2100062639
0.210006266
0.2100062684
0.2100062708
0.2100062732
0.2100062752
0.2100062767
0.2100062774
0.2100062772
0.2100062761
0.2100062741
0.2100062716
0.2100062697
0.2100062682
0.2100062675
0.2100062675
0.2100062683
0.21000627
0.2100062724
0.2100062756
0.2100062794
0.2100062837
0.2100062885
0.2100062937
0.2100062991
0.2100063046
0.2100063103
0.2100063159
0.2100063217
0.2100063269
0.21000627
0.2100062684
0.2100062617
0.2100062614
0.2100062632
0.2100062654
0.2100062676
0.2100062697
0.2100062715
0.210006273
0.2100062739
0.2100062742
0.2100062738
0.2100062729
0.2100062717
0.2100062705
0.2100062697
0.2100062695
0.21000627
0.2100062712
0.2100062732
0.210006276
0.2100062795
0.2100062836
0.2100062884
0.2100062937
0.2100062993
0.2100063053
0.2100063115
0.2100063177
0.2100063238
0.2100063302
0.2100063353
0.2100062673
0.2100062657
0.2100062589
0.2100062585
0.2100062602
0.2100062623
0.2100062644
0.2100062666
0.2100062686
0.2100062704
0.2100062718
0.2100062728
0.2100062733
0.2100062733
0.2100062729
0.2100062725
0.2100062722
0.2100062724
0.2100062732
0.2100062746
0.2100062769
0.2100062799
0.2100062836
0.210006288
0.2100062931
0.2100062988
0.2100063049
0.2100063115
0.2100063183
0.2100063253
0.2100063319
0.210006339
0.2100063437
0.2100062643
0.2100062626
0.2100062558
0.2100062554
0.2100062571
0.2100062593
0.2100062616
0.2100062641
0.2100062666
0.210006269
0.2100062713
0.2100062732
0.2100062747
0.2100062757
0.2100062761
0.2100062762
0.2100062761
0.2100062764
0.2100062771
0.2100062787
0.2100062809
0.210006284
0.2100062878
0.2100062924
0.2100062976
0.2100063036
0.2100063101
0.2100063172
0.2100063247
0.2100063323
0.2100063394
0.2100063474
0.2100063514
0.210006261
0.2100062593
0.2100062526
0.2100062523
0.2100062541
0.2100062565
0.2100062593
0.2100062623
0.2100062656
0.2100062689
0.2100062723
0.2100062755
0.2100062783
0.2100062803
0.2100062815
0.2100062818
0.2100062815
0.2100062816
0.210006282
0.2100062833
0.2100062854
0.2100062883
0.210006292
0.2100062964
0.2100063017
0.2100063077
0.2100063145
0.210006322
0.21000633
0.2100063383
0.2100063458
0.2100063548
0.2100063577
0.2100062577
0.210006256
0.2100062494
0.2100062492
0.2100062513
0.2100062541
0.2100062574
0.2100062612
0.2100062654
0.21000627
0.2100062748
0.2100062796
0.2100062838
0.2100062873
0.2100062893
0.2100062893
0.2100062885
0.210006288
0.2100062877
0.2100062885
0.2100062901
0.2100062926
0.210006296
0.2100063001
0.2100063051
0.2100063109
0.2100063176
0.2100063251
0.2100063332
0.2100063418
0.2100063496
0.2100063592
0.2100063614
0.2100062543
0.2100062527
0.2100062462
0.2100062462
0.2100062486
0.2100062518
0.2100062558
0.2100062605
0.2100062659
0.2100062721
0.2100062788
0.2100062857
0.2100062923
0.2100062974
0.2100063002
0.2100062993
0.2100062973
0.2100062958
0.2100062941
0.2100062942
0.2100062951
0.2100062969
0.2100062998
0.2100063033
0.2100063077
0.210006313
0.2100063192
0.2100063262
0.2100063339
0.210006342
0.2100063496
0.2100063584
0.2100063613
0.2100062509
0.2100062494
0.210006243
0.2100062432
0.2100062459
0.2100062496
0.2100062542
0.2100062599
0.2100062666
0.2100062744
0.2100062831
0.2100062924
0.2100063015
0.2100063089
0.2100063151
0.21000631
0.2100063069
0.2100063034
0.2100063006
0.2100062996
0.2100062997
0.2100063009
0.2100063031
0.2100063057
0.2100063094
0.2100063138
0.2100063192
0.2100063254
0.2100063323
0.2100063396
0.2100063466
0.2100063544
0.2100063583
0.2100062476
0.2100062461
0.2100062398
0.2100062402
0.2100062432
0.2100062473
0.2100062525
0.210006259
0.2100062669
0.2100062761
0.2100062865
0.2100062974
0.2100063076
0.2100063159
0.2100063207
0.2100063193
0.2100063153
0.210006311
0.2100063067
0.2100063046
0.2100063037
0.210006304
0.2100063054
0.2100063071
0.21000631
0.2100063134
0.2100063179
0.2100063232
0.2100063291
0.2100063355
0.2100063419
0.2100063487
0.2100063534
0.2100062442
0.2100062427
0.2100062365
0.2100062371
0.2100062403
0.2100062447
0.2100062503
0.2100062574
0.2100062661
0.2100062767
0.2100062894
0.2100063042
0.2100063201
0.2100063337
0.210006355
0.2100063293
0.2100063272
0.2100063166
0.2100063105
0.2100063073
0.2100063059
0.2100063057
0.2100063065
0.2100063073
0.2100063094
0.2100063119
0.2100063155
0.2100063198
0.2100063248
0.2100063304
0.2100063361
0.2100063423
0.2100063473
0.2100062408
0.2100062394
0.2100062332
0.2100062338
0.2100062371
0.2100062416
0.2100062473
0.2100062545
0.2100062632
0.2100062736
0.2100062857
0.2100062987
0.2100063116
0.2100063222
0.2100063325
0.2100063238
0.2100063209
0.2100063142
0.2100063095
0.2100063067
0.2100063054
0.2100063051
0.2100063055
0.2100063058
0.2100063073
0.2100063092
0.210006312
0.2100063156
0.2100063198
0.2100063246
0.2100063298
0.2100063354
0.2100063406
0.2100062375
0.210006236
0.2100062298
0.2100062304
0.2100062336
0.210006238
0.2100062436
0.2100062504
0.2100062586
0.2100062683
0.2100062791
0.2100062907
0.2100063021
0.2100063117
0.2100063196
0.2100063146
0.2100063124
0.2100063082
0.2100063048
0.2100063029
0.2100063021
0.210006302
0.2100063023
0.2100063026
0.2100063038
0.2100063052
0.2100063076
0.2100063106
0.2100063143
0.2100063186
0.2100063233
0.2100063285
0.2100063336
0.2100062341
0.2100062326
0.2100062263
0.2100062268
0.2100062299
0.210006234
0.2100062392
0.2100062455
0.2100062529
0.2100062615
0.2100062709
0.2100062807
0.2100062902
0.2100062982
0.2100063039
0.2100063027
0.2100063017
0.2100062996
0.2100062978
0.2100062969
0.2100062967
0.2100062969
0.2100062974
0.2100062979
0.210006299
0.2100063005
0.2100063026
0.2100063053
0.2100063086
0.2100063125
0.2100063168
0.2100063217
0.2100063266
0.2100062307
0.2100062292
0.2100062229
0.2100062232
0.210006226
0.2100062298
0.2100062345
0.2100062401
0.2100062467
0.210006254
0.210006262
0.2100062701
0.2100062779
0.2100062845
0.210006289
0.2100062901
0.2100062903
0.2100062898
0.2100062894
0.2100062894
0.2100062899
0.2100062905
0.2100062914
0.2100062922
0.2100062935
0.210006295
0.2100062971
0.2100062997
0.2100063028
0.2100063064
0.2100063105
0.2100063151
0.2100063198
0.2100062275
0.2100062259
0.2100062194
0.2100062195
0.2100062221
0.2100062255
0.2100062297
0.2100062347
0.2100062403
0.2100062466
0.2100062532
0.2100062599
0.2100062663
0.2100062718
0.2100062758
0.210006278
0.2100062792
0.21000628
0.2100062806
0.2100062814
0.2100062825
0.2100062836
0.2100062848
0.2100062861
0.2100062876
0.2100062893
0.2100062915
0.210006294
0.2100062971
0.2100063005
0.2100063044
0.2100063087
0.2100063132
0.2100062243
0.2100062227
0.2100062161
0.210006216
0.2100062183
0.2100062213
0.210006225
0.2100062293
0.2100062342
0.2100062395
0.2100062451
0.2100062507
0.210006256
0.2100062607
0.2100062645
0.2100062671
0.2100062691
0.2100062707
0.2100062721
0.2100062735
0.210006275
0.2100062766
0.2100062782
0.2100062798
0.2100062816
0.2100062836
0.2100062859
0.2100062885
0.2100062915
0.2100062949
0.2100062986
0.2100063027
0.210006307
0.2100062213
0.2100062196
0.2100062129
0.2100062126
0.2100062147
0.2100062174
0.2100062206
0.2100062244
0.2100062285
0.2100062331
0.2100062378
0.2100062426
0.2100062471
0.2100062513
0.2100062548
0.2100062577
0.2100062601
0.2100062622
0.2100062642
0.2100062661
0.210006268
0.2100062699
0.2100062719
0.2100062738
0.2100062759
0.2100062781
0.2100062805
0.2100062833
0.2100062863
0.2100062895
0.2100062932
0.2100062971
0.2100063012
0.2100062185
0.2100062168
0.2100062099
0.2100062095
0.2100062113
0.2100062137
0.2100062165
0.2100062198
0.2100062234
0.2100062273
0.2100062314
0.2100062355
0.2100062395
0.2100062433
0.2100062467
0.2100062497
0.2100062523
0.2100062548
0.2100062571
0.2100062594
0.2100062616
0.2100062638
0.210006266
0.2100062683
0.2100062706
0.210006273
0.2100062756
0.2100062784
0.2100062814
0.2100062846
0.2100062882
0.210006292
0.2100062958
0.2100062159
0.2100062141
0.2100062072
0.2100062066
0.2100062082
0.2100062104
0.2100062129
0.2100062158
0.210006219
0.2100062224
0.210006226
0.2100062296
0.2100062332
0.2100062367
0.2100062399
0.2100062429
0.2100062457
0.2100062484
0.2100062509
0.2100062534
0.2100062559
0.2100062583
0.2100062608
0.2100062632
0.2100062657
0.2100062683
0.210006271
0.2100062739
0.210006277
0.2100062802
0.2100062836
0.2100062873
0.2100062909
0.2100062136
0.2100062118
0.2100062048
0.2100062041
0.2100062055
0.2100062074
0.2100062097
0.2100062123
0.2100062151
0.2100062182
0.2100062214
0.2100062247
0.210006228
0.2100062312
0.2100062343
0.2100062373
0.2100062402
0.210006243
0.2100062457
0.2100062483
0.210006251
0.2100062536
0.2100062562
0.2100062588
0.2100062615
0.2100062642
0.210006267
0.2100062699
0.210006273
0.2100062762
0.2100062796
0.2100062831
0.2100062866
0.2100062116
0.2100062098
0.2100062027
0.2100062019
0.2100062032
0.2100062049
0.210006207
0.2100062093
0.2100062119
0.2100062147
0.2100062176
0.2100062206
0.2100062237
0.2100062267
0.2100062298
0.2100062327
0.2100062356
0.2100062385
0.2100062413
0.210006244
0.2100062468
0.2100062495
0.2100062523
0.210006255
0.2100062578
0.2100062606
0.2100062635
0.2100062665
0.2100062696
0.2100062728
0.2100062761
0.2100062795
0.2100062828
0.21000621
0.2100062081
0.2100062009
0.2100062001
0.2100062012
0.2100062028
0.2100062047
0.2100062069
0.2100062093
0.2100062118
0.2100062145
0.2100062174
0.2100062203
0.2100062232
0.2100062261
0.210006229
0.210006232
0.2100062348
0.2100062377
0.2100062405
0.2100062434
0.2100062462
0.210006249
0.2100062519
0.2100062548
0.2100062577
0.2100062606
0.2100062636
0.2100062667
0.2100062699
0.2100062731
0.2100062764
0.2100062796
0.2100062086
0.2100062067
0.2100061996
0.2100061987
0.2100061997
0.2100062013
0.210006203
0.210006205
0.2100062073
0.2100062097
0.2100062123
0.2100062149
0.2100062177
0.2100062206
0.2100062234
0.2100062263
0.2100062292
0.2100062321
0.210006235
0.2100062379
0.2100062408
0.2100062437
0.2100062466
0.2100062495
0.2100062524
0.2100062554
0.2100062584
0.2100062614
0.2100062645
0.2100062676
0.2100062708
0.2100062741
0.2100062771
0.2100062076
0.2100062057
0.2100061994
0.2100061989
0.2100062
0.2100062014
0.2100062031
0.210006205
0.2100062072
0.2100062095
0.2100062119
0.2100062145
0.2100062172
0.21000622
0.2100062228
0.2100062257
0.2100062285
0.2100062315
0.2100062344
0.2100062373
0.2100062402
0.2100062432
0.2100062461
0.2100062491
0.210006252
0.210006255
0.210006258
0.2100062611
0.2100062641
0.2100062673
0.2100062704
0.2100062736
0.2100062766
0.2100062069
0.2100062059
0.2100062052
0.2100062059
0.2100062071
0.2100062084
0.2100062101
0.2100062119
0.210006214
0.2100062162
0.2100062186
0.2100062212
0.2100062238
0.2100062265
0.2100062293
0.2100062322
0.210006235
0.210006238
0.2100062409
0.2100062438
0.2100062468
0.2100062497
0.2100062527
0.2100062557
0.2100062587
0.2100062617
0.2100062647
0.2100062678
0.2100062708
0.2100062739
0.2100062771
0.2100062802
0.2100062832
0.2100062066
0.2100062069
0.2100062074
0.2100062083
0.2100062094
0.2100062107
0.2100062124
0.2100062142
0.2100062162
0.2100062184
0.2100062208
0.2100062233
0.2100062259
0.2100062286
0.2100062314
0.2100062342
0.2100062371
0.21000624
0.2100062429
0.2100062459
0.2100062488
0.2100062518
0.2100062548
0.2100062578
0.2100062608
0.2100062638
0.2100062668
0.2100062699
0.210006273
0.210006276
0.2100062791
0.2100062823
0.2100062854
0.2100060011
0.2100060018
0.2100059985
0.2100059999
0.2100060037
0.2100060084
0.2100060135
0.2100060186
0.2100060235
0.2100060282
0.2100060326
0.2100060308
0.2100060267
0.2100060144
0.210006008
0.2100060015
0.2100059967
0.2100059936
0.2100059917
0.2100059907
0.2100059909
0.2100059921
0.210005994
0.2100059965
0.2100059996
0.210006003
0.2100060067
0.2100060105
0.2100060141
0.2100060027
0.2100060035
0.2100060002
0.2100060015
0.2100060053
0.2100060103
0.2100060163
0.2100060231
0.2100060307
0.2100060379
0.2100060426
0.2100060438
0.2100060421
0.2100060299
0.2100060196
0.2100060099
0.2100060021
0.2100059968
0.2100059938
0.2100059926
0.2100059929
0.2100059943
0.2100059965
0.2100059993
0.2100060026
0.2100060063
0.2100060102
0.2100060143
0.2100060184
0.2100060226
0.2100060269
0.2100060309
0.2100060034
0.2100060041
0.2100060005
0.2100060012
0.2100060041
0.2100060075
0.2100060112
0.2100060153
0.210006019
0.2100060219
0.2100060232
0.210006022
0.210006019
0.2100060117
0.2100060056
0.2100059998
0.2100059966
0.2100059947
0.2100059938
0.2100059938
0.2100059948
0.2100059967
0.2100059993
0.2100060025
0.2100060062
0.2100060102
0.2100060145
0.2100060189
0.2100060234
0.210006028
0.2100060325
0.2100060368
0.2100060031
0.2100060037
0.210006
0.2100060006
0.2100060032
0.2100060064
0.2100060096
0.2100060127
0.2100060153
0.2100060174
0.2100060183
0.2100060176
0.2100060154
0.2100060105
0.2100060062
0.2100060026
0.2100059988
0.2100059965
0.2100059955
0.2100059959
0.2100059973
0.2100059995
0.2100060026
0.2100060062
0.2100060103
0.2100060148
0.2100060196
0.2100060244
0.2100060294
0.2100060344
0.2100060393
0.2100060445
0.2100060486
0.2100060016
0.2100060021
0.2100059981
0.2100059984
0.2100060005
0.2100060029
0.2100060053
0.2100060074
0.2100060092
0.2100060104
0.2100060107
0.2100060099
0.2100060081
0.2100060049
0.2100060019
0.2100059993
0.2100059978
0.210005997
0.2100059971
0.2100059981
0.2100060001
0.2100060028
0.2100060063
0.2100060104
0.210006015
0.2100060199
0.2100060252
0.2100060307
0.2100060363
0.2100060419
0.2100060473
0.2100060532
0.2100060571
0.2100059993
0.2100059997
0.2100059956
0.2100059955
0.2100059973
0.2100059994
0.2100060014
0.2100060032
0.2100060047
0.2100060057
0.2100060061
0.2100060059
0.210006005
0.2100060034
0.2100060018
0.2100060003
0.2100059993
0.210005999
0.2100059996
0.210006001
0.2100060033
0.2100060064
0.2100060103
0.2100060148
0.2100060199
0.2100060254
0.2100060313
0.2100060375
0.2100060439
0.2100060503
0.2100060561
0.2100060633
0.2100060662
0.2100059963
0.2100059967
0.2100059924
0.2100059922
0.2100059938
0.2100059958
0.2100059977
0.2100059995
0.2100060011
0.2100060024
0.2100060033
0.2100060038
0.2100060039
0.2100060034
0.2100060027
0.2100060021
0.2100060016
0.2100060019
0.2100060027
0.2100060045
0.210006007
0.2100060104
0.2100060144
0.2100060193
0.2100060248
0.2100060309
0.2100060375
0.2100060445
0.2100060518
0.2100060593
0.2100060656
0.2100060746
0.2100060759
0.210005993
0.2100059933
0.210005989
0.2100059887
0.2100059903
0.2100059923
0.2100059944
0.2100059965
0.2100059986
0.2100060006
0.2100060024
0.210006004
0.2100060052
0.2100060059
0.210006006
0.2100060058
0.2100060054
0.2100060058
0.2100060064
0.2100060086
0.2100060111
0.2100060146
0.2100060188
0.2100060239
0.2100060296
0.2100060361
0.2100060432
0.210006051
0.2100060592
0.210006068
0.2100060746
0.2100060859
0.2100060849
0.2100059894
0.2100059897
0.2100059854
0.2100059852
0.2100059869
0.2100059891
0.2100059916
0.2100059944
0.2100059973
0.2100060004
0.2100060036
0.2100060066
0.2100060093
0.2100060113
0.2100060122
0.210006012
0.2100060112
0.2100060114
0.2100060116
0.2100060133
0.2100060158
0.2100060191
0.2100060232
0.2100060281
0.2100060339
0.2100060406
0.2100060482
0.2100060566
0.2100060658
0.2100060761
0.2100060829
0.2100060973
0.210006093
0.2100059858
0.2100059861
0.2100059818
0.2100059818
0.2100059837
0.2100059864
0.2100059895
0.2100059931
0.2100059971
0.2100060017
0.2100060065
0.2100060114
0.2100060161
0.2100060198
0.2100060217
0.2100060204