/*--------------------------------*- C++ -*----------------------------------*\
  =========                 |
  \\      /  F ield         | OpenFOAM: The Open Source CFD Toolbox
   \\    /   O peration     | Website:  https://openfoam.org
    \\  /    A nd           | Version:  8
     \\/     M anipulation  |
\*---------------------------------------------------------------------------*/
FoamFile
{
    version     2.0;
    format      ascii;
    class       volScalarField;
    location    "0.2";
    object      p;
}
// * * * * * * * * * * * * * * * * * * * * * * * * * * * * * * * * * * * * * //

dimensions      [1 -1 -2 0 0 0 0];

internalField   nonuniform List<scalar> 
67286
(
100003.6913
100003.6919
100003.6931
100003.6948
100003.6971
100003.6998
100003.7028
100003.706
100003.7089
100003.7112
100003.7124
100003.7122
100003.7107
100003.7076
100003.7044
100003.7011
100003.6981
100003.6958
100003.6942
100003.6934
100003.6934
100003.6939
100003.695
100003.6965
100003.6984
100003.7006
100003.7029
100003.7055
100003.6922
100003.6928
100003.6939
100003.6955
100003.6976
100003.7001
100003.7029
100003.7059
100003.7088
100003.7113
100003.7127
100003.713
100003.7122
100003.7088
100003.7051
100003.7015
100003.6985
100003.6963
100003.6949
100003.6944
100003.6945
100003.6952
100003.6965
100003.6982
100003.7002
100003.7026
100003.7051
100003.7077
100003.7105
100003.7134
100003.7163
100003.7193
100003.6925
100003.693
100003.694
100003.6955
100003.6973
100003.6994
100003.7016
100003.7038
100003.7058
100003.7073
100003.7084
100003.7082
100003.7067
100003.7044
100003.7021
100003.6998
100003.6978
100003.6963
100003.6955
100003.6953
100003.6958
100003.6968
100003.6982
100003.7002
100003.7024
100003.7049
100003.7077
100003.7106
100003.7135
100003.7166
100003.7197
100003.7229
100003.6921
100003.6926
100003.6935
100003.6948
100003.6964
100003.6982
100003.7001
100003.702
100003.7036
100003.7049
100003.7057
100003.7056
100003.7048
100003.7032
100003.7014
100003.6994
100003.6979
100003.6968
100003.6964
100003.6965
100003.6973
100003.6985
100003.7003
100003.7024
100003.7049
100003.7077
100003.7107
100003.7138
100003.7171
100003.7204
100003.7238
100003.7272
100003.7306
100003.6912
100003.6916
100003.6924
100003.6936
100003.695
100003.6965
100003.6981
100003.6997
100003.7011
100003.7022
100003.7028
100003.7029
100003.7023
100003.7013
100003.7
100003.6989
100003.698
100003.6975
100003.6975
100003.698
100003.699
100003.7005
100003.7025
100003.7049
100003.7077
100003.7107
100003.714
100003.7175
100003.7211
100003.7247
100003.7283
100003.7319
100003.7356
100003.6898
100003.6901
100003.6909
100003.6919
100003.6932
100003.6946
100003.6961
100003.6975
100003.6988
100003.6999
100003.7007
100003.701
100003.701
100003.7006
100003.6999
100003.6993
100003.6988
100003.6987
100003.699
100003.6998
100003.701
100003.7028
100003.705
100003.7076
100003.7106
100003.7139
100003.7175
100003.7213
100003.7252
100003.7292
100003.7331
100003.737
100003.7407
100003.688
100003.6883
100003.689
100003.69
100003.6912
100003.6926
100003.694
100003.6955
100003.697
100003.6983
100003.6993
100003.7001
100003.7006
100003.7008
100003.7007
100003.7005
100003.7004
100003.7005
100003.701
100003.7019
100003.7033
100003.7052
100003.7075
100003.7103
100003.7135
100003.7171
100003.7209
100003.7251
100003.7293
100003.7336
100003.7378
100003.742
100003.7457
100003.6859
100003.6862
100003.6869
100003.6879
100003.6891
100003.6906
100003.6922
100003.6939
100003.6956
100003.6973
100003.6989
100003.7003
100003.7014
100003.7022
100003.7027
100003.7028
100003.7029
100003.7031
100003.7036
100003.7045
100003.7059
100003.7078
100003.7102
100003.713
100003.7163
100003.72
100003.7241
100003.7285
100003.733
100003.7376
100003.7421
100003.7466
100003.7501
100003.6837
100003.684
100003.6847
100003.6858
100003.6871
100003.6887
100003.6906
100003.6927
100003.6949
100003.6972
100003.6995
100003.7017
100003.7036
100003.705
100003.7059
100003.7063
100003.7063
100003.7064
100003.7067
100003.7075
100003.7087
100003.7105
100003.7128
100003.7156
100003.7188
100003.7225
100003.7267
100003.7312
100003.736
100003.7409
100003.7455
100003.7502
100003.7535
100003.6813
100003.6817
100003.6825
100003.6836
100003.6851
100003.687
100003.6892
100003.6918
100003.6946
100003.6977
100003.7009
100003.704
100003.7068
100003.7091
100003.7104
100003.7108
100003.7106
100003.7104
100003.7103
100003.7108
100003.7117
100003.7132
100003.7152
100003.7178
100003.7209
100003.7244
100003.7285
100003.7329
100003.7377
100003.7426
100003.7474
100003.7522
100003.7553
100003.679
100003.6794
100003.6803
100003.6815
100003.6833
100003.6854
100003.6881
100003.6912
100003.6947
100003.6987
100003.703
100003.7073
100003.7113
100003.7145
100003.7163
100003.7165
100003.7157
100003.715
100003.7142
100003.7142
100003.7147
100003.7159
100003.7176
100003.7197
100003.7224
100003.7256
100003.7293
100003.7335
100003.738
100003.7427
100003.7473
100003.7518
100003.755
100003.6767
100003.6771
100003.678
100003.6795
100003.6814
100003.6838
100003.6869
100003.6906
100003.6949
100003.6998
100003.7052
100003.7108
100003.716
100003.7203
100003.7229
100003.7224
100003.7209
100003.7194
100003.718
100003.7174
100003.7175
100003.7181
100003.7194
100003.7211
100003.7233
100003.726
100003.7292
100003.7329
100003.737
100003.7412
100003.7455
100003.7496
100003.753
100003.6743
100003.6748
100003.6758
100003.6773
100003.6794
100003.6822
100003.6856
100003.6898
100003.6948
100003.7006
100003.707
100003.7136
100003.72
100003.7251
100003.7281
100003.7279
100003.7258
100003.7236
100003.7214
100003.7202
100003.7196
100003.7198
100003.7205
100003.7217
100003.7234
100003.7255
100003.7282
100003.7314
100003.7349
100003.7387
100003.7425
100003.7463
100003.7497
100003.672
100003.6725
100003.6736
100003.6752
100003.6774
100003.6803
100003.684
100003.6885
100003.6939
100003.7003
100003.7076
100003.7155
100003.7235
100003.7304
100003.7364
100003.7317
100003.7293
100003.7258
100003.723
100003.7214
100003.7205
100003.7203
100003.7207
100003.7214
100003.7226
100003.7243
100003.7264
100003.729
100003.732
100003.7353
100003.7387
100003.7423
100003.7457
100003.6697
100003.6702
100003.6712
100003.6729
100003.6752
100003.6781
100003.6819
100003.6864
100003.6919
100003.6983
100003.7055
100003.7131
100003.7204
100003.7266
100003.7308
100003.7292
100003.7273
100003.7246
100003.7221
100003.7206
100003.7198
100003.7195
100003.7197
100003.7201
100003.721
100003.7222
100003.7239
100003.7261
100003.7286
100003.7315
100003.7346
100003.7378
100003.7411
100003.6673
100003.6678
100003.6689
100003.6705
100003.6727
100003.6756
100003.6793
100003.6837
100003.6889
100003.6949
100003.7016
100003.7085
100003.715
100003.7205
100003.7241
100003.7238
100003.7226
100003.7209
100003.7191
100003.718
100003.7174
100003.7173
100003.7174
100003.7177
100003.7184
100003.7194
100003.7209
100003.7227
100003.7249
100003.7274
100003.7302
100003.7332
100003.7364
100003.665
100003.6655
100003.6665
100003.668
100003.6702
100003.6729
100003.6763
100003.6804
100003.6852
100003.6906
100003.6964
100003.7024
100003.7081
100003.7128
100003.716
100003.7166
100003.7163
100003.7155
100003.7146
100003.714
100003.7138
100003.7138
100003.7141
100003.7145
100003.7152
100003.7161
100003.7174
100003.719
100003.7209
100003.7232
100003.7258
100003.7286
100003.7317
100003.6627
100003.6631
100003.6641
100003.6655
100003.6675
100003.67
100003.6731
100003.6768
100003.681
100003.6857
100003.6908
100003.6959
100003.7007
100003.7048
100003.7076
100003.7089
100003.7093
100003.7093
100003.7091
100003.7091
100003.7093
100003.7096
100003.7101
100003.7106
100003.7114
100003.7123
100003.7136
100003.7151
100003.7169
100003.719
100003.7214
100003.7241
100003.727
100003.6604
100003.6608
100003.6617
100003.663
100003.6648
100003.6671
100003.6699
100003.6731
100003.6768
100003.6809
100003.6851
100003.6895
100003.6935
100003.697
100003.6996
100003.7013
100003.7023
100003.7029
100003.7033
100003.7038
100003.7044
100003.705
100003.7057
100003.7065
100003.7074
100003.7084
100003.7097
100003.7112
100003.7129
100003.715
100003.7172
100003.7198
100003.7225
100003.6582
100003.6586
100003.6594
100003.6606
100003.6622
100003.6642
100003.6667
100003.6695
100003.6727
100003.6762
100003.6798
100003.6835
100003.6869
100003.6899
100003.6924
100003.6943
100003.6956
100003.6967
100003.6976
100003.6985
100003.6994
100003.7003
100003.7013
100003.7022
100003.7033
100003.7045
100003.7058
100003.7074
100003.7091
100003.7111
100003.7133
100003.7157
100003.7183
100003.6562
100003.6565
100003.6572
100003.6583
100003.6597
100003.6615
100003.6637
100003.6661
100003.6689
100003.6719
100003.675
100003.6781
100003.6811
100003.6838
100003.6861
100003.6881
100003.6897
100003.6911
100003.6923
100003.6935
100003.6947
100003.6958
100003.697
100003.6981
100003.6994
100003.7007
100003.7021
100003.7037
100003.7055
100003.7074
100003.7096
100003.7119
100003.7144
100003.6542
100003.6546
100003.6552
100003.6562
100003.6574
100003.659
100003.6609
100003.663
100003.6654
100003.668
100003.6707
100003.6734
100003.676
100003.6785
100003.6807
100003.6827
100003.6844
100003.686
100003.6875
100003.6889
100003.6903
100003.6916
100003.693
100003.6943
100003.6957
100003.6971
100003.6987
100003.7003
100003.7021
100003.7041
100003.7062
100003.7084
100003.7108
100003.6525
100003.6528
100003.6533
100003.6542
100003.6553
100003.6567
100003.6584
100003.6603
100003.6624
100003.6647
100003.667
100003.6694
100003.6717
100003.674
100003.6761
100003.6781
100003.6799
100003.6816
100003.6832
100003.6848
100003.6863
100003.6878
100003.6893
100003.6908
100003.6924
100003.6939
100003.6956
100003.6973
100003.6991
100003.701
100003.7031
100003.7052
100003.7075
100003.6509
100003.6512
100003.6517
100003.6524
100003.6535
100003.6547
100003.6562
100003.6579
100003.6598
100003.6618
100003.6639
100003.666
100003.6682
100003.6703
100003.6723
100003.6743
100003.6761
100003.6779
100003.6796
100003.6813
100003.6829
100003.6846
100003.6862
100003.6878
100003.6894
100003.6911
100003.6928
100003.6946
100003.6964
100003.6983
100003.7004
100003.7025
100003.7047
100003.6495
100003.6498
100003.6502
100003.6509
100003.6519
100003.653
100003.6544
100003.6559
100003.6576
100003.6594
100003.6613
100003.6633
100003.6653
100003.6672
100003.6692
100003.6711
100003.673
100003.6748
100003.6766
100003.6783
100003.68
100003.6818
100003.6835
100003.6852
100003.6869
100003.6886
100003.6904
100003.6922
100003.6941
100003.696
100003.698
100003.7001
100003.7022
100003.6484
100003.6486
100003.649
100003.6497
100003.6505
100003.6516
100003.6528
100003.6542
100003.6558
100003.6574
100003.6592
100003.661
100003.6629
100003.6648
100003.6667
100003.6686
100003.6704
100003.6723
100003.6741
100003.6759
100003.6777
100003.6795
100003.6812
100003.683
100003.6848
100003.6866
100003.6884
100003.6902
100003.6921
100003.6941
100003.696
100003.6981
100003.7001
100003.6474
100003.6476
100003.648
100003.6486
100003.6494
100003.6504
100003.6516
100003.6529
100003.6543
100003.6559
100003.6576
100003.6593
100003.6611
100003.6629
100003.6648
100003.6666
100003.6685
100003.6703
100003.6722
100003.674
100003.6758
100003.6776
100003.6795
100003.6813
100003.6831
100003.6849
100003.6868
100003.6887
100003.6906
100003.6925
100003.6945
100003.6965
100003.6985
100003.6467
100003.6469
100003.6473
100003.6479
100003.6486
100003.6496
100003.6507
100003.6519
100003.6533
100003.6548
100003.6564
100003.6581
100003.6598
100003.6616
100003.6634
100003.6652
100003.6671
100003.6689
100003.6708
100003.6726
100003.6744
100003.6763
100003.6781
100003.68
100003.6818
100003.6837
100003.6856
100003.6875
100003.6894
100003.6913
100003.6933
100003.6952
100003.6972
100003.6463
100003.6465
100003.6468
100003.6474
100003.6481
100003.649
100003.6501
100003.6513
100003.6526
100003.6541
100003.6556
100003.6572
100003.6589
100003.6607
100003.6625
100003.6643
100003.6661
100003.668
100003.6698
100003.6717
100003.6735
100003.6754
100003.6773
100003.6791
100003.681
100003.6829
100003.6848
100003.6867
100003.6886
100003.6906
100003.6925
100003.6944
100003.6964
100003.646
100003.6462
100003.6466
100003.6471
100003.6478
100003.6487
100003.6498
100003.651
100003.6523
100003.6537
100003.6552
100003.6568
100003.6585
100003.6603
100003.662
100003.6638
100003.6657
100003.6675
100003.6694
100003.6712
100003.6731
100003.675
100003.6769
100003.6787
100003.6806
100003.6825
100003.6844
100003.6863
100003.6882
100003.6902
100003.6921
100003.6941
100003.696
100003.5707
100003.5713
100003.5726
100003.5744
100003.5769
100003.5798
100003.5831
100003.5864
100003.5894
100003.5919
100003.5934
100003.593
100003.5912
100003.5868
100003.5832
100003.5796
100003.5766
100003.5742
100003.5726
100003.5718
100003.5718
100003.5724
100003.5735
100003.5751
100003.577
100003.5792
100003.5815
100003.584
100003.5717
100003.5723
100003.5735
100003.5752
100003.5775
100003.5803
100003.5835
100003.587
100003.5905
100003.5937
100003.596
100003.5964
100003.5954
100003.5907
100003.5862
100003.5816
100003.5778
100003.5751
100003.5734
100003.5728
100003.5729
100003.5737
100003.575
100003.5767
100003.5788
100003.5812
100003.5837
100003.5864
100003.5891
100003.5919
100003.5948
100003.5977
100003.572
100003.5726
100003.5736
100003.5752
100003.5771
100003.5793
100003.5816
100003.584
100003.5863
100003.588
100003.5889
100003.5886
100003.5871
100003.584
100003.5808
100003.5782
100003.5761
100003.5747
100003.5738
100003.5737
100003.5742
100003.5752
100003.5768
100003.5787
100003.581
100003.5836
100003.5864
100003.5893
100003.5922
100003.5952
100003.5983
100003.6014
100003.5717
100003.5722
100003.5731
100003.5745
100003.5762
100003.5781
100003.5801
100003.5821
100003.5838
100003.5852
100003.5859
100003.5857
100003.5848
100003.5827
100003.5806
100003.5783
100003.5764
100003.5752
100003.5747
100003.5749
100003.5757
100003.577
100003.5788
100003.581
100003.5836
100003.5864
100003.5895
100003.5926
100003.5959
100003.5992
100003.6025
100003.6058
100003.6091
100003.5707
100003.5711
100003.572
100003.5732
100003.5746
100003.5762
100003.5779
100003.5794
100003.5808
100003.5817
100003.5823
100003.5822
100003.5815
100003.5802
100003.5784
100003.5772
100003.5763
100003.5758
100003.5758
100003.5763
100003.5774
100003.579
100003.5811
100003.5836
100003.5864
100003.5896
100003.5929
100003.5965
100003.6
100003.6037
100003.6073
100003.6109
100003.6143
100003.5692
100003.5696
100003.5703
100003.5714
100003.5727
100003.5741
100003.5756
100003.5769
100003.5782
100003.5791
100003.5797
100003.5799
100003.5797
100003.5792
100003.5784
100003.5776
100003.5771
100003.5769
100003.5773
100003.5781
100003.5794
100003.5813
100003.5836
100003.5863
100003.5894
100003.5929
100003.5966
100003.6005
100003.6045
100003.6085
100003.6124
100003.6164
100003.6197
100003.5673
100003.5676
100003.5683
100003.5693
100003.5705
100003.5719
100003.5733
100003.5747
100003.576
100003.5772
100003.5782
100003.5788
100003.5792
100003.5792
100003.579
100003.5788
100003.5786
100003.5787
100003.5793
100003.5803
100003.5818
100003.5838
100003.5862
100003.5891
100003.5925
100003.5962
100003.6002
100003.6045
100003.6089
100003.6134
100003.6177
100003.6222
100003.6252
100003.5651
100003.5654
100003.5661
100003.5671
100003.5683
100003.5697
100003.5713
100003.5729
100003.5745
100003.5761
100003.5776
100003.579
100003.58
100003.5807
100003.5811
100003.5811
100003.5811
100003.5813
100003.5819
100003.5829
100003.5844
100003.5864
100003.5889
100003.5919
100003.5954
100003.5993
100003.6036
100003.6082
100003.613
100003.618
100003.6225
100003.6275
100003.63
100003.5628
100003.5631
100003.5638
100003.5648
100003.5662
100003.5677
100003.5695
100003.5715
100003.5737
100003.5759
100003.5782
100003.5804
100003.5823
100003.5838
100003.5846
100003.5849
100003.5847
100003.5848
100003.585
100003.5859
100003.5873
100003.5892
100003.5916
100003.5946
100003.598
100003.6019
100003.6063
100003.6112
100003.6164
100003.6217
100003.6265
100003.6323
100003.6339
100003.5603
100003.5607
100003.5615
100003.5626
100003.5641
100003.5659
100003.5681
100003.5706
100003.5734
100003.5765
100003.5798
100003.583
100003.5859
100003.5884
100003.5898
100003.5899
100003.5893
100003.589
100003.5888
100003.5894
100003.5904
100003.5921
100003.5942
100003.5969
100003.6001
100003.6039
100003.6082
100003.6131
100003.6183
100003.6238
100003.6288
100003.6349
100003.6361
100003.5579
100003.5583
100003.5592
100003.5604
100003.5621
100003.5642
100003.5669
100003.57
100003.5736
100003.5778
100003.5823
100003.587
100003.5915
100003.595
100003.5971
100003.5967
100003.5952
100003.5943
100003.5931
100003.5931
100003.5937
100003.5949
100003.5967
100003.599
100003.6018
100003.6051
100003.6091
100003.6135
100003.6185
100003.6236
100003.6284
100003.6339
100003.6356
100003.5555
100003.556
100003.5569
100003.5583
100003.5602
100003.5626
100003.5657
100003.5695
100003.5739
100003.5792
100003.5851
100003.5914
100003.5977
100003.6029
100003.6073
100003.6039
100003.6017
100003.5993
100003.5974
100003.5967
100003.5967
100003.5974
100003.5988
100003.6004
100003.6027
100003.6055
100003.6089
100003.6128
100003.6171
100003.6217
100003.626
100003.6308
100003.6331
100003.5532
100003.5536
100003.5546
100003.5561
100003.5582
100003.561
100003.5644
100003.5688
100003.574
100003.5802
100003.5873
100003.5947
100003.6017
100003.6075
100003.6109
100003.6102
100003.6074
100003.6044
100003.6014
100003.6
100003.5993
100003.5995
100003.6003
100003.6012
100003.6029
100003.605
100003.6078
100003.611
100003.6147
100003.6186
100003.6225
100003.6267
100003.6295
100003.5508
100003.5513
100003.5523
100003.5539
100003.5561
100003.5591
100003.5628
100003.5676
100003.5734
100003.5806
100003.5892
100003.5992
100003.6101
100003.6194
100003.6341
100003.6166
100003.6153
100003.608
100003.6039
100003.6017
100003.6006
100003.6004
100003.6008
100003.6012
100003.6024
100003.6038
100003.6059
100003.6085
100003.6115
100003.6149
100003.6183
100003.6219
100003.625
100003.5484
100003.549
100003.55
100003.5516
100003.5539
100003.5569
100003.5607
100003.5655
100003.5713
100003.5784
100003.5865
100003.5954
100003.6042
100003.6115
100003.6185
100003.6127
100003.6108
100003.6061
100003.603
100003.6011
100003.6001
100003.5998
100003.5999
100003.6
100003.6007
100003.6017
100003.6033
100003.6054
100003.6079
100003.6107
100003.6137
100003.617
100003.6202
100003.5461
100003.5466
100003.5476
100003.5492
100003.5515
100003.5544
100003.5581
100003.5627
100003.5682
100003.5747
100003.582
100003.5899
100003.5976
100003.6042
100003.6096
100003.6063
100003.6048
100003.6019
100003.5996
100003.5983
100003.5977
100003.5975
100003.5976
100003.5976
100003.5981
100003.5988
100003.6001
100003.6018
100003.6039
100003.6064
100003.6091
100003.6121
100003.6152
100003.5438
100003.5443
100003.5452
100003.5468
100003.5489
100003.5516
100003.5551
100003.5593
100003.5643
100003.57
100003.5763
100003.583
100003.5894
100003.5949
100003.5987
100003.598
100003.5973
100003.5959
100003.5946
100003.594
100003.5938
100003.5938
100003.594
100003.5942
100003.5947
100003.5954
100003.5965
100003.598
100003.5998
100003.6021
100003.6045
100003.6073
100003.6103
100003.5415
100003.5419
100003.5429
100003.5443
100003.5462
100003.5488
100003.5519
100003.5556
100003.56
100003.5649
100003.5702
100003.5757
100003.581
100003.5854
100003.5885
100003.5893
100003.5894
100003.5891
100003.5888
100003.5887
100003.5889
100003.5893
100003.5897
100003.5901
100003.5907
100003.5915
100003.5926
100003.594
100003.5957
100003.5978
100003.6001
100003.6027
100003.6056
100003.5392
100003.5396
100003.5405
100003.5418
100003.5436
100003.5458
100003.5486
100003.5519
100003.5556
100003.5598
100003.5643
100003.5688
100003.5731
100003.5768
100003.5795
100003.5809
100003.5818
100003.5823
100003.5826
100003.5831
100003.5837
100003.5844
100003.5851
100003.5857
100003.5865
100003.5874
100003.5886
100003.59
100003.5917
100003.5937
100003.5959
100003.5984
100003.6011
100003.5371
100003.5374
100003.5382
100003.5394
100003.541
100003.543
100003.5454
100003.5483
100003.5515
100003.555
100003.5587
100003.5625
100003.5661
100003.5692
100003.5717
100003.5735
100003.5748
100003.5758
100003.5767
100003.5776
100003.5786
100003.5795
100003.5804
100003.5813
100003.5823
100003.5834
100003.5847
100003.5862
100003.5878
100003.5898
100003.5919
100003.5943
100003.5969
100003.535
100003.5354
100003.5361
100003.5371
100003.5385
100003.5403
100003.5424
100003.5449
100003.5476
100003.5506
100003.5538
100003.5569
100003.56
100003.5627
100003.5651
100003.567
100003.5686
100003.57
100003.5712
100003.5724
100003.5736
100003.5748
100003.576
100003.5771
100003.5783
100003.5795
100003.5809
100003.5825
100003.5842
100003.5861
100003.5882
100003.5905
100003.5929
100003.5331
100003.5334
100003.534
100003.535
100003.5362
100003.5378
100003.5397
100003.5418
100003.5442
100003.5468
100003.5495
100003.5522
100003.5548
100003.5573
100003.5595
100003.5615
100003.5632
100003.5648
100003.5663
100003.5677
100003.5691
100003.5705
100003.5718
100003.5732
100003.5745
100003.576
100003.5775
100003.5791
100003.5808
100003.5827
100003.5848
100003.587
100003.5894
100003.5314
100003.5317
100003.5322
100003.5331
100003.5342
100003.5356
100003.5372
100003.5391
100003.5412
100003.5434
100003.5458
100003.5482
100003.5505
100003.5528
100003.5549
100003.5569
100003.5587
100003.5604
100003.562
100003.5636
100003.5652
100003.5667
100003.5682
100003.5697
100003.5712
100003.5727
100003.5743
100003.576
100003.5778
100003.5797
100003.5817
100003.5839
100003.5861
100003.5298
100003.5301
100003.5306
100003.5313
100003.5323
100003.5336
100003.5351
100003.5367
100003.5386
100003.5406
100003.5427
100003.5448
100003.5469
100003.549
100003.5511
100003.553
100003.5549
100003.5567
100003.5584
100003.5601
100003.5617
100003.5634
100003.565
100003.5666
100003.5682
100003.5698
100003.5715
100003.5733
100003.5751
100003.577
100003.579
100003.5811
100003.5833
100003.5285
100003.5287
100003.5292
100003.5298
100003.5308
100003.5319
100003.5332
100003.5347
100003.5364
100003.5382
100003.5401
100003.5421
100003.544
100003.546
100003.548
100003.5499
100003.5517
100003.5536
100003.5553
100003.5571
100003.5588
100003.5605
100003.5623
100003.564
100003.5657
100003.5674
100003.5691
100003.571
100003.5728
100003.5747
100003.5767
100003.5787
100003.5809
100003.5273
100003.5275
100003.528
100003.5286
100003.5294
100003.5305
100003.5317
100003.5331
100003.5346
100003.5363
100003.538
100003.5399
100003.5417
100003.5436
100003.5455
100003.5474
100003.5492
100003.5511
100003.5529
100003.5547
100003.5565
100003.5582
100003.56
100003.5618
100003.5636
100003.5653
100003.5672
100003.569
100003.5709
100003.5728
100003.5748
100003.5768
100003.5788
100003.5264
100003.5266
100003.527
100003.5276
100003.5284
100003.5294
100003.5305
100003.5318
100003.5332
100003.5348
100003.5364
100003.5382
100003.5399
100003.5418
100003.5436
100003.5454
100003.5473
100003.5491
100003.551
100003.5528
100003.5546
100003.5564
100003.5583
100003.5601
100003.5619
100003.5637
100003.5656
100003.5674
100003.5693
100003.5712
100003.5732
100003.5752
100003.5772
100003.5257
100003.5259
100003.5263
100003.5268
100003.5276
100003.5285
100003.5296
100003.5308
100003.5322
100003.5337
100003.5353
100003.5369
100003.5386
100003.5404
100003.5422
100003.544
100003.5459
100003.5477
100003.5496
100003.5514
100003.5533
100003.5551
100003.5569
100003.5588
100003.5606
100003.5625
100003.5644
100003.5663
100003.5682
100003.5701
100003.572
100003.574
100003.5759
100003.5252
100003.5254
100003.5258
100003.5263
100003.5271
100003.528
100003.529
100003.5302
100003.5315
100003.533
100003.5345
100003.5361
100003.5378
100003.5395
100003.5413
100003.5431
100003.545
100003.5468
100003.5487
100003.5505
100003.5524
100003.5542
100003.5561
100003.558
100003.5598
100003.5617
100003.5636
100003.5655
100003.5674
100003.5693
100003.5713
100003.5732
100003.5751
100003.525
100003.5252
100003.5256
100003.5261
100003.5268
100003.5277
100003.5287
100003.5299
100003.5312
100003.5326
100003.5341
100003.5357
100003.5374
100003.5391
100003.5409
100003.5427
100003.5445
100003.5464
100003.5482
100003.5501
100003.5519
100003.5538
100003.5557
100003.5575
100003.5594
100003.5613
100003.5632
100003.5651
100003.567
100003.5689
100003.5709
100003.5728
100003.5747
100003.4502
100003.4509
100003.4523
100003.4544
100003.4571
100003.4603
100003.4637
100003.4672
100003.4706
100003.4737
100003.4764
100003.4758
100003.4733
100003.4654
100003.4611
100003.4567
100003.4535
100003.4513
100003.4499
100003.4492
100003.4493
100003.45
100003.4512
100003.4528
100003.4548
100003.457
100003.4593
100003.4618
100003.4643
100003.4513
100003.452
100003.4534
100003.4554
100003.4581
100003.4615
100003.4656
100003.4702
100003.4753
100003.4803
100003.484
100003.4846
100003.4836
100003.4756
100003.4687
100003.4623
100003.457
100003.4533
100003.4512
100003.4503
100003.4504
100003.4513
100003.4527
100003.4545
100003.4567
100003.459
100003.4616
100003.4642
100003.4669
100003.4696
100003.4723
100003.4751
100003.4518
100003.4524
100003.4535
100003.4552
100003.4573
100003.4596
100003.4621
100003.4648
100003.4674
100003.4694
100003.4704
100003.4696
100003.4678
100003.4629
100003.459
100003.4551
100003.453
100003.4517
100003.451
100003.451
100003.4516
100003.4528
100003.4545
100003.4566
100003.459
100003.4616
100003.4644
100003.4672
100003.4702
100003.4731
100003.4759
100003.4789
100003.4515
100003.4521
100003.4532
100003.4548
100003.4567
100003.4588
100003.461
100003.4631
100003.4649
100003.4663
100003.467
100003.4666
100003.4652
100003.462
100003.4592
100003.4568
100003.4542
100003.4527
100003.452
100003.4522
100003.4531
100003.4546
100003.4566
100003.459
100003.4617
100003.4646
100003.4677
100003.4709
100003.4741
100003.4773
100003.4804
100003.4837
100003.4866
100003.4504
100003.4509
100003.4519
100003.4532
100003.4547
100003.4564
100003.458
100003.4595
100003.4606
100003.4614
100003.4617
100003.4612
100003.4601
100003.458
100003.456
100003.4543
100003.4533
100003.4528
100003.4529
100003.4536
100003.4548
100003.4567
100003.459
100003.4616
100003.4647
100003.468
100003.4714
100003.475
100003.4787
100003.4823
100003.4857
100003.4895
100003.4921
100003.4487
100003.4492
100003.45
100003.4511
100003.4525
100003.4539
100003.4553
100003.4565
100003.4574
100003.4581
100003.4584
100003.4583
100003.4578
100003.4568
100003.4557
100003.4548
100003.4542
100003.454
100003.4544
100003.4553
100003.4569
100003.459
100003.4615
100003.4645
100003.4679
100003.4715
100003.4754
100003.4795
100003.4837
100003.4879
100003.4916
100003.4961
100003.4981
100003.4466
100003.447
100003.4477
100003.4487
100003.4499
100003.4513
100003.4525
100003.4537
100003.4548
100003.4557
100003.4564
100003.4567
100003.4568
100003.4566
100003.4562
100003.4558
100003.4555
100003.4558
100003.4564
100003.4575
100003.4593
100003.4615
100003.4643
100003.4675
100003.4711
100003.4751
100003.4795
100003.4841
100003.4889
100003.4938
100003.4978
100003.5036
100003.5044
100003.4442
100003.4445
100003.4452
100003.4462
100003.4474
100003.4487
100003.4501
100003.4515
100003.4529
100003.4543
100003.4556
100003.4567
100003.4575
100003.4581
100003.4582
100003.4581
100003.458
100003.4583
100003.4589
100003.4602
100003.4619
100003.4643
100003.4671
100003.4704
100003.4742
100003.4785
100003.4832
100003.4883
100003.4937
100003.4995
100003.5037
100003.511
100003.5101
100003.4416
100003.442
100003.4426
100003.4436
100003.4449
100003.4464
100003.4481
100003.4499
100003.4518
100003.454
100003.4561
100003.4583
100003.4602
100003.4616
100003.4624
100003.4623
100003.4618
100003.462
100003.4622
100003.4633
100003.465
100003.4672
100003.47
100003.4732
100003.477
100003.4814
100003.4864
100003.4919
100003.4979
100003.5048
100003.509
100003.5185
100003.5153
100003.439
100003.4394
100003.4401
100003.4412
100003.4426
100003.4443
100003.4464
100003.4488
100003.4515
100003.4546
100003.4579
100003.4613
100003.4646
100003.4673
100003.4687
100003.468
100003.467
100003.4666
100003.4662
100003.467
100003.4684
100003.4703
100003.4728
100003.4757
100003.4793
100003.4835
100003.4884
100003.4941
100003.5004
100003.5077
100003.5127
100003.5239
100003.5186
100003.4364
100003.4368
100003.4376
100003.4388
100003.4404
100003.4425
100003.445
100003.4481
100003.4518
100003.4562
100003.4612
100003.4666
100003.4718
100003.4761
100003.4788
100003.4767
100003.4746
100003.4729
100003.4712
100003.4714
100003.4721
100003.4735
100003.4756
100003.478
100003.4811
100003.4847
100003.4892
100003.4943
100003.5001
100003.5067
100003.5114
100003.5204
100003.5174
100003.4339
100003.4343
100003.4352
100003.4365
100003.4384
100003.4408
100003.4439
100003.4477
100003.4525
100003.4583
100003.4653
100003.4736
100003.4832
100003.4902
100003.4999
100003.486
100003.4842
100003.4795
100003.4764
100003.4756
100003.4758
100003.4767
100003.4784
100003.4798
100003.4823
100003.4851
100003.4887
100003.4931
100003.498
100003.5035
100003.5078
100003.5148
100003.5139
100003.4314
100003.4319
100003.4328
100003.4343
100003.4364
100003.4391
100003.4427
100003.4472
100003.4529
100003.4598
100003.4677
100003.4762
100003.4838
100003.4918
100003.4985
100003.4946
100003.4895
100003.4857
100003.4814
100003.4799
100003.4793
100003.4795
100003.4805
100003.481
100003.4828
100003.4846
100003.4874
100003.4908
100003.4948
100003.4993
100003.5031
100003.5085
100003.5093
100003.429
100003.4295
100003.4305
100003.4321
100003.4343
100003.4372
100003.4411
100003.4462
100003.4529
100003.4617
100003.4736
100003.4892
100003.5088
100003.5221
100003.5678
100003.5111
100003.5116
100003.4931
100003.4861
100003.4829
100003.4817
100003.4815
100003.482
100003.4815
100003.4826
100003.4834
100003.4854
100003.4879
100003.491
100003.4946
100003.4979
100003.5022
100003.504
100003.4266
100003.4271
100003.4282
100003.4297
100003.432
100003.435
100003.439
100003.4441
100003.4506
100003.4588
100003.4687
100003.4801
100003.492
100003.5012
100003.5173
100003.499
100003.4986
100003.49
100003.485
100003.4826
100003.4817
100003.4816
100003.4814
100003.4806
100003.481
100003.4813
100003.4826
100003.4845
100003.4869
100003.4898
100003.4927
100003.4962
100003.4986
100003.4243
100003.4248
100003.4258
100003.4274
100003.4296
100003.4325
100003.4363
100003.4411
100003.4472
100003.4545