/*--------------------------------*- C++ -*----------------------------------*\
  =========                 |
  \\      /  F ield         | OpenFOAM: The Open Source CFD Toolbox
   \\    /   O peration     | Website:  https://openfoam.org
    \\  /    A nd           | Version:  8
     \\/     M anipulation  |
\*---------------------------------------------------------------------------*/
FoamFile
{
    version     2.0;
    format      ascii;
    class       volScalarField;
    location    "0.2";
    object      T;
}
// * * * * * * * * * * * * * * * * * * * * * * * * * * * * * * * * * * * * * //

dimensions      [0 0 0 1 0 0 0];

internalField   nonuniform List<scalar> 
67286
(
300.0032209
300.0032221
300.0032239
300.0032256
300.0032277
300.0032303
300.0032331
300.0032361
300.003239
300.0032412
300.0032424
300.0032424
300.0032412
300.0032384
300.0032354
300.0032323
300.0032295
300.0032273
300.0032257
300.0032249
300.0032248
300.0032253
300.0032262
300.0032275
300.0032292
300.0032312
300.0032333
300.0032354
300.0032218
300.003223
300.0032247
300.0032263
300.0032283
300.0032306
300.0032333
300.0032361
300.0032389
300.0032413
300.0032428
300.0032432
300.0032424
300.0032394
300.0032361
300.0032328
300.00323
300.0032279
300.0032266
300.0032259
300.003226
300.0032266
300.0032276
300.0032291
300.003231
300.003233
300.0032353
300.0032377
300.0032401
300.0032428
300.0032455
300.0032481
300.003222
300.0032232
300.0032247
300.0032262
300.0032279
300.0032299
300.0032321
300.0032343
300.0032362
300.0032378
300.0032388
300.0032386
300.0032375
300.0032355
300.0032334
300.0032312
300.0032294
300.003228
300.0032271
300.0032268
300.0032271
300.0032279
300.0032292
300.0032309
300.0032329
300.0032351
300.0032376
300.0032402
300.003243
300.0032458
300.0032487
300.0032516
300.0032216
300.0032227
300.0032242
300.0032255
300.0032271
300.0032288
300.0032307
300.0032325
300.0032342
300.0032355
300.0032363
300.0032364
300.0032357
300.0032343
300.0032327
300.0032309
300.0032294
300.0032284
300.0032279
300.0032279
300.0032285
300.0032295
300.003231
300.0032329
300.0032351
300.0032376
300.0032403
300.0032432
300.0032462
300.0032493
300.0032524
300.0032556
300.0032585
300.0032208
300.0032218
300.0032232
300.0032244
300.0032258
300.0032273
300.0032289
300.0032305
300.0032319
300.003233
300.0032337
300.0032339
300.0032335
300.0032327
300.0032315
300.0032304
300.0032296
300.003229
300.0032289
300.0032293
300.0032301
300.0032313
300.003233
300.0032351
300.0032376
300.0032403
300.0032433
300.0032464
300.0032497
300.0032531
300.0032565
300.0032599
300.0032631
300.0032195
300.0032205
300.0032218
300.0032229
300.0032241
300.0032255
300.003227
300.0032285
300.0032298
300.0032309
300.0032318
300.0032322
300.0032323
300.003232
300.0032314
300.0032308
300.0032303
300.0032302
300.0032303
300.0032309
300.0032319
300.0032334
300.0032352
300.0032375
300.0032402
300.0032432
300.0032464
300.0032499
300.0032535
300.0032572
300.0032608
300.0032645
300.0032678
300.0032179
300.0032189
300.0032202
300.0032211
300.0032223
300.0032237
300.0032252
300.0032267
300.0032281
300.0032294
300.0032306
300.0032314
300.0032319
300.0032321
300.0032321
300.003232
300.0032318
300.0032318
300.0032321
300.0032329
300.003234
300.0032356
300.0032376
300.00324
300.0032428
300.003246
300.0032495
300.0032533
300.0032572
300.0032612
300.0032651
300.003269
300.0032724
300.0032161
300.003217
300.0032183
300.0032193
300.0032205
300.0032219
300.0032235
300.0032252
300.0032269
300.0032286
300.0032302
300.0032315
300.0032326
300.0032334
300.0032339
300.003234
300.003234
300.0032341
300.0032345
300.0032352
300.0032364
300.0032379
300.00324
300.0032425
300.0032454
300.0032487
300.0032524
300.0032564
300.0032606
300.0032649
300.0032691
300.0032732
300.0032764
300.0032142
300.0032151
300.0032164
300.0032175
300.0032187
300.0032203
300.0032221
300.0032241
300.0032262
300.0032284
300.0032306
300.0032327
300.0032345
300.0032358
300.0032367
300.0032371
300.0032371
300.0032371
300.0032373
300.0032379
300.003239
300.0032404
300.0032424
300.0032448
300.0032477
300.003251
300.0032548
300.0032589
300.0032633
300.0032678
300.0032722
300.0032766
300.0032796
300.0032122
300.0032132
300.0032145
300.0032156
300.0032171
300.0032188
300.0032209
300.0032233
300.003226
300.0032289
300.0032319
300.0032348
300.0032373
300.0032392
300.0032407
300.0032412
300.003241
300.0032407
300.0032406
300.0032409
300.0032417
300.0032429
300.0032446
300.0032469
300.0032496
300.0032528
300.0032564
300.0032605
300.0032649
300.0032695
300.003274
300.0032784
300.0032813
300.0032102
300.0032112
300.0032126
300.0032139
300.0032154
300.0032174
300.0032199
300.0032228
300.0032261
300.0032298
300.0032337
300.0032377
300.0032415
300.0032445
300.0032461
300.0032463
300.0032455
300.0032449
300.0032441
300.003244
300.0032444
300.0032453
300.0032468
300.0032486
300.003251
300.0032539
300.0032573
300.0032611
300.0032653
300.0032697
300.003274
300.0032783
300.0032813
300.0032082
300.0032093
300.0032108
300.0032121
300.0032138
300.0032161
300.0032189
300.0032222
300.0032262
300.0032307
300.0032357
300.0032407
300.0032455
300.0032494
300.0032517
300.0032514
300.0032501
300.0032488
300.0032475
300.0032469
300.0032468
300.0032473
300.0032484
300.0032499
300.0032518
300.0032543
300.0032573
300.0032607
300.0032645
300.0032685
300.0032725
300.0032765
300.0032797
300.0032063
300.0032074
300.0032089
300.0032103
300.0032122
300.0032147
300.0032178
300.0032215
300.0032261
300.0032313
300.0032371
300.0032432
300.003249
300.0032536
300.0032565
300.0032563
300.0032544
300.0032525
300.0032505
300.0032493
300.0032487
300.0032488
300.0032494
300.0032504
300.003252
300.003254
300.0032565
300.0032594
300.0032628
300.0032663
300.00327
300.0032737
300.0032769
300.0032043
300.0032054
300.003207
300.0032085
300.0032105
300.0032131
300.0032164
300.0032204
300.0032253
300.0032311
300.0032376
300.0032447
300.0032519
300.003258
300.0032633
300.0032594
300.0032573
300.0032543
300.0032518
300.0032503
300.0032495
300.0032493
300.0032496
300.0032502
300.0032514
300.0032529
300.003255
300.0032574
300.0032603
300.0032635
300.0032668
300.0032702
300.0032734
300.0032023
300.0032034
300.003205
300.0032065
300.0032086
300.0032112
300.0032146
300.0032186
300.0032235
300.0032293
300.0032357
300.0032425
300.0032491
300.0032546
300.0032584
300.0032571
300.0032554
300.0032531
300.0032509
300.0032496
300.0032488
300.0032485
300.0032487
300.0032491
300.00325
300.0032512
300.0032528
300.0032549
300.0032574
300.0032602
300.0032632
300.0032664
300.0032695
300.0032004
300.0032015
300.003203
300.0032045
300.0032065
300.0032091
300.0032123
300.0032162
300.0032209
300.0032263
300.0032322
300.0032384
300.0032443
300.0032492
300.0032524
300.0032522
300.0032512
300.0032497
300.0032482
300.0032472
300.0032467
300.0032465
300.0032467
300.003247
300.0032477
300.0032487
300.0032501
300.0032519
300.0032541
300.0032566
300.0032594
300.0032623
300.0032654
300.0031984
300.0031995
300.003201
300.0032024
300.0032043
300.0032068
300.0032098
300.0032134
300.0032176
300.0032224
300.0032276
300.003233
300.0032381
300.0032423
300.0032451
300.0032458
300.0032456
300.0032449
300.0032441
300.0032436
300.0032434
300.0032435
300.0032438
300.0032442
300.0032448
300.0032458
300.0032471
300.0032487
300.0032506
300.0032529
300.0032555
300.0032583
300.0032612
300.0031965
300.0031975
300.003199
300.0032003
300.0032021
300.0032043
300.0032071
300.0032103
300.0032141
300.0032182
300.0032227
300.0032272
300.0032315
300.0032351
300.0032377
300.0032389
300.0032393
300.0032393
300.0032392
300.0032392
300.0032394
300.0032397
300.0032402
300.0032408
300.0032415
300.0032425
300.0032437
300.0032453
300.0032471
300.0032492
300.0032516
300.0032542
300.003257
300.0031946
300.0031956
300.003197
300.0031982
300.0031998
300.0032018
300.0032043
300.0032071
300.0032104
300.003214
300.0032178
300.0032216
300.0032252
300.0032283
300.0032306
300.0032321
300.003233
300.0032336
300.003234
300.0032345
300.003235
300.0032356
300.0032363
300.0032371
300.003238
300.003239
300.0032403
300.0032418
300.0032436
300.0032456
300.0032479
300.0032504
300.003253
300.0031927
300.0031937
300.003195
300.0031961
300.0031976
300.0031994
300.0032015
300.0032041
300.0032069
300.0032099
300.0032131
300.0032164
300.0032194
300.0032221
300.0032243
300.0032259
300.0032272
300.0032282
300.003229
300.0032298
300.0032306
300.0032315
300.0032324
300.0032333
300.0032344
300.0032356
300.0032369
300.0032385
300.0032402
300.0032422
300.0032443
300.0032467
300.0032491
300.003191
300.003192
300.0031932
300.0031942
300.0031955
300.0031971
300.003199
300.0032012
300.0032036
300.0032062
300.003209
300.0032117
300.0032143
300.0032167
300.0032188
300.0032205
300.003222
300.0032232
300.0032244
300.0032254
300.0032265
300.0032276
300.0032287
300.0032298
300.003231
300.0032323
300.0032337
300.0032353
300.003237
300.0032389
300.003241
300.0032433
300.0032456
300.0031894
300.0031903
300.0031915
300.0031924
300.0031935
300.0031949
300.0031966
300.0031985
300.0032006
300.0032029
300.0032053
300.0032077
300.00321
300.0032122
300.0032141
300.0032159
300.0032174
300.0032189
300.0032202
300.0032215
300.0032227
300.003224
300.0032252
300.0032265
300.0032278
300.0032292
300.0032307
300.0032323
300.0032341
300.0032359
300.003238
300.0032401
300.0032423
300.0031879
300.0031888
300.0031899
300.0031907
300.0031917
300.003193
300.0031945
300.0031962
300.003198
300.0032
300.0032021
300.0032042
300.0032063
300.0032083
300.0032102
300.0032119
300.0032135
300.0032151
300.0032165
300.0032179
300.0032193
300.0032207
300.0032221
300.0032235
300.0032249
300.0032264
300.003228
300.0032296
300.0032314
300.0032332
300.0032352
300.0032373
300.0032393
300.0031866
300.0031875
300.0031886
300.0031893
300.0031902
300.0031913
300.0031926
300.0031941
300.0031958
300.0031975
300.0031994
300.0032013
300.0032032
300.0032051
300.0032069
300.0032086
300.0032103
300.0032118
300.0032134
300.0032149
300.0032164
300.0032179
300.0032193
300.0032208
300.0032223
300.0032239
300.0032255
300.0032272
300.003229
300.0032308
300.0032327
300.0032347
300.0032366
300.0031855
300.0031863
300.0031874
300.003188
300.0031888
300.0031898
300.003191
300.0031924
300.0031939
300.0031955
300.0031972
300.0031989
300.0032007
300.0032024
300.0032042
300.0032059
300.0032075
300.0032092
300.0032108
300.0032123
300.0032139
300.0032154
300.003217
300.0032185
300.0032201
300.0032217
300.0032234
300.0032251
300.0032269
300.0032287
300.0032306
300.0032325
300.0032343
300.0031845
300.0031854
300.0031863
300.003187
300.0031877
300.0031886
300.0031897
300.003191
300.0031923
300.0031938
300.0031954
300.003197
300.0031987
300.0032003
300.003202
300.0032037
300.0032054
300.003207
300.0032086
300.0032102
300.0032118
300.0032134
300.003215
300.0032166
300.0032183
300.0032199
300.0032216
300.0032234
300.0032251
300.0032269
300.0032288
300.0032306
300.0032324
300.0031838
300.0031846
300.0031855
300.0031861
300.0031868
300.0031877
300.0031887
300.0031898
300.0031911
300.0031925
300.003194
300.0031955
300.0031971
300.0031987
300.0032004
300.003202
300.0032037
300.0032053
300.0032069
300.0032086
300.0032102
300.0032118
300.0032135
300.0032151
300.0032168
300.0032185
300.0032202
300.0032219
300.0032237
300.0032255
300.0032273
300.0032292
300.0032308
300.0031832
300.003184
300.0031849
300.0031854
300.0031861
300.0031869
300.0031879
300.003189
300.0031902
300.0031915
300.0031929
300.0031944
300.0031959
300.0031975
300.0031991
300.0032008
300.0032024
300.003204
300.0032057
300.0032073
300.003209
300.0032106
300.0032123
300.003214
300.0032157
300.0032174
300.0032191
300.0032209
300.0032226
300.0032244
300.0032262
300.003228
300.0032296
300.0031828
300.0031834
300.003184
300.0031845
300.0031851
300.0031859
300.0031869
300.0031879
300.0031891
300.0031904
300.0031917
300.0031932
300.0031947
300.0031962
300.0031978
300.0031994
300.003201
300.0032027
300.0032043
300.003206
300.0032077
300.0032093
300.003211
300.0032127
300.0032144
300.0032161
300.0032179
300.0032196
300.0032214
300.0032232
300.0032249
300.0032267
300.0032283
300.0031826
300.0031827
300.0031831
300.0031835
300.0031842
300.003185
300.0031859
300.0031869
300.0031881
300.0031893
300.0031907
300.0031921
300.0031936
300.0031951
300.0031967
300.0031983
300.0031999
300.0032015
300.0032032
300.0032049
300.0032065
300.0032082
300.0032099
300.0032116
300.0032133
300.003215
300.0032168
300.0032185
300.0032203
300.0032221
300.0032238
300.0032256
300.0032272
300.0034415
300.0034393
300.0034369
300.003438
300.0034402
300.0034429
300.0034459
300.003449
300.0034519
300.0034542
300.0034556
300.0034554
300.0034538
300.0034498
300.0034466
300.0034433
300.0034405
300.0034383
300.0034368
300.003436
300.0034359
300.0034363
300.0034373
300.0034387
300.0034404
300.0034423
300.0034444
300.0034462
300.0034425
300.0034405
300.0034381
300.0034391
300.0034412
300.0034437
300.0034467
300.0034499
300.0034531
300.003456
300.0034581
300.0034586
300.0034576
300.0034535
300.0034495
300.0034454
300.0034419
300.0034395
300.003438
300.0034373
300.0034374
300.003438
300.0034391
300.0034406
300.0034425
300.0034446
300.0034468
300.0034492
300.0034513
300.0034539
300.0034565
300.0034587
300.0034427
300.0034407
300.0034382
300.003439
300.0034408
300.0034428
300.0034451
300.0034473
300.0034495
300.0034512
300.0034521
300.0034518
300.0034505
300.0034478
300.0034449
300.0034426
300.0034407
300.0034393
300.0034384
300.0034382
300.0034385
300.0034394
300.0034407
300.0034424
300.0034445
300.0034468
300.0034492
300.0034519
300.0034545
300.0034573
300.0034601
300.0034624
300.0034424
300.0034404
300.0034377
300.0034384
300.00344
300.0034418
300.0034437
300.0034455
300.0034472
300.0034486
300.0034493
300.0034493
300.0034485
300.0034466
300.0034448
300.0034427
300.003441
300.0034398
300.0034393
300.0034393
300.0034399
300.003441
300.0034426
300.0034445
300.0034468
300.0034493
300.003452
300.0034549
300.0034578
300.0034609
300.0034639
300.0034669
300.0034691
300.0034415
300.0034394
300.0034367
300.0034372
300.0034385
300.0034401
300.0034416
300.0034432
300.0034445
300.0034455
300.0034461
300.0034461
300.0034456
300.0034444
300.003443
300.0034418
300.0034409
300.0034403
300.0034402
300.0034406
300.0034415
300.0034428
300.0034446
300.0034468
300.0034493
300.0034521
300.0034551
300.0034582
300.0034615
300.0034649
300.0034682
300.0034715
300.003474
300.0034401
300.003438
300.0034352
300.0034356
300.0034368
300.0034382
300.0034396
300.003441
300.0034422
300.0034432
300.0034439
300.0034441
300.003444
300.0034436
300.0034429
300.0034422
300.0034416
300.0034415
300.0034416
300.0034423
300.0034433
300.0034449
300.0034469
300.0034492
300.003452
300.003455
300.0034583
300.0034618
300.0034655
300.0034692
300.0034728
300.0034764
300.003479
300.0034384
300.0034363
300.0034335
300.0034338
300.0034349
300.0034362
300.0034376
300.003439
300.0034403
300.0034415
300.0034425
300.0034432
300.0034436
300.0034436
300.0034435
300.0034433
300.003443
300.0034431
300.0034435
300.0034442
300.0034455
300.0034471
300.0034492
300.0034518
300.0034547
300.003458
300.0034616
300.0034654
300.0034694
300.0034735
300.0034775
300.0034815
300.0034839
300.0034365
300.0034343
300.0034315
300.0034318
300.003433
300.0034343
300.0034358
300.0034374
300.003439
300.0034406
300.003442
300.0034433
300.0034443
300.0034449
300.0034453
300.0034454
300.0034453
300.0034454
300.0034458
300.0034466
300.0034478
300.0034495
300.0034517
300.0034543
300.0034573
300.0034607
300.0034646
300.0034687
300.0034731
300.0034776
300.0034818
300.0034864
300.0034883
300.0034344
300.0034323
300.0034294
300.0034298
300.0034311
300.0034326
300.0034343
300.0034362
300.0034383
300.0034404
300.0034425
300.0034445
300.0034463
300.0034476
300.0034484
300.0034486
300.0034484
300.0034485
300.0034486
300.0034493
300.0034504
300.003452
300.0034541
300.0034566
300.0034597
300.0034631
300.0034671
300.0034714
300.0034761
300.003481
300.0034855
300.0034907
300.0034919
300.0034322
300.0034301
300.0034273
300.0034278
300.0034292
300.003431
300.0034331
300.0034354
300.003438
300.0034409
300.0034439
300.0034468
300.0034495
300.0034516
300.0034529
300.003453
300.0034525
300.0034522
300.003452
300.0034524
300.0034532
300.0034546
300.0034565
300.0034588
300.0034616
300.003465
300.0034688
300.0034732
300.0034779
300.003483
300.0034876
300.0034931
300.003494
300.0034301
300.003428
300.0034253
300.0034259
300.0034275
300.0034295
300.003432
300.0034349
300.0034382
300.003442
300.0034461
300.0034503
300.0034543
300.0034575
300.0034593
300.0034589
300.0034577
300.0034568
300.0034557
300.0034557
300.0034561
300.0034571
300.0034587
300.0034606
300.0034631
300.0034661
300.0034697
300.0034737
300.0034782
300.003483
300.0034875
300.0034925
300.0034938
300.0034279
300.0034259
300.0034232
300.0034239
300.0034257
300.0034281
300.003431
300.0034344
300.0034385
300.0034432
300.0034485
300.0034541
300.0034596
300.0034642
300.0034678
300.0034651
300.0034633
300.0034613
300.0034595
300.0034588
300.0034588
300.0034594
300.0034606
300.003462
300.003464
300.0034666
300.0034696
300.0034732
300.0034772
300.0034815
300.0034856
300.00349
300.0034919
300.0034258
300.0034238
300.0034212
300.003422
300.003424
300.0034265
300.0034298
300.0034338
300.0034385
300.0034441
300.0034503
300.0034569
300.0034632
300.0034684
300.0034714
300.0034707
300.0034683
300.0034657
300.003463
300.0034617
300.0034611
300.0034612
300.0034619
300.0034628
300.0034643
300.0034663
300.0034688
300.0034718
300.0034752
300.003479
300.0034827
300.0034866
300.0034889
300.0034237
300.0034217
300.0034192
300.00342
300.0034221
300.0034248
300.0034283
300.0034327
300.003438
300.0034443
300.0034519
300.0034606
300.0034701
300.0034783
300.0034907
300.0034762
300.0034747
300.0034687
300.0034651
300.0034632
300.0034622
300.003462
300.0034624
300.0034628
300.0034639
300.0034653
300.0034673
300.0034697
300.0034726
300.0034758
300.0034792
300.0034826
300.0034852
300.0034216
300.0034196
300.0034171
300.003418
300.0034201
300.0034229
300.0034264
300.0034308
300.0034361
300.0034424
300.0034495
300.0034573
300.003465
300.0034715
300.0034775
300.0034727
300.0034709
300.0034671
300.0034643
300.0034626
300.0034618
300.0034615
300.0034617
300.0034618
300.0034625
300.0034635
300.0034651
300.0034671
300.0034695
300.0034723
300.0034753
300.0034785
300.0034811
300.0034195
300.0034175
300.003415
300.0034159
300.0034179
300.0034206
300.003424
300.0034282
300.0034333
300.0034391
300.0034456
300.0034525
300.0034593
300.0034651
300.0034697
300.003467
300.0034657
300.0034634
300.0034613
300.0034602
300.0034597
300.0034595
300.0034596
300.0034597
300.0034603
300.0034611
300.0034624
300.0034641
300.0034662
300.0034687
300.0034714
300.0034743
300.0034769
300.0034175
300.0034155
300.0034129
300.0034137
300.0034156
300.0034181
300.0034213
300.0034252
300.0034297
300.0034349
300.0034406
300.0034464
300.0034521
300.0034569
300.0034603
300.0034598
300.0034592
300.003458
300.003457
300.0034564
300.0034563
300.0034563
300.0034566
300.0034568
300.0034574
300.0034581
300.0034593
300.0034608
300.0034627
300.0034649
300.0034674
300.0034702
300.0034726
300.0034154
300.0034134
300.0034108
300.0034115
300.0034132
300.0034155
300.0034184
300.0034219
300.0034258
300.0034303
300.0034352
300.0034401
300.0034447
300.0034487
300.0034514
300.0034522
300.0034523
300.0034521
300.0034518
300.0034519
300.0034521
300.0034524
300.0034529
300.0034533
300.003454
300.0034548
300.003456
300.0034574
300.0034592
300.0034612
300.0034636
300.0034661
300.0034685
300.0034135
300.0034114
300.0034087
300.0034093
300.0034109
300.0034129
300.0034155
300.0034185
300.0034219
300.0034257
300.0034298
300.0034339
300.0034378
300.0034411
300.0034435
300.0034449
300.0034456
300.0034461
300.0034465
300.003447
300.0034476
300.0034482
300.0034489
300.0034495
300.0034503
300.0034513
300.0034525
300.003454
300.0034557
300.0034576
300.0034598
300.0034622
300.0034644
300.0034116
300.0034094
300.0034067
300.0034071
300.0034086
300.0034104
300.0034126
300.0034152
300.0034182
300.0034214
300.0034248
300.0034282
300.0034315
300.0034344
300.0034367
300.0034383
300.0034395
300.0034405
300.0034413
300.0034422
300.003443
300.0034439
300.0034448
300.0034457
300.0034467
300.0034478
300.003449
300.0034505
300.0034522
300.0034541
300.0034562
300.0034585
300.0034606
300.0034098
300.0034076
300.0034048
300.0034051
300.0034064
300.003408
300.00341
300.0034122
300.0034147
300.0034175
300.0034203
300.0034232
300.003426
300.0034285
300.0034307
300.0034325
300.0034339
300.0034352
300.0034364
300.0034375
300.0034386
300.0034397
300.0034408
300.0034419
300.0034431
300.0034443
300.0034457
300.0034472
300.0034489
300.0034508
300.0034528
300.003455
300.0034569
300.0034081
300.0034059
300.003403
300.0034033
300.0034044
300.0034058
300.0034075
300.0034095
300.0034116
300.003414
300.0034165
300.0034189
300.0034214
300.0034236
300.0034257
300.0034275
300.0034291
300.0034306
300.0034319
300.0034332
300.0034345
300.0034358
300.0034371
300.0034383
300.0034397
300.003441
300.0034425
300.0034441
300.0034458
300.0034476
300.0034496
300.0034517
300.0034535
300.0034066
300.0034044
300.0034014
300.0034016
300.0034025
300.0034038
300.0034053
300.003407
300.0034089
300.003411
300.0034131
300.0034153
300.0034175
300.0034195
300.0034215
300.0034233
300.003425
300.0034265
300.003428
300.0034295
300.0034309
300.0034323
300.0034337
300.0034351
300.0034366
300.003438
300.0034396
300.0034412
300.0034429
300.0034448
300.0034467
300.0034487
300.0034504
300.0034052
300.003403
300.0034
300.0034001
300.0034009
300.0034021
300.0034034
300.0034049
300.0034066
300.0034084
300.0034103
300.0034123
300.0034143
300.0034162
300.003418
300.0034198
300.0034215
300.0034231
300.0034247
300.0034263
300.0034278
300.0034293
300.0034308
300.0034323
300.0034338
300.0034354
300.003437
300.0034387
300.0034404
300.0034422
300.0034441
300.0034461
300.0034476
300.0034041
300.0034018
300.0033987
300.0033988
300.0033995
300.0034006
300.0034018
300.0034032
300.0034047
300.0034063
300.003408
300.0034098
300.0034116
300.0034134
300.0034152
300.003417
300.0034187
300.0034203
300.003422
300.0034236
300.0034252
300.0034268
300.0034283
300.0034299
300.0034315
300.0034331
300.0034348
300.0034365
300.0034382
300.00344
300.0034419
300.0034438
300.0034452
300.0034031
300.0034008
300.0033977
300.0033977
300.0033984
300.0033993
300.0034004
300.0034017
300.0034031
300.0034046
300.0034062
300.0034079
300.0034096
300.0034113
300.003413
300.0034147
300.0034164
300.0034181
300.0034197
300.0034214
300.003423
300.0034247
300.0034263
300.0034279
300.0034296
300.0034312
300.0034329
300.0034346
300.0034364
300.0034382
300.00344
300.0034418
300.0034432
300.0034023
300.0034
300.0033969
300.0033968
300.0033975
300.0033984
300.0033994
300.0034006
300.0034019
300.0034033
300.0034048
300.0034064
300.003408
300.0034096
300.0034113
300.003413
300.0034147
300.0034163
300.003418
300.0034197
300.0034214
300.003423
300.0034247
300.0034264
300.003428
300.0034297
300.0034315
300.0034332
300.003435
300.0034367
300.0034385
300.0034403
300.0034416
300.0034017
300.0033994
300.0033966
300.0033966
300.0033972
300.0033981
300.0033991
300.0034002
300.0034014
300.0034028
300.0034042
300.0034057
300.0034073
300.0034089
300.0034105
300.0034122
300.0034138
300.0034155
300.0034172
300.0034189
300.0034206
300.0034223
300.0034239
300.0034256
300.0034274
300.0034291
300.0034308
300.0034326
300.0034343
300.0034361
300.0034379
300.0034396
300.0034409
300.0034013
300.0033997
300.003399
300.0033994
300.0034001
300.0034009
300.0034018
300.0034029
300.0034041
300.0034054
300.0034068
300.0034083
300.0034098
300.0034114
300.003413
300.0034146
300.0034163
300.003418
300.0034197
300.0034213
300.003423
300.0034247
300.0034265
300.0034282
300.0034299
300.0034316
300.0034334
300.0034351
300.0034369
300.0034387
300.0034404
300.0034421
300.0034434
300.0034012
300.0034012
300.0034015
300.003402
300.0034026
300.0034034
300.0034044
300.0034054
300.0034066
300.0034079
300.0034093
300.0034107
300.0034122
300.0034138
300.0034154
300.003417
300.0034187
300.0034204
300.0034221
300.0034238
300.0034255
300.0034272
300.0034289
300.0034306
300.0034323
300.0034341
300.0034358
300.0034376
300.0034393
300.0034411
300.0034429
300.0034446
300.0034462
300.0033886
300.0033878
300.0033857
300.0033866
300.003389
300.003392
300.0033952
300.0033985
300.0034017
300.0034047
300.0034074
300.0034068
300.0034047
300.0033975
300.0033936
300.0033896
300.0033866
300.0033845
300.0033831
300.0033824
300.0033824
300.0033829
300.003384
300.0033854
300.0033871
300.003389
300.0033911
300.0033933
300.0033951
300.0033897
300.0033891
300.003387
300.0033878
300.0033902
300.0033933
300.0033971
300.0034013
300.0034059
300.0034104
300.0034135
300.0034143
300.0034135
300.0034065
300.0034003
300.0033946
300.0033899
300.0033866
300.0033846
300.0033838
300.0033838
300.0033845
300.0033857
300.0033873
300.0033892
300.0033914
300.0033936
300.0033959
300.0033982
300.0034004
300.0034028
300.0034048
300.00339
300.0033894
300.0033871
300.0033877
300.0033895
300.0033917
300.0033941
300.0033968
300.0033992
300.0034012
300.0034022
300.0034017
300.0034001
300.0033958
300.0033922
300.0033887
300.0033867
300.0033854
300.0033847
300.0033845
300.003385
300.003386
300.0033874
300.0033893
300.0033914
300.0033937
300.0033962
300.0033988
300.0034014
300.003404
300.0034064
300.0034085
300.0033897
300.0033891
300.0033867
300.0033872
300.0033889
300.0033909
300.003393
300.0033951
300.0033969
300.0033983
300.003399
300.0033988
300.0033976
300.0033948
300.0033923
300.0033901
300.0033878
300.0033863
300.0033856
300.0033857
300.0033864
300.0033876
300.0033893
300.0033914
300.0033938
300.0033964
300.0033992
300.003402
300.0034049
300.0034078
300.0034106
300.0034133
300.0034153
300.0033887
300.0033881
300.0033856
300.0033858
300.0033872
300.0033888
300.0033904
300.0033918
300.0033931
300.003394
300.0033944
300.0033941
300.0033932
300.0033913
300.0033896
300.003388
300.0033871
300.0033865
300.0033865
300.003387
300.003388
300.0033895
300.0033915
300.0033938
300.0033964
300.0033993
300.0034024
300.0034056
300.0034089
300.0034123
300.0034154
300.0034186
300.0034204
300.0033873
300.0033866
300.0033839
300.003384
300.0033852
300.0033866
300.0033879
300.0033892
300.0033902
300.003391
300.0033915
300.0033915
300.0033911
300.0033903
300.0033894
300.0033885
300.0033879
300.0033876
300.0033878
300.0033886
300.0033899
300.0033916
300.0033938
300.0033964
300.0033993
300.0034025
300.003406
300.0034096
300.0034134
300.0034172
300.0034206
300.0034245
300.0034258
300.0033854
300.0033847
300.003382
300.003382
300.003383
300.0033843
300.0033856
300.0033868
300.0033879
300.0033889
300.0033896
300.0033901
300.0033903
300.0033901
300.0033898
300.0033894
300.0033891
300.0033893
300.0033896
300.0033906
300.003392
300.0033939
300.0033962
300.003399
300.0034022
300.0034057
300.0034096
300.0034137
300.003418
300.0034224
300.0034261
300.0034312
300.0034316
300.0033833
300.0033825
300.0033798
300.0033798
300.0033808
300.0033821
300.0033835
300.0033849
300.0033863
300.0033877
300.003389
300.0033901
300.0033909
300.0033915
300.0033917
300.0033916
300.0033914
300.0033916
300.0033919
300.003393
300.0033944
300.0033964
300.0033988
300.0034016
300.003405
300.0034087
300.0034129
300.0034175
300.0034223
300.0034275
300.0034314
300.0034378
300.0034369
300.0033811
300.0033803
300.0033776
300.0033775
300.0033787
300.0033801
300.0033817
300.0033835
300.0033854
300.0033874
300.0033895
300.0033915
300.0033932
300.0033946
300.0033953
300.0033953
300.0033948
300.0033949
300.0033949
300.0033958
300.0033972
300.003399
300.0034014
300.0034042
300.0034075
300.0034113
300.0034158
300.0034207
300.0034261
300.0034322
300.0034362
300.0034445
300.0034416
300.0033788
300.0033781
300.0033754
300.0033754
300.0033767
300.0033783
300.0033803
300.0033826
300.0033852
300.003388
300.0033911
300.0033942
300.0033972
300.0033996
300.0034008
300.0034003
300.0033994
300.0033989
300.0033985
300.0033991
300.0034002
300.0034018
300.0034039
300.0034064
300.0034096
300.0034133
300.0034176
300.0034227
300.0034283
300.0034349
300.0034395
300.0034492
300.0034447
300.0033766
300.0033759
300.0033732
300.0033734
300.0033748
300.0033767
300.0033792
300.003382
300.0033854
300.0033895
300.003394
300.0033988
300.0034034
300.0034073
300.0034096
300.0034078
300.003406
300.0034045
300.0034029
300.0034029
300.0034035
300.0034046
300.0034064
300.0034084
300.0034112
300.0034145
300.0034184
300.0034231
300.0034283
300.0034343
300.0034386
300.0034466
300.0034439
300.0033744
300.0033737
300.0033711
300.0033714
300.003373
300.0033753
300.0033781
300.0033817
300.003386
300.0033912
300.0033974
300.0034046
300.0034129
300.0034192
300.0034273
300.0034156
300.0034144
300.0034103
300.0034075
300.0034066
300.0034067
300.0034074
300.0034089
300.0034101
300.0034123
300.0034149
300.0034182
300.0034221
300.0034266
300.0034316
300.0034357
300.0034419
300.0034411
300.0033723
300.0033716
300.0033691
300.0033695
300.0033713
300.0033738
300.0033771
300.0033812
300.0033863
300.0033925
300.0033996
300.0034071
300.0034139
300.0034208
300.0034265
300.0034232
300.003419
300.0034156
300.0034118
300.0034104
300.0034098
300.0034099
300.0034107
300.0034112
300.0034128
300.0034146
300.0034171
300.0034203
300.003424
300.0034281
300.0034318
300.0034367
300.0034373
300.0033702
300.0033695
300.0033671
300.0033675
300.0033694
300.0033722
300.0033757
300.0033803
300.0033863
300.0033941
300.0034044
300.0034179
300.0034347
300.0034466
300.0034857
300.003437
300.0034375
300.0034219
300.0034158
300.0034129
300.0034119
300.0034116
300.0034121
300.0034117
300.0034127
300.0034136
300.0034155
300.0034179
300.0034208
300.0034242
300.0034274
300.0034314
300.003433
300.0033682
300.0033675
300.003365
300.0033655
300.0033675
300.0033702
300.0033738
300.0033784
300.0033843
300.0033915
300.0034003
300.0034102
300.0034206
300.0034287
300.0034425
300.0034268
300.0034265
300.0034192
300.0034148
300.0034126
300.0034119
300.0034117
300.0034116
300.003411
300.0034114
300.0034119
300.0034132
300.003415
300.0034174
300.0034202
300.003423
300.0034263
300.0034284
300.0033661
300.0033655
300.003363
300.0033634
300.0033653
300.003368
300.0033715
300.0033758
300.0033812