/*--------------------------------*- C++ -*----------------------------------*\
  =========                 |
  \\      /  F ield         | OpenFOAM: The Open Source CFD Toolbox
   \\    /   O peration     | Website:  https://openfoam.org
    \\  /    A nd           | Version:  8
     \\/     M anipulation  |
\*---------------------------------------------------------------------------*/
FoamFile
{
    version     2.0;
    format      ascii;
    class       volVectorField;
    location    "0.2";
    object      U;
}
// * * * * * * * * * * * * * * * * * * * * * * * * * * * * * * * * * * * * * //

dimensions      [0 1 -1 0 0 0 0];

internalField   nonuniform List<vector> 
67286
(
(-0.0005397242138 -0.00342660447 -7.114662959e-05)
(-0.001620279075 -0.003455754278 -0.0001033424556)
(-0.002648041869 -0.003447512207 -0.0001631645691)
(-0.003586058039 -0.003426667481 -0.0002560735143)
(-0.004388820248 -0.003385821215 -0.0003849252945)
(-0.005006864255 -0.003317502837 -0.0005508856108)
(-0.005381218991 -0.003214814509 -0.0007529180027)
(-0.005442202753 -0.003073554716 -0.0009838432053)
(-0.005117259524 -0.002896678568 -0.001227772526)
(-0.00435360097 -0.002700127113 -0.00146014826)
(-0.003154310539 -0.002516431067 -0.001646532536)
(-0.001635701924 -0.002411613287 -0.001725822589)
(0.0001100846897 -0.002398647542 -0.001701114918)
(0.001645378603 -0.002694190319 -0.00138393645)
(0.002639109512 -0.003004299368 -0.001079195838)
(0.003196448159 -0.003332811435 -0.0007667970833)
(0.003337075706 -0.003646004086 -0.0004819299397)
(0.003145039838 -0.00392661393 -0.000241574464)
(0.002729457066 -0.004176031469 -5.377236786e-05)
(0.002183172047 -0.004402023032 8.099404673e-05)
(0.001580383072 -0.004611506809 0.0001720552589)
(0.0009750416509 -0.004813815428 0.0002274270091)
(0.00040338302 -0.005016962968 0.0002547064854)
(-0.0001018856315 -0.005224948973 0.0002623911825)
(-0.0005214390298 -0.005438026697 0.0002561819554)
(-0.0008510766222 -0.005664619601 0.0002407643931)
(-0.001083488915 -0.005900260185 0.0002195212332)
(-0.001215763933 -0.006143080471 0.0001955023591)
(-0.0005332172845 -0.002084090688 -0.0001051923601)
(-0.001599167913 -0.002084163342 -0.0001367020063)
(-0.002606987668 -0.002044890681 -0.000194166721)
(-0.003518011957 -0.001977494658 -0.0002823179184)
(-0.004287505034 -0.001874572821 -0.000403169893)
(-0.004869724315 -0.001728617603 -0.0005580608606)
(-0.00521424637 -0.001536639246 -0.0007490622796)
(-0.005265615189 -0.001305215439 -0.0009759548327)
(-0.004967424827 -0.001056454525 -0.001231244303)
(-0.004271184122 -0.000830783268 -0.001488046035)
(-0.00316750219 -0.0006841680562 -0.001712510094)
(-0.001742352491 -0.0006687454359 -0.001831750228)
(-7.518214724e-05 -0.0008124506124 -0.001837122947)
(0.001399903918 -0.001180618608 -0.001534070875)
(0.002338985218 -0.001653217673 -0.00117407474)
(0.002844364065 -0.002166665768 -0.0008036148384)
(0.002963724113 -0.002676674982 -0.0004755578844)
(0.002779777115 -0.00314996412 -0.0002181262185)
(0.002387009084 -0.003574874877 -3.156568981e-05)
(0.001866156367 -0.003953289395 9.558512944e-05)
(0.00128409392 -0.00429273324 0.0001763351569)
(0.0006910950106 -0.004604670256 0.000221553873)
(0.0001253455138 -0.004901876384 0.0002395547487)
(-0.0003790891685 -0.005188139048 0.0002383114528)
(-0.0008046445611 -0.00547622401 0.0002235327713)
(-0.001142456819 -0.005769726845 0.0001993344018)
(-0.001380938715 -0.006068094644 0.0001692592099)
(-0.00151592804 -0.006369514143 0.000136704207)
(-0.001548829589 -0.006668688576 0.0001043743953)
(-0.001487558575 -0.006961171059 7.42970542e-05)
(-0.001346893065 -0.007241499191 4.831339367e-05)
(-0.001145686859 -0.007509968404 2.67348221e-05)
(-0.0005201745265 -0.0007126635744 -0.00011863755)
(-0.00155781233 -0.0006884665805 -0.0001477597242)
(-0.002531478827 -0.0006309720814 -0.0001993058829)
(-0.003400237739 -0.0005400211254 -0.0002759106664)
(-0.004117289642 -0.0004101412741 -0.0003752443934)
(-0.004638160513 -0.0002372833274 -0.0004933316691)
(-0.004919255045 -2.184274529e-05 -0.0006266024517)
(-0.004918281173 0.0002264442635 -0.0007716129852)
(-0.004599618833 0.0004838575181 -0.0009224839495)
(-0.003947424027 0.0007088772081 -0.001067962569)
(-0.00297753641 0.0008389409811 -0.001171366939)
(-0.001775673112 0.0008042220974 -0.00119740045)
(-0.0004483547358 0.0005585948948 -0.001130442746)
(0.0007281711303 7.27786425e-06 -0.0009090964624)
(0.001563379405 -0.0006346294462 -0.0006716378999)
(0.002079910802 -0.001312284688 -0.000456958811)
(0.002264335003 -0.001970465769 -0.0002609373775)
(0.002165133842 -0.002576387676 -9.517451553e-05)
(0.001853058341 -0.003115970339 3.171481148e-05)
(0.001400022572 -0.003593395821 0.0001224889074)
(0.0008697640473 -0.004015316793 0.0001796106834)
(0.0003105112028 -0.004398637859 0.0002078414344)
(-0.0002331514986 -0.004754383522 0.0002123840601)
(-0.0007284373157 -0.00509405544 0.0001993076045)
(-0.001155898616 -0.0054322081 0.0001725416966)
(-0.001496750686 -0.005772571417 0.0001360175369)
(-0.001737799517 -0.006116545291 9.342042108e-05)
(-0.001870947901 -0.006461883961 4.794753949e-05)
(-0.001895995198 -0.006801108986 3.098739634e-06)
(-0.001819844222 -0.007126398774 -3.782760925e-05)
(-0.00165907434 -0.007428842909 -7.219084796e-05)
(-0.001439213869 -0.007705459965 -9.937962204e-05)
(-0.0005026841087 0.0006297369966 -0.0001104052726)
(-0.001505888063 0.0006695053416 -0.0001372650427)
(-0.002445050469 0.0007284247406 -0.0001841145192)
(-0.003277111676 0.0008164679184 -0.0002521545744)
(-0.003957269468 0.0009333448254 -0.0003383127002)
(-0.004446182156 0.001075170012 -0.0004367536)
(-0.004708447417 0.001232717083 -0.0005427299332)
(-0.004714043105 0.001388486202 -0.0006514541566)
(-0.004441229063 0.001515126115 -0.0007576112274)
(-0.003883878879 0.001575149708 -0.0008514572807)
(-0.003063480607 0.00152644069 -0.0009149139276)
(-0.002048111247 0.00132436205 -0.0009269965114)
(-0.0009444521425 0.0009511762502 -0.0008753529519)
(9.817284423e-05 0.0003775661164 -0.0007267052452)
(0.0008994686042 -0.0002682243687 -0.0005615567181)
(0.001387076257 -0.0009561256744 -0.0003664577485)
(0.001584675461 -0.001632149377 -0.0001888071159)
(0.001530102206 -0.002263038909 -4.578084536e-05)
(0.001277514239 -0.002830434989 5.861727725e-05)
(0.0008850214378 -0.003333689156 0.0001290661178)
(0.0004056230809 -0.00378071184 0.0001675994409)
(-0.0001151846288 -0.004185815799 0.000180029527)
(-0.0006333053136 -0.004559567788 0.0001705988807)
(-0.001118538689 -0.004918898577 0.0001435798899)
(-0.001544853251 -0.005274507688 0.0001024157589)
(-0.00188901506 -0.005633557172 5.045775551e-05)
(-0.00213292771 -0.005997652109 -8.649811507e-06)
(-0.002262726112 -0.006363400696 -7.184705588e-05)
(-0.002273753441 -0.006722966651 -0.0001348267769)
(-0.002172352846 -0.007062604815 -0.0001926414579)
(-0.001978592686 -0.007370146468 -0.0002399177997)
(-0.001722058352 -0.007637144256 -0.0002760968544)
(-0.001450413789 -0.007859123649 -0.0002910520113)
(-0.0004880793187 0.001890734445 -7.629361712e-05)
(-0.001461496634 0.001937500676 -9.912022873e-05)
(-0.002371374389 0.001983022451 -0.0001380798679)
(-0.00317668825 0.002047314514 -0.0001938864109)
(-0.003835030337 0.002125097941 -0.0002622969491)
(-0.004311497837 0.002208054537 -0.0003371751068)
(-0.004577353092 0.002282901403 -0.0004132060951)
(-0.004610084237 0.002331128624 -0.0004857280743)
(-0.004395870846 0.002328642782 -0.0005501381537)
(-0.00393496115 0.002246372206 -0.0006001704237)
(-0.003250997413 0.002053296149 -0.0006261269984)
(-0.002403179826 0.001722597645 -0.0006166048251)
(-0.001481183563 0.001245101418 -0.0005636344948)
(-0.00060210846 0.0006259063254 -0.0004605936097)
(0.0001084759944 -8.994526445e-05 -0.0003249896067)
(0.0005920146565 -0.0008144152568 -0.0002027159785)
(0.0008386195998 -0.001494830164 -8.957518858e-05)
(0.0008579005334 -0.002114844067 4.567547931e-06)
(0.0006850545124 -0.002662108906 7.454544791e-05)
(0.000363340631 -0.003139700756 0.0001199248836)
(-5.98449887e-05 -0.003563179091 0.0001393783164)
(-0.0005391761667 -0.003942170044 0.0001361409473)
(-0.00103288289 -0.004293039092 0.0001125026238)
(-0.0015083845 -0.004630471825 7.087994864e-05)
(-0.001935541294 -0.004965975739 1.383903854e-05)
(-0.002285653328 -0.005307488571 -5.600452134e-05)
(-0.002534006794 -0.005658030819 -0.0001360510831)
(-0.002662211265 -0.006014027963 -0.000222391235)
(-0.002658770359 -0.006366766026 -0.0003095237172)
(-0.00252586178 -0.006699038613 -0.0003904548143)
(-0.002285846617 -0.006992361863 -0.0004555323795)
(-0.00197264696 -0.007232531413 -0.0005056709385)
(-0.001658685235 -0.007402035666 -0.0005113906318)
(-0.0004778683545 0.003041525177 -2.147608541e-05)
(-0.001431546157 0.003091107546 -4.024505329e-05)
(-0.002325659034 0.003114195673 -7.194799675e-05)
(-0.003122138112 0.003140141756 -0.0001171151168)
(-0.003781916419 0.003159903724 -0.0001714933834)
(-0.004274035622 0.003160672683 -0.0002293370068)
(-0.004574194463 0.003126412457 -0.0002858346737)
(-0.004664163324 0.00303822471 -0.000337148445)
(-0.004533723484 0.002875222777 -0.0003802348292)
(-0.004184305471 0.002616356097 -0.0004117389124)
(-0.003634922641 0.002244244063 -0.0004269358012)
(-0.002929736889 0.001751261324 -0.0004201118744)
(-0.002140694177 0.001148374417 -0.0003868742927)
(-0.00135812246 0.0004618821303 -0.0003249172516)
(-0.000671732812 -0.0002587710932 -0.0002456098126)
(-0.0001454889732 -0.0009485067747 -0.0001536681099)
(0.000166021485 -0.001568386618 -6.771499362e-05)
(0.0002567053227 -0.002111913611 2.134323305e-06)
(0.0001594790143 -0.002576494445 5.365449165e-05)
(-9.798021378e-05 -0.002976942117 8.275218867e-05)
(-0.0004698220429 -0.003325497567 8.858384467e-05)
(-0.0009114138627 -0.003634413578 7.293200114e-05)
(-0.001384198024 -0.003918942493 3.694670263e-05)
(-0.001852674659 -0.00419219018 -1.771450877e-05)
(-0.002283442978 -0.00446602519 -9.052001963e-05)
(-0.002644011366 -0.00474964208 -0.0001798162821)
(-0.002903725557 -0.005047993025 -0.0002834076132)
(-0.003035921089 -0.005358919577 -0.0003971902108)
(-0.003021057922 -0.00567278395 -0.0005144180309)
(-0.002854839974 -0.005970171793 -0.000625077083)
(-0.002560598325 -0.006225356683 -0.0007125253879)
(-0.002168997568 -0.006423613003 -0.0007843018829)
(-0.00179237243 -0.00651912973 -0.0007695624055)
(-0.0004744309345 0.004059178306 4.784282118e-05)
(-0.001422885208 0.00410768327 3.284715392e-05)
(-0.002318467395 0.004102940478 7.39924839e-06)
(-0.003126852255 0.004083651754 -2.911615495e-05)
(-0.003812636262 0.004037762812 -7.303596218e-05)
(-0.004348039748 0.003949473002 -0.0001197009974)
(-0.004710942982 0.003800998734 -0.0001655506451)
(-0.004884122461 0.003573995252 -0.0002078890642)
(-0.004856102329 0.003251709914 -0.0002451257254)
(-0.004623302876 0.002822211277 -0.0002758817125)
(-0.004194719373 0.002282110336 -0.0002977952869)
(-0.003598637915 0.001641395533 -0.000307141739)
(-0.002887752463 0.0009281796191 -0.0002997146209)
(-0.002137157822 0.0001878691993 -0.0002725821495)
(-0.001430132534 -0.000530077938 -0.0002252628652)
(-0.000836630176 -0.001172695587 -0.0001674750126)
(-0.0004304892299 -0.001710539619 -0.0001006505639)
(-0.0002418365042 -0.00214860022 -4.704440134e-05)
(-0.0002586132868 -0.002496634041 -6.327093395e-06)
(-0.0004537791702 -0.002782097346 1.365349116e-05)
(-0.0007771235392 -0.003018755798 1.154703347e-05)
(-0.001186598875 -0.003220176586 -1.12608822e-05)
(-0.001641394712 -0.003400277649 -5.561285961e-05)
(-0.002105232265 -0.003570607271 -0.0001206198819)
(-0.002543704309 -0.003742975341 -0.0002067264961)
(-0.002920561804 -0.003927986363 -0.0003137556978)
(-0.003198713218 -0.004132349058 -0.0004407363261)
(-0.003343843287 -0.004356263396 -0.0005836696968)
(-0.00332562663 -0.004591563023 -0.000734588649)
(-0.003128703001 -0.004818606082 -0.0008808937623)
(-0.002780532482 -0.00500749316 -0.0009940626569)
(-0.002293155989 -0.005146887294 -0.001099759966)
(-0.001838491447 -0.005158997464 -0.00104507916)
(-0.0004787393702 0.004938570651 0.0001251088994)
(-0.001437906548 0.004984637786 0.0001132556167)
(-0.002352623319 0.004951773119 9.254497595e-05)
(-0.003193282121 0.004888014605 6.193295698e-05)
(-0.00392830305 0.004779321445 2.417653543e-05)
(-0.004532336317 0.004608101461 -1.742173476e-05)
(-0.004983823057 0.004355387572 -6.096760681e-05)
(-0.005263405106 0.004002921325 -0.0001053036857)
(-0.005353865315 0.003536987658 -0.0001504171259)
(-0.005242054361 0.002952646285 -0.0001962764176)
(-0.004923074023 0.002257665535 -0.0002414715791)
(-0.004406726066 0.001477075794 -0.0002821961488)
(-0.003726327964 0.000656065818 -0.0003120254683)
(-0.002948924255 -0.0001424581783 -0.0003239066025)
(-0.002155963943 -0.0008502719409 -0.0003111766766)
(-0.001433270628 -0.001420527603 -0.0002736321629)
(-0.0008986333495 -0.001834911034 -0.000209836107)
(-0.0006008840021 -0.002137228282 -0.000159120536)
(-0.0005316347695 -0.002339562766 -0.0001130951477)
(-0.0006675835651 -0.002482759046 -9.273682508e-05)
(-0.0009477340973 -0.002582974709 -9.452718231e-05)
(-0.001327627937 -0.002651992905 -0.0001187708679)
(-0.00176650005 -0.002701417077 -0.0001652494592)
(-0.002226546953 -0.002740114803 -0.000233998452)
(-0.002673337227 -0.002779605245 -0.0003271668378)
(-0.00306881269 -0.002830580038 -0.0004461838497)
(-0.003370977046 -0.002902365147 -0.0005914432957)
(-0.00353692249 -0.002999033921 -0.0007595583591)
(-0.003525464202 -0.003115767276 -0.0009418417539)
(-0.003308610117 -0.003237883584 -0.001123435019)
(-0.002918728026 -0.003335457281 -0.001259542106)
(-0.002334297172 -0.003406326846 -0.001405629853)
(-0.001801849975 -0.00333442552 -0.00129775421)
(-0.0004902671876 0.005687413824 0.0002043974077)
(-0.001474977841 0.005732232027 0.0001948919677)
(-0.00242475439 0.005675978547 0.0001772165976)
(-0.003315023789 0.005575820516 0.0001497205518)
(-0.004118010448 0.005416762042 0.0001140478049)
(-0.00481053257 0.005180117999 7.170672649e-05)
(-0.005371162054 0.004846140252 2.282731122e-05)
(-0.005776947426 0.00439651641 -3.28955561e-05)
(-0.006001880265 0.003817736058 -9.795352594e-05)
(-0.006018941557 0.003109756183 -0.0001736378106)
(-0.005804431885 0.002289165371 -0.0002592736931)
(-0.005345820696 0.001394494954 -0.0003500997634)
(-0.004654487938 0.0004880915844 -0.0004351259217)
(-0.003780428124 -0.0003487754309 -0.0004970794453)
(-0.002824409082 -0.001037229286 -0.0005176646966)
(-0.001910816377 -0.001525306912 -0.0004915858492)
(-0.001212381487 -0.001805358843 -0.0004054532892)
(-0.0007923978129 -0.001959597865 -0.0003427846796)
(-0.0006355868987 -0.002001817739 -0.0002739674038)
(-0.0007193504058 -0.001996329273 -0.0002409276292)
(-0.0009617701191 -0.001952961382 -0.0002332975186)
(-0.001315833047 -0.001883399225 -0.0002495239888)
(-0.001737548625 -0.001794645638 -0.0002901956442)
(-0.002190546839 -0.001689733179 -0.0003533924917)
(-0.002642411141 -0.001578147999 -0.0004441762548)
(-0.003054497793 -0.001469671427 -0.0005654476156)
(-0.003382501091 -0.001375023786 -0.0007197252766)
(-0.003576662513 -0.00130146318 -0.0009060573863)
(-0.00358620301 -0.001250633447 -0.001116253565)
(-0.003368378029 -0.001217191483 -0.001335145319)
(-0.002964274462 -0.001183322263 -0.001493294376)
(-0.00229201316 -0.001148441752 -0.001700830545)
(-0.001689575515 -0.001039612181 -0.00151198419)
(-0.0005071155674 0.006320316993 0.0002809934339)
(-0.001528130664 0.006367212079 0.0002730705905)
(-0.002524246233 0.006296860404 0.0002568173889)
(-0.003476108838 0.006175187317 0.0002299541145)
(-0.004359990254 0.00598697731 0.000192858246)
(-0.005154850839 0.00571301599 0.0001451482451)
(-0.005838688444 0.005332746678 8.477158858e-05)
(-0.006385334321 0.004827415974 8.768868861e-06)
(-0.006757639833 0.004182587072 -8.635074779e-05)
(-0.006909615637 0.003398535246 -0.0002046023576)
(-0.006794281963 0.002494099943 -0.0003447801254)
(-0.006371528559 0.001513295406 -0.0004993656391)
(-0.005628070073 0.0005292950551 -0.0006523425838)
(-0.004612924269 -0.0003585669802 -0.0007815157155)
(-0.003439471114 -0.001031544582 -0.0008406659154)
(-0.002271287751 -0.001426174565 -0.0008085031293)
(-0.001372461264 -0.001533691616 -0.000685082493)
(-0.0008152491299 -0.001530810948 -0.0005942467101)
(-0.0005717406939 -0.001400231971 -0.0004868974028)
(-0.0006143050743 -0.001252050257 -0.0004304360314)
(-0.000824544332 -0.001075228624 -0.0004029055262)
(-0.001154914516 -0.0008773301872 -0.0004017760741)
(-0.001555203497 -0.0006565680124 -0.0004271679098)
(-0.001990322614 -0.000407938041 -0.0004725016772)
(-0.002433215619 -0.0001447336265 -0.0005477303735)
(-0.002847172653 0.0001258407885 -0.0006542409234)
(-0.003187444457 0.0003928952196 -0.0007962614815)
(-0.003401208242 0.0006471146834 -0.0009732914123)
(-0.003433541917 0.0008815899491 -0.001178097418)
(-0.003235227306 0.001091249153 -0.001395037387)
(-0.002843779996 0.001271470022 -0.001558773323)
(-0.002177630846 0.001429562458 -0.001765595539)
(-0.001578600466 0.001531969922 -0.001568859935)
(-0.0005263713042 0.006853774039 0.0003518051334)
(-0.001588367332 0.006907487763 0.0003448518717)
(-0.002635319228 0.006835221808 0.0003287606673)
(-0.003653120232 0.006711426953 0.0003006683165)
(-0.00462220552 0.00652170567 0.0002596147697)
(-0.005524255538 0.006247493888 0.0002031811252)
(-0.006337299309 0.005868567755 0.0001266704102)
(-0.00703170804 0.005365915761 2.398068253e-05)
(-0.007560714606 0.004724907669 -0.0001116043434)
(-0.007860986013 0.003944065319 -0.0002891299694)
(-0.007861108 0.00304075657 -0.0005105069767)
(-0.007489278194 0.002059153701 -0.0007680007531)
(-0.006696535371 0.001076937197 -0.001035386864)
(-0.005483215253 0.0002039802739 -0.001258753638)
(-0.003989161543 -0.0004200816485 -0.001385986919)
(-0.002458713482 -0.0006785390452 -0.001354092573)
(-0.001326545551 -0.0006629221034 -0.001107060484)
(-0.0006468039879 -0.0005433911279 -0.0009692833969)
(-0.0003314668279 -0.0003157536844 -0.0007662527264)
(-0.0003647850464 -8.418792796e-05 -0.0006666776272)
(-0.0005529813653 0.0001700888851 -0.0006007263365)
(-0.0008591555241 0.0004469801266 -0.0005714290697)
(-0.001225583252 0.0007513222619 -0.0005765741517)
(-0.001632311053 0.001100486333 -0.0005918256765)
(-0.002060241921 0.001474483403 -0.0006378861124)
(-0.002468120974 0.001869313127 -0.000712915193)
(-0.002813956291 0.002271913589 -0.0008242509204)
(-0.003043639161 0.002671152454 -0.0009717023812)
(-0.003101767503 0.00305450754 -0.001147203086)
(-0.002943088787 0.003406255225 -0.001334198715)
(-0.002595220053 0.003703405303 -0.001476113218)
(-0.002007790798 0.003948670722 -0.00164111819)
(-0.001472847261 0.004055922077 -0.001483166793)
(-0.0005445374331 0.007301642291 0.0004152205552)
(-0.001644964832 0.007367425658 0.0004088735717)
(-0.002739286162 0.007306517562 0.0003922341799)
(-0.003818165875 0.007201699076 0.0003619488585)
(-0.004866099782 0.007040816823 0.0003158232197)
(-0.00586737675 0.006807718044 0.0002494399565)
(-0.006800438549 0.006484578304 0.000155537366)
(-0.00763301226 0.006053790129 2.480211279e-05)
(-0.008308826795 0.00550021082 -0.0001528748044)
(-0.008746963224 0.004819247452 -0.0003901211234)
(-0.008850639049 0.004021786993 -0.0006911270316)
(-0.008513948209 0.003141552596 -0.001047300838)
(-0.007651946833 0.002248095506 -0.001425736527)
(-0.006246078659 0.00144887046 -0.00176241164)
(-0.004402266839 0.0008731315644 -0.001973839273)
(-0.002536319192 0.0006675810472 -0.001798505779)
(-0.001225138577 0.0008036274945 -0.001492725609)
(-0.0004366011477 0.0009741069878 -0.001267700844)
(-7.086532834e-05 0.001263243271 -0.001024976537)
(-8.434089662e-05 0.001517089953 -0.0008867282731)
(-0.0002451126444 0.001789327229 -0.0007962138975)
(-0.0005208255448 0.00208200928 -0.0007388299162)
(-0.0008422261785 0.002402207605 -0.0007240783032)
(-0.001201350607 0.002786856304 -0.000696092126)
(-0.001594436124 0.003206932937 -0.0007064598455)
(-0.001977201944 0.003665532897 -0.0007383582857)
(-0.002312679587 0.004146516005 -0.0008058326717)
(-0.002547446128 0.004635448322 -0.0009073124807)
(-0.00263160062 0.005112877858 -0.001035001537)
(-0.002527329722 0.005553834094 -0.001173393859)
(-0.002252065644 0.005925737944 -0.001280821533)
(-0.00179303968 0.006219094498 -0.001392030677)
(-0.001365065246 0.006345659842 -0.001288174056)
(-0.000558100715 0.007671990391 0.0004708196921)
(-0.001687139133 0.007754505028 0.0004649932896)
(-0.002817323773 0.007717153602 0.0004477165768)
(-0.003943012393 0.007650749708 0.000415331799)
(-0.005051999191 0.00754682417 0.0003646635601)
(-0.00613106508 0.007393803617 0.0002895878172)
(-0.007159794191 0.007178721956 0.0001803291131)
(-0.008105615722 0.006888491202 2.398586583e-05)
(-0.008907587772 0.006510644116 -0.0001944573481)
(-0.009473942688 0.006036655915 -0.0004934864847)
(-0.00969146709 0.005465657516 -0.0008812093433)
(-0.009424353303 0.004806698823 -0.001347069116)
(-0.008543206923 0.004097417829 -0.001848233962)
(-0.006983286317 0.00342402502 -0.00230757877)
(-0.004841638719 0.002851304357 -0.002585238336)
(-0.002534661994 0.002952704898 -0.002540414078)
(-0.0009921658681 0.003042486582 -0.002002180581)
(-0.0001453536056 0.003194504056 -0.001730015415)
(0.000260925144 0.003377820683 -0.001341892316)
(0.0002091844613 0.003547559386 -0.001132872877)
(6.335561786e-05 0.003736029633 -0.0009868626018)
(-0.0001905088803 0.003964234666 -0.0008892686581)
(-0.0004566048991 0.004230643631 -0.0008495355953)
(-0.000754377983 0.004590810286 -0.0007718672893)
(-0.00110163167 0.004993432959 -0.0007463581081)
(-0.001443067312 0.005450933457 -0.0007306467897)
(-0.001755817327 0.005942664786 -0.0007505039254)
(-0.001989379411 0.006451050385 -0.0008016559651)
(-0.002099858343 0.006952369148 -0.0008778028863)
(-0.002056304301 0.007417508167 -0.0009657824451)
(-0.001869478074 0.007811961801 -0.001036615379)
(-0.001549669167 0.008116820391 -0.001102879698)
(-0.001241367449 0.00826830021 -0.001042794017)
(-0.0005641585667 0.007965939102 0.0005189766079)
(-0.001705932721 0.008068206573 0.000513831357)
(-0.002853728787 0.008063322335 0.0004963910742)
(-0.004004015313 0.008049467093 0.0004630045383)
(-0.005146397628 0.00802283191 0.0004100322405)
(-0.006268939921 0.007977962355 0.0003303976657)
(-0.007351709684 0.00790934767 0.0002128654155)
(-0.008361868879 0.007812355911 4.206752504e-05)
(-0.00923821129 0.00768467209 -0.0002014295157)
(-0.00988710349 0.007522196617 -0.0005439207985)
(-0.01019260845 0.007327774693 -0.001006555)
(-0.01000680201 0.007106907978 -0.001599936091)
(-0.009160572823 0.006871059894 -0.002298937483)
(-0.007605599433 0.006641225508 -0.002967549833)
(-0.004916760374 0.006425820553 -0.003785768539)
(-0.002327773293 0.006382979477 -0.002812730527)
(-0.0009612861639 0.006168088286 -0.002359855686)
(-7.060971473e-05 0.006075325203 -0.001876010138)
(0.0003144641505 0.005943599806 -0.001474420879)
(0.0003065810066 0.005903679258 -0.001235715201)
(0.0002095610175 0.005915106288 -0.001082582836)
(1.88442489e-05 0.006006422277 -0.0009731168337)
(-0.0001586036534 0.006169751081 -0.0009237478589)
(-0.0003691453237 0.006434234095 -0.0008036979083)
(-0.0006560492342 0.006759134791 -0.0007488299394)
(-0.0009416112855 0.007150649269 -0.0006884122953)
(-0.001221587957 0.007586847586 -0.000665786381)
(-0.001445903264 0.008049938021 -0.0006713883592)
(-0.001577253718 0.008514469489 -0.0007014610566)
(-0.001589572737 0.008950555054 -0.0007457688649)
(-0.001489179354 0.009325601123 -0.0007840040164)
(-0.001295206041 0.00961765758 -0.0008181680299)
(-0.001098002932 0.009787598523 -0.0007861566828)
(-0.0005609249448 0.008178405506 0.0005604046198)
(-0.001695879372 0.008301090988 0.0005562608049)
(-0.002839051427 0.008332687651 0.0005394858774)
(-0.003987219037 0.008377424917 0.0005068214171)
(-0.005129995242 0.008436102892 0.0004548053192)
(-0.006254857119 0.008509313168 0.0003765139861)
(-0.007340451271 0.008598987865 0.0002612174192)
(-0.00835076416 0.008708994778 9.477600084e-05)
(-0.009224208882 0.008846816263 -0.0001396524126)
(-0.00986341408 0.009013485978 -0.0004626306056)
(-0.0101446897 0.009215000948 -0.0008849843754)
(-0.00992282433 0.009453259103 -0.001397328408)
(-0.009051500406 0.009709527607 -0.001956241424)
(-0.007469217161 0.009928488394 -0.002461226771)
(-0.005123301123 0.01007731435 -0.002864860204)
(-0.002815462576 0.009650122865 -0.002476374333)
(-0.00132765508 0.009228072276 -0.002099193674)
(-0.0003901622918 0.008843651429 -0.001736261927)
(7.374416634e-05 0.008468643273 -0.001402696537)
(0.0001781694692 0.008222928887 -0.001195404858)
(0.0001755049568 0.008067966475 -0.001061217907)
(8.734808393e-05 0.00801427317 -0.0009587241543)
(1.016134676e-05 0.008061070335 -0.0008894684663)
(-0.0001113439854 0.00818745595 -0.0007677340981)
(-0.0003200245765 0.00839745088 -0.0006901709612)
(-0.0005400515032 0.008677612489 -0.0006045707624)
(-0.0007747317403 0.009012038795 -0.0005531967744)
(-0.0009773942762 0.009384855323 -0.0005260861203)
(-0.001117351208 0.009770992015 -0.0005219392878)
(-0.001171429148 0.01014257402 -0.0005335341796)
(-0.001141733087 0.01047056999 -0.000546617642)
(-0.001045677506 0.01073375305 -0.0005607606617)
(-0.0009381233732 0.01091082671 -0.0005443077586)
(-0.0005480023281 0.008300519674 0.0005958771233)
(-0.001655871709 0.008441762519 0.000593088582)
(-0.002771755641 0.008508566834 0.0005778487033)
(-0.003891234029 0.008609181445 0.0005476167431)
(-0.005002508553 0.008747881418 0.0004996406329)
(-0.006091231138 0.008929541716 0.0004279850168)
(-0.007133854864 0.009160772126 0.0003236329827)
(-0.00809153128 0.00944969466 0.0001752950837)
(-0.008906037708 0.00980549596 -2.946427908e-05)
(-0.009485476292 0.01023066122 -0.0003045597524)
(-0.009712872171 0.01071530738 -0.0006556118593)
(-0.009467293567 0.01123831964 -0.001070888146)
(-0.008642025091 0.01174614232 -0.001511936048)
(-0.00720425956 0.01214571867 -0.001904708941)
(-0.00522030295 0.01232781955 -0.002176938826)
(-0.003254330878 0.01204388824 -0.001948773227)
(-0.001841049817 0.01158210477 -0.001684036385)
(-0.0008990645677 0.01109688818 -0.001427473127)
(-0.0003626481567 0.01060585128 -0.001184059254)
(-0.0001304888395 0.01022903462 -0.001029526635)
(-1.803429956e-05 0.00995268384 -0.0009263835982)
(1.135640867e-05 0.009776867945 -0.0008401477367)
(3.035780246e-05 0.009708224003 -0.0007706659259)
(-2.142072612e-06 0.009700890048 -0.0006618599385)
(-0.0001212974235 0.009786499829 -0.0005749047218)
(-0.0002711190123 0.009941480424 -0.0004842491799)
(-0.0004500277216 0.01015734589 -0.0004191530238)
(-0.0006179383704 0.01042014251 -0.0003740590951)
(-0.0007506493785 0.01070851619 -0.0003490742066)
(-0.000826404662 0.01099854447 -0.0003397633674)
(-0.0008442702828 0.01126561069 -0.0003365635685)
(-0.0008149378164 0.01149157675 -0.0003387256539)
(-0.0007698783886 0.01166392973 -0.0003302433689)
(-0.000526304607 0.008322575069 0.0006259988368)
(-0.001588912339 0.008478399134 0.0006248353404)
(-0.002657713216 0.008574793985 0.0006117889325)
(-0.003726183825 0.008721601292 0.0005852465071)
(-0.004780499044 0.008924884941 0.0005434226804)
(-0.005804409225 0.009191370955 0.0004817304657)
(-0.006772977209 0.009528965826 0.0003932410325)
(-0.007647382894 0.009945657981 0.0002697165001)
(-0.008372217574 0.01044721248 0.0001025996955)
(-0.008870855794 0.01103382871 -0.0001148434628)
(-0.009045381801 0.01168394555 -0.0003855492709)
(-0.008798232057 0.01235722962 -0.000698308147)
(-0.008061570771 0.01298685054 -0.001021444752)
(-0.006834651162 0.01347305314 -0.001300582708)
(-0.005234185764 0.01369956756 -0.001468933045)
(-0.003628813265 0.01352025023 -0.001374557799)
(-0.002360693772 0.01311923568 -0.001213970695)
(-0.001455152539 0.01264213957 -0.001050263804)
(-0.000872998566 0.01214312577 -0.0008946948198)
(-0.0005343753279 0.01171948594 -0.0007906136404)
(-0.0003177621544 0.01138172663 -0.0007189503397)
(-0.000179326649 0.01112746284 -0.000651660154)
(-7.271717841e-05 0.01096785825 -0.0005945533394)
(-2.593600094e-05 0.01085818167 -0.0005034420414)
(-5.754846258e-05 0.01083424746 -0.0004224430124)
(-0.000135479846 0.0108753187 -0.0003405548291)
(-0.0002525497037 0.01098008288 -0.0002735582973)
(-0.0003761156868 0.01113493756 -0.0002227660547)
(-0.0004863749924 0.01132526526 -0.0001884760402)
(-0.0005637019393 0.01153191479 -0.0001683454716)
(-0.0006038980214 0.01173510171 -0.000156400823)
(-0.0006111658447 0.01192092911 -0.0001520437864)
(-0.0006011306582 0.01208069075 -0.0001474876681)
(-0.0004976898949 0.008236886537 0.0006513026929)
(-0.001500895715 0.008402003619 0.0006518979308)
(-0.002507729993 0.008519764373 0.0006413835573)
(-0.003509351785 0.008699180229 0.0006191259056)
(-0.004490020811 0.00894655826 0.0005843678307)
(-0.005432211608 0.009268424427 0.0005338705468)
(-0.006310960408 0.00967152932 0.0004626671412)
(-0.007089753818 0.01016119871 0.0003651689456)
(-0.007718903819 0.01073845726 0.0002360664626)
(-0.00813626258 0.01139622329 7.198366764e-05)
(-0.008269127771 0.01211078624 -0.0001254447218)
(-0.008045923404 0.01283327016 -0.0003481778093)
(-0.007424752094 0.01349099131 -0.0005735435169)
(-0.006426711977 0.01399364572 -0.0007646305108)
(-0.005168665197 0.01424440974 -0.0008753516558)
(-0.003887282406 0.0141723719 -0.0008511771477)
(-0.002798895513 0.01387752899 -0.0007691363433)
(-0.00196385441 0.01347475647 -0.0006772914714)
(-0.001369144616 0.0130323441 -0.0005895723018)
(-0.0009610888466 0.01262564805 -0.0005272781105)
(-0.0006638684622 0.0122770625 -0.0004818169252)
(-0.0004401303 0.01199073301 -0.000436728255)
(-0.0002634001818 0.01177306344 -0.0003911066887)
(-0.0001478942446 0.01159908841 -0.0003213655469)
(-0.0001025997545 0.0114947157 -0.0002547999859)
(-0.0001120236047 0.01144772936 -0.0001863136163)
(-0.0001668098083 0.01146140017 -0.0001268710728)
(-0.0002413803802 0.01152493922 -7.865004009e-05)
(-0.0003175939004 0.01162930375 -4.325963429e-05)
(-0.0003793257133 0.01176104454 -1.946626876e-05)
(-0.0004199080022 0.01190539748 -4.534427753e-06)
(-0.0004379527245 0.01205206327 2.565543464e-06)
(-0.0004392447166 0.01219464341 5.23097534e-06)
(-0.0004644819527 0.008039572691 0.0006721919937)