/*--------------------------------*- C++ -*----------------------------------*\
  =========                 |
  \\      /  F ield         | OpenFOAM: The Open Source CFD Toolbox
   \\    /   O peration     | Website:  https://openfoam.org
    \\  /    A nd           | Version:  8
     \\/     M anipulation  |
\*---------------------------------------------------------------------------*/
FoamFile
{
    version     2.0;
    format      ascii;
    class       scalarField;
    location    "0.6/lagrangian/reactingCloud1";
    object      age;
}
// * * * * * * * * * * * * * * * * * * * * * * * * * * * * * * * * * * * * * //


114
(
0.3666963611
0.2765156989
0.2706643915
0.2704851918
0.2652939802
0.2640053614
0.2611390034
0.2605413592
0.2601230083
0.25838984
0.2556406766
0.2473448497
0.2441782889
0.2437475604
0.2432297609
0.2423369347
0.2412495717
0.2406126962
0.2404164996
0.2403674505
0.2399748772
0.2394346761
0.239140021
0.2388453659
0.2385016016
0.2384033832
0.2382560557
0.2381087281
0.2380596189
0.2376176363
0.2369792168
0.2368809985
0.2366354525
0.2297601665
0.2223749808
0.2222647592
0.2205563247
0.2192887765
0.2181865607
0.2280904542
0.2143612849
0.2122588199
0.2112199368
0.2101810538
0.2048827503
0.2038746063
0.2025538563
0.2101810538
0.1987901671
0.1944987798
0.1923039259
0.1869817835
0.1804408791
0.1746767221
0.1940772091
0.1733771768
0.1725294061
0.1712878976
0.1700802423
0.1672531
0.1667811215
0.1646215269
0.1632826351
0.1626762283
0.1618334574
0.1593376059
0.1880563913
0.1565421244
0.1550833345
0.1510460963
0.1498337514
0.1435147753
0.1371986967
0.132832227
0.1321793983
0.1321171557
0.1320549132
0.1283489089
0.1481089554
0.1580712968
0.1224253236
0.1220510484
0.1215832044
0.1209906019
0.1183711987
0.1401615626
0.1116717062
0.1340324937
0.1022800823
0.1041530071
0.1081431512
0.1120502538
0.09615069615
0.09213759214
0.1141221039
0.08214578215
0.100162863
0.06413682274
0.03561048369
0.03531691279
0.03378315401
0.03273171946
0.02997967587
0.04013782555
0.1320549132
0.04416757513
0.03182668471
0.03429599127
0.2171945665
0.05414360132
0.02684231616
0.04809162717
0.02406348607
0.07008562876
)


// ************************************************************************* //
