/*--------------------------------*- C++ -*----------------------------------*\
  =========                 |
  \\      /  F ield         | OpenFOAM: The Open Source CFD Toolbox
   \\    /   O peration     | Website:  https://openfoam.org
    \\  /    A nd           | Version:  8
     \\/     M anipulation  |
\*---------------------------------------------------------------------------*/
FoamFile
{
    version     2.0;
    format      ascii;
    class       scalarField;
    location    "0.6/lagrangian/reactingCloud1";
    object      mass0;
}
// * * * * * * * * * * * * * * * * * * * * * * * * * * * * * * * * * * * * * //


114
(
6.581222124e-08
6.783949705e-08
7.248510701e-08
8.187495423e-08
6.698654645e-08
7.28344033e-08
1.045451506e-07
1.134332581e-07
8.652710181e-08
9.673939823e-08
7.571910824e-07
7.538265757e-07
8.081855372e-08
3.589148716e-07
5.839488029e-07
6.875590628e-07
9.357990843e-08
5.272066149e-07
9.069244356e-08
6.553961889e-07
1.049201308e-07
2.810233196e-07
2.51937652e-07
1.045694832e-07
1.360156614e-07
1.955423443e-07
1.044346952e-07
6.751961615e-08
6.795445749e-08
1.090040327e-07
3.031218357e-07
1.859303678e-07
1.852026056e-07
8.336442037e-08
2.305122629e-07
7.748085096e-07
4.860369997e-07
1.059269758e-07
7.268131873e-08
6.835730038e-08
2.823202524e-07
6.543295408e-08
3.376397803e-07
2.935668235e-07
3.293187227e-07
8.015431301e-07
2.849236842e-07
2.016780215e-07
4.491957856e-07
2.406704328e-07
4.65951084e-07
6.005772494e-07
3.695832754e-07
1.338172493e-07
5.973997758e-07
6.360173005e-07
5.451822287e-07
1.398431705e-07
6.95635449e-08
1.888648945e-07
2.785075356e-07
1.024778625e-07
7.216425857e-08
3.688011468e-07
1.101291715e-07
1.640398845e-07
4.685225848e-07
9.018913384e-08
3.54345349e-07
2.050874957e-07
1.353631567e-07
2.290457672e-07
1.592118689e-07
4.710624132e-07
7.867551979e-07
6.802465123e-08
6.976110064e-08
1.717187992e-07
1.186690797e-07
1.389408437e-07
4.493613174e-07
3.605400684e-07
2.232549632e-07
2.821067045e-07
2.773101077e-07
5.301161739e-07
3.925442121e-07
4.627450032e-07
2.099373285e-07
2.195826131e-07
1.519733978e-07
1.82228669e-07
7.928232729e-08
6.821389086e-08
2.237068991e-07
2.003956972e-07
7.762936168e-08
3.411590834e-07
5.804233732e-07
5.279572341e-07
1.424351023e-07
6.943783799e-08
7.401547041e-08
2.419986499e-07
1.385135579e-07
1.877216668e-07
1.362030357e-07
3.098907896e-07
2.37615054e-07
2.907157774e-07
2.439811531e-07
7.052819186e-08
7.813904647e-07
2.201934231e-07
)


// ************************************************************************* //
