/*--------------------------------*- C++ -*----------------------------------*\
  =========                 |
  \\      /  F ield         | OpenFOAM: The Open Source CFD Toolbox
   \\    /   O peration     | Website:  https://openfoam.org
    \\  /    A nd           | Version:  8
     \\/     M anipulation  |
\*---------------------------------------------------------------------------*/
FoamFile
{
    version     2.0;
    format      ascii;
    class       labelField;
    location    "0.6/lagrangian/reactingCloud1";
    object      origId;
}
// * * * * * * * * * * * * * * * * * * * * * * * * * * * * * * * * * * * * * //


114
(
68
156
160
161
165
169
176
177
178
180
182
194
196
197
199
202
203
205
206
207
209
211
213
215
216
218
219
220
221
223
224
225
226
241
251
252
254
256
258
192
266
270
274
277
285
287
288
201
295
299
304
312
325
334
209
337
338
342
343
345
346
347
349
350
351
353
212
356
357
359
360
362
364
365
366
367
368
374
232
227
382
385
387
389
393
236
406
239
410
254
252
250
258
260
249
265
256
274
421
422
423
424
425
286
240
284
142
137
43
279
146
282
294
271
)


// ************************************************************************* //
