/*--------------------------------*- C++ -*----------------------------------*\
  =========                 |
  \\      /  F ield         | OpenFOAM: The Open Source CFD Toolbox
   \\    /   O peration     | Website:  https://openfoam.org
    \\  /    A nd           | Version:  8
     \\/     M anipulation  |
\*---------------------------------------------------------------------------*/
FoamFile
{
    version     2.0;
    format      ascii;
    class       scalarField;
    location    "0.6/lagrangian/reactingCloud1";
    object      rho;
}
// * * * * * * * * * * * * * * * * * * * * * * * * * * * * * * * * * * * * * //


114
(
994.5114693
994.5114726
994.5114703
994.5114693
994.5114686
994.5114685
994.5114688
994.5114689
994.511469
994.5114693
994.5114688
994.5114693
994.511469
994.5114692
994.5114689
994.5114689
994.5114689
994.5114692
994.5114689
994.5114688
994.5114688
994.5114689
994.5114688
994.5114688
994.5114688
994.511469
994.5114688
994.511469
994.5114688
994.511469
994.5114686
994.5114686
994.5114691
994.5114688
994.5114688
994.5114687
994.5114687
994.5114685
994.5114685
1000
994.5114686
994.5114685
994.5114688
994.5114687
994.5114687
994.5114689
994.5114688
1000
994.5114688
994.5114689
994.5114689
994.5114689
994.5114687
994.5114689
1000
994.5114695
994.511469
994.5114694
994.511469
994.511469
994.5114689
994.5114687
994.511469
994.5114688
994.5114686
994.511469
1000
994.5114686
994.5114687
994.5114687
994.5114686
994.5114689
994.5114687
994.5114731
994.5114983
994.5114994
994.5115004
994.511479
1000
1000
994.5114685
994.511484
994.5114689
994.5114688
994.511478
1000
994.5114772
1000
994.5114767
1000
1000
1000
1000
1000
1000
1000
1000
1000
994.511472
994.5114746
994.5114713
994.5114797
994.5114719
1000
1000
1000
994.5114721
994.5114722
994.5114714
1000
994.5114726
1000
1000
1000
)


// ************************************************************************* //
