/*--------------------------------*- C++ -*----------------------------------*\
  =========                 |
  \\      /  F ield         | OpenFOAM: The Open Source CFD Toolbox
   \\    /   O peration     | Website:  https://openfoam.org
    \\  /    A nd           | Version:  8
     \\/     M anipulation  |
\*---------------------------------------------------------------------------*/
FoamFile
{
    version     2.0;
    format      ascii;
    class       scalarField;
    location    "0.6/lagrangian/reactingCloud1";
    object      T;
}
// * * * * * * * * * * * * * * * * * * * * * * * * * * * * * * * * * * * * * //


114
(
299.9999968
299.9999841
299.9999929
299.9999966
299.9999995
299.9999992
299.9999987
299.9999983
299.999998
299.9999966
299.9999987
299.9999967
299.9999979
299.9999969
299.9999983
299.9999982
299.9999982
299.9999969
299.9999981
299.9999984
299.9999984
299.999998
299.9999984
299.9999985
299.9999985
299.9999979
299.9999985
299.9999978
299.9999985
299.9999977
299.9999994
299.9999995
299.9999974
299.9999987
299.9999987
299.9999988
299.9999991
299.9999997
299.9999995
300
299.9999995
299.9999995
299.9999986
299.9999989
299.9999989
299.9999982
299.9999985
300
299.9999984
299.9999982
299.9999983
299.9999983
299.999999
299.9999983
300
299.999996
299.9999977
299.9999961
299.9999978
299.9999976
299.9999984
299.9999989
299.9999979
299.9999986
299.9999993
299.9999979
300
299.9999993
299.9999988
299.9999988
299.9999994
299.9999982
299.9999988
299.9999821
299.999886
299.9998818
299.9998778
299.9999597
300
300
299.9999996
299.9999406
299.9999982
299.9999987
299.9999636
300
299.9999667
300
299.9999686
300
300
300
300
300
300
300
300
300
299.9999865
299.9999761
299.9999891
299.9999567
299.9999865
300
300
300
299.999986
299.9999854
299.9999888
300
299.9999841
300
300
300
)


// ************************************************************************* //
