/*--------------------------------*- C++ -*----------------------------------*\
  =========                 |
  \\      /  F ield         | OpenFOAM: The Open Source CFD Toolbox
   \\    /   O peration     | Website:  https://openfoam.org
    \\  /    A nd           | Version:  8
     \\/     M anipulation  |
\*---------------------------------------------------------------------------*/
FoamFile
{
    version     2.0;
    format      ascii;
    class       volScalarField;
    location    "2";
    object      epsilon;
}
// * * * * * * * * * * * * * * * * * * * * * * * * * * * * * * * * * * * * * //

dimensions      [0 2 -3 0 0 0 0];

internalField   nonuniform List<scalar> 
67286
(
0.8407383784
1.071018323
1.356480079
1.56854893
1.582217707
1.398755852
1.266229676
1.443657696
1.683401373
1.798675219
1.83790828
1.388446781
0.8335656816
0.6546652421
0.7827969385
0.714548152
0.6312700452
0.6600894863
0.7179583639
0.8452960826
1.176179396
0.872014626
0.6362085452
0.4880236998
0.4026692787
0.3622257325
0.348862916
0.3476093799
0.6307263244
0.8405241842
1.050272831
1.215910576
1.298655805
1.348204996
1.510983459
1.785418783
2.015129087
2.067596915
1.872497512
1.355123892
0.7430196266
0.5434397627
0.5556854519
0.5820699305
0.5908773985
0.6262046095
0.6712018078
0.7394914589
0.8521212372
0.6676883503
0.5337811058
0.4326510651
0.3595451972
0.3115770855
0.2837490488
0.2686869181
0.2612726174
0.2566080088
0.250823834
0.2414945169
0.419410586
0.5971000561
0.789463856
0.9144505239
1.002962552
1.127377286
1.338425784
1.59473431
1.788957767
1.805616936
1.568134094
1.06804419
0.585593416
0.4655530592
0.4834832657
0.5146765917
0.5400808107
0.5702322907
0.5977339606
0.6223698637
0.606008837
0.5364098799
0.5083216322
0.4831821052
0.4388358537
0.391980944
0.3520602749
0.3229570547
0.3042120872
0.2920258629
0.2829477744
0.2748775546
0.3089425558
0.3643025506
0.5043432105
0.6162005682
0.7035866303
0.8416710383
1.039794481
1.229956438
1.348888899
1.320428862
1.094157692
0.7270606357
0.4589119864
0.4070249577
0.4238645335
0.448546794
0.4695170695
0.4907820874
0.5120758061
0.534039672
0.5700347755
0.8018436787
0.9341699579
0.9350035573
0.8347476983
0.7078642484
0.5932182522
0.5066094317
0.4499100028
0.4127104548
0.3854467809
0.3630512039
0.3430411937
0.6572440672
0.584910356
0.4381462688
0.4207414968
0.4670851847
0.5702483314
0.7286437046
0.8709175278
0.9294641686
0.8704832929
0.6959637653
0.4919674047
0.3777497994
0.3618117882
0.375912416
0.3993101635
0.4386793101
0.5198242339
0.6791922416
0.6884724408
0.9045153304
1.233937227
1.680825959
1.595698606
1.336937867
1.068219979
0.8497863118
0.6919998654
0.5927972904
0.5292173472
0.4830743325
0.4461009308
0.4148774963
0.9952912846
1.126773763
0.8973492493
0.5508393285
0.4385613364
0.4471030731
0.5011567429
0.5734850802
0.6005271548
0.5491911247
0.4460618058
0.3557568413
0.3179445406
0.3153134773
0.323539481
0.3402937076
0.3746047237
0.44342678
0.571300906
0.7939572673
1.18958354
1.818356306
2.405201317
2.173967902
1.767730138
1.372927812
1.057562444
0.8433525698
0.7168143285
0.6355496731
0.5740125038
0.5236159458
0.4822501759
1.378651446
1.571592586
1.282723905
0.694457728
0.4242229276
0.3805047982
0.3612134237
0.365725013
0.3693210293
0.3435516056
0.3019055731
0.2742802113
0.2676017767
0.2721036339
0.2877773067
0.3271863381
0.410837783
0.5532596242
0.7539111435
1.031843681
1.390822097
1.880759267
2.245224644
2.13066216
1.779239689
1.446118546
1.155685317
0.9448980591
0.8213941028
0.7329234592
0.6592116265
0.5961934032
0.5453081769
1.293115781
1.475733661
1.198451255
0.5908922518
0.3591088742
0.304122216
0.261332726
0.2409456925
0.2387928349
0.2367043528
0.2336935882
0.2382632195
0.2530385307
0.2806267188
0.3303575676
0.4132006006
0.5274918988
0.6660009715
0.823880546
1.000785655
1.211990706
1.458991949
1.666562583
1.741339311
1.644659248
1.44743637
1.209693092
1.011662121
0.9137693243
0.822187937
0.7342972048
0.6534072477
0.5903229965
1.131017679
1.192450596
0.9037707623
0.4271342437
0.2832424325
0.234872454
0.2009931101
0.1908948988
0.1999220508
0.2157565153
0.235351758
0.2619557122
0.3000801081
0.3558691037
0.4337852374
0.5335114516
0.6550525691
0.7919897435
0.9406679113
1.098725843
1.268396803
1.44331589
1.601780964
1.714490374
1.754695291
1.607068696
1.357873671
1.144954107
1.101132221
0.9963542343
0.874656831
0.7432121674
0.6379152271
0.9552624004
0.9145318437
0.6232405808
0.2966432097
0.220742441
0.1915847341
0.1816898501
0.1926776909
0.2155300613
0.2424204988
0.2732074694
0.3114414372
0.3619879973
0.4295940751
0.5177238337
0.6277472594
0.7511754693
0.8837257851
1.025941232
1.181332063
1.350036102
1.525160401
1.69551174
1.850058208
1.973281404
1.86834289
1.611959476
1.42724798
1.514582024
1.39019738
1.218057854
0.9821942972
0.7603711831
0.7354218392
0.6557447278
0.442177567
0.2365890715
0.182938519
0.1723492821
0.1850234698
0.2114593204
0.242824555
0.2758947555
0.3126697429
0.3573370706
0.4151551987
0.4900791166
0.5822840961
0.689189976
0.8065092011
0.9323864043
1.070890616
1.228908835
1.410536869
1.618533263
1.852172587
2.095505105
2.296483086
2.235320669
1.973945434
1.905372535
2.187006434
2.020948627
1.816507388
1.461207486
1.054441292
0.5536231181
0.6275652756
0.6065469841
0.3866925008
0.1976828343
0.1722628522
0.1975100355
0.2337388299
0.271144298
0.3082957109
0.3464737499
0.3862095315
0.4329743007
0.4930365198
0.5710219623
0.6688987619
0.7860542767
0.9224088469
1.082440687
1.275890938
1.513231172
1.795588454
2.107305819
2.404579473
2.614078275
2.633325219
2.417398089
2.616969476
3.073407714
2.800984783
2.600955936
2.141181916
1.538261149
0.3601599691
0.4450432258
0.5310018815
0.424469607
0.2188508974
0.1842624401
0.2118385988
0.2495822887
0.2886489019
0.3292581687
0.3723108493
0.4162578475
0.4644075451
0.5205762179
0.5899451243
0.68010782
0.8005046469
0.9601195762
1.164918789
1.41583597
1.707581497
2.02629339
2.340280731
2.593442776
2.752166994
2.868980699
2.844796472
3.524768915
3.996142546
3.600037824
3.475842894
2.94432153
2.133485315
0.2100140595
0.2713072678
0.3616147251
0.3400744214
0.2082967871
0.1929045295
0.2231572562
0.2627110496
0.3058769136
0.3535376233
0.4042125293
0.4551916217
0.5071290426
0.561596696
0.6227137357
0.6995620054
0.8079720161
0.9667941295
1.184830427
1.450259454
1.740281017
2.037920722
2.325647995
2.566977311
2.745098855
2.950977542
3.521538458
4.301852087
4.327799789
3.948723486
4.058497858
3.753142828
2.932833208
0.136292539
0.1847195935
0.2392396979
0.2394223199
0.1916826602
0.2015949995
0.2352081463
0.2772451736
0.3247108174
0.3780249272
0.4325266492
0.4861212217
0.5389272946
0.5918931105
0.6472392403
0.7106620515
0.7966977211
0.931332976
1.135033411
1.393509573
1.668038471
1.936173066
2.191791551
2.418202743
2.622038655
2.953408416
3.676774723
4.421721905
4.367804317
4.092536676
4.049346387
3.57941914
2.791784753
0.1085872271
0.1411916485
0.1742201707
0.1845838949
0.1840831897
0.2084951915
0.2451280888
0.2894439778
0.3400466227
0.3961652644
0.4518418103
0.5058378581
0.5585634325
0.6107356227
0.6625113279
0.7145669016
0.7747663463
0.8691087762
1.03362357
1.26808109
1.523003013
1.760845464
1.977592922
2.173590664
2.376015837
2.739950183
3.430964113
4.10322425
4.118813508
3.77425229
3.55867823
3.043336371
2.342101533
0.09902728928
0.1221344183
0.1464872219
0.1640506113
0.182232875
0.2120734921
0.2501944985
0.2957357729
0.3479846908
0.405279874
0.4614558571
0.5154269268
0.5678101816
0.6191542375
0.6681431347
0.7113982323
0.7490278611
0.7998160212
0.9086599064
1.100950354
1.331666273
1.544485026
1.726193938
1.885452753
2.058811294
2.382249013
2.970166563
3.510145973
3.576759877
3.188312524
2.906364419
2.444126079
1.811786607
0.09610171393
0.1156122542
0.1367145486
0.1565988277
0.1802221753
0.211123043
0.2491296391
0.294512561
0.3467986186
0.4045198706
0.4612410501
0.515230822
0.5669191335
0.6166582184
0.6624009164
0.698585454
0.7197874951
0.7351945274
0.7876123044
0.9256284727
1.119369811
1.309512591
1.464955247
1.590511727
1.719586163
1.960075438
2.416174348
2.822217428
2.923003031
2.547756495
2.274589688
1.870611247
1.584463121
0.09539928743
0.1135729023
0.132762463
0.1519966508
0.1756940037
0.2055067011
0.2420184454
0.2858737996
0.3368577513
0.3936967623
0.4509489108
0.50505196
0.5556999122
0.6028847958
0.6443669476
0.6740648327
0.6841372071
0.6763017879
0.6844186691
0.7661399996
0.9121361215
1.073045693
1.208614964
1.308796337
1.394385665
1.540130155
1.852740439
2.158266668
2.302914137
1.94783271
1.679561977
1.506929934
8.435369728
0.09483586077
0.1121709763
0.1296094126
0.1468623877
0.1685728167
0.1960518962
0.2299050761
0.270894368
0.319137008
0.3733390358
0.4303386663
0.4845721127
0.5341342946
0.578295512
0.6148270424
0.6381825626
0.6405451928
0.6198246627
0.5995873804
0.6321901699
0.7280060876
0.853555232
0.9686140634
1.051270372
1.104737932
1.17186653
1.347163786
1.56403038
1.748899038
1.410919133
1.334741783
3.293690974
18.11963548
0.09353708253
0.1100922956
0.1258740117
0.1407587237
0.1597146024
0.1840888997
0.2143556109
0.2512834517
0.2954038533
0.3458001894
0.3998408203
0.4535221516
0.5022354378
0.5437889329
0.5757972731
0.5936852953
0.5910588795
0.5651081424
0.5316205571
0.5298937355
0.5803063906
0.6684140517
0.7587037953
0.8263193347
0.8604573191
0.8801824065
0.950047488
1.076533138
1.263711983
0.9868769589
0.8763156269
1.342765887
7.024650431
0.09110172868
0.1070034717
0.1215860192
0.1344571736
0.1506319689
0.171509776
0.1974672931
0.2292569627
0.2678415019
0.3131002465
0.3628823217
0.413405448
0.4608914968
0.5014176984
0.5318009215
0.5485104384
0.5470585978
0.5248296553
0.49061101
0.4679804043
0.4792165136
0.5287652639
0.5934101399
0.6455618939
0.6695745711
0.6682077906
0.6803312476
0.7441616465
0.893403701
0.7986516272
0.6476622569
0.5961581184
1.934739013
0.0873206004
0.1029096952
0.1172725622
0.1293397554
0.1435845771
0.1611992637
0.1824844742
0.2082438296
0.2398884204
0.2783479818
0.3228151952
0.3704216077
0.4172618637
0.4597703479
0.4956444641
0.5231792551
0.5388459848
0.5367265448
0.5113558554
0.4695695934
0.4350421365
0.4379871548
0.4760438351
0.5144263975
0.5332809684
0.5311097924
0.542277519
0.6879883426
1.399786736
5.01494488
1.350832166
0.5776717409
0.6231489284
0.08209240086
0.09793597756
0.1135370855
0.1269648526
0.1414984064
0.1575936247
0.1751770875
0.1949190294
0.2185328209
0.2481123244
0.2850021564
0.3288561536
0.37768001
0.4290077353
0.4811805051
0.5334141636
0.5838974717
0.6185506093
0.6125041799
0.5472956933
0.4497804003
0.3902921702
0.4001670721
0.4276289036
0.4464667082
0.4693636254
0.6292004502
1.444719029
4.023400575
9.397634963
3.677100503
1.264744685
0.5082305448
0.07538796581
0.0921345816
0.1105489136
0.1280392936
0.1463709074
0.1648233993
0.1823582323
0.1987283621
0.2150621449
0.2339627856
0.2591463895
0.2944306923
0.3423298316
0.4031750534
0.4754197811
0.5563619063
0.6417111148
0.7109093852
0.7246965047
0.6472394827
0.4936241143
0.3691153089
0.3517433597
0.37063276
0.3884080805
0.4118940039
0.5333909307
1.153894865
3.098005648
7.288331221
2.792012728
0.975629794
0.4256921978
0.06731633431
0.08528234607
0.1074763274
0.1310708587
0.1563533882
0.1814164017
0.2040454236
0.2224142123
0.2357762976
0.2454217935
0.2557334772
0.2743290367
0.3100491126
0.3688551517
0.450159709
0.546684858
0.6469561595
0.7301496065
0.7532880284
0.6772735407
0.5084255647
0.3505208921
0.3172993225
0.3304361745
0.3452464343
0.3598381889
0.401538771
0.6272718057
1.457076891
3.893006841
1.269334535
0.5175158189
0.3575029628
0.05818728025
0.07680663304
0.102356109
0.1322162508
0.1652358573
0.1984789876
0.2289148045
0.2534889351
0.269451616
0.2754915354
0.2738221952
0.2722679921
0.2838095474
0.3214379791
0.3900125339
0.4811357382
0.5759618511
0.6495385369
0.6699709972
0.6054990388
0.4624578336
0.3250206447
0.3077946453
0.3382178225
0.3539015506
0.3226644978
0.3256847308
0.3795782454
0.6039704859
1.587806523
0.5232742061
0.3531034069
0.3525732599
0.04885407259
0.06669370543
0.0936350278
0.1277357325
0.166386008
0.2056361293
0.2420478454
0.2722171452
0.29257381
0.3000851491
0.2940859428
0.2789904897
0.2661290566
0.2713097421
0.3066533956
0.3707240585
0.4455076714
0.5037679991
0.5187481376
0.4779816693
0.4148189943
0.4297982636
0.6180059968
0.9025226424
0.9743786705
0.3985305756
0.2870703439
0.2880556342
0.3315502589
0.575170627
0.3272120315
0.3244367993
0.3567719621
0.03934518513
0.05512836288
0.08087180959
0.1154206113
0.1550733567
0.1951568408
0.2321586688
0.2630302922
0.2846126669
0.2938428598
0.2888156592
0.2706932679
0.245932465
0.2267475391
0.2268051919
0.2522952704
0.2944317883
0.3325657439
0.3508170071
0.3641085828
0.4405080803
0.670434971
1.083407277
1.601737286
1.823457548
0.6922261211
0.3618868608
0.2420935231
0.2509142676
0.3010092742
0.2823069335
0.3055996215
0.3355131041
0.03314918115
0.04796011991
0.07497650327
0.1091857535
0.1462657787
0.1823333188
0.2144876183
0.2403252877
0.2576740764
0.2646321777
0.2599129161
0.2436334185
0.2187735423
0.1926402625
0.175622643
0.174929586
0.1881490639
0.2059465289
0.2270331282
0.279618433
0.4225650563
0.6907429131
1.05328044
1.449687257
1.767431224
0.8077787135
0.4019428605
0.2114027014
0.208425576
0.2307064096
0.2448029985
0.2642048213
0.2846961842
0.5486462767
0.6310509714
0.8933839769
1.058757734
1.108489702
1.075407111
1.031860584
1.08478954
1.26316914
1.631385445
2.698245934
2.007015749
1.037406695
0.6271240818
0.6921021482
0.6416670082
0.334095283
0.2883072098
0.314227343
0.3987114014
0.486881017
0.5014352252
0.391419059
0.3421256047
0.3120189024
0.29625977
0.2906555014
0.2888495767
0.3651695804
0.4127124659
0.65690263
0.8719102948
0.9836018464
0.9824354
0.9845964772
1.090790026
1.238934348
1.356473916
1.471311637
1.275515663
0.8634034537
0.5149990472
0.4054990055
0.3477294399
0.2894520909
0.2858292056
0.3112340413
0.3640030665
0.4609661298
0.4353261334
0.3875514471
0.3451083113
0.3090162215
0.2847295056
0.2700120063
0.2600092269
0.2514391355
0.2422702841
0.2309488222
0.2166513959
0.270527253
0.3230850079
0.4383580469
0.5240710473
0.5938850865
0.6688822337
0.7944428695
0.960936036
1.103797621
1.158900766
1.10939214
0.9276310349
0.6395237252
0.4021190143
0.3056171588
0.2832939894
0.2812800534
0.2961686676
0.325595435
0.3656801026
0.4191785235
0.4381591512
0.4112082839
0.3735790248
0.3361615673
0.3125763625
0.2957515347
0.2809261596
0.2671316591
0.2541518579
0.2417873749
0.2297116895
0.2337329162
0.2432204635
0.3161138281
0.3613916678
0.3954316225
0.451694663
0.548474413
0.6854689415
0.7934253456
0.8264809891
0.764384207
0.6187922166
0.443611293
0.3237101509
0.2801030373
0.2779183856
0.2940156905
0.3256266754
0.3759614598
0.423830365
0.4855631846
0.5562511676
0.5760716563
0.5709341261
0.531826908
0.4807290487
0.429465393
0.3839026229
0.3475353483
0.3191036755
0.2961207378
0.2763020046
0.2583283001
0.4995794175
0.4688435361
0.4361746896
0.3689093088
0.3462475529
0.3635101658
0.4002457219
0.4460842749
0.4914216394
0.5046655372
0.4677510704
0.3956649877
0.3208400561
0.2798023669
0.274348993
0.2909472825
0.3239161318
0.374798804
0.4502908087
0.5446529794
0.6320291898
0.7559131893
0.8713431433
0.8693008333
0.7643129156
0.64643897
0.5467926571
0.4657390328
0.4063282045
0.3640731566
0.333362647
0.3092486829
0.2883972952
1.111321894
0.9308805707
0.7954539136
0.5737200229
0.4108306065
0.3602877589
0.3388159264
0.3288423831
0.3258726263
0.3191948514
0.3007479748
0.2757880783
0.256984096
0.2535683992
0.2642928647
0.2869302821
0.3258240801
0.3928791237
0.4938139192
0.6051302148
0.7693293837
0.9674698272
1.078808882
1.076824468
0.9541635295
0.7832854689
0.6360131958
0.525647887
0.4482378062
0.3956760758
0.3605916773
0.3356699458
0.3149950462
1.465267745
1.102242507
0.8944580917
0.6041923007
0.3938755697
0.3171316533
0.2726549237
0.2441528713
0.2317439967
0.2261506376
0.2217073458
0.2201778543
0.2238172281
0.2336342996
0.2512041396
0.281249688
0.3319870482
0.4097078696
0.5121721901
0.6427950526
0.8289797232
1.02780676
1.120925303
1.091930852
0.9987102554
0.8576321228
0.7201622924
0.6024844281
0.5136438052
0.4481632702
0.4035220254
0.372584438
0.3476795369
1.401404486
1.033221583
0.7897044394
0.4790223658
0.3103593456
0.2473640687
0.2079508409
0.1847419515
0.1786431083
0.1817615183
0.1884002985
0.1982285816
0.2118658239
0.2305138564
0.2569156216
0.2950482715
0.3492685113
0.4241922559
0.5240110386
0.6498957327
0.7952707915
0.9726846564
1.098510864
1.102296008
1.036536182
0.9342425829
0.8213712761
0.7068850511
0.613505313
0.5323321784
0.4713722908
0.4258606748
0.3888264172
1.106753682
0.8212295322
0.571324774
0.3338077021
0.2320646308
0.1927514566
0.1697222255
0.1604797075
0.1640136428
0.1739928209
0.1868095386
0.2025284172
0.2223536689
0.2477021275
0.2799213518
0.3200577228
0.3686003048
0.4275004763
0.5070628007
0.6120259219
0.742920121
0.8916947999
1.019968383
1.079637716
1.07669411
1.029513439
0.9412096158
0.8366632193
0.7513062306
0.6561756097
0.5757886759
0.5063531186
0.4438078671
0.8343795062
0.823875465
0.4242302512
0.2454024528
0.1853906447
0.1640359947
0.1571108971
0.1611853148
0.1718001786
0.1843461881
0.1980881805
0.2145665491
0.2354790334
0.2616326359
0.2930430576
0.3324281681
0.379343033
0.4369900557
0.5111718648
0.6065042109
0.7233629219
0.8551696149
0.9831877922
1.078772478
1.129906814
1.127203641
1.065243527
0.9732004387
0.9034878477
0.8007921584
0.7099709494
0.6177941675
0.5210656039
0.7066048258
0.7569084449
0.491054137
0.2605988402
0.177589822
0.1532537136
0.1574152655
0.1700152401
0.1838591339
0.1965696935
0.2098130462
0.226447533
0.2484617104
0.2768867442
0.3111612713
0.350898676
0.3968823371
0.4535884025
0.5283626366
0.6276304167
0.7529174968
0.8991691933
1.051412662
1.181588194
1.262323277
1.294795725
1.277800351
1.19202491
1.1127503
0.973335058
0.8636484904
0.7433766629
0.6099558885
0.8297376723
1.045082093
0.8852927971
0.478849852
0.2501308306
0.163308046
0.1626623832
0.1786333134
0.1930353164
0.2051845055
0.2186702318
0.2356234584
0.2587535333
0.2887901101
0.3253355761
0.3676391826
0.4163370925
0.4759134944
0.5540706641
0.6577196087
0.7890872778
0.9441618297
1.108488792
1.25092108
1.352161417
1.476718501
1.62171512
1.627066112
1.571978928
1.36552634
1.242250641
0.9806207411
0.7218810559
0.5291136935
0.6642073671
0.8728585389
0.7794085339
0.3408451967
0.187769563
0.1738732676
0.1885639682
0.2027275252
0.216003002
0.230969125
0.2493305063
0.2736405445
0.3050760082
0.3444811101
0.3922191981
0.448781897
0.5162756308
0.5978619377
0.6952804223
0.8101406334
0.9463349002
1.096930803
1.23080887
1.348581963
1.580913072
1.956221406
2.14714565
2.088563962
1.856245101
1.745143401
1.389027305
0.9006602283
0.3169440887
0.4276353564
0.6914679015
0.6717948895
0.319462254
0.1935534073
0.1817369091
0.1951007932
0.2094995099
0.2240637339
0.2394440336
0.2581699601
0.2825541128
0.3148200883
0.3573923294
0.4119622174
0.4782307995
0.5535526585
0.6341832061
0.7186777588
0.8138288572
0.9349426716
1.084244076
1.235001318
1.405070651
1.731898465
2.07101024
2.241574113
2.060408986
1.915176879
1.875665807
1.66338263
1.131622727
0.2014352311
0.2959368682
0.4441679212
0.3986034115
0.2468173542
0.1876939229
0.1855959408
0.1985763988
0.2130308272
0.2283773399
0.2438154924
0.2625931439
0.2870948953
0.3200662312
0.3645260124
0.4228660421
0.4948590715
0.5751571978
0.6537660436
0.7245526541
0.797065028
0.8943097809
1.02798148
1.182870947
1.374476801
1.675563255
1.94634924
2.219355425
1.993783859
1.932393051
1.92365881
1.608512359
1.132505254
0.1574823848
0.1896757806
0.2531250294
0.2341651238
0.191583359
0.1786167519
0.1859730471
0.1998737836
0.2148540538
0.2309686191
0.246740026
0.2657327646
0.290424439
0.323498165
0.3675048741
0.4244433054
0.4944946045
0.5728304955
0.6470137384
0.7055720497
0.7561026049
0.8240028526
0.9266426358
1.060344624
1.237925817
1.490548551
1.725890698
2.044171717
1.886697273
1.760071161
1.648002851
1.295999352
0.9558138408
0.1419123016
0.1397361047
0.1668028314
0.1663116255
0.1638019388
0.1710623513
0.1839527305
0.1991452788
0.2150398213
0.2321290783
0.2486261911
0.2679981115
0.292655278
0.3249237045
0.3663476905
0.4176317151
0.4786690898
0.5466429746
0.6115732432
0.6599378946
0.6937188773
0.7363450963
0.8073125825
0.9096970515
1.055854551
1.25889161
1.443836862
1.688109786
1.591644177
1.398444504
1.235976652
0.9979184541
0.9157108842
0.1382346079
0.122588102
0.1361627567
0.1425733698
0.1517794269
0.1650762345
0.1801474121
0.1961533974
0.2127265093
0.2310001387
0.2485705524
0.2683791895
0.2925597508
0.3229905966
0.360228593
0.4034871472
0.4516709469
0.5035491678
0.554356585
0.5948155343
0.6173066298
0.641661917
0.6878176188
0.7610170453
0.8721392289
1.030673374
1.171590098
1.285808359
1.221571566
1.036689919
0.9484368881
1.196536166
2.855186587
0.1385735798
0.1182017071
0.1268955756
0.1342968315
0.1453650589
0.1592790408
0.1745646182
0.1907017087
0.2076003813
0.2264550066
0.245599647
0.2659006151
0.2892453317
0.3170000782
0.349072873
0.3836737791
0.4187616403
0.4537648802
0.4886852001
0.520634912
0.5382673757
0.5483875772
0.5757930302
0.6257760604
0.704542325
0.8221624447
0.9342080498
0.9452298167
0.8994598617
0.7759495124
1.154314056
4.323677688
11.30690977
0.138921987
0.1171024844
0.1236803213
0.1300347662
0.1400748887
0.1528552478
0.1672951724
0.1829368097
0.1997652935
0.2182934268
0.2391658872
0.260169419
0.2827557092
0.3076920862
0.3346130964
0.3615120253
0.3860320868
0.4077274608
0.4289158293
0.4500529416
0.4623766977
0.4660360704
0.4774802452
0.5101138492
0.5626457902
0.644732097
0.7344615208
0.6966863379
0.6707157015
0.6081905163
0.9934865737
4.586086127
15.00278597
0.1374426538
0.1160156297
0.121528961
0.1264738969
0.1348364156
0.1459342439
0.1589509511
0.1735798621
0.1900106344
0.2083501337
0.2288325295
0.251493127
0.2741851314
0.2975122744
0.3211789677
0.3435820111
0.362587232
0.3773521309
0.3896659851
0.399295878
0.4017142033
0.3993169301
0.3999078132
0.4182237167
0.4511666981
0.5044833828
0.5658556632
0.5359470052
0.5399969776
0.5633061762
0.6266637756
1.687683129
5.810360669
0.1332107502
0.1139885729
0.1193525903
0.1233344646
0.1302121355
0.1395993127
0.1509263888
0.1640898328
0.1795856379
0.197690697
0.2180791773
0.2403050219
0.2646485952
0.2900927071
0.3154075544
0.3401019531
0.3623183877
0.3793541591
0.3887497225
0.3866359736
0.3719876875
0.353911996
0.3450318354
0.3534047366
0.3730472012
0.4012566559
0.4420732059
0.4889406049
0.7692540135
1.413522642
0.6276094576
0.6330365823
1.831658472
0.1258117578
0.1106947532
0.1171175051
0.1212680885
0.1275646283
0.1358093963
0.1456026298
0.1570195116
0.1708457074
0.1878203401
0.2080963292
0.2313933371
0.257635367
0.287098011
0.3201580313
0.3565034642
0.3927682262
0.4223113161
0.4346963147
0.4201521642
0.379392511
0.3333658162
0.3080602237
0.3078022909
0.3191056033
0.3431103837
0.4295295748
0.8179018998
2.404230794
3.871518048
1.700043681
0.5485677782
0.663415958
0.1154168155
0.1059325438
0.1148024827
0.1208976685
0.1283940018
0.1370441011
0.1464210886
0.1565484803
0.1682497693
0.1826412762
0.200765285
0.2235972831
0.2522471352
0.2879861018
0.3317805906
0.3833465883
0.4390128245
0.485650213
0.5041649136
0.4776395508
0.4085271116
0.3303785683
0.2863281173
0.2789829792
0.2867724502
0.3148232594
0.4298155821
0.9370649546
3.433697269
5.844769864
2.774675029
0.6586893153
0.4128033726
0.1028855992
0.09957369635
0.1119766481
0.1220364289
0.1331582268
0.1447408385
0.1560778537
0.1667868481
0.1771860475
0.188143776
0.2012554852
0.2191690781
0.245475778
0.2836831195
0.3355449935
0.3996453771
0.4703271657
0.5296202369
0.5523200363
0.5175446586
0.4293969898
0.3298711934
0.273959976
0.2630814599
0.2673932038
0.2878368449
0.3765546084
0.7562614814
2.438476548
4.753950582
1.857748897
0.5185714131
0.3460631555
0.08967249279
0.09176821081
0.1078346289
0.1232781623
0.1401795993
0.1571921279
0.1730970355
0.1869274737
0.198163689
0.2067147872
0.2136198207
0.2222279321
0.2386483207
0.2699612518
0.3202932363
0.3873903906
0.4621661554
0.5261886666
0.5493393262
0.5126377655
0.4230970193
0.3222645386
0.2717064605
0.268656071
0.2706488199
0.269795539
0.3083068586
0.4693314355
1.10188361
2.299445386
0.7868890878
0.3678286011
0.3166028385
0.07711868603
0.0826759448
0.1011688934
0.1219652955
0.1455884399
0.1695417509
0.1917507883
0.2105089206
0.2245073365
0.2326665252
0.2348227452
0.2334120092
0.2350488109
0.2495923563
0.2851320992
0.3414822122
0.4076154349
0.4638319447
0.4866580121
0.4595178143
0.3915280773
0.3221594527
0.3208548362
0.3721992872
0.3722662454
0.2876732442
0.2737778539
0.3204640438
0.4947105769
0.8852506312
0.4007820052
0.3089101994
0.3102454108
0.06605866072
0.07332725638
0.09229370084
0.116920147
0.1465725918
0.1776614512
0.2070461285
0.231954307
0.2501052075
0.259596034
0.2593258489
0.2503883747
0.2379846411
0.2319412262
0.2431800164
0.2761410606
0.323121453
0.3667792673
0.3896986296
0.3865242803
0.3766613075
0.4119977566
0.5575296023
0.7517595067
0.7337507712
0.4278403353
0.2829759118
0.2746714447
0.3130308015
0.4176517242
0.3092027862
0.307376324
0.326911956
0.05392503478
0.06280157943
0.08095036495
0.1066646462
0.1389085378
0.173864178
0.2081395502
0.2383209222
0.2609734897
0.2729998848
0.2723990672
0.2594688037
0.238202141
0.2168801447
0.2060756263
0.2129415988
0.2349435317
0.2606922547
0.2810051497
0.3035605724
0.3640357409
0.524050374
0.8408942872
1.222240634
1.211581277
0.6145334087
0.3187134965
0.2574134135
0.2682115183
0.3030573274
0.3005870044
0.3231358348
0.3502726036
0.03757832469
0.0538484494
0.08078489707
0.1171108939
0.1596707688
0.205928168
0.2531276962
0.2969037194
0.3311487151
0.3493666092
0.3471196147
0.3247052385
0.288637994
0.2505227004
0.2226867793
0.2121481421
0.2166867063
0.2276720544
0.2406095924
0.2682945885
0.3489399676
0.5457771062
0.9438467235
1.489096467
1.486858183
0.6124035267
0.3193391765
0.25884696
0.2837660687
0.324753086
0.353891872
0.3930167732
0.4330767399
0.3896228418
0.5067206693
0.8265245138
1.048274787
1.120026941
1.122303592
1.09404159
1.113774003
1.38892504
2.539185677
5.583350963
3.704356263
1.492806647
0.7631461761
0.6068966736
0.8409361304
0.3463709618
0.2123079941
0.2310680596
0.3159874663
0.3986597552
0.5215645383
0.3947023831
0.3240630422
0.2897154109
0.2730569944
0.2663086754
0.2624210693
0.2575902949
0.244424283
0.3315791798
0.6297573748
0.9696109331
1.137558808
1.113787478
1.022160457
1.033941268
1.189722851
1.4565705
2.071610391
1.724575997
1.072208286
0.6460086603
0.4873513242
0.4175885032
0.2437229164
0.2146483457
0.2382364572
0.3035759779
0.4247508372
0.4332513208
0.3799960483
0.32983121
0.2931127388
0.2698527587
0.2555653752
0.244878898
0.2346468818
0.2234049471
0.2102469027
0.1954748749
0.1867698224
0.2107345229
0.3134580779
0.4434895751
0.5610897037
0.6305681458
0.7090940439
0.8675088174
1.050756452
1.166285426
1.224561429
1.095030628
0.7805801732
0.4723629096
0.3049795368
0.2569104322
0.2230656762
0.2315603444
0.2625783371
0.3124459464
0.3828520688
0.4232235249
0.4137762947
0.363614942
0.3126291445
0.2780241176
0.2560494873
0.2403898694
0.2273408941
0.2154930614
0.2046692862
0.1948954286
0.1883036654
0.1944989987
0.2487374619
0.2764087553
0.3051195344
0.3501033413
0.4317534511
0.5710578345
0.7338041523
0.8306179662
0.8270523619
0.7099210045
0.5091026212
0.3370323997
0.2542283614
0.2360153029
0.2433747818
0.2715041755
0.3209779548
0.3768535114
0.4473359876
0.5298457151
0.5819962895
0.5381046853
0.4534987669
0.3833673299
0.3340655947
0.2987601718
0.2728170557
0.2531861862
0.2375927445
0.2245135383
0.2131531025
0.4388885599
0.5301669813
0.5404704694
0.4218454572
0.3384732102
0.3253022369
0.3359161054
0.3687003433
0.4284744837
0.4819603007
0.4827768477
0.4201106308
0.3294753356
0.2653448974
0.2448279576
0.2557200749
0.2869994466
0.3337321306
0.3878491716
0.4832455808
0.5729962739
0.6961368033
0.8134045425
0.8184983136
0.7144950783
0.5721993419
0.4515788526
0.3685222359
0.3159076137
0.2824077821
0.2598480676
0.2432226543
0.2297992284
1.169537345
1.011375485
0.8928306568
0.6707260712
0.4653429648
0.3804281919
0.3400438879
0.3074102012
0.2915382086
0.2931242376
0.2908138084
0.2720471424
0.249002966
0.2401693048
0.250239026
0.2769985441
0.3232315357
0.3962744291
0.486153229
0.5758451844
0.7049259227
0.8320907861
0.8754108443
0.925927281
0.8488999194
0.6899259267
0.5338920414
0.4188174536
0.34601747
0.3017571208
0.2745088655
0.2562563292
0.2420142548
1.363896817
1.145208288
0.9623032726
0.7194167315
0.4817113486
0.3731237993
0.3161269918
0.2656651839
0.2306123189
0.2170611999
0.2151085462
0.2155764969
0.2190755994
0.2297111153
0.2489532765
0.2781202383
0.322198722
0.3890716467
0.4776101275
0.57279276
0.7211784444
0.8581084397
0.884296084
0.8716855101
0.8211324048
0.7013883397
0.5652427179
0.4534517287
0.3765337121
0.3265694036
0.2949623729
0.2739808454
0.2577079787
1.055710299
1.107152382
0.9151422248
0.6087921673
0.3877696217
0.3040324873
0.2583414114
0.2188834268
0.1934578363
0.1850027435
0.1871628071
0.1943512776
0.205215931
0.2202162689
0.2398779489
0.2656213899
0.3011678484
0.3529995601
0.4280701245
0.5308332838
0.6616333722
0.7994040554
0.8652528507
0.8493190145
0.8037747078
0.7157930022
0.6007750692
0.4924083496
0.4124084957
0.3557292891
0.3186097178
0.2933893775
0.2736028669
0.9806328118
1.152638264
0.7209786474
0.4394361935
0.2847393642
0.2375946652
0.2103505353
0.1878175302
0.1752117177
0.1730252415
0.1773246966
0.1852862706
0.1961449246
0.2097244901
0.2259041223
0.2452048028
0.2706031584
0.3085886596
0.3688925798
0.45961415
0.5806937252
0.7123160782
0.802607383
0.8302820804
0.8249183989
0.7798058513
0.6766955796
0.5597043016
0.4719908135
0.4021549499
0.3551401831
0.3199450209
0.2912893537
0.8113922785
0.6804183202
0.5192212635
0.3036044185
0.2169642538
0.1921524569
0.1799223019
0.1712502059
0.1675664621
0.1683528474
0.1718688594
0.1774371173
0.1851970812
0.1951636909
0.2079562049
0.2252173425
0.249182711
0.2850281635
0.3406185064
0.4237198985
0.5344642937
0.6561543879
0.7563517295
0.821351993
0.8674120172
0.8705194645
0.7973537978
0.6761498481
0.5845949171
0.4896995238
0.4256154871
0.3644046294
0.3135339543
0.6776215001
0.7265126769
0.5093741674
0.3304799129
0.2237236517
0.1743967354
0.1636314723
0.1622894943
0.1630376129
0.1643582041
0.1661840109
0.1695093503
0.1755272671