/*--------------------------------*- C++ -*----------------------------------*\
  =========                 |
  \\      /  F ield         | OpenFOAM: The Open Source CFD Toolbox
   \\    /   O peration     | Website:  https://openfoam.org
    \\  /    A nd           | Version:  8
     \\/     M anipulation  |
\*---------------------------------------------------------------------------*/
FoamFile
{
    version     2.0;
    format      ascii;
    class       volScalarField;
    location    "2";
    object      O2;
}
// * * * * * * * * * * * * * * * * * * * * * * * * * * * * * * * * * * * * * //

dimensions      [0 0 0 0 0 0 0];

internalField   nonuniform List<scalar> 
67286
(
0.2100001433
0.2100000631
0.2100001753
0.2100002025
0.210000182
0.2100000459
0.2099998756
0.2100001469
0.2100005958
0.2100011595
0.2100018532
0.2100006971
0.2100000622
0.2099998734
0.2100005835
0.2099992822
0.2099989601
0.2099987311
0.2099986053
0.2099985798
0.2099984817
0.2099985808
0.20999851
0.2099985243
0.2099985428
0.2099985782
0.2099986279
0.2099986888
0.210000534
0.2099998799
0.2099997548
0.2099997353
0.2099997004
0.2099997145
0.20999984
0.2100000498
0.2100002345
0.2100003868
0.2100004357
0.2099999693
0.2099995267
0.2099993383
0.2099993198
0.2099990163
0.2099988271
0.2099986885
0.2099985673
0.2099985113
0.209998603
0.2099984557
0.2099984778
0.2099985258
0.2099985785
0.2099986335
0.2099986839
0.2099987302
0.2099987753
0.2099988209
0.2099988641
0.2099988974
0.2100009961
0.2100000738
0.2099995687
0.2099994109
0.209999401
0.2099994826
0.2099996538
0.2099998449
0.2099999857
0.2100000604
0.2100000324
0.209999725
0.2099994083
0.2099992497
0.2099991416
0.2099989337
0.2099987727
0.2099986527
0.2099985505
0.2099984865
0.2099985062
0.209998423
0.2099984708
0.2099984862
0.2099985071
0.2099985222
0.2099985267
0.209998526
0.2099985257
0.2099985303
0.2099985416
0.2099985576
0.2100010706
0.2100004691
0.2099997806
0.2099994221
0.2099993312
0.2099993507
0.2099994189
0.2099995354
0.2099996295
0.2099996699
0.2099996381
0.2099994705
0.2099992701
0.2099991222
0.2099989923
0.2099988507
0.2099987261
0.2099986236
0.2099985289
0.2099984597
0.2099984177
0.2099982041
0.2099983196
0.2099983018
0.2099983151
0.2099983577
0.2099984064
0.2099984458
0.2099984724
0.2099984919
0.2099985121
0.2099985368
0.2099985649
0.2100002127
0.2100001497
0.2099998545
0.2099995143
0.2099993643
0.209999336
0.2099993133
0.2099993231
0.2099993631
0.209999394
0.2099993837
0.209999292
0.2099991479
0.2099990156
0.209998898
0.2099987888
0.2099986853
0.2099985643
0.2099982826
0.2099982622
0.2099981943
0.2099982526
0.209998258
0.2099982408
0.2099982389
0.2099982928
0.2099983715
0.2099984446
0.209998498
0.2099985332
0.2099985602
0.2099985879
0.2099986204
0.2099997505
0.2099998637
0.2099996617
0.209999403
0.2099992979
0.2099993024
0.2099992756
0.2099992268
0.2099992124
0.2099992242
0.2099992166
0.2099991467
0.2099990313
0.2099989213
0.2099988238
0.209998733
0.2099986402
0.2099985438
0.2099984327
0.2099983481
0.2099982945
0.2099982208
0.2099979684
0.2099980854
0.2099981281
0.2099982038
0.2099983023
0.2099984024
0.2099984864
0.2099985476
0.2099985931
0.209998632
0.2099986724
0.2099994064
0.2099997751
0.2099996674
0.2099992589
0.2099990161
0.2099990602
0.2099991006
0.209999098
0.209999079
0.20999907
0.2099990413
0.2099989691
0.2099988695
0.2099987715
0.2099986812
0.2099985975
0.2099985194
0.209998449
0.2099983625
0.2099982516
0.2099982548
0.2099981851
0.2099980431
0.2099980404
0.2099980993
0.2099981749
0.20999827
0.209998371
0.2099984657
0.2099985468
0.209998612
0.2099986669
0.2099987203
0.2099993453
0.2099996845
0.209999587
0.2099991536
0.2099988391
0.2099988235
0.2099988577
0.2099988832
0.2099988774
0.2099988552
0.2099988112
0.2099987449
0.2099986702
0.2099986021
0.2099985463
0.2099985003
0.2099984644
0.2099984417
0.2099984268
0.2099984094
0.2099983849
0.2099983275
0.2099982442
0.2099982237
0.2099982847
0.2099982901
0.2099983303
0.2099983962
0.2099984715
0.2099985595
0.2099986339
0.2099986996
0.2099987634
0.2099994439
0.2099996783
0.2099994886
0.2099991057
0.2099987524
0.2099986677
0.2099986687
0.2099986888
0.2099986959
0.20999869
0.209998673
0.2099986497
0.2099986244
0.2099985959
0.2099985559
0.2099985062
0.2099984599
0.2099984289
0.2099984145
0.2099984088
0.2099984034
0.2099983843
0.2099983631
0.209998376
0.2099984177
0.2099984075
0.209998435
0.2099984874
0.2099985187
0.2099986176
0.2099986867
0.2099987511
0.2099988063
0.2099996899
0.2099997484
0.2099994954
0.2099991068
0.2099987423
0.2099986075
0.2099985933
0.2099986195
0.2099986506
0.2099986743
0.209998689
0.2099986937
0.2099986834
0.2099986531
0.2099986051
0.2099985536
0.2099985117
0.2099984884
0.2099984856
0.2099984992
0.2099985206
0.2099985393
0.2099985519
0.2099985625
0.2099985442
0.2099985672
0.2099986112
0.2099986652
0.2099985926
0.2099987331
0.2099987855
0.2099988457
0.2099988919
0.2100000348
0.2099998467
0.2099994662
0.2099991801
0.209998782
0.2099986259
0.2099986126
0.209998658
0.209998715
0.2099987636
0.2099987968
0.2099988085
0.2099987945
0.209998755
0.2099987002
0.2099986467
0.2099986043
0.2099985836
0.2099985867
0.2099986097
0.2099986438
0.2099986808
0.2099986979
0.209998677
0.2099986207
0.2099987325
0.2099988078
0.2099988599
0.2099986079
0.2099988505
0.2099988882
0.2099989611
0.2099990004
0.2100000901
0.2099995017
0.2099991542
0.20999913
0.2099988073
0.2099986446
0.2099986791
0.2099987521
0.209998829
0.2099988862
0.2099989255
0.2099989471
0.2099989486
0.2099989278
0.2099988902
0.2099988449
0.2099988116
0.2099988026
0.2099988261
0.2099988777
0.2099989314
0.2099989413
0.2099988814
0.2099987605
0.2099986696
0.2099988376
0.2099989256
0.2099989305
0.2099984623
0.2099988684
0.2099989058
0.2099990489
0.2099991478
0.2100002772
0.2099998453
0.2099996097
0.2099990661
0.2099988454
0.2099987157
0.2099987885
0.2099988746
0.20999896
0.209999022
0.2099990656
0.2099990948
0.2099991091
0.2099991065
0.2099990874
0.2099990552
0.2099990231
0.2099990125
0.2099990397
0.209999089
0.2099991059
0.2099990345
0.2099988727
0.2099986904
0.2099986381
0.2099988545
0.2099989123
0.2099987741
0.209998113
0.2099986838
0.2099986892
0.2099989587
0.2099992379
0.2100000807
0.2099995588
0.2099991504
0.2099989312
0.2099988068
0.2099987443
0.209998852
0.2099989634
0.2099990631
0.2099991416
0.2099992058
0.2099992589
0.2099992984
0.2099993175
0.2099993081
0.2099992682
0.2099992154
0.2099991911
0.2099992281
0.2099992968
0.209999311
0.2099992059
0.2099990031
0.209998804
0.2099987705
0.2099989399
0.2099987274
0.2099983582
0.2099977485
0.2099983752
0.2099980194
0.2099982697
0.2099987647
0.2099999017
0.2099994935
0.2099991582
0.2099988634
0.2099987905
0.2099987926
0.2099989152
0.2099990369
0.2099991459
0.209999239
0.2099993217
0.2099993941
0.2099994522
0.2099994877
0.2099994895
0.2099994483
0.2099993736
0.2099993168
0.2099993459
0.2099994467
0.2099995065
0.2099994349
0.2099992532
0.2099990708
0.2099990311
0.2099990861
0.2099987422
0.2099982099
0.209997594
0.2099982051
0.2099980845
0.2099984525
0.2099990155
0.2099996661
0.2099992798
0.2099989688
0.2099987846
0.2099987654
0.2099988314
0.2099989655
0.2099990949
0.2099992109
0.2099993142
0.2099994085
0.2099994927
0.2099995625
0.2099996101
0.2099996243
0.2099995914
0.2099995072
0.2099994116
0.2099994003
0.2099995121
0.2099996355
0.2099996397
0.2099995189
0.2099993767
0.209999346
0.2099993723
0.2099990519
0.2099985478
0.2099978705
0.2099985653
0.2099986013
0.2099989569
0.2099993965
0.2099995395
0.2099991827
0.209998896
0.2099987494
0.2099987577
0.209998856
0.2099989985
0.2099991359
0.209999259
0.20999937
0.2099994719
0.2099995634
0.2099996406
0.209999696
0.2099997196
0.2099996974
0.2099996168
0.2099994949
0.209999423
0.2099994995
0.2099996613
0.2099997512
0.2099997132
0.2099996271
0.2099996222
0.2099996835
0.2099994794
0.209999092
0.2099983949
0.2099990959
0.2099991879
0.209999464
0.2099996448
0.2099994463
0.2099991189
0.2099988487
0.2099987226
0.2099987434
0.2099988565
0.2099990073
0.2099991539
0.2099992849
0.2099994024
0.2099995098
0.2099996058
0.2099996866
0.2099997459
0.2099997744
0.2099997602
0.2099996897
0.2099995623
0.2099994416
0.2099994504
0.2099995904
0.2099997373
0.2099997834
0.2099997621
0.209999789
0.2099998943
0.209999823
0.2099995856
0.2099989558
0.2099995742
0.2099996849
0.2099999019
0.2100001278
0.209999379
0.2099990891
0.2099988287
0.2099986987
0.2099987129
0.2099988278
0.2099989852
0.209999142
0.209999282
0.2099994053
0.2099995165
0.2099996144
0.2099996957
0.2099997547
0.2099997834
0.2099997724
0.2099997107
0.2099995912
0.209999447
0.2099993884
0.2099994696
0.2099996185
0.2099997238
0.2099997627
0.2099998186
0.2099999455
0.2099999656
0.2099998629
0.2099994031
0.2099998428
0.2099997477
0.2099999049
0.2099984025
0.2099993243
0.2099990728
0.20999882
0.2099986729
0.2099986653
0.2099987697
0.2099989287
0.2099990945
0.2099992437
0.209999373
0.2099994865
0.2099995846
0.2099996637
0.2099997186
0.2099997428
0.2099997294
0.2099996714
0.2099995633
0.2099994198
0.2099993184
0.2099993357
0.2099994545
0.2099995769
0.2099996564
0.2099997331
0.209999864
0.2099999331
0.2099999116
0.2099997221
0.2100000619
0.2100002506
0.2100013507
0.2099908121
0.2099992762
0.2099990564
0.2099988105
0.209998642
0.2099986029
0.2099986848
0.2099988367
0.209999007
0.2099991653
0.2099993014
0.2099994167
0.2099995134
0.2099995887
0.2099996366
0.2099996516
0.2099996291
0.2099995668
0.2099994655
0.2099993363
0.2099992264
0.2099992046
0.2099992888
0.209999406
0.2099994971
0.2099995809
0.2099996968
0.209999781
0.2099997889
0.2099998156
0.2099998587
0.2100002691
0.2100013691
0.210002259
0.2099992348
0.2099990337
0.2099987933
0.2099986049
0.2099985311
0.2099985805
0.2099987126
0.2099988777
0.2099990408
0.2099991849
0.2099993051
0.2099994006
0.2099994716
0.2099995106
0.209999512
0.2099994735
0.2099993983
0.2099992963
0.2099991848
0.2099990953
0.209999073
0.20999914
0.2099992422
0.2099993388
0.2099994239
0.2099995226
0.2099996054
0.2099995979
0.2099996584
0.2099992987
0.2100000209
0.2099998215
0.2100031546
0.2099992051
0.2099990034
0.2099987635
0.2099985602
0.2099984566
0.2099984699
0.2099985697
0.2099987138
0.2099988697
0.2099990174
0.2099991456
0.2099992473
0.2099993163
0.2099993452
0.2099993282
0.2099992696
0.2099991804
0.2099990807
0.2099989915
0.2099989369
0.2099989385
0.2099990064
0.2099991027
0.2099992091
0.2099992987
0.2099993865
0.2099994484
0.2099994098
0.2099992813
0.2099974757
0.2099992702
0.2099991874
0.2100008125
0.2099991989
0.2099989718
0.2099987206
0.2099985064
0.2099983841
0.2099983684
0.2099984322
0.2099985415
0.2099986726
0.2099988103
0.2099989414
0.2099990517
0.209999126
0.2099991506
0.2099991203
0.2099990457
0.209998953
0.2099988695
0.209998812
0.209998789
0.2099988093
0.2099988784
0.2099989765
0.2099991076
0.2099992252
0.2099993692
0.2099995163
0.2099993745
0.2099979102
0.2099934979
0.2099979508
0.209999166
0.2099998087
0.2099992351
0.2099989554
0.2099986739
0.2099984465
0.2099983164
0.2099982859
0.2099983238
0.209998399
0.2099984956
0.209998607
0.2099987261
0.2099988381
0.2099989207
0.2099989511
0.2099989204
0.2099988442
0.2099987587
0.2099986939
0.2099986581
0.2099986556
0.2099986901
0.2099987586
0.2099988531
0.2099990069
0.2099991449
0.2099993467
0.2099996382
0.2099999849
0.2099994824
0.2099957863
0.209999432
0.2099997154
0.2099997536
0.209999333
0.2099989812
0.2099986449
0.2099983938
0.2099982585
0.2099982239
0.2099982498
0.2099983039
0.2099983724
0.2099984536
0.2099985477
0.2099986472
0.2099987319
0.2099987744
0.2099987583
0.2099986941
0.2099986159
0.209998558
0.2099985252
0.2099985275
0.2099985803
0.2099986566
0.2099987206
0.2099988409
0.2099989403
0.2099991798
0.209999417
0.2099998344
0.2100003434
0.2099990306
0.2100001737
0.2099997325
0.2099998753
0.2099994904
0.2099990749
0.2099986628
0.2099983692
0.2099982207
0.2099981819
0.2099982009
0.2099982426
0.2099982928
0.2099983507
0.2099984199
0.2099985003
0.2099985794
0.2099986333
0.2099986416
0.2099986039
0.2099985398
0.2099984756
0.2099984336
0.2099984357
0.2099985121
0.2099985953
0.2099986147
0.2099986685
0.2099987082
0.2099989703
0.2099991056
0.2099993856
0.2099998223
0.2100003431
0.2099998079
0.2099997488
0.2100000573
0.2099996559
0.2099992284
0.2099987447
0.2099983921
0.2099982154
0.2099981626
0.2099981691
0.2099981957
0.209998228
0.2099982657
0.2099983144
0.2099983786
0.2099984536
0.2099985215
0.2099985618
0.2099985673
0.2099985435
0.2099985038
0.2099984717
0.2099984791
0.2099985301
0.2099985113
0.2099983376
0.2099981798
0.2099981733
0.209998645
0.2099987933
0.2099990904
0.2099993274
0.2100000015
0.2099996413
0.2099998823
0.2100001635
0.2099997253
0.2099993639
0.2099988679
0.2099984737
0.2099982637
0.2099981866
0.2099981713
0.2099981758
0.2099981855
0.209998201
0.2099982296
0.2099982797
0.2099983537
0.2099984414
0.2099985239
0.2099985887
0.2099986331
0.209998661
0.2099986893
0.2099987305
0.2099987171
0.2099985014
0.2099981002
0.2099977501
0.2099975582
0.2099981698
0.2099985553
0.2099989543
0.2099991777
0.2099996614
0.2099996529
0.2099999517
0.2100001543
0.2099996216
0.2099993486
0.2099989442
0.209998606
0.2099983996
0.209998293
0.2099982368
0.2099981995
0.2099981703
0.209998152
0.2099981541
0.2099981883
0.2099982633
0.2099983764
0.2099985106
0.209998643
0.2099987638
0.2099988826
0.2099990258
0.2099991925
0.2099992413
0.2099989483
0.2099982944
0.2099974848
0.2099967411
0.2099980817
0.2099987006
0.2099990279
0.209999162
0.2099995163
0.209999593
0.2099998469
0.2100000088
0.2100013883
0.2100013334
0.2100010457
0.2100009226
0.2100008308
0.2100006873
0.210000559
0.2100006828
0.210001165
0.2100022725
0.2100041719
0.2100012087
0.2100003191
0.2099998373
0.2099995261
0.209999306
0.2099991406
0.209998949
0.2099987631
0.2099986835
0.2099982521
0.2099985753
0.2099984797
0.2099985245
0.2099985575
0.2099985941
0.2099986422
0.2099987079
0.210001459
0.2100012056
0.2100009083
0.2100005953
0.210000439
0.2100003749
0.2100003832
0.2100004746
0.2100006309
0.210000851
0.2100011092
0.2100003925
0.2099998675
0.209999573
0.2099994676
0.2099992839
0.20999909
0.2099989581
0.2099987807
0.2099987259
0.2099985425
0.2099985934
0.2099985397
0.2099985732
0.2099986165
0.2099986632
0.2099987133
0.2099987689
0.2099988308
0.2099988942
0.2099989508
0.2099989917
0.2100014637
0.2100009101
0.2100005611
0.2100003083
0.2100001365
0.2100001198
0.2100002172
0.2100003482
0.2100004578
0.2100004771
0.2100004242
0.2100000171
0.209999661
0.2099994221
0.2099992577
0.2099991189
0.2099989789
0.2099988639
0.2099987452
0.2099986703
0.2099985425
0.2099985717
0.2099985685
0.2099985871
0.2099986106
0.209998621
0.2099986246
0.2099986295
0.2099986376
0.2099986491
0.2099986643
0.2099986798
0.2100013078
0.2100008793
0.2100003285
0.2099999462
0.2099997542
0.2099997399
0.2099998498
0.2099999456
0.2099999854
0.2099999682
0.209999881
0.2099996589
0.2099994335
0.2099992593
0.2099991181
0.2099989926
0.2099988812
0.2099987862
0.2099986882
0.2099986222
0.2099985529
0.2099985518
0.2099985029
0.2099984766
0.2099984583
0.2099984517
0.2099984632
0.2099984842
0.2099985094
0.2099985379
0.2099985696
0.2099986024
0.2099986324
0.2100008812
0.2100006666
0.2100002512
0.2099998986
0.2099996859
0.2099996001
0.2099995817
0.2099996098
0.2099996309
0.2099996073
0.2099995314
0.2099993943
0.2099992442
0.2099991078
0.2099989838
0.2099988689
0.209998761
0.2099986692
0.2099986234
0.2099985652
0.2099985458
0.2099985347
0.2099985033
0.2099984824
0.2099984821
0.2099984867
0.2099985055
0.2099985304
0.2099985566
0.2099985849
0.209998618
0.2099986556
0.2099986943
0.2100007899
0.2100005179
0.2100002552
0.2099999347
0.2099997033
0.2099995789
0.209999462
0.2099993664
0.2099993253
0.209999308
0.2099992671
0.209999185
0.2099990807
0.2099989724
0.2099988678
0.2099987685
0.2099986703
0.2099985736
0.2099984897
0.2099984496
0.2099984468
0.2099984573
0.2099985391
0.2099984726
0.2099984875
0.2099985139
0.2099985551
0.209998596
0.2099986315
0.2099986658
0.2099987032
0.209998746
0.2099987907
0.2100008144
0.2100004621
0.2100001807
0.2099997868
0.2099994836
0.209999339
0.209999214
0.2099991187
0.2099990703
0.2099990565
0.2099990338
0.2099989804
0.209998903
0.2099988146
0.2099987238
0.2099986333
0.2099985438
0.2099984681
0.209998442
0.2099984935
0.2099985229
0.2099985219
0.2099985095
0.209998501
0.2099984933
0.2099985173
0.209998566
0.2099986221
0.2099986752
0.2099987259
0.2099987773
0.2099988334
0.2099988911
0.2100007903
0.2100003973
0.210000058
0.209999586
0.2099992373
0.2099990698
0.2099989542
0.209998886
0.2099988534
0.2099988409
0.209998823
0.2099987867
0.2099987342
0.2099986737
0.2099986122
0.2099985558
0.2099985126
0.209998495
0.2099985092
0.209998542
0.2099985706
0.2099985472
0.2099985009
0.2099984742
0.2099984778
0.2099985107
0.2099985635
0.2099986256
0.2099986875
0.2099987532
0.2099988211
0.2099988958
0.2099989738
0.21000076
0.2100002959
0.2099999299
0.2099994331
0.2099990919
0.209998908
0.2099987915
0.2099987366
0.2099987208
0.2099987196
0.2099987155
0.2099987008
0.2099986747
0.2099986397
0.2099986005
0.2099985654
0.209998546
0.2099985533
0.2099985901
0.2099986453
0.2099986809
0.2099986748
0.2099986338
0.2099985938
0.2099985736
0.209998571
0.2099986068
0.2099986506
0.2099986944
0.2099987574
0.2099988308
0.2099989197
0.209999015
0.210000519
0.2100000543
0.2099998123
0.2099993528
0.2099990227
0.2099988215
0.2099987148
0.2099986787
0.2099986837
0.2099987003
0.2099987139
0.2099987183
0.2099987117
0.2099986963
0.2099986773
0.2099986618
0.2099986591
0.2099986781
0.2099987227
0.2099987841
0.2099988366
0.2099988522
0.2099988237
0.2099987706
0.209998719
0.2099986958
0.2099987322
0.2099987523
0.2099987587
0.2099987998
0.2099988545
0.2099989368
0.2099990376
0.2100002395
0.2099999231
0.2099996845
0.2099993808
0.2099990142
0.2099988005
0.2099987057
0.2099986909
0.2099987167
0.2099987537
0.2099987881
0.2099988133
0.2099988278
0.2099988333
0.2099988331
0.2099988353
0.2099988487
0.2099988799
0.2099989296
0.2099989896
0.2099990403
0.2099990563
0.2099990214
0.2099989434
0.2099988602
0.2099988403
0.2099989131
0.209998933
0.2099989176
0.2099989463
0.209998965
0.2099990128
0.2099990772
0.2100000793
0.209999756
0.2099995434
0.2099994678
0.2099990422
0.2099988092
0.2099987377
0.2099987462
0.2099987952
0.2099988551
0.2099989131
0.2099989615
0.2099989981
0.2099990244
0.2099990432
0.2099990599
0.2099990822
0.2099991154
0.2099991614
0.2099992169
0.2099992667
0.2099992816
0.209999234
0.2099991248
0.209999016
0.2099989956
0.2099990768
0.2099990732
0.2099990471
0.2099991073
0.2099991445
0.2099991891
0.209999198
0.2100001943
0.2100002994
0.2099997878
0.2099994475
0.2099990322
0.209998851
0.2099987985
0.2099988258
0.2099988917
0.2099989689
0.2099990471
0.2099991184
0.2099991808
0.2099992339
0.2099992773
0.2099993107
0.2099993366
0.2099993596
0.2099993883
0.2099994354
0.2099994992
0.209999542
0.2099995122
0.2099994002
0.2099992718
0.2099991934
0.209999223
0.2099990644
0.2099989851
0.209999039
0.2099991925
0.20999932
0.2099993615
0.2100000373
0.2099999486
0.2099995319
0.2099993018
0.2099990313
0.2099988848
0.2099988524
0.2099989034
0.2099989888
0.2099990865
0.2099991881
0.2099992872
0.2099993806
0.2099994645
0.2099995318
0.2099995749
0.2099995907
0.2099995867
0.2099995861
0.2099996207
0.2099997021
0.209999782
0.2099997845
0.2099996931
0.2099995707
0.2099994519
0.2099994168
0.2099991442
0.2099990617
0.209999055
0.2099993674
0.2099995552
0.2099996224
0.2099999174
0.2099997406
0.2099994562
0.2099992279
0.2099990362
0.2099989106
0.209998903
0.2099989733
0.2099990768
0.2099991966
0.2099993235
0.2099994519
0.2099995767
0.2099996899
0.2099997789
0.209999829
0.2099998297
0.2099997878
0.2099997383
0.2099997362
0.2099998177
0.2099999395
0.2100000035
0.2099999721
0.2099998958
0.2099998037
0.2099997823
0.2099994615
0.2099993709
0.2099993355
0.2099995277
0.2099996905
0.2099996818
0.2099997517
0.2099995233
0.2099993051
0.2099991219
0.2099989941
0.2099989197
0.2099989425
0.2099990293
0.2099991486
0.2099992876
0.2099994375
0.2099995922
0.2099997442
0.209999882
0.2099999888
0.2100000449
0.2100000335
0.2099999547
0.2099998453
0.20999978
0.2099998288
0.2099999727
0.210000102
0.2100001456
0.210000126
0.210000075
0.2100000883
0.2099998509
0.2099997561
0.2099997668
0.2099997723
0.2099998076
0.2099996595
0.2099996542
0.2099994243
0.2099992167
0.2099990495
0.2099989541
0.2099989212
0.2099989663
0.2099990652
0.2099991967
0.2099993504
0.2099995179
0.2099996924
0.2099998648
0.2100000208
0.2100001403
0.210000201
0.2100001822
0.2100000758
0.2099999101
0.209999769
0.209999758
0.2099998902
0.210000058
0.2100001624
0.210000191
0.2100001709
0.2100002024
0.210000112
0.2100000266
0.2100000158
0.2099998198
0.2099997007
0.2099994188
0.2099995745
0.2099993664
0.2099991641
0.2099990071
0.2099989236
0.2099989111
0.209998968
0.2099990746
0.209999214
0.2099993763
0.209999554
0.2099997399
0.2099999242
0.2100000907
0.2100002175
0.2100002808
0.2100002587
0.2100001379
0.2099999328
0.209999721
0.2099996476
0.2099997462
0.2099999178
0.210000051
0.2100001073
0.2100001006
0.2100001095
0.210000117
0.2100000364
0.2099999239
0.2099996159
0.2099995716
0.2099995546
0.2099995062
0.2099993319
0.2099991384
0.2099989812
0.2099988936
0.2099988834
0.2099989429
0.2099990523
0.2099991944
0.2099993586
0.2099995382
0.209999726
0.2099999122
0.2100000807
0.2100002089
0.2100002724
0.2100002504
0.2100001293
0.2099999139
0.209999663
0.2099995337
0.2099995986
0.2099997539
0.2099998858
0.2099999477
0.2099999427
0.2099999048
0.2099999139
0.2099998137
0.209999626
0.2099992506
0.2099994365
0.2099985743
0.2099994425
0.2099993012
0.209999119
0.2099989559
0.2099988546
0.2099988348
0.2099988893
0.2099989964
0.2099991361
0.2099992959
0.2099994685
0.2099996483
0.2099998265
0.2099999881
0.2100001113
0.2100001725
0.2100001528
0.210000042
0.2099998429
0.2099995981
0.2099994446
0.2099994739
0.2099996122
0.2099997313
0.20999979
0.209999786
0.2099997143
0.2099996789
0.2099995389
0.2099993477
0.2099989529
0.2099987833
0.2100012362
0.2099993822
0.209999264
0.2099990914
0.2099989205
0.2099988018
0.2099987658
0.2099988094
0.2099989089
0.2099990407
0.2099991899
0.2099993491
0.2099995131
0.2099996749
0.2099998223
0.2099999354
0.2099999928
0.2099999791
0.2099998888
0.2099997266
0.2099995246
0.209999382
0.209999382
0.2099994965
0.2099996134
0.2099996776
0.2099996914
0.209999627
0.209999552
0.2099994388
0.209999249
0.2099990014
0.2099986861
0.2099972907
0.2099993289
0.2099992179
0.2099990497
0.2099988718
0.2099987371
0.2099986837
0.209998712
0.2099987982
0.2099989162
0.2099990492
0.2099991897
0.2099993345
0.209999476
0.2099996061
0.2099997082
0.2099997655
0.209999767
0.2099997104
0.2099995992
0.2099994513
0.2099993301
0.2099993126
0.2099994087
0.2099995252
0.2099996078
0.2099996552
0.2099996357
0.2099995697
0.2099995054
0.2099993079
0.2099991967
0.2099989213
0.2099975895
0.209999291
0.2099991669
0.2099989945
0.2099988113
0.2099986678
0.2099986019
0.2099986147
0.2099986825
0.2099987801
0.209998891
0.2099990084
0.20999913
0.2099992521
0.2099993675
0.209999466
0.2099995344
0.2099995674
0.2099995609
0.2099995106
0.2099994091
0.2099992935
0.2099992485
0.209999329
0.2099994555
0.2099995602
0.2099996341
0.2099996476
0.2099995953
0.2099994957
0.209999247
0.2099992565
0.2099990338
0.2099988189
0.2099992833
0.2099991223
0.2099989314
0.2099987421
0.2099985995
0.2099985334
0.2099985387
0.2099985906
0.2099986653
0.2099987493
0.2099988382
0.2099989317
0.2099990295
0.2099991293
0.2099992268
0.2099993164
0.2099993896
0.2099994377
0.2099994424
0.2099993815
0.2099992631
0.2099991775
0.2099992365
0.2099993724
0.2099994927
0.2099995814
0.2099996136
0.2099997208
0.2100000033
0.2100004956
0.2099997652
0.2099992454
0.2099993777
0.2099993251
0.2099991033
0.2099988726
0.2099986688
0.2099985317
0.2099984782
0.2099984918
0.2099985421
0.2099986042
0.2099986654
0.209998723
0.2099987799
0.2099988413
0.2099989122
0.2099989972
0.2099990975
0.2099992005
0.2099992869
0.209999332
0.209999304
0.2099991979
0.2099990848
0.2099991199
0.2099992568
0.2099993829
0.2099994834
0.2099995205
0.2099994895
0.2099998687
0.2100000577
0.2099995785
0.2099992913
0.209999738
0.2099994299
0.2099991343
0.2099988385
0.2099986015
0.2099984628
0.2099984244
0.2099984565
0.2099985212
0.2099985892
0.2099986442
0.2099986808
0.2099987024
0.2099987186
0.2099987431
0.2099987915
0.2099988757
0.2099989856
0.2099990854
0.2099991496
0.2099991511
0.2099990731
0.2099989624
0.2099989752
0.2099990865
0.2099991971
0.2099993349
0.2099993874
0.2099993552
0.2099995385
0.2099996119
0.2099994443
0.2099995539
0.2100000647
0.2099995817
0.2099992289
0.2099988525
0.2099985589
0.2099984004
0.2099983658
0.2099984114
0.2099984923
0.2099985751
0.2099986392
0.2099986744
0.2099986797
0.2099986638
0.2099986439
0.2099986438
0.2099986867
0.2099987763
0.2099988809
0.2099989545
0.2099989714
0.2099989193
0.2099988478
0.2099988523
0.2099989254
0.2099990147
0.2099991571
0.2099992243
0.2099992722
0.2099993603
0.209999343
0.209999564
0.2099998636
0.2100002922
0.2099997194
0.2099993605
0.2099989193
0.2099985591
0.2099983628
0.2099983128
0.2099983539
0.2099984359
0.2099985242
0.2099985968
0.2099986408
0.2099986519
0.2099986349
0.2099986044
0.2099985827
0.2099985954
0.2099986552
0.2099987417
0.209998813
0.2099988427
0.2099988334
0.2099988207
0.209998877
0.2099990028
0.2099991081
0.2099990146
0.2099990465
0.2099991999
0.2099993195
0.2099994463
0.2099997372
0.2100000487
0.2100003748
0.209999748
0.209999445
0.2099989988
0.2099986056
0.2099983772
0.2099982997
0.2099983145
0.2099983728
0.2099984429
0.2099985062
0.209998552
0.2099985767
0.209998584
0.2099985848
0.2099985938
0.2099986276
0.2099986945
0.2099987812
0.2099988597
0.2099989137
0.2099989464
0.2099989819
0.2099990591
0.2099990882
0.2099991674
0.2099990492
0.209999012
0.2099991361
0.2099992916
0.2099995399
0.209999766
0.2100000485
0.2100003065
0.2099996209
0.2099993845
0.2099990135
0.2099986878
0.209998481
0.209998378
0.2099983397
0.2099983344
0.2099983441
0.2099983611
0.2099983831
0.2099984121
0.2099984525
0.2099985097
0.2099985859
0.2099986805
0.2099987911
0.2099989114
0.2099990324
0.2099991473
0.2099992417
0.2099992985
0.2099993535
0.2099994154
0.2099994215
0.2099991139
0.2099990567
0.2099991334
0.2099992179
0.2099994507
0.2099996208
0.209999858
0.2100000627
0.2100015552
0.2100012939
0.2100011084
0.2100010437
0.210000967
0.2100008451
0.2100007329
0.210000834
0.2100015076
0.2100034429
0.2100058315
0.2100003895
0.2100003422
0.2099996699
0.2099986359
0.2099990354
0.2099992341
0.2099990558
0.2099989147
0.2099987706
0.2099987381
0.209998552
0.2099985359
0.2099985302
0.2099985564
0.2099985988
0.2099986559
0.2099987298
0.2099988182
0.2100015903
0.210001239
0.2100009323
0.2100006884
0.2100005588
0.2100004632
0.210000407
0.2100004604
0.2100006469
0.2100010485
0.2100016506
0.2100005162
0.2099999782
0.209999646
0.2099994672
0.2099994133
0.2099993088
0.2099992004
0.2099989076
0.2099988138
0.2099986732
0.2099985971
0.2099985803
0.2099985951
0.2099986301
0.2099986754
0.2099987287
0.2099987908
0.2099988611
0.2099989356
0.2099990043
0.2099990563
0.2100015089
0.2100011234
0.2100007832
0.2100004879
0.2100002912
0.2100002428
0.2100003352
0.2100005446
0.2100006875
0.2100005535
0.2100005147
0.2100000347
0.2099997059
0.2099994638
0.2099992658
0.2099992089
0.2099990939
0.2099989726
0.2099988284
0.2099987424
0.2099986553
0.2099986168
0.2099986236
0.2099986288
0.2099986532
0.20999868
0.2099987067
0.2099987329
0.2099987583
0.2099987816
0.2099988027
0.2099988209
0.2100013513
0.2100010654
0.2100006356
0.2100002456
0.2099999891
0.2099998799
0.2099998773
0.2099999135
0.2099999488
0.2099999322
0.2099998755
0.2099996679
0.2099994701
0.2099993056
0.2099991664
0.2099990685
0.2099989624
0.2099988619
0.2099987514
0.2099986805
0.2099986225
0.2099985953
0.2099985661
0.2099985459
0.2099985399
0.2099985407
0.2099985498
0.2099985693
0.2099985981
0.209998632
0.2099986678
0.2099987027
0.2099987349
0.2100011068
0.2100008483
0.2100005277
0.2100001892
0.209999921
0.2099997709
0.2099996863
0.2099996377
0.2099996052
0.2099995604
0.2099995038
0.2099993916
0.2099992673
0.2099991475
0.2099990331
0.2099989295
0.209998832
0.2099987496
0.209998705
0.2099986175
0.2099985892
0.2099985584
0.2099985291
0.2099984998
0.2099984938
0.2099985074
0.2099985282
0.2099985551
0.2099985883
0.2099986283
0.2099986741
0.2099987234
0.2099987749
0.2100007726
0.210000709
0.2100005306
0.2100002175
0.2099999116
0.2099997307
0.2099995802
0.2099994356
0.2099993318
0.2099992773
0.209999239
0.2099991767
0.209999095
0.2099990029
0.2099989063
0.2099988116
0.2099987203
0.2099986354
0.209998568
0.2099985254
0.2099984995
0.209998491
0.2099985478
0.2099985147
0.2099985202
0.2099985374
0.2099985666
0.2099986045
0.2099986473
0.2099986956
0.2099987507
0.209998811
0.2099988722
0.2100007201
0.2100005567
0.2100003946
0.2100000531
0.2099997292
0.2099995227
0.2099993454
0.2099991906
0.209999089
0.2099990459
0.2099990248
0.2099989899
0.2099989349
0.2099988644
0.2099987849
0.2099987026
0.2099986229
0.209998555
0.209998517
0.2099985159
0.2099984914
0.2099984957
0.2099985141
0.2099985245
0.2099985342
0.2099985631
0.2099986086
0.2099986625
0.2099987182
0.2099987791
0.209998847
0.2099989205
0.2099989919
0.2100004964
0.2100004399
0.2100002398
0.2099998264
0.2099994973
0.209999276
0.2099991031
0.2099989741
0.209998899
0.2099988707
0.2099988604
0.2099988429
0.2099988103
0.2099987638
0.2099987086
0.209998651
0.2099985983
0.2099985597
0.2099985431
0.209998542
0.2099985449
0.2099985329
0.2099985084
0.2099984951
0.2099985079
0.2099985586
0.2099986231
0.2099986942
0.2099987635
0.2099988398
0.209998923
0.2099990121
0.2099990932
0.2099998714
0.2099999668
0.2100000724
0.2099996431
0.2099993448
0.209999121
0.2099989556
0.2099988468
0.2099987944
0.2099987809
0.2099987821
0.2099987802
0.2099987675
0.209998743
0.2099987096
0.2099986736
0.2099986416
0.2099986231
0.2099986254
0.2099986458
0.2099986661
0.2099986598
0.209998622
0.209998582
0.2099985672
0.2099985947
0.2099986542
0.2099987245
0.2099987908
0.2099988731
0.2099989656
0.2099990704
0.20999917
0.2100002414
0.2099999862
0.2100000042
0.2099995792
0.2099992719
0.2099990379
0.209998882
0.209998794
0.2099987633
0.2099987664
0.2099987824
0.2099987972
0.209998804
0.2099988013
0.2099987889
0.2099987692
0.2099987521