/*--------------------------------*- C++ -*----------------------------------*\
  =========                 |
  \\      /  F ield         | OpenFOAM: The Open Source CFD Toolbox
   \\    /   O peration     | Website:  https://openfoam.org
    \\  /    A nd           | Version:  8
     \\/     M anipulation  |
\*---------------------------------------------------------------------------*/
FoamFile
{
    version     2.0;
    format      ascii;
    class       volScalarField;
    location    "2";
    object      p_rgh;
}
// * * * * * * * * * * * * * * * * * * * * * * * * * * * * * * * * * * * * * //

dimensions      [1 -1 -2 0 0 0 0];

internalField   nonuniform List<scalar> 
67286
(
100004.1994
100004.1116
100004.129
100004.1542
100004.1862
100004.2324
100004.3178
100004.4798
100004.7798
100005.302
100006.0789
100005.1407
100004.6722
100004.4609
100005.1273
100004.2945
100004.1696
100004.0798
100004.0649
100004.0405
100004.2148
100003.982
100003.9629
100003.9313
100003.9075
100003.8917
100003.8791
100003.8664
100004.1816
100004.1046
100004.0954
100004.1088
100004.1403
100004.1815
100004.242
100004.3449
100004.5041
100004.7045
100004.8578
100004.5638
100004.3292
100004.1803
100004.1487
100004.0581
100004.0267
100004.003
100003.98
100003.9522
100003.9286
100003.9308
100003.9425
100003.9397
100003.938
100003.9373
100003.9343
100003.9259
100003.9123
100003.8953
100003.8777
100003.8621
100004.1623
100004.105
100004.087
100004.0835
100004.1023
100004.1366
100004.1963
100004.288
100004.3946
100004.481
100004.5083
100004.3576
100004.2143
100004.1248
100004.0912
100004.0135
100003.9732
100003.9568
100003.9542
100003.9387
100003.9697
100003.9604
100003.9631
100003.9487
100003.9386
100003.9324
100003.926
100003.9167
100003.9028
100003.8857
100003.8683
100003.8526
100004.1297
100004.097
100004.084
100004.068
100004.0683
100004.0784
100004.0986
100004.1338
100004.1755
100004.202
100004.197
100004.1362
100004.0687
100004.0158
100003.9828
100003.9492
100003.9294
100003.9234
100003.9248
100003.9226
100003.9429
100003.9334
100003.9148
100003.8907
100003.8749
100003.8628
100003.8541
100003.8458
100003.8365
100003.8268
100003.8189
100003.8138
100003.8122
100004.0935
100004.0554
100004.0535
100004.0419
100004.0393
100004.0394
100004.0396
100004.042
100004.0457
100004.0453
100004.0342
100004.0051
100003.9712
100003.9414
100003.9207
100003.9066
100003.8999
100003.9035
100003.9279
100003.9299
100003.9409
100003.9086
100003.8978
100003.876
100003.8523
100003.8315
100003.8174
100003.8082
100003.8012
100003.796
100003.7941
100003.7959
100003.8015
100004.0417
100004.0015
100004.0094
100004.0002
100004.0009
100003.9982
100003.9913
100003.9808
100003.97
100003.9595
100003.9469
100003.9292
100003.91
100003.8939
100003.8836
100003.8786
100003.8775
100003.8819
100003.8938
100003.8965
100003.8985
100003.9212
100003.9612
100003.9341
100003.896
100003.8518
100003.8228
100003.8061
100003.7965
100003.7907
100003.7903
100003.7949
100003.8038
100004.0347
100003.9891
100003.9777
100003.9594
100003.9602
100003.9529
100003.9442
100003.9327
100003.9197
100003.907
100003.8945
100003.8818
100003.8705
100003.8625
100003.8589
100003.8585
100003.8585
100003.8596
100003.8681
100003.8788
100003.8992
100003.9448
100003.9981
100003.9847
100003.9503
100003.8999
100003.8599
100003.8337
100003.8182
100003.8091
100003.8068
100003.811
100003.8214
100004.0112
100003.9503
100003.9412
100003.9219
100003.9258
100003.9149
100003.9054
100003.8943
100003.8818
100003.8686
100003.8556
100003.8437
100003.8336
100003.8262
100003.821
100003.8146
100003.8079
100003.8069
100003.817
100003.8406
100003.8804
100003.9401
100003.9982
100004.0051
100003.9795
100003.9409
100003.9018
100003.8731
100003.8541
100003.8413
100003.836
100003.8389
100003.8523
100003.921
100003.8704
100003.893
100003.887
100003.8936
100003.8838
100003.8735
100003.8605
100003.8459
100003.8304
100003.8155
100003.8022
100003.7909
100003.7813
100003.772
100003.7662
100003.7671
100003.7772
100003.7983
100003.8335
100003.8858
100003.9545
100004.0199
100004.0447
100004.025
100003.9863
100003.9469
100003.9134
100003.8866
100003.868
100003.8598
100003.8625
100003.875
100003.854
100003.8336
100003.863
100003.8609
100003.8648
100003.8554
100003.843
100003.8268
100003.809
100003.7911
100003.7745
100003.76
100003.7479
100003.7387
100003.7344
100003.7364
100003.7469
100003.7676
100003.8001
100003.8468
100003.9103
100003.9883
100004.0656
100004.1099
100004.1007
100004.0568
100004.0094
100003.9614
100003.9175
100003.8865
100003.8715
100003.873
100003.8963
100003.8688
100003.8605
100003.8599
100003.8464
100003.843
100003.8301
100003.8141
100003.7948
100003.7747
100003.7559
100003.7397
100003.727
100003.7187
100003.7156
100003.7198
100003.7316
100003.7514
100003.7794
100003.8175
100003.87
100003.9419
100004.0329
100004.13
100004.2038
100004.2174
100004.1747
100004.1204
100004.054
100003.9873
100003.9348
100003.8989
100003.8791
100003.8838
100003.8859
100003.8724
100003.8559
100003.8342
100003.8256
100003.8094
100003.7906
100003.7694
100003.749
100003.7313
100003.7177
100003.709
100003.7061
100003.7095
100003.7192
100003.7354
100003.7578
100003.7874
100003.8263
100003.8795
100003.9548
100004.0568
100004.1795
100004.2977
100004.3593
100004.3465
100004.2952
100004.2358
100004.1717
100004.0976
100004.0238
100003.9454
100003.8988
100003.8605
100003.8602
100003.858
100003.8333
100003.8116
100003.7926
100003.7726
100003.7518
100003.7328
100003.7173
100003.7067
100003.7017
100003.7029
100003.7105
100003.7248
100003.7449
100003.7696
100003.7988
100003.8351
100003.887
100003.9682
100004.0901
100004.2475
100004.4069
100004.4976
100004.5124
100004.472
100004.4799
100004.4756
100004.3788
100004.2496
100004.0792
100003.9516
100003.8711
100003.8559
100003.8485
100003.8136
100003.7937
100003.7775
100003.7591
100003.7393
100003.7215
100003.7076
100003.6998
100003.6984
100003.7035
100003.7149
100003.7322
100003.7541
100003.7785
100003.8043
100003.8342
100003.8786
100003.9561
100004.0819
100004.2492
100004.4179
100004.5287
100004.5815
100004.6004
100004.6757
100004.7698
100004.6402
100004.4991
100004.2588
100004.062
100003.8795
100003.8477
100003.8311
100003.8033
100003.7866
100003.7695
100003.7508
100003.7315
100003.7147
100003.7025
100003.6972
100003.6988
100003.7069
100003.721
100003.74
100003.7624
100003.7856
100003.8065
100003.826
100003.8547
100003.9128
100004.0169
100004.161
100004.3123
100004.431
100004.5167
100004.607
100004.7583
100004.8854
100004.707
100004.5364
100004.2727
100004.0839
100003.876
100003.851
100003.8339
100003.8058
100003.7871
100003.7673
100003.7473
100003.7279
100003.7115
100003.7006
100003.6969
100003.7001
100003.7098
100003.7248
100003.7437
100003.7648
100003.7858
100003.8023
100003.8121
100003.823
100003.8552
100003.9268
100004.0335
100004.1508
100004.2528
100004.3404
100004.454
100004.6225
100004.7518
100004.5561
100004.3703
100004.1538
100004.0694
100003.8744
100003.8497
100003.8314
100003.808
100003.7884
100003.7677
100003.7471
100003.7277
100003.7114
100003.7007
100003.6972
100003.7006
100003.7101
100003.7245
100003.7417
100003.7599
100003.7775
100003.7909
100003.7949
100003.7927
100003.8016
100003.8422
100003.9131
100003.9949
100004.0687
100004.132
100004.2145
100004.345
100004.4483
100004.2945
100004.1848
100004.0943
100004.1478
100003.879
100003.8556
100003.8369
100003.8141
100003.793
100003.7715
100003.7504
100003.7308
100003.714
100003.7025
100003.6979
100003.6999
100003.7079
100003.7201
100003.7345
100003.7489
100003.7622
100003.7729
100003.7764
100003.7713
100003.7646
100003.781
100003.8236
100003.8768
100003.9255
100003.9631
100004.0063
100004.0886
100004.1712
100004.0974
100004.1277
100004.19
100004.6164
100003.8858
100003.8632
100003.8452
100003.8231
100003.8013
100003.7791
100003.7576
100003.7375
100003.72
100003.7065
100003.6996
100003.6991
100003.7042
100003.7133
100003.7241
100003.7344
100003.7434
100003.7515
100003.7555
100003.7527
100003.7463
100003.7481
100003.7706
100003.8039
100003.8361
100003.8599
100003.8776
100003.9215
100003.9937
100004.011
100004.1095
100004.2252
100004.3742
100003.8945
100003.8726
100003.8553
100003.8341
100003.8123
100003.7901
100003.7682
100003.7477
100003.7292
100003.7138
100003.7037
100003.6999
100003.7014
100003.7067
100003.7138
100003.7208
100003.727
100003.7336
100003.7393
100003.7407
100003.7383
100003.7387
100003.7481
100003.7687
100003.793
100003.8173
100003.8358
100003.8627
100003.9574
100004.1416
100004.3186
100004.4225
100005.6514
100003.9053
100003.8842
100003.8677
100003.8471
100003.8258
100003.8038
100003.782
100003.7613
100003.7424
100003.7258
100003.7126
100003.7046
100003.7021
100003.7037
100003.7077
100003.7127
100003.7182
100003.7251
100003.7326
100003.738
100003.7391
100003.7401
100003.7478
100003.7602
100003.7808
100003.804
100003.8298
100003.8647
100003.9492
100004.0741
100004.22
100004.031
100004.9065
100003.9181
100003.8979
100003.882
100003.862
100003.8413
100003.8198
100003.7986
100003.7783
100003.7595
100003.7427
100003.7282
100003.7167
100003.7102
100003.7082
100003.7099
100003.7143
100003.7205
100003.7286
100003.7371
100003.7444
100003.7478
100003.7492
100003.7544
100003.766
100003.7847
100003.8093
100003.8424
100003.8882
100003.9679
100004.0057
100004.1685
100003.8894
100004.2497
100003.933
100003.9135
100003.898
100003.8784
100003.8582
100003.8376
100003.8174
100003.7983
100003.7807
100003.7645
100003.7499
100003.7376
100003.7286
100003.7238
100003.723
100003.7268
100003.7338
100003.7424
100003.7507
100003.7583
100003.7627
100003.7651
100003.77
100003.7806
100003.7979
100003.8208
100003.8479
100003.8821
100003.9963
100004.1009
100004.0073
100003.9011
100004.207
100003.9498
100003.9309
100003.9154
100003.896
100003.8761
100003.8562
100003.8374
100003.8202
100003.8046
100003.7904
100003.7772
100003.7651
100003.7551
100003.7482
100003.7457
100003.7483
100003.7546
100003.7631
100003.7712
100003.7788
100003.7829
100003.7875
100003.7941
100003.805
100003.8228
100003.8482
100003.8668
100003.8538
100004.0498
100004.4021
100003.9423
100003.8982
100004.1535
100003.9683
100003.9497
100003.934
100003.9144
100003.8945
100003.8752
100003.8576
100003.8423
100003.8294
100003.8181
100003.8078
100003.7978
100003.7883
100003.7803
100003.7756
100003.7756
100003.7805
100003.7886
100003.7958
100003.8017
100003.808
100003.8163
100003.8257
100003.837
100003.8517
100003.8695
100003.8844
100003.8703
100003.9897
100004.3835
100003.9064
100003.9198
100004.039
100003.9878
100003.9697
100003.9536
100003.9336
100003.9135
100003.8944
100003.8777
100003.864
100003.8533
100003.8453
100003.8389
100003.8328
100003.8261
100003.819
100003.813
100003.8104
100003.8126
100003.819
100003.8262
100003.8331
100003.8427
100003.8555
100003.8685
100003.881
100003.892
100003.9004
100003.9198
100003.9185
100003.8897
100003.8975
100003.8806
100003.9674
100004.0042
100004.007
100003.9895
100003.973
100003.9528
100003.9326
100003.9138
100003.8978
100003.8852
100003.8763
100003.8709
100003.8681
100003.8669
100003.8654
100003.8623
100003.8582
100003.855
100003.8551
100003.8596
100003.8674
100003.8771
100003.89
100003.9043
100003.9167
100003.9277
100003.9375
100003.9456
100003.9678
100003.9873
100003.9459
100003.8934
100003.9623
100004.0147
100004.0089
100004.0277
100004.0102
100003.9935
100003.9736
100003.954
100003.9362
100003.9214
100003.9103
100003.9028
100003.8991
100003.8988
100003.9013
100003.9053
100003.9085
100003.9098
100003.9097
100003.9105
100003.9146
100003.9233
100003.9357
100003.9489
100003.9603
100003.9715
100003.9846
100003.9886
100003.9953
100004.0246
100004.0548
100004.0432
100004.0743
100004.0492
100004.0585
100004.0339
100004.0413
100004.0237
100004.0071
100003.9878
100003.9693
100003.953
100003.9398
100003.9302
100003.9243
100003.9222
100003.9238
100003.929
100003.9373
100003.9467
100003.9551
100003.9611
100003.9658
100003.9714
100003.9793
100003.9873
100003.9914
100003.9938
100004.0051
100004.0314
100004.0083
100004.0189
100004.0658
100004.1064
100004.1015
100004.1772
100004.0871
100004.1024
100004.065
100004.0586
100004.0399
100004.024
100004.0083
100003.9955
100003.9853
100003.9775
100003.9722
100003.9694
100003.9692
100003.9717
100003.9773
100003.9859
100003.9969
100004.0094
100004.0221
100004.034
100004.0453
100004.0555
100004.0633
100004.0726
100004.0943
100004.1333
100004.1787
100004.1538
100004.1251
100004.1478
100004.1827
100004.1759
100004.2465
100004.1567
100004.1661
100004.1309
100004.0615
100004.0311
100004.0422
100004.054
100004.0849
100004.1413
100004.2315
100004.3902
100004.7259
100005.6093
100008.2606
100005.0197
100004.4453
100004.1455
100004.0511
100004.028
100003.9653
100003.9366
100003.8781
100003.9102
100003.6137
100003.8821
100003.8241
100003.8575
100003.8597
100003.8531
100003.8423
100003.8293
100004.0497
100004.0152
100004.0266
100004.0353
100004.06
100004.0954
100004.141
100004.2096
100004.3317
100004.5504
100004.8852
100004.372
100004.1603
100004.0305
100003.9755
100003.9468
100003.9296
100003.9207
100003.8729
100003.8838
100003.8044
100003.8752
100003.8552
100003.8719
100003.8807
100003.885
100003.8857
100003.8811
100003.871
100003.8577
100003.8443
100003.8335
100004.0662
100004.0184
100004.012
100004.015
100004.0355
100004.0739
100004.1351
100004.2126
100004.293
100004.352
100004.4062
100004.2228
100004.0982
100004.0089
100003.9548
100003.9237
100003.8991
100003.8852
100003.866
100003.8629
100003.8235
100003.8773
100003.8786
100003.8825
100003.8856
100003.8867
100003.8849
100003.8775
100003.8648
100003.8494
100003.835
100003.8236
100004.0794
100004.0479
100004.0303
100004.0158
100004.0168
100004.0258
100004.0441
100004.0675
100004.0866
100004.0981
100004.1
100004.0441
100003.9902
100003.9426
100003.9089
100003.887
100003.8739
100003.8706
100003.8664
100003.8631
100003.8505
100003.8442
100003.8148
100003.8068
100003.8044
100003.8056
100003.8081
100003.8066
100003.8006
100003.7939
100003.7894
100003.7883
100003.7912
100004.0198
100004.0066
100004.0172
100004.0086
100004.0044
100003.9996
100003.9957
100003.9945
100003.9921
100003.9833
100003.9724
100003.9497
100003.9229
100003.8965
100003.876
100003.8607
100003.8458
100003.8309
100003.8185
100003.8547
100003.8351
100003.8185
100003.7791
100003.7772
100003.7694
100003.7643
100003.765
100003.7656
100003.7643
100003.7635
100003.7653
100003.7709
100003.781
100003.9879
100003.9502
100003.9619
100003.9683
100003.9696
100003.9668
100003.9579
100003.9451
100003.9321
100003.9192
100003.9078
100003.8941
100003.8786
100003.8648
100003.8555
100003.8502
100003.8457
100003.8403
100003.8348
100003.8247
100003.809
100003.7988
100003.7801
100003.7943
100003.7855
100003.7745
100003.7655
100003.7596
100003.7562
100003.7562
100003.7599
100003.7673
100003.7782
100003.9613
100003.9167
100003.926
100003.9297
100003.9321
100003.9295
100003.923
100003.9108
100003.8955
100003.881
100003.8688
100003.8575
100003.8479
100003.8409
100003.8366
100003.8322
100003.8222
100003.8034
100003.7839
100003.7888
100003.8085
100003.8227
100003.8373
100003.8401
100003.8313
100003.8139
100003.7983
100003.7867
100003.7783
100003.7742
100003.7752
100003.7811
100003.7905
100003.8918
100003.8684
100003.8892
100003.8957
100003.8997
100003.8981
100003.8935
100003.8832
100003.8682
100003.852
100003.8372
100003.8243
100003.813
100003.8031
100003.7931
100003.7816
100003.7705
100003.7647
100003.769
100003.7842
100003.811
100003.8475
100003.8798
100003.8867
100003.8724
100003.8539
100003.8375
100003.8236
100003.8099
100003.8011
100003.7986
100003.8031
100003.8142
100003.8263
100003.8044
100003.8374
100003.8588
100003.8698
100003.8697
100003.8645
100003.8525
100003.8353
100003.8163
100003.7979
100003.7811
100003.7657
100003.7515
100003.7388
100003.7295
100003.7246
100003.7266
100003.7402
100003.7656
100003.8016
100003.8476
100003.8914
100003.9112
100003.9022
100003.8845
100003.8694
100003.8531
100003.8312
100003.8173
100003.8121
100003.8166
100003.8265
100003.8402
100003.7985
100003.821
100003.8391
100003.8461
100003.8428
100003.8332
100003.8168
100003.7962
100003.7748
100003.7547
100003.737
100003.7222
100003.7108
100003.7039
100003.7031
100003.7079
100003.7195
100003.7392
100003.7684
100003.8085
100003.8592
100003.9102
100003.9405
100003.9393
100003.9213
100003.9036
100003.8779
100003.8388
100003.8155
100003.8055
100003.811
100003.829
100003.8612
100003.8251
100003.8388
100003.8347
100003.8301
100003.8194
100003.8037
100003.7831
100003.7608
100003.7396
100003.7213
100003.7065
100003.6962
100003.6917
100003.6921
100003.6971
100003.7071
100003.7232
100003.7466
100003.7792
100003.8239
100003.8802
100003.9389
100003.9803
100003.9887
100003.9771
100003.9641
100003.9233
100003.8582
100003.819
100003.7933
100003.788
100003.8047
100003.858
100003.8523
100003.8465
100003.8246
100003.8158
100003.7996
100003.7792
100003.7562
100003.7343
100003.7156
100003.7008
100003.6909
100003.6865
100003.6874
100003.6929
100003.7024
100003.7155
100003.733
100003.7558
100003.7862
100003.8279
100003.8839
100003.9508
100004.013
100004.0482
100004.0581
100004.0541
100004.0033
100003.9198
100003.8645
100003.8138
100003.7811
100003.7823
100003.8471
100003.8661
100003.8632
100003.829
100003.8014
100003.7825
100003.7616
100003.7398
100003.7202
100003.7039
100003.6916
100003.6842
100003.6825
100003.6866
100003.6957
100003.7085
100003.7232
100003.7389
100003.7566
100003.7794
100003.814
100003.8683
100003.9445
100004.0301
100004.0982
100004.1438
100004.1661
100004.1158
100004.039
100003.9719
100003.8893
100003.8122
100003.7836
100003.8523
100003.8477
100003.8314
100003.8012
100003.7682
100003.7638
100003.7477
100003.7275
100003.7093
100003.6941
100003.6833
100003.6779
100003.6785
100003.6853
100003.6978
100003.7137
100003.7296
100003.7427
100003.7542
100003.7698
100003.7988
100003.8519
100003.9338
100004.0331
100004.1249
100004.1981
100004.2026
100004.1801
100004.1417
100004.0707
100003.9645
100003.8475
100003.7949
100003.8553
100003.8345
100003.8144
100003.7918
100003.7711
100003.7583
100003.7398
100003.7195
100003.7019
100003.6878
100003.678
100003.674
100003.6762
100003.6847
100003.699
100003.7168
100003.7337
100003.7445
100003.7493
100003.7557
100003.7751
100003.8181
100003.8901
100003.9828
100004.0738
100004.1434
100004.1533
100004.1724
100004.1543
100004.077
100003.9745
100003.8574
100003.8143
100003.858
100003.8373
100003.8175
100003.7935
100003.775
100003.7566
100003.7361
100003.7157
100003.6985
100003.6849
100003.6757
100003.6723
100003.675
100003.6838
100003.6979
100003.7157
100003.7328
100003.7423
100003.7416
100003.7383
100003.7459
100003.7745
100003.828
100003.9007
100003.974
100004.0274
100004.0401
100004.0775
100004.0639
100003.9819
100003.8903
100003.8027
100003.771
100003.8611
100003.8393
100003.82
100003.7974
100003.778
100003.7572
100003.7357
100003.7153
100003.6982
100003.6846
100003.6754
100003.6718
100003.6739
100003.6816
100003.6941
100003.7099
100003.7257
100003.7349
100003.7315
100003.7207
100003.7181
100003.7336
100003.7695
100003.8204
100003.871
100003.9032
100003.904
100003.9326
100003.9164
100003.8517
100003.7899
100003.7485
100003.7455
100003.868
100003.8465
100003.8272
100003.8047
100003.7835
100003.7613
100003.7391
100003.7183
100003.7008
100003.6867
100003.6768
100003.6721
100003.6728
100003.6784
100003.6881
100003.7007
100003.7139
100003.7229
100003.7201
100003.7052
100003.6965
100003.7033
100003.7261
100003.7598
100003.7919
100003.8069
100003.7926
100003.8039
100003.7841
100003.7427
100003.6822
100003.7188
100003.7652
100003.8765
100003.8555
100003.8368
100003.8145
100003.7923
100003.7694
100003.7465
100003.7249
100003.7062
100003.6912
100003.6802
100003.6739
100003.6724
100003.6753
100003.6818
100003.6909
100003.7011
100003.7101
100003.712
100003.7004
100003.6853
100003.6859
100003.7004
100003.7225
100003.7428
100003.7477
100003.7225
100003.7162
100003.6883
100003.6802
100003.5514
100003.8273
100003.7823
100003.8865
100003.866
100003.8481
100003.8265
100003.8042
100003.781
100003.7577
100003.7354
100003.7155
100003.6993
100003.6869
100003.6783
100003.6743
100003.6743
100003.6777
100003.6838
100003.6917
100003.7007
100003.7072
100003.7032
100003.689
100003.6816
100003.6904
100003.7054
100003.719
100003.7189
100003.6893
100003.6664
100003.6109
100003.5851
100003.2149
100002.9946
100002.44
100003.8986
100003.8787
100003.8616
100003.8408
100003.8187
100003.7958
100003.7726
100003.7501
100003.7291
100003.7112
100003.6972
100003.687
100003.6803
100003.6776
100003.6786
100003.6827
100003.6896
100003.6987
100003.7085
100003.7122
100003.7047
100003.6934
100003.6924
100003.7036
100003.7143
100003.7204
100003.7009
100003.6691
100003.6311
100003.6062
100003.4116
100003.1308
100002.1184
100003.9127
100003.8934
100003.8771
100003.857
100003.8357
100003.8133
100003.7908
100003.7688
100003.7478
100003.7287
100003.7127
100003.7008
100003.6922
100003.6876
100003.6867
100003.6897
100003.6964
100003.706
100003.7175
100003.7252
100003.7237
100003.7156
100003.7114
100003.7162
100003.7259
100003.7367
100003.7354
100003.7053
100003.6988
100003.6743
100003.5738
100003.4277
100002.307
100003.9286
100003.91
100003.8943
100003.8748
100003.8542
100003.8328
100003.8115
100003.7909
100003.7711
100003.7525
100003.7357
100003.7216
100003.7112
100003.7046
100003.7027
100003.7045
100003.7109
100003.7205
100003.7318
100003.7401
100003.7436
100003.7402
100003.7371
100003.7395
100003.7457
100003.7515
100003.756
100003.7087
100003.7591
100003.6279
100003.6244
100003.5541
100003.3405
100003.9463
100003.9283
100003.9127
100003.8934
100003.8734
100003.8531
100003.8334
100003.8148
100003.7974
100003.7811
100003.7655
100003.7511
100003.7389
100003.7301
100003.7256
100003.7257
100003.7304
100003.7386
100003.7478
100003.7556
100003.7637
100003.7662
100003.7657
100003.7667
100003.7669
100003.7548
100003.7262
100003.5737
100003.623
100003.5973
100003.5162
100003.4813
100003.6553
100003.9652
100003.9478
100003.9319
100003.9123
100003.8922
100003.8726
100003.8543
100003.8381
100003.8237
100003.8108
100003.7985
100003.7862
100003.7739
100003.7628
100003.755
100003.7523
100003.7546
100003.7603
100003.7675
100003.7753
100003.7863
100003.7958
100003.7995
100003.8004
100003.798
100003.7813
100003.7441
100003.5763
100003.5937
100003.6014
100003.5219
100003.5578
100003.7803
100003.9851
100003.9682
100003.9517
100003.9313
100003.9106
100003.891
100003.8737
100003.8593
100003.8477
100003.8386
100003.8307
100003.8226
100003.813
100003.802
100003.7917
100003.7857
100003.7861
100003.7901
100003.7953
100003.8033
100003.8166
100003.833
100003.8413
100003.8434
100003.8411
100003.8297
100003.8043
100003.6863
100003.6356
100003.5414
100003.6009
100003.7096
100003.8627
100004.0044
100003.9882
100003.9713
100003.9501
100003.9289
100003.9092
100003.8925
100003.8793
100003.8697
100003.8634
100003.8596
100003.8569
100003.853
100003.846
100003.8365
100003.8283
100003.8255
100003.8282
100003.8341
100003.8436
100003.859
100003.8775
100003.885
100003.8866
100003.8861
100003.8852
100003.8778
100003.8265
100003.7701
100003.5873
100003.7749
100003.8559
100003.9222
100004.0256
100004.0097
100003.9925
100003.9711
100003.9497
100003.9305
100003.9146
100003.9025
100003.8942
100003.8897
100003.8887
100003.8904
100003.893
100003.8935
100003.8899
100003.8835
100003.8788
100003.8796
100003.8866
100003.8987
100003.9119
100003.9164
100003.9106
100003.9078
100003.9068
100003.9326
100003.9544
100003.9511
100003.9226
100003.8301
100003.9326
100003.964
100003.9795
100004.041
100004.0243
100004.007
100003.9863
100003.9656
100003.9471
100003.9323
100003.9215
100003.9148
100003.9121
100003.9132
100003.918
100003.9254
100003.9333
100003.938
100003.9382
100003.9364
100003.9371
100003.9424
100003.9479
100003.9432
100003.9297
100003.9257
100003.9365
100003.9247
100003.9452
100003.9948
100004.0355
100004.0265
100004.0166
100004.0259
100004.0392
100004.0339
100004.0588
100004.0415
100004.0259
100004.0083
100003.9926
100003.9794
100003.9691
100003.962
100003.9581
100003.9571
100003.959
100003.9638
100003.9713
100003.9805
100003.9891
100003.9956
100004.0008
100004.0067
100004.0137
100004.0161
100004.0071
100003.9974
100004.0075
100004.032
100004.0129
100004.0053
100004.0572
100004.1242
100004.1208
100004.1332
100004.1164
100004.1235
100004.1103
100004.0707
100004.0555
100004.0545
100004.0607
100004.0818
100004.1227
100004.1896
100004.2956
100004.4949
100005.2109
100005.3117
100002.9513
100003.8198
100003.7814
100003.1277
100003.8365
100003.8109
100003.8692
100003.85
100003.8812
100003.8434
100003.8282
100003.8357
100003.8373
100003.8254
100003.813
100003.7998
100003.7863
100003.7735
100004.0585
100004.0496
100004.0486
100004.0478
100004.0589
100004.0777
100004.0956
100004.108
100004.1079
100004.0769
100003.842
100003.666
100003.8177
100003.8369
100003.8102
100003.8763
100003.9043
100003.9392
100003.8523
100003.8774
100003.8446
100003.8536
100003.8493
100003.8464
100003.8386
100003.8312
100003.8237
100003.8153
100003.8064
100003.798
100003.7914
100003.7878
100004.0466
100004.0386
100004.0419
100004.0497
100004.0774
100004.1323
100004.2106
100004.2995
100004.3176
100004.1835
100004.1077
100003.9224
100003.8933
100003.8637
100003.8073
100003.8487
100003.8551
100003.858
100003.8463
100003.859
100003.851
100003.8652
100003.8738
100003.8585
100003.8469
100003.8379
100003.8298
100003.8207
100003.8107
100003.8015
100003.7945
100003.7907
100004.0386
100004.0273
100004.0283
100004.0276
100004.036
100004.0487
100004.0604
100004.0605
100004.0362
100003.9911
100003.9577
100003.8981
100003.8733
100003.8535
100003.8342
100003.8408
100003.8449
100003.8531
100003.8494
100003.8555
100003.852
100003.852
100003.8468
100003.828
100003.8116
100003.7987
100003.7887
100003.7811
100003.7755
100003.772
100003.7713
100003.7738
100003.7799
100004.0272
100004.0045
100004.0047
100003.9995
100004.0002
100004.0039
100004.0082
100004.0056
100003.9854
100003.944
100003.911
100003.8754
100003.8531
100003.8378
100003.8276
100003.8265
100003.8275
100003.8304
100003.8326
100003.8471
100003.8417
100003.8286
100003.8116
100003.7956
100003.7833
100003.7704
100003.7604
100003.7547
100003.7525
100003.7534
100003.7573
100003.7646
100003.7772
100004.0181
100003.9711
100003.9748
100003.9663
100003.9622
100003.959
100003.9541
100003.9427
100003.9213
100003.8916
100003.8664
100003.8449
100003.8299
100003.8205
100003.8157
100003.8158
100003.8182
100003.8235
100003.8294
100003.835
100003.827
100003.8139
100003.8011
100003.7914
100003.7787
100003.7657
100003.7559
100003.7498
100003.7471
100003.7485
100003.7536
100003.7615
100003.7721
100003.9961
100003.929
100003.9473
100003.9364
100003.9295
100003.9211
100003.9112
100003.897
100003.8771
100003.8539
100003.8338
100003.8181
100003.8076
100003.8018
100003.7996
100003.7994
100003.7994
100003.8007
100003.8038
100003.8096
100003.8156
100003.8175
100003.821
100003.8127
100003.8002
100003.785
100003.7726
100003.764
100003.7594
100003.7591
100003.7626
100003.7691
100003.7769
100003.9153
100003.8618
100003.929
100003.9002
100003.8973
100003.888
100003.8769
100003.8626
100003.8442
100003.8239
100003.8055
100003.7908
100003.7804
100003.7736
100003.7695
100003.7675
100003.7677
100003.7718
100003.7804
100003.793
100003.8061
100003.8216
100003.8356
100003.8357
100003.8252
100003.8112
100003.7998
100003.7901
100003.7827
100003.7792
100003.7799
100003.784
100003.7888
100003.614
100003.6702
100003.8428
100003.8433
100003.8583
100003.8546
100003.845
100003.8307
100003.8125
100003.7926
100003.7741
100003.7586
100003.7469
100003.7391
100003.7352
100003.7349
100003.7379
100003.7449
100003.7562
100003.7728
100003.7941
100003.8208
100003.8462
100003.8566
100003.8515
100003.8397
100003.8296
100003.8188
100003.8081
100003.8013
100003.7992
100003.8015
100003.8065
100003.6802
100003.729
100003.7819
100003.8117
100003.8243
100003.8231
100003.814
100003.799
100003.7803
100003.7604
100003.7419
100003.7267
100003.7157
100003.7097
100003.7081
100003.7103
100003.7164
100003.7266
100003.7413
100003.7614
100003.788
100003.8218
100003.8569
100003.8794
100003.8823
100003.8725
100003.8618
100003.8474
100003.8303
100003.8185
100003.8126
100003.8131
100003.8174
100003.8591
100003.8202
100003.8166
100003.8074
100003.8052
100003.799
100003.7875
100003.7711
100003.7521
100003.7329
100003.7158
100003.7023
100003.6935
100003.6898
100003.6914
100003.6974
100003.7074
100003.7212
100003.7391
100003.7621
100003.7922
100003.8304
100003.8724
100003.9054
100003.9188
100003.9154
100003.9056
100003.8836
100003.8551
100003.8339
100003.8209
100003.8188
100003.8275
100003.8215
100003.8221
100003.8226
100003.8032
100003.793
100003.7818
100003.7667
100003.7489
100003.7305
100003.7129
100003.6979
100003.6864
100003.6798
100003.679
100003.6836
100003.6927
100003.7056
100003.7218
100003.7412
100003.7648
100003.7947
100003.8334
100003.8799
100003.9249
100003.9539
100003.9643
100003.9622
100003.9379
100003.8982
100003.8646
100003.8373
100003.8239
100003.8328
100003.8178
100003.8313
100003.8351
100003.8137
100003.7886
100003.7724
100003.7522
100003.7333
100003.7159
100003.7002
100003.6869
100003.6769
100003.6725
100003.6739
100003.6807
100003.6921
100003.707
100003.7244
100003.7438
100003.7658
100003.7932
100003.8305
100003.8802
100003.9369
100003.9848
100004.0146
100004.0219
100003.9976
100003.9531
100003.9092
100003.8673
100003.8379
100003.8445
100003.8189
100003.8194
100003.8107
100003.7975
100003.7797
100003.7711
100003.7423
100003.7225
100003.7059
100003.6919
100003.6798
100003.6714
100003.6686
100003.6715
100003.6799
100003.6928
100003.7088
100003.7263
100003.7444
100003.7636
100003.7868
100003.82
100003.8691
100003.9317
100003.9931
100004.0398
100004.0565
100004.0454
100004.0143
100003.9675
100003.9205
100003.8799
100003.8821
100003.8213
100003.8106
100003.7968
100003.7815
100003.7677
100003.7558
100003.7348
100003.716
100003.7002
100003.687
100003.6759
100003.6688
100003.667
100003.6707
100003.6796
100003.693
100003.7091
100003.7258
100003.7416
100003.7564
100003.7731
100003.7983
100003.8395
100003.897
100003.9589
100004.0115
100004.0395
100004.0471
100004.0285
100003.9859
100003.9459
100003.917
100003.9272
100003.8258
100003.8122
100003.7966
100003.7762
100003.7625
100003.7486
100003.7312
100003.7133
100003.698