/*--------------------------------*- C++ -*----------------------------------*\
  =========                 |
  \\      /  F ield         | OpenFOAM: The Open Source CFD Toolbox
   \\    /   O peration     | Website:  https://openfoam.org
    \\  /    A nd           | Version:  8
     \\/     M anipulation  |
\*---------------------------------------------------------------------------*/
FoamFile
{
    version     2.0;
    format      ascii;
    class       surfaceScalarField;
    location    "2";
    object      phi;
}
// * * * * * * * * * * * * * * * * * * * * * * * * * * * * * * * * * * * * * //

dimensions      [1 0 -1 0 0 0 0];

internalField   nonuniform List<scalar> 
197358
(
-3.569385926e-05
1.236384205e-05
1.178718562e-05
-4.641208203e-05
1.186799739e-05
-7.836572065e-06
-4.681234814e-05
1.343055736e-05
-2.030688087e-05
-4.241515628e-05
1.356007809e-05
-2.669256634e-05
-3.955351862e-05
1.199299568e-05
-2.545621911e-05
-4.484930279e-05
8.88119964e-06
-1.761868777e-05
-5.80352362e-05
4.944687073e-06
-1.108325073e-05
-6.838568235e-05
2.971766803e-06
-1.601328363e-05
-7.104749554e-05
4.410878114e-06
-2.705416445e-05
-6.455887661e-05
9.23518642e-06
-4.227666378e-05
-3.593694583e-05
1.656679098e-05
-7.219357179e-05
-3.066742483e-05
1.647033303e-05
-4.048543536e-05
-4.243118747e-05
1.747353305e-05
-1.595089639e-05
-5.455569887e-05
2.17140067e-05
-1.454511595e-05
-2.271048218e-05
3.246978433e-05
-7.23868312e-05
-2.179998488e-05
2.633663928e-05
-2.447543246e-05
-2.654806648e-05
2.562973794e-05
-1.177624222e-05
-2.585959072e-05
2.620779763e-05
-1.423440067e-05
-2.48924845e-05
2.820332971e-05
-1.429659865e-05
-1.521003047e-05
2.99959762e-05
-2.388058049e-05
2.682133471e-05
3.375347468e-05
-7.22512044e-05
3.957675539e-05
2.98825596e-05
-1.836993498e-05
4.029950046e-05
2.693434921e-05
-5.229952577e-07
4.00950247e-05
2.41114158e-05
7.159092177e-06
3.991571885e-05
2.301896417e-05
1.124909734e-05
4.034406728e-05
2.265120674e-05
1.337565054e-05
4.197211003e-05
2.219068481e-05
1.456508301e-05
2.095143404e-05
1.491778146e-05
-3.220704543e-05
2.554550051e-05
1.902450871e-05
-4.633512182e-05
2.285007196e-05
3.145116185e-06
-5.187942706e-05
2.557363962e-05
-6.599712977e-06
-5.327105106e-05
2.742432082e-05
-1.24736466e-05
-5.488301742e-05
2.716030841e-05
-1.355657627e-05
-5.857336237e-05
2.558108995e-05
-1.301122837e-05
-6.220588153e-05
2.398957293e-05
-1.541503374e-05
-6.161040202e-05
2.36637852e-05
-2.129222861e-05
-5.565206141e-05
2.553208186e-05
-2.708835229e-05
-4.538432233e-05
2.963736171e-05
-3.06856133e-05
-3.102691363e-05
3.41169602e-05
-3.19300156e-05
-2.705244591e-05
3.33363087e-05
-2.085273709e-05
-3.381284674e-05
3.169978283e-05
-7.471151122e-06
-4.052246953e-05
3.255452582e-05
-4.132857112e-06
-3.592093492e-05
3.741500876e-05
-9.547490787e-06
-3.24364102e-05
3.384929423e-05
-1.099749383e-05
-2.902928161e-05
3.198622297e-05
-9.763892912e-06
-2.228292922e-05
3.16065992e-05
-1.214540276e-05
-1.375726096e-05
3.090793912e-05
-1.123053792e-05
-9.734379425e-07
3.09552367e-05
-1.374338944e-05
1.624461531e-05
3.566347851e-05
-1.912844271e-05
2.782131376e-05
2.115767573e-05
-2.852128631e-06
3.447288737e-05
1.208832524e-05
8.194175036e-06
3.776325137e-05
6.305714649e-06
1.451506286e-05
3.942204469e-05
2.874454685e-06
1.848544099e-05
4.107288923e-05
7.93538927e-08
2.092073301e-05
4.366461352e-05
-2.894109696e-06
2.249279687e-05
4.691671621e-05
-5.570356777e-06
2.326941562e-05
5.040326897e-05
-7.74409639e-06
2.33770934e-05
5.363606076e-05
-9.546199535e-06
2.308339435e-05
5.62088811e-05
-1.137398592e-05
2.262222794e-05
-1.351660534e-05
2.211568809e-05
-2.273944373e-05
1.959426124e-05
2.868979198e-05
-4.013047505e-05
2.18969482e-05
1.834328264e-05
-5.09881707e-05
2.753440535e-05
8.896032453e-06
-5.78960049e-05
3.044613542e-05
3.885053235e-06
-6.288897217e-05
3.088115927e-05
1.271006526e-06
-6.628837947e-05
3.158841057e-05
-2.609327994e-06
-6.665155056e-05
3.379648067e-05
-9.445762443e-06
-6.239818847e-05
3.65149787e-05
-1.710769095e-05
-5.388203769e-05
3.965614253e-05
-2.264516603e-05
-4.295416632e-05
4.259030204e-05
-2.388817919e-05
-3.17133254e-05
4.421967329e-05
-2.13523472e-05
-2.919260122e-05
4.274971242e-05
-1.193976848e-05
-3.511434928e-05
3.993160358e-05
-2.312918003e-06
-3.997125276e-05
3.804587644e-05
-6.357257374e-07
-3.793130859e-05
3.77836237e-05
-2.409183439e-06
-3.495033462e-05
3.591868098e-05
-5.050699255e-06
-3.117531862e-05
3.361493561e-05
-5.404015163e-06
-2.448498858e-05
3.076388058e-05
-5.847882903e-06
-1.477234808e-05
2.554870546e-05
-4.353679101e-06
-4.328525935e-06
2.408545317e-05
-3.574320798e-06
9.837170985e-06
1.923595835e-05
2.261603438e-06
1.824238741e-05
2.095944563e-06
1.065623951e-05
2.562897389e-05
-1.259351795e-05
1.729497203e-05
3.059747193e-05
-1.984421711e-05
2.118115126e-05
3.41506608e-05
-2.43637307e-05
2.368471803e-05
3.712349773e-05
-2.82252758e-05
2.533151723e-05
4.001362939e-05
-3.179018653e-05
2.60056702e-05
4.305735933e-05
-3.436563046e-05
2.57512677e-05
4.60627544e-05
-3.550581937e-05
2.475604906e-05
4.869306597e-05
-3.548852172e-05
2.331172606e-05
5.070253523e-05
-3.49929422e-05
2.160919058e-05
-3.443292942e-05
1.970506355e-05
-7.587541719e-06
-5.447918431e-06
3.262882943e-05
-2.35816154e-05
7.545596175e-06
3.034455312e-05
-3.839035325e-05
1.983009667e-05
2.251218133e-05
-4.882872703e-05
2.49949088e-05
1.588870455e-05
-5.664829039e-05
2.638352785e-05
1.231622617e-05
-6.225455244e-05
3.014447682e-05
7.049072084e-06
-6.371813902e-05
3.619276914e-05
-9.341188241e-07
-6.076326892e-05
4.143998825e-05
-7.881777242e-06
-5.396521292e-05
4.504148454e-05
-1.218597394e-05
-4.547819775e-05
4.681117232e-05
-1.271118226e-05
-3.84088207e-05
4.662392593e-05
-9.477130648e-06
-3.714829511e-05
4.43834815e-05
-2.896791078e-06
-4.040519486e-05
4.117593711e-05
2.011111068e-06
-4.269278131e-05
3.834611021e-05
1.986565174e-06
-4.181534795e-05
3.630109648e-05
6.046192369e-07
-3.931984689e-05
3.383197603e-05
-4.091431065e-07
-3.567359031e-05
3.024869651e-05
-2.803357753e-07
-2.94524277e-05
2.4662332e-05
-1.199283906e-07
-2.01175985e-05
1.542915454e-05
7.844069653e-07
-1.181210841e-05
1.172014094e-05
4.059508917e-06
-2.579488255e-06
2.135562656e-06
7.867474162e-06
6.573729285e-06
-1.286618853e-05
5.808603932e-06
1.795320118e-05
-2.97241264e-05
5.750839767e-06
2.646494061e-05
-3.71474742e-05
8.791225319e-06
3.248575294e-05
-4.237053213e-05
1.198570255e-05
3.627382859e-05
-4.667603016e-05
1.466239323e-05
3.847151619e-05
-5.023359868e-05
1.624543601e-05
4.006155348e-05
-5.240534271e-05
1.644938088e-05
4.169553895e-05
-5.266047692e-05
1.552037124e-05
4.335723601e-05
-5.125817564e-05
1.41076462e-05
4.483475341e-05
-4.910425014e-05
1.263346056e-05
4.593141725e-05
-4.669184029e-05
1.116187874e-05
-4.427148719e-05
9.682401013e-06
-9.075973123e-06
-1.840584676e-05
2.203303092e-05
-1.594874461e-05
-2.389231765e-06
1.68067172e-05
-2.678271747e-05
1.142993151e-05
1.923326462e-05
-3.709000031e-05
1.832478388e-05
1.697653322e-05
-4.551970112e-05
2.034975158e-05
1.446257898e-05
-5.264684913e-05
2.611397411e-05
1.115669811e-05
-5.655264849e-05
3.406109574e-05
6.036410407e-06
-5.656919345e-05
4.09732642e-05
4.820244562e-07
-5.342134553e-05
4.46437021e-05
-2.751532881e-06
-4.886629499e-05
4.530599194e-05
-3.05151676e-06
-4.542015689e-05
4.388512613e-05
-7.089547838e-07
-4.513781518e-05
4.119691272e-05
2.902969967e-06
-4.669897869e-05
3.812738359e-05
4.608855184e-06
-4.789082307e-05
3.510627108e-05
4.431100904e-06
-4.838555246e-05
3.23524966e-05
4.442893383e-06
-4.878864565e-05
2.934911904e-05
4.885578956e-06
-4.824345781e-05
2.552890401e-05
4.174253249e-06
-4.160342519e-05
2.042004541e-05
-2.398094596e-06
-2.567653544e-05
1.316093761e-05
-1.365895437e-05
-2.021652023e-05
1.090377115e-06
5.169411879e-06
-1.440454347e-05
-6.809216445e-06
3.132479425e-06
-3.79209258e-06
-1.678005719e-05
-6.698912055e-06
1.218030732e-05
-2.77708226e-05
-1.792600767e-05
2.478862042e-05
-3.778340082e-05
-1.197270007e-05
3.2843236e-05
-4.534353981e-05
-5.081919453e-06
3.738149938e-05
-5.172045092e-05
5.058444633e-07
3.920283681e-05
-5.693232483e-05
4.877072695e-06
3.995015809e-05
-5.992295805e-05
6.769971251e-06
4.089377477e-05
-6.035908064e-05
6.754655374e-06
4.213611137e-05
-5.851681663e-05
6.015961025e-06
4.338516819e-05
-5.566925205e-05
5.315578238e-06
4.436767012e-05
-5.23655877e-05
4.690829424e-06
-4.888146006e-05
4.002277033e-06
-1.585927629e-05
-1.098969382e-06
-1.448444746e-06
-1.912078559e-05
8.09405428e-06
-7.222641545e-06
-2.099191131e-05
1.550773832e-05
-2.207543306e-06
-2.687762586e-05
1.959217254e-05
4.617468961e-06
-3.431695895e-05
2.024007576e-05
7.548142421e-06
-4.155244368e-05
2.501835082e-05
8.330231108e-06
-4.745233843e-05
3.133135093e-05
8.628745563e-06
-5.102350768e-05
3.735010118e-05
7.193398508e-06
-5.203161747e-05
4.035570528e-05
5.295119278e-06
-5.160081415e-05
4.014845938e-05
4.725715337e-06
-5.132627318e-05
3.803225856e-05
5.577364716e-06
-5.202106913e-05
3.522913917e-05
6.661755633e-06
-5.306048224e-05
3.199836228e-05
7.16778384e-06
-5.389812493e-05
2.812785017e-05
7.815536892e-06
-5.447202746e-05
2.36625239e-05
9.263421726e-06
-5.474771563e-05
1.838964769e-05
1.123474427e-05
-5.449321638e-05
1.250723395e-05
1.276677347e-05
-5.321652939e-05
7.016458215e-06
1.212651112e-05
-5.068946043e-05
1.787170783e-06
8.846320003e-06
-4.83946888e-05
-7.679538227e-06
6.474777931e-06
-3.96074451e-05
-1.146985829e-05
-4.126955355e-06
-2.120352446e-05
-1.366171932e-05
-2.152259056e-05
4.564923595e-06
-1.518712929e-05
-3.835241295e-05
2.16527358e-05
-2.77335884e-05
-2.713793058e-05
3.162788446e-05
-3.878338279e-05
-1.65356246e-05
3.69341765e-05
-4.838009361e-05
-8.646978502e-06
3.922605662e-05
-5.612995073e-05
-3.094592226e-06
4.015069495e-05
-6.037182716e-05
-4.76119024e-07
4.144661199e-05
-6.160890569e-05
-4.64569415e-08
4.30289637e-05
-5.984061366e-05
-2.589316517e-07
4.44656384e-05
-5.683760802e-05
-2.687182786e-07
4.539161547e-05
-5.318441699e-05
-1.075908851e-07
-4.925078868e-05
-3.606331908e-08
-1.435559544e-05
2.641941271e-05
-1.316361134e-05
-1.357663088e-05
2.693710028e-05
-1.962285446e-05
-1.175933361e-05
2.775816494e-05
-1.406856617e-05
-1.76850173e-05
2.74554798e-05
-1.938447941e-06
-2.796933603e-05
2.509687147e-05
5.426698591e-06
-3.609756906e-05
2.613872332e-05
7.007032495e-06
-4.324343249e-05
2.853954802e-05
9.936846616e-06
-4.913536854e-05
3.167672464e-05
1.156450399e-05
-5.322692459e-05
3.325037584e-05
1.119608352e-05
-5.594985702e-05
3.240929601e-05
1.046130832e-05
-5.812120573e-05
2.994064072e-05
1.026222129e-05
-6.00698088e-05
2.670110303e-05
1.047596634e-05
-6.184258678e-05
2.26059578e-05
1.116458749e-05
-6.378647971e-05
1.741794918e-05
1.265326266e-05
-6.631354074e-05
1.135335891e-05
1.483573968e-05
-6.958462592e-05
4.598088727e-06
1.706219038e-05
-7.302802896e-05
-2.05964195e-06
1.800984947e-05
-7.447299847e-05
-7.154153334e-06
1.561516882e-05
-7.00274776e-05
-9.983136862e-06
7.324395493e-06
-6.062922643e-05
-1.139529622e-05
-5.682856102e-06
-5.194629652e-05
-1.298062547e-05
-7.172546426e-06
-3.477270216e-05
-1.173772224e-05
-1.909795779e-05
-9.831291693e-06
-1.171167725e-05
-2.841718966e-05
1.05117119e-05
-2.154635534e-05
-2.653057033e-05
2.456961881e-05
-3.447404e-05
-1.836758468e-05
3.268758653e-05
-4.510071715e-05
-1.13976903e-05
3.674976741e-05
-5.431014998e-05
-5.882339995e-06
3.90074979e-05
-5.937806447e-05
-3.251867373e-06
4.184915915e-05
-6.162005555e-05
-2.830902186e-06
4.469529285e-05
-5.965444241e-05
-3.032712959e-06
4.685920609e-05
-5.617515987e-05
-2.826792017e-06
4.785503886e-05
-5.180336572e-05
-2.377350224e-06
-4.724632135e-05
-2.04923929e-06
-1.058535196e-05
5.087567405e-05
-1.387168716e-05
-9.826614957e-06
4.471626376e-05
-1.853872555e-05
-8.596821774e-06
3.963509699e-05
-1.310754965e-05
-1.686207278e-05
3.458582481e-05
1.134095809e-06
-2.962281237e-05
2.996024351e-05
7.896558064e-06
-3.881350159e-05
2.640538248e-05
8.923224391e-06
-4.712739388e-05
2.47608161e-05
1.209183484e-05
-5.423272742e-05
2.451426174e-05
1.426702869e-05
-5.96885634e-05
2.41927814e-05
1.451268466e-05
-6.376316739e-05
2.255712981e-05
1.392604883e-05
-6.686804617e-05
1.963916766e-05
1.340566441e-05
-6.916093125e-05
1.581278315e-05
1.31805614e-05
-7.08871962e-05
1.107271315e-05
1.32589117e-05
-7.248314295e-05
5.530215721e-06
1.348312273e-05
-7.421346544e-05
-3.941962122e-07
1.347735291e-05
-7.647322972e-05
-5.942808886e-06
1.280016655e-05
-7.910666668e-05
-1.085741183e-05
1.143073409e-05
-8.093094847e-05
-1.463786341e-05
9.307532989e-06
-8.019226497e-05
-1.680963518e-05
6.087365444e-06
-7.494093546e-05
-1.81955455e-05
1.548478344e-06
-6.530443914e-05
-1.933555061e-05
-3.282000223e-06
-4.885329598e-05
-1.881268307e-05
-9.376590543e-06
-2.59161828e-05
-1.98581982e-05
-1.479097283e-05
-3.114830052e-06
-2.645419757e-05
-1.789388431e-05
1.580834051e-05
-3.732519334e-05
-1.607239232e-05
2.77486083e-05
-4.591310266e-05
-1.112826192e-05
3.431451793e-05
-5.54132088e-05
-5.463238351e-06
3.844700323e-05
-6.112195879e-05
-2.38899333e-06
4.336480982e-05
-6.459173561e-05
-1.946545531e-06
4.783265431e-05
-6.188366289e-05
-2.239064756e-06
5.096214129e-05
-5.710817612e-05
-2.19693724e-06
5.194632628e-05
-5.074854832e-05
-2.039504491e-06
-4.40792481e-05
-2.161757659e-06
-9.844938047e-06
6.802242447e-05
-7.302627824e-06
-1.096256827e-05
5.599281054e-05
-1.015977713e-05
-1.321423973e-05
4.674626741e-05
-4.860331789e-06
-2.35967524e-05
3.804728385e-05
6.920226521e-06
-3.538257558e-05
3.19279542e-05
9.817291534e-06
-4.479190643e-05
2.543591566e-05
1.037798795e-05
-5.382854214e-05
2.093763991e-05
1.285902141e-05
-6.161020705e-05
1.812682121e-05
1.416833718e-05
-6.751013334e-05
1.612293385e-05
1.396902915e-05
-7.181377495e-05
1.371793392e-05
1.314211866e-05
-7.492170151e-05
1.061244278e-05
1.213396236e-05
-7.709509619e-05
6.917074723e-06
1.106844729e-05
-7.865383211e-05
2.727981194e-06
9.902845765e-06
-7.999832049e-05
-1.634551207e-06
8.508664457e-06
-8.146666593e-05
-5.750024779e-06
6.823612968e-06
-8.296414858e-05
-9.353089783e-06
4.907233293e-06
-8.40056028e-05
-1.250710015e-05
2.69063685e-06
-8.374028792e-05
-1.501084599e-05
1.071787493e-07
-8.146012505e-05
-1.683258527e-05
-2.257688925e-06
-7.639216937e-05
-1.830513354e-05
-4.958833507e-06
-6.789333557e-05
-1.975597315e-05
-8.078869122e-06
-5.361105931e-05
-2.136897486e-05
-1.172642677e-05
-3.335631363e-05
-2.458730975e-05
-1.552605824e-05
-1.031394824e-05
-3.085200155e-05
-1.864497781e-05
1.101782134e-05
-3.980451685e-05
-1.885285954e-05
2.610881498e-05
-4.745485125e-05
-1.354966242e-05
3.452768662e-05
-5.844610048e-05
-5.386403862e-06
3.97257859e-05
-6.569435332e-05
-6.261404651e-07
4.60403583e-05
-7.067061002e-05
-2.361460186e-07
5.191381828e-05
-6.737777634e-05
-3.798206572e-07
5.624753441e-05
-6.114401079e-05
-2.983856278e-07
5.766599197e-05
-5.200614532e-05
-1.614081537e-07
-4.216234461e-05
-6.174320764e-07
-1.049160647e-05
7.111976068e-05
7.393371286e-06
-1.413157912e-05
5.426685174e-05
5.365032084e-06
-1.882222678e-05
4.358666604e-05
7.849389484e-06
-2.915430912e-05
3.589822056e-05
1.248028963e-05
-3.968494694e-05
3.086743842e-05
1.159030755e-05
-4.89411987e-05
2.350160482e-05
1.118973287e-05
-5.807493098e-05
1.804636169e-05
1.202420156e-05
-6.600267398e-05
1.416124451e-05
1.189253385e-05
-7.206691156e-05
1.136651088e-05
1.081989937e-05
-7.649384047e-05
8.710210673e-06
9.433917703e-06
-7.971796533e-05
5.936457809e-06
7.899403895e-06
-8.206282056e-05
3.036687986e-06
6.224565446e-06
-8.38042995e-05
9.607189311e-08
4.372739823e-06
-8.510148499e-05
-2.601862195e-06
2.26387114e-06
-8.568057964e-05
-4.955097409e-06
-2.164444731e-07
-8.567802572e-05
-6.638878666e-06
-2.71733504e-06
-8.506990352e-05
-7.749735378e-06
-5.366027709e-06
-8.371108869e-05
-8.403844272e-06
-7.966337896e-06
-8.119068474e-05
-8.889729539e-06
-1.046376706e-05
-7.676434145e-05
-9.750315209e-06
-1.298165819e-05
-6.919751237e-05
-1.163786295e-05
-1.568542602e-05
-5.683777302e-05
-1.50710554e-05
-1.865813291e-05
-3.894302053e-05
-2.083369442e-05
-2.164882659e-05
-1.65943764e-05
-2.911524491e-05
-2.408584908e-05
6.31190798e-06
-3.805507525e-05
-2.465616736e-05
2.420988694e-05
-4.637719579e-05
-1.897608826e-05
3.37062247e-05
-5.999540455e-05
-7.947501377e-06
3.942782571e-05
-6.955681549e-05
-1.85961979e-06
4.701770669e-05
-7.561195415e-05
-2.649025665e-06
5.456784578e-05
-7.251913379e-05
-2.409302904e-06
6.074509136e-05
-6.559818583e-05
-1.723622891e-06
6.332345061e-05
-5.426745464e-05
-3.176551843e-07
-4.068690864e-05
5.850142582e-07
-1.190835641e-05
6.601095806e-05
1.701625367e-05
-1.65279574e-05
4.095141017e-05
1.79341501e-05
-2.070514954e-05
3.151329384e-05
1.624969042e-05
-3.096100729e-05
3.285624325e-05
1.32969429e-05
-4.182314774e-05
2.962221338e-05
1.210648885e-05
-5.113399474e-05
2.163126826e-05
1.118032325e-05
-6.011406738e-05
1.677164078e-05
1.025395631e-05
-6.79516689e-05
1.323854361e-05
8.759491435e-06
-7.426678661e-05
1.081113358e-05
6.869711357e-06
-7.920244414e-05
8.676423354e-06
4.968688877e-06
-8.301992036e-05
6.593539696e-06
3.159666246e-06
-8.589326356e-05
4.491903743e-06
1.417427537e-06
-8.794695238e-05
2.536162027e-06
-3.870756028e-07
-8.927607947e-05
9.785195739e-07
-2.251917177e-06
-8.989856636e-05
4.167288166e-08
-4.375005637e-06
-8.970429228e-05
-1.712038812e-07
-6.662557357e-06
-8.884635555e-05
3.918668812e-07
-9.000108714e-06
-8.74148834e-05
1.392014795e-06
-1.122788013e-05
-8.521962865e-05
2.227688752e-06
-1.331320751e-05
-8.154632922e-05
1.986621325e-06
-1.54107592e-05
-7.498066108e-05
-4.130188243e-07
-1.779102409e-05
-6.384512653e-05
-5.344049744e-06
-2.08630358e-05
-4.709035438e-05
-1.265227482e-05
-2.493666605e-05
-2.539730968e-05
-2.113088839e-05
-2.967785845e-05
-1.261057454e-06
-2.902168614e-05
-3.317009669e-05
1.901118242e-05
-3.886302419e-05
-2.778689673e-05
2.847819433e-05
-5.544911447e-05
-1.401381355e-05
3.436684898e-05
-6.682062314e-05
-8.625383923e-06
4.436046632e-05
-7.302988937e-05
-1.257623032e-05
5.446306417e-05
-7.10706639e-05
-1.155166296e-05
6.340645251e-05
-6.44224739e-05
-1.011972951e-05
6.889197083e-05
-5.32850963e-05
-6.468557876e-06
-3.940647293e-05
-2.256437778e-06
-1.545296757e-05
6.177658491e-05
1.968645144e-05
-2.41344491e-05
3.024999338e-05
1.938201159e-05
-2.695170519e-05
2.122118464e-05
1.310845405e-05
-3.224394314e-05
3.093910608e-05
7.208442838e-06
-4.110520469e-05
2.829907611e-05
1.018348953e-05
-5.156447256e-05
2.117226575e-05
1.091737725e-05
-6.095366545e-05
1.769322425e-05
8.466738933e-06
-6.874936057e-05
1.525583603e-05
5.777562106e-06
-7.464664719e-05
1.364629812e-05
3.061311642e-06
-7.899354494e-05
1.227192645e-05
7.506138144e-07
-8.240942021e-05
1.086581281e-05
-8.571494457e-07
-8.52420325e-05
9.256188725e-06
-1.9323935e-06
-8.7546666e-05
7.734743356e-06
-2.894634063e-06
-8.926157394e-05
6.697054065e-06
-4.004263602e-06
-9.032243209e-05
6.472180481e-06
-5.370169475e-06
-9.077869373e-05
7.30059938e-06
-7.016125335e-06
-9.074123783e-05
9.212184024e-06
-8.858354729e-06
-9.036946018e-05
1.178845181e-05
-1.076878486e-05
-8.952174851e-05
1.418414445e-05
-1.280472647e-05
-8.738455098e-05
1.524906209e-05
-1.540018661e-05
-8.24657719e-05
1.393128695e-05
-1.926361965e-05
-7.285285583e-05
1.002563783e-05
-2.498311874e-05
-5.753237214e-05
4.602175423e-06
-3.257542266e-05
-3.667132792e-05
-1.19207164e-06
-4.080032113e-05
-1.16056509e-05
-7.692074109e-06
-4.639574913e-05
9.653196979e-06
-1.960951184e-05
-4.051285677e-05
1.686866843e-05
-3.911859552e-05
-2.354652259e-05
2.303727679e-05
-5.083115784e-05
-2.215863635e-05
3.837713034e-05
-5.731761049e-05
-3.105271132e-05
5.189802868e-05
-5.64957274e-05
-2.809648257e-05
6.443569423e-05
-5.0257096e-05
-2.670374982e-05
7.2460506e-05
-4.145044016e-05
-1.986025769e-05
-3.158362177e-05
-1.073452337e-05
-3.670372735e-06
4.801477095e-05
1.743126296e-05
-9.881631564e-06
1.774735091e-05
1.871298244e-05
-2.701590813e-05
1.39040935e-05
2.445042146e-05
-3.818018748e-05
2.907485518e-05
1.302758827e-05
-4.514961832e-05
2.646262115e-05
8.804944151e-06
-5.488345633e-05
2.173409134e-05
9.171083506e-06
-6.353829543e-05
1.962076158e-05
6.726397286e-06
-7.10954805e-05
1.841437293e-05
4.397778819e-06
-7.691864995e-05
1.754231625e-05
1.926316923e-06
-8.114098816e-05
1.676165313e-05
-2.681897276e-07
-8.423596825e-05
1.584507956e-05
-1.885056365e-06
-8.655185817e-05
1.473204172e-05
-3.160701966e-06
-8.825508846e-05
1.373088994e-05
-4.29362313e-06
-8.946107943e-05
1.32612882e-05
-5.358913346e-06
-9.037927943e-05
1.375843528e-05
-6.368682158e-06
-9.132199759e-05
1.561122727e-05
-7.368528586e-06
-9.262347266e-05
1.899694817e-05
-8.483894104e-06
-9.443174466e-05
2.354794534e-05
-9.951811042e-06
-9.619261861e-05
2.81970102e-05
-1.225256814e-05
-9.638558243e-05
3.162628985e-05
-1.618482985e-05
-9.299525275e-05
3.304695056e-05
-2.250654645e-05
-8.419058922e-05
3.253857648e-05
-3.131813043e-05
-6.86375709e-05
3.075355085e-05
-4.170488242e-05
-4.639280954e-05
2.783349277e-05
-5.127077172e-05
-2.033817933e-05
2.216377413e-05
-5.591092653e-05
-2.060661962e-06
9.834206951e-06
-4.772171545e-05
-1.196241289e-06
-8.033118124e-06
-3.195041713e-05
6.848333651e-06
-1.678937995e-05
-4.208687931e-05
3.0148278e-05
-2.370680571e-05
-5.691127064e-05
4.698733778e-05
-2.234277696e-05
-5.099261881e-05
6.334167601e-05
-1.579829836e-05
-5.081384602e-05
7.317343903e-05
-1.078948808e-05
-4.049358097e-05
-8.178436782e-06
-2.630864601e-05
-3.415358536e-06
3.478921236e-05
1.664000901e-05
-1.410417434e-05
1.528904984e-05
1.314621388e-05
-3.189940908e-05
1.517343878e-05
1.652497393e-05
-4.081769456e-05
2.548003511e-05
1.25121571e-05
-4.636744491e-05
2.494443051e-05
7.066977897e-06
-5.559474601e-05
2.347218447e-05
7.488259722e-06
-6.432702978e-05
2.258232168e-05
5.76980214e-06
-7.183609706e-05
2.229479667e-05
3.627758065e-06
-7.756727953e-05
2.21078483e-05
1.164801367e-06
-8.16371567e-05
2.198080737e-05
-1.150092549e-06
-8.437134732e-05
2.173131863e-05
-3.152833635e-06
-8.610529446e-05
2.138344417e-05
-4.918212388e-06
-8.712060549e-05
2.11745515e-05
-6.429080316e-06
-8.775801723e-05
2.145330108e-05
-7.555303157e-06
-8.848475976e-05
2.26471885e-05
-8.162684982e-06
-8.986028134e-05
2.526107063e-05
-8.274974393e-06
-9.231836784e-05
2.972337667e-05
-8.268972476e-06
-9.578455915e-05
3.591634757e-05
-8.902821144e-06
-9.928533479e-05
4.273249527e-05
-1.103530702e-05
-0.0001009493869
4.860133626e-05
-1.531158772e-05
-9.856344086e-05
5.268098846e-05
-2.202057124e-05
-9.024671438e-05
5.509579813e-05
-3.087450908e-05
-7.495997328e-05
5.620656271e-05
-4.07402648e-05
-5.389504741e-05
5.578959201e-05
-4.902148809e-05
-3.325594858e-05
5.241697428e-05
-5.089276759e-05
-2.768532952e-05
4.442972961e-05
-4.016663422e-05
-2.964003654e-05
3.281636773e-05
-3.889528476e-05
-1.088912251e-05
2.626242586e-05
-6.18031981e-05
2.014319104e-05
2.192686168e-05
-7.666641145e-05
3.95858677e-05
2.378382878e-05
-6.556979578e-05
6.116564057e-05
2.903224764e-05
-6.641093665e-05
7.624949128e-05
2.909761005e-05
-5.497178456e-05
2.367035194e-05
-3.909582383e-05
-7.685918111e-06
2.722832392e-05
1.524589996e-05
-2.239699661e-05
2.142210489e-05
8.577110308e-06
-3.670805357e-05
2.160747157e-05
7.876094936e-06
-4.325564598e-05
2.442368379e-05
7.60300572e-06
-4.872823705e-05
2.52761508e-05
5.139920378e-06
-5.725040983e-05
2.590365614e-05
6.089761129e-06
-6.561113521e-05
2.606393617e-05
4.878194218e-06
-7.270871865e-05
2.660931025e-05
2.782185085e-06
-7.809047967e-05
2.724159988e-05
2.471572862e-07
-8.187208309e-05
2.791064211e-05
-2.14905367e-06
-8.423987202e-05
2.848625601e-05
-4.387944263e-06
-8.541787826e-05
2.899989642e-05
-6.439217214e-06
-8.567200652e-05
2.961454138e-05
-8.186609084e-06
-8.541968336e-05
3.060643192e-05
-9.406178015e-06
-8.532120471e-05
3.237433406e-05
-9.82632533e-06
-8.625617206e-05
3.547222224e-05
-9.276863098e-06
-8.897190874e-05
4.051488332e-05
-8.076423906e-06
-9.339869635e-05
4.770839964e-05
-7.365893091e-06
-9.818780106e-05
5.611797123e-05
-8.596985185e-06
-0.0001010720461
6.393467736e-05
-1.244971178e-05
-9.97351051e-05
7.006509047e-05
-1.872166434e-05
-9.246361058e-05
7.4564831e-05
-2.674113439e-05
-7.887532006e-05
7.780373241e-05
-3.518602951e-05
-6.149434906e-05
7.974101029e-05
-4.133292025e-05
-4.777899268e-05
7.968861685e-05
-4.098752905e-05
-4.63627601e-05
7.708090064e-05
-3.406794465e-05
-4.381689852e-05
7.186076766e-05
-4.15907948e-05
-1.75880211e-05
6.737500836e-05
-6.734191785e-05
2.264333691e-05
6.491425171e-05
-8.321914376e-05
4.766766904e-05
6.543405663e-05
-6.667506967e-05
7.081735294e-05
6.564827378e-05
-5.976631729e-05
8.607267115e-05
5.960832337e-05
-4.576690215e-05
4.619120062e-05
-2.846769144e-05
-1.173632352e-05
2.355853951e-05
1.540522005e-05
-2.404770279e-05
2.29071537e-05
1.082544295e-05
-3.44979221e-05
2.35122036e-05
8.544592472e-06
-4.297423062e-05
2.561868853e-05
7.280393695e-06
-5.049601183e-05
2.716990155e-05
5.627112036e-06
-5.89722459e-05
2.872932498e-05
5.649652874e-06
-6.696643688e-05
2.977554651e-05
4.281685603e-06
-7.365144598e-05
3.115369355e-05
2.139755382e-06
-7.866867882e-05
3.264745887e-05
-3.894709712e-07
-8.209812439e-05
3.415321566e-05
-2.813949115e-06
-8.404848654e-05
3.556898228e-05
-5.133163437e-06
-8.4644198e-05
3.690392974e-05
-7.309100271e-06
-8.409393567e-05
3.827399049e-05
-9.21046903e-06
-8.279884211e-05
3.990099379e-05
-1.059039226e-05
-8.147957102e-05
4.213812099e-05
-1.108377496e-05
-8.124481496e-05
4.552140966e-05
-1.028464146e-05
-8.328290901e-05
5.073508233e-05
-8.182781128e-06
-8.791195871e-05
5.823642594e-05
-5.89962541e-06
-9.36575141e-05
6.739665536e-05
-5.533756671e-06
-9.773400077e-05
7.634376957e-05
-8.333235332e-06
-9.753453749e-05
8.371868775e-05
-1.385370709e-05
-9.152078658e-05
8.943975848e-05
-2.088932852e-05
-7.990074459e-05
9.399831731e-05
-2.781525911e-05
-6.595370531e-05
9.7809746e-05
-3.201638624e-05
-5.675233588e-05
0.0001008897352
-3.040310056e-05
-5.639001865e-05
0.00010269426
-2.597629687e-05
-5.005756014e-05
0.0001010577356
-3.553003375e-05
-1.958200946e-05
9.733773654e-05
-6.043881346e-05
2.59183779e-05
9.451791698e-05
-7.510451321e-05
5.465448345e-05
9.300025482e-05
-5.630292976e-05
7.583854481e-05
8.946562191e-05
-4.500216338e-05
8.637848737e-05
7.872055729e-05
-2.965314199e-05
5.621935547e-05
-9.384024624e-06
-1.284365781e-05
2.136188569e-05
1.503944528e-05
-2.481621797e-05
2.30348759e-05
1.184396994e-05
-3.517834549e-05
2.435349304e-05
9.51996442e-06
-4.413646305e-05
2.651310959e-05
8.062816804e-06
-5.225493755e-05
2.880563155e-05
6.481861387e-06
-6.033850345e-05
3.119195144e-05
5.620060861e-06
-6.785648385e-05
3.326798661e-05
4.024673689e-06
-7.41508854e-05
3.556320341e-05
1.884042333e-06
-7.885133057e-05
3.793417567e-05
-5.871026709e-07
-8.196302485e-05
4.026735647e-05
-3.003260275e-06
-8.353340215e-05
4.247618802e-05
-5.337625512e-06
-8.362498502e-05
4.455369899e-05
-7.558966565e-06
-8.238794517e-05
4.658635886e-05
-9.550170713e-06
-8.016063627e-05
4.875120287e-05
-1.107826221e-05
-7.76153564e-05
5.134228402e-05
-1.175016965e-05
-7.591455646e-05
5.483128991e-05
-1.101139167e-05
-7.657950339e-05
5.988193942e-05
-8.482605973e-06
-8.05582594e-05
6.708592512e-05
-4.871415496e-06
-8.673537247e-05
7.612821452e-05
-2.555091087e-06
-9.191553245e-05
8.524363299e-05
-3.720341522e-06
-9.294797813e-05
9.304773176e-05
-8.29725525e-06
-8.819999463e-05
9.926489561e-05
-1.457379592e-05
-7.819106707e-05
0.0001044055394
-2.041682505e-05
-6.638593166e-05
0.0001093425092
-2.333856856e-05
-5.893380036e-05
0.0001145604209
-2.112349368e-05
-5.78199208e-05
0.0001192612753
-1.768158381e-05
-4.987035249e-05
0.0001196721379
-2.656467368e-05
-1.91476574e-05
0.0001156046463
-4.899028477e-05
2.544871708e-05
0.000111797899
-6.187697814e-05
5.337683692e-05
0.0001074091377
-4.233777241e-05
7.02002421e-05
9.98455525e-05
-2.720416557e-05
7.433205538e-05
8.528864745e-05
-1.070081359e-05
4.220951402e-05
1.263076534e-05
-1.318677185e-05
1.994536876e-05
1.460244995e-05
-2.490669278e-05
2.256697381e-05
1.218698317e-05
-3.527576315e-05
2.450529945e-05
1.021642137e-05
-4.45385554e-05
2.711841714e-05
8.656639002e-06
-5.29021768e-05
3.008312586e-05
7.085279765e-06
-6.073358562e-05
3.324276118e-05
5.779754349e-06
-6.788725215e-05
3.630870523e-05
4.112110494e-06
-7.390320349e-05
3.950896572e-05
2.06936279e-06
-7.837608823e-05
4.272929808e-05
-3.230516597e-07
-8.126008244e-05
4.584552535e-05
-2.694976958e-06
-8.255240707e-05
4.878949951e-05
-5.02177741e-06
-8.228426181e-05
5.152970228e-05
-7.244926394e-06
-8.056373587e-05
5.412838198e-05
-9.263312707e-06
-7.766411034e-05
5.672052138e-05
-1.08696923e-05
-7.416396748e-05
5.953292538e-05
-1.169151746e-05
-7.113667067e-05
6.294526964e-05
-1.114199747e-05
-7.018179361e-05
6.754422528e-05
-8.617874216e-06
-7.275489481e-05
7.396484332e-05
-4.306513377e-06
-7.843912858e-05
8.216463914e-05
-3.528616721e-07
-8.429535288e-05
9.060692448e-05
4.92275087e-07
-8.65157112e-05
9.814156311e-05
-2.874129238e-06
-8.303488394e-05
0.0001043362282
-8.55283962e-06
-7.432402538e-05
0.0001095066086
-1.381262054e-05
-6.36500026e-05
0.0001147836559
-1.611586856e-05
-5.627315142e-05
0.0001209067896
-1.372393053e-05
-5.382881708e-05
0.0001269799115
-1.01636928e-05
-4.596279332e-05
0.0001285395447
-1.673417911e-05
-1.841950013e-05
0.0001236066523
-3.554607097e-05
2.0476425e-05
0.0001190561071
-4.615486732e-05
4.32292812e-05
0.0001115146274
-2.685918994e-05
5.270433012e-05
9.889161832e-05
-8.521920849e-06
4.944262658e-05
8.109384417e-05
7.455788828e-06
-1.636128972e-05
3.509952495e-05
-1.310298533e-05
1.892050168e-05
1.412704126e-05
-2.450139958e-05
2.19710851e-05
1.19934908e-05
-3.471490064e-05
2.437681477e-05
1.034117287e-05
-4.395462598e-05
2.742736352e-05
8.929965179e-06
-5.235276594e-05
3.097179588e-05
7.508655444e-06
-6.003715171e-05
3.480389787e-05
6.122435499e-06
-6.695215102e-05
3.868851638e-05
4.534378205e-06
-7.279235856e-05
4.267572012e-05
2.672649609e-06
-7.717416269e-05
4.666151235e-05
4.48793973e-07
-7.995969333e-05
5.051246413e-05
-1.882196345e-06
-8.11124471e-05
5.413455213e-05
-4.193079835e-06
-8.066302522e-05
5.746979192e-05
-6.39028397e-06
-7.869972047e-05
6.054283072e-05
-8.378515436e-06
-7.544821327e-05
6.344155859e-05