/*--------------------------------*- C++ -*----------------------------------*\
  =========                 |
  \\      /  F ield         | OpenFOAM: The Open Source CFD Toolbox
   \\    /   O peration     | Website:  https://openfoam.org
    \\  /    A nd           | Version:  8
     \\/     M anipulation  |
\*---------------------------------------------------------------------------*/
FoamFile
{
    version     2.0;
    format      ascii;
    class       volScalarField;
    location    "2";
    object      T;
}
// * * * * * * * * * * * * * * * * * * * * * * * * * * * * * * * * * * * * * //

dimensions      [0 0 0 1 0 0 0];

internalField   nonuniform List<scalar> 
67286
(
300.0028207
300.0029473
300.0029866
300.0030257
300.003033
300.0029681
300.0029211
300.0030873
300.0033274
300.0036359
300.0040126
300.0035227
300.0032673
300.0031735
300.0035289
300.0030308
300.0029532
300.0028778
300.0028507
300.0028018
300.0022842
300.0027035
300.0026553
300.0025864
300.0025286
300.0024858
300.002452
300.0024318
300.0027297
300.0027602
300.0027854
300.0028038
300.0028374
300.0029003
300.0029993
300.0031129
300.0032168
300.0033084
300.0033354
300.0031127
300.0029317
300.0028926
300.0029136
300.0028517
300.0028316
300.0028149
300.0027976
300.0027816
300.0027161
300.0026664
300.0026095
300.0025542
300.0025088
300.0024717
300.0024371
300.0024086
300.002389
300.0023771
300.0023709
300.0023681
300.0026571
300.0025779
300.0026003
300.0026488
300.0027138
300.0028102
300.002921
300.0030194
300.0030973
300.0031425
300.0031228
300.0029594
300.0028347
300.0028241
300.0028317
300.0027868
300.0027628
300.0027502
300.0027394
300.0027233
300.002683
300.0025843
300.0025252
300.0024761
300.0024386
300.0024139
300.002408
300.0024176
300.0024347
300.0024521
300.0024673
300.0024805
300.0025393
300.0024027
300.0024085
300.0024794
300.0025665
300.0026771
300.0027849
300.0028629
300.0029069
300.0029181
300.0028825
300.002788
300.0027305
300.0027271
300.0027213
300.0027018
300.0026866
300.0026761
300.0026604
300.0026276
300.0025872
300.0025785
300.0025322
300.0025131
300.0024835
300.0024642
300.002466
300.0024889
300.0025224
300.0025533
300.0025753
300.0025892
300.0025973
300.0023731
300.0024121
300.0023902
300.00245
300.0025197
300.0025888
300.002658
300.0027186
300.0027512
300.0027521
300.002722
300.0026741
300.0026501
300.0026418
300.002627
300.0026072
300.0025867
300.0025612
300.0024889
300.0025606
300.0025771
300.0025954
300.0025667
300.0025585
300.0025146
300.0024802
300.0024704
300.0024904
300.0025297
300.00257
300.0026002
300.0026196
300.0026316
300.0024408
300.0025524
300.0025403
300.0025471
300.0026023
300.002599
300.002581
300.0025911
300.0026133
300.0026212
300.0026094
300.0025878
300.0025698
300.0025493
300.0025222
300.002492
300.0024639
300.0024491
300.0024552
300.0024815
300.0025243
300.0025566
300.002571
300.0025675
300.0025102
300.0024636
300.0024454
300.0024635
300.0025077
300.0025575
300.0025977
300.0026265
300.002646
300.0025534
300.0026691
300.0026305
300.0025085
300.0025451
300.0025533
300.0025045
300.0024795
300.0024901
300.0025049
300.002504
300.0024892
300.0024673
300.0024419
300.0024187
300.0024061
300.0024126
300.002441
300.0024775
300.0025045
300.0025657
300.0025839
300.0025947
300.0025991
300.0025219
300.002463
300.0024334
300.0024428
300.0024827
300.0025368
300.002585
300.0026247
300.0026556
300.0024427
300.0025891
300.0025737
300.0024207
300.0024534
300.0024575
300.0024095
300.0023863
300.0023955
300.0024124
300.0024187
300.0024167
300.0024143
300.0024187
300.0024347
300.002462
300.0024937
300.0025247
300.0025499
300.0025639
300.0025677
300.0025663
300.0025694
300.0025768
300.0025414
300.002482
300.0024377
300.002428
300.0024526
300.0025068
300.0025606
300.0026131
300.002662
300.002314
300.0024789
300.0024574
300.0023541
300.0023813
300.0023825
300.0023619
300.0023666
300.0023887
300.0024116
300.0024287
300.0024422
300.0024557
300.002471
300.0024879
300.0025087
300.0025358
300.0025646
300.0025875
300.0026026
300.0026126
300.0026205
300.002628
300.0026218
300.0025659
300.0025001
300.0024415
300.002411
300.0024155
300.0024673
300.0025205
300.0025825
300.0026473
300.0022555
300.0024224
300.0023497
300.0023029
300.0023366
300.002355
300.0023764
300.002409
300.0024386
300.0024588
300.0024715
300.0024795
300.0024852
300.0024923
300.0025053
300.0025273
300.0025552
300.0025837
300.0026082
300.0026265
300.0026383
300.0026445
300.0026419
300.0026192
300.0025558
300.002509
300.002445
300.0024032
300.0023949
300.0024434
300.0024891
300.0025494
300.0026285
300.002266
300.0023658
300.0022561
300.0023062
300.0023293
300.0023709
300.0024182
300.0024593
300.002486
300.0024991
300.0025027
300.0025007
300.0024985
300.002501
300.0025118
300.0025326
300.0025569
300.002578
300.002591
300.0025946
300.0025901
300.0025807
300.0025709
300.0025618
300.0025477
300.0025355
300.0024574
300.0024123
300.0024063
300.0024448
300.0024873
300.0025379
300.0025982
300.0022405
300.0022936
300.002328
300.0023843
300.0023406
300.0023902
300.0024552
300.002494
300.002513
300.0025154
300.0025079
300.0024959
300.0024845
300.0024782
300.0024803
300.0024892
300.0025029
300.0025143
300.0025173
300.0025106
300.0025013
300.0025014
300.0025186
300.0025527
300.0025989
300.0025952
300.0024785
300.002439
300.0024605
300.0024646
300.0025169
300.0025648
300.0026098
300.0022647
300.0023635
300.0025413
300.0024396
300.0023897
300.0024344
300.0024874
300.0025088
300.0025154
300.0025107
300.0025019
300.0024931
300.0024864
300.0024826
300.0024817
300.0024819
300.0024816
300.0024782
300.0024712
300.0024638
300.0024644
300.0024832
300.0025289
300.0025998
300.0026695
300.0026247
300.0024691
300.0024729
300.0025797
300.002501
300.0025743
300.0026062
300.0026515
300.0022614
300.0023027
300.0024179
300.0024258
300.00242
300.0024597
300.0025011
300.0025173
300.0025227
300.002523
300.0025242
300.0025271
300.0025299
300.0025292
300.0025219
300.0025074
300.0024885
300.0024702
300.0024551
300.0024417
300.0024311
300.0024319
300.0024577
300.0025112
300.0025621
300.0024827
300.0024116
300.0025238
300.0027757
300.0025197
300.0026196
300.0026052
300.0026382
300.0022888
300.0024015
300.0024615
300.0024325
300.0024586
300.0024874
300.0025179
300.0025321
300.0025404
300.002548
300.0025576
300.0025681
300.0025759
300.0025767
300.0025661
300.0025416
300.002506
300.0024706
300.0024458
300.0024282
300.0024085
300.0023908
300.0023908
300.0024148
300.0024358
300.0023829
300.0023888
300.0025143
300.0028436
300.0024798
300.0024346
300.0024345
300.0025333
300.0022835
300.0023699
300.0024162
300.0024379
300.0024792
300.0025073
300.0025317
300.0025452
300.0025559
300.0025678
300.0025817
300.0025954
300.0026059
300.0026089
300.0025996
300.0025732
300.0025283
300.002476
300.0024377
300.0024176
300.0023984
300.0023732
300.0023544
300.0023504
300.0023415
300.0022946
300.0023105
300.0024201
300.0027117
300.0024194
300.0023523
300.0024062
300.0025629
300.0022963
300.0023732
300.0024174
300.0024505
300.0024909
300.0025187
300.00254
300.0025532
300.0025651
300.002579
300.0025945
300.0026096
300.0026215
300.0026266
300.0026204
300.0025968
300.0025505
300.0024867
300.0024314
300.0024059
300.0023941
300.0023752
300.0023514
300.0023307
300.0023008
300.0022516
300.0022667
300.0023624
300.0025911
300.0024198
300.002392
300.0025116
300.0026743
300.0023141
300.0023848
300.002425
300.00246
300.0024963
300.0025234
300.0025429
300.0025559
300.002568
300.0025824
300.0025983
300.0026138
300.0026263
300.0026329
300.0026295
300.00261
300.0025675
300.0025008
300.0024319
300.0023971
300.0023899
300.0023864
300.0023719
300.0023496
300.0023128
300.0022613
300.0022724
300.0023668
300.0025427
300.0025033
300.0025598
300.0027668
300.0028883
300.0023332
300.0024003
300.0024335
300.0024638
300.0024955
300.0025218
300.0025408
300.0025537
300.0025656
300.0025795
300.0025951
300.0026103
300.0026228
300.0026301
300.0026285
300.0026129
300.002576
300.002513
300.0024379
300.0023928
300.0023878
300.0023982
300.0024013
300.0023896
300.0023597
300.0023101
300.0023095
300.0024099
300.0025559
300.0026391
300.0026982
300.0029068
300.0014063
300.0023497
300.0024151
300.0024402
300.0024625
300.0024887
300.0025138
300.002533
300.0025462
300.0025578
300.0025709
300.002586
300.0026008
300.0026129
300.00262
300.0026194
300.0026065
300.0025751
300.0025192
300.0024463
300.002394
300.0023873
300.0024088
300.002428
300.0024325
300.0024191
300.0023836
300.0023717
300.002469
300.0026195
300.0028004
300.0027413
300.001366
299.9875715
300.0023607
300.0024258
300.0024433
300.0024563
300.0024757
300.0024986
300.0025183
300.0025325
300.0025442
300.0025568
300.0025711
300.0025855
300.0025971
300.0026036
300.0026026
300.0025907
300.0025631
300.0025149
300.0024504
300.0023987
300.0023896
300.0024164
300.0024482
300.0024662
300.0024711
300.0024572
300.0024443
300.0025333
300.0026931
300.0028138
300.0028057
300.0024193
299.9985113
300.0023645
300.0024307
300.0024423
300.002446
300.0024573
300.0024761
300.0024952
300.0025106
300.0025232
300.0025357
300.0025496
300.0025629
300.0025742
300.0025793
300.0025764
300.0025633
300.0025374
300.0024967
300.0024453
300.002403
300.0023951
300.002423
300.0024597
300.0024897
300.0025104
300.0025184
300.0025171
300.002581
300.0027211
300.0026596
300.0028362
300.0026502
300.0022978
300.0023601
300.0024284
300.002437
300.0024338
300.002437
300.0024492
300.0024647
300.0024792
300.0024923
300.0025053
300.0025192
300.0025327
300.0025428
300.0025461
300.0025407
300.0025271
300.0025052
300.002476
300.0024418
300.002413
300.0024061
300.002431
300.0024706
300.0025097
300.0025423
300.0025693
300.0025831
300.0025984
300.0026126
300.0020767
300.0026307
300.0026164
300.0028602
300.0023472
300.0024179
300.0024275
300.0024225
300.0024209
300.0024262
300.0024351
300.0024449
300.0024553
300.002467
300.0024803
300.0024935
300.0025034
300.0025068
300.002503
300.0024943
300.0024838
300.0024728
300.0024591
300.0024416
300.0024277
300.0024396
300.0024807
300.0025292
300.0025662
300.0025846
300.0025123
300.0022265
300.0017308
300.0013362
300.0017986
300.0022955
300.0026663
300.002327
300.0023987
300.0024135
300.0024137
300.0024146
300.0024184
300.0024226
300.0024262
300.0024302
300.0024358
300.0024438
300.0024534
300.0024623
300.0024682
300.0024709
300.0024731
300.0024781
300.0024852
300.002488
300.0024795
300.0024581
300.0024494
300.0024917
300.0025529
300.0025955
300.0026243
300.002573
300.002322
300.0017737
300.000958
300.0018364
300.0023441
300.0025891
300.0023037
300.0023715
300.0023935
300.0024052
300.0024166
300.0024272
300.002434
300.0024366
300.0024358
300.0024331
300.0024301
300.0024284
300.0024298
300.0024351
300.0024447
300.0024585
300.0024764
300.0024955
300.002508
300.0025061
300.002482
300.002454
300.0024898
300.0025506
300.0025924
300.0026534
300.0026551
300.0025638
300.0022924
300.0014137
300.0023356
300.0025264
300.0026531
300.0022823
300.0023387
300.0023653
300.0023908
300.0024174
300.0024405
300.0024564
300.0024644
300.0024653
300.0024595
300.0024476
300.0024319
300.0024175
300.0024118
300.00242
300.0024405
300.0024669
300.0024917
300.0025084
300.0025091
300.0024867
300.0024559
300.0024907
300.0025515
300.0025892
300.0026528
300.0026684
300.0026756
300.0026038
300.0021875
300.0026017
300.0026459
300.0027337
300.0022621
300.002301
300.0023249
300.002361
300.0024022
300.0024385
300.0024649
300.0024811
300.0024878
300.0024852
300.0024727
300.0024506
300.002423
300.0024001
300.0023952
300.0024123
300.0024419
300.0024693
300.0024839
300.002478
300.0024503
300.0024285
300.0024666
300.0025509
300.0026371
300.0025852
300.0025887
300.002679
300.0026729
300.0026504
300.0026922
300.0027313
300.0027934
300.0022167
300.0022469
300.0022656
300.0023075
300.0023593
300.0024061
300.0024418
300.0024659
300.0024793
300.0024824
300.0024748
300.0024558
300.0024272
300.0023971
300.0023808
300.0023889
300.0024147
300.002439
300.0024451
300.0024264
300.0023962
300.0023853
300.0024177
300.0024966
300.0026002
300.0024724
300.0024242
300.0025985
300.0026471
300.002771
300.0027232
300.0027866
300.0028167
300.0021287
300.0021687
300.0021877
300.0022245
300.0022684
300.0023084
300.0023401
300.0023629
300.0023773
300.0023835
300.0023818
300.0023725
300.0023575
300.0023433
300.002341
300.002357
300.0023837
300.0024047
300.0024061
300.0023809
300.0023306
300.0022685
300.002217
300.0021987
300.0022219
300.0022419
300.0022645
300.0024451
300.0025362
300.0026866
300.002656
300.0027192
300.002733
300.002802
300.0028716
300.0029109
300.0029725
300.0029913
300.0029613
300.0029588
300.0031032
300.0033897
300.003806
300.0041636
300.0033188
300.0031895
300.0029057
300.001886
300.0027105
300.002863
300.0028626
300.0028191
300.0027767
300.0026958
300.0026764
300.0025925
300.0025562
300.002512
300.0024733
300.0024421
300.0024223
300.0027302
300.0026831
300.0026689
300.0026859
300.0027305
300.0027887
300.0028755
300.0030029
300.0031523
300.0033025
300.0034046
300.003144
300.00297
300.0028658
300.002807
300.0028216
300.0028405
300.002838
300.0027946
300.0027739
300.0026677
300.0026566
300.0025765
300.0025254
300.0024793
300.002439
300.0024031
300.0023733
300.0023505
300.002334
300.0023223
300.0023139
300.0026636
300.002527
300.0025122
300.0025505
300.0026137
300.0027135
300.0028427
300.0029712
300.0030796
300.0031361
300.003148
300.0029937
300.0028715
300.0028103
300.0027838
300.0027759
300.0027696
300.0027571
300.0027306
300.002704
300.0026195
300.0025922
300.0025186
300.0024575
300.0024067
300.0023683
300.0023469
300.0023406
300.0023437
300.0023519
300.0023633
300.0023765
300.0025342
300.0023743
300.0023471
300.0024115
300.0024924
300.0025945
300.0027075
300.0028045
300.002866
300.0028944
300.0028875
300.0028218
300.0027647
300.0027363
300.0027189
300.0027041
300.0026898
300.0026739
300.0026516
300.0026332
300.0025953
300.0025765
300.0025048
300.0024561
300.00242
300.0024028
300.0024077
300.0024253
300.0024464
300.0024656
300.002481
300.0024922
300.002499
300.0024322
300.0024546
300.0024299
300.0024728
300.0025269
300.0025749
300.0026209
300.0026726
300.0027188
300.0027411
300.0027356
300.0027065
300.0026791
300.0026593
300.0026389
300.0026169
300.0025968
300.0025893
300.0026142
300.0025781
300.0025842
300.0025809
300.0025735
300.0025368
300.0025044
300.002482
300.002483
300.0024986
300.0025192
300.0025373
300.00255
300.0025574
300.00256
300.002634
300.0026386
300.002615
300.0025892
300.0025965
300.0026037
300.0025841
300.0025728
300.0025888
300.0026104
300.0026176
300.0026085
300.0025925
300.0025712
300.002544
300.0025145
300.0024877
300.0024728
300.002475
300.00249
300.0025222
300.0025812
300.0026995
300.002622
300.0025639
300.002528
300.0025218
300.0025384
300.0025625
300.0025836
300.0025968
300.0026031
300.0026035
300.0027397
300.0027115
300.0026624
300.00258
300.0025527
300.0025428
300.0025035
300.0024718
300.002475
300.0024962
300.0025095
300.0025079
300.0024947
300.0024734
300.0024492
300.0024286
300.002419
300.0024284
300.0024619
300.0025115
300.0025436
300.0025931
300.0026535
300.0026404
300.0025845
300.0025442
300.0025344
300.0025538
300.0025848
300.0026124
300.0026299
300.0026387
300.0026406
300.0026901
300.002658
300.0026007
300.0024997
300.0024647
300.0024479
300.0024117
300.0023889
300.0023951
300.0024154
300.0024309
300.0024368
300.0024361
300.0024329
300.0024318
300.0024357
300.0024472
300.0024679
300.0024949
300.0025197
300.0025438
300.0025638
300.0025855
300.0025912
300.0025669
300.0025385
300.0025304
300.0025528
300.0025885
300.0026231
300.0026475
300.0026633
300.0026727
300.0026283
300.0025377
300.0024907
300.0024097
300.0023973
300.0023888
300.0023705
300.0023684
300.0023851
300.0024073
300.0024255
300.0024381
300.0024466
300.0024528
300.0024587
300.002467
300.0024801
300.0024997
300.0025288
300.0025607
300.0025835
300.0025992
300.0026109
300.0026118
300.0025849
300.0025423
300.0025215
300.0025378
300.002571
300.0026092
300.0026407
300.0026663
300.0026851
300.0024492
300.0023613
300.0023691
300.0023334
300.0023506
300.0023608
300.0023698
300.0023889
300.0024142
300.0024375
300.0024558
300.0024692
300.0024789
300.0024867
300.0024951
300.0025085
300.0025281
300.0025546
300.0025863
300.0026171
300.0026396
300.0026512
300.0026524
300.0026372
300.0025952
300.0025439
300.0025138
300.002522
300.0025497
300.002585
300.0026187
300.0026519
300.0026824
300.002323
300.0023808
300.0023065
300.0023332
300.002337
300.0023605
300.0023888
300.0024198
300.0024495
300.002474
300.0024927
300.0025059
300.0025151
300.0025234
300.002533
300.0025465
300.0025645
300.0025863
300.002609
300.0026278
300.0026376
300.0026365
300.0026261
300.0026066
300.0025771
300.0025406
300.0025067
300.0025093
300.002539
300.0025632
300.0025937
300.0026252
300.0026576
300.0022893
300.0023878
300.002399
300.0024197
300.0023572
300.0023736
300.0024123
300.0024487
300.0024813
300.002508
300.0025279
300.00254
300.0025482
300.0025551
300.002562
300.0025693
300.0025776
300.0025862
300.0025937
300.0025985
300.002599
300.002596
300.0025954
300.0026026
300.0026102
300.0025795
300.002508
300.0024944
300.0025387
300.0025311
300.0025771
300.0026033
300.002633
300.0023208
300.0025442
300.0025675
300.0024757
300.0023727
300.0023986
300.0024374
300.0024729
300.0025045
300.0025305
300.0025499
300.0025636
300.0025746
300.002584
300.0025912
300.0025948
300.0025938
300.002588
300.0025795
300.0025737
300.0025756
300.0025868
300.0026092
300.0026426
300.0026607
300.002599
300.0024982
300.0025028
300.002639
300.0025477
300.0026735
300.0026431
300.0026364
300.0022817
300.0024117
300.002455
300.0024283
300.0023798
300.0024185
300.0024567
300.002492
300.0025232
300.0025498
300.002571
300.0025892
300.0026056
300.0026193
300.0026277
300.0026278
300.0026175
300.0025976
300.0025742
300.0025575
300.0025564
300.0025708
300.002597
300.0026292
300.0026348
300.0025502
300.0024601
300.0025371
300.0028117
300.0025976
300.0028041
300.0027276
300.0026853
300.0022729
300.0024007
300.002429
300.002421
300.0024145
300.0024437
300.0024763
300.0025091
300.0025399
300.0025681
300.0025924
300.0026155
300.0026369
300.0026545
300.0026645
300.0026624
300.002645
300.0026126
300.0025737
300.0025437
300.0025354
300.0025471
300.0025689
300.002592
300.0025889
300.0025108
300.0024567
300.0025535
300.0028928
300.0025861
300.0027366
300.0026745
300.0026515
300.002262
300.002362
300.0024015
300.0024202
300.0024378
300.0024635
300.0024927
300.0025229
300.0025529
300.002582
300.0026089
300.0026358
300.0026611
300.0026818
300.0026934
300.0026911
300.0026701
300.0026287
300.0025753
300.0025305
300.0025135
300.0025229
300.0025432
300.0025613
300.0025544
300.0024881
300.0024547
300.002542
300.0028622
300.0025776
300.002648
300.0026423
300.0026652
300.0022748
300.0023608
300.0024036
300.002429
300.0024535
300.0024778
300.0025044
300.0025319
300.0025603
300.0025892
300.0026175
300.0026465
300.0026744
300.0026973
300.0027104
300.0027089
300.0026872
300.0026414
300.0025773
300.0025185
300.0024927
300.0025005
300.0025232
300.0025427
300.0025378
300.0024839
300.0024571
300.0025275
300.0027869
300.0025835
300.0025828
300.0026123
300.0025731
300.0022933
300.0023715
300.0024131
300.0024399
300.0024641
300.0024869
300.0025109
300.0025357
300.0025616
300.0025891
300.0026172
300.0026468
300.0026758
300.0027
300.0027144
300.0027141
300.0026934
300.0026473
300.0025779
300.0025083
300.0024762
300.0024827
300.0025087
300.0025329
300.0025343
300.0024934
300.0024649
300.0025207
300.0027041
300.0025775
300.0025206
300.0026036
300.0025905
300.0023128
300.0023879
300.0024259
300.0024499
300.0024705
300.0024907
300.0025121
300.0025341
300.0025569
300.0025817
300.0026082
300.0026367
300.0026655
300.0026901
300.0027056
300.0027066
300.0026881
300.0026452
300.0025779
300.0025046
300.0024665
300.0024739
300.0025022
300.0025303
300.0025382
300.0025099
300.002475
300.0025092
300.002607
300.0025224
300.0023241
300.0022745
300.0022621
300.0023291
300.0024041
300.0024381
300.002457
300.0024723
300.0024891
300.0025078
300.0025271
300.0025467
300.0025677
300.0025913
300.0026171
300.0026441
300.0026683
300.0026843
300.0026868
300.0026711
300.0026335
300.0025742
300.0025065
300.0024679
300.0024751
300.0025053
300.0025352
300.0025481
300.0025312
300.0024921
300.002499
300.0025163
300.002445
300.0021449
300.001519
300.0040252
300.0023392
300.0024155
300.002446
300.0024593
300.0024689
300.0024816
300.0024975
300.0025143
300.0025306
300.0025475
300.0025666
300.002589
300.002613
300.0026356
300.0026517
300.0026557
300.0026437
300.0026136
300.0025664
300.0025122
300.0024798
300.0024865
300.0025159
300.0025478
300.0025661
300.002564
300.0025327
300.0025177
300.0025073
300.0024391
300.0022648
300.0018698
300.0012498
300.0023409
300.002419
300.0024474
300.0024561
300.0024605
300.0024691
300.0024819
300.0024958
300.002509
300.0025218
300.002536
300.0025536
300.0025736
300.0025947
300.0026112
300.0026182
300.0026126
300.0025931
300.0025611
300.0025225
300.0024969
300.002503
300.0025341
300.0025671
300.0025912
300.0026018
300.0025858
300.0025544
300.0025386
300.0024512
300.0023775
300.0022079
300.0012863
300.002333
300.0024129
300.0024409
300.0024479
300.0024496
300.002455
300.0024642
300.0024744
300.0024837
300.0024922
300.0025017
300.0025141
300.0025302
300.0025495
300.0025693
300.0025845
300.0025914
300.0025877
300.0025727
300.0025458
300.0025203
300.0025188
300.0025493
300.0025864
300.0026137
300.0026241
300.0025968
300.0024962
300.0024096
300.002835
300.0022851
300.0022718
300.0020902
300.002316
300.0023965
300.0024262
300.0024354
300.0024393
300.0024451
300.0024526
300.0024591
300.0024635
300.0024665
300.0024699
300.0024762
300.0024877
300.0025058
300.0025306
300.002559
300.0025845
300.0025993
300.0025992
300.00258
300.0025488
300.0025311
300.0025569
300.0025985
300.0026281
300.0026348
300.0025908
300.0025042
300.0024062
300.0033679
300.0023521
300.002306
300.0023908
300.0022926
300.0023704
300.0024025
300.0024181
300.0024301
300.0024429
300.0024545
300.0024618
300.0024634
300.00246
300.0024542
300.00245
300.002452
300.0024651
300.0024924
300.0025323
300.0025753
300.0026073
300.0026195
300.0026059
300.0025691
300.002535
300.0025545
300.0026005
300.0026323
300.0026404
300.0025965
300.0024538
300.0023698
300.0029838
300.0022955
300.0023312
300.0025301
300.0022687
300.0023369
300.0023694
300.002393
300.0024171
300.0024422
300.0024646
300.0024798
300.0024853
300.00248
300.0024656
300.002447
300.0024322
300.0024309
300.0024505
300.0024914
300.0025432
300.0025875
300.0026092
300.0026013
300.0025631
300.0025206
300.0025342
300.0025793
300.0026125
300.0026374
300.0026143
300.0025078
300.0024197
300.0025365
300.0023685
300.0024592
300.0026456
300.0022489
300.0022996
300.0023273
300.0023571
300.002393
300.0024313
300.0024663
300.0024931
300.002508
300.0025081
300.0024925
300.0024643
300.0024319
300.002409
300.0024089
300.0024366
300.0024831
300.0025293
300.0025566
300.0025552
300.0025243
300.0024889
300.0025061
300.0025525
300.0025874
300.0026125
300.002608
300.0025694
300.0025124
300.0023926
300.002512
300.0026034
300.0027363
300.002229
300.0022591
300.002276
300.0023074
300.0023517
300.0023993
300.0024431
300.0024786
300.0025024
300.002511
300.0025017
300.0024749
300.0024361
300.0023976
300.0023761
300.0023832
300.0024146
300.0024521
300.0024769
300.0024798
300.0024657
300.0024666
300.0025345
300.0026313
300.0026696
300.0025692
300.002555
300.0025873
300.0025736
300.0025209
300.0026294
300.0027019
300.0027882
300.0021802
300.0022022
300.0022111
300.0022426
300.0022915
300.0023436
300.0023905
300.0024289
300.0024564
300.0024706
300.0024691
300.0024511
300.0024196
300.0023833
300.0023564
300.0023523
300.002371
300.0023973
300.002415
300.0024206
300.0024295
300.0024744
300.0025758
300.0026773
300.0027171
300.0025431
300.0024854
300.002543
300.0025721
300.0026167
300.0026662
300.0027319
300.0027881
300.0020921
300.0021294
300.0021389
300.0021673
300.0022071
300.0022479
300.0022841
300.0023136
300.0023353
300.0023479
300.0023504
300.002343
300.0023284
300.0023131
300.0023068
300.0023164
300.0023384
300.0023603
300.002372
300.0023744
300.0023853
300.0024354
300.002544
300.0026722
300.0027001
300.0024219
300.0023252
300.0024128
300.0024622
300.0025493
300.002585
300.0026485
300.0026878
300.0027052
300.0026816
300.0027564
300.0028489
300.0028891
300.0028797
300.0028794
300.0029948
300.0032552
300.0034433
300.001781
300.0020371
300.0028108
300.0025819
300.0018774
300.0023944
300.0026783
300.0027587
300.0027666
300.0027266
300.0027902
300.002583
300.0025674
300.0025176
300.0024719
300.0024345
300.0024053
300.0023849
300.0023725
300.0026154
300.0025347
300.0024996
300.0025338
300.0025945
300.0026425
300.0026987
300.0028116
300.0029742
300.0031322
300.0031044
300.0028383
300.0028151
300.0027125
300.0026135
300.0026676
300.0027834
300.0028117
300.00274
300.0027139
300.0026561
300.0025863
300.0025432
300.0024888
300.0024377
300.0023933
300.0023559
300.0023261
300.0023036
300.002287
300.002274
300.0022641
300.0025491
300.0024373
300.0023969
300.0024194
300.0024815
300.0025845
300.0027267
300.002902
300.0030201
300.0030057
300.0029963
300.0028207
300.0027415
300.0026854
300.0026449
300.0026764
300.002707
300.0027035
300.0026782
300.0026567
300.0026124
300.0025643
300.002514
300.0024446
300.0023839
300.0023343
300.0022991
300.0022783
300.0022693
300.002269
300.0022753
300.0022857
300.002454
300.0023396
300.0023029
300.0023428
300.002409
300.0024921
300.0025803
300.0026593
300.0027213
300.0027501
300.0027579
300.0027047
300.002668
300.0026491
300.0026393
300.0026434
300.002644
300.0026359
300.0026174
300.0026007
300.0025767
300.0025425
300.0024877
300.0024242
300.0023721
300.0023391
300.0023275
300.0023314
300.0023427
300.0023563
300.0023696
300.0023808
300.0023884
300.0024179
300.0024229
300.0024112
300.002423
300.0024575
300.0025054
300.0025486
300.0025856
300.0026144
300.002628
300.0026355
300.0026219
300.0026096
300.0026007
300.0025914
300.0025829
300.0025754
300.0025766
300.0025959
300.0025547
300.0025516
300.0025406
300.002522
300.0024674
300.0024248
300.002404
300.0024005
300.002409
300.0024225
300.0024356
300.0024457
300.0024521
300.002455
300.0025597
300.002605
300.0025918
300.0025402
300.0025142
300.0025283
300.0025313
300.0025221
300.0025223
300.0025341
300.0025476
300.0025514
300.0025489
300.002541
300.0025277
300.0025118
300.0024969
300.0024879
300.0024866
300.0024867
300.0025012
300.0025431
300.0026165
300.0025594
300.0025017
300.0024664
300.002457
300.0024662
300.0024822
300.0024957
300.0025036
300.0025057
300.0025024
300.0025907
300.0026264
300.00262
300.0025412
300.0024928
300.0024856
300.0024674
300.0024431
300.002438
300.0024535
300.0024723
300.0024828
300.0024839
300.0024771
300.0024648
300.0024512
300.0024416
300.0024414
300.0024524
300.0024716
300.0024771
300.0025223
300.0025858
300.0025732
300.0025292
300.0024975
300.002492
300.0025088
300.0025311
300.0025473
300.0025543
300.0025537
300.0025466
300.002278
300.002505
300.0025451
300.0024625
300.002426
300.0024136
300.0023932
300.0023754
300.0023776
300.002397
300.0024187
300.0024341
300.002442
300.0024441
300.0024428
300.0024409
300.002441
300.002445
300.0024511
300.002457
300.0024668
300.002489
300.0025199
300.0025287
300.0025115
300.0024963
300.0025004
300.0025281
300.0025592
300.0025806
300.0025895
300.0025892
300.0025802
300.0016415
300.0021764
300.0023816
300.0023565
300.0023619
300.0023606
300.0023514
300.0023478
300.0023604
300.0023837
300.0024077
300.0024271
300.002441
300.0024503
300.0024564
300.002461
300.0024652
300.0024703
300.0024766
300.002483
300.0024901
300.0025006
300.0025159
300.0025225
300.0025072
300.0024871
300.0024864
300.0025198
300.002559
300.0025877
300.0026029
300.0026094
300.0026086
300.0021669
300.002269
300.0023359
300.0023046
300.0023205
300.002329
300.0023358
300.002348
300.0023703
300.0023975
300.0024236
300.0024456
300.0024628
300.0024758
300.0024861
300.0024946
300.0025021
300.0025094
300.0025165
300.0025225
300.002526
300.0025274
300.0025277
300.0025183
300.0024902
300.00246
300.002453
300.0024865
300.0025318
300.002566
300.0025899
300.0026073
300.0026154
300.0023965
300.0023829
300.0023267
300.0023228
300.0023106
300.0023203
300.0023378
300.0023613
300.0023905
300.0024214
300.0024499
300.002474
300.0024931
300.0025082
300.0025206
300.0025306
300.0025383
300.0025438
300.0025467
300.0025457
300.002539
300.0025261
300.0025082
300.0024843
300.0024545
300.002424
300.0024036
300.0024272
300.0024751
300.0025024
300.0025388
300.0025745
300.0026069
300.0022268
300.0023787
300.0023798
300.002379
300.002332
300.0023325
300.0023509
300.00238
300.0024137
300.0024478
300.002479
300.002505
300.0025251
300.0025412
300.0025542
300.0025634
300.0025682
300.0025679
300.0025619
300.0025498
300.002531
300.0025068
300.0024816
300.0024615
300.0024465
300.0024125
300.0023593
300.0023623
300.0024159
300.0024045
300.002482
300.0025163
300.0025689
300.002256
300.0024345
300.0024603
300.0024788
300.0023189
300.0023437
300.0023649
300.0023985
300.0024351
300.0024715
300.0025052
300.0025321
300.0025538
300.0025716
300.0025855
300.0025942
300.0025962
300.0025901
300.0025753
300.0025525
300.0025249
300.0024969
300.0024747
300.0024641
300.0024549
300.0024008
300.0023189
300.0023282
300.0024358
300.0023625
300.0025362
300.0025002
300.0025339
300.0022212
300.0023423
300.0023609
300.0024059
300.0023125
300.0023661
300.0023835
300.0024178
300.0024552
300.0024927
300.0025277
300.0025563
300.0025804
300.0026005
300.0026158
300.0026243
300.0026239
300.0026131
300.0025909
300.0025591
300.0025234
300.002492
300.0024711
300.002463
300.002449
300.0023771
300.0022796
300.0023138
300.0024999
300.0023447
300.0025941
300.0025078
300.0025185
300.0022082
300.0023159
300.0023439
300.0023787
300.002356
300.0023843
300.0024047
300.0024375
300.0024741
300.0025118
300.0025477
300.0025781
300.0026047
300.0026271
300.0026437
300.0026522
300.0026501
300.0026352
300.0026064
300.0025665
300.0025241
300.0024901
300.0024702
300.0024614
300.0024422
300.0023667
300.0022748
300.0023198
300.0025315
300.0023308
300.0025552
300.0024946
300.0025183
300.0022011
300.0023
300.0023418
300.0023742
300.0023809
300.0024011
300.0024243
300.0024554
300.0024906
300.0025277
300.0025638
300.0025956
300.0026241