/*--------------------------------*- C++ -*----------------------------------*\
  =========                 |
  \\      /  F ield         | OpenFOAM: The Open Source CFD Toolbox
   \\    /   O peration     | Website:  https://openfoam.org
    \\  /    A nd           | Version:  8
     \\/     M anipulation  |
\*---------------------------------------------------------------------------*/
FoamFile
{
    version     2.0;
    format      ascii;
    class       volScalarField;
    location    "1.4";
    object      alphat;
}
// * * * * * * * * * * * * * * * * * * * * * * * * * * * * * * * * * * * * * //

dimensions      [1 -1 -1 0 0 0 0];

internalField   nonuniform List<scalar> 
67451
(
0.0001701396188
0.0001648993359
0.0001725892365
0.000183472188
0.0001904191826
0.0001973356137
0.0001957752989
0.0001885202556
0.0001825141671
0.0001810520059
0.0002135091899
0.0002318968117
0.0002149595889
0.0001997526502
0.0001868231873
0.0001774836226
0.0001755049499
0.0001871935221
0.0002054475716
0.0002175504893
0.0002270488428
0.0002255807559
0.000216769208
0.0002071986381
0.0001986257665
0.0001899065492
0.0002030649517
0.0001859812454
0.0001942449881
0.0001970185615
0.0002025857145
0.0002165078596
0.0002364635558
0.0002544281849
0.0002614257196
0.0002553003512
0.0002218304847
0.0002592029902
0.0002405837523
0.000224504913
0.0002112848649
0.0002007025898
0.0001922432134
0.0001863451944
0.0001870801499
0.0002048762095
0.0002291189076
0.0002465747019
0.0002588307031
0.0002578708672
0.0002483922911
0.0002359223224
0.0002241914888
0.0002115173243
0.0001988274799
0.0001916066018
0.0001937097727
0.0002049571695
0.0002188334947
0.0002369457838
0.0002615759135
0.0002815673354
0.0002850852523
0.0002739672939
0.000236307923
0.0002404211169
0.0002283825483
0.0002197656541
0.0002141873996
0.0002098558833
0.0002046884941
0.0001991436404
0.0001993166874
0.0002226697041
0.0002511928969
0.0002748800819
0.0002912605826
0.0002910218763
0.0002801272172
0.0002650072047
0.0002500472808
0.0002352735111
0.0002209006761
0.0002080626895
0.0002026482483
0.0002145902395
0.0002351363397
0.000261029269
0.0002941818286
0.0003152723114
0.0003150517443
0.0002991035917
0.000256569327
0.0002297411067
0.0002298330376
0.0002316362124
0.0002317927609
0.000226754994
0.0002175231853
0.0002126291986
0.0002382225163
0.0002707162743
0.0003024200275
0.0003189112737
0.0003215795035
0.0003115765245
0.000294141295
0.0002757326528
0.0002587303827
0.0002424192011
0.0002261177455
0.0002138013153
0.0002237641936
0.0002559772623
0.000293359422
0.0003334919347
0.0003522139567
0.0003495331797
0.000330577483
0.0002810740968
0.000246779218
0.000253252132
0.0002606698715
0.0002638596234
0.0002576496665
0.0002428605526
0.0002288851843
0.0002493699679
0.0002858281971
0.0003242782106
0.0003400905705
0.0003449804268
0.0003366506771
0.0003202411144
0.0003004278645
0.0002811216864
0.0002632812139
0.0002452122438
0.0002289613435
0.0002366145124
0.0002846088343
0.000333043457
0.0003743048246
0.0003893553014
0.0003855387748
0.0003647128643
0.0003064304811
0.0002710057993
0.0002830600614
0.0002956931126
0.0003016649819
0.000294961131
0.0002758206804
0.0002513315239
0.0002563848136
0.0002945096966
0.0003386493434
0.0003596923521
0.0003605986878
0.0003520409124
0.0003375455452
0.000319928609
0.0003013914551
0.0002825337584
0.0002636957793
0.0002458444618
0.0002543073707
0.0003182294491
0.0003729236617
0.0004107650748
0.0004237085305
0.0004201983681
0.0003985780994
0.0003300411476
0.0002991758831
0.0003170751966
0.0003342034833
0.0003420198993
0.0003352736345
0.0003142795949
0.0002827192904
0.0002640161608
0.000298948523
0.0003529204437
0.000408873192
0.0003829385852
0.0003636245124
0.0003482235695
0.0003330119893
0.0003171374749
0.0003000306226
0.0002803802343
0.0002613448218
0.0002707727839
0.0003482645411
0.000403213213
0.0004369564918
0.0004486487798
0.0004464623248
0.0004268886038
0.0003509758216
0.0003294981491
0.0003541102762
0.000374924661
0.0003833122092
0.0003759400121
0.0003543153866
0.0003204262674
0.0002837981492
0.000321132089
0.000411136158
0.0005316439832
0.0004643565419
0.00040545906
0.0003705936323
0.0003489341553
0.0003314850203
0.0003147923026
0.000296791562
0.0002757815751
0.0002619276149
0.000307079571
0.0003938710621
0.0004371105798
0.0004501233375
0.000446734283
0.0004243152487
0.0003436021503
0.0003620496167
0.0003924400778
0.0004153867019
0.0004239203485
0.0004161839241
0.0003934543333
0.0003593402488
0.0003183727865
0.0003900760745
0.000548568175
0.0006902670603
0.0006139360618
0.0005054105365
0.000422025862
0.0003737274777
0.0003456093411
0.0003251790321
0.0003065925598
0.0002858648359
0.0002658761127
0.0002719802655
0.0003558986943
0.000418235666
0.0004356674696
0.0004323117758
0.0004087409416
0.0003320220881
0.0003924839645
0.0004277365475
0.0004530125585
0.0004625098383
0.0004550254758
0.0004317062769
0.0003960126347
0.0003565226033
0.0004803110192
0.0006999395287
0.0008109724186
0.0007533498912
0.0006370321483
0.0005150492436
0.0004246818684
0.0003699656853
0.0003353824533
0.0003096568501
0.0002868089917
0.0002663788005
0.0002563198097
0.0003074683996
0.0003816030346
0.0004081703995
0.000407577119
0.000386282688
0.0003185385225
0.0004174820131
0.000456374425
0.0004854209235
0.0004976458176
0.0004920199236
0.0004689592493
0.0004308271107
0.0003870799559
0.0004915818727
0.0006991121066
0.0008725685583
0.0008312546258
0.0007030635626
0.0005706280055
0.0004592088657
0.0003799305303
0.0003322012141
0.0003029241078
0.0002817860062
0.0002633229909
0.0002484544049
0.0002688082995
0.0003348751901
0.0003714112783
0.0003763828595
0.0003605468422
0.0003043566683
0.0004343187804
0.0004765009476
0.0005123112927
0.0005296871822
0.000527966443
0.0005070786781
0.0004696976287
0.000420622446
0.0003675590417
0.0004569067342
0.0007365152227
0.0007007063425
0.0005920811015
0.0004844001425
0.000401142931
0.0003470745868
0.0003131817692
0.0002904955164
0.0002736241006
0.0002586021479
0.0002440323616
0.0002446020358
0.0002898868171
0.0003297788562
0.000341952295
0.0003339401375
0.0002902421528
0.0004399134494
0.0004909147674
0.000537749634
0.0005619283028
0.0005643237914
0.0005462120556
0.0005094310225
0.0004580693505
0.0004000430006
0.0003601691952
0.0005557845374
0.0005421880925
0.0004658257663
0.0003957903162
0.0003477909276
0.000315872738
0.0002934103567
0.0002776449242
0.0002657460427
0.00025480117
0.0002434545482
0.0002358835201
0.0002538933645
0.0002884753577
0.0003077573449
0.0003085916039
0.0002761882697
0.0004333811183
0.0005015241444
0.0005586920416
0.0005900010191
0.0005934017873
0.0005777343709
0.0005429329434
0.0004915906111
0.0004283453609
0.0003655919405
0.0004094768591
0.0004014949188
0.0003641006809
0.0003322486702
0.0003084228782
0.0002899170096
0.0002764361003
0.0002673271696
0.0002605971202
0.0002561631653
0.0002591087771
0.0002595576702
0.0002505702385
0.0002580208442
0.0002755572862
0.0002838987206
0.0002614355633
0.000434783483
0.0005085593522
0.0005643842021
0.0005963799786
0.0006021029447
0.0005900819286
0.0005604926228
0.000517592954
0.0004641856391
0.0004040942636
0.0003591223335
0.0003310218171
0.0003108032336
0.0002951879137
0.0002817918508
0.0002713476665
0.0002647123926
0.0002610009023
0.0002602317912
0.0002747667665
0.0003376093578
0.000373361359
0.0003462656707
0.000291976645
0.0002628195311
0.0002618585005
0.0002453347062
0.0004175521081
0.0004923925819
0.0005506157758
0.0005843741629
0.000589559429
0.0005754840547
0.0005449547182
0.0005031489306
0.0004536244897
0.0004004389256
0.0003531082923
0.0003190389832
0.0002970692141
0.0002815903636
0.0002699731537
0.000262481017
0.0002589472755
0.0002580654206
0.0002624534589
0.0003038544213
0.0004065605034
0.0004541436099
0.0004439730495
0.0003857842142
0.0003150358865
0.00026478326
0.0002307063549
0.0003915042926
0.0004592137253
0.0005196614039
0.0005578343318
0.0005615665546
0.0005452297817
0.0005139883741
0.0004730323893
0.0004271355199
0.0003827143505
0.0003470334951
0.000320283406
0.0002998870861
0.0002833952563
0.0002704601877
0.0002618846268
0.0002578283464
0.0002571292665
0.000262215866
0.0003047308463
0.0004179934392
0.000465534324
0.0004570378477
0.0004057970067
0.0003357920443
0.0002694707641
0.0002182608277
0.000366668037
0.0004177744779
0.0004763552935
0.0005205594221
0.000522698257
0.0005049170357
0.0004741186637
0.0004363976109
0.0003986260361
0.00036692903
0.0003427931055
0.0003235031327
0.0003061445982
0.0002902569108
0.0002761130837
0.0002654411204
0.0002592071194
0.0002571215198
0.0002600145913
0.0002883892535
0.0003860497497
0.0004347389344
0.0004273981389
0.0003812980014
0.0003183060199
0.0002560600287
0.0002044603628
0.0003462953822
0.0003792358402
0.0004289189444
0.0004764588797
0.0004776681265
0.0004600660658
0.0004327013435
0.000403107734
0.000377483811
0.0003578780379
0.0003421241763
0.0003274038993
0.000312523228
0.0003050958564
0.0002873519592
0.0002707793244
0.0002615444491
0.0002575069651
0.0002576922637
0.0002715407155
0.0003357604964
0.0003806907864
0.0003750815135
0.0003358660402
0.000283815616
0.0002344486122
0.0001910666241
0.0003308236701
0.0003510172035
0.0003882495704
0.0004305683072
0.000432188134
0.0004180106903
0.0003984890096
0.0003801261088
0.0003655412301
0.0003537157729
0.0003422130922
0.0003301067759
0.0003178088557
0.0003978076026
0.0004446006509
0.0003081721195
0.0002680614421
0.0002585533602
0.000255971123
0.0002601953478
0.0002913155104
0.0003225016713
0.0003181882101
0.0002887231781
0.000250484613
0.0002162817618
0.0001808674875
0.0003210165743
0.0003360575664
0.0003622280972
0.000390999933
0.0003940007945
0.0003860408492
0.0003758125801
0.0003668000057
0.0003590885102
0.0003512823847
0.0003420142275
0.0003311182489
0.0003185718868
0.0003309755011
0.0003225482073
0.0002832441765
0.0002679106407
0.0002595865636
0.0002549516966
0.0002538276408
0.0002638459213
0.0002777484332
0.0002730270521
0.0002527311028
0.0002277099164
0.000204752539
0.0001739055709
0.0003270962659
0.00036199939
0.0003640956287
0.000368636016
0.0003688253967
0.0003654782841
0.0003617327215
0.0003581719192
0.0003540786219
0.0003486491846
0.0003414847982
0.0003327557388
0.0003223305348
0.000315034318
0.0003016152567
0.0002867043678
0.0002739690942
0.0002633459591
0.0002555039551
0.0002504362211
0.0002497889813
0.0002513358757
0.0002451240633
0.0002312584754
0.0002144260091
0.000197071008
0.0001684847863
0.0003811399105
0.0004533495651
0.0004194616813
0.0003816214997
0.0003607584923
0.0003530473454
0.0003509924954
0.0003499899181
0.0003482184717
0.0003453362973
0.000341574417
0.0003370385576
0.0003310140482
0.0003234820171
0.0003121940401
0.0002989654018
0.0002845092261
0.000270388638
0.0002582749303
0.0002489285503
0.0002424586036
0.0002374195152
0.0002297567729
0.0002185849441
0.0002050365059
0.0001898658138
0.0001629369895
0.0004263964754
0.0005059647778
0.0004658282877
0.0004062221813
0.0003623509029
0.0003436699812
0.0003397173851
0.0003399655418
0.0003406805451
0.0003415634574
0.0003427503763
0.0003434616926
0.000342016177
0.0003369646698
0.0003270237188
0.0003128195245
0.0002962200118
0.00027881618
0.0002624332078
0.0002484829494
0.0002374163545
0.0002283258244
0.0002190339098
0.0002081516709
0.0001954067695
0.0001812186142
0.000156282055
0.0004299503533
0.0005120022945
0.0004703306728
0.0004061370707
0.0003549338266
0.0003321428895
0.0003270132941
0.0003280843339
0.0003315248575
0.0003371220212
0.0003435524724
0.0003486680659
0.0003502246379
0.000346752886
0.0003375239047
0.000322793624
0.0003045856877
0.0002850145543
0.000265472458
0.0002475179715
0.0002322651054
0.0002196421704
0.0002082509834
0.000196469289
0.0001836011305
0.0001703507287
0.0001481439722
0.0003951921643
0.0004805842187
0.0004374731315
0.000377860829
0.0003348224554
0.0003165629327
0.0003131659787
0.0003160489758
0.0003223685504
0.0003310217573
0.0003407714948
0.0003483775759
0.0003512759082
0.0003483823091
0.0003393834684
0.000324568431
0.0003060984765
0.000285710955
0.0002644366433
0.0002437077134
0.0002250312794
0.0002091348975
0.0001952960082
0.0001820148108
0.0001688398709
0.0001571792614
0.0001385292652
0.0003394399892
0.0004246766662
0.0003819284584
0.0003362805708
0.0003082679048
0.000297979228
0.000297427168
0.0003024862139
0.0003112621114
0.0003216566906
0.0003316333867
0.000339092333
0.0003421665891
0.0003393683855
0.0003304917464
0.0003166572079
0.0002991614198
0.0002790035483
0.0002571508768
0.0002349044382
0.0002138934793
0.0001953432762
0.0001791193922
0.0001642097709
0.0001511292763
0.0001421373892
0.0001275755593
0.0002837917324
0.0003561878072
0.0003216271925
0.0002943971403
0.0002810081953
0.000277291318
0.0002787819188
0.0002853536298
0.0002953931205
0.0003060152107
0.0003153048328
0.0003217242351
0.0003238355256
0.000320890084
0.0003127983254
0.0003001287677
0.0002836975699
0.0002642526104
0.0002426082545
0.0002199556144
0.0001979090963
0.0001778566879
0.0001599869792
0.0001439008331
0.0001315617057
0.0001259805045
0.0001154057791
0.0002390109849
0.0002845657437
0.0002665570575
0.0002562563593
0.0002526019257
0.0002522189832
0.0002542163893
0.0002606861824
0.0002703239195
0.0002800016908
0.0002881198277
0.0002935363483
0.0002951592752
0.0002923768497
0.0002851001739
0.0002736686948
0.0002585918631
0.0002404174651
0.0002199071374
0.0001982804942
0.000177154983
0.000157774157
0.0001401385537
0.0001239139787
0.0001120457963
0.0001089621587
0.0001017705383
0.0001961992717
0.0002126762681
0.0002096730633
0.0002095725211
0.0002100666991
0.0002105890379
0.0002116378488
0.0002158460564
0.0002233113277
0.0002311694993
0.0002378766398
0.0002426513054
0.0002446074828
0.0002430738701
0.0002378352877
0.0002290271727
0.0002169475918
0.0002020470723
0.0001851348606
0.0001674805982
0.0001505244483
0.0001350379616
0.0001205146777
0.0001055720247
9.153876695e-05
0.000148607233
0.0001903067298
0.0003419592888
0.0003615507839
0.0004288811507
0.0005268308149
0.0005432817547
0.0005422606661
0.0005333620003
0.0005358529672
0.0005331600138
0.0005750145571
0.001106832414
0.0007001350759
0.0005622209677
0.0004575284198
0.0003929733373
0.0003746647846
0.0003999074952
0.0004615894301
0.0005589579381
0.0006405261402
0.0006543349549
0.0006067460127
0.0005649830187
0.0005478292004
0.0005257850079
0.0005244591672
0.0004934012972
0.0005192098784
0.0005566099245
0.000616957805
0.0006585977692
0.0006924814523
0.0007580009458
0.0008397130961
0.0008554298551
0.0006932369528
0.0002107237924
0.000986469607
0.0007986892199
0.0006546731587
0.0005479325979
0.0004720022921
0.0004283314713
0.0004246335814
0.0004669746592
0.0005483142687
0.0006938866752
0.0008388147078
0.0008990927052
0.0008366340238
0.0007350256809
0.0006594843567
0.0006077917181
0.0005551328119
0.0005404942503
0.0005938137006
0.0006434210422
0.0007136152732
0.0007810494522
0.000840963922
0.0009155813412
0.000973618405
0.0009572124801
0.000761591088
0.000218467649
0.0008810110215
0.0007281895482
0.0006155028381
0.000540853926
0.0004943369993
0.0004709946531
0.0004813508988
0.0005416294882
0.0006491850271
0.0008529935621
0.001053867667
0.001120293299
0.001096011724
0.001002632338
0.000861910314
0.0007507904137
0.0006662769601
0.0006238250267
0.0006496949379
0.0006762881161
0.0007396335834
0.0008384247405
0.0009520751362
0.001037401877
0.001079846837
0.001048651603
0.0008326280284
0.0002293178343
0.0007162880581
0.0006244099431
0.0005675409164
0.0005360306271
0.000521177471
0.0005351758891
0.0006046419424
0.0007463465897
0.001018166592
0.001237577338
0.001331163859
0.001334130408
0.001248783777
0.001118471559
0.0009720988241
0.0008400677877
0.0007463115052
0.0006971498802
0.0006783323948
0.0007369538019
0.000884079056
0.001058926828
0.001145988402
0.001189841885
0.001151278136
0.0009170277095
0.0002449175675
0.0007726460307
0.0006944672669
0.0006449685021
0.0006122538345
0.0005871481803
0.0005847480054
0.0006446255092
0.0008326641404
0.001158814582
0.00139661604
0.001502003367
0.001511403512
0.001445107462
0.001332591047
0.001199417718
0.001055508401
0.0009145252125
0.0007917560954
0.0007147270224
0.0007607769169
0.0009593887829
0.001160964963
0.001263326559
0.001316621369
0.00127865166
0.001027679057
0.0002666692605
0.0008621111419
0.0008084476232
0.0007726782037
0.000735831805
0.0006859153048
0.0006413085375
0.0006608711634
0.0008396713765
0.001220994957
0.001507403867
0.001623291879
0.0016385338
0.001582343021
0.00148274888
0.00136324975
0.001239631165
0.001109212689
0.0009585305052
0.0008318900923
0.0008430103038
0.001094446204
0.001264106796
0.001371627853
0.001433951517
0.001404956301
0.001154466951
0.0002928979219
0.0009896592446
0.0009730287303
0.0009602207281
0.0009248526807
0.0008463368691
0.0007364398497
0.0006832133795
0.0008132189378
0.001183587153
0.001572979978
0.001697616972
0.001735380118
0.001689147406
0.001593669982
0.001482529928
0.001369696822
0.001259504898
0.001140172133
0.0009874527005
0.0009361818489
0.001151906094
0.001326503615
0.00144479845
0.001511985568
0.001485802983
0.001234040341
0.0003166142304
0.001168713705
0.001171756074
0.001165194643
0.00113816009
0.001068652352
0.0009050925956
0.0007514576088
0.0007912049231
0.001127470207
0.001655999328
0.001797571598
0.00183531027
0.001781518191
0.001681507237
0.001569878648
0.00146173794
0.001360957628
0.001267880673
0.001166259674
0.001070030455
0.001178793182
0.001358239077
0.001483874322
0.00155508188
0.001528393133
0.001267343634
0.0003188995012
0.001329820279
0.001350628666
0.001367255685
0.001358435079
0.001292881502
0.001146598709
0.0008837996128
0.0008281933266
0.001233512994
0.002002732202
0.002187212718
0.002148210936
0.001929645383
0.001756869647
0.001639267933
0.001530727191
0.001429194672
0.001336764531
0.001246582362
0.001112676831
0.001083664685
0.001288944468
0.001440954159
0.001526957635
0.001502191093
0.001236160341
0.0003121014091
0.001476052026
0.001522825212
0.001565488033
0.001578220368
0.001527367884
0.001384558395
0.001102314387
0.0009374838914
0.001437460832
0.002232101099
0.002419275434
0.002332981578
0.002015113151
0.001723475641
0.001604672257
0.001540655792
0.001459285688
0.001368316968
0.00126599781
0.001111089708
0.0009967972484
0.001076692293
0.001284266763
0.00140547136
0.001398257964
0.001147197697
0.0003006855721
0.001605779184
0.001675078356
0.001739358763
0.001772962608
0.001742468771
0.001619343723
0.001374721095
0.001030800198
0.001260503348
0.002168221047
0.002432068868
0.002368022495
0.002032266072
0.001764284536
0.00166893562
0.001582900671
0.001478730039
0.001373328787
0.001247170322
0.001094985838
0.0009430180672
0.0009003474272
0.001050269245
0.001205215629
0.001234501462
0.001024483688
0.0002875095411
0.001714061871
0.001805151568
0.001882931198
0.001930122782
0.001920461691
0.001821813483
0.001621100602
0.001248777329
0.001057967933
0.001593626283
0.002060521935
0.002098282073
0.001879933884
0.001754558115
0.001663301956
0.001558516458
0.001443466834
0.001332818963
0.001216836535
0.001080736793
0.0009268423709
0.0008140200576
0.0008319377056
0.0009754078661
0.001044766988
0.0008929491428
0.000273589581
0.00180564263
0.001907874047
0.001977135265
0.002016915916
0.002018492057
0.001946857575
0.001780941183
0.001489237528
0.001115665737
0.001094559742
0.001381012023
0.001627551955
0.00167433921
0.001643842203
0.001553185488
0.001450209658
0.001354767824
0.001271009288
0.001186763482
0.001086951957
0.000963000322
0.0008326543322
0.0007497763848
0.0007820886457
0.0008487718247
0.0007536077892
0.0002588588429
0.001842164195
0.001935536594
0.001986901041
0.00201267158
0.002015237426
0.001957198941
0.001814783668
0.001603026519
0.001279800488
0.00106878487
0.001066362161
0.001289024127
0.001421081922
0.001436776557
0.001378581385
0.001309965626
0.001256851218
0.001215008951
0.001174085337
0.001132196011
0.001071361835
0.0009675599979
0.0008216456005
0.0007183995688
0.0006996032242
0.000623971269
0.0002433519869
0.001806031275
0.001891147007
0.001942826552
0.001964961605
0.001958415731
0.001900543198
0.001771566152
0.00160257457
0.001415725079
0.001187626544
0.001067157983
0.001156254927
0.001240684605
0.001250977943
0.001218718643
0.001190349949
0.001178024523
0.001176354673
0.001184542685
0.001228031975
0.001271706508
0.001252706106
0.001112355272
0.0008492308272
0.0006637325929
0.0005337055629
0.0002275912605
0.001738979365
0.001818402147
0.001869121718
0.001889194243
0.001877735516
0.00182342769
0.00171537294
0.001591261174
0.001476971055
0.001327176311
0.001179613391
0.001157274997
0.001158497956
0.001138743007
0.001115489108
0.001110924353
0.001122601904
0.00114422815
0.001183668606
0.001310760537
0.001416571605
0.001453418815
0.001339877136
0.001042925059
0.0007036538874
0.0004776288857
0.0002126959222
0.001645975249
0.00172559871
0.001768620141
0.001779786581
0.001766808877
0.001723765975
0.001650923028
0.001577497679
0.001510902393
0.001427139076
0.001305187928
0.001232360353
0.001176458652
0.001129209154
0.001090415682
0.00108080432
0.001092959126
0.001118473831
0.00116650844
0.001325614393
0.001458116961
0.001518953279
0.001424022047
0.001125153181
0.0007310707347
0.0004484591787
0.0001997903257
0.001532892262
0.001625478694
0.001661561916
0.001658833931
0.001649231402
0.001628744053
0.001598032673
0.001565157643
0.001524450279
0.001467836155
0.001396317234
0.001324607509
0.001261356176
0.001236349727
0.001158549252
0.001098047448
0.001086002208
0.001099372233
0.001132299846
0.001249129093
0.001374676892
0.001426569153
0.001332851306
0.001059226755
0.000686729769
0.0004290232368
0.0001890535423
0.00143627706
0.001526697949
0.001573473174
0.001563018423
0.001561656584
0.001565598062
0.001565745232
0.001555263006
0.001529461063
0.001490114291
0.001444664079
0.001407345065
0.00144211153
0.001680486383
0.001685469119
0.001240635584
0.001113921596
0.00109016345
0.001096491959
0.001146224953
0.001224195422
0.001237994824
0.00113911519
0.0009104422721
0.0006170621974
0.0004166339884
0.0001809965248
0.001371273476
0.001462083735
0.001529056005
0.001515500021
0.001516590864
0.001531442339
0.001544713888
0.001546360058
0.001534334033
0.001510992654
0.001481786288
0.001481082263
0.001695912399
0.002788055692
0.002714225804
0.001792040064
0.001191021405
0.001087317804
0.001066392693
0.001068689866
0.001084803272
0.001065799039
0.0009628993545
0.0007662773014
0.0005683287247
0.000409768506
0.0001754068856
0.001364496383
0.001470383804
0.001555946557
0.001529642255
0.001510174498
0.001514821312
0.001529256452
0.001540850888
0.001543995648
0.001536220999
0.001517626939
0.001500429283
0.001575287753
0.001955975004
0.001994264764
0.001344404034
0.001125302265
0.001058931678
0.001033479458
0.001014209475
0.0009872264978
0.0009342482742
0.000828753206
0.0006823725963
0.0005377116778
0.0004005499125
0.0001709497204
0.001460689882
0.001585547797
0.001647212094
0.001594473971
0.001531774636
0.001508914966
0.00151745837
0.001537794959
0.001555921749
0.001563002101
0.001554123208
0.001528808952
0.001511357954
0.001548811612
0.001422802654
0.001223792415
0.001105651056
0.001039077046
0.0009979639427
0.0009620312045
0.0009149155895
0.0008447486576
0.0007453853748
0.0006257269873
0.000504592972
0.0003821444222
0.0001661909766
0.001551053734
0.001682939696
0.001732940409
0.001650828702
0.001547300394
0.001498511957
0.001501217572
0.00152954835
0.001561348198
0.001581995932
0.001583039769
0.001560671106
0.001519804092
0.001469235652
0.001363067348
0.001236877567
0.001120309673
0.001025434075
0.0009537000597
0.0008946304237
0.0008334767407
0.0007586205644
0.0006668253968
0.000562675623
0.0004580978383
0.0003539071218
0.0001603125964
0.001579693644
0.00173622909
0.001773114116
0.001655955254
0.001520339826
0.001459294187
0.001463974918
0.001502499473
0.001547530366
0.001580521514
0.001591453502
0.00157618052
0.00153494881
0.001469816461
0.001377136365
0.001266489188
0.001135124997
0.001005128816
0.0008948675771
0.0008067345936
0.0007312060862
0.0006558753622
0.000573642263
0.0004853600442
0.0004008771247
0.0003199252961
0.000153080115
0.001506995334
0.001685052008
0.0017142688
0.001570902273
0.001417186157
0.001349440325
0.001370301645
0.001430651097
0.001497102833
0.00154437248
0.001565885517
0.001559441772
0.001524595573
0.001461778088
0.001371583542
0.001263635855
0.001123814396
0.0009641033801
0.000819416612
0.0007054639203
0.0006181040755
0.0005444003869
0.0004735506537
0.0004036295288
0.000342088808
0.0002854818088
0.0001445701567
0.001301343723
0.00148149054
0.001513135418
0.001374335595
0.001230240152
0.001188892566
0.00122328321
0.001297581072
0.001384488272
0.001457754358
0.001493216115
0.001494915976
0.0014674057
0.001410379045
0.00132707489
0.001219547934
0.001068458858
0.0008909016471
0.0007286761573
0.0006030190806
0.0005118292
0.0004422920135
0.0003827963383
0.0003303740211
0.0002899692969
0.0002542036025
0.0001349378575
0.001028718258
0.001182322327
0.001224663821
0.001100747691
0.001019048211
0.001007429344
0.001043036524
0.001117072752
0.001210213492
0.001296007463
0.001354276011
0.001373195005
0.001352322097
0.001303053444
0.00122637457
0.00110929277
0.0009508570751
0.000778182712
0.0006251069098
0.0005076182086
0.0004229689627
0.0003604112039
0.0003108160969
0.0002721726266
0.0002477760862
0.0002267760612
0.000124257593
0.0007529344165
0.0008615092793
0.0008883077365
0.0008363206437
0.0008151415612
0.0008155639946
0.0008404500278
0.0008976734963
0.0009738161832
0.00104580047
0.0010973394
0.001119295981
0.001110221863
0.001070118771
0.0009983049077
0.0008935564231
0.0007639017184
0.000630322151
0.0005133503006
0.0004212093425
0.0003519602334
0.0002992175798
0.0002581396756
0.0002289322614
0.0002144632702
0.0002022173074
0.0001126341884
0.0005340973127
0.0005662091691
0.0005994164672
0.000598080863
0.0005998290555
0.0006012101096
0.0006116730481
0.0006410270358
0.0006816571076
0.0007192288991
0.0007445694583
0.0007534713347
0.0007443678706
0.0007164171118
0.0006698837401
0.0006067716796
0.0005330844518
0.0004582794855
0.0003902445376
0.0003328643758
0.0002859822825
0.0002472331776
0.0002152224362
0.0001917757833
0.0001809217969
0.0001734281018
9.949549163e-05
0.0002058794559
0.0002127300269
0.0002177799792
0.0002210029813
0.0002230078884
0.0002241449409
0.0002254569002
0.0002289047812
0.0002345140212
0.0002402183471
0.000244586349
0.0002468600812
0.0002463888114
0.0002427094256
0.0002356984722
0.0002255219663
0.0002125745334
0.0001975100311
0.0001812768396
0.0001650499599
0.0001497457746
0.0001355176506
0.0001216618081
0.0001070659951
9.458774149e-05
9.513594253e-05
0.0003681740415
0.0005728245787
0.000566182991
0.0006579847916
0.0008170900854
0.0009817569235
0.001019327702
0.001016192448
0.001021485602
0.001022046145
0.0009526962332
0.001340854394
0.001993117405
0.001821694868
0.001168552983
0.001093784696
0.001073551654
0.0008710332259
0.0007153836357
0.0006273305569
0.0006246215164
0.0006985942804
0.0008227701651
0.000961334423
0.001057802245
0.0010769106
0.00104488888
0.001019006228
0.001008782979
0.001001842698
0.001002714526
0.001042569788
0.001026958723
0.001071303293
0.001121210904
0.001147698433
0.001153030508
0.001168222818
0.001186614337
0.001131505612
0.0008644696003
0.0002104889978
0.001541016834
0.001288788281
0.00106896958
0.0008939857298
0.0007690787263
0.0007063811092
0.0007212469458
0.000812004464
0.0009555399442
0.001132950631
0.001272936168
0.001319009592
0.001266865313
0.001175918059
0.001100433658
0.001063607872
0.001011085961
0.001033844433
0.001088409479
0.001148160472
0.001209928723
0.001257753896
0.001290926463
0.001321457986
0.001331899382
0.001251130198
0.0009430291829
0.0002182643331
0.00148316459
0.00125111497
0.001058866223
0.000919185793
0.0008314335101
0.0007982224853
0.0008362854548
0.000953046632
0.001133543253
0.001354229329
0.00153187932
0.001600453148
0.001573870172
0.001467357538
0.00131362081
0.001199784591
0.001120434857
0.001109139874
0.001155902254
0.00120585155
0.001268485551
0.001342255984
0.001410631103
0.001455746241
0.00146257792
0.001366687152
0.001018282373
0.0002271544457
0.001252886094
0.001086281981
0.0009731969129
0.0009114957999
0.0008985505432
0.0009527253783
0.001093234618
0.00132295774
0.001576398633
0.001762263945
0.001850748986
0.001855583091
0.001752337684
0.001594393073
0.001432837764
0.001303608425
0.001236649835
0.001225265881
0.001244227903
0.001311341641
0.001419900033
0.00151276944
0.001571400081
0.001592284605
0.00149522954
0.001115734247
0.0002389902307
0.001316652861
0.001171690265
0.001075915917
0.001023832522
0.001011800752
0.001063804524
0.001221454917
0.001557246025
0.001752497518
0.001937545599
0.002026942752
0.002021206165
0.001941137705
0.001823973961
0.001675521827
0.00152466658
0.001405347813
0.001328213575
0.00130554647
0.001367522938
0.001497476577
0.00159007614
0.001660026965
0.001699401878
0.001626868281
0.00125174589
0.0002555067885
0.001409799447
0.001296510206
0.00122248673
0.001174829298
0.001148447022
0.001166093438
0.001286920386
0.001569191104
0.001872981971
0.002065723985
0.002145605158
0.002141319264
0.002073272713
0.00196719598
0.001838255978
0.001708501303
0.001594790159
0.001489114195
0.001427219285
0.00145506744
0.001563729411
0.001650775714
0.001729269416
0.001782322399
0.001730070964
0.001374117674
0.0002785911699
0.001523599672
0.00145499276
0.00141050215
0.001373192427
0.001331603966
0.001299600561
0.00136699565
0.001603020706
0.001938032035
0.002142876668
0.002212152925
0.002215663771
0.00215913335
0.002059961601
0.001945429825
0.001831060636
0.001730137897
0.001647122488
0.001567670219
0.001550096568
0.00162270237
0.001709060545
0.001793256714
0.001852773061
0.00180757696
0.001446704193
0.0003033379988
0.001655042362
0.001628015896
0.001612819524
0.0015979945
0.001564511004
0.001490926606
0.001521875699
0.001653510627
0.001971253533
0.002221113289
0.002274701917
0.00223886973
0.002181488479
0.002106100484
0.002007630405
0.001905505459
0.001815488747
0.001744778189
0.001687450594
0.001646405832
0.00168397005
0.001766797161
0.001850785587
0.001909149116
0.001861471912
0.001489805098
0.0003126615063
0.001765291226
0.001780107473
0.001800114022
0.001813115455
0.001800533834
0.001734837085
0.001656433519
0.001738687623
0.002146285563
0.002447279817
0.002499218728