/*--------------------------------*- C++ -*----------------------------------*\
  =========                 |
  \\      /  F ield         | OpenFOAM: The Open Source CFD Toolbox
   \\    /   O peration     | Website:  https://openfoam.org
    \\  /    A nd           | Version:  8
     \\/     M anipulation  |
\*---------------------------------------------------------------------------*/
FoamFile
{
    version     2.0;
    format      ascii;
    class       volScalarField;
    location    "1.4";
    object      epsilon;
}
// * * * * * * * * * * * * * * * * * * * * * * * * * * * * * * * * * * * * * //

dimensions      [0 2 -3 0 0 0 0];

internalField   nonuniform List<scalar> 
67451
(
0.140444541
0.1278631235
0.1466138738
0.1761580071
0.1969237621
0.2191153752
0.2139265534
0.1910263804
0.1733941975
0.1688024745
0.2713262038
0.3558688257
0.2834084236
0.2273654779
0.1859637533
0.1594203342
0.154154466
0.1870491567
0.2473100295
0.2936417861
0.3337946136
0.3272956348
0.2903993132
0.253700456
0.2236032091
0.1951952107
0.2328724938
0.1826700148
0.2087825006
0.218134835
0.2374604949
0.2899273163
0.3776358251
0.4702922229
0.510121046
0.4750650852
0.4267428333
0.4971089374
0.3974407601
0.3228971541
0.269064515
0.2305380977
0.2025407292
0.1844655729
0.1867143442
0.2452646826
0.3430848669
0.4276330551
0.4946581836
0.4890818202
0.4369996211
0.3744678143
0.3214503673
0.2700300475
0.2244158975
0.2008377195
0.2075797148
0.2459278633
0.2993424817
0.3799221518
0.5110229253
0.6373147963
0.6614151646
0.5869345716
0.5156593285
0.3966495926
0.3398908302
0.3027289897
0.2801190505
0.2633325337
0.2442877421
0.2250160189
0.2257683641
0.3149340242
0.4521953508
0.5925974484
0.7051157845
0.703219821
0.6269275731
0.5307869421
0.4459387698
0.3715499914
0.3076343711
0.2570473722
0.2375842878
0.2822407771
0.3712590507
0.5078533491
0.727042274
0.8949336318
0.8928228155
0.7637444409
0.6599687497
0.3458027649
0.3460795002
0.3541197189
0.3546435713
0.331884184
0.2930242888
0.2739829966
0.3857219207
0.5661786723
0.7894145154
0.9259001645
0.9491792002
0.8630394346
0.7259042605
0.5979771267
0.4941047286
0.4064961206
0.3298889496
0.2789126279
0.3199275318
0.4788837847
0.7210358788
1.059880098
1.248715433
1.21995317
1.031544922
0.8681233811
0.4285392469
0.4630142771
0.5047184632
0.5231965875
0.4868015382
0.4075801177
0.341501235
0.442516084
0.6665875739
0.9736215615
1.122838116
1.172313212
1.089253491
0.9371902391
0.7735856545
0.6338690495
0.5207308237
0.4207088218
0.3424907765
0.378220942
0.6584047327
1.055779982
1.499888065
1.688152799
1.638338571
1.386217253
1.125799705
0.5676533671
0.6466915884
0.7371015255
0.7823912165
0.7308368093
0.5971147273
0.4517911
0.4807982544
0.7291374021
1.108773383
1.326327611
1.338253439
1.245659604
1.097810057
0.9345115525
0.7812496955
0.643611546
0.5232615313
0.424018293
0.4697496421
0.9212241482
1.483684627
1.983752116
2.177038912
2.122604491
1.810646643
1.407753273
0.7639528157
0.9093555321
1.06498995
1.141323173
1.07441367
0.8840724943
0.64301532
0.524366596
0.7610946992
1.251309262
1.941130943
1.597396852
1.370319096
1.204605344
1.053865598
0.9103309996
0.7708739789
0.6290872503
0.5094501388
0.5675874485
1.208963401
1.876769207
2.388928437
2.585554987
2.54723076
2.225857702
1.694255648
1.020919387
1.267373121
1.504746259
1.607970037
1.516193886
1.268238628
0.9369374721
0.6502335808
0.9382600899
1.967408414
4.275243127
2.839459686
1.892708145
1.449279196
1.211682773
1.039448962
0.8903773404
0.7462604754
0.5986796273
0.5129372804
0.8280333436
1.748658902
2.390823859
2.610412392
2.550993465
2.184871958
1.588785651
1.35483211
1.726211806
2.047900463
2.176680061
2.058731633
1.738308842
1.322951191
0.9178708133
1.677230587
4.685811514
9.415168832
6.589339794
3.660979812
2.132703366
1.48551191
1.177044748
0.9811057958
0.8225030874
0.6667392936
0.5363562071
0.5744164856
1.289213056
2.093029236
2.36552968
2.310395808
1.951826796
1.432771491
1.726804593
2.236544889
2.657993568
2.828559844
2.692238819
2.297675174
1.772272219
1.289995202
3.143021479
9.806856846
15.33672789
12.25594696
7.368742118
3.877286279
2.173560978
1.440444636
1.074860224
0.8467085146
0.6730396247
0.5392812298
0.4804844597
0.8302913995
1.588612128
1.943907057
1.93473347
1.646492801
1.264681879
2.079094723
2.71750486
3.271554347
3.52497396
3.405284405
2.946572945
2.283215504
1.65309323
3.372572159
9.77087792
19.16293982
16.52679181
9.928207295
5.275446331
2.739051205
1.553350083
1.042150536
0.7919204123
0.6380241508
0.5208401703
0.4375191889
0.5542560413
1.07266852
1.463512124
1.522671061
1.338258851
1.10287207
2.341075829
3.09327358
3.846573793
4.252286486
4.209484403
3.726437961
2.958961308
2.123431197
1.414433963
2.703560658
11.44856183
9.816556311
5.884211701
3.208554285
1.823783703
1.186022754
0.8739149926
0.698465659
0.5841831836
0.4933507455
0.4146076322
0.4174399851
0.6951353459
1.023754572
1.141289039
1.063025622
0.9562784951
2.431294657
3.381827418
4.449409666
5.080783724
5.14503008
4.661301597
3.776754069
2.742273601
1.824189569
1.326498135
4.889800735
4.511369431
2.848748005
1.749370795
1.192083067
0.8958136659
0.7191728885
0.6100586624
0.5353244657
0.4720306206
0.4117906162
0.3744761572
0.466731498
0.6847223731
0.8316869871
0.8387192009
0.8238476025
2.322741499
3.605435475
4.993178136
5.887022607
5.988644152
5.52223588
4.576599509
3.390674044
2.239002934
1.390086655
1.944101396
1.823702939
1.361941811
1.039103638
0.8336516059
0.6935256251
0.6019425674
0.5449006273
0.5050595272
0.4799130206
0.4971716556
0.4998284781
0.4489370695
0.4897448265
0.5967592037
0.6529045749
0.6985753309
2.346100325
3.761740332
5.150208548
6.082559704
6.260801924
5.890149437
5.041931842
3.964633393
2.854837653
1.880512224
1.315341995
1.027871788
0.8521575806
0.7313861678
0.6369658173
0.5692970972
0.5290661987
0.5074799209
0.5032574486
0.5933775426
1.105914862
1.495235508
1.189276296
0.7104779038
0.5175364155
0.5121322157
0.577062098
2.076470546
3.41127654
4.779649627
5.719885271
5.874891214
5.460061419
4.630180437
3.638178327
2.661278754
1.828282513
1.252966097
0.9244753244
0.7468318371
0.6363087671
0.5609683835
0.51585505
0.4956189129
0.4907821213
0.5164579467
0.8039322028
1.9323239
2.691855507
2.5112245
1.643931537
0.8931854717
0.5294192809
0.4795783372
1.710524948
2.762485849
4.012080729
4.970306556
5.071253861
4.637012492
3.87892682
3.018309428
2.218896672
1.595630779
1.190665131
0.9369275231
0.769460046
0.6494212398
0.5645369389
0.5126470376
0.4893842314
0.4855508382
0.515004968
0.8095922058
2.095781164
2.894091494
2.734144101
1.909469275
1.079459203
0.5569530988
0.4056500028
1.40511581
2.076945385
3.084307964
4.03328303
4.082980355
3.676229194
3.039118674
2.36674044
1.803203196
1.407624041
1.149125784
0.9664834158
0.8191864073
0.6980109995
0.6007730056
0.5337566509
0.4972312314
0.4854902195
0.5020702809
0.6849994039
1.646556484
2.351078217
2.229979403
1.579616686
0.9168620948
0.4768894821
0.3332097109
1.184115718
1.55318603
2.248026069
3.087577955
3.110546414
2.776257036
2.307413169
1.865203487
1.532860226
1.307751886
1.143517157
1.002482195
0.871445857
0.8095010877
0.6744815106
0.5660451964
0.5106566326
0.4876044015
0.48869553
0.5714461344
1.080512904
1.574521229
1.503046186
1.076807373
0.6487244792
0.3659379223
0.2719829551
1.032877512
1.23245793
1.666893655
2.275480007
2.300827121
2.080651271
1.802528103
1.565763954
1.393739416
1.263742018
1.144889851
1.027778426
0.9155384301
1.760317233
2.36545477
0.806380694
0.5463876654
0.4931293759
0.478878532
0.5027848706
0.7048390113
0.9553092016
0.9158378801
0.6832239039
0.4460933195
0.2877128874
0.230898071
0.9441248277
1.08274436
1.354980078
1.70336884
1.742859115
1.639627745
1.51365127
1.408436473
1.322221199
1.238193485
1.142862938
1.037032696
0.9227161437
1.0238272
0.9293328275
0.6439125229
0.5481979191
0.4992497863
0.4731299694
0.4668189304
0.5237063622
0.6100050373
0.5785804297
0.4586987267
0.3358139088
0.2445183674
0.2053910844
0.9998074727
1.358158269
1.378601546
1.428560529
1.430656725
1.392659666
1.35107004
1.31215001
1.267952451
1.210598888
1.137560223
1.05262925
0.9566298779
0.8912884147
0.7808241913
0.6723647662
0.5869595797
0.5213290363
0.4761555196
0.448350786
0.4446101237
0.4524072149
0.419327679
0.3521361743
0.280894842
0.2182084677
0.1868359246
1.587011932
2.678084084
2.115306355
1.588018298
1.339852893
1.255949761
1.234663912
1.224412058
1.206041592
1.176479543
1.13872038
1.094320287
1.037032755
0.9676636455
0.8696506911
0.7634604906
0.6577030197
0.5643656611
0.4917667195
0.4402364911
0.406685908
0.3816501439
0.345741292
0.2977179733
0.2457605516
0.1951761453
0.1689840392
2.221508756
3.720252944
2.896681507
1.915423833
1.357277846
1.158205477
1.119314572
1.122089789
1.129423924
1.138604158
1.151036485
1.158711354
1.144455059
1.0944855
1.000265568
0.8749430661
0.7424723396
0.6188321093
0.5158409807
0.4377733485
0.3817834109
0.3395138055
0.2996720898
0.2571613826
0.2127402763
0.1696809259
0.1490929589
2.27161816
3.847127738
2.974407884
1.910030299
1.273857476
1.04492939
0.9981269041
1.008403485
1.040928286
1.095156214
1.159603026
1.212533928
1.228916068
1.192540505
1.099483694
0.9612539661
0.807080159
0.6609374807
0.5338543929
0.4325538421
0.3573440579
0.3021563091
0.2575136198
0.2162032998
0.176416566
0.1409111836
0.1269714212
1.75799797
3.172652465
2.385869303
1.534251921
1.068192101
0.9043353239
0.8764629381
0.9014130527
0.9571214289
1.036888709
1.13179287
1.209408235
1.239695713
1.208981813
1.117269345
0.9767847195
0.8188884789
0.6655817143
0.5274426689
0.4127066489
0.3248281361
0.2607122969
0.2122918829
0.1718372668
0.1371439632
0.1106621967
0.1038035073
1.111088964
2.182485544
1.582783315
1.080096422
0.8335706857
0.7542669911
0.750767519
0.790237304
0.8615516041
0.9512113787
1.042748706
1.114823044
1.145226483
1.117002095
1.03120624
0.9066150281
0.7641212501
0.6195235326
0.4848090116
0.3693882249
0.2787899717
0.2123432264
0.1637027407
0.1261227479
0.09832549724
0.08182748135
0.08106701345
0.6490961737
1.283924642
0.9439012021
0.7249650378
0.6318858033
0.6079369454
0.6181558259
0.6633115689
0.7362126681
0.818766523
0.8957220531
0.9515325217
0.9702170514
0.9437133378
0.8737844745
0.7715222423
0.6513129577
0.5260904143
0.4069038023
0.3030979624
0.2207294137
0.1601962422
0.1166031461
0.0848530801
0.06486188568
0.05698021584
0.06000682173
0.3884719771
0.6537962223
0.5378146224
0.4788775968
0.4593377099
0.4575159469
0.4686008193
0.5055367898
0.5639536269
0.626841859
0.6829997246
0.7222173641
0.7341496092
0.7133973204
0.6612173808
0.5845854649
0.4929642145
0.3959602054
0.3028742366
0.2219377083
0.1582713873
0.1118143102
0.07836746816
0.05418815344
0.04007805516
0.03687559116
0.04115273404
0.2454348905
0.3116863739
0.2990720184
0.299003553
0.3012643518
0.3035508717
0.3081169354
0.3269483222
0.3621809724
0.4018270938
0.4378286856
0.464704829
0.4759792708
0.4669843564
0.4373086064
0.3903587099
0.3316598693
0.2678008661
0.2059606884
0.1524654153
0.1107065292
0.07995772485
0.05685098354
0.03822453213
0.02492628352
0.01440687902
0.01453466568
0.1315762433
0.126830601
0.1485365498
0.1780655276
0.1768390443
0.1745895122
0.1707061193
0.1615762571
0.1674296901
0.3374705719
2.037122098
0.2648634893
0.2259293615
0.1916951247
0.1648677123
0.1482632535
0.1480449354
0.1740593456
0.2104849673
0.2261508611
0.2283328519
0.2214610363
0.2085510052
0.1960821208
0.1940823375
0.2541345762
0.1962143649
0.1660667682
0.1784456458
0.1930269204
0.2073666892
0.2349466279
0.2795455861
0.3319822335
0.3762503081
0.4001514951
0.4899307567
0.3352705436
0.2928410101
0.2551875686
0.2236257602
0.1984570014
0.1796957545
0.1693386179
0.1756826977
0.2145487419
0.2670854202
0.2951257405
0.2996426545
0.290871327
0.2764520782
0.2582617784
0.2375154452
0.2119496641
0.189512067
0.1792240377
0.192649845
0.2169960518
0.2415641717
0.2771391799
0.3289553194
0.3891733228
0.4377647556
0.4631150924
0.5458157606
0.3136567723
0.2781889732
0.2516688463
0.2331932376
0.2194118173
0.2072259936
0.1990910004
0.2086963793
0.2609717876
0.3296886903
0.3698681767
0.3851821463
0.3734896295
0.3512924393
0.3321947887
0.3063625398
0.2715990716
0.2374064727
0.2171898823
0.221129107
0.2505337704
0.2864208926
0.3318674617
0.3984310805
0.4713117117
0.5220894689
0.5438920132
0.6310487707
0.2842473173
0.2737472302
0.26995633
0.2659636973
0.2552762419
0.2418016184
0.2473334767
0.3096293482
0.3957793124
0.4553878152
0.4776247963
0.4639922379
0.4367599298
0.4054100292
0.3752709351
0.3368993502
0.2949850362
0.2613962535
0.2526339105
0.2872333439
0.3476873815
0.415197964
0.5098912983
0.5955541393
0.642027363
0.6536764547
0.7686520606
0.3244674304
0.3291886756
0.3392625699
0.3435634409
0.3302407253
0.3038056756
0.294356598
0.3633495137
0.4619359716
0.5434088102
0.5754830342
0.5606306616
0.5266290652
0.4862735452
0.4454481687
0.4030491321
0.3577735169
0.3149477685
0.2946592882
0.3399493452
0.4492517182
0.5693363144
0.7027703518
0.7932915996
0.8249217192
0.8176268351
0.9923532465
0.3943269295
0.4135955215
0.4383004182
0.4524504259
0.4367261668
0.3929381102
0.3542989462
0.409358269
0.5319435397
0.6415051775
0.6983235226
0.6633143244
0.6167630206
0.5666900562
0.5159299247
0.4654564832
0.4159426857
0.3713585354
0.3500442702
0.4181987832
0.5919933592
0.7777271162
0.937342516
1.043772661
1.078210025
1.064333726
1.315776123
0.4855297916
0.5240214156
0.5660670071
0.5918367632
0.5745929494
0.5151666022
0.4407658163
0.4529602181
0.6220099082
0.8222133223
0.9505678511
0.84594414
0.7401905692
0.6551234972
0.5853391595
0.5242802817
0.4693464329
0.4227938143
0.4047634172
0.4870294407
0.7108291291
0.9388099167
1.105548308
1.213707314
1.264354948
1.294308354
1.66331254
0.6032764857
0.6702931238
0.7429716509
0.7839602196
0.7507171167
0.6696045827
0.5678106454
0.5370311679
0.831498302
1.396445563
1.751653703
1.379586924
0.9924600196
0.7746673849
0.656668599
0.5784660275
0.5175703483
0.4687924816
0.4402982672
0.4798298442
0.6930813053
0.9629741003
1.159676925
1.275076505
1.320982659
1.336387428
1.699137061
0.7573345592
0.8689307114
0.9791054817
1.03728303
0.9924826979
0.8585898964
0.7419749996
0.7127764601
1.453758762
3.266891334
4.297222519
3.392858542
1.973909792
1.152046644
0.8055332294
0.6519080626
0.5647197452
0.5043065505
0.4623860787
0.4599469536
0.5735070824
0.8340272393
1.069573435
1.205063791
1.24890432
1.252657489
1.592108533
0.950386831
1.1131909
1.266100265
1.349143617
1.293433481
1.120458624
0.9498932966
0.9890527817
2.653825025
6.308510196
6.690256695
5.63631391
3.542506413
1.884520028
1.075860874
0.7510051226
0.6094804349
0.5286443448
0.4733098305
0.4423869159
0.4698511198
0.6413505425
0.8664931418
1.023278146
1.080179105
1.090899381
1.42325793
1.152678509
1.364682596
1.556845674
1.680961302
1.641016162
1.432469946
1.17773628
1.082851749
1.940447187
5.430881232
7.932127494
6.966217453
3.763355105
1.744387121
1.026600118
0.7529023528
0.6114049842
0.5250867367
0.4668595516
0.4245347474
0.407797776
0.4816857361
0.6442569356
0.7991678716
0.8783185565
0.9116963815
1.243969654
1.332161337
1.599263919
1.833271021
2.014345531
2.023117809
1.806470809
1.473853919
1.19455683
1.145096711
2.171387852
4.505224967
4.044596094
2.196019721
1.237668452
0.8581840769
0.6753321786
0.5691346023
0.4984623363
0.4471924339
0.4070205293
0.3771542257
0.3885155257
0.4866509515
0.6026513537
0.6913896918
0.7472214064
1.071668638
1.486171913
1.858458606
2.170518707
2.381867946
2.445025508
2.254378601
1.867626672
1.469151825
1.190370081
1.091387936
1.512445071
1.594193919
1.168075311
0.8759009767
0.7012452103
0.5908608619
0.5162678371
0.4634966212
0.4260659311
0.4012452537
0.3862132661
0.3742370449
0.3995652415
0.4700847436
0.548278674
0.6116207489
0.9074483373
1.568210578
2.024047356
2.377234646
2.549792492
2.622942387
2.461931854
2.057336286
1.570720554
1.185582456
0.9336981221
0.9537653021
0.9103057317
0.7832682544
0.6662470907
0.5776871428
0.5125464293
0.4648274154
0.432278228
0.4194426787
0.4450211212
0.5146057736
0.53975802
0.476807775
0.4292963531
0.4516057367
0.5002348539
0.7536624735
1.52757398
1.980797751
2.376520639
2.54958276
2.623440632
2.477165969
2.079087814
1.594062607
1.183477327
0.9310613713
0.8113058888
0.7091015418
0.6186398436
0.5480253016
0.4946331532
0.4544780584
0.4265258404
0.4143801476
0.4449673393
0.5866508522
0.8269641438
0.9658459635
0.8487237038
0.5939098308
0.4359492948
0.415197552
0.6162711564
1.394546344
1.797766306
2.199034062
2.393234691
2.460374279
2.297869907
1.910310236
1.476876499
1.128627529
0.8976954459
0.7538526336
0.6392671532
0.5555745758
0.4956364953
0.4525919355
0.4223737298
0.4043894507
0.4058178421
0.4751014424
0.7231376746
1.098774835
1.363685308
1.300851277
0.8985055064
0.5222579523
0.3747016728
0.5028279388
1.226661828
1.545430278
1.885476691
2.072541728
2.113851771
1.941510714
1.613689645
1.283671773
1.024450949
0.8352898514
0.7072345549
0.6086113952
0.5376778834
0.4840285068
0.4425076906
0.412773667
0.3954570793
0.3982860906
0.4708306876
0.7349428456
1.14315671
1.451892565
1.42448628
1.013158492
0.5605428509
0.3483667456
0.4166275231
1.063272307
1.291354453
1.534079929
1.683198515
1.697143088
1.549304264
1.316892164
1.09591095
0.9167895276
0.7773310427
0.6734454261
0.5958816733
0.54380199
0.5217489805
0.4757842664
0.4233254002
0.3968731501
0.3915128437
0.4380495764
0.6301014232
0.9571614657
1.21867261
1.192222464
0.8493364009
0.4937890363
0.3088299619
0.3530364472
0.9213550297
1.078066212
1.228286021
1.331379892
1.330662877
1.228963284
1.085897671
0.9486616787
0.8314523996
0.736400274
0.663740639
0.6083638375
0.6353627514
0.969882394
0.9800221282
0.5228205651
0.4183639218
0.3908342982
0.4049119793
0.5042241784
0.6966001786
0.8577476467
0.8255325308
0.6020558657
0.3917112836
0.2680775194
0.3099399577
0.8161683968
0.9330918624
1.013042931
1.071149908
1.063649807
1.003240946
0.9232899227
0.8444289192
0.7743372253
0.7147799707
0.6674365317
0.6483667522
0.886562452
3.559669629
2.825668982
1.312908976
0.5261728048
0.4055407103
0.3867249434
0.4191406445
0.5035878381
0.5717764887
0.5419337483
0.4283802634
0.3149617571
0.2387825169
0.2822300967
0.7844666569
0.9294751891
0.9431949903
0.9329094463
0.9010339609
0.8594797209
0.8174578888
0.7785192731
0.7431951799
0.7100446657
0.6790743267
0.6532090311
0.7289993845
1.413713466
1.483586772
0.6604872263
0.4597642053
0.4024825397
0.3782954625
0.3769850466
0.4002548791
0.417847554
0.3937089306
0.3334746169
0.2702298621
0.2190346731
0.2613045133
0.8779488865
1.122616242
1.080917859
0.9445070163
0.8373516328
0.7810194323
0.7544668729
0.7405126154
0.7300866909
0.7179396522
0.7014909043
0.6782228669
0.6739467849
0.7615832111
0.6869084749
0.5350422598
0.4615725143
0.4140544174
0.3804288182
0.3604689482
0.3536043361
0.346733814
0.3240826175
0.2857722295
0.2429202626
0.201991771
0.2400700407
1.081345577
1.441917528
1.350670952
1.057975374
0.8413066876
0.7457634754
0.718300546
0.7181471614
0.7257410884
0.7318386298
0.7312927503
0.7199955423
0.7018796452
0.6809756011
0.6240394381
0.5561038845
0.4930855428
0.4363843263
0.3899088339
0.3557665557
0.3324740365
0.3127822684
0.2882708714
0.2560519428
0.2194758553
0.1829609322
0.2154491207
1.240350971
1.722802791
1.560755654
1.136560058
0.8403017869
0.7187766301
0.6903270947
0.6996535648
0.7215793894
0.744313817
0.7603716016
0.7638626429
0.7518504336
0.7219611289
0.6705116839
0.604224512
0.5332436772
0.4640233826
0.4031249665
0.3546022998
0.3181450018
0.2887820625
0.2600298394
0.2276859616
0.1930938899
0.1605371019
0.1875503413
1.196103529
1.723177974
1.533560869
1.076637782
0.7888872581
0.6823041776
0.6618424148
0.6792028447
0.7119749096
0.7487861412
0.7797776301
0.796975278
0.7945804857
0.7692005587
0.7196256524
0.6492036063
0.569243973
0.4885670768
0.4135864107
0.3503085417
0.3008387998
0.2620665463
0.2281927243
0.1946495136
0.1624676439
0.1355552779
0.1579534882
0.9427121017
1.419714066
1.250830995
0.8970809023
0.7033965374
0.6351338662
0.6297465952
0.6562207431
0.6973688268
0.7418081036
0.7819115968
0.8082288274
0.8129138354
0.791870566
0.7436099917
0.6715458803
0.5869594029
0.4978526149
0.411343205
0.335585534
0.2750716372
0.2284553168
0.1906803239
0.1573820829
0.1295806499
0.110003565
0.1284227841
0.6647636816
1.000615399
0.8909949609
0.7104452777
0.6139545715
0.5841330018
0.5928733069
0.6272695456
0.6744902248
0.7224308853
0.7625996045
0.7886722373
0.7946403569
0.7743249149
0.7264328404
0.6563492085
0.5710499647
0.4776468905
0.3854181861
0.303790434
0.2381792984
0.1882854437
0.1499196657
0.1193726213
0.0977253414
0.08588240435
0.1002702283
0.4869208476
0.6569461188
0.6310174194
0.5680372944
0.5380920858
0.5337959257
0.5496612436
0.5873821303
0.6363454079
0.6830085073
0.7196280096
0.7408933241
0.741246279
0.7169892442
0.6678595484
0.5978046975
0.5131789616
0.4219448588
0.3333414266
0.2555913617
0.1933540079
0.146496044
0.1116079097
0.08589780228
0.07057461477
0.06504828693
0.07467894959
0.3710130203
0.4472161354
0.4543039234
0.4493013595
0.4518901244
0.4578006254
0.4716596576
0.502228801
0.5424552621
0.5799668396
0.6081408481
0.6219100958
0.6162220565
0.5886565882
0.5406567017
0.4769643187
0.4038313521
0.3280053339
0.2562411326
0.1942902224
0.1451395732
0.1081008668
0.080327852
0.05995588845
0.04868100404
0.0462790844
0.05147650477
0.3220987671
0.3550102681
0.3809922167
0.3982666142
0.4092115867
0.4154719643
0.4227715135
0.4424629258
0.4758052263
0.5113389553
0.5396737301
0.5547965219
0.5515639764
0.5271659795
0.4827408424
0.4228297681
0.3540670023
0.2839748061
0.2195506575
0.165733263
0.1238030297
0.09178263955
0.06642116879
0.04527263989
0.03122739025
0.03178691425
0.008236572749
0.1454536268
0.13351914
0.1439114244
0.1783841162
0.2155656847
0.1976074569
0.1809062855
0.1774674454
0.1929781969
0.3813311991
1.731678105
4.820810106
2.844911539
0.6167809185
0.2576510548
0.2363780347
0.2043850857
0.1771075809
0.1571408256
0.148617794
0.1570494768
0.1858309066
0.2119713465
0.2168404314
0.2056914317
0.1941181556
0.186480092
0.1981559607
0.3189658765
0.6834278625
0.3591044465
0.1962351951
0.1923102594
0.2005765932
0.2114402653
0.228119839
0.2560495636
0.2952225302
0.3370707488
0.3741594483
0.4882216498
0.3087744102
0.2695004855
0.2357484742
0.2078911667
0.1861525544
0.1717342719
0.1684034408
0.1831816824
0.2221481434
0.2628356031
0.2764827583
0.2643236626
0.2426963524
0.2239080973
0.2096477594
0.2069404935
0.2148497604
0.1873874844
0.1836344724
0.1964679554
0.2124424794
0.2280600223
0.2499286112
0.2833940215
0.3292050677
0.378689494
0.4250011326
0.5443497733
0.3029110094
0.2666681579
0.2384339348
0.2178346832
0.2031122825
0.1937148204
0.1945504228
0.2168926013
0.2713615513
0.3286375018
0.3519772414
0.3405139268
0.3156870983
0.2851146027
0.2612871872
0.2416896822
0.2237463126
0.2105293124
0.2092505536
0.2230266791
0.2421446644
0.2607044163
0.2868309959
0.3281742194
0.3810260748
0.4367605275
0.4905278921
0.6135728366
0.271244792
0.2519935091
0.2405025915
0.2325782428
0.2260169749
0.2281972581
0.2578584098
0.3324038494
0.4068535864
0.4361167792
0.4285143374
0.3987287884
0.3631691889
0.3237530421
0.2925064129
0.2658904756
0.2477624571
0.2429451895
0.2564484642
0.284174138
0.3167497562
0.3582149698
0.4154546139
0.4783056536
0.5320968297
0.5855042234
0.7145286443
0.291327233
0.2819557718
0.2800022251
0.2779238266
0.2712079277
0.2715715258
0.3088690972
0.4304137001
0.4786292349
0.5143393462
0.5037371112
0.4675243498
0.4304470554
0.3952009082
0.3550988735
0.3187826251
0.2937539096
0.2838503558
0.2994460823
0.3500498367
0.4199521039
0.492212122
0.5712201499
0.6446816787
0.696681149
0.7332130517
0.8732418107
0.3270317041
0.3291980409
0.3388857817
0.3430211227
0.3337228635
0.3241037366
0.3490586729
0.4620323368
0.5686818735
0.6071702771
0.5864432445
0.5333017053
0.4922204786
0.4551742505
0.4123995512
0.371971802
0.3409711748
0.3293974438
0.3543947563
0.4444860733
0.5637365449
0.6656285011
0.7567486749
0.8374493663
0.8968421308
0.9412404027
1.132340772
0.3777288705
0.398348123
0.425613944
0.4379984865
0.4229001896
0.3972818424
0.4061155848
0.5112959259
0.706162393
0.8170953057
0.8017319198
0.6768576672
0.5766238654
0.5095008252
0.4591139319
0.4171897463
0.3853173376
0.3726120958
0.4055807216
0.5230733777
0.6832767026
0.8052790804
0.8973790384
0.9791485382
1.047800936
1.112519309
1.462304069
0.4530810644
0.5047491093
0.5612314215
0.5842367586
0.5546537465
0.4968299284
0.5061155137
0.6207370424
1.057589536
1.519747403
1.65789345
1.234242559
0.820382782
0.6033991524
0.5056210416
0.4525383937
0.4182983207
0.4025154442
0.426334199
0.5362820645
0.7294624307
0.8871389483
0.9885484405
1.067639457
1.131785039
1.19353122
1.60114261
0.5746285147
0.6734508941
0.7717398271
0.8113339817
0.7546474432
0.6447107853
0.6071666641
0.8749062336
2.100354002
3.518612828
3.699029272
2.820554505
1.617027375
0.8992722611
0.6119715685
0.5029523775
0.4528660759
0.4282959376
0.4348664593
0.5083158118
0.6827221757
0.8712422402
0.995451996
1.074092563
1.122767518
1.166502503
1.56809221
0.7399306488
0.8925178025
1.037333702
1.10555687
1.037779634
0.8672236898
0.775493386
1.238201903
3.526379972
5.515530198
5.138133289
4.190209514
2.66227064
1.400035839
0.7984370773
0.5772725654
0.4922685109
0.4516218656
0.4383319873
0.4677675525
0.5747319446
0.7506756962
0.8915569946
0.9751380891
1.015688571
1.04943139
1.435749752
0.8995119124
1.087753787
1.261124047
1.372025093
1.341731947
1.141798659
0.9319862428
1.164591554
3.013592401
5.520682147
5.550005731
4.47045331
2.757749081
1.449153832
0.8356625039
0.607620629
0.5120947785
0.4609051992
0.4338257653
0.4327113613
0.475954344
0.5849884173
0.7161374967
0.8047425567
0.8516194226
0.8908711171
1.258075385
1.018760714
1.236555491
1.425112137
1.571473131
1.607045317
1.43663724
1.141527482
1.005031498
1.561142328
3.336087889
4.048699175
3.276013497
1.984323953
1.124270461
0.7381100859
0.5817082549
0.5021481324
0.4530797425
0.4229761862
0.4105485117
0.4206891591
0.465448086
0.5473960157
0.626193302
0.6812627063
0.7306340301
1.070261716
1.104914259
1.374877636
1.585057561
1.73417425
1.817080444
1.690453419
1.356263531
1.045854339
1.029707628
1.515753497
1.990268513
1.691139319
1.162434674
0.8057166862
0.6282290285
0.5358106651
0.4762042334
0.4362567157
0.415555314
0.4178553887
0.4373291537
0.4504694841
0.4633467797
0.4955267465
0.539825203
0.5899219783
0.8902944485
1.158194027
1.483182592
1.7118996
1.82203453
1.907110992
1.820302459
1.48775856
1.102061635
0.8795027294
0.8991878471
1.035484862
0.9450580797
0.7616732402
0.6276419113
0.5453442212
0.4877436246
0.4450622738
0.4208608324
0.430359369
0.4958765855
0.5975729771
0.6381891768
0.5668215546
0.4756444857
0.45063329
0.4772119303
0.7311007123
1.146691955
1.491902835
1.746879225
1.833534683
1.891745237
1.806854445
1.484614349
1.097128199
0.8279945138
0.7194883846
0.7059929159
0.6545094863
0.5840863385
0.5267582489
0.4815703536
0.4433371489
0.416319181
0.4150988453
0.4800557419
0.657960112
0.8803533988
0.9977691036
0.8960105578
0.6324926829
0.4449795368
0.4003336972
0.6016379842
1.059132848
1.377945846
1.648011192
1.742883258
1.772794506
1.660993821
1.357490255
1.01845804
0.7748301322
0.6424312994
0.5843819461
0.5395501283
0.500350781
0.4662009259
0.4355662496
0.4091954246
0.3942830996
0.412601439
0.5278629162
0.7995743502
1.101503891
1.272864387
1.184894758
0.8235882735
0.4856185693
0.3533062395
0.5011510866
0.9312878667
1.180969516
1.420653947
1.520020833
1.52560827
1.397393886
1.145205485
0.8895859282
0.7046921457
0.5921621922
0.5288759589
0.489314018
0.4635145559
0.4479159863
0.4184159014
0.3916637329
0.3798208281
0.4021423775
0.5252249109
0.8178395185
1.141568563
1.327472035
1.243802493
0.857472576
0.481980909
0.3171238239
0.4283701312
0.803980743
0.9731798319
1.146360045
1.228356269
1.220210084
1.10901754
0.9316183433
0.7635428148
0.6401094533
0.5589210515
0.5073753174
0.4768777982
0.4909901625
0.6200571127
0.5269268545
0.4138957154
0.3783214595
0.3867552844
0.4755557981
0.7063904854
0.9827698164
1.139700132
1.049235034
0.7176136091
0.4167343864
0.28160482
0.3782611369
0.7039409316
0.8113926035
0.9140817057
0.9655589289
0.9530084325
0.8765792895
0.7694121204
0.6713225865
0.5972695086
0.5449097291
0.5105048045
0.5137771824
0.8040536657
2.122754051
1.710155262
0.6887737815
0.4198162773
0.379502489
0.4185927411
0.5513993487
0.7287472583
0.824483438
0.7410533433
0.5220203352
0.3380499759
0.2518344441
0.3448678414
0.6551888097
0.7393054535
0.782918023
0.7935339414
0.7726648258
0.7245152028
0.6672034911
0.6170150704
0.5781715013
0.5484726949
0.5296296687
0.5899226676
1.464923181
3.430057341
3.173566679
1.400104299
0.5285813216
0.3879904546
0.3826241942
0.4354502466
0.5167124437
0.5539255766
0.4954918101
0.3781701095
0.2821869433
0.2306387135
0.3204925945
0.7060641836
0.8278712095
0.8128949011
0.7490943772
0.6894414267
0.6446529953
0.6134370622
0.5928212996
0.5783632134
0.5658764186
0.5550656817
0.571702941
0.8881706753
2.09759762
1.754995357
0.7850210436
0.452127624
0.3822877274
0.3652158998
0.3739972134
0.3961544528
0.3989349795
0.3615515152
0.3019581667
0.2497995018
0.2141605186
0.2973786244
0.8932736975
1.097665295
1.030275555
0.8470297154
0.697680027
0.6207659783
0.5930008889
0.588493662
0.5916131945
0.5940045405
0.5922118648
0.5895579124
0.6481912831
0.9541204968
0.7707930948
0.5297722132
0.434722406
0.3902716978
0.3632815095
0.3492004304
0.3424364233
0.3292157848
0.3015128035
0.264647105
0.2280087531
0.1975090096
0.2708171209
1.132667555
1.391147395
1.308261899
1.013162575
0.7547245989
0.6264839967
0.5896482064
0.5939309058
0.6109794962
0.6273206775
0.636507382
0.6359035499
0.6356856923
0.6666646006
0.5965843118
0.5182687475
0.4583543234
0.4088917594
0.3695660251
0.3406627509
0.31888232
0.2972070828
0.2708481894
0.2395252932
0.2067397365
0.178177217
0.2400454309
1.261496267
1.577503627
1.474287247
1.110993638
0.7859992708
0.6270931131
0.5870525293
0.5999839638
0.6295961397
0.6590648299
0.6799589571
0.6878182677
0.6817472059
0.6655443943
0.6188323181
0.5582548227
0.4934638919
0.4312427558
0.3776779771
0.3352930908
0.3022194269
0.2734818512
0.2444899519
0.2131215439
0.1818646649
0.15611188
0.206741746
1.225728013
1.639593524
1.458789265
1.061136376
0.7481839119
0.6044665497
0.5773921069
0.6015037125
0.6422508218
0.6830354233
0.714400866
0.7308904
0.7289495063