/*--------------------------------*- C++ -*----------------------------------*\
  =========                 |
  \\      /  F ield         | OpenFOAM: The Open Source CFD Toolbox
   \\    /   O peration     | Website:  https://openfoam.org
    \\  /    A nd           | Version:  8
     \\/     M anipulation  |
\*---------------------------------------------------------------------------*/
FoamFile
{
    version     2.0;
    format      ascii;
    class       volScalarField;
    location    "1.4";
    object      htcConv;
}
// * * * * * * * * * * * * * * * * * * * * * * * * * * * * * * * * * * * * * //

dimensions      [1 0 -1 1 0 0 0];

internalField   uniform 0;

boundaryField
{
    walls
    {
        type            calculated;
        value           uniform 0;
    }
    region0_to_wallFilmRegion_wallFilmFace
    {
        type            convectiveHeatTransfer;
        L               1;
        value           nonuniform List<scalar> 
822
(
2.686089846
2.688625565
2.688820313
2.739981993
2.862405578
2.985338482
3.060916513
3.083528805
3.097231334
3.022445116
2.879975701
2.619690608
2.208958574
1.642226911
1.481348071
2.271284838
2.800900705
3.150970238
3.355366706
3.446508625
3.443674604
3.392859334
3.23890361
3.206899509
3.367129683
3.504586528
3.504831292
3.309813593
2.92546414
2.361823669
1.940109587
2.622050763
2.678586359
2.7653359
2.899160627
3.017043006
3.100634147
3.14329911
3.143023656
3.061080219
2.903891135
2.644691396
2.274921651
1.841568137
1.914275343
2.535298726
2.96780216
3.249771969
3.406144112
3.451269878
3.3772872
3.252596515
2.814750521
2.97332307
3.368753241
3.640877252
3.782433837
3.723937689
3.431463309
2.808241343
2.19954397
2.575774233
2.667393787
2.77384093
2.910912033
3.032505445
3.126878218
3.183173943
3.180184319
3.109138033
2.967929599
2.745819895
2.468446522
2.207181198
2.352073332
2.789452354
3.134253215
3.366339727
3.478334435
3.48605651
3.415960255
3.302551592
3.108703768
3.095436701
3.3717303
3.614336247
3.712327438
3.624088614
3.315549727
2.762747724
2.259208751
2.538917876
2.658948666
2.774267418
2.909014335
3.034886155
3.141534075
3.213933089
3.226113891
3.178962039
3.073679989
2.911753327
2.730131856
2.608243315
2.779507933
3.066414137
3.325525312
3.539286179
3.652994663
3.666284741
3.592980651
3.476184852
3.349541151
3.311583445
3.460267856
3.62606132
3.672603371
3.538272276
3.236910667
2.729869938
2.285108871
2.512642138
2.649314323
2.766390878
2.888914712
3.005413632
3.113112868
3.197742117
3.238559968
3.220365291
3.162715318
3.072329445
3.002272207
2.961265638
3.063677676
3.266466
3.455409861
3.63547826
3.730504614
3.73532427
3.666736498
3.569676665
3.482637838
3.454159638
3.527639267
3.615708783
3.608546899
3.461253035
3.1842683
2.720729954
2.335046861
2.29879959
2.488767302
2.631776904
2.746344777
2.851394775
2.942970042
3.031356238
3.111765159
3.169108589
3.196213153
3.167935332
3.118244037
3.169685129
3.22957021
3.317209726
3.470400226
3.59808392
3.721846583
3.76902327
3.740161965
3.662709703
3.58266012
3.528531144
3.515962728
3.550904469
3.581653149
3.542111175
3.396039681
3.14537913
2.721489264
2.382835481
2.269782424
2.484231663
2.614947551
2.71778378
2.796725594
2.861205172
2.9339354
3.006008985
3.048641738
3.0697403
3.058197989
2.973675831
3.174253309
3.342781819
3.44065228
3.601739872
3.701506421
3.768340944
3.761159977
3.69792941
3.616977506
3.557302976
3.529075758
3.526707683
3.540658991
3.538571385
3.480039102
3.337479223
3.10727325
2.714247016
2.417248602
2.148692458
2.367331191
2.530298023
2.644744653
2.724352688
2.720892793
2.736732773
2.826037553
2.939058035
2.995794173
2.920373902
2.534268064
2.785300886
3.262379239
3.392451082
3.614302571
3.719492813
3.746229032
3.699615657
3.619832474
3.550190787
3.51512097
3.505010287
3.504571182
3.502048381
3.478858242
3.408703856
3.270185609
3.057188514
2.691580108
2.427314233
1.465597262
2.168018094
2.314398749
2.489303133
2.565591583
2.573065074
2.559230621
2.601485793
2.770177531
2.866542773
2.737664076
2.3465846
2.608821004
3.075080304
3.200397582
3.519943635
3.654532773
3.65896348
3.595911056
3.522508187
3.475999394
3.467350567
3.467890057
3.461499745
3.441608448
3.402174531
3.328423158
3.202278791
3.015815752
2.684656914
2.443736427
1.636200586
2.017521431
2.248561973
2.415505779
2.482031486
2.454268641
2.360182197
2.316244631
2.575162911
2.803241295
3.059087585
3.535107831
2.269727556
2.610199063
2.846689514
3.283294279
3.502489311
3.524207486
3.472447674
3.421699066
3.397510332
3.418578869
3.424642568
3.407756629
3.37133845
3.320715275
3.252948134
3.148942218
2.99641367
2.701748967
2.482830734
1.853753262
2.144595852
2.29963234
2.392454542
2.420331165
2.391553735
2.348807266
2.50104944
2.933485205
3.323892984
3.888253923
4.520140472
4.166077689
3.618946991
3.152408071
3.186901448
3.3543848
3.385296339
3.355462028
3.321335147
3.284289611
3.36125737
3.376859286
3.35299335
3.306103635
3.252560329
3.196063089
3.117798343
2.997479438
2.735035544
2.537235139
1.940478369
2.211877821
2.374141816
2.475485459
2.480422324
2.412831388
2.289878904
2.340062658
2.728750584
3.121330864
3.745946326
4.607062565
4.370501209
4.057275117
3.552746236
3.311770201
3.286756505
3.277412974
3.250546531
3.214565322
3.132904163
3.339300812
3.349496052
3.316373063
3.262922465
3.21148091
3.166373886
3.108194031
3.012511698
2.776210455
2.598571559
1.818902578
2.177921859
2.37440644
2.533590003
2.574695427
2.542219483
2.444144221
2.443259932
2.646152969
2.94113182
3.512218599
4.500424955
4.239788951
3.932982751
3.578816385
3.350993378
3.247370692
3.193883988
3.136671315
3.072365545
2.877174909
3.296352439
3.299832943
3.286986815
3.242821548
3.198677943
3.162358031
3.114858928
3.033886585
2.817872567
2.661414344
1.623989096
2.065796925
2.220366228
2.479511492
2.602226886
2.63261153
2.599522581
2.590121403
2.688676849
2.874627984
3.289939663
4.191685689
3.986751204
3.756412176
3.518736126
3.331764234
3.199566499
3.103570469
3.004247921
2.935034148
2.457175198
3.364836241
3.356628088
3.333854894
3.269279146
3.216693562
3.178661009
3.131661577
3.054136843
2.852645917
2.718610021
1.513328685
2.049266597
2.030834013
2.362370823
2.53831831
2.632709158
2.647945073
2.639358502
2.695271439
2.828857535
3.123223056
3.819533857
3.72036476
3.567238907
3.406962774
3.254482515
3.131722928
3.015508581
3.104549177
3.034294244
3.561876917
4.151528715
3.574950405
3.420197926
3.306308869
3.242544354
3.199898062
3.148655534
3.065359066
2.873162446
2.761052624
1.647481617
2.212222686
1.803276715
2.195085648
2.377067829
2.534703846
2.59242433
2.599009948
2.648744831
2.758599068
2.999254313
3.486307872
3.464891971
3.372475329
3.261544558
3.140902428
3.042684424
2.982591476
3.151788056
2.964700829
4.191744637
3.74858565
3.505446207
3.387048435
3.30469361
3.254054289
3.21250174
3.152570578
3.058410169
2.871612038
2.7790529
2.232839945
1.501540813
1.956825659
2.15537576
2.374171531
2.467469528
2.488358096
2.549004104
2.653326872
2.874391954
3.204504153
3.227244826
3.178439192
3.101044184
3.009837053
2.937270259
2.916757395
3.021008164
2.972199393
3.508820904
3.455814857
3.37469343
3.319708885
3.276024485
3.242703671
3.202217983
3.130859065
3.024252178
2.840407635
2.763584067
1.87712081
1.302095922
1.838583156
1.967127777
2.181534041
2.279752864
2.306780354
2.387547898
2.506727611
2.724241997
2.961288328
3.010200507
2.992558555
2.939824565
2.868067974
2.805911598
2.814795363
2.904610682
2.958139977
3.243545726
3.271955007
3.261409859
3.244813823
3.225893938
3.202336724
3.159072523
3.075780145
2.956169792
2.773958247
2.707579382
1.759659806
1.285892157
1.704229794
1.839766025
2.015903976
2.076809325
2.035515868
2.119456361
2.307628574
2.546758136
2.742249574
2.814934599
2.820666659
2.781475875
2.715200984
2.664404819
2.729017162
2.84861817
2.947611244
3.100483322
3.15640962
3.172221726
3.171345556
3.160261281
3.135215428
3.082543971
2.984801473
2.851860915
2.669633991
2.60605345
1.541936596
1.163146399
1.551136187
1.688690461
1.818908005
1.812745359
1.593900998
1.714327364
2.018291678
2.317095938
2.526785103
2.631271526
2.657022941
2.633875166
2.545518071
2.437076987
2.542448026
2.740014744
2.902287518
3.027538236
3.087119718
3.106155815
3.103469169
3.085068717
3.047027704
2.977537986
2.861870002
2.713944072
2.527822402
2.459505541
1.417900427
1.159877836
1.458694955
1.555113152
1.598903357
1.513075741
1.27858643
0.9582580231
1.685179319
2.094236468
2.340177489
2.462969648
2.496951985
2.422672443
2.412713429
2.606438106
2.775644946
2.917956346
3.01501572
3.066142599
3.077620139
3.068447075
3.045381077
3.006988631
2.946839353
2.85411603
2.716140609
2.549279548
2.354020361
2.278436737
1.443058866
1.4338329
1.576749023
1.642135338
1.63707531
1.632540245
1.727176261
1.635341085
1.793745435
2.049577942
2.252461801
2.364200314
2.383315346
2.280639884
2.313406563
2.858852808
3.08583722
3.239773806
3.290443273
3.258124411
3.173412032
3.086693567
3.01077104
2.935398066
2.844654887
2.723540147
2.558599707
2.366924259
2.156219603
2.078231526
1.679977429
1.773944411
1.876549813
1.949160803
1.960098337
1.961156533
2.052985051
2.152300909
2.320909657
2.455619828
2.533901978
2.535622678
2.455489514
2.400074453
2.255102832
2.959271538
3.237893008
3.395912352
3.43046151
3.361484771
3.224420759
3.086090305
2.967630172
2.859396235
2.740033598
2.590733942
2.396024764
2.172459569
1.936937147
1.860187529
1.949236687
2.052752666
2.139505826
2.187381398
2.162159518
2.126878784
2.193758977
2.310554271
2.507932133
2.696766194
2.802624572
2.810537635
2.691784086
2.59745495
2.327398113
2.896905031
3.262919068
3.413986215
3.417786397
3.311802403
3.162972001
3.015447352
2.886015183
2.763467696
2.625919114
2.454463129
2.231618301
1.971065413
1.692240223
1.593201856
2.190687012
2.264268321
2.320069684
2.339930813
2.301288758
2.25136906
2.303977977
2.403894211
2.591918678
2.78723753
2.916822484
2.971293409
2.920690438
2.825649813
2.624671562
2.804637235
3.141610771
3.274923604
3.257470694
3.159360031
3.028898469
2.900232422
2.781704704
2.660581571
2.518916025
2.340723982
2.107980242
1.827888967
1.501158236
1.227048729
2.363783667
2.409097343
2.438917375
2.423209208
2.336687482
2.212648005
2.206263254
2.306780723
2.534676854
2.783316975
2.952978216
3.047304795
3.060082318
3.013565342
2.89045111
2.83015566
2.968282994
3.062554229
3.052474486
2.974982189
2.872537859
2.769893645
2.669635026
2.562834005
2.437425353
2.281649271
2.077853407
1.831358301
1.470063589
1.159402099
2.568095446
2.639652488
2.69714928
2.693114041
2.572599745
2.309647256
2.030498567
2.17004905
2.54537691
2.876076283
3.08027017
3.193250534
3.236333085
3.227404654
3.157839475
3.064246221
3.053985433
3.056618759
3.003145893
2.906878471
2.803623791
2.71304508
2.634605215
2.557854222
2.46920556
2.354867056
2.195713619
1.99390794
1.665385221
1.337413889
)
;
    }
    region0_to_wallFilmRegion_mirrorFace
    {
        type            convectiveHeatTransfer;
        L               1;
        value           nonuniform List<scalar> 
558
(
4.44079493
3.690466251
3.599433314
3.963954665
4.373084008
4.30315099
4.044147602
3.896328359
3.900696661
4.149419022
4.598075049
4.232952561
4.20252292
4.470921718
4.768437044
4.546295476
4.662207701
4.513545217
4.455407651
4.468422018
4.471479868
4.566161285
4.74285046
4.683338541
4.976184065
4.846847074
4.74335142
4.353492532
4.919363632
4.833473356
4.846909775
4.785499161
4.826670904
4.193187295
4.240336136
4.502142045
3.953529045
4.133823195
4.313600377
4.556757726
4.157790119
3.5197016
3.933127442
3.832457775
3.788694106
3.890812603
4.063261048
2.232989859
2.360243952
2.368778645
2.040834315
2.327345484
2.190630233
2.190720374
2.124314572
2.126648533
2.237385571
2.144375096
2.160790152
2.259818665
2.180854209
2.153632608
2.615988008
2.10139966
2.034944919
2.612086279
3.190914955
4.556999651
1.956274429
2.005141977
1.893055875
1.841183938
1.979823517
1.807706745
1.797446359
2.017845238
1.804329377
1.834571615
2.081586679
1.931830395
2.044310816
1.849999593
2.291096757
2.059402227
3.268399253
2.351507797
2.880913967
1.810088136
1.789202982
1.664045911
1.643884096
1.537332425
1.423538017
1.572226242
1.346196313
1.31082696
1.584104099
1.308149329
1.288500397
1.862812836
1.253939662
1.829440646
2.772228223
2.939011932
3.035660459
2.210758226
2.790978181
2.474588168
4.522168584
4.117065437
4.69319345
1.850730396
1.969353366
1.848139219
1.560614712
1.705156943
1.539435463
1.228258965
1.353402435
1.161923626
1.108972507
1.029338003
1.059280572
1.433750914
1.225289855
1.460831165
1.987999777
1.67768564
2.021042534
2.562012535
2.118548396
2.270337489
2.564198049
1.380129638
2.365775811
4.434704713
3.398324376
4.179436405
1.901058374
2.088416237
1.990151937
1.619172509
1.878905544
1.758702881
1.309743862
1.63893062
1.536866574
1.256617384
1.484891177
1.504966913
1.60401759
1.599728046
1.75667857
2.088113323
1.924783977
2.165226771
2.563585812
2.265854618
2.621464046
2.201331258
1.680533802
2.534130533
2.092284946
2.218581278
2.151847165
1.913146997
2.085669425
2.01648133
1.749148937
1.952189133
1.893245998
1.717817471
1.861092887
1.856794299
1.895923768
1.898888644
1.977819167
2.231564881
2.104065284
2.25440317
2.625595025
2.403068639
2.348067647
2.668377586
2.38162158
2.599981642
2.282950368
2.096226303
2.060041565
2.195209937
2.055725786
2.000761894
2.059499674
1.942822418
1.870786833
1.97917645
1.835571684
1.812557872
2.000591641
1.829203009
1.901568182
2.188879458
2.01502484
2.453651363
4.437895036
4.505247294
4.313661599
2.111390177
2.250524585
2.555680286
3.615956985
2.187981801
2.211760178
2.257330796
2.310131901
2.806945796
4.216898032
2.993948756
2.040066708
1.984209004
1.992586301
2.063225122
2.162382967
1.982176403
4.790704279
1.903706703
1.720088175
1.592986436
1.567748751
1.619255518
2.753576105
1.86481242
4.273913091
1.968210388
1.71478081
1.393088189
1.115060183
1.221128493
1.631092031
1.918647375
2.414140659
3.886292206
2.014369229
1.768770891
1.459216602
1.224053255
1.395252081
1.815917205
2.259802041
1.465304395
3.379990028
2.172291946
2.005066452
1.82500883
1.710613622
1.780720969
2.046654945
2.508851152
2.119225508
2.977157541
2.307977411
2.251512886
2.141491523
2.002124877
1.983930716
2.098686165
2.366466264
2.52732836
2.207918144
2.499635844
2.313020548
2.007123378
2.059902962
2.018138555
4.221682835
3.258784945
4.367918161
4.470545026
4.480191894
4.876223599
4.960561037
4.795131327
4.731910483
4.504872653
4.444771183
4.799354951
5.148591181
5.090387215
5.100286812
5.007049953
4.415395098
4.726000406
4.75293297
4.663011721
5.001068589
4.849969589
4.887464029
4.800866664
2.96037489
2.99345324
3.316072882
3.872169952
2.055750216
2.400721656
3.125124548
3.827431187
2.706926366
3.091488221
3.597403705
4.132366805
2.483275191
2.579000394
2.627107484
3.267086626
3.651001584
3.07512699
4.277985767
4.248186943
3.753016955
4.535448906
4.066436996
3.910361541
4.415839074
4.210958429
4.003775152
3.936902493
4.266749218
4.368396074
3.720687574
4.218565883
4.434631988
4.509746616
4.503682927
3.31838612
4.698913391
2.259368751
2.330181991
4.077431141
3.198090448
4.19598653
3.160620802
3.580073487
4.556483118
4.396330744
4.39799757
2.416975553
2.102987052
2.02241257
2.394932302
2.201905992
2.583983924
4.171714985
4.456862039
2.139081345
2.906575509
3.084015762
3.960993877
4.349250415
4.261289039
2.008448934
3.132699131
2.92982177
3.85471117
4.197909808
4.159919186
1.902861208
3.063355593
3.727392631
4.032729515
4.177336778
4.259427329
3.833483499
2.199537331
3.497231991
3.976479395
4.309877447
4.199423102
4.304772149
4.452837744
4.608209406
4.423825652
4.555294857
4.16479038
4.418923766
4.396752586
4.366211596
4.441273671
4.5911715
4.650399911
4.741077451
4.661789546
4.769501623
4.756333046
4.841015307
4.880173317
4.622318432
4.594709169
4.709334047
4.842064772
4.572586083
4.882116749
4.796856726
4.467384966
4.741503276
4.689736794
4.471931939
4.65237231
4.60573103
4.309665499
4.444133667
4.567991048
4.668906243
4.620121483
4.331609015
4.482001948
4.548497715
4.525492139
4.460501172
4.32515273
4.495186506
4.493490597
4.46794481
4.680847631
4.479770961
4.597782709
4.57959245
4.732407892
4.722436161
4.869010832
4.817292771
4.912868209
4.84452777
4.75037781
4.822361265
4.720581119
4.962279729
4.809734499
4.969778088
4.897465934
5.032515499
4.941440984
4.79318718
4.904305423
4.582108602
4.870597242
4.89126325
4.744941532
4.829551381
4.803817888
4.88042572
4.291766175
4.406062956
4.486231059
4.392702629
4.492251366
4.496127817
4.610450624
4.591750482
4.699448742
4.691780824
4.684980265
4.778883251
4.788415993
4.749557726
4.787219203
4.830063169
4.81999586
5.097908934
5.083848931
5.058952487
5.066203993
5.038603822
5.032010277
4.84335328
4.808209688
4.884765139
4.964273485
4.868550398
4.821755043
4.942990337
5.103105361
5.058589106
5.08907487
4.924634574
4.973022051
4.347285245
4.350726013
4.286576955
4.338480395
4.421300137
4.502741157
4.407876992
4.495044862
4.596798459
4.527924984
4.568992448
4.689548276
4.683802958
4.572184868
4.046210132
4.749101557
4.39604282
4.800292886
4.479995371
4.554878609
4.607937469
4.869357197
4.636482258
4.664995706
4.728526508
4.771710102
4.860823387
4.596103385
4.724799552
4.745669025
5.022675881
4.874770772
4.966825972
4.846322089
2.963709182
2.544902879
2.5732584
3.100118667
2.661947011
2.863882923
3.600536144
3.173787503
3.518212815
4.03772115
3.819994789
4.0396443
4.202239788
2.179190887
1.917061698
2.184274564
2.732466595
2.487033451
2.848141381
3.504268962
3.244430912
3.613496439
4.07355387
3.937325627
4.155792143
4.33141317
4.292452311
2.89771182
3.445385667
3.589535861
3.322089572
3.726616028
3.868542621
4.219547454
3.893280903
4.027431855
4.185329774
4.320433533
4.464673264
)
;
    }
    procBoundary1to0
    {
        type            processor;
        value           uniform 0;
    }
    procBoundary1to2
    {
        type            processor;
        value           uniform 0;
    }
    procBoundary1to3
    {
        type            processor;
        value           uniform 0;
    }
}


// ************************************************************************* //
