/*--------------------------------*- C++ -*----------------------------------*\
  =========                 |
  \\      /  F ield         | OpenFOAM: The Open Source CFD Toolbox
   \\    /   O peration     | Website:  https://openfoam.org
    \\  /    A nd           | Version:  8
     \\/     M anipulation  |
\*---------------------------------------------------------------------------*/
FoamFile
{
    version     2.0;
    format      ascii;
    class       volScalarField;
    location    "1.4";
    object      N2;
}
// * * * * * * * * * * * * * * * * * * * * * * * * * * * * * * * * * * * * * //

dimensions      [0 0 0 0 0 0 0];

internalField   nonuniform List<scalar> 
67451
(
0.7899984644
0.7899992844
0.7899997495
0.7899998894
0.7899999574
0.7900001638
0.7900002668
0.7900002522
0.790000379
0.7900003479
0.7900003425
0.7899966556
0.7899970338
0.7899975441
0.7899982027
0.7899989391
0.789999591
0.7900000526
0.7900002296
0.7900002656
0.7900003867
0.7900004743
0.7900004517
0.7900005823
0.790000443
0.7900007166
0.7900000225
0.7900000099
0.7899998304
0.7899997897
0.7899999497
0.7900000447
0.7900000573
0.7900000261
0.7899999884
0.7899999831
0.7900000801
0.7899967176
0.7899970349
0.789997448
0.7899979299
0.7899984587
0.7899990093
0.7899995249
0.7899999456
0.7900002655
0.7900003889
0.7900003951
0.7900004463
0.7900005122
0.7900005499
0.7900006344
0.7900006183
0.7900007891
0.7900004518
0.7900005701
0.7900003718
0.7900003008
0.7900002738
0.7900002411
0.790000206
0.7900001663
0.7900001288
0.7900001167
0.7900001654
0.7899976555
0.7899981075
0.789998577
0.789999025
0.7899994283
0.7899997741
0.7900000461
0.790000253
0.7900004248
0.7900004642
0.7900004366
0.7900004364
0.790000482
0.7900005135
0.7900005874
0.7900006157
0.7900007532
0.7900007153
0.7900007792
0.7900006416
0.7900004614
0.7900003793
0.7900003446
0.7900003488
0.7900003247
0.790000288
0.7900002696
0.7900002766
0.7899993206
0.7899996798
0.7899999778
0.7900002009
0.7900003505
0.7900004334
0.7900004889
0.7900005113
0.7900005132
0.7900004626
0.790000454
0.790000483
0.7900004882
0.790000556
0.7900006171
0.7900007057
0.7900007863
0.790000915
0.7900009157
0.7900006871
0.7900005316
0.7900004919
0.7900005156
0.7900005023
0.7900004626
0.7900004327
0.7900004347
0.7900001681
0.79000039
0.7900005635
0.7900006753
0.7900007224
0.7900007098
0.7900006763
0.7900005456
0.7900005547
0.7900005156
0.7900005119
0.7900005555
0.790000554
0.7900005699
0.7900006117
0.7900006736
0.7900007532
0.7900008859
0.7900009929
0.790000867
0.79000069
0.7900006386
0.7900006699
0.7900006755
0.7900006384
0.7900005958
0.79000064
0.7900006013
0.7900007362
0.7900008476
0.7900009177
0.790000939
0.7900009182
0.7900008439
0.790000675
0.7900006195
0.7900006132
0.7900005923
0.7900006573
0.7900006573
0.7900006417
0.7900006455
0.7900006793
0.7900007448
0.7900008537
0.7900009909
0.7900010025
0.7900008582
0.790000767
0.790000786
0.7900008175
0.7900008001
0.7900007605
0.7900008893
0.790000825
0.7900008942
0.7900009612
0.7900010111
0.7900010326
0.790001034
0.7900009753
0.7900008025
0.7900006907
0.7900007022
0.7900007027
0.7900006748
0.7900006767
0.7900006663
0.7900006696
0.7900006932
0.7900007465
0.7900008394
0.7900009785
0.790001077
0.7900009998
0.7900008739
0.7900008688
0.7900009355
0.7900009675
0.7900009662
0.7900012087
0.7900009246
0.7900009525
0.7900009782
0.7900010164
0.7900010416
0.7900010644
0.7900010438
0.7900009179
0.790000764
0.7900007834
0.7900010719
0.7900007327
0.7900007201
0.7900007219
0.7900007257
0.7900007311
0.7900007596
0.7900008271
0.7900009385
0.7900010655
0.7900010742
0.7900009751
0.7900009751
0.7900010072
0.7900009842
0.7900009137
0.7900010226
0.7900009853
0.790000992
0.7900009808
0.790001015
0.7900010296
0.7900010498
0.7900010364
0.790000964
0.7900008361
0.7900009938
0.7900016952
0.7900010838
0.7900007907
0.790000739
0.7900007448
0.790000748
0.790000773
0.7900008422
0.7900009557
0.79000108
0.7900011224
0.7900009988
0.7900009793
0.7900009716
0.7900009061
0.7900008134
0.7900009151
0.7900010538
0.7900010552
0.7900010109
0.790001055
0.7900010628
0.7900010603
0.7900010622
0.7900009859
0.7900009451
0.7900014063
0.7900022996
0.7900017942
0.790001002
0.7900007223
0.7900007553
0.7900008137
0.7900008397
0.7900008831
0.7900009737
0.7900010876
0.7900011436
0.7900010219
0.7900009541
0.7900008837
0.7900007902
0.7900007015
0.7900008159
0.7900011322
0.7900011346
0.7900010677
0.7900011351
0.7900011391
0.7900011107
0.7900011004
0.7900010057
0.7900010424
0.7900019556
0.7900042228
0.7900040287
0.7900021287
0.7900006733
0.7900002806
0.7900004815
0.790000688
0.7900008297
0.7900009672
0.7900010972
0.7900011631
0.7900010578
0.7900009372
0.7900007962
0.7900006851
0.7900006119
0.7900007303
0.7900011891
0.7900012109
0.7900011563
0.7900012623
0.790001258
0.7900011902
0.790001127
0.7900010648
0.7900010288
0.7900008533
0.790003232
0.790002285
0.7900007673
0.7900001365
0.790000298
0.7900005816
0.7900007517
0.7900008765
0.7900010048
0.7900011202
0.7900011811
0.7900011045
0.7900009477
0.790000755
0.790000625
0.7900005566
0.7900006471
0.7900012128
0.7900013038
0.790001347
0.7900014566
0.7900014255
0.7900012988
0.790001172
0.7900010747
0.7900010576
0.7900009316
0.7900014554
0.7900006739
0.7900002372
0.7900003284
0.7900005644
0.7900007194
0.7900008204
0.7900009255
0.7900010431
0.7900011398
0.790001206
0.7900011546
0.7900009932
0.7900007788
0.7900006186
0.7900005231
0.7900005511
0.7900012738
0.7900013214
0.7900013989
0.790001459
0.7900014195
0.790001261
0.7900010811
0.7900009618
0.7900009507
0.7900009842
0.790000809
0.7900005097
0.7900005559
0.7900006792
0.7900007653
0.7900008223
0.7900008891
0.7900009773
0.7900010824
0.7900011706
0.7900012619
0.7900012976
0.7900011505
0.7900009037
0.790000684
0.790000516
0.7900004449
0.7900014082
0.7900014909
0.790001582
0.7900016336
0.790001668
0.7900015595
0.7900013467
0.7900011176
0.7900009581
0.7900009154
0.7900008612
0.7900008496
0.7900008998
0.7900009114
0.7900009055
0.7900009202
0.790000965
0.7900010321
0.790001135
0.7900012277
0.7900014731
0.7900015932
0.790001456
0.7900011153
0.7900007969
0.7900005337
0.7900003439
0.7900014008
0.7900014832
0.7900015901
0.7900016633
0.7900017045
0.7900015623
0.7900013007
0.7900010353
0.7900008765
0.7900008788
0.7900009654
0.7900010663
0.7900011081
0.7900010838
0.7900010237
0.790001021
0.790001044
0.7900010886
0.79000121
0.790001382
0.7900016745
0.7900018934
0.7900019238
0.7900016927
0.7900012323
0.7900007344
0.7900003374
0.7900013601
0.7900013925
0.7900014687
0.7900015463
0.7900015196
0.7900013252
0.7900010668
0.7900008752
0.790000845
0.7900009642
0.7900011196
0.7900012302
0.7900012675
0.7900012695
0.7900012091
0.790001147
0.7900011081
0.7900011184
0.790001208
0.7900013599
0.7900016927
0.7900019567
0.7900019645
0.7900017007
0.790001259
0.7900007863
0.7900003402
0.7900013509
0.7900013186
0.7900013293
0.7900013871
0.7900012772
0.7900010718
0.7900008895
0.7900008377
0.7900009391
0.7900011155
0.7900012624
0.7900013195
0.7900012639
0.7900011667
0.7900004675
0.7900008479
0.7900009915
0.790001083
0.7900011633
0.7900012629
0.7900015297
0.7900017395
0.7900016822
0.7900014136
0.7900010655
0.7900007489
0.7900003601
0.7900013834
0.7900013124
0.7900012502
0.7900012502
0.7900010863
0.7900009312
0.7900008708
0.7900009435
0.7900011027
0.7900012649
0.7900013775
0.7900014373
0.7900014342
0.7900014962
0.7900014388
0.7900013209
0.7900012045
0.79000114
0.7900011461
0.7900011906
0.7900013349
0.7900014525
0.7900013515
0.7900011318
0.7900009359
0.7900007658
0.7900004339
0.7900014231
0.7900013505
0.7900012511
0.7900011833
0.7900010238
0.7900009534
0.7900009929
0.7900011154
0.7900012574
0.7900013586
0.7900013874
0.7900012753
0.7900005192
0.7900012955
0.7899964925
0.7899991351
0.7900001698
0.7900007319
0.7900010045
0.790001121
0.7900012034
0.7900012384
0.7900011365
0.7900010134
0.7900009464
0.7900008395
0.7900005319
0.7900014571
0.7900014768
0.7900013127
0.7900012179
0.7900010945
0.7900010894
0.7900011659
0.7900012777
0.7900013798
0.7900014417
0.7900014527
0.790001373
0.7900011495
0.7900009843
0.789999379
0.7900005483
0.7900008422
0.7900009847
0.790001072
0.7900011294
0.7900011641
0.7900011536
0.7900010861
0.7900010443
0.7900010218
0.7900009054
0.790000597
0.7900014561
0.7900015286
0.7900013863
0.7900012975
0.7900012193
0.7900012421
0.7900013147
0.790001399
0.7900014686
0.7900015063
0.7900015017
0.7900014262
0.7900012836
0.790001081
0.7900004212
0.790000806
0.7900009633
0.7900010513
0.7900011003
0.7900011338
0.7900011538
0.7900011438
0.7900011157
0.7900011029
0.7900010644
0.7900009108
0.790000587
0.7900016686
0.790001957
0.7900017368
0.7900014945
0.7900013662
0.7900013643
0.7900014175
0.7900014805
0.7900015306
0.7900015515
0.7900015316
0.790001459
0.7900013529
0.7900012039
0.7900009728
0.7900010496
0.7900010925
0.7900011132
0.7900011201
0.7900011253
0.7900011319
0.7900011293
0.7900011194
0.7900010994
0.7900010235
0.7900008278
0.7900004827
0.7900018547
0.7900022898
0.7900019763
0.7900016086
0.7900014249
0.7900014108
0.7900014663
0.7900015258
0.7900015661
0.7900015726
0.7900015376
0.7900014665
0.7900013821
0.7900012828
0.7900011842
0.7900011767
0.7900011699
0.7900011507
0.7900011214
0.7900010938
0.7900010768
0.790001065
0.7900010467
0.790000998
0.7900008757
0.7900006395
0.7900002825
0.7900017679
0.7900022142
0.7900018552
0.7900014794
0.7900013384
0.7900013761
0.7900014669
0.7900015368
0.7900015723
0.7900015661
0.7900015207
0.7900014532
0.7900013843
0.7900013149
0.7900012543
0.7900012221
0.7900011906
0.7900011441
0.7900010823
0.7900010178
0.7900009642
0.7900009205
0.790000867
0.7900007694
0.7900005949
0.7900003359
0.7899999989
0.7900014769
0.7900017802
0.7900014779
0.7900012269
0.7900012104
0.7900013276
0.790001446
0.7900015148
0.7900015438
0.7900015332
0.7900014845
0.7900014211
0.7900013598
0.7900013009
0.7900012462
0.7900011998
0.790001147
0.7900010728
0.7900009742
0.790000862
0.7900007527
0.7900006498
0.7900005322
0.790000369
0.790000155
0.7899999203
0.7899996527
0.790001249
0.7900014625
0.7900011511
0.7900010805
0.7900011671
0.7900013085
0.7900014097
0.7900014584
0.7900014803
0.7900014702
0.7900014257
0.7900013656
0.7900013027
0.7900012406
0.7900011786
0.7900011121
0.7900010281
0.7900009125
0.7900007589
0.7900005757
0.790000382
0.7900001883
0.789999983
0.789999756
0.789999546
0.7899994057
0.7899992577
0.7900011798
0.7900011524
0.7900010157
0.7900010748
0.7900011731
0.7900012689
0.7900013193
0.7900013404
0.7900013574
0.7900013496
0.7900013081
0.7900012491
0.790001184
0.7900011119
0.7900010295
0.7900009292
0.7900007965
0.7900006155
0.7900003776
0.7900000922
0.7899997854
0.7899994809
0.7899991853
0.7899989195
0.7899987712
0.7899987926
0.7899988048
0.7900010346
0.7900009549
0.7900009622
0.7900010264
0.7900010726
0.7900010981
0.7900010909
0.7900010827
0.7900010917
0.7900010847
0.7900010474
0.7900009905
0.7900009202
0.7900008324
0.7900007196
0.7900005704
0.7900003684
0.7900000974
0.7899997523
0.7899993513
0.7899989332
0.7899985356
0.7899981808
0.7899979129
0.7899978661
0.7899980965
0.789998292
0.7900004447
0.7900004672
0.7900005166
0.7900005473
0.7900005453
0.7900005124
0.7900004495
0.7900004036
0.7900004021
0.7900004002
0.7900003742
0.7900003284
0.7900002629
0.7900001683
0.7900000318
0.789999839
0.7899995756
0.7899992331
0.7899988185
0.7899983605
0.7899979036
0.7899974929
0.7899971617
0.7899969597
0.7899970851
0.7899976115
0.7899978435
0.7899987668
0.7899993365
0.7899996133
0.7899997185
0.7899996857
0.7899998907
0.7899999722
0.7900000146
0.7900000624
0.7900001821
0.7900001966
0.7899971586
0.7899975291
0.7899979845
0.7899985318
0.789999105
0.7899995864
0.7899998945
0.7900000084
0.7900000058
0.7900001415
0.7900002396
0.7900002902
0.7900003762
0.7900004468
0.7900005044
0.7900006601
0.7900003677
0.7900001677
0.7899998634
0.7899998482
0.7899998209
0.7899997851
0.7899997238
0.7899996687
0.7899996649
0.789999809
0.7899971276
0.7899974234
0.78999778
0.7899981871
0.7899986365
0.7899991048
0.7899995305
0.789999862
0.790000084
0.7900001667
0.7900001696
0.7900002278
0.7900003267
0.7900004063
0.7900004706
0.7900005233
0.790000543
0.7900005167
0.7900003837
0.7900002736
0.7900001161
0.7900000526
0.7899999912
0.7899999263
0.7899998616
0.789999814
0.7899998068
0.7899999222
0.7899978119
0.7899981664
0.7899985512
0.78999894
0.789999318
0.7899996621
0.7899999295
0.7900001161
0.7900002227
0.7900002648
0.7900002414
0.7900002561
0.7900003295
0.7900004051
0.7900004973
0.7900005633
0.7900006453
0.790000687
0.7900005628
0.7900004647
0.7900003124
0.790000211
0.790000126
0.7900000557
0.789999994
0.7899999516
0.7899999375
0.7900000364
0.7899989914
0.789999335
0.7899996431
0.7899999082
0.7900001207
0.79000025
0.7900003315
0.7900002913
0.7900003334
0.7900002757
0.7900002609
0.7900002979
0.7900003489
0.7900004674
0.7900005617
0.7900006438
0.7900007117
0.7900007208
0.7900006813
0.7900005306
0.7900003906
0.7900002787
0.7900001964
0.7900001289
0.7900000847
0.7900000601
0.7900001486
0.7899996542
0.7899999184
0.7900001441
0.7900003258
0.7900004545
0.7900004853
0.7900005117
0.7899999989
0.7900003661
0.7900002937
0.7900002985
0.7900003095
0.7900003547
0.7900004281
0.7900005293
0.790000619
0.7900007057
0.7900007825
0.7900008164
0.7900007075
0.7900005524
0.7900004237
0.7900003296
0.7900002586
0.7900002081
0.7900001681
0.7900002418
0.7900000805
0.7900002686
0.7900004339
0.7900005743
0.7900006793
0.7900007179
0.7900006879
0.7900005123
0.790000483
0.7900003871
0.790000387
0.790000373
0.790000395
0.7900004526
0.7900005244
0.7900006001
0.7900006873
0.7900007802
0.7900008591
0.7900008314
0.7900006867
0.790000537
0.7900004189
0.7900003504
0.7900003068
0.7900002615
0.7900003025
0.7900003256
0.7900004549
0.7900005706
0.7900006841
0.7900007872
0.7900008546
0.7900008274
0.7900006638
0.7900005821
0.7900004745
0.7900004733
0.7900004507
0.7900004625
0.7900004956
0.7900005404
0.7900005959
0.7900006696
0.7900007606
0.7900008564
0.7900008857
0.7900007621
0.7900005931
0.7900004571
0.7900003903
0.7900003592
0.7900003241
0.7900003403
0.7900004736
0.7900005421
0.7900006139
0.7900007034
0.7900007983
0.7900008931
0.790000892
0.7900008138
0.7900007214
0.7900006581
0.7900006279
0.7900005477
0.7900005203
0.790000548
0.7900005834
0.7900006212
0.7900006746
0.7900007504
0.7900008406
0.7900009122
0.7900008734
0.7900007232
0.7900005802
0.7900004969
0.7900004427
0.7900003768
0.7900003504
0.7900005523
0.7900005795
0.7900006057
0.7900006656
0.7900007484
0.7900008452
0.7900007544
0.7900008705
0.7900007867
0.7900007342
0.7900005771
0.7900005669
0.7900004661
0.7900005278
0.790000607
0.7900006594
0.7900007067
0.7900007728
0.7900008578
0.7900009406
0.7900009563
0.7900008317
0.7900006891
0.7900005804
0.7900004876
0.790000382
0.7900003535
0.7900006286
0.7900006199
0.7900006023
0.7900006317
0.7900006978
0.7900007957
0.7900008922
0.7900009372
0.7900009452
0.7900009317
0.7900004474
0.7900007168
0.7900006716
0.790000676
0.7900007108
0.7900007447
0.7900007708
0.7900008173
0.7900008882
0.790000966
0.790001001
0.7900009156
0.7900007664
0.7900006279
0.7900004982
0.79000036
0.7900003255
0.7900007094
0.7900006825
0.7900006341
0.790000637
0.7900006723
0.7900007377
0.7900008359
0.7900008502
0.7900006976
0.7900005945
0.7900000331
0.7900000923
0.7900001275
0.7900004884
0.7900007446
0.7900008005
0.7900008018
0.7900008431
0.7900009102
0.7900009818
0.7900010236
0.7900009645
0.7900008257
0.7900006597
0.7900004999
0.7900003345
0.7900002778
0.7900007932
0.7900007741
0.7900007248
0.7900007126
0.7900007149
0.790000735
0.7900008096
0.7900009167
0.7900008658
0.790000874
0.7900004314
0.790000446
0.7900005682
0.790000793
0.7900008681
0.7900008551
0.7900008448
0.7900008717
0.7900009273
0.790000986
0.79000103
0.7900009914
0.7900008728
0.7900006974
0.7900005155
0.790000322
0.7900002225
0.7900008775
0.7900008996
0.7900008806
0.7900008327
0.7900007972
0.7900007702
0.7900007908
0.7900008815
0.7900009459
0.7900008927
0.7900006766
0.7900007196
0.7900008546
0.7900009209
0.7900009114
0.790000879
0.790000868
0.7900008906
0.7900009403
0.7900009854
0.7900010404
0.7900010178
0.7900009151
0.7900007494
0.7900005549
0.7900003342
0.7900001717
0.7900009213
0.7900009554
0.7900009238
0.7900008084
0.7900007431
0.7900007112
0.7900007397
0.790000855
0.7900010021
0.7900010305
0.7900010179
0.79000102
0.7900010111
0.7900009766
0.7900009331
0.7900008979
0.7900008873
0.7900009088
0.7900009603
0.7900010151
0.7900010669
0.7900010696
0.7900009848
0.7900008199
0.7900006162
0.7900003706
0.7900001368
0.7900009586
0.7900009669
0.7900009096
0.7900007455
0.7900006533
0.7900006104
0.7900006227
0.7900007323
0.7900009044
0.7900010229
0.7900010515
0.7900010557
0.7900010415
0.7900010116
0.7900009684
0.7900009298
0.7900009159
0.7900009349
0.7900009923
0.790001045
0.7900010457
0.790001046
0.7900010249
0.790000907
0.7900006996
0.7900004255
0.7900001242
0.7900009894
0.7900009783
0.790000905
0.79000073
0.790000632
0.7900005911
0.7900006144
0.7900007346
0.7900009078
0.7900010444
0.7900010964
0.790001107
0.7900011009
0.790001079
0.790001029
0.7900009805
0.7900009569
0.7900009663
0.7900010243
0.7900010675
0.7900010098
0.790000983
0.7900009858
0.790000896
0.7900007516
0.7900004995
0.7900001481
0.7900010323
0.7900010047
0.7900009174
0.7900007449
0.7900006354
0.7900005929
0.7900006328
0.7900007618
0.790000922
0.7900010489
0.7900011195
0.7900011527
0.7900011738
0.7900011982
0.790001168
0.7900010815
0.7900010146
0.7900009967
0.7900010376
0.790001083
0.790001036
0.7900010183
0.7900010294
0.7900009521
0.7900008218
0.7900005853
0.7900002014
0.7900010936
0.7900010498
0.7900009557
0.7900008036
0.7900006921
0.7900006571
0.7900007095
0.7900008267
0.790000956
0.7900010621
0.7900011364
0.7900011834
0.7900012067
0.7900012969
0.790001204
0.7900010487
0.7900010033
0.7900010013
0.7900010322
0.7900010732
0.7900010648
0.7900010586
0.7900010617
0.7900010007
0.7900008944
0.7900006683
0.79000028
0.790001158
0.7900011039
0.7900010067
0.7900008876
0.7900007861
0.7900007588
0.7900008056
0.7900008969
0.790000998
0.7900010923
0.7900011777
0.7900012637
0.790001316
0.7900015629
0.7900015485
0.7900012993
0.7900011733
0.7900010781
0.7900010487
0.7900010637
0.7900010797
0.7900010834
0.7900010815
0.7900010431
0.7900009513
0.7900007368
0.790000372
0.7900012119
0.7900011519
0.7900010551
0.7900009646
0.7900008808
0.7900008592
0.7900008948
0.7900009647
0.7900010466
0.7900011279
0.7900012026
0.7900013457
0.7900013947
0.7900030397
0.7900027386
0.7900009723
0.7900009422
0.7900009527
0.7900009927
0.7900010389
0.7900010792
0.7900010977
0.7900011008
0.7900010729
0.7900009824
0.7900007824
0.7900004498
0.7900012561
0.7900012057
0.7900011091
0.7900010292
0.7900009631
0.7900009491
0.7900009803
0.7900010385
0.7900011045
0.7900011627
0.7900012078
0.7900012209
0.7900011408
0.7900013437
0.7900005624
0.790000598
0.7900008955
0.7900009749
0.7900010112
0.7900010431
0.790001077
0.7900010978
0.7900011007
0.7900010723
0.7900009825
0.7900007933
0.7900004815
0.7900012789
0.790001197
0.7900011627
0.7900010886
0.7900010382
0.7900010346
0.7900010674
0.7900011175
0.7900011671
0.7900012023
0.7900012191
0.7900011973
0.790001139
0.7900010697
0.7900007938
0.7900008807
0.7900009626
0.7900009991
0.7900010213
0.7900010405
0.7900010614
0.7900010745
0.7900010709
0.7900010369
0.7900009431
0.7900007522
0.7900004427
0.7900012359
0.7900010424
0.7900011454
0.7900011112
0.790001098
0.790001112
0.7900011492
0.7900011908
0.790001221
0.7900012307
0.7900012189
0.7900011796
0.7900011295
0.7900010476
0.7900009497
0.7900009711
0.7900009975
0.7900010115
0.7900010171
0.7900010203
0.7900010238
0.7900010216
0.7900010041
0.7900009554
0.7900008452
0.7900006387
0.7900003207
0.7900012143
0.7900009513
0.7900011291
0.7900011124
0.7900011381
0.7900011731
0.7900012152
0.7900012457
0.7900012542
0.7900012389
0.7900012043
0.7900011554
0.7900011081
0.7900010479
0.7900010019
0.7900009987
0.7900010015
0.7900009976
0.7900009855
0.790000968
0.7900009474
0.7900009207
0.7900008782
0.7900008013
0.7900006618
0.7900004361
0.7900001162
0.7900012395
0.7900009269
0.7900011299
0.7900011033
0.7900011646
0.7900012184
0.7900012598
0.7900012743
0.7900012601
0.790001225
0.7900011762
0.7900011237
0.7900010775
0.7900010321
0.7900009971
0.790000977
0.7900009589
0.7900009363
0.7900009026
0.7900008562
0.790000801
0.7900007369
0.7900006545
0.7900005359
0.7900003643
0.7900001366
0.7899998424
0.7900012559
0.7900006117
0.7900010914
0.7900010811
0.7900011837
0.790001244
0.7900012765
0.790001272
0.7900012382
0.7900011876
0.790001132
0.7900010779
0.7900010276
0.7900009797
0.7900009353
0.7900008922
0.7900008483
0.7900007989
0.790000732
0.7900006428
0.7900005368
0.7900004182
0.7900002808
0.7900001157
0.7899999308
0.7899997436
0.7899995166
0.7900012981
0.7900009647
0.7900011695
0.7900011563
0.7900012094
0.7900012445
0.7900012558
0.7900012309
0.7900011829
0.790001123
0.7900010574
0.7900009922
0.7900009305
0.7900008655
0.7900007954
0.7900007214
0.7900006435
0.7900005516
0.7900004306
0.7900002759
0.7900000977
0.7899999073
0.7899997079
0.7899995093
0.7899993526
0.7899992615
0.7899991439
0.7900012251
0.7900011028
0.7900011641
0.7900011556
0.7900011651
0.790001173
0.7900011608
0.7900011206
0.7900010667
0.7900010031
0.7900009295
0.7900008492
0.7900007632
0.7900006692
0.7900005658
0.7900004522
0.7900003227
0.7900001627
0.789999958
0.7899997112
0.7899994421
0.7899991729
0.7899989182
0.7899987107
0.7899986268
0.7899986822
0.7899987088
0.7900009609
0.7900009511
0.7900009776
0.7900009719
0.7900009615
0.7900009446
0.790000908
0.7900008553
0.7900008014
0.7900007411
0.7900006664
0.7900005766
0.7900004724
0.7900003527
0.7900002147
0.7900000525
0.7899998535
0.7899996026
0.7899992948
0.7899989461
0.7899985892
0.7899982551
0.7899979671
0.7899977728
0.7899977887
0.7899980294
0.7899982126
0.7900003059
0.7900003287
0.7900003714
0.7900003729
0.7900003475
0.7900003008
0.7900002289
0.790000155
0.7900001042
0.7900000598
0.7900000022
0.7899999273
0.7899998346
0.7899997196
0.7899995725
0.78999938
0.7899991285
0.7899988105
0.7899984351
0.7899980298
0.7899976347
0.7899972891
0.7899970226
0.7899968832
0.7899970609
0.7899975823
0.7899977973
0.7899984057
0.7899989433
0.7899993377
0.7899995004
0.7899995599
0.7899995108
0.7899996332
0.7899996954
0.7899997121
0.7899997724
0.789999767
0.7900002712
0.7899995566
0.7899994406
0.7899993632
0.7899974278
0.7899978143
0.7899982518
0.7899987348
0.7899992021
0.7899995636
0.7899997629
0.7899998296
0.7899998227
0.7899999004
0.7899999582
0.7899999634
0.7900000038
0.7899998532
0.7899999245
0.7899996054
0.7899997902
0.7899996795
0.7899996438
0.7899996324
0.7899996119
0.7899995765
0.78999952
0.7899994638
0.7899994422
0.7899995234
0.7899972506
0.7899975654
0.7899979232
0.7899983144
0.7899987323
0.7899991525
0.7899995188
0.7899997904
0.7899999461
0.7899999974
0.7899999943
0.790000028
0.7900000901
0.7900000876
0.7900001668
0.7900001631
0.790000201
0.7900000736
0.7900000423
0.7899999669
0.7899998983
0.7899998497
0.7899998014
0.7899997453
0.7899996851
0.7899996352
0.7899996112
0.7899996625
0.7899977883
0.7899981264
0.789998492
0.7899988651
0.7899992326
0.7899995684
0.7899998274
0.7900000065
0.7900000986
0.7900001054
0.7900000775
0.7900000666
0.7900001294
0.789999934
0.7900002641
0.7900002788
0.790000359
0.7900003174
0.7900002785
0.7900002143
0.7900001299
0.7900000534
0.7899999821
0.7899999156
0.7899998508
0.7899997992
0.7899997697
0.7899997989
0.7899987239
0.7899990672
0.7899993909
0.7899996833
0.789999929
0.7900000922
0.7900002028
0.7900002451
0.7900001874
0.7900001347
0.7900000866
0.7900001862
0.7899998254
0.790000271
0.7900003483
0.7900004371
0.7900004664
0.7900004624
0.7900004239
0.7900003384
0.790000242
0.7900001537
0.7900000776
0.790000011
0.7899999542
0.7899999175
0.7899999321
0.7899992455
0.7899995393
0.7899998049
0.7900000324
0.7900002115
0.7900003086
0.7900003719
0.7900004541
0.7900002094
0.7900001837
0.7900001592
0.7900001647
0.7900001992
0.790000263
0.7900003939
0.7900004805
0.7900005472
0.7900005872
0.7900005851
0.7900005113
0.7900004023
0.7900003011
0.7900002153
0.7900001475
0.7900000955
0.7900000515
0.7900000534
0.7899996448
0.7899998762
0.790000088
0.7900002733
0.790000417
0.7900004904
0.7900005089
0.7900003834
0.7900003353
0.790000264
0.7900002386
0.7900002396
0.7900002678
0.7900003504
0.7900004318
0.7900005044
0.7900005755
0.7900006403
0.7900006717
0.79000063
0.7900005194
0.7900004007
0.7900002991
0.7900002297
0.7900001869
0.7900001536
0.7900001344
0.7899999295
0.7900000988
0.790000263
0.7900004194
0.7900005494
0.7900006279
0.7900006469
0.7900005312
0.7900004418
0.7900003487
0.7900003116
0.790000314
0.7900003418
0.7900003866
0.7900004448
0.7900005076
0.7900005783
0.7900006498
0.7900007028
0.7900006907
0.790000591
0.7900004576
0.7900003414
0.7900002711
0.7900002379
0.7900002163
0.7900002206
0.7900001228
0.7900002391
0.7900003615
0.7900004947
0.7900006216
0.7900007106
0.790000865
0.7900006453
0.790000554
0.7900004674
0.7900004069
0.7900003817
0.7900003756
0.7900004229
0.7900004762
0.7900005278
0.7900005873
0.7900006559
0.7900007176
0.7900007394
0.7900006808
0.7900005596
0.7900004404
0.7900003623
0.7900003168
0.7900002732
0.7900002187
0.7900002682
0.7900003299
0.7900004036
0.7900005048
0.7900006234
0.7900007387
0.7900007894
0.7900007192
0.7900006428
0.7900006224
0.7900004927
0.7900004911
0.7900004055
0.790000433
0.7900004949
0.7900005508
0.7900006065
0.7900006739
0.790000742
0.7900007863
0.7900007684
0.7900006759
0.7900005625
0.7900004686
0.7900003909
0.7900003041
0.7900001902
0.7900004028
0.7900004206
0.7900004447
0.7900005013
0.7900005899
0.7900006995
0.7900007291
0.7900007779
0.7900007425
0.7900006472
0.790000328
0.7900004818
0.7900004522
0.7900004797
0.7900005413
0.7900005978
0.790000637
0.7900007013
0.7900007692
0.7900008242
0.7900008366
0.7900007719
0.790000667
0.7900005555
0.7900004411
0.7900003085
0.7900001442
0.790000538
0.7900005305
0.7900005175
0.7900005307
0.7900005782
0.7900006572
0.7900007416
0.7900007812
0.7900007651
0.7900007759
0.7900004834
0.7900006
0.7900005268
0.7900005427
0.7900005944
0.7900006106
0.7900005716
0.7900007022
0.7900007836
0.7900008398
0.790000869
0.7900008331
0.7900007393
0.7900006158
0.7900004718
0.7900002997
0.7900000874
0.7900006618
0.7900006602
0.7900006385
0.7900006183
0.790000619
0.7900006458
0.7900007114
0.7900007862
0.7900007644
0.7900007631
0.7900006405
0.7900006356
0.7900005602
0.7900005904
0.7900006429
0.7900006685
0.7900006863
0.7900007424
0.790000804
0.7900008382
0.7900008797
0.7900008627
0.7900007832
0.7900006563
0.7900004939
0.7900002903
0.7900000341
0.7900007535
0.7900007715
0.7900007546
0.7900006997
0.7900006641
0.7900006524
0.7900006918
0.790000772
0.790000805
0.7900007776
0.7900006996
0.7900006673
0.7900006481
0.7900006781
0.7900007059
0.7900007177
0.7900007345
0.7900007734
0.7900008292
0.7900008568
0.790000899
0.7900008928
0.7900008235
0.790000697
0.7900005237
0.7900002951
0.7899999977
0.7900007655
0.7900008028
0.7900007819
0.7900006868
0.7900006277
0.7900006065
0.7900006428
0.7900007351
0.790000811
0.7900008379
0.7900008089
0.7900007565
0.7900007423
0.7900007559
0.7900007627
0.7900007618
0.7900007721
0.7900008039
0.7900008549
0.7900008941
0.7900009279
0.7900009325
0.7900008792
0.7900007531
0.7900005696
0.7900003209
0.7899999879
0.7900007882
0.7900007992
0.7900007551
0.7900006278
0.7900005548
0.7900005356
0.7900005773
0.7900006828
0.7900007923
0.7900008554
0.7900008653
0.7900008407
0.7900008345
0.7900008392
0.7900008315
0.7900008165
0.7900008158
0.7900008401
0.7900008869
0.7900009137
0.7900009043
0.7900009093
0.7900009058
0.7900008174
0.790000635
0.7900003703
0.7900000096
0.7900008104
0.7900007894
0.7900007226
0.7900005852
0.7900005106
0.7900004957
0.7900005441
0.7900006528
0.7900007705
0.7900008531
0.7900008961
0.7900009101
0.790000921
0.7900009308
0.7900009187
0.7900008872
0.7900008713
0.790000883
0.7900009221
0.7900009338
0.7900008926
0.7900008872
0.7900009088
0.7900008574
0.7900006946
0.7900004324
0.7900000598
0.7900008513
0.7900007998
0.7900007107
0.790000573
0.7900004941
0.7900004776
0.7900005288
0.7900006351
0.7900007523
0.7900008472
0.790000915
0.790000966
0.7900010011
0.790001059
0.7900010624
0.7900009908
0.7900009451
0.7900009328
0.7900009575
0.7900009713
0.790000938
0.7900009368
0.7900009583
0.7900009085
0.790000753
0.7900005003
0.7900001291
0.7900009135
0.7900008406
0.790000737
0.7900006072
0.7900005248
0.7900005042
0.7900005506
0.7900006453
0.790000754
0.7900008532
0.7900009373
0.79000102
0.7900010673
0.7900012448
0.7900013181
0.7900011141
0.7900010304
0.7900009893
0.7900009896
0.790001004
0.7900009941
0.7900010009
0.7900010076
0.7900009452
0.7900008009
0.7900005652
0.7900002105
0.790000987
0.7900009027
0.7900007937
0.7900006761
0.7900005938
0.7900005682
0.7900006033
0.7900006819
0.7900007792
0.7900008795
0.7900009723
0.7900010983
0.7900011522
0.790001701
0.7900014825
0.790001237
0.7900011714
0.7900010754
0.7900010305
0.790001028
0.7900010305
0.7900010404
0.7900010317
0.7900009668
0.790000837
0.7900006203
0.7900002922
0.7900010623
0.7900009731
0.7900008665
0.79000076
0.7900006814
0.7900006532
0.7900006776
0.7900007404
0.790000824
0.79000092
0.7900010125
0.790001241
0.7900013752
0.7900026662
0.7900047511
0.7900021918
0.7900016069
0.7900011903
0.7900010668
0.7900010403
0.7900010428
0.7900010489
0.7900010331
0.7900009738
0.7900008555
0.7900006545
0.7900003503
0.7900011375
0.7900010438
0.7900009503
0.7900008521
0.7900007791
0.7900007518
0.7900007688
0.7900008164
0.7900008801
0.790000951
0.7900010207
0.7900011312
0.7900011189
0.790001837
0.7900020122
0.7900013625
0.7900012138
0.7900011011
0.7900010492
0.790001035
0.7900010371
0.7900010371
0.7900010163
0.7900009589
0.7900008453
0.7900006518
0.7900003601
0.7900011986
0.7900010662
0.7900010193
0.7900009433
0.7900008827
0.7900008595
0.7900008716
0.7900009044
0.7900009453
0.7900009875
0.7900010313
0.7900010784
0.7900010889
0.7900012625
0.7900014194
0.7900011946
0.7900011204
0.7900010622
0.7900010305
0.7900010172
0.7900010115
0.7900010005
0.7900009709
0.7900009082
0.7900007907
0.7900005947
0.7900003024
0.7900012216
0.790001005
0.7900010404
0.7900010079
0.7900009755
0.7900009635
0.790000974
0.7900009929
0.7900010103
0.7900010239
0.7900010377
0.7900010504
0.7900010676
0.7900010929
0.7900011332
0.7900010874
0.7900010557
0.7900010231
0.7900009963
0.7900009747
0.7900009537