/*--------------------------------*- C++ -*----------------------------------*\
  =========                 |
  \\      /  F ield         | OpenFOAM: The Open Source CFD Toolbox
   \\    /   O peration     | Website:  https://openfoam.org
    \\  /    A nd           | Version:  8
     \\/     M anipulation  |
\*---------------------------------------------------------------------------*/
FoamFile
{
    version     2.0;
    format      ascii;
    class       volScalarField;
    location    "1.3";
    object      alphat;
}
// * * * * * * * * * * * * * * * * * * * * * * * * * * * * * * * * * * * * * //

dimensions      [1 -1 -1 0 0 0 0];

internalField   nonuniform List<scalar> 
67286
(
0.0003547948238
0.0004527823238
0.0005108085086
0.0005167109706
0.0004478409962
0.0003749773365
0.0002994458222
0.0002381945515
0.0001984554826
0.0001808264873
0.0001891929952
0.0002010126696
0.0002091725956
0.0002135876509
0.0002152153591
0.0002147859475
0.0002134289611
0.000213075874
0.0002158655169
0.0002231174898
0.0002342640124
0.0002472640813
0.0002629538253
0.0002892754445
0.0003291153767
0.0003728504869
0.0004035483609
0.0004196856461
0.0004109078428
0.0005320714219
0.0006105987053
0.0006097246828
0.0005307323367
0.0004418510604
0.0003516125288
0.0002732827697
0.0002140071505
0.0001935228853
0.0002085094188
0.000222339226
0.0002313363213
0.0002364548466
0.0002389586083
0.0002395971163
0.0002394545191
0.0002405327856
0.0002449840486
0.0002536303367
0.0002646793847
0.0002735685435
0.0002785324662
0.0002963629112
0.0003419051256
0.0003925086436
0.0004120989709
0.0004261480587
0.0004175963124
0.0003985424136
0.0003757693766
0.0003494082406
0.0004709224496
0.0006192182679
0.0007006428608
0.0006668798241
0.000581837187
0.0004725687597
0.0003704777679
0.0002846838434
0.0002190886718
0.0002092372657
0.00022701494
0.0002410675459
0.0002499503936
0.0002550827869
0.0002579045504
0.0002590471578
0.0002593837423
0.0002607195267
0.0002652294012
0.0002743061334
0.0002874871244
0.000296224751
0.0002907472019
0.0002883396902
0.0003247885644
0.000384830619
0.0004021789151
0.0004262465218
0.0004298615045
0.0004073429613
0.0003764105696
0.000341669767
0.000314347802
0.00045158306
0.0005491190066
0.0005473537128
0.0004452180152
0.0003527113288
0.0002840663727
0.0002379986606
0.0002110386921
0.0002257899938
0.0002441219282
0.0002574865742
0.0002659197144
0.0002708951398
0.0002737470425
0.0002749083941
0.0002749078428
0.0002749430122
0.0002765580802
0.0002811231055
0.000289322407
0.0002985474076
0.0002955128443
0.0002762213833
0.0002882319556
0.0003130918893
0.00034710348
0.0003821682173
0.0003923320683
0.0003627121108
0.0003251337648
0.0002957289684
0.0002705120994
0.0002306234082
0.0003287929796
0.0004213632302
0.0004232641174
0.0003341441821
0.0002847250284
0.0002534246409
0.0002242285212
0.0002219076528
0.0002417502395
0.0002591956417
0.000271759222
0.0002800203325
0.0002850783515
0.0002879785927
0.0002890827623
0.0002887830999
0.0002878755259
0.0002872820836
0.0002879829179
0.0002909022613
0.0002970135877
0.000300996842
0.0002855334477
0.0002889640643
0.0002982550295
0.0003147770963
0.0003425806481
0.000348032433
0.000307830147
0.0002806014826
0.0002605456745
0.0002480858645
0.0002564788914
0.0003129947254
0.0003235768922
0.0003401474571
0.0003168974375
0.0002813340464
0.0002353678294
0.0002194460576
0.0002367809878
0.0002566861309
0.0002724347523
0.00028431083
0.0002929293555
0.0002984648472
0.0003015239271
0.0003026165725
0.0003023453545
0.0003017795636
0.0003019230844
0.0003038342264
0.000306684667
0.0003034828568
0.000303436773
0.0003047461101
0.000305214419
0.0003061454191
0.0003128552365
0.0003342246218
0.0002962342624
0.0002791175719
0.0002727071956
0.0002589285321
0.0002542048689
0.0003362053042
0.0004252410186
0.0003952200186
0.0003240829784
0.0003213933339
0.0002362278451
0.0002170222439
0.0002321961932
0.0002535725028
0.0002708125742
0.0002845403202
0.000295829378
0.0003053599784
0.0003114537376
0.0003147038381
0.0003158875408
0.0003158354905
0.0003156734002
0.0003172687478
0.000322841491
0.0003304700655
0.0003234865982
0.0003242543354
0.00032773066
0.0003293037692
0.0003275351676
0.0003234886252
0.0003126122018
0.0003026975151
0.0002945404697
0.0002845359237
0.000275612962
0.0002719523946
0.0004464658741
0.0005619982244
0.0005286608094
0.0004185867429
0.000314531228
0.0002300765644
0.0002298826268
0.0002533796799
0.0002717754494
0.0002856126378
0.0002970521798
0.0003074158438
0.0003163000757
0.0003220975848
0.000325372867
0.0003268353888
0.0003271945109
0.0003274011894
0.0003293800865
0.0003367827065
0.0003507276146
0.0003386213495
0.000340921704
0.0003442873549
0.0003474755168
0.0003486550409
0.000346348416
0.0003374781502
0.0003285660493
0.0003209038754
0.0003090797672
0.0002964370286
0.0002903725188
0.0003916792008
0.0004946009552
0.0004390407024
0.0003205635261
0.0002450279782
0.0002319225584
0.0002577923428
0.000278064845
0.0002920489739
0.0003022797234
0.0003109931034
0.0003196020415
0.0003264252712
0.0003311366626
0.0003341594976
0.0003359061202
0.0003367681996
0.0003373237191
0.0003388085363
0.0003440804848
0.0003564625643
0.0003493332301
0.0003576210934
0.0003558904544
0.0003589047387
0.0003620620941
0.0003625567229
0.00035807855
0.0003517384461
0.0003443934475
0.0003307252678
0.0003146616371
0.0003157824917
0.0003231652451
0.0003981072433
0.0003323103367
0.0002985190806
0.0002739166534
0.00026701268
0.0002860509472
0.0003028647171
0.0003135449127
0.000320741213
0.0003270122256
0.0003323573073
0.000336389193
0.0003394318821
0.0003417704368
0.0003435386313
0.0003447847899
0.0003456535862
0.00034655326
0.0003481621619
0.000350906895
0.0003539667144
0.0003582578022
0.0003626635367
0.0003671386799
0.0003712343199
0.0003730865327
0.0003701548515
0.0003643719394
0.000355697921
0.0003410124214
0.0003301489538
0.000383352182
0.0002817362241
0.0003452116243
0.0003514687918
0.0003611906557
0.0003368342051
0.0002971245143
0.0003111365284
0.0003269215179
0.0003359066773
0.0003412740203
0.0003440497737
0.0003454084244
0.0003463590858
0.0003473554227
0.0003485928941
0.000350047321
0.0003515173264
0.0003528398738
0.0003540924997
0.0003556547397
0.0003580024073
0.0003616378982
0.0003660428522
0.0003713830128
0.0003763843822
0.0003802874824
0.0003819038987
0.0003780561222
0.0003703928286
0.0003586641114
0.0003447634045
0.0003644952027
0.0005493228672
0.0002753142219
0.0003308783901
0.0003487594513
0.0003457109842
0.0003175047853
0.0003155162577
0.0003367622686
0.0003516407493
0.0003599256783
0.0003619974901
0.0003606780633
0.0003582688663
0.0003561703725
0.0003549669992
0.0003548506526
0.0003557432191
0.0003573066076
0.0003591913616
0.0003612812437
0.0003637864099
0.0003670272021
0.0003710658501
0.0003758000489
0.0003798574391
0.000383273399
0.0003853971008
0.0003850311893
0.0003827543807
0.000373046978
0.0003607584807
0.0003677592598
0.0004924099358
0.0007821375518
0.0002665829889
0.0003153122531
0.0003265192555
0.0003216694342
0.0003187328805
0.0003386432405
0.0003601474619
0.0003743328965
0.0003797790915
0.0003790760928
0.0003747732693
0.0003693844537
0.0003647105487
0.0003614943808
0.0003599346902
0.000360003457
0.00036137346
0.0003636854934
0.0003668880836
0.0003712664736
0.0003764208245
0.0003793133912
0.0003740417033
0.0003639953379
0.0003605079849
0.0003650377821
0.0003614181885
0.0003725170748
0.000367065264
0.0003747285601
0.000506026088
0.0007606837255
0.001015583654
0.0002458236072
0.0002916496222
0.0003046627565
0.0003125136553
0.0003306738589
0.0003562702688
0.0003761545684
0.0003871745782
0.00039077494
0.0003883419167
0.0003818676643
0.00037414417
0.0003676470263
0.0003632704177
0.0003609025283
0.0003603273903
0.0003611084709
0.0003627240373
0.0003649764321
0.0003689000223
0.0003780639455
0.0003931920536
0.0003770560475
0.0003507542247
0.0003405358923
0.0003431003791
0.0003538291764
0.000367692628
0.0003628739072
0.0003518936036
0.0003743901244
0.0005245695821
0.0008120751498
0.0002170043804
0.0002650576138
0.0002879984261
0.0003092007897
0.0003338090802
0.0003572526704
0.0003740588364
0.0003833716707
0.0003861914334
0.0003836159667
0.0003774543121
0.0003703507435
0.0003645858335
0.0003608523588
0.0003588964669
0.0003584428537
0.0003590428941
0.0003601067957
0.0003611827175
0.0003623941579
0.0003648929631
0.0003690928578
0.0003625626409
0.0003480166281
0.0003419709049
0.000346806303
0.0003565799199
0.0003629385586
0.0003574162822
0.0003463835584
0.0003430773953
0.0003877452484
0.000569440086
0.0001897935673
0.0002439898725
0.0002769666181
0.00030442635
0.0003287814456
0.0003494420903
0.000364035869
0.0003721581385
0.0003746632603
0.0003725938092
0.0003676898173
0.0003623018175
0.0003582329747
0.0003558488618
0.0003548062942
0.0003548193169
0.0003554511464
0.0003561017321
0.0003562181461
0.0003555829191
0.0003545508943
0.0003534935078
0.000349513949
0.0003425212204
0.0003408098632
0.0003466788392
0.0003536646566
0.000355930377
0.0003508425434
0.0003429802804
0.0003419986649
0.0003657863907
0.0004307516219
0.0001740023475
0.0002321322825
0.0002680792446
0.0002956547579
0.0003178158631
0.000335581146
0.0003485402774
0.0003558055611
0.0003582929133
0.0003571873686
0.0003541737238
0.0003511654932
0.0003493549933
0.0003487572554
0.00034895593
0.0003496490054
0.0003504005949
0.0003506174369
0.000349734751
0.0003474983264
0.000344251668
0.0003407159453
0.0003367302234
0.0003331524186
0.0003344600979
0.0003409460357
0.0003465700894
0.0003474551559
0.0003436256946
0.0003404029317
0.0003498801362
0.0003822519757
0.0004201696413
0.0001668255956
0.0002237337657
0.0002578611827
0.0002834385954
0.0003031644122
0.000318016732
0.0003285557272
0.0003350979025
0.0003379277694
0.0003383772397
0.0003379285041
0.0003378637727
0.0003387061992
0.0003401736569
0.0003418130317
0.000343289413
0.0003441116441
0.0003436560997
0.0003413721141
0.0003371250599
0.0003316357344
0.0003264851011
0.0003224488789
0.0003213341966
0.0003252748927
0.0003325080893
0.0003377460351
0.0003386001484
0.0003365566621
0.0003383908114
0.0003575443158
0.0003970979751
0.000435338118
0.0001611619242
0.0002142467503
0.0002456571194
0.0002692907517
0.0002872005124
0.0003002357066
0.0003090296713
0.0003143644322
0.0003172163597
0.0003188465611
0.0003207441525
0.0003236780952
0.0003272566854
0.0003309197253
0.0003341327076
0.000336435863
0.0003371237141
0.000335448183
0.0003309221125
0.0003238589192
0.0003158629245
0.0003101372072
0.0003067024675
0.0003084810027
0.0003150680522
0.0003232384203
0.0003286645934
0.0003301350029
0.0003298427279
0.0003352242987
0.0003597161934
0.0004025301485
0.0004420802333
0.0001557726347
0.0002043894752
0.0002334008594
0.000255885136
0.0002733135379
0.0002865212625
0.0002963011641
0.0003034466149
0.0003085088397
0.0003117674815
0.0003136572566
0.0003153512334
0.0003186930653
0.0003236762327
0.0003284252662
0.0003315379517
0.0003314840973
0.000327154577
0.0003184544899
0.0003083621654
0.0003003273737
0.0002955730954
0.0002931368591
0.0002967845391
0.0003050405181
0.0003142151256
0.000320144584
0.0003224736555
0.0003234068499
0.0003297400099
0.0003546029294
0.0003981315061
0.0004390516671
0.0001512012123
0.0001952951173
0.0002227735415
0.0002469791906
0.000269956005
0.0002928503655
0.0003154510603
0.0003355882501
0.0003495759849
0.0003542033552
0.0003482344499
0.0003372597908
0.0003295493308
0.000329026523
0.0003331053201
0.0003361145352
0.0003335837751
0.0003234739031
0.0003083655352
0.0002971576198
0.0003000831914
0.0002994150501
0.0002836120588
0.0002875551853
0.0002964674767
0.0003059664904
0.0003125125415
0.0003157374225
0.0003173696172
0.0003224627326
0.0003430593154
0.0003844148705
0.0004268221576
0.0001483180775
0.0001904946586
0.0002217547828
0.0002566850391
0.0002959914546
0.0003380277918
0.0003805855628
0.0004177041556
0.0004419022265
0.0004486576997
0.0004374159928
0.0004111257319
0.0003783476337
0.0003553427742
0.0003513514334
0.0003519069186
0.0003450194882
0.0003268748606
0.0003149810921
0.0003779161845
0.0005329831157
0.0004364273224
0.0002941289864
0.0002805042941
0.0002895325315
0.000298529368
0.0003056874499
0.0003097592937
0.0003119142645
0.0003150293703
0.0003281841619
0.000362785509
0.0004055320054
0.0001460720915
0.0001879963963
0.0002247775155
0.0002698989503
0.0003190932636
0.0003675271754
0.0004131816534
0.0004517597074
0.0004782264301
0.0004894185685
0.0004844112197
0.0004629995791
0.00042666662
0.0003873594817
0.0003708023287
0.0003682794363
0.0003591704395
0.0003345127701
0.0003030521656
0.0003339635901
0.0004952784527
0.0003606127996
0.00027622397
0.0002748999424
0.0002840700973
0.0002924781504
0.0002993489653
0.0003040511017
0.0003068727523
0.0003086193542
0.0003143368864
0.0003382571264
0.0003763335685
0.0001426262357
0.0001827573214
0.0002207251487
0.0002699130716
0.000323201903
0.0003732138781
0.0004183317581
0.0004566555018
0.0004842784303
0.0004983555733
0.0004979400945
0.0004824721921
0.0004507374766
0.0004070324422
0.0003807080229
0.000375533908
0.000366454972
0.0003401188093
0.0002937325871
0.0002781221093
0.000337649706
0.0002828242313
0.0002635945846
0.0002702942991
0.0002797187519
0.0002880455129
0.0002935140159
0.0002978516483
0.0003015720713
0.0003028391937
0.0003036223235
0.0003160516442
0.0003450679434
0.000137054829
0.000173560669
0.0002076456727
0.0002550027438
0.0003093695697
0.0003606120205
0.0004049103585
0.0004422764319
0.0004702188391
0.0004861588069
0.0004889548486
0.0004779762734
0.0004515134816
0.0004103546908
0.0003803325034
0.0003720539836
0.0003624868592
0.0003363872011
0.0002842288216
0.0002539341256
0.0002625401017
0.0002543928429
0.00025749176
0.0002674377236
0.0002820511181
0.0003055920263
0.0002902606276
0.0002918244163
0.0002951553833
0.0002963263134
0.000295078598
0.0002989564799
0.0003161262958
0.0001287105496
0.0001616773409
0.0001891977101
0.0002293653016
0.0002809779236
0.0003331944138
0.0003780007197
0.0004139737149
0.0004411391781
0.0004577105529
0.0004625341199
0.0004549362105
0.0004335440169
0.0003990800217
0.0003714957285
0.0003597318568
0.0003470018587
0.0003204494529
0.0002679542782
0.0002396187085
0.0002390118137
0.0002440944857
0.0002547124331
0.0002814987263
0.0003711960718
0.0005601235319
0.0003200229405
0.0002866129065
0.0002876330377
0.0002883951135
0.0002863093818
0.0002852929433
0.0002919077787
0.0001164962231
0.000147977003
0.0001696253662
0.0001992230183
0.0002422410369
0.0002923729494
0.0003386137219
0.0003751463749
0.0004011536943
0.000417042354
0.000422588753
0.0004174026212
0.0004009923448
0.0003752557412
0.0003537225524
0.0003394485461
0.0003227060205
0.0002941544367
0.0002455620921
0.0002263198703
0.0002283431569
0.00023852852
0.000267487308
0.000361668953
0.0005517601269
0.0008209093736
0.0004920039687
0.0003276047761
0.0002815199047
0.0002779763067
0.0002754082383
0.0002719781299
0.000271491797
0.0001011100954
0.0001328300148
0.0001511859347
0.0001707998143
0.0002001499125
0.0002410370435
0.0002855162069
0.0003238703199
0.0003514571436
0.0003677155455
0.0003734927284
0.0003698278143
0.0003579476715
0.0003410469901
0.0003264486973
0.0003113331079
0.0002896314154
0.0002589749543
0.0002200983864
0.0002115740481
0.0002164943828
0.0002261444193
0.0002438657748
0.0002982242144
0.0004309452728
0.0006576831865
0.0003825920732
0.0002837849645
0.0002651584441
0.0002634736078
0.0002603248428
0.0002555680023
0.0002511203935
0.000156080296
0.0001184113797
0.0001340557567
0.000146807932
0.0001627792527
0.0001874765438
0.0002211036007
0.0002566274818
0.0002860130287
0.0003052589387
0.0003141159812
0.0003141038026
0.000307374522
0.0002971242996
0.0002865134436
0.0002695341485
0.0002436965125
0.0002158300324
0.0001922724229
0.0001924396023
0.00019917736
0.0002081519686
0.0002188175749
0.0002389910399
0.0002972978556
0.0004436016992
0.0002705045292
0.0002459550191
0.0002427349217
0.0002411308921
0.0002372783775
0.0002315543522
0.0002250391847
0.0001937190852
0.0001054284539
0.000115392756
0.000122873056
0.0001300442913
0.0001395950296
0.0001545089169
0.0001751353764
0.0001975111599
0.0002163784328
0.0002287355907
0.0002342422829
0.0002339071081
0.000229439833
0.0002215326917
0.0002030022676
0.0001772245998
0.0001618734695
0.0001560853399
0.000161935403
0.0001694758949
0.0001773818811
0.0001850250182
0.0001934105193
0.0002091386254
0.0002611819337
0.0002043080959
0.0002033422102
0.0002010488044
0.0001984453816
0.0001940271769
0.0001875103634
0.0001801561505
0.0002605836171
0.0006581404766
0.001026805592
0.001151777723
0.001041608085
0.0008285136826
0.0006237382148
0.0004766584973
0.0003599308138
0.0003141877844
0.0003371817015
0.0003676449954
0.0003804145079
0.0003781667829
0.0003706739022
0.00036600149
0.0003687628072
0.0003832044112
0.0004152954642
0.0004721928848
0.0005584739159
0.0006685628826
0.0007984599248
0.0009892338788
0.001297372936
0.001603146886
0.001825857479
0.001878941204
0.0003124946799
0.001057928369
0.001511979944
0.001580777807
0.0014069652
0.001084352672
0.0007837827931
0.0005491541091
0.0004070547724
0.0003786204635
0.0004334204663
0.0004840712134
0.0004988250337
0.0004888391618
0.0004744868797
0.0004681309988
0.0004753924947
0.0005046601275
0.0005708797918
0.0006881371523
0.0008433720872
0.0009803318439
0.001078934212
0.001217817319
0.001493823502
0.001817332155
0.002063462599
0.002078019924
0.001926685029
0.001779865132
0.001576823176
0.001333326564
0.0003458267041
0.001262537402
0.001692315124
0.001702343663
0.001528022411
0.001174633433
0.0008669332352
0.0005952539151
0.0004534595721
0.0004644072215
0.0005605947861
0.0006345236072
0.0006510987922
0.0006331256833
0.000611988816
0.0006044202866
0.000616351436
0.0006578038559
0.0007468853406
0.0008934722572
0.001051584448
0.001173718889
0.001234761592
0.001273075751
0.001485111807
0.001800366778
0.001947482053
0.001957442571
0.001866322221
0.001726825842
0.00149525763
0.001239125681
0.0002191299116
0.0007722225487
0.001343105279
0.001477217137
0.001341526401
0.001104325097
0.0008590978434
0.0006102345339
0.0004987718584
0.0005642225862
0.0007015918204
0.0007965379748
0.0008198975685
0.0008012968397
0.0007770562341
0.0007660572427
0.0007722235628
0.0008006309024
0.0008635644015
0.0009733992785
0.001118705391
0.001227163766
0.001248940409
0.001177621591
0.001283079726
0.001600542993
0.001811477064
0.001861815113
0.001795500053
0.001602043641
0.001296605334
0.001041162964
0.0008372594117
0.0001928789556
0.0005065521117
0.0009100321372
0.001151597252
0.00114121414
0.0009485706319
0.0007554253339
0.0005629297145
0.000530845392
0.0006589686172
0.0008273569213
0.0009396308517
0.0009781153676
0.0009710303171
0.0009509524205
0.0009369838599
0.000932710219
0.0009386297767
0.0009622871527
0.001019354518
0.001120204192
0.001212693553
0.00122869784
0.00115717729
0.001231557174
0.001432515773
0.001674649995
0.001747819713
0.001670280385
0.001387311156
0.001086939747
0.0008486902724
0.0007428825932
0.0002069148007
0.0007343868885
0.001093795848
0.001303328501
0.001344133206
0.0009812720415
0.0006528989712
0.0005291858024
0.0005737311765
0.0007442956578
0.0009236648172
0.001046914091
0.001102096045
0.001111617721
0.001100933805
0.001089079482
0.00108393668
0.001085050611
0.00110186235
0.001144944244
0.001195533634
0.001231244806
0.001246756497
0.001272863723
0.001336547945
0.001448198269
0.001583377321
0.001610604025
0.001455981553
0.001216344472
0.00109683833
0.0008896437472
0.0008421765588
0.0002832897411
0.001246625224
0.0014440054
0.001431594839
0.001726416429
0.0007557885223
0.0005108946211
0.0004918099593
0.0006245431534
0.000810444462
0.000990046946
0.001119709049
0.001178534701
0.001197931693
0.001195323803
0.001186841445
0.001183367504
0.00119121147
0.001217961625
0.00127151306
0.001330031799
0.001344553868
0.001343312816
0.00136754041
0.001415366852
0.001478471394
0.001533931168
0.001520917026
0.001331021625
0.001173134725
0.001054758433
0.000991625764
0.001029725315
0.0003990006416
0.001354154028
0.001444785901
0.001221056616
0.0007736618422
0.0004521616365
0.0004206650666
0.0005259098301
0.0006919508244
0.0008769599695
0.001049575529
0.00117301384
0.001232955808
0.001258665321
0.001263893907
0.001261226222
0.001261008519
0.001271981208
0.001308378032
0.001388994151
0.001469746245
0.00145059498
0.001434095385
0.001436974243
0.001460124213
0.001497513822
0.001529683753
0.001524730613
0.001451888275
0.00136361888
0.001269083384
0.001217949013
0.001223085396
0.0003448645255
0.001135475083
0.001154386283
0.000781933311
0.0004623479716
0.0003804082413
0.0004651672028
0.0006175179261
0.0007989268525
0.0009805049991
0.001136861486
0.001233758056
0.001286139087
0.001311170938
0.001319149851
0.001320096762
0.001322751741
0.0013349868
0.001371240363
0.00146847744
0.001585314703
0.00151134893
0.001531076565
0.001501945264
0.001492079958
0.001514582004
0.00153942165
0.001544781536
0.001515278242
0.001471044044
0.001428942935
0.001401584613
0.001314244641
0.0002587938935
0.0006942987395
0.0007787184145
0.0006337188532
0.0005128607433
0.0004835387079
0.0005857358384
0.0007723313605
0.0009695137808
0.001137757753
0.001251067996
0.00131654588
0.001353252517
0.001368791555
0.001371741038
0.001371002123
0.001373383498
0.001382787822
0.001402292093
0.001437717429
0.001490483193
0.001481124664
0.001501300408
0.001498537099
0.001504310463
0.00152067897
0.00154009656
0.001555452831
0.001550319331
0.001536496285
0.001527357593
0.001488089037
0.001312786309
0.0002283653683
0.0005176444205
0.0007004623699
0.0007372120197
0.0006905761955
0.0006369867312
0.0007528284664
0.0009811455584
0.001176343524
0.001296607103
0.001368127602
0.00140933448
0.001428293644
0.001430531496
0.001423998229
0.001417521308
0.001417136589
0.001424425062
0.001437547298
0.00145369709
0.001470105887
0.001484816945
0.001495019544
0.001503116958
0.001506540503
0.001512105834
0.001523501388
0.001550101342
0.001567452089
0.001589396778
0.001618705125
0.001610870647
0.001643644261
0.0002263970143
0.0004934366769
0.0006706853204
0.0007479502755
0.0007396190314
0.0007898532035
0.001005188804
0.001216220644
0.001341853218
0.00142404276
0.001473561581
0.001498029682
0.001502358059
0.001492081159
0.001475429788
0.001461759225
0.00145747969
0.001463584095
0.001476007868
0.001488020009
0.001494303917
0.001497869303
0.001495174048
0.001488605552
0.001476347058
0.001461372714
0.001465530439
0.001512122404
0.001566607076
0.001636885084
0.001712750349
0.002115900482
0.002304474695
0.0002137451797
0.0004200086232
0.0005753854782
0.0006627992775
0.0007541382424
0.0009526209716
0.001185862702
0.001344666468
0.001448912602
0.0015167194
0.001556123341
0.001571241938
0.001565956916
0.001546441332
0.001521575009
0.001501102681
0.001491585634
0.001493142127
0.001499017132
0.001499827169
0.001491706216
0.001483637265
0.001482313315
0.00147344551
0.001444100497
0.00141083511
0.001400945599
0.001469000209
0.0015557089
0.001653676122
0.001686900009
0.002445855997
0.002886370799
0.0001930864453
0.0003361594929
0.00046784482
0.0006130786827
0.0008246956868
0.001084236915
0.001278091741
0.001417747819
0.001512466104
0.001574193836
0.001609231824
0.001620075552
0.001609757906
0.001584922828
0.001555263571
0.001530849227
0.001518421417
0.001519159382
0.001527848154
0.001537187719
0.001548770641
0.001542423
0.001550552851
0.001521444078
0.001468959195
0.001430812297
0.001413986283
0.001466814501
0.001540692268
0.00164097956
0.001674052301
0.00201421187
0.002388682512
0.0001719359309
0.0002959394235
0.0004341199575
0.0006398547636
0.0009143719535
0.001157604266
0.001329130843
0.001453214551
0.001539909706
0.001597748766
0.001630649819
0.001639920098
0.00162832291
0.001602751143
0.001573007183
0.001548612575
0.001535593105
0.001534761162
0.001541570063
0.00154891376
0.001551471679
0.001560664629
0.001546332408
0.001512466049
0.001466398051
0.001430915826
0.001427954461
0.001472759803
0.001540313658
0.001625829389
0.001684619503
0.0017652403
0.001815712979
0.0001574436751
0.0002923884145
0.0004502122078
0.0006876795991
0.0009676978498
0.00118466343
0.001336064161
0.001448958659
0.001531347188
0.001588588246
0.001622555099
0.001633891002
0.001625434083
0.001604025544
0.001578850351
0.001558202946
0.00154681881
0.001544720638
0.001547634873
0.001549196775
0.001544129177
0.001538750917
0.001525687542
0.001495719421
0.001459025295
0.001432505067
0.001435053567
0.00147766299
0.001541741161
0.001616208482
0.001679179383
0.001734307245
0.001707450317
0.0001518561051
0.0003070180152
0.0004760631998
0.0007104737775
0.0009669863722
0.001171094322
0.001306273472
0.001412846225
0.001494913097
0.001555273712
0.001594107678
0.001611498615
0.001610351485
0.001597203239
0.001580101238
0.001565555479
0.001556663582
0.001552848549
0.001550856495
0.001546494705
0.001536381002
0.001521535268
0.001503274624
0.001476614579
0.001448006439
0.001429157358
0.001436807243
0.001477484926
0.001538084922
0.00160362181
0.00165325152
0.001696414158
0.001723923434
0.0001497866783
0.0003226528219
0.0004889632963
0.0006984320006
0.0009191765843
0.001110631769
0.001251521833
0.001354751973
0.001442372936
0.001512438004
0.001562181292
0.001590168881
0.001599495337
0.00159657994
0.001588290018
0.001579190229
0.001570647466
0.001561674268
0.001550517836
0.001536134972
0.001518671832
0.001498151622
0.001475433996
0.00145119908
0.00143037774
0.001419355525
0.001431136075
0.001469606133
0.001525501469
0.00158261814
0.001622809142
0.001659626049
0.001702173953
0.0001475099348
0.0003332732666
0.000488284379
0.0006655914252
0.0008452915316
0.001005834745
0.00113988346
0.001254876045
0.001362663485
0.001466068133
0.001545082635
0.001591925309
0.001614557017
0.001620560015
0.00161712537
0.001608093337
0.001593830922
0.001573324824
0.00154685847
0.001518418353
0.001495689099
0.001471393507
0.001437285951
0.001415167863
0.001404221263
0.001402301664
0.001418190182
0.00145449301
0.001505005685
0.001555017403
0.001590093028
0.001626343388
0.001678286499
0.0001453837193
0.0003407759273
0.0004816646085
0.0006289677629
0.0007755785879
0.0009139639337
0.001046030066
0.001177309633
0.001308920502
0.001435626783
0.00154522751
0.001625068236
0.001669711409
0.001681350376
0.001674042685
0.001654676115
0.00162532963
0.001585951205
0.001539051299
0.001488454033
0.001463530184
0.001475341231
0.001372163869
0.001356945592
0.001369815631
0.001379408938
0.001400110878
0.001434638207
0.001479871229
0.00152417328
0.001555356139
0.001588395872
0.001643837308
0.0001435571551
0.0003433434098
0.0004701862065
0.0005992237998
0.0007438768863
0.0009114829751
0.001101424329
0.001300476088
0.001486444817
0.001618109001
0.001703957279
0.001754149436
0.001776649555
0.001774859406
0.001750298266
0.001708169669
0.001654299703
0.001591847677
0.001526885805
0.001593608303
0.001935309489
0.001828640124
0.001415032941
0.001306584298
0.001324152803
0.001352942535
0.001379289043
0.001412684286
0.001453075061
0.00149228085
0.001518835468
0.001541327526
0.001589314047
0.0001417277669
0.0003377435765
0.0004487677038
0.0005648290657
0.0007262702606
0.0009508020813
0.001194214915
0.001430311296
0.001625631192
0.001760165354
0.001840871888
0.001880237584
0.001889917401
0.001873235288
0.001825855951
0.001753722073
0.001668062551
0.001568360903
0.001527902518
0.001975809622
0.002504974356
0.002381366504
0.001549147072
0.001267423456
0.001274420265
0.001324617171
0.001357465765
0.001390092223
0.001426008899
0.001459548027
0.001478379861
0.001482984252
0.001510873926
0.0001391664006
0.0003246481216
0.0004204859726
0.0005206875953
0.000684691312
0.0009357937604
0.001206110253
0.001476240926
0.001696665222
0.001847234437
0.001933015023
0.001968915894
0.001971209632
0.001945305768
0.001879512649
0.001778284542
0.001657980366
0.001517142348
0.001381921915
0.001593636647
0.00255101091
0.002056051508
0.001346837612
0.001190556693
0.00123365327
0.001292614033
0.001338177423
0.001367003812
0.001398080272
0.001424100879
0.001426906459
0.001392143576
0.00140509654
0.0001349816632
0.0003044127616
0.0003871500342
0.0004655621426
0.0006039092673
0.0008482772828
0.001131269168
0.001421429392
0.001666805613
0.001840214991
0.001942129509
0.001985931225
0.001989008802
0.001960057357
0.001884116602
0.001760818533
0.001609759593
0.001436096322
0.001222850413
0.001147008964
0.001349265332
0.001371645609
0.001107038668
0.001124301644
0.001221226908
0.001292498197
0.001333830813
0.001343503177
0.001366455332
0.001382639058
0.001373653383
0.0013060826
0.001263101968
0.0001284413646
0.0002769307836
0.0003498529221
0.000406715698
0.0004989144254
0.0006909665844
0.0009704434487
0.001257821841
0.001517744745
0.001714815955
0.001840658052
0.00190348906
0.001917860974
0.001892470984
0.001813685273
0.001678738336
0.001507518026
0.001314631116
0.00107098245
0.0009132257512
0.000920336906
0.0009951912924
0.0009889170572
0.001089594321
0.001273280116
0.001394910601
0.001386571346
0.001300407534
0.001329926301
0.00133358602
0.001311578539
0.001227767921
0.001133424017
0.0001188184262
0.0002434230076
0.0003089432371
0.0003524653063
0.0004020646912
0.0005126534016
0.0007297404484
0.001004888497
0.001258236808
0.001468097311
0.001618183475
0.001707135245
0.001742332367
0.001728049477
0.001653502098
0.001518197954
0.001344373608
0.001138276632
0.0009015787024
0.0007701031788
0.0007726002254
0.0008454722297
0.0009277336584
0.001111807612
0.001656811359
0.001979241171
0.001737202866
0.001297933914
0.001260966108
0.001249650285
0.00122155305
0.001135184332
0.001018693713
0.0001056260324
0.0002084181767
0.0002658743833
0.000303801867
0.0003299746048
0.0003756306515
0.0004840619496
0.000677085239
0.0009173145145
0.001128167591
0.00128871914
0.001399932443
0.001459656941
0.001463244746
0.001402483568
0.001276592582
0.001087863628
0.0008891250085
0.0007200903008
0.0006505050324
0.0006751337772
0.0007409260149
0.0008320897762
0.001068580009
0.001923750121
0.002558039342
0.001916276306
0.001195473027
0.001126948843
0.001112279244
0.001081409718
0.001001330538
0.0008915235636
9.216492376e-05
0.0001799770607
0.0002258888638
0.0002592948547
0.0002781426113
0.0002932026788
0.0003292593451
0.0004088767837
0.0005386899874
0.0006991844557
0.0008588079658
0.0009921080964
0.001077875873
0.001099480175
0.001051043889
0.0009321565809
0.0007675744646