/*--------------------------------*- C++ -*----------------------------------*\
  =========                 |
  \\      /  F ield         | OpenFOAM: The Open Source CFD Toolbox
   \\    /   O peration     | Website:  https://openfoam.org
    \\  /    A nd           | Version:  8
     \\/     M anipulation  |
\*---------------------------------------------------------------------------*/
FoamFile
{
    version     2.0;
    format      ascii;
    class       volScalarField;
    location    "1.3";
    object      N2;
}
// * * * * * * * * * * * * * * * * * * * * * * * * * * * * * * * * * * * * * //

dimensions      [0 0 0 0 0 0 0];

internalField   nonuniform List<scalar> 
67286
(
0.7899970393
0.789997487
0.7899976701
0.7899978134
0.7899976184
0.7899975653
0.7899973074
0.7899970089
0.7899967554
0.7899968783
0.7899974237
0.7899977779
0.7899979699
0.7899980664
0.7899980381
0.7899978604
0.7899975781
0.7899972603
0.7899969564
0.7899966868
0.7899964445
0.789996206
0.7899959392
0.7899956535
0.7899954562
0.7899953864
0.7899952107
0.7899954257
0.7899971727
0.78999766
0.7899982948
0.7899980564
0.7899978067
0.7899977669
0.7899975123
0.7899971423
0.7899969228
0.7899973528
0.7899979131
0.7899982887
0.7899985735
0.789998785
0.7899988471
0.7899987297
0.7899984791
0.7899981519
0.7899977911
0.7899974359
0.789997119
0.7899968396
0.7899965317
0.7899961484
0.7899958475
0.7899958724
0.7899952068
0.7899953095
0.7899957665
0.7899958967
0.7899960189
0.7899961339
0.7899981589
0.7900000151
0.7900015483
0.7899992143
0.7899983495
0.7899979856
0.789997651
0.7899972504
0.7899971984
0.7899978061
0.7899982936
0.7899986479
0.7899989771
0.7899992393
0.7899993371
0.7899992549
0.789999046
0.7899987584
0.7899984289
0.789998099
0.7899978005
0.7899975429
0.7899972615
0.789996849
0.7899964089
0.7899964083
0.7899962253
0.789996314
0.7899966517
0.7899965822
0.7899964776
0.7899964479
0.789997012
0.7899976856
0.7899985161
0.7899981047
0.7899974933
0.7899974284
0.7899971804
0.7899970859
0.7899976009
0.7899982155
0.7899986143
0.7899989539
0.789999294
0.789999557
0.7899996582
0.7899996076
0.7899994585
0.7899992461
0.7899989941
0.7899987299
0.7899984723
0.789998219
0.7899980064
0.7899977047
0.7899973068
0.789996973
0.7899967368
0.7899966519
0.789996708
0.7899966417
0.7899966758
0.7899969024
0.7899972323
0.7899967996
0.7899971792
0.789997582
0.7899977661
0.7899968037
0.7899971914
0.7899970027
0.7899972804
0.7899980712
0.7899985949
0.7899989433
0.7899992671
0.7899995777
0.7899998
0.7899998858
0.7899998617
0.7899997681
0.7899996233
0.7899994365
0.7899992255
0.7899990217
0.78999887
0.7899988191
0.789998499
0.7899982151
0.7899979466
0.7899977139
0.7899975414
0.7899973517
0.7899973281
0.7899975997
0.7899979221
0.789998313
0.7899965353
0.789996728
0.7899967736
0.789997016
0.7899961893
0.7899968676
0.7899967865
0.7899977562
0.7899985517
0.7899989961
0.789999313
0.7899995927
0.7899998284
0.7899999852
0.7900000508
0.7900000482
0.7899999981
0.7899999033
0.7899997664
0.7899996021
0.7899994542
0.7899993936
0.7899992699
0.7899991172
0.7899989641
0.7899988259
0.7899986739
0.789998577
0.7899985622
0.7899987207
0.789999023
0.7899991141
0.7899993263
0.7899967784
0.789996789
0.7899959812
0.7899960222
0.7899925284
0.7899966805
0.7899968541
0.7899984299
0.7899990526
0.789999429
0.7899996909
0.7899998889
0.790000027
0.7900001227
0.7900001758
0.7900001912
0.7900001687
0.7900001014
0.7899999858
0.7899998426
0.7899997239
0.7899997609
0.7899996294
0.7899995715
0.7899994893
0.7899994504
0.7899994145
0.7899993993
0.7899994628
0.7899995674
0.7899996873
0.7899998175
0.7899999221
0.7899985962
0.7899979631
0.7899970518
0.7899970486
0.7899960208
0.789997064
0.7899980668
0.7899990189
0.7899995101
0.7899998004
0.7899999855
0.7900001027
0.7900001804
0.7900002476
0.7900003
0.7900003303
0.7900003275
0.790000275
0.7900001546
0.7899999778
0.7899998601
0.790000108
0.7899999057
0.78999997
0.7899999102
0.7899999032
0.7899998986
0.7899999297
0.7899999665
0.7900000338
0.7900001063
0.7900002036
0.7900002592
0.7899975404
0.7899977434
0.7899969225
0.7899967043
0.7899961813
0.7899978837
0.7899988436
0.7899994699
0.7899998231
0.7900000343
0.7900001649
0.7900002436
0.790000308
0.7900003734
0.7900004327
0.7900004778
0.7900004971
0.7900004728
0.7900003797
0.7900001802
0.7899997306
0.7900002307
0.7899998477
0.7900003142
0.7900002774
0.7900003038
0.7900003024
0.7900003134
0.7900003344
0.7900003887
0.7900004232
0.7900005048
0.7900004756
0.7899966646
0.7899971721
0.7899968435
0.7899970221
0.7899973593
0.7899984713
0.7899992811
0.7899997215
0.7899999912
0.7900001652
0.790000279
0.7900003609
0.7900004338
0.790000508
0.7900005768
0.7900006365
0.7900006805
0.7900007007
0.7900006903
0.7900006463
0.7900005748
0.790000643
0.790000554
0.7900006531
0.7900006666
0.7900006756
0.7900006661
0.7900006647
0.7900006766
0.7900007229
0.790000712
0.7900007555
0.7900006047
0.7899969052
0.7899971432
0.7899972221
0.7899973419
0.7899977629
0.7899988745
0.7899995337
0.7899998519
0.7900000807
0.7900002518
0.7900003876
0.7900004963
0.7900005847
0.7900006639
0.7900007362
0.7900008022
0.7900008583
0.7900008988
0.7900009161
0.7900009043
0.790000871
0.7900009206
0.7900009067
0.7900009329
0.7900009533
0.7900009512
0.7900009425
0.7900009367
0.790000948
0.7900009523
0.7900009163
0.7900009006
0.7900009641
0.7899973385
0.7899974821
0.7899976178
0.7899978877
0.7899984992
0.7899991788
0.7899996086
0.7899998852
0.7900001119
0.7900003196
0.7900004978
0.7900006377
0.7900007431
0.7900008275
0.7900009006
0.7900009671
0.7900010256
0.7900010705
0.7900010931
0.7900010918
0.790001084
0.7900011342
0.7900011936
0.7900011623
0.7900011549
0.7900011379
0.790001179
0.7900012458
0.7900012578
0.7900011502
0.7900010799
0.7900007225
0.7900011252
0.7899972767
0.7899975969
0.7899978635
0.78999825
0.7899988199
0.7899993139
0.7899996237
0.7899998868
0.7900001457
0.7900003887
0.7900006018
0.7900007717
0.7900008974
0.7900009932
0.7900010727
0.7900011392
0.7900011917
0.7900012265
0.790001242
0.7900012385
0.7900012206
0.7900011905
0.7900011288
0.7900009314
0.7900009107
0.7900008079
0.7900010288
0.7900011849
0.7900011999
0.7900009528
0.7900006725
0.7900016098
0.7900117945
0.7899969524
0.7899974535
0.7899979431
0.7899984916
0.7899990322
0.7899994129
0.7899996925
0.7899999677
0.7900002314
0.790000478
0.7900007005
0.7900008832
0.7900010149
0.7900011049
0.7900011715
0.7900012224
0.7900012522
0.7900012476
0.7900011887
0.7900010481
0.7900008585
0.7900010651
0.7900013469
0.7900008669
0.7900009275
0.7900010142
0.7900011822
0.7900013709
0.7900014293
0.7900013014
0.7900010267
0.7900003328
0.7900033504
0.7899966763
0.7899972766
0.7899979931
0.7899986576
0.7899991684
0.789999525
0.7899998258
0.790000104
0.7900003501
0.7900005657
0.7900007548
0.7900009144
0.7900010384
0.790001129
0.7900011961
0.7900012445
0.7900012718
0.7900012725
0.7900012422
0.7900011782
0.7900010749
0.7900010403
0.790001064
0.7900008691
0.7900009087
0.7900010682
0.7900012757
0.7900014496
0.7900014983
0.7900014381
0.7900012961
0.7900009698
0.7900004204
0.7899966171
0.7899972664
0.7899980843
0.7899987499
0.7899992258
0.7899995808
0.7899998885
0.7900001612
0.7900003917
0.7900005852
0.7900007516
0.790000895
0.7900010134
0.7900011053
0.7900011733
0.790001219
0.7900012394
0.7900012302
0.7900011879
0.7900011092
0.7900010008
0.7900009284
0.7900008994
0.7900008245
0.7900009111
0.7900011238
0.790001338
0.7900014964
0.7900015497
0.7900015366
0.7900014266
0.7900013409
0.7900007354
0.789996692
0.7899973726
0.7899981572
0.7899987657
0.7899992169
0.7899995749
0.7899998796
0.7900001429
0.7900003604
0.7900005392
0.7900006917
0.7900008263
0.7900009426
0.7900010365
0.7900011059
0.7900011491
0.7900011624
0.7900011412
0.7900010827
0.7900009885
0.7900008727
0.7900007779
0.7900007315
0.7900007339
0.7900008816
0.7900011298
0.7900013534
0.790001512
0.7900015817
0.7900016017
0.7900015553
0.7900015936
0.7900013118
0.7899967365
0.789997423
0.7899981407
0.7899987018
0.7899991402
0.789999501
0.7899998043
0.7900000574
0.7900002647
0.790000434
0.7900005785
0.7900007081
0.7900008235
0.7900009195
0.7900009908
0.7900010333
0.7900010408
0.7900010073
0.7900009299
0.790000813
0.7900006785
0.7900005851
0.7900005529
0.7900006276
0.7900008363
0.790001112
0.7900013469
0.7900015134
0.7900015988
0.790001635
0.7900016446
0.7900017331
0.7900016739
0.7899967089
0.7899973623
0.789998024
0.7899985562
0.789998982
0.7899993328
0.7899996256
0.78999987
0.7900000733
0.7900002441
0.7900003932
0.7900005273
0.7900006472
0.7900007482
0.790000825
0.7900008709
0.7900008763
0.7900008321
0.7900007395
0.7900006135
0.7900004864
0.7900003871
0.7900003862
0.7900005374
0.7900008003
0.7900010967
0.7900013412
0.7900015138
0.7900016068
0.7900016431
0.7900016719
0.7900017719
0.7900018193
0.7899966594
0.789997242
0.7899978438
0.7899983477
0.7899987556
0.789999091
0.789999376
0.7899996249
0.7899998393
0.790000017
0.790000165
0.7900002951
0.7900004139
0.7900005188
0.7900006058
0.7900006602
0.7900006645
0.7900005966
0.7900004578
0.7900002938
0.790000228
0.7900002016
0.7900002251
0.7900004808
0.7900007827
0.7900010913
0.7900013408
0.790001516
0.7900016095
0.7900016324
0.7900016432
0.7900017291
0.7900018195
0.7899966269
0.7899971094
0.7899976275
0.7899980816
0.7899984543
0.7899987585
0.7899990233
0.789999275
0.7899995163
0.7899997298
0.7899999031
0.7900000432
0.7900001619
0.7900002727
0.7900003866
0.790000461
0.7900004713
0.7900003905
0.7900002285
0.7900000561
0.7899999607
0.7900000918
0.7900001578
0.7900004747
0.7900007823
0.7900010923
0.7900013402
0.7900015147
0.7900016072
0.7900016132
0.7900015824
0.7900016237
0.7900017179
0.7899966194
0.7899970098
0.7899974558
0.7899979033
0.789998339
0.7899987481
0.7899991202
0.7899994644
0.789999764
0.7899999796
0.7900000928
0.7900001135
0.7900000781
0.7900000898
0.7900002084
0.7900002952
0.7900002736
0.790000085
0.7899998296
0.7899999503
0.790003394
0.7900005008
0.7900002046
0.7900004924
0.790000766
0.7900010853
0.7900013268
0.7900014989
0.7900015946
0.7900015929
0.7900015189
0.7900014847
0.7900015492
0.7899966111
0.7899969254
0.7899972959
0.7899977276
0.789998217
0.7899987046
0.7899991431
0.7899995532
0.7899999045
0.790000145
0.7900002444
0.7900001986
0.7900000443
0.7899999502
0.7900000455
0.7900001378
0.7900001077
0.7899997965
0.7899992208
0.7899982539
0.7900011185
0.7899996967
0.7899998203
0.7900004547
0.7900007091
0.7900010426
0.7900012838
0.7900014565
0.790001559
0.7900015643
0.7900014709
0.7900013516
0.7900013488
0.7899965813
0.7899968387
0.7899971192
0.7899974865
0.7899979699
0.7899984883
0.7899989477
0.7899993737
0.7899997494
0.7900000226
0.7900001538
0.790000123
0.7899999406
0.7899997689
0.7899998211
0.7899999157
0.7899999351
0.7899996446
0.789999088
0.7899984668
0.7899977447
0.7899997096
0.7899997412
0.7900004604
0.7900007084
0.7900010446
0.7900012119
0.7900013965
0.7900014837
0.7900015079
0.7900014223
0.7900012528
0.7900011607
0.7899965182
0.7899967545
0.7899969503
0.7899972101
0.7899976224
0.7899981368
0.7899986163
0.789999028
0.7899993941
0.7899996784
0.7899998401
0.7899998502
0.7899997002
0.7899995116
0.7899995262
0.7899996029
0.7899996713
0.7899994383
0.7899989391
0.7899987973
0.7899982703
0.7899996743
0.7899997982
0.7900003234
0.7900005352
0.7900010703
0.7900010512
0.7900012313
0.7900013459
0.7900013948
0.790001337
0.7900011705
0.7900010131
0.7899963999
0.789996668
0.7899968195
0.7899969654
0.7899972429
0.7899976883
0.7899981832
0.7899986047
0.7899989422
0.7899992081
0.7899993802
0.7899994306
0.7899993427
0.7899991974
0.789999201
0.7899992386
0.7899993112
0.7899991297
0.7899987119
0.7899987564
0.7899987735
0.7899995624
0.7899998759
0.7900003021
0.7900004705
0.790001265
0.7900008679
0.7900010869
0.7900011642
0.7900012284
0.790001189
0.7900010547
0.7900008814
0.7899961949
0.7899965554
0.7899967262
0.7899968051
0.7899969306
0.7899972203
0.7899976511
0.7899980912
0.789998449
0.7899987029
0.7899988717
0.7899989524
0.7899989319
0.7899988585
0.7899988707
0.7899988613
0.7899988769
0.7899987283
0.789998439
0.7899986137
0.7899988699
0.7899993355
0.7899995643
0.7899997088
0.790000885
0.7900076358
0.7900008996
0.7900006436
0.7900007965
0.7900009465
0.7900009499
0.7900008584
0.7900007063
0.7899959201
0.7899964122
0.7899966473
0.7899967268
0.7899967621
0.7899968719
0.7899971326
0.7899974964
0.7899978533
0.7899981345
0.7899983322
0.7899984562
0.7899985031
0.7899984975
0.7899985185
0.7899984585
0.7899983857
0.7899982869
0.7899981914
0.7899984575
0.789998773
0.7899991071
0.7899992768
0.7899992025
0.789998823
0.7900027033
0.7899995158
0.7900001353
0.7900004174
0.7900005887
0.7900006156
0.7900005453
0.7900004151
0.7899959719
0.7899963571
0.7899966057
0.789996709
0.7899967385
0.7899967553
0.7899968349
0.78999702
0.789997274
0.789997527
0.7899977385
0.7899979008
0.7899980065
0.789998059
0.7899980903
0.7899980078
0.7899978889
0.7899978836
0.7899979634
0.7899982377
0.7899985297
0.7899988078
0.789999009
0.7899990942
0.7899987386
0.7899989302
0.7899995053
0.7899998253
0.7900000281
0.7900000976
0.7900001127
0.7900000162
0.7899998702
0.7899963924
0.7899965358
0.7899966831
0.7899967729
0.7899968183
0.7899968352
0.7899968447
0.7899968798
0.7899969636
0.789997089
0.7899972314
0.7899973703
0.7899974865
0.7899975662
0.7899976134
0.7899975613
0.7899974709
0.78999752
0.7899976287
0.7899978236
0.7899980363
0.7899982462
0.7899984134
0.7899985084
0.789998488
0.7899982444
0.7899990059
0.7899990664
0.7899992344
0.7899991942
0.7899991614
0.7899989898
0.7899987943
0.7899970793
0.7899974501
0.7899973811
0.789997419
0.7899973919
0.7899973176
0.7899970773
0.7899967805
0.7899965894
0.7899967093
0.7899971014
0.7899973859
0.7899975382
0.7899976165
0.789997606
0.7899974797
0.789997264
0.7899970114
0.7899967595
0.7899965225
0.7899963011
0.7899961057
0.7899959543
0.7899958231
0.7899956693
0.7899954797
0.7899955044
0.7899952217
0.7899971983
0.7899974768
0.7899974368
0.7899975994
0.7899974709
0.7899974052
0.7899971426
0.7899968642
0.7899967571
0.7899970443
0.7899974714
0.7899978025
0.7899980583
0.7899982554
0.7899983408
0.7899982771
0.7899980934
0.7899978376
0.789997535
0.7899971965
0.78999685
0.789996561
0.7899963782
0.7899962402
0.7899960502
0.7899957784
0.7899958081
0.7899956661
0.7899957642
0.7899959516
0.7899961421
0.7899963767
0.7899974811
0.7899977379
0.7899975202
0.7899978782
0.7899975665
0.7899974462
0.7899971423
0.7899969367
0.7899969802
0.7899973593
0.7899977436
0.7899980691
0.7899983786
0.7899986465
0.7899987923
0.7899987732
0.7899986204
0.7899983789
0.7899980711
0.789997711
0.7899973347
0.789997009
0.7899968054
0.7899966834
0.7899965707
0.7899963667
0.7899961644
0.7899960949
0.7899961922
0.789996411
0.7899966209
0.7899968528
0.7899970634
0.7899974183
0.7899974607
0.7899975946
0.7899972508
0.78999733
0.7899970095
0.7899969717
0.789997244
0.7899976415
0.7899979642
0.7899982714
0.7899985992
0.7899988962
0.7899990725
0.7899990892
0.7899989792
0.7899987867
0.789998538
0.7899982468
0.7899979246
0.7899976211
0.789997407
0.789997344
0.7899971501
0.7899969478
0.7899967965
0.789996768
0.7899968472
0.7899970056
0.7899971646
0.789997378
0.7899976795
0.7899967542
0.7899970288
0.7899970573
0.7899969365
0.7899963967
0.7899970502
0.7899968461
0.7899971271
0.7899975717
0.7899979389
0.7899982093
0.7899984904
0.7899988047
0.7899990931
0.7899992749
0.7899993214
0.7899992627
0.7899991391
0.789998976
0.7899987799
0.7899985427
0.7899982814
0.7899980589
0.7899980312
0.789997846
0.7899976645
0.7899975132
0.7899974593
0.7899975339
0.7899977009
0.7899978588
0.7899981164
0.7899983944
0.7899965961
0.7899966542
0.7899966923
0.7899964319
0.7899963656
0.7899972792
0.7899967341
0.789997423
0.789997946
0.7899982802
0.7899985158
0.789998762
0.7899990332
0.7899992817
0.7899994483
0.7899995124
0.7899994956
0.7899994282
0.7899993248
0.7899991862
0.7899990251
0.789998877
0.7899987512
0.789998609
0.7899984776
0.7899983667
0.7899982669
0.789998192
0.7899983413
0.7899985215
0.7899986672
0.7899989609
0.7899991455
0.7899963548
0.7899964436
0.7899959202
0.7899943077
0.7899916734
0.7899968617
0.7899964126
0.7899980174
0.7899983859
0.7899986859
0.7899988842
0.7899990768
0.7899992803
0.7899994693
0.789999607
0.7899996793
0.7899996956
0.789999671
0.7899996129
0.7899995176
0.7899994069
0.7899993058
0.7899992352
0.7899991372
0.7899990549
0.7899990068
0.7899989766
0.7899989888
0.7899990826
0.7899992152
0.7899993984
0.7899995676
0.7899996926
0.7899963639
0.7899964541
0.7899963884
0.789996229
0.7899948713
0.78999706
0.7899975373
0.789998455
0.7899988544
0.7899990879
0.7899992435
0.7899993788
0.7899995155
0.7899996506
0.7899997609
0.7899998365
0.7899998784
0.7899998921
0.78999989
0.7899999167
0.7900000778
0.7899997369
0.7899997311
0.7899996643
0.7899996152
0.7899996015
0.7899995947
0.7899996053
0.789999659
0.7899997432
0.7899998859
0.7900000302
0.7900001514
0.7899963662
0.7899964901
0.7899964541
0.7899962356
0.7899959565
0.7899975947
0.7899982732
0.7899988883
0.7899992064
0.7899993931
0.7899995176
0.7899996184
0.7899997184
0.7899998249
0.7899999219
0.7900000034
0.790000065
0.7900001006
0.7900000952
0.7900000608
0.7900001778
0.7900001187
0.7900003555
0.7900001827
0.7900001599
0.7900001637
0.7900001587
0.7900001492
0.7900001667
0.7900002077
0.7900003192
0.7900004287
0.7900005815
0.7899963205
0.789996289
0.789996373
0.7899964386
0.7899969076
0.7899979929
0.7899987135
0.7899991395
0.7899993958
0.7899995649
0.7899996879
0.7899997879
0.789999883
0.7899999952
0.7900000981
0.7900001944
0.7900002824
0.7900003593
0.7900004158
0.790000437
0.7900004441
0.7900005483
0.7900006046
0.7900006391
0.7900006625
0.7900006734
0.7900006613
0.7900006309
0.7900006281
0.7900006411
0.7900007329
0.7900007815
0.7900010141
0.7899964979
0.7899962518
0.7899963604
0.7899966242
0.7899972667
0.7899983033
0.7899989496
0.7899992663
0.7899994952
0.7899996829
0.7899998406
0.7899999761
0.7900000941
0.7900002078
0.7900003128
0.7900004161
0.7900005203
0.790000624
0.790000722
0.7900008111
0.7900008984
0.7900009821
0.7900010256
0.7900010442
0.7900010684
0.7900010696
0.7900010484
0.7900010165
0.7900010183
0.7900010193
0.790001132
0.7900011555
0.7900014914
0.7899965047
0.7899962805
0.7899965659
0.7899970302
0.7899977548
0.7899985338
0.7899989796
0.789999283
0.789999544
0.7899997789
0.7899999886
0.7900001659
0.7900003103
0.7900004335
0.7900005427
0.7900006496
0.7900007603
0.7900008741
0.7900009876
0.7900011036
0.7900012302
0.7900013434
0.7900013606
0.7900013365
0.790001332
0.7900012973
0.7900013072
0.7900013028
0.7900013169
0.7900012625
0.7900012891
0.7900015072
0.7900020331
0.7899964314
0.7899963653
0.7899967266
0.789997366
0.789998064
0.7899986099
0.7899989945
0.7899993148
0.7899996134
0.7899998943
0.7900001474
0.7900003595
0.7900005264
0.7900006588
0.790000771
0.7900008779
0.7900009872
0.7900011004
0.7900012202
0.7900013528
0.7900015036
0.7900015931
0.7900014569
0.7900013342
0.7900013357
0.7900013083
0.7900012614
0.7900014193
0.7900015217
0.7900015492
0.7900016317
0.7900018461
0.7899986667
0.7899963906
0.7899965666
0.7899970439
0.7899976833
0.7899982512
0.7899987001
0.7899990869
0.7899994334
0.7899997569
0.790000057
0.7900003242
0.790000545
0.7900007127
0.7900008372
0.7900009372
0.7900010295
0.7900011206
0.7900012077
0.7900012931
0.7900014125
0.790001707
0.790001936
0.7900014538
0.7900013608
0.7900014293
0.7900014562
0.7900014429
0.790001557
0.7900016155
0.7900015898
0.7900017553
0.7900018317
0.7900030909
0.7899963776
0.7899967207
0.7899973259
0.7899979402
0.7899984404
0.7899988835
0.7899992737
0.7899996256
0.7899999431
0.7900002274
0.7900004748
0.7900006776
0.7900008323
0.7900009474
0.7900010395
0.7900011228
0.7900012019
0.7900012744
0.7900013377
0.790001391
0.7900014543
0.7900015239
0.7900014431
0.7900014065
0.790001441
0.7900014857
0.790001536
0.790001634
0.7900016823
0.7900016823
0.7900018113
0.7900016975
0.7900021265
0.7899964226
0.7899968647
0.7899975302
0.7899981166
0.7899986012
0.7899990475
0.7899994401
0.7899997849
0.7900000861
0.7900003474
0.7900005703
0.7900007523
0.7900008934
0.790001001
0.7900010875
0.7900011628
0.7900012296
0.7900012853
0.7900013278
0.7900013559
0.7900013772
0.7900014026
0.7900013807
0.7900013763
0.7900014204
0.7900014946
0.7900015731
0.7900016616
0.7900016995
0.7900017052
0.7900017402
0.790001672
0.7900018078
0.7899964802
0.7899969799
0.789997636
0.7899982029
0.7899986897
0.7899991327
0.7899995248
0.7899998599
0.7900001458
0.7900003891
0.7900005939
0.7900007617
0.7900008947
0.7900009991
0.7900010834
0.7900011531
0.790001209
0.7900012485
0.7900012704
0.7900012759
0.7900012722
0.7900012728
0.790001268
0.7900012908
0.7900013597
0.7900014623
0.7900015616
0.7900016559
0.7900016965
0.7900017113
0.790001728
0.7900017161
0.7900017226
0.7899964979
0.789997012
0.7899976397
0.7899981988
0.7899986893
0.7899991253
0.7899995071
0.7899998333
0.7900001093
0.7900003431
0.7900005397
0.7900007024
0.7900008343
0.7900009409
0.790001027
0.7900010948
0.7900011426
0.7900011675
0.7900011693
0.7900011522
0.7900011276
0.7900011145
0.7900011189
0.7900011706
0.7900012711
0.7900014033
0.7900015243
0.7900016321
0.7900016825
0.7900017051
0.79000172
0.7900017367
0.7900017126
0.789996478
0.7899969677
0.7899975614
0.7899981116
0.7899985994
0.7899990262
0.7899993944
0.78999971
0.7899999808
0.7900002146
0.7900004133
0.7900005797
0.7900007169
0.7900008301
0.7900009223
0.7900009921
0.7900010347
0.7900010466
0.7900010288
0.7900009886
0.790000946
0.7900009345
0.7900009461
0.7900010362
0.7900011737
0.7900013389
0.790001486
0.790001605
0.7900016641
0.7900016895
0.7900017052
0.7900017328
0.7900017126
0.7899964565
0.789996895
0.7899974407
0.7899979684
0.7899984422
0.7899988566
0.7899992175
0.7899995348
0.7899998142
0.790000057
0.7900002626
0.790000432
0.7900005705
0.7900006863
0.7900007822
0.7900008529
0.7900008897
0.7900008861
0.7900008431
0.7900007679
0.7900007046
0.790000753
0.7900007456
0.7900008986
0.790001077
0.7900012762
0.7900014472
0.7900015763
0.7900016421
0.7900016651
0.790001675
0.7900017
0.790001693
0.7899964553
0.789996823
0.7899972988
0.7899977813
0.7899982292
0.7899986323
0.7899989986
0.7899993382
0.7899996492
0.7899999157
0.7900001313
0.7900002996
0.7900004303
0.7900005374
0.790000627
0.7900006914
0.7900007193
0.7900007004
0.7900006329
0.7900005086
0.7900004527
0.7900007583
0.7900005796
0.7900007805
0.7900009856
0.7900012164
0.7900014042
0.7900015429
0.7900016142
0.7900016319
0.7900016272
0.7900016361
0.7900016351
0.7899964703
0.7899967687
0.7899971673
0.7899975917
0.7899980044
0.7899983955
0.7899987833
0.7899991661
0.7899995119
0.7899997959
0.7900000134
0.7900001732
0.7900002913
0.7900003861
0.7900004624
0.790000511
0.7900005212
0.7900004855
0.7900005031
0.7900008173
0.7900007572
0.7900013835
0.7900005448
0.790000706
0.7900008983
0.7900011528
0.7900013481
0.7900014967
0.7900015742
0.7900015885
0.7900015643
0.7900015449
0.7900015324
0.789996478
0.7899967236
0.789997049
0.7899974068
0.7899977656
0.7899981323
0.7899985474
0.7899989746
0.7899993592
0.7899996637
0.7899998795
0.7900000209
0.7900001178
0.7900002013
0.7900002661
0.7900002964
0.7900002861
0.7900002214
0.790000282
0.7900005474
0.7899998086
0.7900007506
0.7900003123
0.7900005694
0.7900008026
0.7900010603
0.7900012632
0.7900014259
0.7900015102
0.7900015283
0.7900014877
0.7900014333
0.7900013935
0.7899964577
0.7899966748
0.789996937
0.7899972269
0.7899975213
0.7899978296
0.7899982259
0.7899986685
0.789999081
0.7899994112
0.7899996415
0.789999782
0.7899998664
0.7899999378
0.7899999921
0.7900000069
0.7899999775
0.7899998912
0.7899998915
0.7899999366
0.7900007969
0.790000092
0.7900002078
0.7900004776
0.7900007063
0.7900009758
0.7900011409
0.7900013194
0.7900014061
0.7900014366
0.7900013896
0.7900013097
0.7900012356
0.7899963919
0.7899966126
0.7899968295
0.7899970562
0.7899972901
0.7899975264
0.7899978348
0.7899982419
0.7899986552
0.789999003
0.7899992545
0.7899994109
0.7899995003
0.7899995662
0.7899996129
0.7899996195
0.7899995822
0.789999483
0.7899994325
0.7899994646
0.7899999608
0.7899998004
0.7900000372
0.79000032
0.7900005361
0.7900007416
0.7900009516
0.790001128
0.7900012423
0.7900012896
0.7900012512
0.7900011634
0.790001062
0.7899962581
0.7899965249
0.7899967285
0.7899969037
0.7899970807
0.7899972652
0.7899974709
0.7899977668
0.7899981314
0.7899984718
0.7899987359
0.7899989132
0.7899990218
0.7899990948
0.7899991404
0.789999146
0.7899991155
0.7899990334
0.7899989886
0.7899990803
0.7899993861
0.7899995889
0.7899998832
0.7900002257
0.7900006581
0.7900009416
0.7900009044
0.7900009008
0.7900010226
0.7900010795
0.7900010513
0.79000097
0.7900008569
0.7899960329
0.7899964004
0.7899966354
0.7899967837
0.7899969075
0.7899970445
0.7899972014
0.7899973873
0.7899976274
0.7899979067
0.7899981555
0.7899983449
0.7899984766
0.7899985674
0.7899986201
0.7899986326
0.7899986248
0.7899985824
0.7899985829
0.7899987462
0.789999039
0.7899993565
0.7899996946
0.790000008
0.7900002606
0.7899986919
0.7900006034
0.7900005855
0.7900007268
0.7900007938
0.7900007693
0.7900006982
0.7900005868
0.789995781
0.7899962685
0.7899965592
0.7899967068
0.7899967954
0.7899968789
0.7899969904
0.789997133
0.7899972966
0.7899974775
0.7899976589
0.7899978202
0.7899979525
0.789998054
0.7899981154
0.7899981381
0.7899981527
0.7899981615
0.789998231
0.7899984484
0.7899987361
0.7899990529
0.7899993806
0.78999984
0.7900001893
0.7900005434
0.7900004176
0.7900003695
0.7900003399
0.7900003982
0.7900003746
0.790000307
0.7900001982
0.7899959493
0.7899962832
0.7899965531
0.7899966951
0.7899967733
0.7899968276
0.7899968891
0.7899969786
0.7899970959
0.7899972239
0.7899973504
0.7899974667
0.7899975674
0.7899976471
0.7899976966
0.7899977121
0.7899977307
0.7899977898
0.7899979174
0.7899981405
0.7899983961
0.7899986689
0.7899989601
0.7899993114
0.7899995492
0.7900000845
0.78999977
0.7899998484
0.7899998192
0.7899998345
0.7899998086
0.7899997166
0.7899995893
0.7899963745
0.7899965244
0.7899966752
0.7899967794
0.7899968488
0.789996899
0.789996941
0.7899969837
0.7899970353
0.7899970986
0.7899971693
0.7899972409
0.7899973071
0.7899973599
0.7899973918
0.7899973868
0.7899973786
0.7899974333
0.7899975365
0.7899976995
0.7899978898
0.789998096
0.7899983087
0.7899985341
0.7899987534
0.7899989979
0.7899989783
0.7899989633
0.7899989742
0.7899989124
0.789998856
0.7899987025
0.7899985472
0.7899970281
0.7899973217
0.7899974016
0.7899973999
0.7899973441
0.7899972333
0.7899969748
0.7899966768
0.7899964831
0.7899965359
0.7899968217
0.7899970611
0.7899971797
0.7899972221
0.7899971968
0.7899970877
0.7899969093
0.7899967011
0.7899964969
0.7899963119
0.7899961471
0.7899960055
0.7899958875
0.7899957712
0.7899955895
0.7899953501
0.7899953112
0.7899949969
0.7899953509
0.7899970887
0.7899974581
0.7899975857
0.7899975893
0.7899974979
0.789997362
0.7899971059
0.7899967997
0.7899966479
0.7899967943
0.7899971293
0.7899974269
0.7899976457
0.7899978009
0.789997869
0.7899978209
0.7899976693
0.7899974512
0.7899971922
0.7899969062
0.7899966175
0.7899963746
0.7899962047
0.7899960633
0.7899959406
0.7899957809
0.7899961271
0.7899960834
0.7899958805
0.7899960252
0.7899962552
0.789996545
0.7899972301
0.7899976044
0.7899977606
0.7899977363
0.7899976424
0.7899975019
0.7899971984
0.7899969196
0.789996838
0.7899970388
0.7899973572
0.7899976615
0.7899979371
0.78999817
0.7899983114
0.7899983176
0.7899981945
0.7899979754
0.7899976853
0.7899973428
0.7899969824
0.7899966702
0.7899964289
0.7899961518
0.7899962816
0.7899961339
0.7899961339
0.7899960911
0.7899962383
0.7899964767
0.7899967245
0.7899969983
0.7899970759
0.7899973294
0.7899976232
0.7899977859
0.7899976921
0.789997616
0.7899972072
0.7899970279
0.789997027
0.789997259
0.789997539
0.7899978264
0.7899981233
0.7899983994
0.7899985903
0.789998643
0.7899985578
0.7899983682
0.7899981055
0.7899977924
0.7899974556
0.7899971676
0.7899969945
0.7899969212
0.7899968497
0.7899967448
0.7899966906
0.7899967107
0.7899968451
0.7899970471
0.7899972576
0.789997505
0.7899977872
0.789996948
0.7899971382
0.789997241
0.7899972513
0.7899976654
0.789997775
0.789997135
0.7899971381
0.7899972487
0.7899975017
0.7899977414
0.7899979987
0.7899982883
0.789998575
0.7899987908
0.7899988818
0.7899988449
0.7899987118
0.7899985152
0.789998273
0.7899980018
0.7899977628
0.7899975975
0.7899975473
0.7899974442
0.7899973422
0.7899972943
0.7899973211
0.7899974434
0.7899976517
0.7899978371
0.789998095
0.7899983452
0.7899968194
0.7899970261
0.7899971882
0.7899973987
0.7900002209
0.7900000625
0.7899974151
0.7899973711
0.7899975199
0.7899977929
0.7899979985
0.7899982218
0.7899984829
0.789998751
0.7899989655
0.789999079
0.7899990847
0.7899990063
0.7899988689
0.7899986856
0.7899984856
0.7899983494
0.7899982431
0.7899981493
0.7899980629
0.7899980031
0.7899979791
0.7899979997
0.7899981446
0.7899983051
0.789998437
0.7899987254
0.7899989466
0.78999666
0.7899970977
0.789997021
0.7899958889
0.7900000931
0.7899990688
0.7899972427
0.7899978612
0.7899978949
0.7899981495
0.7899983192
0.7899985029
0.7899987177
0.789998946
0.7899991381
0.7899992577
0.7899992955
0.7899992635
0.789999174
0.7899990327
0.7899988621
0.789998822
0.7899987785
0.7899987287
0.7899986898
0.7899986777
0.7899986879
0.7899987252
0.7899988104
0.789998943
0.7899991178
0.7899993044
0.7899994711
0.789996522
0.7899969418
0.7899969994
0.7899966966
0.789996861
0.7899972266
0.7899973006
0.7899979615
0.7899982733
0.7899984981
0.7899986529
0.7899988001
0.7899989655
0.7899991535
0.7899993153
0.7899994314
0.7899994944
0.7899995088
0.7899994782
0.7899994049
0.7899992547
0.7899993314
0.7899993279
0.7899993294
0.7899993404
0.7899993608
0.789999379
0.7899993978
0.7899994411
0.7899995214
0.7899996508
0.7899997949
0.7899999371
0.7899964468
0.7899966901
0.7899966731
0.789996585
0.7899966687
0.7899974514
0.7899977656
0.7899983398
0.7899986304
0.7899988223
0.7899989602
0.7899990848
0.7899992173
0.7899993728
0.7899995102
0.7899996241
0.7899997101
0.7899997703
0.7899998159
0.7899999224
0.7900003208
0.7899999495
0.7900000472
0.789999996
0.7900000181
0.7900000485
0.7900000556
0.7900000371
0.7900000301
0.790000054
0.7900001364
0.7900002281
0.7900003489
0.7899963827
0.7899964118
0.7899964141
0.7899964612
0.7899967547
0.7899974975
0.7899981204
0.7899985733
0.789998844
0.7899990229
0.7899991514
0.7899992567
0.7899993544
0.7899995554
0.7899997065
0.7899998407
0.7899999564
0.7900000587