/*--------------------------------*- C++ -*----------------------------------*\
  =========                 |
  \\      /  F ield         | OpenFOAM: The Open Source CFD Toolbox
   \\    /   O peration     | Website:  https://openfoam.org
    \\  /    A nd           | Version:  8
     \\/     M anipulation  |
\*---------------------------------------------------------------------------*/
FoamFile
{
    version     2.0;
    format      ascii;
    class       volScalarField;
    location    "1.3";
    object      nut;
}
// * * * * * * * * * * * * * * * * * * * * * * * * * * * * * * * * * * * * * //

dimensions      [0 2 -1 0 0 0 0];

internalField   nonuniform List<scalar> 
67286
(
0.0003076404636
0.0003926056687
0.0004429195864
0.0004480380683
0.0003883213875
0.0003251416137
0.0002596484717
0.0002065376616
0.0001720799861
0.0001567939266
0.0001640484992
0.0001742972985
0.0001813727389
0.0001852010098
0.0001866123867
0.000186240049
0.0001850634169
0.0001847572629
0.0001871761595
0.0001934643268
0.0002031294383
0.0002144017355
0.00022800622
0.000250829559
0.0002853745989
0.000323296859
0.0003499141355
0.0003639069532
0.0003562951415
0.0004613558915
0.0005294449731
0.0005286883533
0.0004601955213
0.0003831274738
0.0003048820416
0.0002369625165
0.0001855647768
0.0001678029256
0.0001807977222
0.0001927895091
0.0002005908575
0.0002050291073
0.0002072001132
0.0002077537723
0.0002076301404
0.0002085651161
0.0002124248058
0.0002199219813
0.0002295025605
0.0002372102726
0.0002415143966
0.000256975034
0.0002964644263
0.0003403420005
0.0003573277699
0.0003695097767
0.000362095218
0.0003455741083
0.0003258280805
0.0003029706735
0.0004083320389
0.0005369185266
0.0006075188351
0.0005782461195
0.0005045077323
0.0004097625161
0.0003212399493
0.0002468482849
0.000189970899
0.0001814287962
0.0001968438045
0.0002090287891
0.0002167310786
0.0002211813608
0.0002236281127
0.0002246188783
0.0002249107425
0.0002260690067
0.0002299795092
0.0002378499038
0.000249279057
0.0002568553489
0.0002521056774
0.0002500180318
0.0002816226899
0.0003336844418
0.0003487271455
0.0003695960802
0.0003727306322
0.0003532051568
0.0003263840912
0.0002962606207
0.0002725688201
0.0003915650359
0.0004761373904
0.0004746073603
0.0003860461057
0.000305834508
0.0002463128492
0.0002063676815
0.000182990766
0.0001957816141
0.0002116772161
0.0002232656746
0.0002305780301
0.0002348922161
0.0002373651085
0.0002383721279
0.0002383716577
0.0002384021527
0.0002398025624
0.0002437608516
0.0002508703866
0.0002588692926
0.0002562379409
0.0002395103074
0.0002499245482
0.0002714804035
0.0003009716035
0.0003313760897
0.0003401892338
0.0003145060277
0.000281922111
0.000256425398
0.0002345599749
0.0001999718089
0.0002850941312
0.0003653612017
0.0003670098086
0.0002897339414
0.0002468837692
0.0002197433639
0.0001944275423
0.0001924151554
0.0002096206613
0.0002247475592
0.0002356414216
0.0002428046202
0.0002471904325
0.000249705243
0.0002506626782
0.0002504028444
0.0002496158821
0.0002491012902
0.0002497089403
0.0002522402233
0.0002575392733
0.0002609930298
0.0002475847707
0.0002505593468
0.0002586154059
0.0002729415623
0.000297049953
0.0003017771188
0.0002669180175
0.0002433082241
0.0002259179799
0.00021511417
0.0002223908787
0.0002713954571
0.0002805709315
0.0002949393566
0.0002747790156
0.0002439432881
0.0002040861092
0.0001902805439
0.0002053117068
0.0002225714759
0.0002362271117
0.0002465248518
0.0002539979722
0.0002587978035
0.0002614503399
0.0002623977765
0.0002621626004
0.000261671992
0.000261796418
0.0002634535264
0.0002659250488
0.0002631487525
0.0002631087118
0.0002642440158
0.0002646500029
0.0002654571811
0.0002712751881
0.0002898044728
0.0002568632118
0.0002420214576
0.0002364630429
0.0002245157369
0.0002204199233
0.0002915208519
0.0003687231942
0.0003426912018
0.0002810091955
0.0002786729308
0.000204831945
0.0001881781761
0.0002013360833
0.000219871519
0.0002348204308
0.0002467237784
0.0002565125215
0.0002647764988
0.0002700603934
0.0002728785517
0.0002739049321
0.0002738597825
0.0002737192051
0.0002751024896
0.000279934549
0.000286549092
0.0002804938583
0.0002811594362
0.0002841737719
0.0002855377537
0.0002840041505
0.0002804953845
0.0002710644774
0.0002624675099
0.0002553946378
0.0002467197858
0.000238982781
0.0002358087586
0.0003871265598
0.0004873046334
0.0004583979223
0.0003629535052
0.0002727271061
0.000199498009
0.0001993296693
0.0002197041421
0.0002356552072
0.0002476534954
0.0002575727492
0.0002665590811
0.0002742625793
0.0002792895791
0.0002821295556
0.0002833976829
0.0002837090392
0.0002838881853
0.0002856039855
0.0002920226186
0.0003041131484
0.000293617036
0.0002956114256
0.0002985298772
0.000301294273
0.0003023170322
0.0003003169778
0.0002926256258
0.0002848980279
0.0002782542539
0.0002680016455
0.0002570392439
0.00025178074
0.0003396216146
0.0004288649854
0.0003806889938
0.000277958385
0.0002124614553
0.0002010985482
0.0002235301913
0.0002411086011
0.0002532343299
0.0002621054684
0.0002696608578
0.0002771256513
0.0002830420378
0.0002871272495
0.0002897483136
0.0002912627692
0.0002920102225
0.0002924918249
0.0002937791661
0.0002983502422
0.0003090852994
0.0003029047943
0.0003100902856
0.00030859062
0.0003112042569
0.0003139420643
0.000314371007
0.0003104880596
0.0003049906406
0.0002986218964
0.0002867703091
0.0002728416924
0.0002738135346
0.0002802142328
0.000345196306
0.0002881442018
0.0002588441119
0.0002375113333
0.0002315250611
0.0002480332061
0.0002626125286
0.0002718733988
0.0002781133467
0.0002835509373
0.0002881856213
0.0002916816209
0.0002943198949
0.0002963476122
0.0002978807652
0.0002989612491
0.0002997145031
0.0003004945064
0.0003018894435
0.0003042691512
0.0003069224202
0.0003106430276
0.0003144633691
0.0003183437624
0.0003218951089
0.0003235012102
0.0003209592222
0.000315944936
0.0003084238129
0.0002956900956
0.0002862705806
0.0003324026565
0.000244291624
0.0002993310005
0.0003047567365
0.0003131866273
0.0002920671367
0.0002576349766
0.0002697848899
0.000283472144
0.0002912632132
0.0002959172373
0.0002983240657
0.0002995021082
0.0003003263776
0.000301190255
0.0003022632171
0.0003035242947
0.0003047988696
0.0003059455687
0.0003070316199
0.0003083861092
0.0003104216016
0.0003135739575
0.0003173934412
0.0003220239332
0.0003263606134
0.0003297449814
0.0003311466422
0.0003278102865
0.0003211654645
0.0003109955784
0.0002989422667
0.0003160517708
0.000476314054
0.0002387231986
0.0002869028553
0.0003024075072
0.0002997641921
0.0002753066726
0.0002735825301
0.0002920049986
0.0003049061487
0.0003120899912
0.0003138864203
0.0003127423004
0.000310653242
0.0003088335968
0.0003077901127
0.0003076891848
0.0003084630763
0.0003098186252
0.0003114528155
0.0003132648527
0.0003154369578
0.0003182469002
0.0003217487606
0.0003258538484
0.0003293720014
0.0003323339969
0.000334175458
0.0003338582743
0.0003318840948
0.0003234668301
0.0003128114952
0.000318881957
0.0004269657626
0.000678183253
0.0002311524192
0.0002734055597
0.000283123137
0.0002789179005
0.0002763716792
0.0002936360012
0.0003122823137
0.0003245824597
0.0003293047913
0.0003286951547
0.0003249641205
0.000320291437
0.0003162386605
0.0003134498866
0.000312097436
0.0003121570111
0.0003133448766
0.0003153495646
0.0003181264449
0.0003219228475
0.0003263920575
0.0003289000473
0.0003243291753
0.0003156180181
0.0003125941828
0.0003165216256
0.000313383473
0.0003230071874
0.000318279828
0.0003249244234
0.0004387713617
0.0006595783774
0.0008805770788
0.0002131520999
0.0002528877714
0.0002641714588
0.0002709790307
0.0002867257827
0.0003089204328
0.0003261620602
0.0003357174337
0.0003388392187
0.000336729459
0.0003311155679
0.0003244184836
0.0003187847826
0.0003149897969
0.0003129365616
0.0003124378084
0.0003131150174
0.000314515786
0.0003164687125
0.0003198706558
0.0003278160757
0.0003409330972
0.0003269433104
0.000304136677
0.0002952765545
0.0002975002481
0.0003068031609
0.000318824065
0.0003146456997
0.0003051246578
0.0003246309679
0.0004548496862
0.0007041342742
0.0001881631473
0.0002298299452
0.0002497219034
0.0002681065111
0.0002894443692
0.0003097722717
0.0003243448309
0.0003324199062
0.0003348648341
0.0003326315659
0.0003272887325
0.0003211291864
0.0003161304035
0.0003128930783
0.0003111970884
0.0003108037164
0.0003113239614
0.0003122464169
0.0003131792985
0.0003142297073
0.0003163964005
0.0003200381501
0.0003143758629
0.0003017630169
0.0002965208434
0.0003007136191
0.0003091883137
0.0003147018379
0.0003099134256
0.0003003469541
0.0002974799881
0.0003362112231
0.000493756266
0.0001645688341
0.0002115622137
0.0002401562985
0.000263966645
0.0002850849414
0.0003029997454
0.0003156539446
0.0003226966866
0.0003248687979
0.000323074305
0.0003188219975
0.0003141500221
0.000310621895
0.0003085545959
0.0003076505465
0.0003076617961
0.0003082096126
0.0003087736943
0.0003088746002
0.0003083237595
0.0003074288463
0.0003065119837
0.0003030614037
0.0002969980308
0.0002955141433
0.0003006031338
0.0003066605258
0.0003086251148
0.0003042134382
0.0002973960913
0.00029654475
0.0003171709748
0.0003735011233
0.0001508763673
0.0002012805773
0.0002324501219
0.000256360844
0.0002755767256
0.0002909809703
0.0003022177809
0.0003085174458
0.0003106741629
0.0003097154829
0.0003071022983
0.0003044938168
0.0003029238911
0.0003024055505
0.0003025777782
0.0003031787022
0.0003038303683
0.0003040183619
0.0003032529631
0.0003013137449
0.0002984985593
0.0002954327478
0.0002919767617
0.0002888744564
0.00029000835
0.0002956322991
0.0003005089058
0.0003012763476
0.0002979558216
0.0002951613594
0.000303378853
0.0003314482925
0.0003643259406
0.000144653451
0.0001939982888
0.0002235900997
0.0002457682556
0.0002628724964
0.0002757509207
0.0002848892483
0.0002905619218
0.0002930156472
0.00029340533
0.000293016181
0.0002929600041
0.0002936904242
0.0002949628089
0.0002963842648
0.0002976643945
0.0002983773201
0.0002979822981
0.0002960018464
0.0002923192244
0.0002875594262
0.0002830933475
0.0002795935535
0.0002786270127
0.0002820439801
0.0002883158686
0.0002928576803
0.0002935982884
0.0002918263817
0.000293416733
0.000310024542
0.000344321271
0.0003774787947
0.0001397425226
0.0001857721644
0.0002130080164
0.000233500711
0.0002490302479
0.000260333048
0.0002679582703
0.0002725840074
0.0002750568717
0.0002764703727
0.0002781157254
0.0002806596948
0.0002837626375
0.0002869388077
0.0002897247375
0.000291721766
0.0002923181789
0.0002908653209
0.0002869407814
0.0002808163224
0.000273883038
0.0002689182544
0.000265939986
0.0002674821476
0.0002731937612
0.0002802782668
0.0002849832905
0.0002862582876
0.0002860048514
0.0002906711521
0.0003119078791
0.0003490315899
0.0003833251017
0.0001350695121
0.0001772249846
0.000202380668
0.0002218767434
0.0002369888831
0.0002484412724
0.0002569213857
0.0002631171565
0.0002675065606
0.0002703320857
0.0002719706759
0.0002734394933
0.0002763371604
0.0002806580198
0.0002847758622
0.0002874748381
0.000287428125
0.0002836739959
0.0002761301525
0.0002673791275
0.0002604119796
0.0002562898042
0.0002541772984
0.0002573402578
0.0002644990078
0.0002724542889
0.0002775957134
0.0002796152535
0.0002804244199
0.0002859158418
0.0003074742983
0.0003452176707
0.0003806992507
0.0001311056698
0.0001693393244
0.0001931657699
0.0002141544263
0.0002340775638
0.0002539291963
0.0002735261724
0.0002909870291
0.0003031156978
0.0003071280236
0.0003019523687
0.0002924362631
0.0002857505478
0.0002852972183
0.0002888339161
0.0002914431888
0.0002892487799
0.0002804825654
0.0002673821789
0.0002576638642
0.000260200656
0.0002596212212
0.000245918496
0.0002493375988
0.0002570654251
0.0002653019965
0.0002709780724
0.0002737743662
0.000275189639
0.000279605831
0.0002974649782
0.0003333241515
0.0003700952714
0.0001286057251
0.0001651768745
0.0001922824012
0.0002225703061
0.0002566527741
0.0002931023579
0.0003300040594
0.0003621894245
0.0003831714052
0.0003890289526
0.0003792812276
0.0003564850043
0.0003280632616
0.000308115876
0.0003046550165
0.0003051366831
0.0002991646106
0.000283431448
0.0002731183546
0.000327688555
0.0004621433671
0.0003784233788
0.0002550374352
0.0002432238163
0.0002510521705
0.0002588533293
0.0002650601117
0.0002685908013
0.0002704593828
0.0002731604616
0.0002845668759
0.0003145695123
0.0003516348018
0.0001266582388
0.0001630106377
0.0001949033812
0.0002340279995
0.0002766842212
0.0003186811203
0.0003582679411
0.000391718748
0.0004146678289
0.0004243723933
0.000420030489
0.0004014645321
0.0003699603923
0.0003358773665
0.0003215207696
0.0003193332141
0.0003114348382
0.0002900542287
0.0002627747938
0.0002895774266
0.000429444867
0.0003126853638
0.0002395120325
0.0002383643913
0.0002463157228
0.0002536063297
0.000259564063
0.0002636412663
0.0002660879419
0.0002676024047
0.0002725600201
0.0002933011118
0.0003263170275
0.0001236703459
0.0001584678511
0.0001913895752
0.0002340402113
0.0002802467611
0.0003236119932
0.0003627335294
0.0003959638078
0.0004199154091
0.0004321215374
0.0004317612343
0.0004183490965
0.0003908320995
0.0003529356691
0.0003301099306
0.0003256235396
0.0003177512597
0.0002949152732
0.0002546938613
0.0002411582161
0.0002927731274
0.0002452356139
0.0002285612882
0.0002343709156
0.000242542776
0.000249762894
0.0002545046237
0.0002582657532
0.0002614917513
0.0002625904606
0.0002632694986
0.0002740468619
0.0002992067531
0.0001188393959
0.0001504934663
0.0001800484096
0.0002211115044
0.0002682527517
0.0003126849124
0.0003510958557
0.0003834957786
0.0004077244174
0.0004215457933
0.0004239701767
0.0004144507104
0.0003915049775
0.0003558163783
0.0003297843203
0.0003226061231
0.0003143105547
0.0002916796695
0.000246453262
0.0002201849862
0.0002276469389
0.0002205828485
0.0002232696792
0.0002318938668
0.0002445650785
0.0002649770384
0.0002516835514
0.0002530394327
0.0002559278342
0.0002569431384
0.0002558612636
0.0002592237206
0.0002741115641
0.0001116041012
0.0001401894743
0.000164052258
0.0001988813776
0.000243634434
0.0002889111429
0.0003277625467
0.0003589546015
0.0003825096197
0.0003968785171
0.0004010609578
0.0003944728317
0.0003759237686
0.0003460401884
0.0003221220049
0.0003119216611
0.0003008835687
0.0002778601107
0.0002323417075
0.0002077720864
0.0002072457313
0.000211653111
0.0002208598635
0.0002440862441
0.0003218622685
0.0004856789992
0.0002774903334
0.0002485206752
0.000249405218
0.0002500659954
0.0002482574753
0.0002473760964
0.0002531117594
0.0001010131102
0.000128309959
0.0001470811602
0.0001727451364
0.0002100458313
0.0002535149642
0.0002936101476
0.0003252874883
0.0003478383408
0.0003616153157
0.0003664245463
0.0003619276562
0.0003476983721
0.0003253822684
0.0003067109548
0.0002943340597
0.000279816699
0.0002550597566
0.0002129255218
0.000196240676
0.0001979950121
0.0002068267581
0.0002319367387
0.0003136010534
0.0004784261191
0.0007117973419
0.0004266126997
0.0002840641378
0.0002441043406
0.000241031779
0.0002388050591
0.0002358308123
0.0002354090899
8.767187212e-05
0.0001151760603
0.0001310924012
0.0001480995014
0.0001735488063
0.000209001802
0.0002475694443
0.0002808261163
0.0003047465428
0.0003188441456
0.0003238535187
0.0003206756862
0.0003103744671
0.0002957199619
0.0002830618597
0.0002699552132
0.0002511377665
0.0002245557037
0.0001908460203
0.000183454608
0.0001877209995
0.0001960885201
0.0002114546099
0.0002585884495
0.000373669358
0.0005702674388
0.000331742924
0.0002460681971
0.0002299173784
0.0002284564728
0.0002257262283
0.0002216015721
0.0002177450488
0.0001353361288
0.000102673727
0.0001162388965
0.0001272962492
0.0001411448904
0.0001625597573
0.0001917175657
0.0002225201074
0.0002480001526
0.0002646881898
0.0002723681009
0.0002723575558
0.0002665226422
0.0002576347323
0.0002484341162
0.0002337114524
0.0002113077567
0.00018714489
0.0001667182258
0.0001668631871
0.0001727054624
0.0001804873034
0.000189735391
0.0002072276105
0.0002577851854
0.0003846434093
0.0002345528417
0.000213266022
0.0002104740085
0.0002090831209
0.0002057426578
0.0002007793522
0.0001951300635
0.0001679724478
9.141629702e-05
0.0001000562906
0.0001065424213
0.0001127605543
0.0001210419292
0.0001339736442
0.000151858682
0.0001712605428
0.000187620204
0.0001983350027
0.0002031098241
0.0002028192123
0.0001989456857
0.0001920894715
0.000176021875
0.0001536702308
0.0001403593721
0.0001353405315
0.0001404130808
0.0001469513884
0.0001538066082
0.0001604338959
0.0001677047892
0.0001813425505
0.0002264683227
0.0001771540646
0.000176316464
0.0001743280242
0.0001720705735
0.0001682396208
0.0001625889151
0.0001562121238
0.0002259517598
0.0005706735903
0.0008903423477
0.0009987055014
0.0009031771966
0.000718403164
0.0005408424191
0.000413309617
0.0003120951172
0.0002724313557
0.0002923692895
0.0003187839209
0.0003298563302
0.0003279073269
0.0003214102678
0.0003173588413
0.0003197531905
0.0003322754929
0.0003601015984
0.0004094372605
0.000484251393
0.0005797093182
0.0006923427665
0.0008577625076
0.001124949568
0.001390085835
0.001583198321
0.001629225698
0.0002709638965
0.0009173295555
0.001311036269
0.001370690492
0.001219977382
0.0009402406778
0.0006796168503
0.0004761704415
0.0003529561851
0.0003283007743
0.0003758177211
0.0004197368646
0.0004325298672
0.0004238711339
0.0004114263077
0.0004059151602
0.0004122116217
0.0004375895696
0.0004950085677
0.0005966822699
0.0007312862377
0.0008500437372
0.0009355414813
0.001055966616
0.001295291254
0.001575805339
0.00178922096
0.001801843601
0.001670623538
0.0015433171
0.001367260443
0.00115612521
0.0002998664456
0.001094747312
0.001467407024
0.001476101766
0.001324945943
0.001018522928
0.0007517163663
0.0005161434145
0.0003931936193
0.0004026862561
0.0004860903049
0.000550193844
0.0005645661595
0.0005489817174
0.0005306540025
0.0005240913828
0.0005344369048
0.0005703802721
0.0006476227261
0.0007747280386
0.0009118268317
0.001017729189
0.00107065872
0.001103880235
0.001287736547
0.00156109448
0.001688655687
0.001697293763
0.001618284348
0.001497327442
0.00129653519
0.001074443592
0.0001900071079
0.0006695933046
0.001164604034
0.001280891142
0.001163233043
0.0009575577767
0.0007449216494
0.0005291328084
0.0004324837049
0.0004892359128
0.0006083485299
0.0006906761763
0.0007109312504
0.0006948026158
0.0006737836749
0.000664246524
0.0006695933793
0.0006942253704
0.0007487949159
0.0008440325345
0.0009700271187
0.00106407095
0.001082953098
0.00102111207
0.001112554363
0.001387825626
0.001570725922
0.001614374365
0.001556873409
0.001389128001
0.001124283324
0.0009027898987
0.00072598555
0.0001672445762
0.0004392298435
0.0007890862734
0.0009985459979
0.0009895406301
0.0008225034914
0.0006550270577
0.0004881147712
0.0004602945044
0.0005713899276
0.0007173991369
0.0008147516748
0.0008481215517
0.0008419781628
0.0008245687268
0.0008124566908
0.0008087510866
0.0008138839593
0.0008343972342
0.0008838802249
0.0009713267016
0.001051523769
0.001065400853
0.001003384988
0.001067879372
0.001242129805
0.001452083572
0.001515529148
0.001448295773
0.00120293336
0.0009424822687
0.000735896783
0.0006441512578
0.0001794149169
0.0006367837762
0.0009484249652
0.001130108988
0.001165488282
0.0008508569778
0.0005661260359
0.0004588552399
0.0004974805064
0.0006453766911
0.0008009074094
0.0009077766575
0.0009556248662
0.0009638811611
0.000954617253
0.0009443384909
0.0009398792564
0.0009408452008
0.0009554226672
0.0009927789154
0.00103664486
0.001067609386
0.001081059279
0.001103696572
0.001158916722
0.001255728085
0.001372941259
0.001396549884
0.001262476665
0.001054688134
0.0009510653818
0.0007714073818
0.0007302487812
0.0002456391668
0.001080941874
0.001252084864
0.001241316929
0.001496912696
0.0006553434735
0.0004429929465
0.0004264468773
0.0005415392938
0.0007027340779
0.0008584671091
0.0009708969064
0.001021904555
0.001038723724
0.001036462525
0.001029107585
0.001026095417
0.001032896969
0.001056092041
0.001102526475
0.00115326835
0.00116585936
0.001164783101
0.00118579055
0.001227260439
0.001281977877
0.001330066629
0.001318782013
0.001154124345
0.001017221237
0.000914577653
0.0008598356628
0.000892871862
0.0003459719196
0.001174182405
0.001252767937
0.001058772069
0.0006708347571
0.0003920676483
0.0003647564574
0.0004560144356
0.000599988289
0.0007604094425
0.000910084118
0.001017117258
0.001069092841
0.001091385571
0.001095919342
0.001093606265
0.00109341754
0.00110293197
0.001134491641
0.001204393914
0.001274416796
0.001257807082
0.00124350054
0.00124599631
0.00126606928
0.001298489481
0.001326383795
0.001322088886
0.00125892762
0.001182389702
0.001100418422
0.001056080085
0.001060533978
0.0002990307262
0.0009845664624
0.001000963456
0.0006780103306
0.0004008983103
0.0003298503509
0.000403344349
0.0005354475551
0.0006927469563
0.0008501930901
0.0009857695305
0.001069788335
0.001115207789
0.001136912877
0.001143831406
0.001144652488
0.001146954588
0.001157563488
0.001188998666
0.00127331206
0.001374619279
0.001310485529
0.001327591694
0.001302331892
0.001293777539
0.001313288957
0.001334827353
0.001339474929
0.001313892859
0.001275537762
0.001239032194
0.001215310024
0.00113957803
0.0002243992158
0.0006020241145
0.0006752235995
0.0005494949445
0.0004446989344
0.0004192742582
0.0005078891906
0.0006696858999
0.0008406624839
0.0009865465535
0.001084797601
0.001141573228
0.001173401355
0.001186875248
0.001189432759
0.001188792052
0.001190856884
0.001199011224
0.001215923108
0.001246639899
0.001292392058
0.001284277778
0.001301771907
0.001299376039
0.001304382098
0.001318575217
0.001335412277
0.001348727765
0.001344276685
0.001332291006
0.001324367087
0.001290317511
0.001138313596
0.0001980146821
0.0004488477643
0.0006073684582
0.0006392340475
0.0005987959935
0.0005523286869
0.0006527748864
0.0008507482919
0.001020004151
0.001124284458
0.00118629962
0.001222029846
0.001238469142
0.001240409529
0.001234744521
0.001229128362
0.001228794687
0.001235114345
0.001246492363
0.001260495474
0.00127472312
0.001287479013
0.001296325622
0.00130334691
0.0013063155
0.001311141261
0.00132102249
0.00134408735
0.001359132265
0.001378160596
0.001403574614
0.001396781487
0.001425201966
0.000196307917
0.0004278572918
0.000581548925
0.0006485451222
0.0006413208771
0.0006848788812
0.0008715960933
0.00105458153
0.001163517319
0.001234783576
0.001277721012
0.001298937001
0.001302689936
0.001293778771
0.001279340359
0.0012674866
0.001263775735
0.001269068686
0.001279841063
0.001290256447
0.001295704915
0.001298796445
0.001296459281
0.001290763684
0.001280134318
0.001267149712
0.001270755649
0.001311155594
0.001358399291
0.001419336902
0.001485119523
0.001834688412
0.001998209
0.0001853375583
0.0003641880045
0.0004989146958
0.0005747109285
0.0006539106486
0.0008260146868
0.001028258289
0.001165956811
0.00125634834
0.001315143228
0.001349309967
0.001362418947
0.001357836074
0.001340914018
0.001319352408
0.001301600834
0.001293348524
0.001294697981
0.00129979194
0.00130049401
0.001293452007
0.001286455253
0.001285307319
0.001277617942
0.001252172959
0.001223328614
0.001214754083
0.001273764284
0.001348949599
0.001433896814
0.001462708577
0.002120801125
0.002502792269
0.0001674244205
0.0002914825933
0.0004056664707
0.0005315983659
0.0007150909853
0.0009401387658
0.001108230042
0.00122932556
0.001311455417
0.001364979062
0.00139536
0.001404762174
0.001395815477
0.001374280866
0.001348563292
0.001327393594
0.001316617365
0.001317257075
0.001324790848
0.001332888855
0.001342932008
0.001337431109
0.001344478262
0.001319237225
0.001273727811
0.001240651486
0.001226061522
0.001271868941
0.001335928172
0.001422886798
0.001451565073
0.001746515197
0.002071228557
0.0001490848557
0.0002566078042
0.0003764236894
0.0005548158208
0.0007928490797
0.001003755438
0.001152485875
0.001260078554
0.001335251518
0.001385403274
0.00141393127
0.001421969113
0.001411912935
0.001389739546
0.001363948531
0.001342795957
0.001331506726
0.001330785226
0.001336689056
0.001343056603
0.001345274373
0.001353245738
0.00134081789
0.001311452284
0.001271506965
0.001240740708
0.001238173188
0.001277023979
0.001335599749
0.001409750156
0.001460727928
0.001530633557
0.001574402689
0.0001365186523
0.0002535286656
0.0003903771815
0.0005962845652
0.0008390877923
0.001027218305
0.001158497627
0.001256388139
0.001327826831
0.001377460078
0.001406912262
0.001416741241
0.001409408007
0.00139084455
0.001369015101
0.001351111714
0.001341240482
0.001339421057
0.001341947848
0.001343302017
0.001338907759
0.001334244243
0.001322916877
0.001296931497
0.00126511421
0.001242118816
0.001244328809
0.001281275461
0.001336837408
0.001401407698
0.001456009446
0.001503810544
0.00148052305
0.0001316736774
0.0002662139116
0.0004127924681
0.0006160492904
0.0008384708068
0.001015452454
0.001132666065
0.001225075007
0.001296234814
0.001348573062
0.00138224556
0.001397324891
0.001396329985
0.001384929016
0.001370099807
0.001357487138
0.001349776924
0.001346468831
0.001344741417
0.001340959193
0.001332189495
0.001319316704
0.001303482845
0.001280365933
0.001255559963
0.001239216145
0.00124584947
0.001281121106
0.001333667133
0.001390493867
0.001433527448
0.001470953755
0.001494807029
0.000129879282
0.0002797707954
0.0004239780881
0.0006056078592
0.0007970149938
0.0009630254125
0.001085190916
0.001174701491
0.00125067726
0.001311430255
0.001354562247
0.001378829953
0.001386916695
0.001384388617
0.001377200345
0.001369309868
0.001361902402
0.001354121707
0.00134444792
0.001331976479
0.001316834129
0.001299040984
0.001279342519
0.001258328457
0.001240274397
0.001230717196
0.001240932173
0.001274289592
0.001322756249
0.001372281854
0.001407131204
0.001439055193
0.001475948399
0.0001279051332
0.0002889797561
0.0004233893941
0.0005771318585
0.0007329494037
0.000872156093
0.0009883894425
0.00108809919
0.001181561271
0.001271222947
0.001339735948
0.00138035287
0.001399976584
0.001405181645
0.001402203397
0.001394371704
0.001382004785
0.001364223999
0.001341275079
0.001316614675
0.001296906158
0.001275839275
0.001246264702
0.001227086164
0.001217594483
0.001215930123
0.001229707114
0.001261185323
0.001304984717
0.001348349656
0.001378763524
0.001410196254
0.001455236096
0.0001260615114
0.0002954852996
0.0004176494047
0.0005453755585
0.0006725014406
0.0007924950511
0.0009070092551
0.001020841359
0.001134960647
0.001244827103
0.001339861342
0.001409090793
0.001447800606
0.001457892646
0.001451556156
0.001434763487
0.001409317284
0.00137517242
0.00133450566
0.001290632769
0.001269021327
0.001279262268
0.001189797754
0.001176602084
0.001187761776
0.001196080212
0.001214030923
0.001243969591
0.00128319104
0.001321605159
0.001348643641
0.001377292418
0.001425365718
0.0001244777172
0.0002977115715
0.0004076965246
0.000519584649
0.0006450129592
0.0007903437837
0.0009550414508
0.001127638669
0.001288891504
0.001403056892
0.001477495364
0.001521016544
0.001540526153
0.001538973884
0.001517677079
0.001481147652
0.00143443733
0.001380285523
0.00132395744
0.001381811632
0.001678098791
0.001585605646
0.001226969587
0.001132934224
0.001148167987
0.001173131548
0.001195976656
0.001224933684
0.00125995646
0.001293951644
0.001316976988
0.001336479867
0.00137808906
0.0001228914696
0.0002928559941
0.0003891246383
0.0004897611287
0.0006297463925
0.0008244374366
0.00103550023
0.001240218907
0.001409580249
0.001526234212
0.001596214174
0.001630347527
0.001638740447
0.001624275287
0.001583192949
0.001520646169
0.001446371333
0.001359920553
0.001324840177
0.001713219282
0.002172068053
0.002064872762
0.001343259742
0.001098978143
0.001105045266
0.001148570899
0.001177053962
0.00120534436
0.001236487686
0.001265569344
0.001281898278
0.00128589076
0.001310074008
0.0001206705178
0.000281500978
0.0003646016638
0.0004514862458
0.0005936934763
0.0008114238295
0.001045814716
0.001280044484
0.001471173864
0.001601731891
0.001676111658
0.001707240687
0.001709229019
0.001686767497
0.001629718592
0.001541944404
0.001437629416
0.001315509473
0.001198261929
0.001381839425
0.002211993729
0.001782792851
0.001167838744
0.001032327528
0.001069696502
0.001120821167
0.001160329206
0.001185324546
0.001212270963
0.001234833349
0.001237265963
0.001207123134
0.001218354747
0.0001170419393
0.000263954961
0.0003356961823
0.0004036871512
0.0005236476258
0.000735538534
0.0009809201764
0.001232517506
0.001445282659
0.001595645389
0.001684014942
0.001721994881
0.001724662903
0.001699558707
0.001633710723
0.001526799741
0.00139581739
0.001245234737
0.001060330321
0.0009945683787
0.001169949539
0.001189348823
0.0009599098115
0.0009748782061
0.001058921699
0.001120720681
0.001156560247
0.001164947176
0.001184849055
0.001198881912
0.001191090367
0.001132499852
0.00109523154
0.0001113708578
0.000240125417
0.0003033559612
0.0003526615607
0.000432606891
0.0005991348486
0.0008414685484
0.001090653717
0.001316032267
0.001486912146
0.001596029301
0.001650509578
0.001662970978
0.001640954915
0.001572639993
0.001455628218
0.001307163913
0.00113991239
0.0009286453432
0.0007918550096
0.0007980226584
0.0008629269587
0.0008574866418
0.0009447835867
0.001104056716
0.001209521654
0.001202291181
0.001127578907
0.001153174689
0.001156347997
0.001137265313
0.001064593277
0.0009827879611
0.0001030268303
0.0002110709233
0.0002678832843
0.0003056211747
0.0003486287237
0.0004445199479
0.0006327555611
0.0008713357262
0.001091013425
0.001272982894
0.001403122076
0.001480251672
0.001510770656
0.001498385626
0.001433745708
0.001316424051
0.001165701642
0.0009869956279
0.0007817554576
0.0006677534883
0.0006699190137
0.0007331058862
0.0008044345207
0.0009640446365
0.001436614751
0.00171619509
0.001506321297
0.00112543371
0.001093379262
0.001083567333
0.001059204238
0.0009843140948
0.000883305413
9.158774649e-05
0.000180718344
0.0002305384077
0.0002634252239
0.0002861195692
0.0003257078498
0.0004197283531
0.0005870983038
0.0007954004236
0.0009782305151
0.001117444231
0.001213876804
0.001265663508
0.001268774232
0.001216088287
0.00110692862
0.0009432823669
0.0007709567521
0.0006243872247
0.0005640501026
0.0005854057261
0.0006424540927
0.0007215021455
0.000926564042
0.00166808088
0.00221808285
0.001661599178
0.001036591347
0.0009771732062
0.0009644531158
0.0009376861027
0.0008682496124
0.0007730363142
7.991566675e-05
0.0001560571408
0.0001958670883
0.0002248333121
0.0002411761572
0.000254234727
0.0002854993801
0.0003545354261
0.0004670960406
0.0006062602591
0.0007446692387
0.0008602532547
0.0009346220722
0.0009533549355