/*--------------------------------*- C++ -*----------------------------------*\
  =========                 |
  \\      /  F ield         | OpenFOAM: The Open Source CFD Toolbox
   \\    /   O peration     | Website:  https://openfoam.org
    \\  /    A nd           | Version:  8
     \\/     M anipulation  |
\*---------------------------------------------------------------------------*/
FoamFile
{
    version     2.0;
    format      ascii;
    class       volScalarField;
    location    "1.3";
    object      p;
}
// * * * * * * * * * * * * * * * * * * * * * * * * * * * * * * * * * * * * * //

dimensions      [1 -1 -2 0 0 0 0];

internalField   nonuniform List<scalar> 
67286
(
100004.0378
100003.8084
100003.859
100003.8173
100003.76
100003.7237
100003.7306
100003.7488
100003.7676
100003.7672
100003.7573
100003.7493
100003.742
100003.7372
100003.7338
100003.7313
100003.7301
100003.7302
100003.7324
100003.7373
100003.7471
100003.7654
100003.7934
100003.8263
100003.841
100003.9379
100004.1803
100004.1236
100004.2336
100003.9882
100004.2148
100004.1156
100003.9183
100003.7708
100003.7388
100003.7596
100003.7761
100003.7763
100003.7592
100003.7467
100003.7356
100003.7273
100003.7206
100003.7152
100003.7111
100003.7087
100003.7091
100003.7144
100003.7281
100003.7535
100003.7905
100003.831
100003.8695
100004.0202
100004.3858
100004.3631
100004.1307
100003.9826
100003.8564
100003.7748
100004.4362
100004.0816
100004.483
100004.3007
100004.0132
100003.813
100003.7741
100003.7914
100003.8006
100003.79
100003.7635
100003.7458
100003.7314
100003.7198
100003.7103
100003.7031
100003.6986
100003.6974
100003.7008
100003.7121
100003.7341
100003.7667
100003.8136
100003.8619
100003.8748
100003.9816
100004.029
100004.0416
100004.0203
100003.9301
100003.8326
100003.7774
100004.1798
100003.9843
100004.0044
100004.0103
100004.0379
100003.8731
100003.8453
100003.8344
100003.8187
100003.7937
100003.7676
100003.7479
100003.7318
100003.7179
100003.7064
100003.6981
100003.694
100003.6948
100003.7025
100003.7204
100003.7486
100003.7779
100003.8158
100003.8547
100003.8882
100003.9308
100003.982
100003.9837
100003.9468
100003.8942
100003.8417
100003.8045
100003.7854
100004.2785
100004.187
100004.1573
100004.1155
100004.373
100003.9482
100003.9392
100003.8837
100003.8469
100003.8082
100003.7769
100003.755
100003.7377
100003.7228
100003.7105
100003.702
100003.6982
100003.7004
100003.7107
100003.733
100003.7693
100003.7957
100003.8313
100003.8537
100003.8898
100003.9321
100003.9589
100003.9406
100003.9315
100003.8973
100003.8595
100003.8241
100003.8048
100004.3336
100004.2962
100004.4055
100004.334
100004.5838
100004.0506
100004.101
100003.9589
100003.8828
100003.8265
100003.788
100003.7644
100003.7476
100003.7338
100003.7232
100003.7163
100003.7139
100003.7172
100003.7271
100003.7473
100003.7894
100003.805
100003.8415
100003.8514
100003.8787
100003.9074
100003.9243
100003.9194
100003.9143
100003.8869
100003.8638
100003.8275
100003.8099
100004.3848
100004.3869
100004.7851
100004.7225
100006.7624
100004.0419
100004.4514
100003.9772
100003.8973
100003.833
100003.7949
100003.7733
100003.7602
100003.7516
100003.7459
100003.7435
100003.7459
100003.7549
100003.7689
100003.7875
100003.8481
100003.8311
100003.8854
100003.8761
100003.896
100003.9098
100003.9138
100003.9106
100003.9032
100003.8728
100003.8505
100003.8223
100003.8082
100004.397
100004.3415
100004.3726
100004.2661
100004.5847
100004.0675
100004.1764
100003.9872
100003.8916
100003.832
100003.7991
100003.7836
100003.7787
100003.7779
100003.7793
100003.7838
100003.7948
100003.8181
100003.8559
100003.9087
100004.1992
100003.8764
100003.9728
100003.9302
100003.949
100003.9429
100003.9321
100003.9204
100003.9015
100003.8734
100003.8576
100003.8271
100003.8239
100004.3369
100004.226
100004.2522
100004.1921
100004.5759
100004.1077
100004.0556
100003.9397
100003.8663
100003.8227
100003.802
100003.7978
100003.8041
100003.812
100003.8208
100003.8317
100003.8491
100003.8816
100003.939
100004.0283
100004.5569
100004.0737
100004.4023
100004.0309
100004.0448
100004.0101
100003.9857
100003.9614
100003.9358
100003.9034
100003.8847
100003.8446
100003.8541
100004.1738
100004.0793
100004.1223
100004.114
100004.1638
100004.051
100003.9771
100003.8989
100003.8462
100003.8185
100003.8124
100003.8227
100003.84
100003.8545
100003.8685
100003.8832
100003.9017
100003.9281
100003.9664
100004.0228
100004.1254
100004.0772
100004.1538
100004.0899
100004.0841
100004.071
100004.0499
100004.0252
100003.9995
100003.9614
100003.9466
100003.8851
100003.901
100004.1076
100004.0519
100004.0572
100004.0336
100004.0421
100003.9844
100003.9255
100003.8657
100003.8312
100003.8197
100003.8277
100003.8479
100003.8722
100003.8942
100003.9144
100003.9339
100003.9549
100003.9803
100004.0134
100004.0594
100004.1231
100004.1085
100004.1279
100004.1103
100004.1092
100004.112
100004.09
100004.0759
100004.0699
100004.047
100004.0564
100003.9775
100003.9889
100004.0825
100004.019
100004.0129
100003.9993
100003.9841
100003.9333
100003.8798
100003.8423
100003.8274
100003.8325
100003.8509
100003.8768
100003.9045
100003.9297
100003.9525
100003.9737
100003.9948
100004.0178
100004.0462
100004.0827
100004.1266
100004.1318
100004.1006
100004.1085
100004.1082
100004.1204
100004.0963
100004.0898
100004.0859
100004.0919
100004.0112
100003.9883
100004.2759
100004.0576
100003.9866
100003.9746
100003.9539
100003.9253
100003.8809
100003.845
100003.8296
100003.8319
100003.8465
100003.8693
100003.8966
100003.9252
100003.9526
100003.9781
100004.0011
100004.0221
100004.0413
100004.0578
100004.0741
100004.0997
100004.1445
100004.0941
100004.117
100004.1186
100004.2604
100004.1347
100004.1571
100004.1973
100004.2388
100004.134
100004.3859
100005.5638
100004.0389
100003.972
100003.9515
100003.9194
100003.8838
100003.8488
100003.8298
100003.8281
100003.8385
100003.8572
100003.8816
100003.9093
100003.9384
100003.967
100003.9942
100004.0192
100004.0436
100004.0714
100004.1084
100004.1652
100004.3324
100004.3388
100003.9137
100004.1032
100004.0605
100004.0676
100004.0745
100004.0866
100004.113
100004.1421
100004.2099
100004.2765
100004.778
100004.0282
100003.969
100003.9372
100003.8951
100003.857
100003.83
100003.8195
100003.823
100003.8365
100003.857
100003.8824
100003.9105
100003.9394
100003.9671
100003.9924
100004.0146
100004.0333
100004.0488
100004.0597
100004.0613
100004.0552
100004.0231
100004.014
100004.0536
100004.048
100004.0581
100004.0589
100004.0719
100004.1002
100004.1207
100004.1897
100004.1625
100004.2223
100004.0261
100003.9711
100003.9285
100003.8797
100003.8399
100003.8142
100003.8052
100003.8092
100003.8225
100003.8425
100003.8668
100003.8936
100003.9211
100003.9476
100003.9715
100003.9917
100004.0077
100004.0197
100004.0284
100004.0368
100004.0499
100004.0451
100004.0131
100004.0236
100004.0246
100004.0302
100004.037
100004.0467
100004.0644
100004.0698
100004.1367
100004.1205
100004.3358
100004.0277
100003.9723
100003.9232
100003.8717
100003.8303
100003.8025
100003.7898
100003.7904
100003.8011
100003.8193
100003.8424
100003.868
100003.894
100003.9188
100003.9408
100003.9588
100003.9723
100003.9815
100003.9872
100003.9916
100003.9963
100003.993
100003.985
100003.9915
100003.9959
100004.0021
100004.0105
100004.0165
100004.0257
100004.0286
100004.0726
100004.0651
100004.2501
100004.0268
100003.9704
100003.9208
100003.8696
100003.8276
100003.7976
100003.7811
100003.7775
100003.7848
100003.8002
100003.8207
100003.8437
100003.867
100003.889
100003.9082
100003.9236
100003.9346
100003.9415
100003.9454
100003.9495
100003.958
100003.9507
100003.9521
100003.9572
100003.9624
100003.9692
100003.9774
100003.9808
100003.9855
100003.9892
100004.0117
100004.0175
100004.1244
100004.0231
100003.9679
100003.921
100003.8712
100003.8291
100003.7975
100003.7787
100003.7727
100003.7777
100003.7909
100003.8084
100003.8279
100003.8473
100003.8652
100003.8806
100003.8926
100003.9007
100003.9053
100003.906
100003.9032
100003.9056
100003.9128
100003.924
100003.9258
100003.9283
100003.9335
100003.9398
100003.9423
100003.945
100003.9478
100003.9585
100003.9699
100004.0337
100004.0193
100003.9666
100003.9234
100003.8759
100003.8344
100003.8027
100003.7841
100003.7785
100003.7831
100003.7943
100003.8088
100003.8242
100003.8381
100003.8508
100003.8614
100003.87
100003.8773
100003.8874
100003.9028
100003.9066
100003.9794
100003.9008
100003.9336
100003.9038
100003.8998
100003.9018
100003.9048
100003.9066
100003.9079
100003.9094
100003.9138
100003.9216
100003.9618
100004.0157
100003.9658
100003.9259
100003.8797
100003.8374
100003.8031
100003.781
100003.7725
100003.7763
100003.7886
100003.8045
100003.8204
100003.833
100003.8421
100003.8483
100003.8524
100003.855
100003.8574
100003.8637
100003.8726
100003.8658
100003.8721
100003.9057
100003.8786
100003.8789
100003.8792
100003.8778
100003.8792
100003.8787
100003.8791
100003.8793
100003.8803
100003.9021
100004.0159
100003.9674
100003.9287
100003.8814
100003.8366
100003.7995
100003.7779
100003.7745
100003.7844
100003.7988
100003.8118
100003.8222
100003.8306
100003.8369
100003.8416
100003.8469
100003.8577
100003.8729
100003.861
100003.8739
100003.8904
100003.8521
100003.95
100003.8715
100003.8837
100003.8726
100003.8624
100003.8649
100003.8603
100003.86
100003.8574
100003.8531
100003.8583
100004.0212
100003.9738
100003.936
100003.8876
100003.8399
100003.802
100003.7879
100003.7967
100003.8152
100003.8302
100003.8357
100003.834
100003.832
100003.8331
100003.8361
100003.8421
100003.8584
100003.892
100003.9163
100003.9361
100004.2528
100003.7964
100004.0194
100003.8438
100003.8933
100003.8863
100003.8593
100003.8658
100003.8535
100003.8541
100003.8484
100003.8431
100003.8374
100004.0288
100003.984
100003.9487
100003.901
100003.8512
100003.8092
100003.7939
100003.8051
100003.8277
100003.8462
100003.8518
100003.8451
100003.8338
100003.829
100003.8297
100003.834
100003.8454
100003.8693
100003.9241
100003.8535
100003.9695
100003.7517
100003.996
100003.827
100003.8679
100003.8694
100003.8623
100003.8717
100003.8593
100003.862
100003.8517
100003.8494
100003.8404
100004.0364
100003.9966
100003.966
100003.9227
100003.8742
100003.8273
100003.7989
100003.7995
100003.8171
100003.836
100003.8451
100003.8413
100003.8301
100003.8242
100003.8245
100003.8283
100003.8366
100003.8526
100003.8974
100003.8465
100003.9848
100003.8032
100003.9516
100003.8962
100003.9033
100003.9371
100003.9033
100003.9325
100003.8844
100003.8859
100003.8697
100003.8686
100003.8623
100004.0432
100004.0105
100003.9858
100003.9502
100003.9076
100003.8611
100003.8215
100003.8011
100003.8027
100003.8149
100003.8256
100003.8283
100003.8247
100003.8239
100003.8273
100003.8337
100003.8444
100003.8612
100003.8922
100003.8952
100004.0028
100003.8699
100003.9
100003.8412
100003.8746
100004.0144
100003.8999
100003.9033
100003.9111
100003.9121
100003.9008
100003.9014
100003.899
100004.0491
100004.0242
100004.0054
100003.9788
100003.9463
100003.9074
100003.8674
100003.8351
100003.8182
100003.8164
100003.8223
100003.8285
100003.8332
100003.8395
100003.8478
100003.8584
100003.8735
100003.8946
100003.9221
100003.9447
100003.9981
100003.957
100003.9559
100003.8701
100003.9638
100004.1514
100003.9578
100003.9581
100003.9965
100003.9724
100003.9502
100003.949
100003.9488
100004.0552
100004.0378
100004.0239
100004.0061
100003.9857
100003.9604
100003.931
100003.902
100003.8793
100003.8667
100003.8641
100003.8678
100003.8743
100003.8831
100003.8935
100003.9069
100003.9255
100003.9476
100003.9698
100003.9882
100004.0092
100004.0014
100004.0042
100003.9865
100004.0303
100004.1653
100004.0146
100004.0487
100004.031
100004.0242
100004.0021
100004.0065
100004.0089
100004.0575
100004.0437
100004.035
100004.0238
100004.0139
100004.0027
100003.9891
100003.9734
100003.9581
100003.946
100003.9387
100003.9361
100003.9377
100003.9435
100003.953
100003.9675
100003.9865
100004.0039
100004.0177
100004.0304
100004.0418
100004.0471
100004.0573
100004.1004
100004.0532
100004.0276
100004.0635
100004.1248
100004.0674
100004.0828
100004.0553
100004.0656
100004.0685
100004.0663
100004.0527
100004.0505
100004.045
100004.0438
100004.0465
100004.0531
100004.0624
100004.0718
100004.0785
100004.0806
100004.0779
100004.0725
100004.0679
100004.065
100004.0644
100004.069
100004.0747
100004.0798
100004.0922
100004.1075
100004.1257
100004.1567
100004.2512
100004.2538
100004.5364
100004.223
100004.2785
100004.1639
100004.1835
100004.1412
100004.1475
100004.1425
100003.4518
100003.3081
100003.4252
100003.4436
100003.4821
100003.4896
100003.5283
100003.5758
100003.6087
100003.6253
100003.6244
100003.6202
100003.615
100003.6109
100003.6069
100003.6025
100003.5979
100003.5934
100003.5886
100003.5842
100003.5834
100003.5892
100003.5967
100003.598
100003.5732
100003.5634
100003.5138
100003.6736
100003.4285
100003.3506
100003.4834
100003.5162
100003.5428
100003.5142
100003.5305
100003.5746
100003.6141
100003.6288
100003.6216
100003.6133
100003.6048
100003.5976
100003.5908
100003.5839
100003.5766
100003.5686
100003.5601
100003.5547
100003.5583
100003.5738
100003.5972
100003.6108
100003.5957
100003.584
100003.7114
100003.7729
100003.7136
100003.6563
100003.601
100003.5686
100003.2817
100003.2758
100003.4631
100003.5123
100003.5787
100003.5311
100003.5549
100003.5926
100003.6287
100003.6336
100003.6202
100003.6082
100003.5969
100003.5868
100003.5774
100003.5687
100003.5611
100003.5542
100003.5489
100003.5491
100003.5609
100003.5892
100003.6376
100003.6937
100003.6552
100003.6007
100003.7378
100003.6995
100003.6498
100003.6135
100003.5823
100003.5705
100003.612
100003.4643
100003.5544
100003.6332
100003.7718
100003.6224
100003.6633
100003.6495
100003.6518
100003.6393
100003.6217
100003.6075
100003.5945
100003.582
100003.5704
100003.5609
100003.554
100003.5504
100003.551
100003.5572
100003.5732
100003.6024
100003.64
100003.6994
100003.7148
100003.7322
100003.7461
100003.7298
100003.6858
100003.6553
100003.6306
100003.6156
100003.6141
100003.8659
100003.7369
100003.7453
100003.8325
100004.1081
100003.6344
100003.7461
100003.6755
100003.671
100003.6486
100003.6275
100003.612
100003.5979
100003.5841
100003.5714
100003.561
100003.5537
100003.5502
100003.551
100003.5559
100003.5705
100003.6075
100003.6374
100003.6858
100003.7077
100003.7248
100003.7366
100003.7186
100003.6624
100003.6815
100003.6647
100003.6602
100003.6568
100003.9614
100003.952
100004.041
100004.1022
100004.1312
100003.7519
100003.8791
100003.7309
100003.7046
100003.6649
100003.6368
100003.6195
100003.6053
100003.5921
100003.5798
100003.5691
100003.5606
100003.554
100003.5495
100003.5481
100003.5526
100003.6122
100003.644
100003.6695
100003.6948
100003.7191
100003.7324
100003.707
100003.7262
100003.7129
100003.6532
100003.6593
100003.6536
100004.0526
100004.1496
100004.5985
100005.3014
100007.9066
100003.4456
100004.3555
100003.687
100003.7276
100003.6701
100003.6419
100003.6265
100003.6164
100003.6064
100003.5969
100003.5882
100003.5801
100003.5717
100003.5625
100003.5523
100003.5177
100003.6187
100003.6421
100003.6709
100003.6971
100003.7192
100003.7319
100003.7318
100003.7221
100003.7039
100003.6842
100003.6656
100003.648
100003.9769
100003.9279
100004.0081
100004.0736
100004.7569
100003.7805
100003.9979
100003.7716
100003.7156
100003.6711
100003.6467
100003.6366
100003.6326
100003.6272
100003.622
100003.6172
100003.6129
100003.6065
100003.5924
100003.5564
100003.2877
100003.6362
100003.6316
100003.6898
100003.7213
100003.7352
100003.7376
100003.7315
100003.7152
100003.6914
100003.669
100003.6516
100003.6358
100003.8834
100003.8599
100003.9394
100004.0322
100004.4065
100003.8263
100003.8781
100003.7511
100003.6955
100003.6622
100003.6472
100003.6469
100003.6516
100003.6525
100003.6533
100003.6544
100003.658
100003.6657
100003.6792
100003.7117
100003.7548
100003.7396
100003.6491
100003.7447
100003.7733
100003.7751
100003.7667
100003.7532
100003.7316
100003.7032
100003.6749
100003.6516
100003.6172
100003.8263
100003.7994
100003.8705
100003.8964
100003.9921
100003.8533
100003.7983
100003.7246
100003.6803
100003.6598
100003.6595
100003.6718
100003.6877
100003.6893
100003.6921
100003.6955
100003.7023
100003.7143
100003.7338
100003.7709
100003.8423
100003.8092
100003.822
100003.8194
100003.8255
100003.8228
100003.808
100003.7893
100003.7633
100003.7306
100003.6917
100003.6687
100003.5924
100003.8452
100003.7898
100003.8232
100003.8131
100003.8308
100003.7875
100003.7401
100003.6905
100003.6625
100003.6554
100003.6644
100003.6824
100003.702
100003.7134
100003.7233
100003.7325
100003.7435
100003.7581
100003.7777
100003.8041
100003.8341
100003.8369
100003.8456
100003.8515
100003.8549
100003.853
100003.8378
100003.8198
100003.7903
100003.7558
100003.6539
100003.6036
100003.4056
100003.842
100003.782
100003.796
100003.784
100003.7934
100003.7501
100003.6996
100003.6661
100003.6539
100003.6588
100003.6756
100003.6982
100003.7206
100003.737
100003.7509
100003.7632
100003.7757
100003.7901
100003.8074
100003.8267
100003.8426
100003.8393
100003.8583
100003.8776
100003.892
100003.9331
100003.8723
100003.8537
100003.8179
100003.8086
100003.7464
100003.6891
100003.3795
100003.829
100003.771
100003.7733
100003.7593
100003.7441
100003.7035
100003.6696
100003.6522
100003.6513
100003.6639
100003.6853
100003.7104
100003.7349
100003.7554
100003.773
100003.788
100003.8016
100003.815
100003.8276
100003.8402
100003.8542
100003.8651
100003.889
100003.9133
100003.9194
100003.9166
100003.8958
100003.8677
100003.8083
100003.7547
100003.4282
100003.1681
100003.1937
100003.8322
100003.7746
100003.7641
100003.7386
100003.7089
100003.6744
100003.6526
100003.645
100003.6512
100003.6688
100003.6939
100003.7217
100003.7483
100003.7716
100003.7919
100003.8089
100003.8236
100003.8379
100003.8488
100003.8503
100003.8336
100003.5863
100003.8172
100003.8976
100003.8964
100003.8471
100003.8814
100003.864
100003.8463
100003.8342
100003.6831
100003.6246
100003.0412
100003.8514
100003.7957
100003.767
100003.7272
100003.6913
100003.6617
100003.6452
100003.6424
100003.6521
100003.6718
100003.6977
100003.7253
100003.7515
100003.7747
100003.7945
100003.8102
100003.8226
100003.8329
100003.8395
100003.8405
100003.8393
100003.8145
100003.864
100003.8886
100003.8903
100003.8833
100003.876
100003.8606
100003.8471
100003.8286
100003.7079
100003.7029
100003.3462
100003.8691
100003.8171
100003.7726
100003.7229
100003.683
100003.6541
100003.6386
100003.6365
100003.6464
100003.6657
100003.6905
100003.7167
100003.7415
100003.7636
100003.7822
100003.7969
100003.8081
100003.8169
100003.8235
100003.8285
100003.8324
100003.829
100003.8451
100003.8618
100003.8663
100003.8638
100003.862
100003.8526
100003.8475
100003.8382
100003.8233
100003.8205
100003.7841
100003.8777
100003.8269
100003.7764
100003.7232
100003.681
100003.6512
100003.6342
100003.63
100003.638
100003.6552
100003.6777
100003.7016
100003.7244
100003.7446
100003.7615
100003.7748
100003.7845
100003.7917
100003.7971
100003.802
100003.807
100003.811
100003.8217
100003.8339
100003.8401
100003.8417
100003.845
100003.8369
100003.8344
100003.8281
100003.8261
100003.8142
100003.8096
100003.8788
100003.8291
100003.7794
100003.7275
100003.6846
100003.653
100003.6337
100003.6271
100003.6323
100003.6467
100003.6663
100003.6872
100003.707
100003.7246
100003.7391
100003.7501
100003.7576
100003.7625
100003.7661
100003.7702
100003.7753
100003.7846
100003.7943
100003.8043
100003.8107
100003.8148
100003.8209
100003.8129
100003.8104
100003.8053
100003.8037
100003.7903
100003.8007
100003.8767
100003.8292
100003.7834
100003.7345
100003.6922
100003.6592
100003.6381
100003.6293
100003.6317
100003.6431
100003.6602
100003.6781
100003.6947
100003.7089
100003.72
100003.7276
100003.7315
100003.7323
100003.7321
100003.7345
100003.7357
100003.7566
100003.7657
100003.7734
100003.7777
100003.7818
100003.7867
100003.7812
100003.7792
100003.7748
100003.7708
100003.7569
100003.765
100003.8742
100003.8295
100003.7887
100003.7432
100003.7028
100003.6702
100003.6487
100003.6389
100003.6398
100003.6489
100003.6626
100003.6767
100003.6896
100003.6994
100003.706
100003.7089
100003.7081
100003.7038
100003.6997
100003.7083
100003.7031
100003.7372
100003.7426
100003.7445
100003.7451
100003.7488
100003.7518
100003.749
100003.7473
100003.7437
100003.7378
100003.723
100003.7235
100003.8712
100003.8288
100003.792
100003.7484
100003.7077
100003.6725
100003.6471
100003.6338
100003.6334
100003.6437
100003.6594
100003.6747
100003.6861
100003.6922
100003.6931
100003.6894
100003.681
100003.6668
100003.6432
100003.6743
100003.6805
100003.7275
100003.7091
100003.7155
100003.7154
100003.7205
100003.7228
100003.7225
100003.7208
100003.7179
100003.7116
100003.6955
100003.6877
100003.8693
100003.8275
100003.7909
100003.7439
100003.6967
100003.6549
100003.6232
100003.6052
100003.6025
100003.6133
100003.6328
100003.6553
100003.6737
100003.6818
100003.679
100003.6686
100003.6522
100003.6254
100003.5065
100003.4379
100003.0864
100003.6317
100003.6461
100003.6869
100003.6953
100003.7017
100003.7038
100003.7057
100003.7034
100003.7011
100003.6956
100003.6798
100003.6655
100003.8714
100003.8297
100003.792
100003.7398
100003.689
100003.6489
100003.6201
100003.6026
100003.5987
100003.6051
100003.6181
100003.6361
100003.656
100003.6693
100003.6661
100003.6509
100003.6282
100003.5989
100003.4075
100003.3208
100002.8105
100003.6517
100003.587
100003.6638
100003.6823
100003.6952
100003.6969
100003.7004
100003.6971
100003.6952
100003.6913
100003.6792
100003.6609
100003.8776
100003.8376
100003.8004
100003.7458
100003.6913
100003.6511
100003.6229
100003.6045
100003.5996
100003.6043
100003.6136
100003.6261
100003.643
100003.6597
100003.6597
100003.6456
100003.626
100003.6018
100003.5221
100003.4884
100002.9487
100003.6151
100003.597
100003.6472
100003.6788
100003.6964
100003.7016
100003.7058
100003.7029
100003.7014
100003.6996
100003.6931
100003.6759
100003.8871
100003.8509
100003.8175
100003.7654
100003.7074
100003.6604
100003.6309
100003.61
100003.601
100003.603
100003.6109
100003.6218
100003.637
100003.6553
100003.6602
100003.6516
100003.6401
100003.6306
100003.6172
100003.6037
100003.3528
100003.6271
100003.6505
100003.6561
100003.6885
100003.7335
100003.7148
100003.7249
100003.7212
100003.7214
100003.7195
100003.7173
100003.7069
100003.8985
100003.8681
100003.8404
100003.7966
100003.7414
100003.6859
100003.6476
100003.6254
100003.6126
100003.6092
100003.6146
100003.6255
100003.6412
100003.66
100003.6697
100003.6696
100003.6695
100003.6744
100003.6931
100003.6934
100003.6348
100003.6806
100003.6843
100003.6374
100003.6616
100003.6244
100003.7317
100003.7419
100003.7447
100003.7476
100003.7498
100003.7517
100003.749
100003.9103
100003.8863
100003.8644
100003.8315
100003.7877
100003.7344
100003.6859
100003.6544
100003.6378
100003.6317
100003.6354
100003.6461
100003.662
100003.6803
100003.6937
100003.7029
100003.7142
100003.7314
100003.7605
100003.7684
100003.7479
100003.7232
100003.6766
100003.4337
100003.3793
100003.3075
100003.4681
100003.6319
100003.7595
100003.7758
100003.7895
100003.7969
100003.8005
100003.9219
100003.9044
100003.8877
100003.8648
100003.8366
100003.7988
100003.755
100003.7158
100003.6903
100003.6791
100003.6795
100003.6884
100003.7037
100003.722
100003.7381
100003.754
100003.7749
100003.7994
100003.8253
100003.8344
100003.8266
100003.8028
100003.7526
100003.5737
100003.4832
100003.2996
100003.5662
100003.6944
100003.8113
100003.8324
100003.8434
100003.8544
100003.8607
100003.9272
100003.9127
100003.9021
100003.8867
100003.8704
100003.8499
100003.8229
100003.7923
100003.7645
100003.7464
100003.7393
100003.7427
100003.7544
100003.7708
100003.789
100003.8115
100003.8388
100003.8624
100003.8805
100003.8874
100003.8842
100003.8688
100003.8271
100003.7226
100003.6488
100003.3021
100003.7295
100003.7864
100003.8693
100003.897
100003.8999
100003.9141
100003.92
100003.9375
100003.9222
100003.9173
100003.9071
100003.8987
100003.8907
100003.8826
100003.8733
100003.864
100003.857
100003.8537
100003.8552
100003.861
100003.8695
100003.8797
100003.8941
100003.9135
100003.9288
100003.9403
100003.949
100003.9528
100003.951
100003.938
100003.9128
100003.8466
100003.7307
100003.8922
100003.9556
100003.9657
100003.9905
100003.9778
100003.9881
100003.9864
100003.5397
100003.5017
100003.4996
100003.4569
100003.4423
100003.4382
100003.4499
100003.4649
100003.4767
100003.4839
100003.4837
100003.4796
100003.4723
100003.465
100003.4585
100003.4529
100003.4485
100003.4453
100003.4433
100003.4425
100003.4435
100003.4458
100003.4473
100003.4451
100003.4453
100003.4562
100003.4606
100003.6636
100003.502
100003.6
100003.5264
100003.5533
100003.5025
100003.4684
100003.4459
100003.4574
100003.4667
100003.4784
100003.4852
100003.4832
100003.4767
100003.4672
100003.4578
100003.4492
100003.4413
100003.4342
100003.4281
100003.4242
100003.4243
100003.43
100003.4433
100003.4654
100003.4863
100003.4615
100003.4243
100003.2479
100003.3084
100003.4763
100003.488
100003.4741
100003.4655
100003.6701
100003.5784
100003.6155
100003.5533
100003.5078
100003.4578
100003.4743
100003.4756
100003.4865
100003.4898
100003.484
100003.475
100003.4636
100003.4523
100003.4418
100003.4323
100003.4241
100003.4181
100003.4165
100003.4219
100003.4368
100003.4707
100003.5656
100003.7258
100003.5651
100003.5385
100003.5464
100003.54
100003.5275
100003.5132
100003.4953
100003.4851
100003.7234
100003.7046
100003.6674
100003.599
100003.5094
100003.4196
100003.4901
100003.4794
100003.4961
100003.4944
100003.486
100003.4762
100003.4643
100003.4517
100003.4398
100003.4291
100003.4207
100003.4159
100003.4174
100003.4285
100003.4502
100003.486
100003.5305
100003.5847
100003.5734
100003.57
100003.5616
100003.555
100003.5496
100003.5389
100003.5223
100003.5074
100003.5006
100003.7832
100003.7668
100003.7607
100003.6677
100003.2989
100003.2104
100003.4537
100003.4489
100003.4979
100003.4972
100003.4895
100003.481
100003.47
100003.4572
100003.4443
100003.4326
100003.4234
100003.4182
100003.4197
100003.4308
100003.452
100003.4874
100003.522
100003.5556
100003.5675
100003.5774
100003.5798
100003.5716
100003.5657
100003.5602
100003.5411
100003.5267
100003.5253
100003.8456
100003.8273
100003.7872
100003.7166
100003.0554
100003.1308
100003.3744
100003.4209
100003.5064
100003.5042
100003.4961
100003.4894
100003.4804
100003.4684
100003.4556
100003.4432
100003.4327
100003.4258
100003.424
100003.4288
100003.4425
100003.482
100003.5105
100003.5362
100003.5555
100003.5724
100003.582
100003.5795
100003.5864
100003.5768
100003.5533
100003.532
100003.5199
100003.9109
100003.9065
100003.8656
100004.5545
100001.8387
100001.7173
100003.525
100003.26
100003.5156
100003.5008
100003.5019
100003.4998
100003.4947
100003.484
100003.4721
100003.4598
100003.4485
100003.4394
100003.4348
100003.436
100003.4346
100003.4844
100003.5028
100003.5325
100003.5539
100003.5718
100003.583
100003.5861
100003.586
100003.5754
100003.5571
100003.5361
100003.5192
100003.8549
100003.8206
100003.7666
100003.7389
100003.3262
100003.3727
100003.6169
100003.5138
100003.5352
100003.5221
100003.5178
100003.5193
100003.5203
100003.508
100003.4963
100003.4842
100003.473
100003.4627
100003.4552
100003.4561
100003.4173
100003.5102
100003.5081
100003.5502
100003.5685
100003.5824
100003.5884
100003.5881
100003.5819
100003.5705
100003.5555
100003.5389
100003.5236
100003.7859
100003.7578
100003.7484
100003.7419
100003.6462
100003.4097
100003.6126
100003.5305
100003.53
100003.5225
100003.5236
100003.5298
100003.5374
100003.5301
100003.5233
100003.5149
100003.5073
100003.4993
100003.487
100003.4567
100003.1486
100003.5244
100003.4374
100003.5853
100003.5962
100003.6081
100003.6092
100003.6045
100003.5946
100003.5825
100003.5683
100003.5519
100003.5335
100003.7258
100003.7209
100003.7196
100003.7121
100003.7101
100003.6197
100003.6066
100003.5607
100003.5414
100003.54
100003.5551
100003.582
100003.6181
100003.583
100003.5685
100003.5557
100003.5496
100003.5493
100003.5556
100003.5729
100003.5898
100003.6221
100003.6403
100003.6478
100003.6487
100003.6483
100003.6436
100003.6351
100003.6238
100003.6127
100003.5978
100003.5774
100003.5535
100003.7071
100003.6941
100003.6902
100003.6864
100003.6701
100003.6167
100003.586
100003.5497
100003.5326
100003.5315
100003.5439
100003.5647
100003.5872
100003.586
100003.5861
100003.584
100003.5845
100003.589
100003.5978
100003.6081
100003.6135
100003.6393
100003.6477
100003.6652
100003.6709
100003.6674
100003.6705
100003.665
100003.6561
100003.6508
100003.6333
100003.6123
100003.6089
100003.6932
100003.6752
100003.6684
100003.6603
100003.6451
100003.6066
100003.5679
100003.5408
100003.5281
100003.5304
100003.5466
100003.5705
100003.594
100003.6016
100003.6074
100003.611
100003.6151
100003.6223
100003.6329
100003.6465
100003.6608
100003.672
100003.6839
100003.6965
100003.7042
100003.7062
100003.7044
100003.6978
100003.6911
100003.6907
100003.6715
100003.6186
100003.5815
100003.6821
100003.6648
100003.6533
100003.6349
100003.6137
100003.5806
100003.5508
100003.5306
100003.5228
100003.5299
100003.5487
100003.5734
100003.5978
100003.614
100003.6263
100003.6348
100003.6417
100003.6503
100003.6605
100003.6726
100003.6865
100003.6988
100003.7072
100003.7143
100003.7099
100003.5714
100003.7186
100003.7164
100003.7257
100003.7493
100003.7693
100003.7133
100003.8995
100003.6747
100003.6564
100003.6398
100003.6127
100003.5868
100003.5595
100003.5364
100003.5214
100003.5193
100003.5305
100003.5518
100003.5785
100003.6053
100003.6276
100003.6453
100003.6564
100003.6623
100003.6697
100003.6767
100003.682
100003.6886
100003.6681
100003.692
100003.7166
100003.7235
100003.7081
100003.7284
100003.7235
100003.7312
100003.7499
100003.7629
100003.7353
100003.7508
100003.6731
100003.6511
100003.6295
100003.5973
100003.5688
100003.5442
100003.5247
100003.5136
100003.5154
100003.5291
100003.5516
100003.5786
100003.6057
100003.6295
100003.6481
100003.6592
100003.6652
100003.6712
100003.6765
100003.6813
100003.6878
100003.6901
100003.7035
100003.7154
100003.7215
100003.7206
100003.7274
100003.7194
100003.7224
100003.7316
100003.7365
100003.7334
100003.7653
100003.6767
100003.6513
100003.6239
100003.5888
100003.5577
100003.5326
100003.5144
100003.5054
100003.5086