/*--------------------------------*- C++ -*----------------------------------*\
  =========                 |
  \\      /  F ield         | OpenFOAM: The Open Source CFD Toolbox
   \\    /   O peration     | Website:  https://openfoam.org
    \\  /    A nd           | Version:  8
     \\/     M anipulation  |
\*---------------------------------------------------------------------------*/
FoamFile
{
    version     2.0;
    format      ascii;
    class       volScalarField;
    location    "1.3";
    object      T;
}
// * * * * * * * * * * * * * * * * * * * * * * * * * * * * * * * * * * * * * //

dimensions      [0 0 0 1 0 0 0];

internalField   nonuniform List<scalar> 
67286
(
300.0028406
300.0027706
300.0026813
300.002876
300.0028704
300.0028141
300.0028276
300.0028387
300.002786
300.0027316
300.0026936
300.0026668
300.0026383
300.0026101
300.002597
300.0026019
300.0026179
300.0026411
300.0026722
300.0027121
300.0027569
300.0028021
300.0028538
300.0029244
300.0029728
300.0030108
300.0031428
300.0031982
300.0029307
300.0026375
300.0024723
300.0028861
300.0029061
300.0028491
300.0028373
300.0028454
300.0028038
300.0027457
300.0027277
300.002697
300.002654
300.0026146
300.0025974
300.0026019
300.0026188
300.0026456
300.0026825
300.0027249
300.0027627
300.0027913
300.0028209
300.0028747
300.0029305
300.0029294
300.0033033
300.0033558
300.003135
300.0030417
300.0029875
300.0029615
300.0025288
300.0017853
300.0018368
300.0028317
300.0028338
300.0028467
300.0028655
300.0028613
300.0027951
300.0027592
300.0027492
300.0027151
300.0026656
300.0026244
300.002607
300.0026084
300.0026201
300.002641
300.0026715
300.0027066
300.0027377
300.0027602
300.0027814
300.0028191
300.0028805
300.0028043
300.0030351
300.0031053
300.0030444
300.0029753
300.0029305
300.0029073
300.0029664
300.0027115
300.0024275
300.002868
300.003006
300.0029497
300.00299
300.0029125
300.0027878
300.0027755
300.002758
300.0027179
300.0026697
300.0026339
300.002618
300.0026145
300.0026174
300.0026279
300.0026477
300.0026763
300.0027107
300.0027412
300.0027533
300.0027701
300.0027996
300.0028582
300.0029418
300.0029834
300.0029775
300.0029326
300.0028767
300.0028283
300.0027871
300.0030241
300.0029783
300.0029089
300.0030713
300.0033636
300.0030578
300.0030619
300.0028883
300.0027904
300.0027771
300.0027496
300.002709
300.0026699
300.0026436
300.0026297
300.0026211
300.0026164
300.0026191
300.0026328
300.0026588
300.0026931
300.0027114
300.0026971
300.0027544
300.0027585
300.0027888
300.0028309
300.0028606
300.0027917
300.0027941
300.0027301
300.0026811
300.0026574
300.0031676
300.0031945
300.0032578
300.0032589
300.0035811
300.0031609
300.0031515
300.0028659
300.0028033
300.0027669
300.0027303
300.0026969
300.002672
300.0026555
300.0026432
300.0026312
300.0026215
300.0026201
300.0026317
300.0026577
300.0026947
300.0027217
300.002743
300.0027597
300.0027551
300.0027475
300.002757
300.0027452
300.002715
300.0026768
300.0025841
300.0026108
300.0026221
300.0031188
300.0032933
300.0036297
300.0036406
300.0054801
300.0031557
300.0032755
300.0028393
300.0027821
300.0027376
300.0027074
300.0026888
300.0026783
300.0026697
300.0026595
300.0026473
300.002637
300.0026341
300.002642
300.0026556
300.0026715
300.0027248
300.0027607
300.0027675
300.0027734
300.0027562
300.0027389
300.002714
300.0026982
300.0026753
300.002655
300.002633
300.002637
300.0028342
300.0033122
300.0033899
300.0030714
300.0033816
300.0029286
300.0029497
300.0028058
300.0027467
300.002711
300.0026938
300.0026883
300.0026875
300.0026846
300.0026783
300.0026696
300.0026634
300.0026678
300.0026879
300.0027041
300.0025629
300.0027443
300.0028002
300.0027839
300.0027991
300.0027807
300.0027569
300.0027322
300.0027168
300.0026942
300.0026671
300.0026407
300.0026361
300.0027724
300.0030031
300.0030423
300.0029648
300.0033086
300.0028521
300.0028207
300.0027539
300.0027126
300.0026906
300.0026843
300.0026884
300.0026955
300.0026993
300.0026988
300.0026951
300.0026931
300.0027033
300.0027392
300.0028097
300.0030794
300.0028711
300.0030335
300.0028319
300.002844
300.0028176
300.0027949
300.0027722
300.0027463
300.0027144
300.0026836
300.0026494
300.0026287
300.0028209
300.0028758
300.0029996
300.0030786
300.0030117
300.0027835
300.0027485
300.0027198
300.0026882
300.002672
300.0026727
300.0026857
300.0027025
300.0027139
300.0027198
300.0027207
300.0027197
300.0027231
300.0027391
300.0027777
300.0028566
300.0028257
300.0028956
300.0028501
300.0028547
300.0028536
300.0028448
300.002823
300.002788
300.0027415
300.0027004
300.0026622
300.0025449
300.0028512
300.0029507
300.0031431
300.0031766
300.0030492
300.0027174
300.0027108
300.0026997
300.0026687
300.0026524
300.0026556
300.0026742
300.002699
300.0027202
300.002735
300.0027425
300.0027447
300.0027458
300.0027527
300.0027741
300.0028156
300.0028128
300.0028486
300.0028624
300.0028797
300.0029007
300.0029039
300.0028882
300.002847
300.0027939
300.0027341
300.0026698
300.0022225
300.0028224
300.0029637
300.0030203
300.0029639
300.0028171
300.0027472
300.0027358
300.0027
300.0026629
300.0026415
300.0026414
300.0026607
300.0026901
300.0027188
300.0027411
300.002755
300.0027608
300.0027611
300.0027613
300.0027663
300.0027771
300.0027674
300.002759
300.0027982
300.002832
300.0028805
300.0028927
300.0028958
300.0028535
300.0028263
300.002708
300.0025934
300.001838
300.002772
300.0028811
300.0028831
300.0028259
300.0027714
300.0027715
300.0027488
300.0027079
300.0026675
300.0026385
300.0026291
300.0026416
300.002669
300.0026987
300.002723
300.0027393
300.002746
300.0027423
300.0027282
300.0027093
300.002699
300.0027103
300.002721
300.0027803
300.0028111
300.0029413
300.0029105
300.0029152
300.0029136
300.0028655
300.0024263
300.0010175
299.9968309
300.002741
300.0027854
300.0027853
300.0027778
300.0027866
300.0027841
300.0027494
300.0027062
300.0026622
300.0026233
300.0025998
300.0026015
300.0026261
300.0026595
300.0026892
300.0027103
300.0027232
300.0027311
300.0027387
300.0027493
300.0027506
300.00238
300.0025537
300.0026851
300.0026831
300.0027445
300.0027957
300.0028139
300.0028131
300.0028176
300.0027755
300.0024726
300.0000396
300.002747
300.0027269
300.0027372
300.0027542
300.0027533
300.002726
300.0026867
300.0026472
300.0026101
300.0025797
300.0025638
300.0025698
300.0025951
300.0026273
300.0026554
300.002675
300.0026852
300.0026862
300.0026785
300.002663
300.0026439
300.0025931
300.0025876
300.0026277
300.0026445
300.0027009
300.0027452
300.0027647
300.0027706
300.0027687
300.0027661
300.0027461
300.0021601
300.0027675
300.0027151
300.0027289
300.0027356
300.0027121
300.0026712
300.0026284
300.0025899
300.0025575
300.0025344
300.002526
300.0025363
300.0025614
300.002591
300.0026165
300.0026341
300.0026431
300.0026433
300.002636
300.0026261
300.0026198
300.0025992
300.0025737
300.0025872
300.0026068
300.002653
300.002696
300.0027154
300.0027209
300.002711
300.002725
300.0027245
300.0027699
300.0027746
300.0027317
300.0027339
300.0027167
300.0026756
300.0026264
300.0025802
300.0025413
300.0025119
300.0024945
300.0024921
300.0025051
300.0025287
300.0025545
300.0025762
300.0025912
300.0025987
300.0025984
300.0025913
300.0025807
300.0025717
300.0025578
300.0025451
300.002552
300.0025728
300.0026136
300.002653
300.0026706
300.0026731
300.0026573
300.0026585
300.0026545
300.0027903
300.0027731
300.0027512
300.0027356
300.0026988
300.0026462
300.002591
300.0025413
300.0025019
300.0024752
300.0024629
300.0024651
300.0024793
300.0025002
300.0025212
300.0025383
300.00255
300.0025558
300.0025557
300.0025497
300.0025406
300.0025347
300.0025223
300.002518
300.0025238
300.0025449
300.0025813
300.0026159
300.0026314
300.0026308
300.0026106
300.0025954
300.0025982
300.002703
300.0027764
300.0027675
300.0027363
300.0026879
300.0026293
300.0025707
300.0025194
300.00248
300.0024553
300.0024458
300.0024493
300.0024618
300.0024779
300.0024928
300.0025043
300.0025121
300.0025165
300.0025178
300.0025149
300.002509
300.0025205
300.0024959
300.0025016
300.0025053
300.0025247
300.0025556
300.0025847
300.0025991
300.0025971
300.0025728
300.0025454
300.0025519
300.0026314
300.002788
300.0027828
300.0027376
300.002679
300.0026121
300.0025447
300.0024843
300.0024386
300.0024134
300.0024092
300.0024198
300.0024371
300.0024539
300.0024664
300.0024736
300.0024787
300.0024835
300.0024902
300.0024938
300.002483
300.0024453
300.0024791
300.0025072
300.0024978
300.0025145
300.0025393
300.0025627
300.0025767
300.0025751
300.0025488
300.0025115
300.0025118
300.0025738
300.0028027
300.0027984
300.0027436
300.0026786
300.0026094
300.002544
300.0024878
300.0024438
300.0024142
300.0023986
300.0023944
300.0024026
300.002421
300.0024381
300.0024459
300.0024529
300.0024605
300.0024747
300.0025019
300.0025486
300.0025822
300.0024888
300.0025452
300.0024988
300.0025171
300.0025348
300.0025522
300.0025668
300.0025668
300.0025426
300.0024968
300.0024829
300.0025285
300.0028135
300.0028096
300.0027455
300.0026729
300.002607
300.0025586
300.002527
300.0025016
300.002473
300.0024368
300.0023964
300.0023687
300.0023746
300.002401
300.0024218
300.0024426
300.0024588
300.0024585
300.0023558
300.0019609
300.0001449
300.0020439
300.0024029
300.002487
300.0025328
300.0025431
300.0025542
300.0025705
300.0025713
300.0025542
300.0025044
300.0024718
300.0024977
300.0028176
300.0028187
300.0027497
300.0026692
300.0025988
300.0025502
300.002519
300.0024921
300.0024679
300.0024437
300.0024156
300.0023876
300.0023716
300.0023677
300.0023947
300.0024389
300.0024779
300.0025167
300.0024821
300.0020753
299.9976646
300.0021758
300.0025343
300.0025051
300.0025651
300.0025634
300.0025708
300.0025871
300.0025867
300.0025797
300.002533
300.0024864
300.0024854
300.0028126
300.0028269
300.0027625
300.0026769
300.0025978
300.0025422
300.0025079
300.0024781
300.0024542
300.0024353
300.0024168
300.0023969
300.0023761
300.0023474
300.0023709
300.0024323
300.0024842
300.0025339
300.0025349
300.0024858
300.0016788
300.0023927
300.0026178
300.002525
300.0025909
300.0026108
300.0026029
300.0026113
300.0026131
300.0026124
300.0025733
300.0025262
300.0025006
300.0027951
300.0028298
300.0027821
300.0026988
300.0026107
300.0025434
300.0025013
300.0024696
300.002443
300.002424
300.0024098
300.002397
300.0023802
300.0023472
300.0023673
300.002435
300.0024922
300.0025478
300.002536
300.0025112
300.0026228
300.0024984
300.0026352
300.0025754
300.0026042
300.0024124
300.0026435
300.0026387
300.002651
300.0026491
300.0026181
300.0025796
300.0025438
300.0027618
300.0028193
300.0027996
300.0027319
300.0026412
300.0025608
300.0025047
300.0024686
300.0024421
300.0024228
300.0024108
300.0024033
300.0023937
300.002372
300.0023933
300.0024571
300.0025106
300.0025675
300.0025461
300.0025511
300.0026998
300.0025894
300.0026449
300.0026012
300.0025746
300.0021414
300.0026703
300.0026958
300.0027067
300.0026894
300.0026661
300.0026368
300.002603
300.0027107
300.0027885
300.0028013
300.0027629
300.0026861
300.0026003
300.002531
300.0024842
300.0024542
300.0024377
300.0024293
300.0024269
300.0024259
300.0024211
300.0024462
300.0024989
300.0025391
300.0025919
300.002587
300.0026139
300.002697
300.0026684
300.0026251
300.0023053
300.0013565
299.9992967
300.0017559
300.0024646
300.0027198
300.0027317
300.0027136
300.0026912
300.0026638
300.0026444
300.0027374
300.0027773
300.0027714
300.0027255
300.002654
300.0025817
300.0025272
300.002493
300.002475
300.0024682
300.0024694
300.0024757
300.0024853
300.0025123
300.0025521
300.0025756
300.0026211
300.0026388
300.0026697
300.002718
300.0027295
300.002738
300.002629
300.0021849
300.0000031
300.0023432
300.0027013
300.0027974
300.0027789
300.0027539
300.0027341
300.0027094
300.0025867
300.0026794
300.0027299
300.0027452
300.002731
300.0026921
300.0026392
300.0025903
300.0025573
300.0025408
300.0025359
300.0025382
300.0025458
300.0025586
300.0025795
300.0026039
300.0026148
300.0026479
300.002675
300.0027043
300.0027403
300.0027672
300.0027987
300.002824
300.0028193
300.0019861
300.0028062
300.0028541
300.0028345
300.002816
300.0027748
300.0027533
300.002726
300.0025776
300.0026321
300.0026643
300.0026791
300.0026788
300.002667
300.0026455
300.0026193
300.0025962
300.0025813
300.0025741
300.0025724
300.0025752
300.0025827
300.002593
300.0026044
300.0026116
300.0026287
300.0026546
300.0026835
300.0027181
300.0027517
300.0027936
300.0028663
300.0029412
300.0030109
300.0028804
300.0028948
300.0028108
300.0027999
300.0027472
300.0027325
300.0027154
300.0027651
300.002702
300.0028018
300.0028294
300.0028451
300.0028219
300.0028383
300.0028385
300.0027889
300.0027305
300.0026843
300.0026571
300.0026372
300.0026152
300.0026
300.0025997
300.0026123
300.0026339
300.0026637
300.002703
300.002751
300.0027998
300.0028393
300.0028776
300.0029065
300.0029415
300.0028911
300.003116
300.0028156
300.002794
300.002885
300.0029038
300.0028871
300.0028449
300.0028559
300.0028482
300.0027987
300.0027476
300.0027204
300.002695
300.0026624
300.0026261
300.0026021
300.0025983
300.0026109
300.0026364
300.0026758
300.002729
300.0027875
300.0028347
300.002858
300.0028753
300.0029085
300.0029605
300.0027331
300.0029291
300.0030851
300.0030442
300.0029964
300.0029488
300.0027409
300.0029127
300.0032917
300.003221
300.0029999
300.0028729
300.0028875
300.0028544
300.0027937
300.0027629
300.0027509
300.0027284
300.0026899
300.0026472
300.0026193
300.0026134
300.0026248
300.0026501
300.0026903
300.0027442
300.0028015
300.0028459
300.0028678
300.0028784
300.0028771
300.0029475
300.0029834
300.0031079
300.0031077
300.0030168
300.0029403
300.0028825
300.0029451
300.0027921
300.0027916
300.0027818
300.0029491
300.0028705
300.0029515
300.0028713
300.0027971
300.0027825
300.0027751
300.0027517
300.0027109
300.0026679
300.0026406
300.0026336
300.0026408
300.0026583
300.0026859
300.0027239
300.0027685
300.0028116
300.0028409
300.002828
300.0028459
300.0028776
300.0029347
300.0029766
300.002964
300.0028972
300.0028457
300.0028031
300.0027582
300.0030368
300.0029941
300.0030519
300.0031081
300.0032867
300.0029378
300.0030181
300.0028519
300.0027945
300.0027894
300.0027829
300.0027592
300.0027207
300.0026831
300.0026606
300.002654
300.0026569
300.0026649
300.0026778
300.0026981
300.0027295
300.0027754
300.0028184
300.002793
300.002812
300.0028367
300.0028702
300.0028878
300.0028699
300.002788
300.0027509
300.0027013
300.0026783
300.0031874
300.003215
300.0032258
300.0032326
300.0027453
300.0026353
300.0030409
300.0028235
300.0027978
300.0027856
300.0027744
300.0027517
300.002721
300.0026944
300.0026797
300.0026753
300.0026754
300.0026765
300.0026799
300.0026881
300.0027029
300.0027296
300.0027587
300.0027825
300.0027959
300.0028016
300.0028129
300.0028338
300.002757
300.0027015
300.0027111
300.0026522
300.0026499
300.0033161
300.0033708
300.0037131
300.0042299
300.0041036
300.0028006
300.0033332
300.0027437
300.0027842
300.0027613
300.0027496
300.0027352
300.0027188
300.0027061
300.0027002
300.0026984
300.0026962
300.0026915
300.0026856
300.0026841
300.0026862
300.0027229
300.002758
300.0027884
300.0027999
300.002792
300.0027764
300.0027534
300.0027188
300.0026853
300.0026545
300.0026423
300.0026506
300.0034263
300.0034453
300.0034346
300.0033197
300.0038351
300.002837
300.0029497
300.0027616
300.002744
300.0027321
300.0027272
300.0027252
300.0027242
300.0027236
300.002725
300.002726
300.0027234
300.0027139
300.0026899
300.0026354
300.0025082
300.0026953
300.0027331
300.0027945
300.002819
300.0028112
300.0027891
300.0027574
300.0027269
300.0026998
300.0026695
300.0026469
300.0026371
300.0031703
300.0031897
300.0031775
300.0031407
300.0033576
300.0027729
300.0028032
300.0027306
300.0027154
300.0027125
300.0027165
300.0027255
300.0027363
300.0027444
300.0027519
300.002757
300.0027589
300.0027578
300.0027507
300.0027074
300.0023969
300.0027293
300.0025387
300.0027996
300.0028447
300.0028431
300.0028232
300.0027912
300.0027574
300.0027253
300.0026784
300.0026411
300.0025972
300.003013
300.0030719
300.0030452
300.0030551
300.0030188
300.0027833
300.0027422
300.0027208
300.0027126
300.0027136
300.0027227
300.0027388
300.0027586
300.0027688
300.0027791
300.0027864
300.0027906
300.0027929
300.0027972
300.0028096
300.0028249
300.0028296
300.0028236
300.0028571
300.002874
300.002876
300.0028628
300.0028347
300.0027928
300.0027476
300.0026754
300.0026202
300.0025275
300.0029516
300.0030572
300.0030816
300.0030869
300.0029705
300.0027543
300.0027191
300.0027228
300.0027196
300.002717
300.0027211
300.0027347
300.0027552
300.0027736
300.0027914
300.0028051
300.002813
300.0028155
300.002815
300.0028149
300.0028166
300.0028195
300.0028381
300.0028671
300.0028874
300.0029006
300.0028985
300.0028764
300.0028196
300.0027524
300.0026237
300.0024993
300.0024331
300.0029214
300.00302
300.0030136
300.0029699
300.0028522
300.0027549
300.0027533
300.0027504
300.0027381
300.0027259
300.0027217
300.0027294
300.0027477
300.0027697
300.0027926
300.0028114
300.0028224
300.0028242
300.0028169
300.0028005
300.0027777
300.002763
300.0027914
300.0028315
300.002857
300.0028831
300.0028875
300.0028859
300.002832
300.0027655
300.0026051
300.0022435
300.0025978
300.0028769
300.0029281
300.0029001
300.0028541
300.0027929
300.0027783
300.002785
300.0027753
300.0027557
300.0027346
300.0027203
300.0027189
300.0027314
300.0027528
300.002777
300.0027973
300.0028077
300.002804
300.0027824
300.0027438
300.0026969
300.0026792
300.0027695
300.0028136
300.0028189
300.002792
300.0028842
300.0028722
300.0028125
300.0026899
300.0024143
300.0020359
300.0047363
300.0028254
300.0028031
300.0027834
300.0027745
300.002773
300.0027845
300.0027866
300.0027732
300.0027501
300.0027232
300.0027014
300.002693
300.0027017
300.0027232
300.0027493
300.0027716
300.0027843
300.0027837
300.0027618
300.0026962
300.0025571
300.0025045
300.0027199
300.0027524
300.0027433
300.002758
300.0028135
300.0028264
300.0027975
300.0027433
300.0024973
300.0021325
300.0019764
300.0027922
300.0027172
300.0027172
300.0027355
300.0027476
300.0027541
300.0027466
300.0027296
300.0027064
300.0026818
300.0026627
300.0026566
300.0026663
300.0026878
300.0027132
300.0027343
300.0027461
300.002746
300.0027316
300.0027009
300.0026523
300.0026191
300.0026724
300.0026932
300.0027035
300.002733
300.0027739
300.0027877
300.0027676
300.0027252
300.0025841
300.0024962
300.002258
300.0027665
300.0026883
300.0026998
300.0027147
300.0027142
300.0027078
300.0026922
300.0026719
300.0026497
300.0026293
300.0026158
300.0026143
300.002626
300.0026471
300.0026703
300.0026892
300.0026996
300.0026996
300.0026888
300.0026691
300.0026431
300.0026206
300.002631
300.0026455
300.0026627
300.0026943
300.0027342
300.0027504
300.0027402
300.0027088
300.0026501
300.0026364
300.002529
300.002745
300.0026969
300.0027042
300.0026993
300.0026813
300.0026616
300.0026395
300.0026159
300.0025943
300.0025775
300.0025689
300.0025712
300.002584
300.0026033
300.0026233
300.002639
300.0026472
300.0026465
300.0026372
300.0026216
300.0026036
300.0025889
300.0025905
300.002602
300.002623
300.0026569
300.0026972
300.0027137
300.0027091
300.0026826
300.0026472
300.0026459
300.0026506
300.0027348
300.0027181
300.002712
300.0026879
300.0026552
300.0026238
300.0025953
300.002569
300.0025468
300.0025318
300.0025261
300.0025302
300.0025424
300.0025589
300.002575
300.002587
300.0025927
300.0025908
300.0025818
300.0025687
300.0025551
300.0025477
300.0025516
300.002563
300.0025866
300.0026218
300.0026624
300.002679
300.0026777
300.0026542
300.0026263
300.0026268
300.0026766
300.0027389
300.0027425
300.0027216
300.0026829
300.0026389
300.002598
300.0025622
300.0025322
300.0025089
300.0024935
300.0024879
300.0024912
300.0025013
300.0025147
300.0025273
300.0025364
300.0025396
300.0025357
300.0025258
300.002515
300.0025041
300.0025034
300.0025183
300.0025291
300.0025543
300.0025889
300.0026273
300.002647
300.0026491
300.0026282
300.0025996
300.0025958
300.002655
300.002754
300.0027665
300.0027328
300.0026824
300.0026289
300.002579
300.0025353
300.0024996
300.0024733
300.002457
300.0024502
300.0024517
300.0024599
300.0024717
300.0024835
300.002492
300.0024936
300.0024858
300.0024693
300.0024541
300.0024244
300.0024375
300.0024919
300.0025009
300.0025297
300.0025624
300.0025989
300.0026219
300.0026278
300.0026095
300.0025771
300.0025633
300.0026131
300.0027707
300.0027866
300.0027446
300.0026868
300.0026291
300.0025806
300.0025426
300.0025123
300.0024861
300.0024636
300.0024451
300.0024329
300.0024304
300.0024374
300.0024499
300.0024608
300.0024613
300.0024455
300.0024062
300.0023619
300.0022708
300.0022896
300.0024551
300.002476
300.0025148
300.0025443
300.0025809
300.0026067
300.0026164
300.0026018
300.0025659
300.0025386
300.002568
300.0027793
300.0027984
300.0027535
300.0026935
300.0026404
300.0026058
300.0025846
300.0025646
300.0025451
300.0025208
300.0024893
300.0024554
300.0024297
300.0024207
300.0024297
300.0024439
300.0024418
300.0024024
300.0022613
300.0020535
300.0025804
300.0020584
300.0023367
300.0024294
300.002506
300.0025351
300.0025752
300.0026018
300.0026151
300.0026051
300.002569
300.0025291
300.0025336
300.002777
300.0028029
300.0027603
300.0026999
300.0026489
300.0026201
300.0026054
300.0025929
300.0025816
300.0025637
300.0025331
300.0024919
300.0024495
300.00242
300.0024204
300.0024388
300.0024439
300.0024152
300.0022589
300.0019981
300.0027782
300.0020315
300.0023717
300.0024436
300.0025134
300.0025394
300.0025837
300.0026063
300.0026232
300.0026168
300.0025838
300.0025381
300.0025192
300.0027636
300.0028008
300.0027666
300.0027078
300.0026549
300.0026249
300.0026104
300.0025994
300.0025913
300.0025785
300.0025536
300.0025155
300.0024698
300.0024298
300.0024227
300.0024445
300.0024599
300.0024424
300.0023335
300.0022232
300.0019071
300.0022478
300.0024038
300.0024582
300.0025214
300.0025344
300.0025953
300.002615
300.0026388
300.002633
300.0026056
300.00256
300.002525
300.002739
300.0027906
300.0027719
300.0027189
300.0026615
300.002625
300.0026071
300.0025957
300.0025856
300.0025738
300.0025545
300.0025251
300.0024875
300.002451
300.0024428
300.0024642
300.0024851
300.0024817
300.0024187
300.0023689
300.002195
300.0023921
300.0024708
300.0024859
300.0025185
300.0025394
300.0025906
300.0026319
300.0026585
300.0026512
300.0026285
300.0025877
300.0025467
300.002702
300.0027683
300.0027715
300.0027324
300.0026738
300.0026253
300.0025995
300.0025869
300.0025775
300.0025654
300.0025513
300.0025331
300.00251
300.002487
300.0024835
300.002501
300.0025182
300.0025213
300.0024887
300.0024664
300.0024336
300.0024844
300.0025026
300.0024271
300.0023162
300.0026644
300.0023935
300.002604
300.0026627
300.002664
300.0026482
300.0026144
300.0025764
300.0026518
300.0027312
300.0027585
300.0027408
300.0026915
300.0026346
300.0025936
300.0025735
300.0025648
300.0025593
300.0025557
300.0025495
300.0025419
300.0025342
300.0025365
300.0025469
300.0025533
300.0025588
300.0025472
300.0025468
300.0025489
300.00255
300.0025246
300.0024444
300.0023041
300.0035996
300.0023465
300.0026029
300.0026698
300.0026741
300.0026638
300.0026371
300.0026057
300.0025943
300.0026832
300.0027292
300.0027332
300.0027033
300.0026524
300.0026002
300.0025644
300.0025483
300.0025449
300.0025487
300.0025558
300.0025631
300.0025687
300.0025759
300.0025812
300.0025792
300.0025876
300.0025939
300.0026066
300.0026171
300.0026111
300.002582
300.0024348
300.00225
300.0025537
300.0023156
300.0025751
300.0026901
300.0026835
300.0026759
300.0026534
300.0026268
300.0025559
300.0026377
300.0026868
300.0027026
300.0026902
300.0026569
300.0026117
300.002569
300.0025413
300.0025317
300.0025354
300.0025471
300.0025618
300.0025752
300.0025857
300.0025891
300.0025859
300.002599
300.002617
300.0026354
300.0026509
300.0026538
300.0026357
300.0025629
300.0025137
300.0023161
300.0025658
300.002638
300.0027059
300.0026973
300.0026796
300.0026594
300.0026353
300.0025609
300.0026091
300.002636
300.0026456
300.0026387
300.0026197
300.0025922
300.0025616
300.0025349
300.0025183
300.0025135
300.0025186
300.0025295
300.0025415
300.0025504
300.0025544
300.0025576
300.0025722
300.0025957
300.0026194
300.0026415
300.0026557
300.0026581
300.0026432
300.0026254
300.0025268
300.0026556
300.0026886
300.002698
300.0026949
300.002668
300.0026602
300.0026505
300.0028049
300.0027374
300.0027318
300.0027326
300.002761
300.0027766
300.0028011
300.0028001
300.0027591
300.0026967
300.0026421
300.0026136
300.0025997
300.0025864
300.0025758
300.0025762
300.0025892
300.0026118
300.0026412
300.0026759
300.0027141
300.0027504
300.0027783
300.0027961
300.0028211
300.0028421
300.0028154
300.0030344
300.0029823
300.0028525
300.0027227
300.0027166
300.0027614
300.002762
300.0027589
300.0027979
300.0028058
300.0027658
300.0027139
300.002677
300.002653
300.002629
300.0026012
300.0025786
300.0025714
300.0025812
300.0026059
300.0026444
300.0026937
300.0027453
300.002787
300.0028117
300.0028291
300.0028243
300.0028182
300.0025973
300.002676
300.0029038
300.0029338
300.0029085
300.0028671
300.002874
300.0027527
300.0029278
300.0030461
300.0028833
300.0027612
300.0028044
300.0028045
300.0027665
300.0027308
300.0027099
300.0026908
300.0026626
300.0026272
300.0025979
300.0025862
300.0025944
300.0026204
300.0026621
300.0027151
300.00277
300.002818
300.0028655
300.0029696
300.0028654
300.0028962
300.0028537
300.0029491
300.0029732
300.0029205
300.0028671
300.0028204
300.0029995
300.0028434
300.0026667
300.0026113
300.0025764
300.0026162
300.0027991
300.0027862
300.0027663
300.0027459
300.0027371
300.0027217
300.002692
300.0026538
300.0026219
300.0026077
300.0026124
300.0026325
300.0026651
300.0027067
300.0027517
300.0027955
300.00282
300.0028273
300.0028209
300.0028381
300.0028618
300.0029057
300.0028951
300.0028395
300.0027961
300.0027572
300.0027189
300.0030454
300.0029785
300.0029081
300.0027733
300.0022615
300.0023868
300.002775
300.0027477
300.0027533
300.0027476
300.0027497
300.0027387
300.0027104
300.0026734
300.0026428
300.0026283
300.0026294
300.0026414
300.0026607
300.0026866
300.0027176
300.0027534
300.0027823
300.0027833
300.0028006
300.0028213
300.0028426
300.0028593
300.0028381
300.0027714
300.0027385
300.0026958
300.0026744
300.003121
300.0030125
300.0028388
300.0022285
300.0004751
300.0015369
300.0025212
300.0026412
300.0027284
300.0027357
300.0027473
300.0027404
300.0027165
300.0026848
300.0026597
300.0026478
300.0026475
300.0026537
300.0026632
300.002677
300.0026958
300.0027119
300.0027358
300.0027592
300.00278
300.0027939
300.0028047
300.0028084
300.0027503
300.0027109
300.0027088
300.0026585
300.0026443
300.0031335
300.0030873
300.0030398
300.0022983
299.991822
300.0011854
300.0025785
300.0025027
300.0027027
300.0027159
300.0027314
300.0027297
300.0027143
300.0026923
300.0026758
300.0026685
300.002668
300.0026699
300.0026723
300.0026778
300.0026942
300.0026981
300.0027253
300.0027557
300.0027733
300.0027751
300.002766
300.0027451
300.0027013
300.002667
300.0026483
300.0026336
300.0026338
300.003122
300.0031349
300.0031115
300.0029878
300.0021175
300.0025404
300.0027339
300.0026484
300.0026926
300.0027057
300.002717
300.0027207
300.0027174
300.0027038
300.0026953
300.0026919
300.0026913
300.0026883
300.0026787
300.0026644
300.0026752
300.0026639
300.0027069
300.0027538
300.0027787
300.0027801
300.002765
300.0027369
300.0026999
300.0026699
300.0026468
300.0026327
300.0026278
300.0030216
300.0029901
300.0029939
300.0029127
300.002756
300.0025521
300.0026898
300.0026465
300.0026717
300.0026882
300.002702
300.0027121
300.0027196
300.002716
300.0027163
300.0027181
300.0027195
300.0027141
300.0026865
300.002605
300.0024037
300.002606
300.0026605
300.0027369
300.0027834
300.0027962
300.0027863
300.0027609
300.0027266
300.0026953
300.0026607
300.0026321
300.0026124
300.0029511
300.0029253
300.0029107
300.0028988
300.0028543
300.0027116
300.0026816
300.0026682
300.0026801
300.0026981
300.0027202
300.0027459
300.0027765
300.0027539
300.0027501
300.0027497
300.0027528
300.0027551
300.0027535
300.0027425
300.0027137
300.0027531
300.0027649
300.0027949
300.0028146
300.0028198
300.0028125
300.0027942
300.0027596
300.0027219
300.0026671
300.0026056
300.0025651
300.0029063
300.0029128
300.0029219
300.0029587
300.0028937
300.0027387
300.002679
300.0026771
300.0026877
300.0026994
300.0027114
300.0027256
300.0027427
300.0027459
300.0027549
300.0027643
300.0027733
300.0027791
300.0027799
300.0027738
300.0027623
300.0027719
300.0027808
300.0027996
300.002816
300.0028235
300.0028261
300.0028206
300.002784
300.0027352
300.0026539
300.0025143
300.0025364
300.0028792
300.0028806
300.0028775
300.0028987
300.0028293
300.00272
300.0026938
300.0027014
300.0027117
300.0027153
300.0027177
300.0027242
300.0027358
300.0027431
300.0027562
300.0027706
300.002783
300.0027906
300.0027912
300.0027847
300.0027733
300.0027648
300.0027656
300.0027776
300.002787
300.0027848
300.0027925
300.0028177
300.0027875
300.0027178
300.002552
300.0022657
300.0028571
300.0028486
300.0028154
300.0027919
300.0027884
300.0027474
300.0027081
300.0027123
300.0027284
300.0027322
300.002727
300.0027199
300.0027175
300.0027224
300.0027315
300.0027467
300.0027631
300.0027759
300.0027816
300.0027763
300.0027601
300.0027366
300.0027182
300.0027269
300.002737
300.0027318
300.0026752
300.0027575
300.0028061
300.0027974
300.0027308
300.0025512
300.0021213
300.0031588
300.0028007
300.002724
300.0026954
300.0026978
300.0026948
300.0026986
300.0027182
300.0027294
300.0027271
300.0027165
300.0027048
300.0026985
300.0027014
300.0027128
300.0027306
300.002748
300.0027599
300.0027654
300.0027602
300.0027442
300.0027238
300.0027459
300.0027153
300.0027116
300.0027132
300.0027258
300.002767
300.0027907
300.00278
300.0027412
300.0026119
300.0022895
300.0022849
300.0027462
300.002649
300.0026342
300.0026521
300.0026651
300.0026782
300.0026943
300.002697
300.0026904
300.0026791
300.0026686
300.0026639
300.0026685
300.0026816
300.0026999
300.0027165
300.0027277
300.0027321
300.0027268
300.0027119
300.0026896
300.0026705
300.0026703
300.0026758
300.0026874
300.0027088
300.0027453
300.0027622
300.0027535
300.0027277
300.0026675
300.0025588
300.0025018
300.0026935
300.0026147
300.0026179
300.0026344
300.0026408
300.0026453
300.0026498
300.0026448
300.0026355