/*--------------------------------*- C++ -*----------------------------------*\
  =========                 |
  \\      /  F ield         | OpenFOAM: The Open Source CFD Toolbox
   \\    /   O peration     | Website:  https://openfoam.org
    \\  /    A nd           | Version:  8
     \\/     M anipulation  |
\*---------------------------------------------------------------------------*/
FoamFile
{
    version     2.0;
    format      ascii;
    class       volVectorField;
    location    "1.3";
    object      U;
}
// * * * * * * * * * * * * * * * * * * * * * * * * * * * * * * * * * * * * * //

dimensions      [0 1 -1 0 0 0 0];

internalField   nonuniform List<vector> 
67286
(
(-0.3265874596 -0.8681202833 0.1806666275)
(-0.3993433103 -0.8521664732 -0.2217970293)
(-0.3211863483 -0.8580030495 -0.4654668004)
(-0.08822858262 -0.685547999 -0.4253218233)
(0.1313973061 -0.5518447692 -0.2144591154)
(0.2065191023 -0.4852571867 -0.04882090541)
(0.1827861131 -0.3888956399 0.07013735005)
(0.0908369845 -0.3013549471 0.1374552177)
(0.03851537772 -0.2626655277 0.1832272605)
(-0.01223440429 -0.2989918853 0.1665016926)
(-0.1414446519 -0.3412740481 0.1116503897)
(-0.2508535457 -0.35452093 0.08911409673)
(-0.3176503537 -0.3829818837 0.08967018393)
(-0.3670991437 -0.4048792376 0.101998211)
(-0.4061238594 -0.4090768521 0.1138187576)
(-0.4359085029 -0.3928313127 0.1223075665)
(-0.4565548685 -0.3643802979 0.1282310822)
(-0.4698917081 -0.3352341525 0.1288755809)
(-0.4783031994 -0.3153009836 0.1190077183)
(-0.483186236 -0.3107060092 0.09602834806)
(-0.4835760502 -0.3192943322 0.06718230464)
(-0.480683203 -0.328091934 0.05192947225)
(-0.4870441987 -0.322032078 0.05472021257)
(-0.5107771278 -0.2993809734 0.02398926988)
(-0.5354542954 -0.3063455887 -0.06890979203)
(-0.4692695477 -0.3140198321 -0.1920198924)
(-0.2948576288 -0.2646068116 -0.3387824065)
(-0.1569155753 -0.2075956978 -0.3039210807)
(-0.5015580441 -0.7593705815 0.01463651837)
(-0.5685477807 -0.7117645866 -0.5538480399)
(-0.4669770918 -0.6672851934 -0.8841219815)
(-0.1018228812 -0.5220153339 -0.6848331933)
(0.1831676837 -0.4656691738 -0.3874364934)
(0.2982936436 -0.4298749217 -0.1874425675)
(0.2934604918 -0.3910837932 -0.02338595221)
(0.1811563039 -0.3552602438 0.08887006278)
(0.06927161771 -0.3231823046 0.1507696496)
(-0.08335807524 -0.3255874691 0.1269072953)
(-0.1884301208 -0.3510012153 0.07338864086)
(-0.2638705074 -0.3899683169 0.05591588892)
(-0.3169652459 -0.437496267 0.06241137206)
(-0.3663758646 -0.4782718656 0.07650198763)
(-0.4132223265 -0.4983292862 0.08563812876)
(-0.4541700009 -0.4952752473 0.08911489292)
(-0.4876887978 -0.4768361767 0.0889293347)
(-0.5142928748 -0.4514126001 0.07969085138)
(-0.5318386693 -0.4253716491 0.052504248)
(-0.5339421426 -0.4040045753 0.00649615392)
(-0.5144166573 -0.3890354887 -0.03957249225)
(-0.4826055613 -0.3765710139 -0.04826955272)
(-0.4702289127 -0.357699139 -0.006683177805)
(-0.4979427695 -0.3086355323 -0.01436803678)
(-0.5293736311 -0.2463107319 -0.1647787202)
(-0.3990209993 -0.2069357951 -0.3697228475)
(-0.2330153038 -0.09923452633 -0.2185244553)
(-0.03115546172 -0.05291563906 -0.2785584512)
(0.2200007537 0.05425033876 -0.2632985449)
(0.3689739684 0.01605255564 -0.1941582188)
(0.4591962983 -0.041362789 -0.1520087013)
(0.4971617517 -0.1047232012 -0.1184599902)
(-0.7476149772 -0.1836749127 -0.2513078235)
(-0.7463241364 -0.1614134952 -1.054671376)
(-0.6213001573 -0.09313406396 -1.472366117)
(-0.04552195393 -0.1511313858 -1.010618593)
(0.2434470095 -0.2437709282 -0.517794108)
(0.3686176961 -0.2755744996 -0.2473061595)
(0.344819928 -0.289491551 -0.0612283507)
(0.2121524329 -0.3021274875 0.06850414533)
(0.04585468078 -0.310483943 0.1369279236)
(-0.1295850093 -0.3270465027 0.09457088121)
(-0.21778737 -0.3616343789 0.04386155338)
(-0.2781600039 -0.4097472642 0.03002801361)
(-0.3243263576 -0.4683945916 0.03869462376)
(-0.3725303816 -0.5206610111 0.05164263959)
(-0.4224571675 -0.5514989818 0.0577589967)
(-0.4680671523 -0.5581964617 0.05882227688)
(-0.5069836714 -0.5464972404 0.05761962209)
(-0.5388786106 -0.5206737666 0.0480975877)
(-0.5590001099 -0.4832571464 0.02037375368)
(-0.5557568838 -0.4379977518 -0.02826183398)
(-0.5164729761 -0.3898070023 -0.0818640092)
(-0.4561179639 -0.3521139514 -0.1031481951)
(-0.4105496903 -0.3315634953 -0.0434029667)
(-0.427600722 -0.2654872849 0.03936129156)
(-0.5094576626 -0.1531635929 -0.04818202339)
(-0.3267295577 0.001068050573 -0.4075420634)
(-0.1851289771 0.06209509931 -0.1456562204)
(-0.08718060367 0.07673168628 -0.263106395)
(0.1996800923 0.07050516841 -0.3505575596)
(0.3868495842 0.0358087028 -0.271897719)
(0.5033539469 -0.008461425831 -0.1782491499)
(0.5411909708 -0.06346208685 -0.09326195717)
(-0.2760147059 0.4629498896 0.2513833666)
(-0.4331199518 0.4916202149 -0.2730486437)
(-0.3679394118 0.4902679286 -0.7209118792)
(-0.06989745093 0.2440881119 -0.4935004796)
(0.1286070784 0.03122669243 -0.1974010272)
(0.2301778924 -0.1005472954 -0.04035876972)
(0.1990370787 -0.2061334236 0.03695938592)
(0.09900886785 -0.2633047971 0.09755770334)
(-0.06458996555 -0.2916782719 0.1198105613)
(-0.192487687 -0.3143119374 0.06237686632)
(-0.2633041718 -0.3567861481 0.02279065971)
(-0.3081990799 -0.4119449338 0.01296044883)
(-0.3460294726 -0.4765856013 0.01997705497)
(-0.3887423442 -0.5353467479 0.02838484229)
(-0.4341257287 -0.5735667492 0.03105729518)
(-0.4754809823 -0.5886726427 0.03211231882)
(-0.5106766004 -0.5848791173 0.03548477323)
(-0.5398442896 -0.5642865239 0.03808599295)
(-0.5593271646 -0.5275211442 0.03303243418)
(-0.5580161629 -0.4770975279 0.01254101965)
(-0.5214281219 -0.4185834356 -0.02945018937)
(-0.4508900176 -0.3623084417 -0.08237489975)
(-0.3607867139 -0.3377019478 -0.0808317047)
(-0.3376258252 -0.2973268948 0.08209874507)
(-0.3842301875 -0.2046609898 0.1062989029)
(-0.3371371299 -0.01811472585 0.06015459493)
(-0.2165721563 0.01554919225 -0.01123350607)
(-0.06991302358 0.0657810139 -0.1114997608)
(0.1824306291 0.0944310739 -0.2023264019)
(0.3247041354 0.09631268132 -0.10397704)
(0.4044185178 0.03624654052 0.00108208329)
(0.4310187632 -0.05023005391 0.0146064224)
(0.4383651588 -0.144201429 0.04263528158)
(-0.1151087921 -0.06682017912 0.4625317942)
(-0.171978216 0.1354736315 0.2510796268)
(-0.151746001 0.4100780957 -0.1467764647)
(0.03114733771 0.1544878026 -0.1988697476)
(0.1820554083 -0.1589617305 -0.01620875116)
(0.244010778 -0.2276307102 0.06130884004)
(0.1788399537 -0.2501476007 0.07763376751)
(0.04133653563 -0.26399994 0.1227627964)
(-0.133002351 -0.276501402 0.1034581297)
(-0.2508525374 -0.3029471415 0.04560873161)
(-0.3143041024 -0.345413866 0.01327977204)
(-0.3514736678 -0.4021705219 0.003695359163)
(-0.3816819166 -0.4680543737 0.004985653166)
(-0.4153902433 -0.5291829373 0.006634418346)
(-0.4504886296 -0.5726361936 0.005998270808)
(-0.4818824273 -0.5963388903 0.007571045599)
(-0.5084395656 -0.6037631082 0.01454348299)
(-0.5309903253 -0.5965306291 0.02535607941)
(-0.5478313203 -0.5743712403 0.03459696726)
(-0.5493375739 -0.5360736653 0.03012033226)
(-0.5167591007 -0.4783873281 -0.004670078911)
(-0.4496195625 -0.3898875166 -0.06495301063)
(-0.3306805075 -0.3310869087 -0.1160488378)
(-0.282882492 -0.3683413962 0.06864364265)
(-0.3243136744 -0.3051440808 0.08721926087)
(-0.2795888683 -0.2203692753 0.07898029363)
(-0.1876675063 -0.1483216156 0.03281373792)
(-0.09146149252 -0.1081417401 -0.06804219485)
(0.1652521852 -0.006929693183 -0.2049956812)
(0.3303097273 -0.04300668107 0.02986281963)
(0.3855836335 -0.1645566981 0.08265244151)
(0.4122105018 -0.2123698762 0.1331960585)
(0.3879612386 -0.2714327883 0.1345704668)
(-0.136752338 -0.2092184173 0.2572306393)
(-0.1403544965 -0.09724072482 0.1260085239)
(-0.09026917887 0.2114069897 0.1492333968)
(0.003347416913 0.1277339097 -0.009224487967)
(0.1149647044 -0.2235901871 -0.06801926492)
(0.262663589 -0.08535002825 -0.02182316096)
(0.1677309454 -0.1747947373 0.08117738063)
(-0.05243550491 -0.2020025317 0.1261664904)
(-0.2114794293 -0.2426812464 0.08465649276)
(-0.3243486276 -0.2824805221 0.03786196601)
(-0.3801034841 -0.3297839749 0.01158745132)
(-0.4097316042 -0.3864430491 -0.001548863275)
(-0.4299279372 -0.4489888687 -0.008587291912)
(-0.4509605732 -0.5077829732 -0.01377161935)
(-0.4724363711 -0.5529486806 -0.01689201564)
(-0.4919796655 -0.5827553076 -0.0153419199)
(-0.5093521501 -0.5998697373 -0.008477507945)
(-0.5246837931 -0.6058934002 0.0007807286493)
(-0.5352335471 -0.6018142527 0.004485143142)
(-0.5271232101 -0.5873540046 -0.01179891315)
(-0.4674994909 -0.5599254313 -0.04269379745)
(-0.3978797522 -0.4812104483 0.01567564274)
(-0.3363298924 -0.4273137698 0.01673968604)
(-0.2781402602 -0.4254676441 0.01032669684)
(-0.2566236708 -0.3711737177 0.02374938343)
(-0.202867675 -0.3035254303 0.03856299202)
(-0.1437578027 -0.2251751527 0.006370911831)
(0.0009875620297 -0.1423081611 -0.1244746301)
(0.1776947092 -0.09962426743 0.05449101874)
(0.2009684231 -0.1827847113 0.1057072886)
(0.3001052355 -0.2221139791 -0.0967933699)
(0.3681148782 -0.3092391224 0.05630205581)
(0.3285209521 -0.368135453 0.0911696313)
(-0.2237105023 -0.4003970897 -0.07109442594)
(-0.2301161535 -0.2065032532 -0.2452441391)
(-0.1320923444 0.01853294378 -0.03854401966)
(-0.1332848632 0.1357401311 0.0005844656793)
(0.1598115039 0.09971658145 -0.2405521761)
(0.306874859 0.01756404483 0.1331669534)
(-0.0357407718 -0.1153512292 0.1464234173)
(-0.1838877187 -0.1664126386 0.1352599593)
(-0.331137736 -0.2272563721 0.07936584098)
(-0.4154987429 -0.2739249774 0.0399917447)
(-0.4593536333 -0.322140873 0.01246793792)
(-0.478344483 -0.3734950697 -0.007698754564)
(-0.4849635202 -0.4257504332 -0.02278574196)
(-0.4906248145 -0.475812449 -0.03269287332)
(-0.4971385354 -0.5172052223 -0.03713046003)
(-0.5051931188 -0.5478965079 -0.03578393189)
(-0.5159427647 -0.5686976862 -0.029538089)
(-0.5302755861 -0.5805989454 -0.02245480114)
(-0.5453587676 -0.583619106 -0.02840870718)
(-0.5402232596 -0.5805284668 -0.08048167569)
(-0.4334446508 -0.5933716079 -0.2009835648)
(-0.3277303325 -0.5168680758 -0.02964280527)
(-0.3046033073 -0.4921103331 -0.02939528295)
(-0.2364367234 -0.450780656 -0.05093702382)
(-0.1879992679 -0.4118531476 -0.04640346869)
(-0.1135735156 -0.3767040738 -0.01902182479)
(-0.05035032711 -0.3404065376 0.004384253167)
(0.06230474924 -0.2689776869 0.03556427312)
(0.1601401279 -0.29521733 0.06465623905)
(0.2144464864 -0.3287724446 0.06060956021)
(0.2575576226 -0.3245696817 0.06976015923)
(0.265608017 -0.3954026659 0.07455918038)
(0.2529842199 -0.4356994456 0.05067463476)
(-0.315312147 0.1771218242 -0.4109299774)
(-0.242046059 0.2410759586 -0.6161776353)
(-0.05448202521 0.2382722908 -0.4224145898)
(0.14815112 0.1806089969 -0.09765892702)
(0.2137202359 0.2786025847 0.06322276191)
(0.07732552612 0.004413434134 0.2163629622)
(-0.1629471178 -0.09252984011 0.1768113857)
(-0.3189967403 -0.1759824913 0.1191008624)
(-0.4331954563 -0.2348331515 0.07255472627)
(-0.5025354989 -0.2821630369 0.03612960839)
(-0.5356598669 -0.3245819182 0.006054137329)
(-0.5438324871 -0.364271883 -0.01880287651)
(-0.5381692424 -0.4024487851 -0.03761444158)
(-0.5294941927 -0.4395673039 -0.04954363898)
(-0.5222325808 -0.4721958279 -0.05500989501)
(-0.5191929488 -0.4979213383 -0.05472827336)
(-0.5229191883 -0.5153819334 -0.0496316364)
(-0.5366355595 -0.5232918707 -0.04167962675)
(-0.5658318773 -0.5188761586 -0.0415343018)
(-0.6062111439 -0.4916214927 -0.1177187849)
(-0.4388609306 -0.416641812 -0.6439059125)
(-0.2286163151 -0.4810452265 -0.06415784614)
(-0.2762649609 -0.4935227744 -0.06771317488)
(-0.1949546434 -0.4217287518 -0.0944545495)
(-0.1450938224 -0.3948948255 -0.09911633781)
(-0.0661340053 -0.3784425429 -0.08153716209)
(6.969786185e-05 -0.368956148 -0.05624718151)
(0.08354277402 -0.3658205219 -0.02034802546)
(0.1503930781 -0.3809024715 -0.009521085912)
(0.1912427633 -0.3988226701 -0.0189899372)
(0.2322817759 -0.4285583911 0.003190848134)
(0.2339670528 -0.4553785258 0.02562936095)
(0.2352745969 -0.4967248911 0.03224487525)
(-0.2691914435 0.5479511415 -0.2048173518)
(-0.1977014592 0.4350708744 -0.443118278)
(0.03120665514 0.3016539102 -0.1571761949)
(0.06331248832 0.1524512321 0.08410267574)
(0.02026575666 0.1462961467 0.1801588638)
(-0.1449550918 0.007457987384 0.2200151312)
(-0.3246566262 -0.1214489105 0.1524837371)
(-0.4442489969 -0.1962346368 0.09536465488)
(-0.526622795 -0.253546474 0.05344741637)
(-0.5748008796 -0.2948346306 0.01973941776)
(-0.5950330176 -0.3260083129 -0.009273002257)
(-0.5928541635 -0.3502091173 -0.0338261926)
(-0.5784932431 -0.3728490535 -0.05266386235)
(-0.5595803448 -0.3951914751 -0.06512355017)
(-0.5417428262 -0.4159634127 -0.07179537629)
(-0.5283436611 -0.4326978237 -0.07345907328)
(-0.5218153122 -0.4422998321 -0.07108155756)
(-0.5245032552 -0.440474879 -0.06618040679)
(-0.5406626623 -0.4202525504 -0.06284860584)
(-0.5836409814 -0.3674468503 -0.07245569557)
(-0.4033333921 -0.2626881861 -0.1070733399)
(-0.2791237378 -0.3615199128 -0.0973610357)
(-0.2575634281 -0.3151216007 -0.1791948771)
(-0.1295932097 -0.3290827047 -0.1254241497)
(-0.1204318245 -0.3201311181 -0.1303074991)
(-0.04824018861 -0.3218518795 -0.1250484322)
(0.01640466626 -0.3269661995 -0.1086106794)
(0.08047848583 -0.3397420466 -0.08490196283)
(0.130412518 -0.3631936267 -0.07458574446)
(0.1677754568 -0.3775204714 -0.07740173641)
(0.2136024429 -0.4265583714 -0.04100247158)
(0.2044624399 -0.4558125032 0.0003312087712)
(0.2290887514 -0.5645773275 0.03969182562)
(-0.1888025854 0.641285246 0.05830745431)
(-0.1418487965 0.5195703045 -0.2195590754)
(-0.04321790717 0.1805019942 -0.0235822031)
(-0.1066103376 0.03037584516 -0.004629364367)
(-0.1472968204 0.01083958478 0.0809437072)
(-0.2599441025 -0.08966574808 0.1614414319)
(-0.4187923755 -0.1736739392 0.1201985998)
(-0.5177376058 -0.2243883146 0.06149997951)
(-0.5832467051 -0.2663355001 0.02402695586)
(-0.6175342165 -0.2946487413 -0.004301321669)
(-0.6276987605 -0.3108458694 -0.02877497696)
(-0.6200263861 -0.3204973843 -0.05040435263)
(-0.6009757252 -0.3285021629 -0.06810768323)
(-0.5767037862 -0.3370055098 -0.08040375867)
(-0.5523765986 -0.3458078315 -0.08811175666)
(-0.5306386857 -0.3529391467 -0.09168895783)
(-0.512875086 -0.355187231 -0.09176637234)
(-0.4989302575 -0.3481360832 -0.08931594074)
(-0.4860613665 -0.3256478536 -0.08623703573)
(-0.4644236168 -0.2767105761 -0.0859322296)
(-0.3877816959 -0.1691254287 -0.09100521222)
(-0.3116019304 -0.235261698 -0.1080564594)
(-0.2561187044 -0.1641596306 -0.1241255878)
(-0.1853000574 -0.2015000214 -0.1394543721)
(-0.1301410709 -0.2021544684 -0.1512814419)
(-0.06198151847 -0.2141911321 -0.1550722582)
(0.001156737556 -0.2246853287 -0.1470709313)
(0.05702730273 -0.2528171975 -0.1284589163)
(0.1053334357 -0.2899893878 -0.1118694439)
(0.1334010335 -0.3165559412 -0.09482639417)
(0.185487114 -0.4056571006 -0.03052709392)
(0.1378494038 -0.44404789 0.01177923639)
(0.2070583713 -0.6851541386 0.03534891365)
(-0.1678724685 0.5089586926 0.1483211929)
(-0.1421501262 0.4406313472 -0.09971957597)
(-0.1577892642 0.2294999976 -0.1411003717)
(-0.1675310594 0.1601807435 -0.1589542196)
(-0.1618723886 0.06915478669 -0.06293734908)
(-0.2671490339 -0.06901312636 0.1133796028)
(-0.4645988053 -0.1592081442 0.08381225345)
(-0.5541624698 -0.2162094893 0.02262208804)
(-0.6081806138 -0.2507621275 -0.009050968231)
(-0.6311054356 -0.2672031032 -0.02983338936)
(-0.6357194363 -0.2717014332 -0.04785451027)
(-0.6266135193 -0.2693392844 -0.06517964589)
(-0.6072628821 -0.2645971415 -0.08107344237)
(-0.5820815199 -0.2607983108 -0.09382929038)
(-0.5549759261 -0.258440278 -0.1031087857)
(-0.5282583373 -0.2563223817 -0.1089752683)
(-0.5031626986 -0.2520090257 -0.1116842131)
(-0.4796125715 -0.2425509924 -0.1118442119)
(-0.4552723352 -0.2254031646 -0.1109236906)
(-0.4227468214 -0.199032427 -0.1112995611)
(-0.3622058529 -0.1647579378 -0.1148313513)
(-0.2929025265 -0.1536166829 -0.126766406)
(-0.2362149483 -0.1064725651 -0.1418867121)
(-0.1874483594 -0.08633293982 -0.1607241843)
(-0.1432257153 -0.07736790686 -0.1733636018)
(-0.08117609255 -0.0864545114 -0.1776084746)
(-0.02706640928 -0.09491757082 -0.1731715133)
(0.01193597945 -0.1317328102 -0.1587036021)
(0.06336654079 -0.181369555 -0.1232882219)
(0.06741672853 -0.2297758844 -0.07057026624)
(0.1195284284 -0.3486242906 0.03544252848)
(-0.01716861547 -0.4021553714 0.03433128338)
(0.1617144833 -0.8137763021 -0.2032015748)
(-0.1921344922 0.448350653 0.09878397211)
(-0.2013256155 0.4135769835 -0.1012169289)
(-0.247192611 0.2907373723 -0.141315394)
(-0.2406085009 0.2092625333 -0.0855140991)
(-0.2745742 0.09339158409 0.0402545992)
(-0.4139362975 -0.031936095 0.07745461964)
(-0.5234390104 -0.1163901605 0.01316954993)
(-0.5805858732 -0.1723486531 -0.02799167263)
(-0.6095575531 -0.1974284161 -0.04772961014)
(-0.6228222312 -0.2066530143 -0.05884726967)
(-0.6244582211 -0.2035987175 -0.06841829621)
(-0.6161942718 -0.1928644048 -0.08005174739)
(-0.5991647314 -0.1793533927 -0.09354155738)
(-0.5755606364 -0.1667346577 -0.1064960922)
(-0.5481673873 -0.1562634004 -0.1173440978)
(-0.5189855911 -0.1473622183 -0.1254332009)
(-0.4894469708 -0.1384341733 -0.1303762243)
(-0.460944679 -0.1276196595 -0.132061765)
(-0.43394195 -0.1129803267 -0.1307857521)
(-0.4045652661 -0.09262999828 -0.1274180846)
(-0.3583683676 -0.06641090506 -0.1226109381)
(-0.2900918213 -0.03773675348 -0.1192237644)
(-0.2358308998 0.05148278309 -0.1268784828)
(-0.2038822322 0.1058557681 -0.1269145805)
(-0.1767426464 0.1048217875 -0.1288453421)
(-0.1275652313 0.07509160938 -0.1335174213)
(-0.09027798755 0.09037973328 -0.1207388924)
(-0.0651646381 0.02442757771 -0.1417397697)
(0.008431438917 -0.0800982196 -0.1205654792)
(-0.009871363047 -0.201678913 -0.05922467176)
(-0.001096386959 -0.384249163 0.03504308519)
(-0.1982218111 -0.4900086732 -0.2025793532)
(0.1206001661 -0.9793278026 -1.167795689)
(-0.1977908235 0.4791355846 0.093496187)
(-0.2421759497 0.4345827585 -0.08276451442)
(-0.3060904351 0.3490550771 -0.09367725499)
(-0.3282531686 0.2435074705 -0.01113339998)
(-0.4050048882 0.1059545372 0.04603902049)
(-0.5025822243 -0.004286323738 -0.0005327357169)
(-0.552155253 -0.06554558032 -0.05149826901)
(-0.579561697 -0.09941790534 -0.07788989054)
(-0.5940843308 -0.1156007439 -0.08785496987)
(-0.6005086181 -0.1181971765 -0.08959184897)
(-0.6017903794 -0.1106613969 -0.09012352294)
(-0.5976288074 -0.0959377209 -0.09475046859)
(-0.5861920083 -0.07693864122 -0.1041809762)
(-0.5667238371 -0.05576437768 -0.1151233413)
(-0.5406298607 -0.03431360609 -0.124879551)
(-0.5103406556 -0.01445897388 -0.1327209611)
(-0.4784210093 0.004409737091 -0.1379508589)
(-0.4476006149 0.02204347204 -0.1400737565)
(-0.4209570705 0.03529655232 -0.1393503796)
(-0.4015048139 0.03328235358 -0.137547258)
(-0.3827248658 -0.005773289879 -0.1336850082)
(-0.327898151 -0.01105417549 -0.1144695247)
(-0.2748847958 0.1614726292 -0.06474784705)
(-0.2415814452 0.1906839657 0.003418086097)
(-0.2574783798 0.2000319983 0.02229875933)
(-0.1998681399 0.1810721702 0.02495976539)
(-0.1788643136 0.1710346793 0.009868006773)
(-0.2061072707 0.1189463911 -0.05760737502)
(-0.1999458145 0.06499914906 -0.03231787016)
(-0.3465558181 -0.01282167552 0.06162031316)
(-0.6963818347 -0.06369216232 -0.1151401616)
(-1.003781269 0.1434911878 -1.32497625)
(0.09147568711 0.5749950197 -3.592685117)
(-0.1738231953 0.4983816358 0.1428868406)
(-0.2518704767 0.4301588909 -0.0005430849458)
(-0.3391857763 0.3438476157 -0.0132890827)
(-0.3968932906 0.2310378437 0.01931653534)
(-0.4792636372 0.1272156854 -0.005064649137)
(-0.5368931733 0.06591041156 -0.064519618)
(-0.5608279762 0.03080992498 -0.09852424708)
(-0.5724008491 0.01288077777 -0.1138718924)
(-0.5756913197 0.008168760944 -0.116125401)
(-0.5759538693 0.01207331868 -0.1090421205)
(-0.5760192908 0.02263022041 -0.09909215647)
(-0.5750200933 0.03859532675 -0.09428065971)
(-0.568562837 0.05759105192 -0.09817901787)
(-0.552775627 0.07644983661 -0.107239399)
(-0.527664062 0.0945955935 -0.1163512715)
(-0.495936115 0.1138152055 -0.1233050593)
(-0.4617115975 0.1343573512 -0.1270006138)
(-0.4311839173 0.1566996509 -0.1261036155)
(-0.4160298649 0.1809260305 -0.1189604879)
(-0.4379201726 0.2043209902 -0.1096238437)
(-0.4484836653 0.2088606047 -0.1515549551)
(-0.558636977 0.1238099857 -0.6040453263)
(-0.1517246922 0.2161481692 -0.06214447962)
(-0.2318320938 0.2228881556 0.06317495112)
(-0.2293918338 0.218200189 0.07534700329)
(-0.233763666 0.2243071748 0.07216999428)
(-0.2416359087 0.190545075 0.007739873521)
(-0.2143222979 0.200000415 -0.06829895787)
(-0.1581804836 0.2111623522 -0.07107551197)
(-0.2168116146 0.2366115211 -0.01098088732)
(-0.291066489 0.3117603768 0.07400718088)
(-0.7200565691 0.5060594326 -0.2772434809)
(0.03004521565 1.062468555 -1.647623422)
(-0.1309949469 0.4678010102 0.1917644204)
(-0.2430345201 0.3898376789 0.09646493485)
(-0.362155712 0.3106828665 0.05671685067)
(-0.4517570695 0.2244050432 0.02704812836)
(-0.5317859825 0.1662253528 -0.02646111958)
(-0.5727040622 0.1373092793 -0.07091588284)
(-0.5891282112 0.1263369031 -0.09543697812)
(-0.5934561366 0.1258387813 -0.106121921)
(-0.5900610783 0.1297815919 -0.1059248287)
(-0.5839510242 0.1359262245 -0.09791795125)
(-0.5781502248 0.1441869189 -0.08793967227)
(-0.571841176 0.1552007174 -0.0833350827)
(-0.5606333603 0.1692599538 -0.08735766918)
(-0.5407725229 0.1860292522 -0.09654251468)
(-0.512125209 0.205060442 -0.1058226055)
(-0.4763278208 0.2261581187 -0.1129449448)
(-0.4355024628 0.2494955513 -0.1169781082)
(-0.3924686676 0.2762534998 -0.1169919254)
(-0.3500446623 0.3091482743 -0.1120496461)
(-0.3109160551 0.3539498307 -0.103289004)
(-0.2660035283 0.4220459216 -0.098160212)
(-0.2288595283 0.4394415467 -0.1221158436)
(-0.18069516 0.2960752163 -0.0429623378)
(-0.1898593177 0.2892044639 0.01599645928)
(-0.2092584694 0.2657536614 0.02935771184)
(-0.2254369296 0.2438732734 0.01006076674)
(-0.2329333746 0.2408006328 -0.03801712994)
(-0.2070420369 0.2617970156 -0.08240554623)
(-0.1546304222 0.2767590967 -0.07595348453)
(-0.1781561691 0.2788670592 -0.02286470118)
(-0.1602087737 0.3375826534 0.08478139366)
(-0.3755431209 0.4107385847 0.05615138952)
(-0.02489678056 1.085023662 -0.2805719905)
(-0.09797264488 0.3930230085 0.2065004635)
(-0.2399581251 0.3307220913 0.150793719)
(-0.383086603 0.2809699014 0.08568879425)
(-0.4863367538 0.2364494967 0.02564299807)
(-0.5611332181 0.2140810678 -0.02707140444)
(-0.598195023 0.2073129772 -0.0603651658)
(-0.613118384 0.2105997139 -0.07815280884)
(-0.6146836274 0.2187719327 -0.08526778253)
(-0.6076439268 0.2276093035 -0.08424688634)
(-0.5968940339 0.2360099346 -0.07793581712)
(-0.5854076153 0.24470488 -0.07130168838)
(-0.5728176025 0.2549911084 -0.06995844464)
(-0.5556684819 0.2678173197 -0.07575356991)
(-0.5307945285 0.2835217745 -0.08529272704)
(-0.4978336758 0.3020402098 -0.09438230541)
(-0.457967636 0.3229637003 -0.1012923857)
(-0.4128826886 0.3457612344 -0.1052225318)
(-0.3650710061 0.3702292751 -0.1052772571)
(-0.3173857804 0.3960719083 -0.1005570047)
(-0.2724482006 0.4221247411 -0.09103354708)
(-0.2268300224 0.4451854142 -0.07783333645)
(-0.1780529783 0.4438926055 -0.06220072036)
(-0.156176574 0.3963730559 -0.03730735002)
(-0.1703138874 0.3669661948 -0.0101415261)
(-0.193863231 0.3405677588 -0.004586833479)
(-0.2116062946 0.3207540621 -0.02729352673)
(-0.2142366629 0.3206399042 -0.06145636478)
(-0.1898405677 0.3396159106 -0.08510413104)
(-0.1459651352 0.3537188834 -0.0743072054)
(-0.1523613127 0.3518598719 -0.03361148872)
(-0.1333898749 0.3884131843 0.03366832787)
(-0.2659366719 0.3828688113 0.04217009575)
(-0.09002337812 0.6955251383 0.06281303911)
(-0.09546396169 0.3197131293 0.1955308882)
(-0.2525375466 0.2840427647 0.1539910688)
(-0.4001260369 0.2658185171 0.08596890364)
(-0.5023645176 0.2535973369 0.0279850523)
(-0.5732561211 0.2540731559 -0.01479416558)
(-0.6121088693 0.2622732965 -0.04093322839)
(-0.6287672481 0.2739246159 -0.05418697259)
(-0.6314074687 0.286935935 -0.05888678496)
(-0.6239505018 0.2982925178 -0.05782369322)
(-0.6106720606 0.3079802003 -0.05397090139)
(-0.5943787599 0.3174680614 -0.05137397039)
(-0.5753587508 0.3284446501 -0.05373749313)
(-0.5515993598 0.3420510059 -0.06150331596)
(-0.5211149446 0.3586330242 -0.07150050655)
(-0.4836803965 0.3779446029 -0.080468847)
(-0.440174001 0.3993240319 -0.08714424214)
(-0.3921433604 0.4219805471 -0.09078260117)
(-0.3422051557 0.4451623098 -0.09036107687)
(-0.2934785561 0.4677065562 -0.08486677622)
(-0.2486914953 0.4876316833 -0.0743080884)
(-0.2076788747 0.5014751564 -0.06043284822)
(-0.1716411018 0.5032858902 -0.04529444531)
(-0.1581832073 0.4753460257 -0.02819167464)
(-0.17082818 0.4448215051 -0.01394136362)
(-0.1922161286 0.4189867812 -0.01633746449)
(-0.205982273 0.402967995 -0.03936284064)
(-0.2025607847 0.4032880552 -0.06550348727)
(-0.1790380604 0.4160464169 -0.07781412066)
(-0.1462378788 0.4238608786 -0.06469883806)
(-0.1473593541 0.4188886102 -0.03107578053)
(-0.1502835031 0.4397808665 0.003498861123)
(-0.2299430179 0.427949986 -0.01237311075)
(-0.1412398686 0.5675842864 -0.01541679279)
(-0.1060736522 0.2770580137 0.1801452464)
(-0.2635455341 0.2586115808 0.1382820091)
(-0.4065830351 0.2592359318 0.08255422038)
(-0.5049623784 0.2667563415 0.03834810989)
(-0.5752813417 0.2815506311 0.007086867027)
(-0.6187142187 0.2993259809 -0.01226013099)
(-0.6402229392 0.3155026504 -0.02163030418)
(-0.6447435018 0.3282066353 -0.02440251051)
(-0.63702652 0.3383062233 -0.02412953823)
(-0.6209136395 0.3473621699 -0.02389314267)
(-0.5995669174 0.3577681864 -0.02636528228)
(-0.5742704252 0.3711750751 -0.03308720452)
(-0.5444520047 0.3880390262 -0.04325485057)
(-0.5091078483 0.4077884993 -0.05407729274)
(-0.4680278213 0.4295681468 -0.06322241647)
(-0.4218630003 0.4525737394 -0.06983144298)
(-0.3723252591 0.4759483273 -0.07310048209)
(-0.3225251821 0.4986022745 -0.07169659248)
(-0.2761348308 0.518789132 -0.06423502655)
(-0.2361478841 0.5347295621 -0.05061711319)
(-0.1986043997 0.5425884724 -0.03369909384)
(-0.1700701683 0.5445928986 -0.02267395664)
(-0.1654748525 0.5310197863 -0.01072176083)
(-0.1794305506 0.5071098229 -0.006038407688)
(-0.1978709329 0.4868206848 -0.01565642802)
(-0.2066526142 0.4754367095 -0.03868873415)
(-0.1983436802 0.476258462 -0.05989961192)
(-0.175721874 0.4844701921 -0.06636255155)
(-0.1517004308 0.4891421981 -0.05225991207)
(-0.1545743595 0.4883418887 -0.02387047163)
(-0.1772423389 0.5043143209 -0.01112660356)
(-0.2269467179 0.5071397196 -0.04863371375)
(-0.1766317238 0.5765983971 -0.09960609036)
(-0.1103699475 0.253830779 0.1675393517)
(-0.2600602985 0.2444776117 0.1246077896)
(-0.3984494341 0.2516932661 0.08351657219)
(-0.4952832737 0.2669820939 0.05324968352)
(-0.5685697911 0.2856638935 0.03332993425)
(-0.6184554306 0.3023569245 0.02236840644)
(-0.6468038559 0.313671886 0.01824793913)
(-0.6554090563 0.320626576 0.01772834073)
(-0.6474500856 0.3275588753 0.01708734703)
(-0.6271714446 0.3385027557 0.01340784013)
(-0.5991751168 0.3550229757 0.005520312046)
(-0.5668264014 0.376723814 -0.005993587321)
(-0.5313830936 0.4021003929 -0.01921483575)
(-0.492377285 0.4288974002 -0.0316381663)
(-0.4490171273 0.4555706233 -0.04159992891)
(-0.4015507119 0.4817407517 -0.04854838461)
(-0.3522398182 0.5066590612 -0.05138984963)
(-0.305069832 0.5283040802 -0.04822535026)
(-0.2635446062 0.5415147059 -0.0372250087)
(-0.2305170647 0.5423433287 -0.01915713344)
(-0.1977217941 0.5034650997 0.002044296217)
(-0.1707965854 0.5562340858 0.005549191836)
(-0.1712227553 0.5582852937 0.01290281505)
(-0.1880153096 0.5472741623 0.006900939746)
(-0.2040862266 0.5364306681 -0.00923211496)
(-0.209123757 0.5302245295 -0.03256047648)
(-0.1972378805 0.5331393037 -0.05084047369)
(-0.1747432504 0.5403338421 -0.05501714836)
(-0.1547208749 0.5467731955 -0.04138935191)
(-0.1590703669 0.5546312338 -0.01643181621)
(-0.19073496 0.5758296264 -0.01333062657)
(-0.2273237464 0.5961355132 -0.06128574295)
(-0.1916507979 0.6391473451 -0.1303016019)
(-0.1099513054 0.2378960078 0.1559515103)
(-0.2493661719 0.2378371861 0.115681663)
(-0.3864170975 0.2472048353 0.08897982191)
(-0.4868494154 0.2647064377 0.07331007526)
(-0.5686608624 0.2822744767 0.06716361837)
(-0.6282890742 0.292655896 0.06846960566)
(-0.6623923368 0.2931442191 0.07328788626)
(-0.6689222174 0.2881761285 0.07646580342)
(-0.6515947652 0.286476635 0.07360625823)
(-0.6191050631 0.2954978729 0.06346643378)
(-0.5805860418 0.3173264731 0.04812573542)
(-0.5417817157 0.3491085567 0.03019912221)
(-0.504305079 0.3858606528 0.01160983769)
(-0.4660675436 0.4224833697 -0.005018213042)
(-0.4240804633 0.4557261807 -0.0176517913)
(-0.3783144622 0.4867467243 -0.02581297827)
(-0.3332791434 0.5158808159 -0.02725234097)
(-0.2970694909 0.5430474138 -0.01853109034)
(-0.2754831646 0.5624439331 0.003817323265)
(-0.29040557 0.5677541613 0.03682914902)
(-0.1950124168 0.5561274494 0.09986500532)
(-0.1076501252 0.5622452499 0.03801271323)
(-0.1619702279 0.5765133718 0.04322512638)
(-0.1858353863 0.5693801889 0.02144060746)
(-0.2057228552 0.5671863322 -0.0001706044149)
(-0.2096097776 0.5651154402 -0.02448904526)
(-0.1946891291 0.5722076007 -0.04152087533)
(-0.1711030648 0.5811009771 -0.04583075985)
(-0.1502408033 0.5923721076 -0.03402326507)
(-0.1508113156 0.6098852667 -0.01020743173)
(-0.1812602709 0.6416273305 -0.005792837334)
(-0.2142242807 0.6779009372 -0.05392877304)
(-0.1866289632 0.7172078371 -0.1272668072)
(-0.1073136423 0.2248191394 0.1448891556)
(-0.2328178119 0.2319028323 0.1088109237)
(-0.3649233086 0.2390793495 0.09238919598)
(-0.4658815349 0.2500107003 0.08390058246)
(-0.5547200849 0.2525209616 0.07790666326)
(-0.6245164611 0.2358768629 0.07041683079)
(-0.6674586529 0.2006340954 0.05905746096)
(-0.6778013438 0.1639177371 0.04521184082)
(-0.6575265484 0.1497463384 0.0342830113)
(-0.6156199012 0.1707208748 0.03150209478)
(-0.5646864415 0.2179049832 0.0355987211)
(-0.5144981887 0.2783299533 0.03715155805)
(-0.4716760312 0.3408329074 0.0281081702)
(-0.4348490936 0.3953897538 0.01109047423)
(-0.3961723437 0.4376433291 -0.006001606999)
(-0.3533723065 0.4737451533 -0.01686025765)
(-0.3109551304 0.5021397986 -0.01459480771)
(-0.2761482036 0.5179180686 0.005459349737)