/*--------------------------------*- C++ -*----------------------------------*\
  =========                 |
  \\      /  F ield         | OpenFOAM: The Open Source CFD Toolbox
   \\    /   O peration     | Website:  https://openfoam.org
    \\  /    A nd           | Version:  8
     \\/     M anipulation  |
\*---------------------------------------------------------------------------*/
FoamFile
{
    version     2.0;
    format      ascii;
    class       scalarField;
    location    "0.8/lagrangian/reactingCloud1";
    object      age;
}
// * * * * * * * * * * * * * * * * * * * * * * * * * * * * * * * * * * * * * //


122
(
0.2730286552
0.2724555604
0.264546381
0.2595497703
0.2584030072
0.2575838907
0.2550446295
0.2550446295
0.2528330149
0.2501304438
0.2342310367
0.2312883816
0.2289717651
0.2276109287
0.2264284478
0.2246547265
0.2222306407
0.2280839211
0.206061452
0.212064055
0.2515224285
0.1739575251
0.1478506665
0.1453322104
0.1725987873
0.1436532396
0.1416144894
0.170902554
0.1380766582
0.1369973199
0.1358580183
0.1440729823
0.134484147
0.1677255459
0.1463515855
0.1473109974
0.1434133867
0.1486901519
0.144252872
0.1417943792
0.1494097108
0.1669270456
0.1512675098
0.1660125794
0.1547529885
0.1649817225
0.1621101973
0.15631906
0.2331600936
0.1207795661
0.1340541181
0.09994537758
0.1140894335
0.1446126515
0.1175917917
0.1475508503
0.139515776
0.1360978712
0.0893334676
0.1380766582
0.08694414784
0.1334482463
0.08427456347
0.08225149963
0.07652126875
0.07649318755
0.07556650796
0.07466813012
0.07287450441
0.07195026972
0.1532275864
0.1626852917
0.06959767235
0.06856140922
0.06777721009
0.1522170734
0.06629283318
0.06391222869
0.06183970243
0.1435932764
0.1128408451
0.05024475823
0.04693991906
0.04612771282
0.04344098663
0.04260646085
0.1415545262
0.04140891404
0.040256512
0.06604076917
0.03868629519
0.2287940242
0.07203429106
0.03332440695
0.03231587848
0.02955511839
0.1356781285
0.0286132227
0.03610131498
0.06203575221
0.05405372541
0.02680516317
0.02604442227
0.02379326686
0.02181904344
0.0181419131
0.01730015136
0.04404822123
0.06004724729
0.1388561803
0.01546540771
0.01320538397
0.01178052788
0.07803779575
0.01009164597
0.00898088618
0.008717580375
0.01609995021
0.07405112328
0.004552786148
0.1020790354
0.03809803407
)


// ************************************************************************* //
