/*--------------------------------*- C++ -*----------------------------------*\
  =========                 |
  \\      /  F ield         | OpenFOAM: The Open Source CFD Toolbox
   \\    /   O peration     | Website:  https://openfoam.org
    \\  /    A nd           | Version:  8
     \\/     M anipulation  |
\*---------------------------------------------------------------------------*/
FoamFile
{
    version     2.0;
    format      ascii;
    class       scalarField;
    location    "0.8/lagrangian/reactingCloud1";
    object      d;
}
// * * * * * * * * * * * * * * * * * * * * * * * * * * * * * * * * * * * * * //


122
(
0.0005028992971
0.0005557103388
0.0005723065124
0.0007605674901
0.0007876002571
0.0005856343663
0.000580269909
0.0006006930972
0.0005129687218
0.000507869593
0.000769436038
0.0009964362748
0.0005920047692
0.0005423801091
0.000524916601
0.0005705998516
0.0005642459765
0.0005145781398
0.0005873477744
0.001128812676
0.0008170054087
0.001096619262
0.0008397824999
0.0006597834878
0.0006225293688
0.0005256680563
0.0005268657335
0.0006685264708
0.00068904005
0.0005260068465
0.0005307042713
0.0009101089505
0.0005559685644
0.0008385229293
0.0005807104123
0.0006538555129
0.0005468310961
0.0005201648157
0.0007494376726
0.0006838802127
0.0007188020901
0.0005321232545
0.0008860537552
0.0005587206089
0.0006874088745
0.0005808538406
0.0008231458325
0.001043415014
0.0005062456902
0.000576447648
0.0005074025328
0.0005267971262
0.000681710262
0.000504801141
0.0008364337766
0.0007438125387
0.0005904385876
0.001147476315
0.0009249657451
0.000673683133
0.0006376557642
0.0006026391724
0.0006782835723
0.0006326176124
0.0009027816013
0.0006649311656
0.000517493118
0.000538144517
0.0007371211768
0.000519232985
0.0007107868896
0.0007440958236
0.0007143207364
0.0005505025934
0.0005008750167
0.0006532886859
0.0008018479559
0.000572069389
0.0005610031878
0.0008349675576
0.0008501123437
0.0009452905494
0.0005076085701
0.000843937207
0.0007544971366
0.0008206739365
0.0005456004634
0.0005779920539
0.0005725601378
0.000982396941
0.000636827603
0.0009101678995
0.0006012222707
0.0009510957071
0.0005523243623
0.000770611832
0.0007357106125
0.0005385184109
0.0005895893902
0.0007198317345
0.0005858459327
0.0006671953909
0.0005003174016
0.0007119578863
0.000680425131
0.0008261004369
0.0005096979194
0.0007819127826
0.0009014753975
0.0007490412879
0.0006521091663
0.0007036170427
0.0005965729593
0.0008628293842
0.0009745250784
0.001122399794
0.0006329282275
0.0009895466867
0.0005167827085
0.0006357717504
0.001021696669
0.0005024124484
)


// ************************************************************************* //
