/*--------------------------------*- C++ -*----------------------------------*\
  =========                 |
  \\      /  F ield         | OpenFOAM: The Open Source CFD Toolbox
   \\    /   O peration     | Website:  https://openfoam.org
    \\  /    A nd           | Version:  8
     \\/     M anipulation  |
\*---------------------------------------------------------------------------*/
FoamFile
{
    version     2.0;
    format      ascii;
    class       scalarField;
    location    "0.8/lagrangian/reactingCloud1";
    object      mass0;
}
// * * * * * * * * * * * * * * * * * * * * * * * * * * * * * * * * * * * * * //


122
(
6.622950419e-08
8.936219922e-08
9.761003795e-08
2.290982077e-07
2.544051893e-07
1.045894984e-07
1.017416012e-07
1.128668338e-07
7.028798166e-08
6.82126706e-08
2.372061739e-07
5.151776415e-07
1.080398654e-07
8.308443687e-08
7.531462921e-08
9.673939822e-08
9.354354646e-08
7.134320577e-08
1.060924807e-07
7.5312013e-07
2.839770309e-07
6.867142002e-07
3.08396101e-07
1.495590663e-07
1.25628436e-07
7.563854712e-08
7.615672841e-08
1.555837529e-07
1.703498734e-07
7.578488727e-08
7.783342957e-08
3.947105902e-07
8.948683068e-08
3.07010513e-07
1.019734842e-07
1.455639354e-07
8.514674076e-08
7.328774137e-08
2.191870947e-07
1.665514943e-07
1.933910684e-07
7.845942742e-08
3.622335153e-07
9.082229912e-08
1.691429196e-07
1.020490614e-07
2.904281912e-07
5.915339343e-07
6.756043516e-08
9.974428811e-08
6.840006502e-08
7.612698162e-08
1.649711166e-07
6.698374166e-08
3.047215054e-07
2.142885197e-07
1.071846558e-07
7.910971359e-07
4.12083635e-07
1.600905308e-07
1.350104202e-07
1.139673614e-07
1.624958656e-07
1.318354651e-07
3.831391382e-07
1.53087061e-07
7.216425875e-08
8.115311185e-08
2.085571503e-07
7.289458045e-08
1.869935579e-07
2.145334518e-07
1.897964969e-07
8.68733416e-08
6.543295426e-08
1.451856958e-07
2.684630364e-07
9.74887602e-08
9.193998018e-08
3.031218367e-07
3.199170492e-07
4.398497679e-07
6.810754969e-08
3.129960246e-07
2.236563363e-07
2.878195847e-07
8.457317038e-08
1.005481357e-07
9.773986734e-08
4.964318381e-07
1.34485065e-07
3.926204915e-07
1.137899223e-07
4.480031662e-07
8.773866425e-08
2.382952787e-07
2.073621474e-07
8.1322381e-08
1.073118301e-07
1.952952091e-07
1.052807281e-07
1.546562699e-07
6.521466147e-08
1.879192776e-07
1.640398848e-07
2.935668242e-07
6.895202122e-08
2.503073263e-07
3.835838011e-07
2.188394886e-07
1.444007117e-07
1.813917245e-07
1.105602755e-07
3.363360371e-07
4.81933902e-07
7.362938166e-07
1.32029754e-07
5.073497951e-07
7.226409093e-08
1.338172496e-07
5.584246172e-07
6.640179152e-08
)


// ************************************************************************* //
