/*--------------------------------*- C++ -*----------------------------------*\
  =========                 |
  \\      /  F ield         | OpenFOAM: The Open Source CFD Toolbox
   \\    /   O peration     | Website:  https://openfoam.org
    \\  /    A nd           | Version:  8
     \\/     M anipulation  |
\*---------------------------------------------------------------------------*/
FoamFile
{
    version     2.0;
    format      ascii;
    class       Cloud<basicReactingMultiphaseParcel>;
    location    "0.8/lagrangian/reactingCloud1";
    object      positions;
}
// * * * * * * * * * * * * * * * * * * * * * * * * * * * * * * * * * * * * * //

122
(
(0.1120172764 0.1546462394 0.3308789365 0.4024575477) 1400 1849 2
(0.2579138308 0.4124168924 0.328778189 0.0008910877835) 625 1851 1
(0.2021495213 0.3757085363 0.07121023154 0.3509317109) 2214 6502 2
(0.7599123821 0.01816627503 0.02527188116 0.1966494618) 1438 1962 2
(0.5215584399 0.2035439286 0.1622407236 0.1126569079) 2218 6511 1
(0.01468093282 0.3301164406 0.06409796907 0.5911046575) 2215 6507 1
(0.3722071397 0.1542125719 0.4031870504 0.07039323798) 2993 8785 2
(0.5888515065 0.1573513138 0.158679222 0.09511795773) 2992 6507 2
(0.09762747534 0.3431325188 0.2983838192 0.2608561867) 4554 11072 2
(0.02759150659 0.4914455666 0.133427141 0.3475357859) 4556 13358 2
(0.1160450536 0.5322705334 0.175055614 0.176628799) 4485 13146 2
(0.08345633932 0.3030420798 0.2863965875 0.3271049934) 4458 13067 2
(0.03865716729 0.6964905726 0.1599209068 0.1049313533) 7685 22501 2
(0.04775564664 0.7831457434 0.03650145443 0.1325971556) 7687 22512 2
(0.4169754714 0.2153264705 0.2274160358 0.1402820222) 8487 24762 2
(0.3289108794 0.2652282214 0.107271065 0.2985898342) 8490 22524 1
(0.4671513137 0.0872751847 0.3305394994 0.1150340022) 8491 24859 2
(0.1010577429 0.315691218 0.3918307493 0.1914202899) 448 1251 1
(0.02965599569 0.01929088758 0.9374334144 0.01361970231) 1384 4073 2
(0.2974043813 0.02766435326 0.0908245523 0.5841067131) 4058 11884 1
(0.08886250867 0.252095879 0.655383189 0.003658423318) 645 1835 1
(0.3315515928 0.02650421829 0.3231405266 0.3188036624) 12760 37264 2
(0.127220524 0.490190876 0.05194167186 0.3306469282) 16048 46967 1
(0.3614027203 0.07201520514 0.3816845992 0.1848974754) 16114 47072 1
(0.3169891038 0.06596351256 0.5328253412 0.08422204246) 13627 37359 2
(0.4011069883 0.5372900181 0.02301680677 0.03858618684) 15994 44262 1
(0.3374703627 0.05395496792 0.2360518945 0.3725227749) 16936 49571 1
(0.05865308529 0.5832378321 0.2216867736 0.1364223091) 13627 39892 2
(0.04936045758 0.6503254452 0.289686595 0.01062750227) 17856 52166 2
(0.1990274614 0.3735505235 0.1605759602 0.2668460549) 17853 52157 2
(0.2703185062 0.090750601 0.3617580292 0.2771728636) 17852 52154 2
(0.4540962649 0.2222224375 0.0630362872 0.2606450105) 17768 52003 1
(0.01923398652 0.5301914768 0.1481749015 0.3023996352) 17851 52248 2
(0.1616170643 0.4896616948 0.01047776171 0.3382434792) 13657 39892 2
(0.08014825753 0.3725503113 0.09220356909 0.4550978621) 16235 47433 2
(0.3202624048 0.1766107032 0.3721111302 0.1310157618) 16235 47433 2
(0.04008334153 0.2504496363 0.462810826 0.2466561962) 16204 47434 2
(0.4494327153 0.3939387261 0.1498199544 0.006808604246) 16235 47523 1
(0.3912660136 0.1342042718 0.1548246509 0.3197050637) 16204 47433 1
(0.2061768135 0.4013072732 0.1015766021 0.2909393112) 17086 47434 2
(0.079279994 0.1048171036 0.3701738075 0.4457290949) 15364 44976 1
(0.2974309218 0.3517623 0.2353790605 0.1154277177) 13657 39963 1
(0.06195508546 0.2120437127 0.5792509926 0.1467502092) 15365 44974 1
(0.1615100888 0.3971068724 0.2231374047 0.2182456341) 13657 39963 1
(0.03231514935 0.76087528 0.1999093811 0.006900189535) 15395 44978 1
(0.002858312902 0.4828854093 0.2198128526 0.2944434251) 13657 39963 1
(0.2789702342 0.3985460461 0.09211448707 0.2303692327) 14524 39963 1
(0.2911529001 0.5173525309 0.1558675566 0.03562701243) 14524 42500 1
(0.2928504714 0.2396981618 0.3353566918 0.132094675) 7777 22776 1
(0.02159868051 0.651566808 0.2162465938 0.1105879178) 18666 52040 2
(0.1699876106 0.03644241551 0.07503284141 0.7185371325) 22048 63498 1
(0.01995801995 0.00374519302 0.6361352029 0.3401615841) 54411 166270 1
(0.3301684323 0.05655984922 0.2852351704 0.3280365481) 53181 58831 1
(0.5081815861 0.3622517926 0.05258205982 0.07698456146) 17091 50029 2
(0.1636252621 0.03652552492 0.7217492112 0.07810000172) 18893 55773 1
(0.1866531715 0.2616793705 0.03005854066 0.5216089173) 16209 47448 1
(0.2345045474 0.174059832 0.5279409216 0.06349469904) 17091 50025 1
(0.02965975239 0.5960888034 0.3445562141 0.02969523009) 17685 49177 2
(0.3425826098 0.1688796301 0.3398531694 0.1486845907) 55547 65257 2
(0.3153231077 0.2635985635 0.164519049 0.2565592799) 19349 57153 1
(0.2166250897 0.09844384237 0.6135488577 0.07138221022) 55654 65261 1
(0.06129659888 0.2458950303 0.2575274965 0.4352808743) 17972 52607 2
(0.4822208052 0.1988303342 0.01878755957 0.3001613009) 55654 169388 1
(0.436704666 0.4778197765 0.07556979504 0.009905762505) 55654 169388 1
(0.1496589795 0.4538584772 0.123075593 0.2734069502) 56890 68489 2
(0.7205953305 0.08357425567 0.1115517172 0.08427869666) 56872 172435 1
(0.4327134808 0.2258892417 0.2964539461 0.04494333145) 56890 172481 1
(0.1434230312 0.4747119701 0.1470001196 0.2348648791) 56872 172436 1
(0.00473046964 0.5781026115 0.295021798 0.1221451208) 56890 172482 2
(0.3958977456 0.5222817555 0.01273339112 0.06908710773) 56894 172482 1
(0.3656406277 0.5997713401 0.007259147333 0.02732888481) 16145 47255 1
(0.361538459 0.03656771568 0.2702878293 0.331605996) 14498 42442 1
(0.1949104391 0.2773203621 0.04164756777 0.486121631) 56894 172492 1
(0.1379096422 0.290684188 0.3312650102 0.2401411595) 56990 172492 1
(0.3267363352 0.2139088508 0.1215659221 0.3377888919) 56990 172492 1
(0.006804893307 0.2208575895 0.03346427558 0.7388732416) 17086 50014 2
(0.5554709154 0.01579446454 0.3713390153 0.05739560472) 58002 175167 1
(0.5443055739 0.2176216641 0.2379355395 0.0001372224959) 57892 174920 1
(0.5361561969 0.172573574 0.004289613496 0.2869806156) 57892 174920 1
(0.4184369747 0.05107306597 0.2071563935 0.3233335658) 17117 47525 1
(0.3341983049 0.06108751091 0.4531748353 0.1515393488) 52412 54798 1
(0.2210533576 0.3003541862 0.2973792831 0.1812131731) 58229 205618 2
(0.219541917 0.03096626066 0.4214280642 0.3280637582) 50788 202816 2
(0.4303877408 0.387612036 0.05083796769 0.1311622555) 58229 158296 1
(0.1036204719 0.1236590044 0.2053421104 0.5673784133) 50790 157020 1
(0.1368819504 0.6257511048 0.005972192774 0.231394752) 51257 158296 1
(0.08793208356 0.1674127036 0.5718628481 0.1727923647) 17117 50105 2
(0.423792205 0.4793510797 0.07202920025 0.02482751508) 51257 158296 2
(0.4825138227 0.4406336418 0.02097312166 0.05587941381) 51257 158283 2
(0.3473104915 0.05922625659 0.3698571304 0.2236061215) 34336 109787 2
(0.3545955473 0.429260881 0.1531904079 0.06295316386) 51257 158283 1
(0.4243011098 0.02256172005 0.3982791123 0.1548580578) 5440 15930 2
(0.3145096856 0.1082049154 0.4658665646 0.1114188343) 31122 99068 2
(0.1579441496 0.2462432398 0.3087885267 0.2870240839) 51251 158283 1
(0.2098311383 0.07735873481 0.4382658077 0.2745443191) 51251 158283 1
(0.149117545 0.1577195224 0.3287954172 0.3643675155) 51251 158282 2
(0.517666098 0.407628796 0.03431704413 0.04038806187) 17147 50176 2
(0.05383353218 0.2444354325 0.3119633651 0.3897676703) 51255 158282 2
(0.4363418904 0.2706437615 0.1184435194 0.1745708288) 38668 122470 1
(0.6696552841 0.2422436778 0.04895520157 0.03914583648) 33625 104953 1
(0.05760404399 0.1875957359 0.655581063 0.09921915718) 36054 114818 2
(0.1997737351 0.2527996341 0.2142900046 0.3331366261) 51255 158282 2
(0.3653126938 0.2051550597 0.1695822346 0.2599500119) 51255 158282 2
(0.4964782544 0.2403623091 0.0512266397 0.2119327967) 51255 158282 2
(0.6996207891 0.1706472452 0.07546013501 0.05427183065) 51255 158282 1
(0.5225309602 0.2068610997 0.2344475126 0.0361604275) 51255 158289 1
(0.4624390327 0.2905139014 0.05177796405 0.1952691018) 51255 158289 2
(0.07569775562 0.03100663832 0.1282572073 0.7650383988) 37059 115317 2
(0.04411342346 0.51043039 0.1975577868 0.2478983997) 33738 105568 2
(0.4209958194 0.05592064999 0.3361061298 0.1869774009) 17147 204099 2
(0.3075313877 0.3800586695 0.0681200371 0.2442899056) 51255 158289 2
(0.1158710193 0.4877269173 0.1113261902 0.2850758732) 51255 158289 2
(0.0004942701383 0.5550929383 0.2809320908 0.1634807008) 51254 158289 2
(0.3283040235 0.4973913835 0.04909183922 0.1252127538) 30871 97934 2
(0.5411824809 0.04121790321 0.2672163831 0.1503832328) 51245 203195 2
(0.4784763093 0.08066615787 0.08076553504 0.3600919978) 51246 158272 2
(0.05777313753 0.4565918565 0.1686609357 0.3169740703) 51245 158134 1
(0.142259488 0.5941122881 0.05670847374 0.2069197502) 41215 129923 2
(0.4027638121 0.02551214701 0.5517278259 0.01999621502) 66463 195858 2
(0.3103979951 0.4892784034 0.1927871701 0.007536431484) 51246 202963 2
(0.2669382716 0.009973507039 0.3340749922 0.3890132292) 59342 178348 1
(0.1900252143 0.08776758003 0.1133410845 0.6088661211) 37897 117768 1
)


// ************************************************************************* //
