/*--------------------------------*- C++ -*----------------------------------*\
  =========                 |
  \\      /  F ield         | OpenFOAM: The Open Source CFD Toolbox
   \\    /   O peration     | Website:  https://openfoam.org
    \\  /    A nd           | Version:  8
     \\/     M anipulation  |
\*---------------------------------------------------------------------------*/
FoamFile
{
    version     2.0;
    format      ascii;
    class       vectorField;
    location    "0.8/lagrangian/reactingCloud1";
    object      U;
}
// * * * * * * * * * * * * * * * * * * * * * * * * * * * * * * * * * * * * * //


122
(
(0.5349971209 -0.04667148254 -1.778049135)
(0.5840835532 -0.04275203861 -1.861384802)
(-0.2631834595 -0.006802931494 -1.854946941)
(-0.2854267994 0.01271890094 -2.044989165)
(-0.1879925728 0.006388924315 -1.961482006)
(-0.2374153135 0.01298183279 -1.876276735)
(-0.2019962842 0.01270701776 -1.80735845)
(-0.2813830055 0.01104860035 -1.921006101)
(-0.1699431741 0.006192664013 -1.692027707)
(-0.1245327454 -0.003951877018 -1.640398343)
(0.06878778605 -0.08731058936 -1.977055505)
(0.05931924451 -0.1349696346 -2.034759236)
(0.8279981307 -0.006909760258 -1.580192565)
(0.8483883752 -0.006480102135 -1.538240342)
(0.8714083356 -0.009380023943 -1.525257574)
(1.002740485 -0.01215808706 -1.631527792)
(1.01933506 -0.008012080241 -1.60439812)
(-0.81447763 -0.5008557151 -3.088957621)
(-0.7609451917 -0.2662767988 -3.268883155)
(-0.5912530143 -0.9898777151 -3.098438183)
(-0.003264958325 -0.3594908353 -2.217666524)
(-0.01640233886 -0.1167886503 -1.60135487)
(0.04381866103 -0.1205492749 -1.388460348)
(0.01791068642 -0.004920982653 -1.279908008)
(0.004619369885 -0.08262333038 -1.477626448)
(0.2706982762 -0.270220313 -1.408963524)
(1.281532431 -0.03910203688 -1.077946663)
(0.01264902998 -0.07064413583 -1.496476166)
(1.661682062 -0.01229863087 -1.125676038)
(1.42641687 -0.005224250525 -1.055139784)
(1.424992518 -0.003478988444 -1.067255392)
(-0.9354505277 -0.4748452968 -2.823247451)
(1.434118645 -0.003186211404 -1.083570712)
(0.01607875898 -0.0667671205 -1.538778506)
(-0.02763886255 -0.1381814168 -1.337856514)
(-0.02366179096 -0.1315744741 -1.366346835)
(-0.03292475862 -0.1571379093 -1.282515129)
(-0.01452454098 -0.1118190878 -1.348586817)
(-0.03360950889 -0.1587745308 -1.337970383)
(-0.03941528578 -0.1776696516 -1.289567418)
(-0.01146756126 -0.1090645692 -1.392636731)
(0.01921343375 -0.05367296445 -1.470289933)
(-0.002108807801 -0.09251963393 -1.429802281)
(0.02084132268 -0.05235152522 -1.479712136)
(0.007913236604 -0.07309808038 -1.442832802)
(0.020828919 -0.05340496072 -1.486837875)
(0.01917185206 -0.06027332957 -1.521427868)
(0.01364669569 -0.06595899481 -1.493667465)
(-0.4391209628 -0.1627601325 -1.514050419)
(-0.5236569251 -0.2343406801 -1.214460887)
(-0.5595182472 -0.9311523233 -2.506035825)
(0.1091408116 -0.1003538348 -0.8795483835)
(0.1889837369 -0.1339066409 -1.053935933)
(0.2062655242 -0.1987139547 -1.167809314)
(0.1827374861 -0.1092984216 -1.095226022)
(0.226248389 -0.1981743773 -1.276037158)
(0.2060584238 -0.2199178699 -1.192079359)
(-0.3855433647 -0.7508358124 -2.989291331)
(0.1476828936 -0.19699997 -0.8459583549)
(-0.3071267793 -0.9589777018 -2.698455826)
(0.172832827 -0.1793974188 -0.8216289334)
(0.1956690047 -0.216974804 -1.168932731)
(0.1809994301 -0.174196811 -0.8051878677)
(0.1855532929 -0.1622906926 -0.7841114321)
(0.1945540646 -0.1553789175 -0.7413150166)
(-0.001316595587 0.3772316332 -0.7099720625)
(0.2007595423 -0.1298145335 -0.7203756857)
(-0.001464839806 0.3831134107 -0.6704583591)
(0.2068478351 -0.1287730249 -0.7048074473)
(0.2073740363 -0.1134864534 -0.6871500965)
(-0.5725230413 -0.2539711192 -1.266120454)
(0.2082564086 -0.1956085107 -1.372260439)
(0.211186171 -0.1117536847 -0.6723129053)
(0.2132658211 -0.09991616348 -0.6571571234)
(0.2137071769 -0.09366271526 -0.6475710059)
(0.004651293582 -0.2847084373 -1.332909876)
(-0.0006050705321 0.3143864529 -0.6590300941)
(-0.001451003854 0.2464791118 -0.6355234833)
(-0.001712102385 0.2318277012 -0.6311681807)
(0.003202537734 -0.286818913 -1.342539735)
(-0.2460639947 -0.2580127971 -1.111405306)
(0.1786290901 0.04007634771 -0.4891636345)
(-0.0003626318131 0.06983148453 -0.3319148972)
(0.1938743598 0.02680048338 -0.4493377697)
(-0.0001322100054 0.04904862884 -0.2274011124)
(0.2005418008 0.02469624296 -0.4156083831)
(0.005871370295 -0.2426305612 -1.277087763)
(0.2034027739 0.02494897957 -0.4025695574)
(0.2045219698 0.02441241578 -0.3914586405)
(-0.6464021588 -1.110959665 -2.023708026)
(0.2056988724 0.02339688022 -0.3768525275)
(-0.2505096464 -0.1070631995 -1.908144679)
(-0.4467184057 0.01170697365 -2.543727984)
(0.204039064 0.02077553171 -0.3259109656)
(0.2064053468 0.01989693243 -0.31483177)
(0.2056555825 0.01707473807 -0.288844745)
(0.00341713803 -0.2368979387 -1.315899994)
(0.2058688354 0.01548427832 -0.2790166928)
(-1.101346693 -0.4318291923 -1.855344367)
(-0.5075802041 -0.5611015105 -2.362562046)
(-0.6485151859 -1.050279073 -1.961854016)
(0.2055766323 0.01310139016 -0.2619599023)
(0.2050389302 0.01172777434 -0.2540106527)
(0.2045301098 0.008823947017 -0.2326915976)
(0.2041955447 0.005132051258 -0.2132954379)
(0.202657751 -0.000761843827 -0.1774032539)
(0.2036704407 -0.00559358469 -0.1683419235)
(-0.6442519805 0.209495369 -2.256675108)
(-0.4072409651 0.0771441672 -2.497960489)
(-0.08690100306 -0.1289969849 -1.26658158)
(0.20461523 -0.01035221715 -0.1509161672)
(0.2053720819 -0.01669451561 -0.1289797391)
(0.2067376015 -0.02274813606 -0.1149659688)
(0.02580985342 -0.9375102562 -2.408426441)
(0.004152606245 0.09343026398 -0.098890302)
(0.1309629379 0.1006192627 -0.08799464274)
(-0.0002634096642 -0.2678080901 -0.08453978535)
(-1.054741576 0.2054286296 -1.818622892)
(-0.06574441724 -0.9476804144 -2.315487669)
(0.142285364 -0.1658529532 -0.04423409908)
(0.1950269114 -0.8011976316 -2.715886642)
(-0.5099893578 0.05617772976 -2.257035406)
)


// ************************************************************************* //
