/*--------------------------------*- C++ -*----------------------------------*\
  =========                 |
  \\      /  F ield         | OpenFOAM: The Open Source CFD Toolbox
   \\    /   O peration     | Website:  https://openfoam.org
    \\  /    A nd           | Version:  8
     \\/     M anipulation  |
\*---------------------------------------------------------------------------*/
FoamFile
{
    version     2.0;
    format      ascii;
    class       scalarField;
    location    "0.5/lagrangian/reactingCloud1";
    object      age;
}
// * * * * * * * * * * * * * * * * * * * * * * * * * * * * * * * * * * * * * //


76
(
0.2326621973
0.2305284859
0.2262610632
0.2256045366
0.2534363029
0.2227878613
0.2524868547
0.2002189625
0.1921888791
0.178065049
0.1760982789
0.2060287663
0.2058244014
0.1500823012
0.144061484
0.258936198
0.1260769776
0.2398019239
0.2576984753
0.2472512395
0.2435760156
0.2393915948
0.2326621973
0.2084811459
0.2288871695
0.08606887826
0.2516792339
0.0820702713
0.2009853311
0.2043938467
0.07810325781
0.1620952342
0.1984651712
0.2184561672
0.192356142
0.1833815006
0.06206425158
0.146100201
0.2020436496
0.1622745275
0.1784218277
0.1631709938
0.1861898095
0.1716798561
0.04418047737
0.108207176
0.2090942407
0.2033720218
0.03006230451
0.2077658685
0.1811748291
0.1663636001
0.1412495717
0.2510997153
0.1426450849
0.02404718288
0.2500009427
0.1939787485
0.02205104838
0.1657663762
0.1872359871
0.01608189226
0.1392873486
0.2037807518
0.01412210392
0.0120502538
0.1384524924
0.1921888791
0.01006970257
0.008143151187
0.07609084796
0.006107363391
0.004153007106
0.1490469067
0.002117219309
0.0001628630237
)


// ************************************************************************* //
