/*--------------------------------*- C++ -*----------------------------------*\
  =========                 |
  \\      /  F ield         | OpenFOAM: The Open Source CFD Toolbox
   \\    /   O peration     | Website:  https://openfoam.org
    \\  /    A nd           | Version:  8
     \\/     M anipulation  |
\*---------------------------------------------------------------------------*/
FoamFile
{
    version     2.0;
    format      ascii;
    class       scalarField;
    location    "0.5/lagrangian/reactingCloud1";
    object      mass0;
}
// * * * * * * * * * * * * * * * * * * * * * * * * * * * * * * * * * * * * * //


76
(
7.567616346e-08
1.421315729e-07
3.370118536e-07
6.753263138e-08
4.602052141e-07
2.400553343e-07
1.187922662e-07
1.325630411e-07
3.252297985e-07
6.933255496e-08
1.111704376e-07
1.461721444e-07
1.511392871e-07
1.700294919e-07
1.380734401e-07
2.584807606e-07
7.879435197e-08
1.235483024e-07
1.094954848e-07
6.92922748e-08
1.231893713e-07
1.5154456e-07
2.205852891e-07
8.286918702e-08
7.626128543e-08
1.257122409e-07
1.001632926e-07
1.049022232e-07
6.986099798e-08
6.622950446e-08
2.147543273e-07
1.195785225e-07
1.463634094e-07
2.828188434e-07
2.027544734e-07
1.394091965e-07
1.290505772e-07
1.155943657e-07
9.879736645e-08
8.474269291e-08
1.573617779e-07
4.487901333e-07
2.088499838e-07
8.17154473e-08
9.59034049e-08
1.53958105e-07
2.233702905e-07
2.158278132e-07
1.235484166e-07
1.812285013e-07
1.406352336e-07
2.020649659e-07
1.439498081e-07
7.117648893e-08
7.014109567e-08
1.429159716e-07
1.576753684e-07
1.94089611e-07
1.394947914e-07
4.685634685e-07
1.6869142e-07
4.449337687e-07
1.866913505e-07
1.011340644e-07
2.237068991e-07
1.82228669e-07
8.105271898e-08
8.521083575e-08
1.191004094e-07
1.519733978e-07
8.496247019e-08
4.063919811e-07
2.195826131e-07
1.176726393e-07
9.93426113e-08
7.762936168e-08
)


// ************************************************************************* //
