/*--------------------------------*- C++ -*----------------------------------*\
  =========                 |
  \\      /  F ield         | OpenFOAM: The Open Source CFD Toolbox
   \\    /   O peration     | Website:  https://openfoam.org
    \\  /    A nd           | Version:  8
     \\/     M anipulation  |
\*---------------------------------------------------------------------------*/
FoamFile
{
    version     2.0;
    format      ascii;
    class       labelField;
    location    "0.5/lagrangian/reactingCloud1";
    object      origId;
}
// * * * * * * * * * * * * * * * * * * * * * * * * * * * * * * * * * * * * * //


76
(
52
54
56
57
80
58
81
155
159
167
168
113
114
181
184
76
193
91
77
49
50
51
53
108
55
213
82
215
124
117
217
175
126
59
135
150
225
183
121
174
154
171
146
158
234
202
60
120
241
111
151
71
204
83
201
244
48
132
245
163
144
248
212
61
249
250
217
137
251
252
218
253
254
192
255
256
)


// ************************************************************************* //
