/*--------------------------------*- C++ -*----------------------------------*\
  =========                 |
  \\      /  F ield         | OpenFOAM: The Open Source CFD Toolbox
   \\    /   O peration     | Website:  https://openfoam.org
    \\  /    A nd           | Version:  8
     \\/     M anipulation  |
\*---------------------------------------------------------------------------*/
FoamFile
{
    version     2.0;
    format      ascii;
    class       Cloud<basicReactingMultiphaseParcel>;
    location    "0.5/lagrangian/reactingCloud1";
    object      positions;
}
// * * * * * * * * * * * * * * * * * * * * * * * * * * * * * * * * * * * * * //

76
(
(0.4363308511 0.3111323556 0.1751742505 0.07736254279) 9870 26070 2
(0.02480108104 0.6409428454 0.3300212744 0.004234799145) 7906 23184 2
(0.1427728774 0.601019838 0.01963876275 0.2365685219) 7900 23163 2
(0.2866825555 0.5194987254 0.1308011276 0.06301759155) 8881 26040 1
(0.3115666587 0.03403701808 0.08785609328 0.56654023) 1704 4925 1
(0.2823231847 0.1638453294 0.2649612799 0.288870206) 7895 23151 2
(0.3135379269 0.01400875572 0.2097891151 0.4626642023) 3769 11076 2
(0.2731381189 0.1157719794 0.4924333459 0.1186565558) 4657 10716 1
(0.1369580881 0.2308533553 0.1978250041 0.4343635526) 13668 37299 2
(0.2721135883 0.138345848 0.08583044466 0.5037101191) 13209 38653 2
(0.3763496442 0.0888687296 0.4342079675 0.1005736587) 11471 33586 2
(0.187587879 0.04439881301 0.4205516617 0.3474616463) 10686 31301 1
(0.2396002328 0.2404814202 0.5186454857 0.001272861303) 11725 34336 2
(0.1103969533 0.3559793866 0.1218119986 0.4118116615) 17128 50129 2
(0.03409798354 0.04713356758 0.2550991682 0.6636692807) 21405 62628 1
(0.2767334323 0.1294200226 0.1556168403 0.4382297048) 1599 4713 2
(0.07979446467 0.2631833016 0.02256573667 0.6344564971) 59004 176636 1
(0.06248243739 0.3016708032 0.5593332928 0.07651346662) 6898 20230 2
(0.1047418382 0.2008227106 0.6670845338 0.02735091738) 4743 13814 2
(0.620074097 0.04431898079 0.277389503 0.05821741925) 5775 16945 2
(0.3324922467 0.3364875921 0.1762631336 0.1547570275) 4751 13940 2
(0.1837211357 0.3906027309 0.350623282 0.07505285142) 4750 13937 1
(0.4321339536 0.3974268859 0.1660745629 0.004364597486) 5740 16843 2
(0.2496020906 0.3536444149 0.3254108876 0.07134260693) 10810 31662 2
(0.412886432 0.4442191925 0.01594244045 0.126951935) 7721 22636 1
(0.2448502997 0.2066088305 0.4418880902 0.1066527796) 32363 98239 1
(0.1219216605 0.457238478 0.3291248211 0.09171504034) 4956 14548 1
(0.05617700116 0.2393056919 0.2570560367 0.4474612702) 65255 192006 1
(0.01362255926 0.01404815056 0.3468111084 0.6255181818) 12645 37019 1
(0.2135528409 0.0902260051 0.2481870323 0.4480341217) 10810 31667 2
(0.1006858997 0.3246613265 0.1797264971 0.3949262766) 36165 110781 2
(0.5127962499 0.1477652053 0.05349011642 0.2859484284) 18602 54441 2
(0.4532440152 0.4696771949 0.03467771716 0.04240107274) 12705 37196 2
(0.1861052357 0.4211627893 0.05338110345 0.3393508715) 8705 22634 1
(0.2846116826 0.4532234802 0.1122296189 0.1499352182) 12726 37179 1
(0.1794323931 0.6240748367 0.02634618301 0.1701465872) 15400 45073 2
(0.09092870983 0.2846403056 0.245279801 0.3791511836) 39042 119381 2
(0.03091712489 0.4251922416 0.334042086 0.2098485474) 22215 65212 1
(0.2062166058 0.2184846595 0.2448641932 0.3304345415) 12696 37088 2
(0.290772276 0.06772146994 0.4858983074 0.1556079466) 17287 50596 1
(0.1138284469 0.1725647095 0.183434358 0.5301724856) 14572 42660 1
(0.06102142718 0.2317169427 0.6995693947 0.007692235426) 17285 50593 1
(0.3642741887 0.2948352864 0.1578333666 0.1830571582) 14585 40012 2
(0.2794847964 0.495632108 0.09211140511 0.1327716905) 16399 45344 1
(0.3008943894 0.3263854215 0.1160033412 0.256716848) 41229 125796 2
(0.185250847 0.5157905786 0.1974331028 0.1015254716) 61407 182546 1
(0.3503569559 0.1068288095 0.00508376712 0.5377304675) 9655 28280 1
(0.1594322239 0.5938716073 0.1271477106 0.1195484582) 12746 34587 1
(0.2230119483 0.2415414419 0.4937822834 0.04166432643) 43482 132411 2
(0.1828947622 0.2192115588 0.03606462457 0.5618290543) 10609 31071 2
(0.3772119566 0.2995005816 0.2578075278 0.06547993398) 14612 42762 1
(0.3560313571 0.3911332224 0.1733652161 0.07947020437) 16241 47541 2
(0.1086281497 0.476067434 0.3503517514 0.06495266484) 20015 55953 2
(0.07185370093 0.4957677172 0.4147603179 0.01761826396) 6017 14749 1
(0.02989275577 0.215930178 0.346623757 0.4075533092) 19118 55950 2
(0.7077793927 0.005748722573 0.07269908305 0.2137728017) 45557 138499 1
(0.3007853572 0.441314298 0.205479166 0.05242117881) 4948 14524 2
(0.5207047962 0.02009726173 0.1173582263 0.3418397158) 12762 37352 2
(0.09228664246 0.4845810701 0.2067095365 0.216422751) 45586 138584 2
(0.3238141561 0.005955907321 0.3849643428 0.2852655937) 16396 47994 2
(0.4067464291 0.2114147931 0.259322842 0.1225159359) 14569 42650 2
(0.01305470512 0.2781171839 0.7015691175 0.007258993446) 46623 141622 1
(0.3322477234 0.1127308232 0.1115268514 0.443494602) 20012 58568 2
(0.06078705078 0.2000576973 0.4845628323 0.2545924196) 10610 31075 1
(0.02955125992 0.07465191403 0.2614403014 0.6343565247) 46686 141810 2
(0.3210057609 0.3007728748 0.01217588393 0.3660454804) 47753 144935 2
(0.6807002545 0.1127887963 0.1919296582 0.01458129095) 20031 58622 1
(0.323676673 0.4445135604 0.1383429063 0.09346686031) 13694 40071 1
(0.02902684628 0.05283369297 0.8824533661 0.03568609462) 47689 144749 2
(0.09048320707 0.4333809008 0.1743813711 0.301754521) 48818 148061 1
(0.2984302212 0.5116952608 0.03770179332 0.1521727247) 67031 194910 2
(0.5604859164 0.03270406231 0.3260478656 0.08076215564) 48786 147875 1
(0.02348958702 0.5508621501 0.03476820773 0.3908800552) 48818 148063 1
(0.09176626711 0.0762329157 0.2300534243 0.6019473929) 19139 53358 2
(0.1920144762 0.1397315964 0.1457453099 0.5225086175) 49855 151093 1
(0.00775611822 0.4611178859 0.5212361287 0.009889867146) 49886 151185 2
)


// ************************************************************************* //
