/*--------------------------------*- C++ -*----------------------------------*\
  =========                 |
  \\      /  F ield         | OpenFOAM: The Open Source CFD Toolbox
   \\    /   O peration     | Website:  https://openfoam.org
    \\  /    A nd           | Version:  8
     \\/     M anipulation  |
\*---------------------------------------------------------------------------*/
FoamFile
{
    version     2.0;
    format      ascii;
    class       scalarField;
    location    "0.5/lagrangian/reactingCloud1";
    object      rho;
}
// * * * * * * * * * * * * * * * * * * * * * * * * * * * * * * * * * * * * * //


76
(
994.5114697
994.5114689
994.5114688
994.5114688
994.5114716
994.5114688
994.5114723
1000
994.5114691
1000
1000
994.511475
994.5114691
1000
1000
994.5114724
1000
994.5114717
994.5114725
994.5114734
994.5114734
994.5114735
994.5114738
994.5114708
994.5114737
1000
994.5114721
1000
994.5114705
994.5114726
1000
1000
994.5114703
994.5114735
994.5114748
994.5114704
1000
1000
994.5114706
994.5114686
994.5114692
994.5114686
994.5114689
994.5114694
1000
1000
994.5114734
994.5114706
1000
994.5114693
994.5114688
994.5114711
994.5114687
994.5114719
994.5114687
1000
994.5114746
994.5114697
1000
994.5114691
994.5114706
1000
994.5114687
994.5114734
1000
1000
994.5114687
994.5114695
1000
1000
1000
1000
1000
994.5114688
1000
1000
)


// ************************************************************************* //
