/*--------------------------------*- C++ -*----------------------------------*\
  =========                 |
  \\      /  F ield         | OpenFOAM: The Open Source CFD Toolbox
   \\    /   O peration     | Website:  https://openfoam.org
    \\  /    A nd           | Version:  8
     \\/     M anipulation  |
\*---------------------------------------------------------------------------*/
FoamFile
{
    version     2.0;
    format      ascii;
    class       vectorField;
    location    "0.5/lagrangian/reactingCloud1";
    object      U;
}
// * * * * * * * * * * * * * * * * * * * * * * * * * * * * * * * * * * * * * //


76
(
(-0.7967484489 0.0009895329136 -1.543128588)
(0.7476465548 -0.006001217146 -1.832003161)
(0.5826988881 -0.002944890469 -1.880187044)
(0.3997624356 -0.007178974847 -1.689562592)
(-0.1672091231 -0.2364274183 -2.110855367)
(0.4535867837 0.004473109374 -1.937747714)
(-0.2059692681 -0.1683823857 -1.841518162)
(0.5672859889 -0.5614541387 -3.212968299)
(0.7869390585 0.05459323346 -1.672969298)
(0.2176696668 -0.878798544 -2.858682503)
(0.4857153263 -0.7029668432 -3.034335735)
(0.08184072613 -0.2788066639 -1.717620078)
(0.0004321153692 -0.04868599187 -1.615684514)
(0.5211484059 -0.5986263887 -3.007909687)
(0.342279188 -1.029201664 -2.638796108)
(-0.2257011381 -0.304590683 -2.043245728)
(0.3467106132 -0.4942390141 -2.939098199)
(-0.1366788422 -0.04873937985 -1.749574727)
(-0.2304116278 -0.1894029653 -1.748624986)
(0.2770129661 -0.09462314263 -1.661352772)
(0.3425405221 -0.1563779475 -1.831594358)
(0.3385588483 -0.175610371 -1.889324502)
(0.3342224155 -0.1768860919 -1.919222961)
(0.09495548462 -0.1743893338 -1.728091815)
(0.2676954354 -0.1524622276 -1.734291962)
(0.6296582171 -0.4289871126 -2.52002398)
(-0.01243911927 -0.00807359457 -1.816560345)
(0.2630492854 -0.9069938921 -2.389167739)
(0.2993432264 -0.3264692727 -1.546315593)
(0.1138997601 -0.1375920871 -1.750303418)
(1.165558282 -0.3559892338 -2.108826734)
(0.06267954234 -1.057116735 -2.644536475)
(0.4236574181 -0.3266711445 -1.636807709)
(0.3063771339 -0.2041217963 -1.872847808)
(0.1196567941 -0.1261652669 -1.78270514)
(0.02848129259 -0.3939245518 -1.468308995)
(0.5105526559 -1.07611855 -2.01648028)
(0.171942331 -1.114814251 -2.569612468)
(0.09766892546 -0.3168724187 -1.617342797)
(0.6073448775 -0.3708221494 -1.370221575)
(0.1031795191 -0.2062421285 -1.621002859)
(0.6104656914 -0.4239340165 -1.502312393)
(0.6751318723 -0.3065076899 -1.567525942)
(0.206664894 -0.3046114434 -1.532564846)
(0.4279246251 -0.7844875009 -2.126985075)
(0.27033731 -0.716943859 -2.744398329)
(0.2474555759 -0.2288822633 -1.796135977)
(-0.144823159 -0.2518055698 -1.624699413)
(0.3308403078 0.05546477449 -2.228603618)
(-0.2875399495 -0.2920161264 -1.737695392)
(0.64349793 -0.2699910907 -1.513171303)
(0.3843234489 -0.2211194909 -1.526439121)
(0.5573444134 -0.3888172859 -1.289401928)
(0.04496656686 0.0236696139 -1.763728309)
(0.4933301476 -0.3432935447 -1.270021986)
(0.9575453867 -0.5509350193 -1.843586066)
(0.1500016362 0.04648256753 -1.850283971)
(0.5076262347 -0.2537883965 -1.663048046)
(-0.216498588 -0.01876893002 -2.181238085)
(0.07934757875 -0.3544850715 -1.520120684)
(0.00518682187 -0.2489111855 -1.542946958)
(-0.5593255146 -0.6222470761 -1.964636202)
(0.4299458661 -0.3758195777 -1.294851406)
(0.1753161551 -0.2213396674 -1.688621714)
(0.1775281626 0.6397305505 -2.011897648)
(0.874747424 0.4348031689 -1.847325827)
(0.2413781965 -0.322851461 -1.238664423)
(0.518856284 -0.2069461819 -1.517694774)
(-0.06093168387 -0.9970923767 -1.809566497)
(1.06890038 0.6372696396 -1.630706288)
(0.8864766495 -0.2685312932 -2.33124994)
(-0.5887505869 -1.17564961 -1.558614609)
(0.9628705638 0.9662289184 -1.494940814)
(0.4551141036 -0.3111303176 -1.36456587)
(0.4147791113 -1.11093701 -1.625706584)
(0.2159417228 0.8451075611 -1.8008802)
)


// ************************************************************************* //
