/*--------------------------------*- C++ -*----------------------------------*\
  =========                 |
  \\      /  F ield         | OpenFOAM: The Open Source CFD Toolbox
   \\    /   O peration     | Website:  https://openfoam.org
    \\  /    A nd           | Version:  8
     \\/     M anipulation  |
\*---------------------------------------------------------------------------*/
FoamFile
{
    version     2.0;
    format      ascii;
    class       volScalarField;
    location    "1.4";
    object      alphat;
}
// * * * * * * * * * * * * * * * * * * * * * * * * * * * * * * * * * * * * * //

dimensions      [1 -1 -1 0 0 0 0];

internalField   nonuniform List<scalar> 
67410
(
0.0001081606726
0.0001358113759
0.0001494670572
0.000159562608
0.0001676789861
0.0001745314639
0.0001805259435
0.000185880692
0.0001907404724
0.0001952377036
0.0001995096493
0.0002036784662
0.0002077946807
0.0002117572613
0.0002152498605
0.0002177559725
0.0002187147433
0.0002178095168
0.0002153592495
0.0002122752493
0.0002097240013
0.0002078946246
0.0002063365759
0.0002048057542
0.0002031703775
0.000201457519
0.0001099446
0.0001409011347
0.0001578009771
0.0001711521841
0.0001821898701
0.0001915686605
0.0001997376302
0.0002070020813
0.0002136389079
0.0002199671082
0.0002263447437
0.0002330829304
0.0002402782749
0.0002476389497
0.0002544278921
0.000259603241
0.0002620987774
0.0002611551824
0.0002568423564
0.0002506616953
0.0002453055071
0.0002422954999
0.0002406016682
0.0002392050335
0.0002376280053
0.0002357106179
0.0001099354139
0.0001433386559
0.0001628623713
0.0001784735083
0.0001913238138
0.0002021170815
0.0002113935554
0.0002196051225
0.0002272421551
0.0002349002436
0.0002431942414
0.0002525324563
0.0002628293073
0.0002733704099
0.0002829345928
0.0002901420455
0.0002936798062
0.000292384626
0.0002857981294
0.0002752003042
0.0002644395175
0.000257976601
0.0002548115385
0.0002526025484
0.0002502458625
0.0002473613609
0.0001107954204
0.0001468197599
0.0001680121069
0.0001847427483
0.0001983878418
0.0002097730746
0.0002195595383
0.0002283787309
0.0002369681689
0.0002462055577
0.0002568446948
0.0002691410929
0.0002825928399
0.0002960412149
0.0003079003298
0.0003168975597
0.0003215615659
0.0003203471314
0.0003122245543
0.0002978503103
0.0002808745934
0.0002694538262
0.0002640640141
0.0002607557928
0.0002574719864
0.0002534600328
0.0001132850731
0.0001512735828
0.0001729966066
0.0001899298637
0.0002036893868
0.0002151812549
0.0002252279619
0.0002346805335
0.0002444510235
0.0002555919032
0.0002687801086
0.0002839358979
0.0003001800542
0.000316285327
0.0003300323022
0.0003399841323
0.0003450990872
0.0003443214862
0.0003363934356
0.0003201140225
0.0002973943133
0.0002803560202
0.0002722626856
0.0002676817024
0.0002633978518
0.0002582478185
0.0001168000074
0.0001554163212
0.0001770382328
0.000193918443
0.0002076522894
0.0002187899104
0.0002287305615
0.0002389626915
0.0002500803716
0.000263135209
0.0002785937041
0.0002961788143
0.0003146249703
0.0003314107816
0.0003452331775
0.0003551910228
0.0003604399925
0.0003600491041
0.000352832584
0.0003372596875
0.0003134324036
0.0002918045979
0.0002808042803
0.0002746958762
0.0002692354312
0.0002629174537
0.0001193536934
0.0001585455973
0.0001809850027
0.0001997895343
0.0002148261572
0.0002233267128
0.0002302953088
0.0002412390604
0.0002535602327
0.0002680659691
0.0002850360286
0.0003041706759
0.0003229002534
0.000339552144
0.0003531857646
0.0003630155905
0.0003682554753
0.0003680648851
0.0003614186998
0.0003469491721
0.0003242395459
0.0003019548517
0.0002895137321
0.0002823178839
0.0002757585398
0.0002679855714
0.0001208461346
0.0001631676923
0.0001926182441
0.0002221868403
0.0002427952078
0.0002402643157
0.0002307306716
0.0002412844521
0.0002542259093
0.0002693081957
0.0002866943421
0.0003060060068
0.0003244636854
0.0003408256726
0.0003542224094
0.0003638707471
0.0003690104258
0.0003688898517
0.0003626852863
0.0003494590718
0.0003292917462
0.0003091522734
0.0002969651264
0.0002893739979
0.0002823774608
0.0002738874478
0.0001255752646
0.0001800960353
0.0002314541922
0.0002814957095
0.0003089534846
0.0002887334943
0.0002345446324
0.000239526819
0.0002518050073
0.0002664588951
0.0002830236862
0.0003015431139
0.0003194104748
0.0003353697094
0.0003485073669
0.0003579836241
0.000363049256
0.0003630583132
0.000357454944
0.0003459210791
0.0003294736295
0.0003135496784
0.0003031774534
0.0002960334667
0.0002891875106
0.0002810566167
0.0001437440824
0.000225584719
0.0003034738571
0.0003652137149
0.0003944512332
0.0003674245862
0.0002580503583
0.0002391091416
0.0002471968788
0.000260638679
0.0002754167176
0.0002919277102
0.0003085646199
0.0003237074458
0.000336414373
0.0003457595845
0.0003509781982
0.0003515450666
0.0003472461963
0.0003384310652
0.0003267652329
0.0003159639267
0.0003082974138
0.0003023120899
0.0002962148981
0.0002887989384
0.000181863933
0.0002942721818
0.0003824994436
0.000443820798
0.0004767400357
0.0004585045176
0.0003270155932
0.000248720707
0.0002424780252
0.0002544056886
0.0002670283485
0.0002806522393
0.0002950074815
0.0003083726928
0.0003200213424
0.0003290885258
0.0003348159039
0.0003367597688
0.0003349455025
0.0003300435954
0.0003235681817
0.0003175074813
0.0003125944434
0.0003080995813
0.0003031202014
0.0002967930827
0.0002279339963
0.0003551993441
0.0004405672092
0.0005094396811
0.0005533382761
0.0005480467529
0.0004312992356
0.0002810152739
0.0002396521735
0.0002499239592
0.0002613401023
0.0002728659037
0.0002847502657
0.0002956920166
0.0003055200835
0.000313773316
0.0003199127679
0.0003235646364
0.0003247087023
0.0003237683889
0.0003215818458
0.0003190067145
0.0003163184745
0.0003132187325
0.0003093152683
0.0003041615874
0.0002495774656
0.0003673526616
0.0004451324469
0.0005373003932
0.0005882642295
0.0005863008102
0.0004982245047
0.0003308782789
0.0002391696782
0.0002469154994
0.0002582738836
0.0002693402975
0.000279975348
0.0002894181781
0.0002978645091
0.0003052430293
0.0003113419411
0.0003159559865
0.0003190078844
0.000320601832
0.0003210603768
0.000320686471
0.0003195665195
0.0003175395076
0.0003144120284
0.0003099525252
0.0001725975966
0.0002530524851
0.00033863642
0.0004591992087
0.0005304959124
0.0005431311192
0.0004626820782
0.0002706627902
0.000234983574
0.0002445455706
0.0002560551257
0.0002673344396
0.0002775220576
0.0002863929613
0.0002942504031
0.0003012162231
0.0003072847612
0.0003123873129
0.0003164485965
0.000319408088
0.0003213526477
0.0003223171529
0.000322249778
0.000321008548
0.0003184774984
0.0003145365866
0.0001667397213
0.0002365457927
0.0003323611307
0.0003190012307
0.000390027311
0.000378784662
0.000255228958
0.0002217857311
0.0002290933475
0.0002413203747
0.0002532752456
0.0002651461205
0.0002754379705
0.0002843211321
0.0002921178321
0.0002990366641
0.0003051877382
0.000310596598
0.0003152186013
0.0003189421125
0.0003217408024
0.000323516571
0.0003241264295
0.0003234112641
0.000321275234
0.0003176287677
0.0001814316341
0.0002948709442
0.0004214026519
0.0003449459879
0.0002759280659
0.0002699337538
0.0002015708371
0.0002083812569
0.0002219254846
0.0002356460872
0.0002487305779
0.0002614590939
0.0002724136983
0.0002817289537
0.0002898045763
0.0002969332262
0.0003033021536
0.0003089954307
0.0003140027512
0.0003182327884
0.0003215715227
0.0003238591455
0.0003248994975
0.0003245203603
0.0003226427837
0.0003192169925
0.0001415419885
0.0001807509739
0.0002323028727
0.0002028511013
0.0002042315519
0.0001968169872
0.0001901256776
0.0002002551701
0.000213803163
0.0002281215116
0.0002421717332
0.000255825245
0.0002677585811
0.0002777583651
0.0002862741783
0.0002936776519
0.0003002771973
0.0003062414194
0.0003115795832
0.0003161958366
0.0003199326499
0.000322583439
0.0003239136541
0.0003237529298
0.0003220485083
0.0003188110198
0.0001415226801
0.0001565954394
0.0001764733472
0.0001766914067
0.0001784883328
0.0001769704023
0.000181223022
0.000190754122
0.0002031226233
0.0002172831269
0.0002318942323
0.0002464847681
0.0002594588564
0.0002702749223
0.0002793447731
0.000287253555
0.0002942828699
0.0003005942016
0.000306245517
0.0003111668061
0.0003152006305
0.000318126562
0.000319657334
0.0003196350534
0.0003180250319
0.0003149223657
0.0001475716203
0.000153706433
0.0001533615722
0.0001575911586
0.0001629129894
0.0001692292174
0.0001769496485
0.0001850771725
0.0001940613074
0.0002052577944
0.0002186131986
0.000233960277
0.0002474579924
0.0002594291567
0.000269491425
0.0002779856533
0.0002853840571
0.0002919744767
0.0002978619659
0.0003029921841
0.0003072212126
0.0003103440037
0.0003119152647
0.0003118096486
0.0003100268088
0.0003069133671
0.0001599762065
0.0001624866483
0.000156860675
0.0001557790645
0.0001608027578
0.0001688160928
0.0001767365148
0.000183530531
0.0001895547145
0.0001967943952
0.0002089948328
0.0002195069891
0.0002329927062
0.0002452580376
0.0002556930885
0.0002647255838
0.0002724841464
0.0002793425503
0.0002854608978
0.0002907752325
0.0002951423485
0.0002984547034
0.0002998714311
0.0002995205747
0.0002974558881
0.0002944573123
0.0001829466498
0.0001783186458
0.0001679693942
0.0001629986407
0.0001649024315
0.0001705078068
0.0001766486397
0.0001825389574
0.000189183656
0.0002095261604
0.000259394521
0.0002061656088
0.0002181085413
0.0002299978739
0.0002396765585
0.0002478890977
0.0002551363938
0.0002619627042
0.0002683643984
0.0002739122824
0.0002784457587
0.0002822349345
0.0002830869639
0.0002819672884
0.0002794368694
0.0002770690313
0.0002204589146
0.0002049618575
0.0001850867806
0.0001737296819
0.0001707530584
0.0001726157171
0.0001757022267
0.0001814957042
0.0002103773739
0.0003423424353
0.0005236017843
0.0002396200182
0.0002038696956
0.0002137735651
0.0002229479914
0.000230359812
0.0002367428757
0.0002423581894
0.0002473251076
0.0002517416801
0.0002557793552
0.0002580817089
0.0002583509739
0.0002574832792
0.0002556521938
0.000254739901
0.0002660871358
0.0002443296007
0.0002111701822
0.0001904243076
0.0001804216096
0.000177943519
0.0001763874614
0.0001741962321
0.0001752308739
0.0001898675678
0.000231476189
0.0001850130745
0.0001905189645
0.0001982638435
0.0002054357927
0.0002113281993
0.0002165803582
0.0002218147984
0.0002287198798
0.0002413391415
0.0002522995333
0.0002315528305
0.0002317813567
0.0002330166788
0.0002321466885
0.0002315311344
0.0003093690471
0.0002915648888
0.0002478831986
0.0002166854502
0.000197812598
0.000191212673
0.00018511864
0.0001745032437
0.0001674575065
0.0001641318473
0.0001699944563
0.0001708138952
0.0001777884859
0.0001836334726
0.0001891894505
0.0001943812347
0.00019992344
0.0002069677571
0.0002174976735
0.000234422278
0.0002486552876
0.0002306982819
0.0002199379849
0.0002070958166
0.0002058041469
0.0002023891333
0.0003453968347
0.0003394500008
0.0002932892824
0.0002529163719
0.0002252794643
0.0002170995095
0.0002073579713
0.0001833717924
0.00016920441
0.0001576767547
0.00015331195
0.0001596132612
0.0001701211664
0.000179775667
0.0001883888822
0.0001960288858
0.0002033896665
0.0002116386151
0.0002217581537
0.0002339219943
0.0002426819492
0.0002418896585
0.00022555027
0.0001971083357
0.0001844124623
0.0003740862954
0.0003844709382
0.00034303331
0.0002964259327
0.0002597645916
0.0002544757608
0.0002455102323
0.0002058806058
0.0001782606944
0.0001586879176
0.0001515089724
0.0001555581429
0.0001660354809
0.0001773011956
0.0001877227938
0.0001973495801
0.0002071244811
0.0002185534956
0.0002330024257
0.0002492950766
0.0002620565871
0.0002655790011
0.0002484890305
0.0002160306401
0.0002102028701
0.0003978344644
0.0004270571241
0.0003932410896
0.0003431913413
0.0002964790956
0.0002936350277
0.0002894324169
0.0002462980241
0.0002022360986
0.000166272427
0.0001572275114
0.0001591784619
0.0001645676489
0.0001719268328
0.0001807467764
0.0001913872657
0.0002049570868
0.0002226454739
0.0002449202036
0.0002680936907
0.0002852246092
0.0002880171167
0.0002642215816
0.0002417003313
0.0002517598421
0.000424451856
0.0004703821815
0.000443072264
0.0003921252005
0.0003338288281
0.0003275584926
0.0003280090049
0.0002911675568
0.0002433059594
0.0001845516521
0.0001680545509
0.0001690130075
0.0001708246488
0.0001730729687
0.0001768174543
0.0001833436701
0.0001943561594
0.0002113776241
0.0002344000667
0.0002613141904
0.0002824579879
0.0002851285336
0.0002653103318
0.0002708757336
0.0002978787928
0.0004595782291
0.0005197171748
0.0004936867313
0.0004422667905
0.0003744324847
0.0003554323187
0.0003615971984
0.0003263974177
0.0002803691108
0.0002110609698
0.0001813764721
0.0001814146076
0.0001829241638
0.0001840871384
0.0001857271449
0.0001886712641
0.0001937115513
0.0002014949423
0.000212370326
0.0002263794624
0.0002440098664
0.0002702321768
0.0002897343066
0.0003029632759
0.0003305978248
0.0003613550546
0.0005021504314
0.000573596778
0.0005445594099
0.0004916307853
0.0004189609993
0.0003769863863
0.0003828830011
0.0003457019654
0.0002996275589
0.0002366044248
0.0001960833475
0.0001931095498
0.0001950365575
0.0001971205985
0.000199481526
0.000202770289
0.0002076987203
0.0002149371705
0.0002251129084
0.0002388958829
0.0002575584375
0.0002833015923
0.0003063695407
0.0003134171145
0.0003250923657
0.0003410180006
0.0001071478122
0.0001383211606
0.0001539583436
0.0001661083386
0.0001760654542
0.0001846870964
0.0001924860558
0.0001996709564
0.0002062950095
0.0002123670186
0.0002179157238
0.0002230087143
0.0002277293924
0.0002321215994
0.0002361285707
0.0002395649222
0.0002421400558
0.0002436250049
0.0002446065035
0.0002449256917
0.0002449220226
0.0002447165395
0.0002443407886
0.0002438341439
0.0002430922691
0.0002419833076
0.0001125907697
0.0002347953289
0.0002862044172
0.0003309864784
0.0003758428184
0.0004204349602
0.0004644417982
0.0005066283461
0.0005456303637
0.0005806946963
0.0006121413551
0.0006413916694
0.0006704822274
0.0007011566652
0.0007340008707
0.000767410182
0.0007982093207
0.0008233543565
0.000840232331
0.0008512845411
0.0008602845862
0.000867746749
0.0008730536721
0.0008761021078
0.0008766835226
0.0008737139034
0.000113760848
0.0002623483966
0.0003287176163
0.0003940309476
0.0004631721117
0.0005331555573
0.0006008049905
0.0006628149163
0.0007172613803
0.0007644433479
0.0008070460565
0.0008493541504
0.0008956960561
0.0009478135375
0.001003805696
0.001057472067
0.001100742708
0.001129305227
0.001140762131
0.001139512995
0.00113690726
0.001136607335
0.001135709532
0.001131639686
0.001124428234
0.001112466584
0.000113606944
0.0002720378231
0.0003492380903
0.0004310019256
0.0005200763579
0.0006102993325
0.0006955949621
0.0007710061972
0.0008353368948
0.00089141151
0.0009454445574
0.001004106025
0.001070843426
0.001143085848
0.001215764838
0.001274916297
0.001314890649
0.001340761955
0.001352259933
0.001341006697
0.001322343149
0.001306355409
0.001293511027
0.001278342608
0.001261321798
0.001243996647
0.0001142284637
0.0002761757933
0.0003612121316
0.0004544009984
0.0005566402486
0.0006600895912
0.0007573572739
0.0008420732086
0.0009148713876
0.000981278179
0.00104944674
0.001124210281
0.001201577339
0.001265692434
0.001327042342
0.001381443401
0.001422595832
0.001448078021
0.001459282865
0.001460456811
0.001454157258
0.001428800379
0.001403484952
0.001376365856
0.001346182889
0.001304422468
0.0001158501702
0.000276340156
0.0003645850826
0.0004618779866
0.0005687528979
0.0006785777571
0.0007844279306
0.0008772966212
0.0009600270964
0.001038650878
0.001119420245
0.001197170666
0.001261893607
0.001329182974
0.001393668367
0.001449719044
0.001491646527
0.001516853606
0.001527285933
0.001528745865
0.001525513388
0.001510571118
0.001480758039
0.001446280454
0.001410012157
0.001360989035
0.0001169656843
0.0002705527281
0.0003563346598
0.0004502424521
0.0005537894435
0.00066427851
0.0007773816096
0.0008792658866
0.0009750119286
0.001066626606
0.001155465187
0.00122463865
0.001293231314
0.001362615195
0.00142913982
0.00148670402
0.001529834035
0.001556281734
0.001568127026
0.001571004133
0.001569306591
0.001556492051
0.001526426619
0.001490926155
0.001459433059
0.001417150128
0.0001161906731
0.0002581845304
0.0003375482913
0.0004236291807
0.000520499064
0.0006263738355
0.0007405336085
0.000851541719
0.0009639989815
0.00106925923
0.001165675139
0.001235770076
0.001306047567
0.001376121415
0.001442687272
0.001500371106
0.001544551431
0.001573543444
0.001589278427
0.001596279474
0.001597518775
0.001587020826
0.001559479236
0.0015266552
0.001499960556
0.00147515609
0.000114796713
0.0002429964917
0.0003167377469
0.0004011959759
0.0005012725947
0.0005915153167
0.0006806952972
0.0007991732817
0.0009319865851
0.001051233449
0.001159645698
0.0012371086
0.00130900808
0.001378290244
0.001443154889
0.001499715247
0.001544598003
0.001576703699
0.001597500054
0.001609757183
0.001614264787
0.001605976552
0.001582617962
0.001555366109
0.001535376993
0.001522796379
0.0001179073926
0.0002337275192
0.0003121416102
0.0004248108081
0.0005453785261
0.0005971083772
0.0006169598798
0.0007304883297
0.0008862999085
0.001018814526
0.001140318447
0.00123333196
0.001307780154
0.001376226797
0.001439053172
0.001494067851
0.001539228971
0.001573921204
0.001598914491
0.001615105161
0.001621579708
0.001615069266
0.001596826187
0.001576761212
0.001564315345
0.001562448838
0.0001306995091
0.0002375315778
0.0003545763096
0.0005441180281
0.0006960759903
0.0007109606877
0.0006393901895
0.0006666698927
0.0008364134099
0.0009817269515
0.001116513404
0.001224521895
0.001302186705
0.001371501049
0.001433750344
0.00148793645
0.001533095647
0.001568968712
0.001595744295
0.001613144772
0.001620107053
0.001615752574
0.00160347354
0.001591040714
0.001585225367
0.001589325108
0.0001523443409
0.0002688550975
0.0004790641619
0.0007838647694
0.001004636471
0.001023746946
0.0008428028113
0.0006654937026
0.0007931195573
0.0009494385779
0.001093749693
0.001207910033
0.00128810537
0.001358994128
0.001422035962
0.001476541446
0.001521958181
0.001558170715
0.001585182994
0.001602549499
0.001610462927
0.001609916442
0.001604490681
0.001599472779
0.001599076196
0.001605993763
0.0001665146659
0.0002944268904
0.0005423994198
0.0008610580721
0.001138285185
0.001192212262
0.001027600193
0.0007499132367
0.0007691588506
0.0009291006665
0.001073611427
0.001183404214
0.001263701148
0.00133506688
0.00139855517
0.001453562865
0.0014997014
0.001536920362
0.001565231998
0.001584097565
0.001595193928
0.00160018703
0.001601888526
0.001603540826
0.00160754165
0.0016157275
0.0001475546765
0.0003002443363
0.000511535474
0.0007706854281
0.001013348346
0.001088605185
0.0009689586849
0.000748447212
0.000768756641
0.0009216079645
0.001055071135
0.001153968111
0.00123359342
0.001304911256
0.001368298777
0.001423450367
0.001470358362
0.001509244784
0.001540244101
0.001562234886
0.00157799595
0.001588917515
0.001596903202
0.001603842356
0.001611069596
0.001619764463
0.0001448159843
0.0003475961659
0.0007853261387
0.0007715473605
0.0007047563575
0.0007711151945
0.0006884205402
0.0006509766244
0.0007605989912
0.0008972195564
0.001025636077
0.001119211357
0.001200430103
0.001272894589
0.001336719438
0.001392179015
0.001439880359
0.001480486822
0.001514290622
0.001540235044
0.001560736665
0.001576732847
0.001589382829
0.001599835658
0.001608947216
0.001617581509
0.0001585775682
0.0005825541843
0.0009082738481
0.000963189349
0.000566642466
0.0004808583631
0.0004867669163
0.0005677486002
0.0006910225338
0.0008368506193
0.0009745768555
0.0010765481
0.001162964574
0.001238686676
0.001304359586
0.001360997299
0.001409832761
0.001451973369
0.001488042671
0.001518081645
0.001542653661
0.001562340867
0.001577767653
0.001589801304
0.001599279803
0.001607168244
0.0001292984027
0.0002239384511
0.0004456079243
0.0004735851342
0.000447609748
0.0004182150327
0.0004444426592
0.0005137186028
0.0006286350119
0.0007683237596
0.0009098227379
0.001025453852
0.0011183304
0.00119881614
0.001267683122
0.00132681882
0.001377962893
0.001422567768
0.00146140426
0.001494513426
0.001521857078
0.001543469046
0.001559600501
0.001571109406
0.001579214305
0.00158558307
0.0001331998773
0.000205042817
0.000240033338
0.0002993463133
0.0003189319974
0.0003384079367
0.0003742066947
0.0004473638651
0.0005531201805
0.0006824086704
0.0008239425075
0.0009601868978
0.001061696486
0.001148275182
0.001220949517
0.001283330488
0.001337563932
0.00138534886
0.001427414491
0.001463503601
0.001492938223
0.001515230657
0.001530275147
0.001539239068
0.001544168249
0.001547964738
0.0001391409597
0.0002160590476
0.0002242961432
0.0002278229318
0.0002459180096
0.0002762875413
0.000328973241
0.0004056852624
0.0004992545585
0.0006053050046
0.0007148733177
0.0008702420504
0.0009838349501
0.001078266015
0.001153849969
0.001219503731
0.001277210192
0.001328785038
0.001374726747
0.001414054543
0.001445155319
0.001466966724
0.001479086101
0.00148323854
0.001482641871
0.001482153666
0.0001481242685
0.000237087747
0.0002431441158
0.0002310996797
0.0002298932099
0.0002545412923
0.0003077517255
0.0003827336533
0.000463959031
0.0005192632439
0.0005160775345
0.0007597707234
0.0008594461677
0.0009686063059
0.001053149538
0.001121409428
0.001182282015
0.001237865247
0.001288952965
0.001333019045
0.001366098707
0.001385651513
0.001391695734
0.001388746414
0.001382121596
0.001378878429
0.000161493153
0.0002556803171
0.0002739517431
0.0002643431925
0.0002563935484
0.0002669088073
0.0003027498364
0.0003607044401
0.0004040694273
0.0005264454962
0.0006021510935
0.0006938947351
0.0007087490697
0.0007966721935
0.0008784565905
0.0009565924015
0.001027685449
0.001094886413
0.001157062662
0.001214498725
0.001253792539
0.001265277364
0.00126068274
0.001246903151
0.001231707277
0.001225716546
0.0001827457014
0.0002693503821
0.0002963364489
0.0002979151788
0.0002931292456
0.0002936320148
0.0003049682064
0.0003109198591
0.000412891754
0.0007039603187
0.001190253753
0.0005329864321
0.0005754644972
0.0005900697864
0.0006547982566
0.0007097620934
0.0007723349931
0.0008445946763
0.0009372246454
0.001051144931
0.001118341566
0.00110125877
0.001071256637
0.001033734201
0.0009990241872
0.000993236626
0.0002105960308
0.000289829957
0.0003126348911
0.0003194000979
0.0003201132341
0.0003184201902
0.0003102877566
0.0003081449676
0.0003233666333
0.0004155545493
0.0004278504606
0.0003396713139
0.0004153107957
0.0004410038657
0.0004707527716
0.0005068960279
0.000552328129
0.0006240821617
0.0007552879181
0.0009419761495
0.001016164174
0.0008824197205
0.0007756177387
0.0007033243726
0.0006673981929
0.0006769907872
0.0002389881565
0.0003314113609
0.0003399524859
0.0003383645872
0.0003338945534
0.0003309949502
0.0003166355605
0.0002892318934
0.0002677354097
0.0002643249642
0.0002530323157
0.0002988949166
0.0003384586573
0.000377357899
0.0004240508696
0.0004724968003
0.0005328323241
0.0006264310884
0.00077921028
0.0009648507943
0.001020078616
0.0008935003842
0.0006941759232
0.0004832190989
0.0004091172699
0.0004727438318
0.0002639320698
0.0004034181712
0.0003966026627
0.0003771523613
0.0003538223141
0.0003389592671
0.0003196853655
0.0002860550437
0.0002527224683
0.0002330527112
0.0002377098282
0.0002756343493
0.0003419349383
0.0004197015076
0.0004976147566
0.000572751218
0.0006525568598
0.0007507324805
0.0008731858176
0.0009894824088
0.001020927664
0.0009262768728
0.0007295342839
0.0004542568272
0.0003448341744
0.0002877373379
0.0005157397905
0.0004964645974
0.000453867446
0.0004089080027
0.000374901292
0.0003337206459
0.0002835607459
0.0002475861827
0.0002288178347
0.0002321114892
0.0002646988764
0.0003326373504
0.0004187319779
0.0005103513259
0.0006022339321
0.0007003750703
0.0008149476997
0.0009414059039
0.00105219894
0.001102251898
0.001056604945
0.0009065498783
0.0006596881192
0.0005571204228
0.0003177348305
0.0006717637547
0.0006490064099
0.0005693685639
0.0005109287653
0.0004724967596
0.0003969178737
0.0003075614259
0.0002483705538
0.0002327708472
0.0002395097932
0.0002627652368
0.0003033264429
0.000360834985
0.0004319891567
0.0005172908299
0.0006259617339
0.0007693356184
0.0009321951233
0.001089707101
0.001191222568
0.001207966392
0.001134783702
0.0009668267946
0.0009040595011
0.0003573866702
0.0008419298882
0.000857988391
0.0007195552406
0.000650075637
0.0006359358667
0.0005275967319
0.0004007047603
0.0002807912275
0.0002519621933
0.0002625206975
0.0002790563469
0.0002979346028
0.0003242973217
0.000361788965
0.0004153762257
0.0004953148164
0.0006196682453
0.0008022550851
0.001008730132
0.001177461611
0.001285102926
0.001327032041
0.001289967616
0.001367728385
0.0004127447622
0.001031148714
0.001079205994
0.000922686886
0.000812576182
0.0008061311426
0.0007036939658
0.0005478837022
0.0003553383785
0.0002913286839
0.0003032648983
0.0003231308304
0.0003373180641
0.0003533019414
0.0003746959345
0.0004057108167
0.000451787639
0.0005229516548
0.0006352731591
0.0008056097563
0.001054767044
0.001336959716
0.001524686033
0.001522165463
0.001598093958
0.001728780045
0.0004723722194
0.001210531433
0.001284244742
0.001158748692
0.0009828200198
0.0009351262216
0.0008321030655
0.0006725925681
0.000453534098
0.0003566954967
0.0003621629056
0.0003889960965
0.0004110154306
0.0004374082281
0.0004682678553
0.0005056407096
0.0005501030734
0.0006085089027
0.0006996809887
0.0008498756682
0.001087122212
0.001347476722
0.00153227985
0.00163438745
0.001702587809
0.001780930671
0.0001112762628
0.0001439019056
0.0001605351804
0.0001741814265
0.0001854565062
0.0001952430126
0.0002041487361
0.0002124389965
0.0002201733146
0.000227329966
0.0002338916131
0.0002398831746
0.000245366516
0.0002503987947
0.000254971269
0.0002589684157
0.00026218602
0.0002640372906
0.0002670298908
0.0002687378602
0.0002697547771
0.0002702536468
0.0002703794828
0.0002702376024
0.00026977913
0.0002690227625
0.0001200224328
0.0002941536362
0.0003771000451
0.0004486765027
0.0005197539409
0.0005901719535
0.00065966218
0.0007268809544
0.0007901934666
0.0008485198621
0.0009018857134
0.0009514548304
0.0009990330253
0.001046145948
0.001093040837
0.001138117299
0.001179006632
0.001212320846
0.001236098151
0.001253316012
0.001263235277
0.001269142896
0.001271538722
0.001271911624
0.001271837354
0.001274844593
0.000122197211
0.0003453042369
0.000454303089
0.0005597490879
0.0006709826107
0.0007836926539
0.0008935632615
0.0009964480975
0.00108981663
0.001173473162
0.001249569225
0.001321742149
0.001393466514
0.001466212302
0.001538385601
0.00160579851
0.001663500669
0.001708131539
0.001730551066
0.001742867525
0.001746320865
0.00174464521
0.001738538535
0.001729474352
0.001723757106
0.001727755172
0.0001215597609
0.0003597217753
0.0004832129985
0.0006124930638
0.0007537125788
0.0008976989021
0.001035599458
0.001160845724
0.001271263659
0.001368805886
0.001458375786
0.00154535923
0.001632838309
0.001719806846
0.00180156881
0.001873436246
0.001930796642
0.001971156075
0.001993920889
0.002001145625
0.001998889057
0.001989607659
0.001973890846
0.001953887117
0.001941497818
0.001950246946
0.0001207982721
0.0003609215161
0.0004932446271
0.0006386549816
0.0007999969212
0.0009644083464
0.001119892061
0.001258267352
0.001378605365
0.001484899492
0.001583522198
0.00167903139
0.001771231559
0.001856303796
0.001926672005
0.001988435473
0.002038794892
0.002075935711
0.002100631671
0.002115319191
0.002121275048
0.002114945615
0.002096360456
0.002070617872
0.002043541778
0.002013837585
0.0001208112128
0.0003552148694
0.0004913859717
0.0006446409509
0.0008154361728
0.0009899888988
0.001155523236
0.0013020133
0.001429590722
0.00154260954
0.00164658462
0.001742403962
0.001825156281
0.001898384644
0.001966783739
0.002026187489
0.002073775885
0.002108939025
0.002133600964
0.002150734781
0.0021615198
0.002162394849
0.002148994242
0.002124899368
0.002098444816
0.002070151009
0.0001208011821
0.0003429123564
0.0004769914591
0.0006291683304
0.000798932614
0.0009754693995
0.001147350936
0.001302106737
0.001438342757
0.001558146434
0.001665003337
0.001755656313
0.001830603868
0.00190228793
0.001968429772
0.002025654962
0.002071445119
0.0021059352
0.002131705383
0.002151839712
0.002167127249
0.002173378986
0.00216465052
0.002143867223
0.002121350744
0.002100692673
0.0001191197788
0.0003232021148
0.000449413551
0.000591519052
0.0007500639137
0.0009187444424
0.001091724381
0.001263676677
0.001415747062
0.001544603798
0.001654982982
0.001741729599
0.001817272278
0.001887320708
0.001951086011
0.002005962398
0.002050302278
0.00208504538
0.002113120932
0.002137243277
0.002157313133
0.00216846012
0.002164547672
0.002148567507
0.002131449024
0.002117914099
0.0001159531805
0.0002986189248
0.0004129905424
0.0005378907516
0.0006738142447
0.0008142090797
0.0009658137266
0.001178405519
0.001368403402
0.001512135348
0.001629878631
0.00171969517
0.001796439133
0.001865401037
0.001926825655
0.001979322197
0.00202241623
0.002057776945
0.002088358906
0.002116157721
0.002140001257
0.002154620962
0.002154798854
0.00214425494
0.002133768321
0.002127760559
0.0001149019597
0.0002756493632
0.0003777342193
0.0004879119947
0.0006135170779
0.000728592408
0.0008166270192
0.001029930879
0.001295437598
0.001467421597
0.00159647593
0.001694046721
0.001774219797
0.001843601184
0.001903717609
0.001954526674
0.001996687562
0.002032421931
0.002064456404
0.002093928007
0.002118895938
0.002134485271
0.002137361956
0.002132173561
0.002128745281
0.002130703405
0.0001195640604
0.0002615502678
0.0003631232071
0.0005058214099
0.0007145155823
0.0008552841252
0.0008627198141
0.000901488815
0.001192104359
0.001414045326
0.001558476894
0.001665255156
0.001749949732
0.00182259895
0.001884103424
0.001935037442
0.001976971511
0.00201251328
0.002044111235
0.002072183283
0.002094994767
0.002109141891
0.002113612494
0.002113500203
0.002116835781
0.002126287286
0.000130205998
0.0002659071338
0.0004020811558
0.0006724210698
0.001022176598
0.00116578614
0.001110526372
0.0009436046546
0.001082261658
0.001352938855
0.001516628372
0.001630779455
0.001720939871
0.001798613374
0.001863922492
0.001917110645
0.001959920497
0.001995044903
0.00202475899
0.00204889196
0.002067546916
0.002079446442
0.002085518754
0.002090432201
0.002099966147
0.002116018235
0.0001390834074
0.0002853608881
0.0004630838958
0.0008222232788
0.001189177418
0.001332837383
0.001289134251
0.001074442834
0.001013609496
0.001286805547
0.001468953436
0.001587442113
0.001682690659
0.001765854151
0.001836051432