/*--------------------------------*- C++ -*----------------------------------*\
  =========                 |
  \\      /  F ield         | OpenFOAM: The Open Source CFD Toolbox
   \\    /   O peration     | Website:  https://openfoam.org
    \\  /    A nd           | Version:  8
     \\/     M anipulation  |
\*---------------------------------------------------------------------------*/
FoamFile
{
    version     2.0;
    format      ascii;
    class       volScalarField;
    location    "1.4";
    object      epsilon;
}
// * * * * * * * * * * * * * * * * * * * * * * * * * * * * * * * * * * * * * //

dimensions      [0 2 -3 0 0 0 0];

internalField   nonuniform List<scalar> 
67410
(
0.05457963104
0.08143130446
0.1085624779
0.132089034
0.1532917535
0.1728640648
0.1912937765
0.2088251439
0.2256335828
0.2419660227
0.2581859151
0.2746906705
0.291660899
0.3086532944
0.3241892039
0.3356892376
0.3402185605
0.3361023192
0.3249530292
0.3112540384
0.3002198656
0.2924702539
0.2859693821
0.2796704665
0.2730391972
0.2661987481
0.05189587253
0.07975195805
0.1120353662
0.1429575726
0.172449895
0.2004888853
0.2272573774
0.2529727202
0.2780887808
0.303515879
0.3306402546
0.3609894387
0.395398639
0.4328321967
0.4694494043
0.4987813709
0.5134376756
0.5080408019
0.4833801062
0.4493963806
0.4212859975
0.4060417175
0.3976309414
0.3907761588
0.3831206506
0.3739342677
0.0518867745
0.08396040411
0.1231588365
0.1620962219
0.1997149347
0.2354821604
0.2694358366
0.3020743691
0.3346741706
0.3695983418
0.4100435139
0.4590025749
0.5174030165
0.5822185809
0.6456362578
0.6964578752
0.7224736814
0.7131323406
0.6661013296
0.5947378589
0.5277142265
0.4900560291
0.4723080132
0.4601718317
0.4474379579
0.4321589698
0.05311386044
0.09022270028
0.1352154894
0.1797953807
0.2226844648
0.2632978099
0.3019120104
0.3397610812
0.3794957245
0.4255127738
0.4829509149
0.5555876957
0.6431457873
0.7395835346
0.8323916402
0.907838702
0.9488608901
0.938390171
0.8688803021
0.7542351127
0.632384096
0.5583889637
0.5256290623
0.5061757425
0.4873221737
0.4649038433
0.05676847074
0.09868262927
0.1476184278
0.1953857734
0.2410412633
0.2842216294
0.3259304003
0.3686713046
0.4165599414
0.476001836
0.5534231666
0.6524011409
0.7710544837
0.9022813086
1.025638996
1.121773378
1.173607582
1.165972139
1.087337308
0.9368053581
0.7508380952
0.6289486339
0.5761032721
0.5475807366
0.521751151
0.4917503647
0.06220894221
0.1070127503
0.1582019363
0.2079190594
0.2553279762
0.2987500384
0.3413953983
0.3892232633
0.4459890779
0.5194033023
0.6163588326
0.7406717371
0.8882162643
1.038655688
1.174722922
1.279908633
1.3379646
1.333922638
1.255394041
1.096175332
0.8793401518
0.7092456657
0.6320363749
0.5917668875
0.5572110739
0.5188900235
0.06636810986
0.1135690281
0.168843488
0.2269327606
0.282154669
0.3174831102
0.3484596816
0.4004734001
0.4649001605
0.5492389951
0.6603054278
0.8026096158
0.960666366
1.117687196
1.258423662
1.367029448
1.427558394
1.425653465
1.349899376
1.193945469
0.9738618991
0.7859778944
0.69266857
0.642350439
0.5986881069
0.5494360902
0.06883438715
0.1235111862
0.2025243022
0.3102340007
0.4054998726
0.3945598983
0.3503646682
0.4007418198
0.4686576981
0.5570547993
0.6721095761
0.8175512159
0.975068834
1.130728444
1.269981619
1.377170823
1.43680677
1.435680392
1.364505567
1.220340008
1.020329743
0.8436450821
0.7475444351
0.6916775786
0.642763546
0.5864883775
0.07697481749
0.1648970167
0.348777132
0.6289209432
0.8353850477
0.6846020306
0.3675817161
0.3920556381
0.4555011705
0.5397043885
0.6468027676
0.7824833598
0.9303942937
1.077472399
1.209689005
1.311593961
1.368464169
1.368783378
1.30635607
1.183600297
1.021987476
0.8801940857
0.7954549021
0.7404977216
0.6903120236
0.6336474139
0.1146110987
0.3219576821
0.7866641319
1.379586749
1.746528358
1.414757437
0.4882166595
0.3898563363
0.4310265571
0.5052008942
0.5961195975
0.7100140346
0.8387556228
0.9688404681
1.087961513
1.181622462
1.23626419
1.242394732
1.197256394
1.107986458
0.996724575
0.9006213253
0.836432996
0.7885921064
0.7418026522
0.6873910113
0.2309720434
0.7165843213
1.584980459
2.489496519
3.095435078
2.757216765
0.9935303251
0.4385007964
0.4068359355
0.4698745476
0.5433183779
0.6308244068
0.7328097113
0.8372606462
0.9361146727
1.018297042
1.07263735
1.091503276
1.073828775
1.027063512
0.9674081229
0.9137774188
0.8718789649
0.8347448028
0.7948734432
0.7460427894
0.456066143
1.269407097
2.437126777
3.779300435
4.856923197
4.723920997
2.290356783
0.6333512006
0.3927549552
0.4455179531
0.5093708321
0.579760502
0.6588927888
0.7379011277
0.814102729
0.8820503047
0.93499028
0.967439031
0.9776926467
0.9690968438
0.9494370347
0.9266933131
0.9033983362
0.8770553857
0.8446224404
0.8030254565
0.6033368925
1.41597846
2.527239207
4.448132325
5.851930639
5.796770166
3.548554903
1.039254016
0.3904036065
0.4296253292
0.4916771222
0.5576112683
0.6263135263
0.6918742953
0.7542814681
0.811795304
0.8614900818
0.9003935119
0.9267353766
0.940681323
0.9446897503
0.9413646091
0.9315153495
0.913873263
0.8870885695
0.8497975852
0.1996773841
0.4589905575
1.101855067
2.767555502
4.282620169
4.606547187
2.852333919
0.5670566342
0.3702891459
0.4173616957
0.4791226131
0.5452723465
0.6100248909
0.6704226995
0.7271431883
0.7800294718
0.828142202
0.8700915124
0.9044723035
0.9301154109
0.9472229453
0.95578994
0.9551936644
0.9441823345
0.9219835173
0.888110101
0.1792001098
0.3688501249
1.023126399
0.9231145905
1.698172849
1.560050224
0.4752007855
0.311326316
0.3431282252
0.4010738849
0.4636965497
0.5320225456
0.5964210297
0.6560152246
0.7114794153
0.7632382122
0.8113060262
0.8552043957
0.8939541431
0.9260404062
0.9506607556
0.9665139488
0.9720037252
0.9655761928
0.9465372761
0.9146124723
0.2288373833
0.714003606
2.1132765
1.160730376
0.5954233789
0.5618584217
0.2337355347
0.2582247645
0.3119169862
0.3734376503
0.4391893965
0.5101659865
0.5770249543
0.6382717813
0.6947468174
0.7472807048
0.796395656
0.8420822508
0.8836876135
0.9199013756
0.9491829959
0.9696091944
0.9790005008
0.9755764495
0.9587178271
0.928454929
0.1106283351
0.16688566
0.3531271417
0.2380522467
0.2426155683
0.2177519247
0.1961952572
0.2291924133
0.2789175594
0.3388099324
0.4053881005
0.4779449195
0.5479959162
0.6117048968
0.6696991625
0.7229983938
0.7728297295
0.8197882182
0.8634041477
0.902359795
0.9347502914
0.9582019092
0.9701266199
0.9686935641
0.9534683441
0.9249770903
0.1107767823
0.1095375617
0.1560937575
0.1576868173
0.1624748669
0.1583320222
0.1699122493
0.1981041203
0.2391852497
0.2928145494
0.3560084804
0.4274883079
0.498673557
0.5636219725
0.6222718469
0.6766162692
0.7274901585
0.775286177
0.8198270925
0.8599884262
0.8938817708
0.9190297953
0.9323883059
0.9322167779
0.9182127334
0.8915985308
0.1255221155
0.1036210674
0.1029681281
0.111754334
0.123452007
0.138339814
0.1581395301
0.1809465281
0.20859599
0.2468680844
0.2982987798
0.365573947
0.4326120921
0.4985194357
0.5587658139
0.6132467079
0.6634896457
0.7104955063
0.7543281398
0.7939746308
0.8276956227
0.8532171429
0.8662754588
0.8654271948
0.8506914769
0.8253361012
0.1595637819
0.1222807072
0.110087044
0.1078395604
0.1186284588
0.1372940351
0.1575769903
0.1764739684
0.194381479
0.2170917587
0.2588679481
0.3019727521
0.3611346237
0.4211793949
0.4772896281
0.5296448265
0.5775452057
0.6222293636
0.6639974262
0.7017749603
0.7338830118
0.7589020997
0.7698007609
0.7671330785
0.7514079227
0.7289365335
0.2379092569
0.161359413
0.1350820967
0.1235085775
0.127927769
0.1414728289
0.157363354
0.1736076593
0.1924791513
0.2531074838
0.4722768892
0.2498673009
0.2962264483
0.3473077113
0.3930325203
0.4348297083
0.4741055496
0.5132186826
0.5517750895
0.586721697
0.6163504724
0.6419086817
0.647772364
0.6401064232
0.6230548843
0.6073671961
0.4156193257
0.2445468936
0.1805343557
0.1494777834
0.1420145845
0.1467687422
0.154761858
0.1695761344
0.2525330004
1.034221727
3.876642415
0.3719940237
0.2414007005
0.278949084
0.3163561019
0.3489599313
0.3787777177
0.406389882
0.4319115386
0.4554828091
0.4777728517
0.4909154026
0.492496575
0.4874905093
0.4771577714
0.4720556958
0.7315252799
0.4138779236
0.267772482
0.1966557836
0.1674297239
0.1607260186
0.1566609127
0.1509868863
0.1535036614
0.1907973652
0.3392069782
0.1805134229
0.1973375569
0.222458667
0.2474721536
0.2693944204
0.2899730752
0.311459878
0.3413286185
0.4008606256
0.4585529648
0.354508446
0.355628869
0.3613605353
0.35735447
0.354486262
1.152197651
0.7037394059
0.4327045335
0.2894170779
0.2204191012
0.1991893699
0.1809461938
0.1517717817
0.1341452152
0.1259363161
0.1392317381
0.1422677774
0.1603859206
0.1767659934
0.1932787966
0.2096178939
0.228019135
0.2528935471
0.293359995
0.3672697143
0.4390160306
0.3507537209
0.3040529571
0.2537496535
0.2490502877
0.2363909183
1.606813048
1.111942889
0.7164922876
0.4598222819
0.3252982146
0.2911764062
0.2539410345
0.1759248701
0.1383753789
0.1119881268
0.1028297727
0.1160618382
0.1405234644
0.165845218
0.190846613
0.2150095717
0.2401108879
0.2704610577
0.3110884148
0.3651505261
0.4078888098
0.4041319289
0.3277112318
0.2185872594
0.1789148241
2.045399215
1.617850825
1.146970732
0.7398940306
0.4986815853
0.4690760263
0.4214598037
0.2486171954
0.1615804994
0.1140786725
0.09924485213
0.1073880921
0.130615292
0.1590815533
0.1888283885
0.2193735912
0.2535416526
0.2977601058
0.3607055667
0.4418175066
0.5134421535
0.5348692366
0.4384598902
0.2876053183
0.2644716793
2.463257342
2.220464805
1.729758711
1.148235681
0.7413981668
0.7217023329
0.6915560334
0.4257135137
0.2356003747
0.1310531746
0.110835054
0.1150128188
0.1271300073
0.1449984725
0.168489491
0.199992863
0.2455310327
0.3146596128
0.4188820724
0.5496657548
0.6625024893
0.6828571572
0.5271451981
0.4024738023
0.4543586033
2.992905229
2.970901016
2.477959543
1.713901533
1.057947172
1.003353358
1.008097851
0.704555247
0.4105482794
0.1790807742
0.1352923336
0.1376532711
0.1421436483
0.1478390462
0.1576336317
0.1756931501
0.2092048092
0.2690610765
0.3670215279
0.5090508884
0.6438384829
0.6625137535
0.532185812
0.5659388052
0.7527521052
3.801480575
4.012637951
3.433997562
2.46276405
1.492431908
1.28318181
1.352465724
0.9941912193
0.6292746474
0.2680621375
0.1700690385
0.1702488483
0.1745441148
0.177882863
0.1826572412
0.19144737
0.207153991
0.2330765865
0.2728133088
0.3303205631
0.4132875404
0.5599564562
0.6918730757
0.7920687869
1.030036808
1.346076805
4.967909144
5.406687494
4.619009908
3.390728379
2.092790547
1.530748411
1.607908961
1.182850533
0.7688367894
0.3778933304
0.2148828581
0.2053784695
0.2116086317
0.2184524904
0.2263744643
0.2377246841
0.2554378262
0.2830225901
0.3250656305
0.3883716571
0.486433479
0.6473443375
0.8196429739
0.8773745556
0.9797303331
1.131329637
0.06429134712
0.09767237302
0.1347019822
0.1691915043
0.201482545
0.2325509978
0.2632672974
0.2938606788
0.3240939148
0.353574607
0.382033676
0.4094609221
0.4360220251
0.4617435219
0.4860869886
0.5076683863
0.5243145881
0.5341652902
0.5406736412
0.5428510378
0.5428840905
0.5415687677
0.5391200623
0.5358046611
0.5309444837
0.5236558117
0.07460201734
0.09358858123
0.1206326225
0.1464017519
0.1714844686
0.1952852344
0.2182569646
0.2405730191
0.2624210993
0.2841421415
0.306266824
0.3293917835
0.3538478525
0.3792283892
0.403968777
0.4254380249
0.4407107959
0.4476165184
0.4446249276
0.4371863332
0.4284684387
0.4217917996
0.4167594123
0.4124101909
0.4077196233
0.4013559453
0.07696100441
0.09711052471
0.1297479916
0.1609910418
0.190482559
0.2171259641
0.2412772881
0.2635736031
0.2850657034
0.3071390691
0.3312477403
0.3585019922
0.3890573537
0.4216142033
0.4531647863
0.4795754175
0.4965488408
0.5002612086
0.4892975353
0.4686444632
0.445132101
0.4262308724
0.4133048751
0.4041186796
0.3966824218
0.3871922905
0.07665336135
0.1017681912
0.1392672617
0.1745048646
0.2065151865
0.2338738554
0.2573344145
0.2784948706
0.2994802421
0.3226748147
0.3500166406
0.3824712272
0.4195373139
0.4591631216
0.4971242955
0.5291307412
0.54906131
0.5504187277
0.5320450554
0.500177795
0.462197996
0.4291138983
0.4062155523
0.3913679875
0.3815347141
0.370674064
0.07791555716
0.1081854348
0.1491731907
0.1867695269
0.2196757145
0.2465609926
0.2689569862
0.2895966331
0.3112770423
0.3369931915
0.3686257796
0.4068483075
0.4512463368
0.5013521716
0.5494197627
0.5881448227
0.6103321979
0.6102917665
0.586248711
0.542309046
0.4891329885
0.44210953
0.4084709612
0.3875858541
0.3744877034
0.3648256833
0.0812726699
0.1141449391
0.1571359942
0.1957939207
0.2288326573
0.2547522154
0.2760621064
0.2970734704
0.3202354266
0.3488622186
0.3845834299
0.4289718357
0.4824342645
0.5384206953
0.5913452261
0.6337034842
0.6578382186
0.6579006155
0.6319113481
0.5831947862
0.5214370692
0.4623446462
0.4192274516
0.392492175
0.3766198625
0.3674951042
0.0836389812
0.1176386957
0.1622964391
0.2030833287
0.237645926
0.2616670476
0.2796919173
0.3010053959
0.3253437139
0.3561730253
0.3947524431
0.4444092367
0.5005600607
0.5591772446
0.6141720556
0.6580947123
0.6833459157
0.6842460746
0.6589439174
0.6104071716
0.5471554562
0.4837389282
0.4354254196
0.4049622231
0.3871309867
0.3787957356
0.08198015605
0.1190651375
0.1696141912
0.2212380109
0.2638977557
0.2807912146
0.2840949276
0.301794492
0.3252495221
0.3566329209
0.3955866117
0.4456149593
0.5013643828
0.5592598442
0.6134793193
0.656905118
0.6823876296
0.6847276597
0.662374593
0.6181558382
0.5596313466
0.4993125845
0.4516791212
0.4210187673
0.4034901559
0.3968080553
0.07901098538
0.1250655676
0.1993014757
0.28862872
0.3540648882
0.3487116487
0.3067048367
0.3041359709
0.3205350109
0.3501646201
0.386535524
0.433218923
0.4854861632
0.5397900246
0.5907076483
0.6318344563
0.6568309836
0.661197253
0.6437272934
0.6071135238
0.5580554775
0.5069224022
0.4655709027
0.4383599029
0.4229487079
0.4186428552
0.08539163107
0.1556362392
0.2947686863
0.4741923869
0.6148528966
0.5596155266
0.4133354579
0.325547153
0.3155393724
0.3395279498
0.3714126178
0.4117671431
0.4581485193
0.5065407383
0.5521934333
0.5897412964
0.6138494736
0.6207882679
0.6096628537
0.5829338075
0.5463516128
0.5081329907
0.4767659898
0.455537403
0.4431492724
0.4399645235
0.1157580696
0.2388120551
0.5131088207
1.077458492
1.514976993
1.308454796
0.7823431295
0.4094037551
0.3190462878
0.3291796344
0.3547381647
0.3877456083
0.426547018
0.4672998646
0.5064238026
0.5396752332
0.5628159119
0.5728484821
0.5690700278
0.5535038202
0.5307179827
0.5065947908
0.4863645773
0.4719343431
0.4624935548
0.4586936966
0.182825832
0.373680848
0.9809345773
2.274059162
2.94456416
2.659532353
1.635369747
0.6311070006
0.3403338763
0.3227300745
0.3402832374
0.3661709182
0.3970688557
0.4296746046
0.4617582361
0.4904684939
0.5127609505
0.5263207138
0.5304137873
0.5262069973
0.5167932879
0.5057005758
0.4956425749
0.4874655023
0.4805123641
0.4751770283
0.2393402544
0.4179930397
1.216693899
2.527031879
3.489516535
3.374932029
2.451820241
0.9806237676
0.3767230233
0.3186879451
0.3289460132
0.3495847583
0.3743637518
0.4003416336
0.4263912333
0.4510245886
0.4724860028
0.4892289836
0.5004157424
0.5060130383
0.5076752804
0.5069740463
0.505002115
0.5019372472
0.497194378
0.4909648482
0.1677359057
0.3209333853
0.9118657786
1.744694149
2.717226291
2.849719001
2.220854324
1.014935284
0.3809027471
0.309615668
0.3182908487
0.337275783
0.3589418278
0.3811171477
0.4034288845
0.4253990954
0.4463049546
0.4652937799
0.4815504594
0.4940124567
0.5034143495
0.5099554501
0.5137205498
0.5144431221
0.5115543504
0.5051348431
0.1583421771
0.3664431055
1.51725816
1.278944445
1.211040812
1.306517755
0.924436219
0.4217875225
0.2885923774
0.2875328703
0.3046432915
0.3263158349
0.3477987752
0.3687764049
0.3895209587
0.4102698119
0.4309913264
0.4513318706
0.4705835202
0.4874182386
0.5016862208
0.5128031612
0.5202270483
0.5234157885
0.5218508864
0.5156848897
0.207473912
1.022394236
2.046886129
2.149338219
0.6262855699
0.3977613741
0.2713587923
0.2368555561
0.2446557909
0.266091844
0.289913215
0.3147250918
0.3375544198
0.3588952706
0.379441811
0.3999601057
0.4208329678
0.4419859344
0.4628471363
0.4824183655
0.4995814382
0.5133138894
0.5226846921
0.5270673233
0.5261711778
0.5205457473
0.1130153698
0.1328622844
0.4291066887
0.3579729906
0.2413340594
0.1999199088
0.1875309663
0.1985318117
0.2201609689
0.2460007185
0.2735319993
0.3015608752
0.3260719702
0.348504488
0.3695418936
0.3904538737
0.4118635489
0.4338377304
0.4558475977
0.476817324
0.4953547347
0.5100817866
0.5198107958
0.5240083519
0.5228646726
0.5177948069
0.1235735409
0.09810558376
0.1269655175
0.1590432773
0.1556179078
0.1539759918
0.1582114392
0.1739659277
0.196496919
0.224261899
0.2563720104
0.2860976468
0.3114853066
0.3353343153
0.3569677573
0.3783952257
0.4003107815
0.4228838239
0.4455938541
0.4672554851
0.4862427976
0.5009095911
0.5097634395
0.5125728516
0.5102495312
0.5053703026
0.1408383964
0.09452050481
0.09680764746
0.1022764839
0.1131356942
0.1255458686
0.1411893593
0.1592312375
0.1796184277
0.2078484768
0.2569020798
0.2713767152
0.2920376968
0.3170829412
0.338241866
0.3596773954
0.3816055666
0.4042590246
0.4271090814
0.4487970732
0.467429123
0.481194075
0.4882138594
0.4886258142
0.4839753833
0.4781368468
0.1697552391
0.1066358909
0.096366376
0.09418941493
0.1006155807
0.1161895867
0.1363427163
0.1560137902
0.1801037079
0.2570511699
0.521748498
0.2651440897
0.2693911699
0.2912021325
0.3109297566
0.3310001653
0.3517099504
0.373262453
0.3953034318
0.4163047356
0.4339916307
0.4464331821
0.4511582388
0.4498109043
0.4438716199
0.438426474
0.2196281475
0.1302780964
0.1100920682
0.1009487317
0.102357029
0.1132989415
0.1320318915
0.1590474289
0.2643189273
1.056998834
2.70030046
0.3901195844
0.2484807554
0.2633754558
0.2779486562
0.2957827231
0.3138592422
0.3332410895
0.3545027458
0.3761166169
0.393358199
0.4005147197
0.4020053987
0.399214713
0.3927031524
0.3879072753
0.3177376466
0.1746994375
0.1354519875
0.1162748185
0.1104177325
0.1145888796
0.1317913772
0.2187879322
1.125760748
4.350447434
11.75795071
1.094021887
0.3111882375
0.227888498
0.2467614353
0.2597176037
0.276912805
0.2952111446
0.3172306868
0.3434998616
0.3619803807
0.3531946489
0.3479068442
0.3438874174
0.3386760387
0.3381301045
0.4862970492
0.2549739898
0.1795138918
0.1427843851
0.1258437975
0.1207513793
0.1236239834
0.1366689275
0.1919275377
0.7430422991
2.111681597
0.6390581834
0.1927400601
0.1912316195
0.2036721584
0.2182464746
0.2345319206
0.2543424659
0.2808745509
0.3147500456
0.3324246217
0.3206869679
0.3007915219
0.2894573487
0.284634484
0.2926375015
0.7117850507
0.3839613055
0.2569040512
0.193185923
0.1579078581
0.1413041048
0.1320104457
0.1261937293
0.1260352618
0.1492962982
0.3118508967
0.144182027
0.1496228966
0.1589856378
0.1729438451
0.1867426368
0.2030513315
0.2253611069
0.2578652445
0.2962427212
0.3120900077
0.2938628628
0.2633531571
0.2319115429
0.220327816
0.2643815774
0.960392467
0.5621977199
0.3865012307
0.2879678214
0.2217959815
0.1871990078
0.159373571
0.1348745943
0.1156768386
0.1067704301
0.10717153
0.1149005533
0.1354218799
0.1548683844
0.1725046151
0.1880814555
0.2038163076
0.2225486703
0.2467354168
0.2760665116
0.2935506402
0.2841769054
0.2541562232
0.2006562169
0.1634477097
1.245165358
0.788257455
0.5871025909
0.4515127731
0.3357619499
0.2770358902
0.2212251746
0.1688738039
0.1241225148
0.103049852
0.09849878858
0.105479115
0.1253826848
0.1456322745
0.1639687172
0.180787697
0.1991375121
0.2228506445
0.2553961474
0.2944812095
0.3238705951
0.3302506433
0.3059377516
0.2503799479
0.2100315893
1.676428569
1.093147279
0.8642543454
0.6921862796
0.5031823226
0.4213986099
0.3417822533
0.2513551885
0.1582816126
0.1124263473
0.1042638919
0.1101510671
0.1209227822
0.1340253898
0.1486217376
0.1660497964
0.1895428777
0.2233984146
0.2721953587
0.3316670607
0.3800186351
0.401273799
0.3861613476
0.3379874188
0.3066284867
2.385098304
1.584385582
1.20747458
0.9892392216
0.714664159
0.6240929987
0.5669994667
0.4087880029
0.237774078
0.1424603245
0.1236554683
0.1265366923
0.1303669538
0.1347727985
0.1417108133
0.1540373977
0.1760801917
0.2128386757
0.2673479459
0.3385541605
0.4046611793
0.4411621839
0.450943232
0.4151155839
0.4196425864
3.678410059
2.405890526
1.685181527
1.297955085
0.9716734155
0.8795002053
0.8454082856
0.6413569172
0.3516353046
0.1953958577
0.1537999143
0.153803783
0.155205902
0.1562717878
0.1586585191
0.1647259647
0.17766633
0.2010643518
0.2386912774
0.293328177
0.366563537
0.4489984949
0.5284479909
0.4866351487
0.4976324562
0.525449204
5.535259125
3.493513991
2.295368534
1.597347227
1.220658128
1.070616092
1.032919604
0.8158715489
0.460988305
0.2680080263
0.1945976847
0.1855249425
0.18556535
0.1874153987
0.1906801507
0.1968515998
0.2079859793
0.2258164379
0.2522208593
0.289491419
0.3408035654
0.4142310446
0.4729629563
0.5213712454
0.5532416402
0.5838673288
0.0720101431
0.109971198
0.1527038435
0.1950697904
0.235466425
0.2747413234
0.3140683345
0.3538988391
0.393981046
0.4336788608
0.4723523095
0.5096197459
0.545399839
0.5796800538
0.612067594
0.6414010192
0.6657825265
0.6806027006
0.7035072535
0.7170808088
0.7252652787
0.7293364903
0.7304001013
0.7292803425
0.7255675661
0.7193519636
0.09036791866
0.100437008
0.1261000271
0.1510266146
0.1754442736
0.1985299374
0.2209414518
0.2429848213
0.2647893263
0.2864381377
0.3081014699
0.3300560781
0.3525518498
0.3755183558
0.3982092083
0.4190982971
0.4367048106
0.4493878163
0.4529999446
0.4558568132
0.4543958627
0.4528938922
0.4511967289
0.4493472563
0.4472305986
0.4458554909
0.09538192181
0.1016464971
0.1311424853
0.1597474955
0.1865191354
0.2103714852
0.2318753526
0.2516322769
0.2703822539
0.288982791
0.3083913915
0.3295257683
0.3529517828
0.3784394025
0.4045329176
0.4284978597
0.4471324367
0.4581058643
0.4553876416
0.4469146406
0.4340359907
0.4221074319
0.413042779
0.4064134328
0.4032275469
0.4003441207
0.09390436517
0.1033096379
0.1364720112
0.1681521353
0.1966559631
0.2206336008
0.2407501329
0.2581337764
0.2742894547
0.2908836273
0.309584941
0.3318216966
0.3583371064
0.3886099566
0.4203171441
0.4490186746
0.4694882598
0.477519221
0.4714462502
0.4530583132
0.4283683213
0.4047692311
0.3868870336
0.3747445678
0.3696195779
0.3680643463
0.09214971868
0.1064583045
0.1422943982
0.1757679815
0.2049049689
0.228301523
0.2469259956
0.2623911293
0.2768515119
0.2926312729
0.3119613945
0.3367167185
0.3678743517
0.4045918634
0.4438620744
0.4784832033
0.5017160862
0.5085934095
0.4973690066
0.4706492063
0.4351906834
0.4005248448
0.3739752756
0.3570172409
0.3475063297
0.3413986211
0.0921704717
0.1095583029
0.1468847146
0.1809891455
0.2099193952
0.2325368368
0.2501333662
0.2644480606
0.2781636942
0.2940500694
0.3147445984
0.3426438226
0.3792137783
0.4222946861
0.4661998756
0.5040947168
0.5287926928
0.5352080398
0.5217113139
0.490553708
0.4482449503
0.4052123495
0.3712712653
0.3496975174
0.3383284471
0.3345174911
0.09213869923
0.1107089909
0.1487722038
0.1829662243
0.2117419143
0.2341991682
0.2514017024
0.2646186473
0.2779512577
0.2942571357
0.3162107606
0.3466975077
0.3864431514
0.4316959335
0.4773445586
0.516184955
0.541241428
0.5478320751
0.534481754
0.5029454586
0.4588416368
0.4123335172
0.3745302309
0.3503231766
0.3382092989
0.3359344898
0.08834076994
0.1090818946
0.1482721877
0.1842077589
0.2164511506
0.2418664694
0.2579442837
0.2651828845
0.2760711609
0.2920641433
0.3142010602
0.3452817342
0.3841581387
0.4283309952
0.4725079739
0.5099479923
0.5343647881
0.5416414766
0.5304203264
0.5019556517
0.4608765704
0.4162998658
0.3791978789
0.3553870375
0.3444450545
0.3453529815
0.08146305864
0.1066938406
0.1513681449
0.2001568768
0.2550830885
0.2988220365
0.305919844
0.278844572
0.2750486787
0.2875620381
0.3079035132
0.3366239725
0.3721122068
0.4123565494
0.4524390066
0.4866644754
0.5096900469
0.5179498269
0.5101368892
0.4871230565
0.4527107551
0.4146117782
0.3824431561
0.3619300398
0.3535832059
0.3577021178
0.07920498754
0.110460109
0.1760253095
0.2795663496
0.4376710126
0.5622657808
0.5240710675
0.3521349708
0.2842498036
0.2831818576
0.2990037408
0.3232852305
0.3535987963
0.3879969603
0.4222234202
0.4520393566
0.4731148714
0.4823952913
0.4786096957
0.462359976
0.4367667892
0.4079842998
0.3835493502
0.3682519906
0.3630906783
0.3692462265
0.08909619701
0.1315652452
0.2563963048
0.5535945082
1.058160522
1.376424977
1.187213295
0.607555253
0.3255077304
0.2835592786
0.2903503815
0.3090325191
0.3331819145
0.3605526439
0.3882919815
0.4131870111
0.4319866578
0.4422083157
0.4426681659
0.4336539965
0.4176298164
0.3991091416
0.3833666798
0.3738861142
0.3717007663
0.3782500875
0.1148563563
0.177678834
0.4455094804
1.190449735
2.328200447
2.705568687
2.341549322
1.219679709
0.4308138705
0.2929944723
0.2838208883
0.2961963754
0.3142834979
0.335058802
0.3565305106
0.3766110028
0.3931266589
0.4042528244
0.4089272038
0.4068212859
0.3998517618
0.3909055894
0.3832623243
0.3791775471
0.3794589022
0.3853178076
0.1400291215
0.2158028578
0.6184182496
1.746472201
3.06935776
3.390630446
3.128864537
2.025272488
0.5906517336
0.3076766915
0.2787903137
0.2857999874
0.2993190374
0.3149683039
0.3313581346
0.3474132605
0.361987353
0.3739651384
0.3824638604
0.3859859896
0.3864675038
0.3852734794
0.3842015253
0.3845653374
0.3868955973
0.3920233958
0.1366648971
0.2249828747
0.6875366416
1.512738071
2.615700668
3.086276475
2.890892327
1.993742527
0.609962744
0.3040297938
0.2711852098
0.2768715488
0.2883563224
0.301133598
0.3143450422
0.3277473325
0.3410468294
0.3537860334
0.3653585044
0.3726506853
0.3784359713
0.3827438065
0.3863899587
0.3900301736
0.3939566173
0.398671056
0.1360357307
0.3593784714
1.060988562
1.420225369
1.429586706
1.996916967
1.843892056
1.082302754
0.393810692
0.2679358271
0.2582347308
0.2679069624
0.2798616651
0.2918950173
0.3038032869
0.3159812697
0.3287098697
0.3419490307
0.3551367111
0.3654877861
0.374829956
0.3827493897
0.3894417707
0.3952045912
0.4002278574
0.4048919385
0.1479984223
0.8531428651
2.145830117
1.820254324
1.257260581
0.5566905684
0.4524649051
0.3237130164
0.2390986249
0.2313081001
0.2434286497
0.2580764768
0.2720547625
0.284770585
0.2967349684
0.3088464973
0.321683477
0.3353021644
0.349180244
0.3624041542
0.374245215
0.384397761
0.3927593704
0.3995435676
0.4050395146
0.4098052104
0.1078688758
0.1136121905
0.5198940418
0.7373265003
0.4933127115
0.2543610836
0.2117556306
0.199039359
0.1995652161
0.2118848707
0.22923827
0.2478966129
0.2638963166
0.27781156
0.2905914511
0.3035320222
0.3173866447
0.3322621582
0.3476142829
0.3624460581
0.3757558186
0.3869127487
0.3957308754
0.4024499466
0.4076221548
0.4123475425
0.1222338451
0.08241664168
0.110001823
0.1595263131
0.1705527903
0.1585850572
0.1571208438
0.1636717321
0.1771689995
0.1968228249
0.2208341299
0.2382625622
0.2544380237
0.2695183969
0.283257263
0.2974008954
0.3126984952
0.3292062964
0.3462639867
0.3626532944
0.377008835
0.3884748074
0.3969036099
0.4026460091
0.4065885106
0.4106165605
0.1417031959
0.08606664074
0.08671384197
0.09413487219
0.1056498097
0.1163520051
0.1282861252
0.1442824825
0.1657022744
0.1969706454
0.2573661097
0.2328381261
0.2437724009
0.258397309
0.272535729
0.2876785178
0.3043809145
0.322603188
0.3415060979
0.3594282007
0.3744939044
0.3856114859
0.393003255
0.3970672001
0.3988475959
0.4009719671
0.1675446223
0.09831261684
0.08941849648
0.08632457254
0.08771037874
0.09812212573
0.115165375
0.1383443394
0.1772528074
0.3008998169
0.7162902224
0.2618886234
0.2339734326
0.2443158858
0.2571496372
0.2723578331
0.2899755958
0.3097805929
0.3307350971
0.35035671
0.3655563777
0.3748942945
0.3802352261
0.3818246968
0.3805125374
0.379561739
0.2033541527
0.1173791575
0.1019825497
0.09318285669
0.09005485017
0.09527764117
0.1112946724
0.1466756559
0.3077832709
1.25568859
4.093336621
0.6559278677
0.2436920307
0.2274693544
0.2379666785
0.2524121471
0.270283846
0.2919286377
0.3162560246
0.3390588009
0.3533221957
0.356944029
0.357356797
0.3542510235
0.3484782482
0.3441617457
0.2636894413
0.1468656079
0.1203829861
0.1058891335
0.09871301482
0.09968310326
0.1145413753
0.1934112811
0.8782702168
6.212058666
7.051031026
4.50082529
0.362795568
0.2147311592
0.2183302019
0.2309670774
0.2503251792
0.2759426453
0.3083601021
0.3380616232
0.3477640257
0.340072883
0.329332958
0.3167404236
0.3046695451
0.3005396083
0.3671307602
0.194914551
0.1484964626
0.1245777924
0.1123396463
0.1087869846
0.1146131651
0.1466963031
0.3899244045
2.029141567
7.450082986
3.43573644
0.353033562
0.1928276815
0.1923748491
0.2080997645
0.2311840325
0.2662127404
0.3124741536
0.3439023411
0.3419950249
0.3358478145
0.3069459316
0.2768370016
0.2595189327
0.2708935625
0.5233082432
0.2732936687
0.1946207159
0.155110573
0.1347121274
0.12580287
0.122888784
0.1224143596
0.1324983722
0.2177161378
0.560233744
0.2510819281
0.1559543453
0.1584933952
0.1738991699
0.1931643148
0.219592726
0.2587639882
0.3088513488
0.3398457578
0.3345753396
0.3278246683
0.2932282028
0.2487265825
0.2206403224
0.3051981569
0.7343005532
0.3984497575
0.2738758712
0.2090091872
0.1740926317
0.1571321513
0.1457415377
0.1320108943
0.1145577036
0.1070123469
0.1170901217
0.119237192
0.1351083306
0.1540299237
0.1727054812
0.1921529591
0.2151533852
0.2454150156
0.2822010147
0.3123419079
0.3224427962
0.3194497151
0.3024557786
0.2537882863
0.2057774905
1.027933673
0.6014307843
0.4110464395
0.3054527956
0.2457208131
0.2183120859
0.1962791654
0.1673347695
0.1270564576
0.1021276073
0.09647618923
0.10392473
0.1233237358
0.1439116465
0.1639749293
0.1849290997
0.2102753213
0.2432963996
0.2826987188
0.3183267432
0.3401143901
0.3515609181
0.3539418032
0.3253283711
0.2788896431
1.498348683
0.9476220474
0.6426123563
0.4662756331
0.3680618217
0.3374361022
0.3108759615
0.2559077726
0.166502378
0.1112589013
0.101167902
0.1066779325
0.1182138791
0.1334367026
0.1514072486
0.1743855334
0.206385356
0.2510290132
0.3055422763
0.3552575885
0.3855493471
0.4035453155
0.4178847842
0.4043078333
0.3816494787
2.335573105
1.544262263
1.02263916
0.7091158121
0.5517412276
0.5380861226
0.532436215
0.4433957109
0.2615743544
0.1401999409
0.1180088857
0.1193047208
0.1240774665
0.1311026459
0.1422795532
0.1614409644
0.1945263567
0.2477288275
0.3203501665
0.3938894865
0.4395787928
0.4652046557
0.4920180592
0.465126687
0.4741028459
3.813030386
2.458530254
1.598775796
1.041538623
0.7869164901
0.7875019323
0.818445386
0.7116561512
0.4220583585