/*--------------------------------*- C++ -*----------------------------------*\
  =========                 |
  \\      /  F ield         | OpenFOAM: The Open Source CFD Toolbox
   \\    /   O peration     | Website:  https://openfoam.org
    \\  /    A nd           | Version:  8
     \\/     M anipulation  |
\*---------------------------------------------------------------------------*/
FoamFile
{
    version     2.0;
    format      ascii;
    class       volScalarField;
    location    "1.4";
    object      htcConv;
}
// * * * * * * * * * * * * * * * * * * * * * * * * * * * * * * * * * * * * * //

dimensions      [1 0 -1 1 0 0 0];

internalField   uniform 0;

boundaryField
{
    walls
    {
        type            calculated;
        value           uniform 0;
    }
    region0_to_wallFilmRegion_wallFilmFace
    {
        type            convectiveHeatTransfer;
        L               1;
        value           nonuniform List<scalar> 
776
(
1.444336315
1.414680332
1.377287074
1.344740328
1.373959218
1.499305604
1.683466979
1.940429607
2.309905515
2.739849001
3.072295683
3.122127303
2.912721231
2.592943944
3.172518219
2.878753529
2.010620962
2.342678642
2.223653071
2.733807231
2.965717937
3.381175302
3.791099611
4.132834608
4.367208365
4.507557639
4.551061504
4.516621639
4.401009013
4.248669738
1.889246358
1.729555088
1.654228298
1.669382882
1.775126223
1.927411107
2.133292235
2.417904514
2.79317313
3.174627938
3.453318452
3.598712378
3.52664483
3.130066381
4.069349766
3.974912335
2.372787186
2.152136243
1.959239345
2.510768535
2.638707406
2.923654461
3.225664837
3.554467877
3.846912659
4.071179989
4.218931919
4.266246246
4.230674928
4.118283386
2.262680282
2.128315138
2.075285635
2.096492246
2.186553067
2.320283203
2.520778011
2.828854706
3.229695958
3.613115833
3.952574627
4.108562274
3.900755839
3.594014802
5.610136134
5.708278952
3.402510557
1.869129042
1.756249345
2.338667953
2.451396129
2.679203778
2.868616189
3.119809202
3.406880459
3.681733065
3.886827558
4.002525312
4.016396917
3.979067516
2.482924669
2.381110201
2.35389626
2.379646607
2.455936812
2.569979733
2.75931768
3.072719368
3.473247943
3.883611992
4.165229044
4.156705224
3.936098231
2.591578059
1.941785521
3.045161367
1.753554409
1.577004013
1.897381291
2.28238201
2.41281616
2.545255809
2.648947407
2.838915448
3.114175254
3.417611566
3.645120732
3.737264774
3.725796784
3.710011416
2.655809523
2.578720033
2.568935706
2.595094497
2.655101017
2.738165155
2.878957605
3.133783017
3.502360081
3.906801189
4.108183559
4.046776098
3.86504698
3.048085768
2.461436419
2.3082538
2.156337276
1.896303483
2.040029059
2.342897713
2.472382786
2.561502916
2.570124941
2.67862778
2.884760211
3.15191978
3.364622333
3.425667785
3.299605092
3.119707162
2.78820433
2.727781773
2.73244116
2.759533065
2.804865276
2.849074286
2.899023212
2.986457998
3.156094808
3.441506621
3.717777397
3.855008756
3.67067094
2.99624957
2.039660653
1.578271887
1.881425564
1.910012342
2.234899397
2.452681589
2.573931705
2.636842526
2.496530918
2.567865344
2.702088562
2.934095918
3.124602712
3.153951642
2.942910728
2.53712038
2.89116118
2.843544663
2.862869882
2.895321805
2.93693393
2.965481336
2.973636984
2.95634347
2.916494835
2.831172296
2.738340101
2.907665053
2.839312174
2.382733527
2.334692108
2.125297707
2.176126817
2.22028742
2.396984791
2.564176338
2.691387402
2.794396932
2.323364482
2.438397537
2.454826523
2.645135682
2.846375701
2.897691199
2.77648008
2.470388526
2.968963634
2.933225444
2.969097247
3.012055461
3.060475353
3.095081556
3.113262777
3.115491982
3.112426456
3.105143164
3.008200284
2.613419411
1.911462685
1.863368492
2.548533742
2.335923423
2.410750908
2.372539578
2.488247225
2.637391495
2.848720302
3.178398015
1.974802066
2.290322908
2.067438845
2.183928994
2.369191392
2.561232785
2.602828959
2.510398486
3.024397737
3.001655736
3.056528465
3.113018779
3.170146144
3.207864783
3.221979029
3.208472905
3.167107102
3.095441404
2.97308349
2.777735038
2.579193002
2.574952301
2.642254222
2.579610277
2.551836814
2.481487283
2.544805148
2.675318043
3.157562548
4.143177198
2.008147711
2.202827851
1.857078833
2.142018772
2.314769902
2.477932723
2.595686262
2.636807647
3.059427423
3.052211972
3.129358508
3.202498976
3.270365825
3.312748025
3.327245305
3.313290424
3.274678614
3.215592196
3.128739741
2.992216818
2.829551548
2.796569765
2.820235827
2.726558968
2.65768725
2.54992607
2.582349669
2.705652149
3.985509262
3.942002987
3.488147169
2.082435082
1.744987192
2.179106221
2.432963312
2.597092015
2.662384963
2.661329492
3.075007109
3.086521198
3.189054183
3.279908206
3.356748061
3.39975601
3.408895065
3.386849471
3.340234062
3.276951735
3.202359662
3.112775152
3.018907219
2.963645452
2.909373706
2.814694123
2.707291095
2.539295207
2.450408745
2.313375672
3.457088788
3.903118682
3.310831392
1.658850044
1.74538852
2.036017303
2.413905267
2.666559832
2.797946821
2.840956733
3.070747559
3.104301468
3.234441031
3.341612144
3.423639109
3.462058579
3.461161456
3.430564043
3.379239726
3.318087457
3.255052865
3.186106918
3.106682935
3.036561795
2.963072806
2.861455375
2.735115889
2.540526207
2.265144166
1.714655062
1.361509462
3.13286097
1.591945702
1.673431993
1.828503225
1.956577714
2.356661595
2.658451896
2.847862022
2.937588651
3.044773848
3.103355399
3.261582424
3.381688028
3.463779942
3.49172324
3.481503332
3.442181371
3.385168519
3.322584082
3.264249231
3.206651212
3.138017053
3.06655999
2.986601925
2.887765978
2.770474246
2.615138228
2.444202603
2.206933136
2.057230282
1.683598961
2.223193766
2.122248291
1.981180744
2.030972219
2.314848961
2.655550605
2.895189989
3.0169081
2.994182396
3.079953269
3.265187208
3.394421659
3.470404471
3.489370759
3.46866173
3.420268849
3.357875913
3.294365092
3.239564637
3.190323107
3.130484681
3.062105009
2.983197127
2.890343219
2.784609896
2.651053337
2.517340267
2.261348848
2.202997158
1.638759686
2.160436131
2.127841735
2.119336802
2.117080914
2.319678764
2.644954372
2.910916274
3.052649313
2.915554207
3.02932228
3.240388812
3.376263663
3.444766724
3.455335989
3.424083926
3.36667457
3.298957439
3.234528205
3.182457817
3.140832809
3.090680127
3.028697334
2.955343333
2.871744209
2.782871885
2.683400867
2.591682052
2.496476077
2.416836005
2.356433575
2.364810661
2.357928596
2.24099797
2.240105374
2.366962426
2.650674414
2.918655974
3.068273823
2.805174046
2.946799542
3.183582775
3.325038978
3.389702182
3.393163536
3.352407569
3.286168536
3.212728529
3.147054192
3.097680196
3.063348656
3.023353603
2.969426941
2.903723398
2.830930805
2.758851465
2.687930307
2.627906539
2.569808878
2.531507191
2.422110126
2.462257264
2.437838677
2.347633783
2.353457361
2.443070774
2.678807463
2.925808934
3.070277583
2.658558926
2.829613706
3.093660871
3.242923135
3.30939427
3.309232145
3.261576624
3.18751511
3.108073807
3.040494693
2.993436487
2.964858018
2.933290407
2.886750322
2.828503638
2.766628847
2.710477174
2.663971757
2.631544352
2.60758009
2.591602128
2.543965816
2.545615169
2.508692863
2.430766084
2.449606706
2.526360973
2.724919698
2.940865413
3.075965825
2.460378885
2.680530954
2.97440041
3.136454864
3.210408528
3.212268319
3.162489025
3.083538542
2.999025404
2.928903599
2.882451705
2.855403175
2.826884774
2.783700527
2.730063864
2.677268704
2.635290785
2.608691824
2.598117708
2.59515971
2.59457302
2.562136941
2.582782948
2.531683624
2.472710765
2.509594168
2.590241797
2.768523809
2.9617496
3.094531128
2.279980594
2.530655547
2.839686741
3.014866463
3.100455113
3.110507739
3.065376876
2.987185499
2.901074256
2.828855547
2.779823373
2.746928695
2.712098272
2.664411537
2.609632375
2.561937812
2.530818015
2.519562266
2.524530601
2.532364552
2.536748345
2.508024982
2.539680116
2.485572334
2.445226867
2.506358952
2.601871143
2.779256017
2.976741736
3.114245751
2.123696087
2.385802729
2.705154027
2.887881723
2.987591616
3.009909615
2.976629463
2.907081503
2.825446196
2.752747778
2.696719349
2.649223488
2.597534795
2.5358037
2.471730145
2.421930795
2.396044426
2.395012671
2.408754112
2.416214848
2.406623997
2.350906494
2.38275644
2.334338261
2.306588984
2.417320225
2.540040677
2.717984947
2.97785616
3.110359403
1.972934723
2.257493552
2.58892273
2.776815842
2.887493177
2.920776074
2.900220345
2.843240386
2.770860318
2.699739306
2.633950114
2.566287143
2.490230056
2.405506624
2.321994059
2.259678501
2.231603033
2.236441566
2.254494056
2.253276028
2.19363857
2.048361217
1.963693638
2.022445295
2.029521624
2.249948975
2.408458685
2.571528298
2.975007488
3.04649377
1.82156864
2.136527251
2.486409927
2.683049072
2.804829115
2.852817451
2.84685156
2.803624139
2.73964225
2.666818238
2.587336183
2.496803185
2.392762026
2.277872186
2.164502175
2.077991472
2.039819181
2.050226172
2.079632447
2.090454448
2.016682478
1.851853629
1.265380261
1.508902759
1.795159144
2.100049386
2.234600139
2.374987754
2.749836825
2.859372252
1.668294588
2.018937299
2.389392503
2.595273341
2.728673842
2.79283401
2.804075156
2.775551558
2.718872009
2.642647755
2.549491356
2.437792355
2.306250513
2.157725233
2.005485808
1.881815584
1.825211004
1.846001643
1.902445381
1.943787475
1.902176699
1.750958088
1.393938585
1.153240312
1.566234279
1.956428426
2.042444683
2.247441782
2.544939058
2.607699194
1.515565038
1.910696925
2.304880395
2.519846702
2.664246731
2.742684726
2.767151271
2.748537038
2.695259109
2.614545118
2.510437828
2.382823272
2.228755514
2.048409667
1.852915364
1.679566764
1.59547077
1.639178546
1.746868711
1.852218617
1.872087067
1.831696604
1.495829842
1.398279569
1.707909807
2.035341584
2.203081591
2.391567833
2.485730023
2.287916874
1.368540101
1.813301676
2.231353962
2.455095031
2.609225679
2.700898906
2.735615284
2.722147651
2.666950881
2.578379946
2.464807182
2.327594785
2.158478573
1.953029023
1.717748774
1.48803119
1.367745375
1.450935666
1.621861573
1.78354013
1.819788344
1.841935374
1.441470167
1.693396639
1.663502494
2.082223121
2.305329742
2.532530424
2.621555044
2.135809846
1.245467654
1.744409464
2.17879888
2.394117054
2.560726798
2.675909571
2.720883699
2.707060785
2.639313432
2.530589634
2.402271863
2.262283474
2.087353439
1.866973365
1.604353163
1.328637285
1.182448977
1.325038226
1.55266134
1.760431222
1.847115416
1.888076917
1.511393942
2.300643704
3.06374303
1.681051685
)
;
    }
    region0_to_wallFilmRegion_mirrorFace
    {
        type            convectiveHeatTransfer;
        L               1;
        value           nonuniform List<scalar> 
703
(
3.809414661
3.864179293
3.920604892
3.95586918
3.985558439
4.036299722
4.128105086
4.236441673
4.328754943
4.395624406
3.812812807
3.714228026
3.731441246
3.760614684
3.81887347
3.918152316
4.040329297
4.141572929
4.200484385
4.225309342
3.93369578
4.001838377
3.788718773
3.707844712
3.722436252
3.790316982
3.866716017
3.908890308
3.911492541
3.922751408
2.740708764
3.264574109
2.719102492
2.738781116
2.552719761
2.546056063
2.962679524
2.65523942
2.726453018
3.118810606
2.792309072
2.822242227
3.124285958
2.819141226
2.784269306
2.928274474
2.722449712
2.620153707
2.751141729
3.476028449
2.90582004
3.138160227
3.403700925
3.659893797
2.71558775
3.574996863
3.114355674
3.678869376
2.684809963
3.845813092
3.500043495
3.963697249
3.759404206
3.846554808
1.721074694
1.671512509
1.697726764
2.002757636
1.642304379
2.090433022
2.170879587
2.194853915
2.181609134
2.235323455
2.26026753
2.315551527
2.225354362
2.335455754
2.335127132
2.196213514
2.343921637
2.347329658
2.148823986
2.347321371
2.339093622
2.089239203
2.322053127
2.304405306
2.031120503
2.286997732
2.273907583
2.011573878
2.268176287
2.272904789
2.067847797
2.29028435
2.317379369
1.753139908
2.067146763
1.720182683
1.740798018
1.073230539
1.271230562
1.781594708
1.414333095
1.983674823
2.220399512
1.967656593
2.068226476
2.328397578
2.354016794
2.338252365
2.342641323
2.367900748
2.349919857
2.313369386
2.329709131
2.305474915
2.268881445
2.278045711
2.247725049
2.223239907
2.215533699
2.183573277
2.190399886
2.155031773
2.133855715
1.856581685
2.454191628
1.928867672
1.47048211
1.160524008
1.795097472
1.924208894
2.070105594
2.26957704
2.119079654
2.424735965
2.493718989
2.370041217
2.465352547
2.418401233
2.335089824
2.370924141
2.3175534
2.262912936
2.26513698
2.210755674
2.17792205
2.152749996
2.090213753
2.083727197
2.023777094
1.973167655
2.500880646
1.830908568
1.911486636
2.694587585
2.166467965
2.325914449
2.169697536
2.380325527
2.506000317
2.444907317
2.468272253
2.411795443
2.437160931
2.385055449
2.289351561
2.324445945
2.256540938
2.153296565
2.182329127
2.100370895
1.993846367
2.008525873
1.904933764
2.378204334
2.353048074
2.037866919
2.209688064
1.630454159
2.219374121
2.36683423
2.279305659
2.368073125
2.428683587
2.409486725
2.410143775
2.355596631
2.38066763
2.337392665
2.23149614
2.285734305
2.22591865
2.069043007
2.155418155
2.070913054
3.912260214
3.873225911
3.929269921
3.994419016
3.983741072
4.019204954
4.007286512
4.040530736
4.046731006
3.963361819
4.040583934
4.024823486
3.900154701
4.004301833
3.985834307
3.871644488
3.975968239
3.980797787
3.907113188
4.002318625
4.03735329
3.97985637
4.079589432
4.122462731
4.073913225
4.167326187
4.220937963
4.232614542
4.287349213
4.366665658
4.412730213
4.437620964
4.490549339
2.412327693
2.554515564
2.323768323
2.55711936
2.373156767
2.406338223
2.626710685
2.446933426
2.451632662
2.569593903
2.428289948
2.37233068
2.409563868
2.299945103
2.211485123
3.895017824
3.979017606
4.014225635
4.007775724
3.990091303
4.0067673
4.077831962
4.170961422
4.2716357
4.399936337
3.805155298
3.890421635
3.899177408
3.903587972
3.907364309
4.053062465
4.104232836
4.151709384
4.198115495
2.302307237
2.800023003
2.442351465
2.275029065
2.248831542
2.172666966
2.298499609
2.181970442
2.165744079
2.194621087
2.108014849
2.02641663
2.030900417
1.937923427
1.864300239
3.814661419
3.803898375
3.722989872
3.894693458
3.756619134
3.773581406
3.939825263
3.969901016
4.006375731
4.077286268
3.953266879
4.007478276
4.183611629
4.067118591
4.284110422
4.369230918
4.259110435
4.287748356
4.419325183
4.30676633
4.319480167
2.148242859
2.737984759
2.343696807
2.071212961
2.119703493
2.072090432
1.868389392
1.874716213
1.717049994
1.725182507
1.610098166
1.651182484
3.847177956
3.681743164
3.725132182
3.733925467
3.759787543
3.741037779
3.715575745
3.78451099
3.910927245
4.096082209
3.963029235
4.066656874
4.071334952
4.228026884
4.077924896
4.081523163
2.361657187
3.083837018
2.846581032
1.944262977
2.435345944
2.234076576
2.019807594
2.239015705
2.475002507
2.896686192
4.044177135
3.716360037
3.749216667
3.762969087
3.228364364
2.81876092
3.811285178
2.610679971
3.875748604
2.667398794
3.891355085
2.589313767
3.827092894
2.473117539
3.722270503
2.349602744
3.631246987
2.223704819
3.593005394
2.11584713
3.610175169
2.0752153
3.662507658
2.075738341
3.764884431
2.252661832
4.005917682
2.725167967
1.705832608
1.6932375
2.099584184
2.211391552
2.235717114
2.213511666
2.174439117
2.12067776
2.057583511
2.014499587
2.030310298
2.874721369
1.941757636
1.529411867
1.680358853
1.993023741
2.328309293
2.346145932
2.331079583
2.291766879
2.24560962
2.203914179
3.060204213
2.301166079
1.044394409
1.767819691
2.013487848
2.484928073
2.375839681
2.300461131
2.222164432
2.131002556
3.138578249
2.5114344
1.141495695
2.164173569
2.453012745
2.472710126
2.352845376
2.223405991
2.07718954
3.067669491
2.449179839
2.151137463
2.14928264
2.407661139
2.402128487
2.297980881
2.155886993
3.336145821
3.855190329
3.96294254
4.00931064
3.990660026
3.930966661
3.8785475
3.881913621
3.941810369
4.021305447
4.138912496
4.328122968
2.488388607
2.50054662
2.609249897
2.614078724
2.503665709
3.715842844
3.857291358
3.94455164
3.821305962
4.002957688
3.875469501
4.014915159
3.997439181
3.991517086
3.932384138
4.036601402
4.003283241
4.1244304
4.21878576
4.335611801
4.304678726
2.652629575
2.275016642
2.304974636
2.262217042
2.114483958
3.124858421
2.40994373
2.096475945
1.969805225
1.773914323
3.242095633
2.365432376
2.099346275
1.908933197
2.26017961
4.017736286
4.098223871
4.32115682
5.398657371
4.40269404
3.776397286
3.681651513
3.579926871
3.573223832
3.56636464
3.772352304
3.539667742
3.762685932
3.510027173
3.512422486
3.789211881
4.333314239
4.431545374
3.69739056
2.692668308
3.097651638
3.210497993
3.155653556
3.043551538
2.975421554
3.782896863
4.160068395
3.761151473
2.850483524
2.389764868
2.556885595
2.638426322
2.493657924
2.239515061
2.047231273
3.98869653
3.982817432
2.650736881
3.835198807
1.864864864
2.133893215
3.812428735
3.856616844
2.687185826
3.893041347
2.186460464
2.341394119
3.89833493
3.922912919
2.637827912
3.867529087
2.400307328
2.447329255
3.929725292
3.917314906
2.532915477
3.776302202
2.451362937
2.436538715
3.889005241
3.849783165
2.412061171
3.67184911
2.410094383
2.380151257
3.805878488
3.764012294
2.286437692
3.604478919
2.349451022
2.316849636
3.731490679
3.71344338
2.164569358
3.595776909
2.28387342
2.252295916
3.712184041
3.726250966
2.08590372
3.632798148
2.22359434
2.199001777
3.75083741
3.780809284
2.077912262
3.705885616
2.180297839
2.173235419
3.815823611
3.864102524
2.109914227
3.868082575
2.182544975
2.226094748
3.92642588
4.028843843
2.462149385
4.156356948
2.298900619
2.456947081
4.14738985
4.265809789
3.779098327
3.850911572
3.915311515
3.961907377
4.24709766
4.357328215
3.791998675
3.808108831
3.826155402
3.846985926
3.873527834
3.908381379
4.125280272
4.177597089
4.221836171
3.68529819
3.863655699
3.979126883
4.174795173
4.216483955
3.700082451
3.711764772
3.72640971
3.759544978
3.802799273
3.855203264
4.006054037
4.036422568
4.05518205
3.84139249
4.100906083
4.350810777
4.475053032
3.710763966
3.896822642
3.79877665
3.699219239
3.72274561
3.751009424
3.71721187
3.83095098
3.731727409
3.893639103
3.763324711
3.771708468
3.913162088
3.768122904
3.911750077
3.936171484
3.77100811
3.780686817
4.743454777
4.789611173
5.40215192
5.825674585
6.05125318
6.390120521
3.805371807
4.566630286
3.498663508
3.592277336
3.38563479
3.375906318
3.570940996
3.420007902
3.439549297
3.572471448
3.445166682
3.431865713
3.555163148
3.404338362
3.369793636
3.523689901
3.334902544
3.307570891
3.505550664
3.289789017
3.283528571
3.530683136
3.281978306
3.286497046
4.348258697
4.265314644
4.122036752
4.326790033
4.006755554
3.622028905
2.579781271
2.770376794
2.046110272
2.933134577
2.211981382
2.529511237
3.180085289
2.750627926
2.875180755
3.198200394
2.920408108
2.902974641
3.099312153
2.841804156
2.75911802
3.000646523
2.673203767
2.603259649
2.966361106
2.561594351
2.547310989
3.88780551
4.058990844
3.691875357
3.438578731
3.530294997
3.287777469
2.464622339
2.981949118
2.737808032
2.439297621
2.600560574
2.524325122
2.627518928
2.499723793
2.474489778
2.589066455
2.426059952
2.342535513
2.37102568
2.223176895
2.07981465
2.12302722
1.928128078
1.787955864
2.023335968
1.706376766
1.738279872
3.594129347
)
;
    }
    procBoundary2to0
    {
        type            processor;
        value           uniform 0;
    }
    procBoundary2to1
    {
        type            processor;
        value           uniform 0;
    }
    procBoundary2to3
    {
        type            processor;
        value           uniform 0;
    }
}


// ************************************************************************* //
