/*--------------------------------*- C++ -*----------------------------------*\
  =========                 |
  \\      /  F ield         | OpenFOAM: The Open Source CFD Toolbox
   \\    /   O peration     | Website:  https://openfoam.org
    \\  /    A nd           | Version:  8
     \\/     M anipulation  |
\*---------------------------------------------------------------------------*/
FoamFile
{
    version     2.0;
    format      ascii;
    class       volScalarField;
    location    "1.4";
    object      nut;
}
// * * * * * * * * * * * * * * * * * * * * * * * * * * * * * * * * * * * * * //

dimensions      [0 2 -1 0 0 0 0];

internalField   nonuniform List<scalar> 
67410
(
9.37853715e-05
0.0001177611533
0.0001296019353
0.0001383557576
0.0001453934466
0.0001513352118
0.0001565330075
0.0001611760911
0.0001653899851
0.0001692895086
0.0001729936819
0.0001766084265
0.0001801775535
0.0001836134595
0.0001866418421
0.000188814843
0.0001896461491
0.0001888611851
0.0001867366474
0.0001840625558
0.000181850408
0.0001802641851
0.0001789132242
0.0001775858679
0.0001761678507
0.0001746826402
9.533223099e-05
0.0001221744886
0.0001368282739
0.000148405072
0.0001579758285
0.0001661081643
0.0001731914669
0.0001794904601
0.0001852452368
0.0001907323981
0.0001962624181
0.0002021050643
0.0002083441049
0.0002147264976
0.0002206131389
0.0002251006369
0.0002272644808
0.0002264462752
0.0002227066476
0.0002173474256
0.0002127031041
0.0002100931454
0.000208624432
0.0002074134132
0.0002060459771
0.0002043834008
9.53242875e-05
0.0001242880727
0.0001412170109
0.000154753394
0.0001658958772
0.0001752547121
0.0001832983371
0.0001904185786
0.0001970406361
0.000203680944
0.0002108726402
0.0002189697683
0.0002278981216
0.0002370382602
0.0002453313101
0.0002515808431
0.0002546483963
0.0002535253276
0.0002478141927
0.0002386248491
0.0002292942093
0.0002236902405
0.0002209458219
0.0002190304022
0.0002169869199
0.0002144857319
9.607000851e-05
0.0001273065368
0.0001456823483
0.0001601894615
0.0001720211138
0.0001818932493
0.0001903790922
0.0001980262096
0.0002054740999
0.0002134838195
0.0002227089853
0.0002333711532
0.0002450351169
0.0002566961519
0.0002669791376
0.0002747805859
0.0002788247057
0.0002777716493
0.0002707285675
0.0002582646843
0.0002435450838
0.0002336421764
0.000228968685
0.0002261001242
0.000223252737
0.0002197739493
9.82287756e-05
0.0001311684333
0.0001500044056
0.000164687217
0.0001766180985
0.0001865827033
0.0001952942074
0.0002034905285
0.0002119625087
0.0002216227434
0.0002330582044
0.0002461997488
0.0002602850086
0.0002742498334
0.0002861697746
0.0002947989492
0.0002992340829
0.0002985598032
0.0002916853912
0.0002775695333
0.0002578693223
0.0002430954753
0.0002360777732
0.0002321056092
0.0002283910837
0.0002239254842
0.0001012765523
0.0001347605892
0.0001535088993
0.000168145721
0.0001800543417
0.0001897117853
0.0001983313349
0.0002072036101
0.0002168437381
0.0002281635634
0.000241567591
0.0002568155967
0.0002728102028
0.0002873651135
0.0002993504417
0.0003079848226
0.0003125361539
0.0003121971899
0.0003059397455
0.0002924365076
0.0002717759163
0.0002530225169
0.0002434841842
0.0002381876023
0.0002334528554
0.0002279745374
0.0001034908304
0.0001374739727
0.0001569311346
0.0001732365278
0.0001862747787
0.0001936456418
0.0001996881482
0.0002091774684
0.0002198611452
0.0002324390435
0.0002471537471
0.0002637453517
0.000279985706
0.0002944244863
0.000306246118
0.0003147694832
0.0003193129285
0.0003191476371
0.0003133847276
0.0003008382211
0.0002811467488
0.0002618237644
0.0002510361208
0.0002447966234
0.0002391090263
0.0002323690926
0.0001047849041
0.0001414817632
0.0001670182539
0.0001926571113
0.0002105265939
0.0002083321541
0.0002000656692
0.0002092168432
0.0002204383737
0.0002335161972
0.0002485916895
0.0002653367824
0.0002813413691
0.0002955287696
0.0003071449931
0.0003155109819
0.0003199675292
0.0003198629399
0.0003144829522
0.0003030145197
0.0002855274738
0.0002680646056
0.0002574971824
0.0002509149404
0.0002448482562
0.0002374865759
0.0001088854864
0.0001561602228
0.0002006926706
0.0002440834937
0.0002678920768
0.0002503595429
0.0002033727561
0.0002076928067
0.0002183392306
0.0002310455878
0.0002454088848
0.0002614670281
0.0002769597487
0.0002907979214
0.0003021894949
0.0003104062677
0.000314798601
0.0003148064048
0.0003099477048
0.000299946702
0.0002856851548
0.0002718775527
0.0002628838406
0.0002566893136
0.0002507531983
0.0002437029093
0.0001246395257
0.0001956031788
0.0002631404758
0.0003166749062
0.000342026725
0.0003185922688
0.0002237544857
0.0002073306132
0.0002143435395
0.0002259988953
0.0002388129048
0.0002531295362
0.0002675553337
0.0002806855984
0.000291703685
0.0002998068258
0.0003043318039
0.0003048232767
0.0003010956976
0.0002934520995
0.0002833366816
0.0002739709064
0.000267323304
0.0002621334477
0.0002568465839
0.0002504162133
0.00015769294
0.0002551616525
0.0003316630802
0.0003848347054
0.0004133787167
0.0003975673474
0.0002835539012
0.0002156646893
0.0002102518241
0.0002205942809
0.0002315393721
0.0002433526035
0.0002557999707
0.0002673888666
0.0002774893211
0.0002853513829
0.0002903175072
0.0002920029665
0.0002904297772
0.0002861793225
0.0002805644995
0.0002753092831
0.0002710492038
0.000267151719
0.0002628341064
0.000257347869
0.0001976398711
0.0003079912232
0.000382013227
0.0004417322004
0.000479795839
0.0004752087664
0.0003739775878
0.0002436670799
0.0002078015065
0.0002167081824
0.0002266071134
0.000236601101
0.0002469059755
0.0002563934947
0.0002649153256
0.0002720716115
0.0002773950415
0.0002805615013
0.0002815534673
0.0002807380927
0.0002788421296
0.0002766092315
0.0002742782605
0.0002715904764
0.000268205786
0.0002637370345
0.0002164068467
0.0003185296093
0.0003859717187
0.000465890489
0.0005100800111
0.0005083784558
0.0004320082634
0.000286903101
0.0002073830945
0.0002140995659
0.0002239484133
0.000233544073
0.0002427656762
0.0002509534877
0.000258277221
0.0002646750463
0.0002699633213
0.0002739640758
0.0002766103082
0.0002779923753
0.0002783899506
0.00027806572
0.0002770946004
0.0002753369732
0.0002726251353
0.000268758303
0.0001496582982
0.0002194206046
0.000293629421
0.0003981697467
0.0004599902353
0.0004709467525
0.0004011897889
0.000234690668
0.0002037533854
0.0002120446298
0.0002220245501
0.0002318048151
0.000240638453
0.0002483303524
0.0002551434648
0.0002611834412
0.0002664453789
0.000270869712
0.0002743911727
0.0002769572916
0.0002786433777
0.0002794796716
0.0002794212322
0.0002783449509
0.0002761502746
0.0002727331132
0.0001445788771
0.0002051071264
0.0002881852765
0.0002766043528
0.0003381904113
0.0003284427739
0.0002213080562
0.0001923095959
0.0001986460449
0.0002092480788
0.0002196141329
0.0002299073408
0.0002388313623
0.0002465338963
0.0002532943457
0.0002592935841
0.0002646270923
0.0002693170255
0.0002733246825
0.000276553274
0.0002789799663
0.0002805196974
0.00028104848
0.0002804283458
0.0002785761905
0.000275414346
0.0001573182124
0.0002556801132
0.0003653926856
0.0002991010791
0.0002392558296
0.0002340583411
0.0001747812199
0.0001806865936
0.0001924307788
0.0002043278986
0.0002156734498
0.0002267103301
0.0002362090337
0.0002442862457
0.0002512885579
0.000257469738
0.000262992154
0.0002679287099
0.000272270476
0.0002759382704
0.0002788332282
0.0002808167814
0.0002817188405
0.0002813900747
0.0002797620259
0.0002767915332
0.0001227304123
0.0001567284596
0.0002014289201
0.0001758916242
0.000177088441
0.0001706592633
0.0001648572421
0.0001736404946
0.0001853879283
0.0001978033354
0.0002099862635
0.0002218252273
0.000232172598
0.0002408433782
0.0002482273914
0.0002546468818
0.000260369275
0.0002655407732
0.0002701694162
0.0002741720976
0.0002774122272
0.0002797106797
0.0002808640783
0.0002807246997
0.0002792467959
0.0002764395831
0.0001227135962
0.0001357831773
0.0001530192339
0.0001532084223
0.0001547664321
0.0001534502966
0.0001571377026
0.0001654021028
0.0001761267858
0.0001884053021
0.0002010745667
0.0002137260895
0.0002249758898
0.0002343545076
0.0002422189418
0.000249076597
0.0002551716528
0.0002606441374
0.0002655443194
0.0002698114998
0.0002733091695
0.0002758462004
0.0002771735055
0.0002771541757
0.000275758129
0.0002730678215
0.0001279587387
0.0001332782335
0.000132979116
0.0001366466421
0.0001412611415
0.0001467379283
0.0001534322816
0.0001604796283
0.000168269733
0.000177978124
0.0001895585461
0.0002028661248
0.0002145699686
0.0002249501817
0.00023367514
0.0002410404462
0.0002474555509
0.0002531700423
0.0002582750178
0.0002627233657
0.0002663903019
0.0002690980361
0.0002704604559
0.0002703688725
0.0002688229775
0.0002661233278
0.0001387146294
0.0001408914724
0.0001360131768
0.0001350753404
0.0001394313239
0.0001463796554
0.0001532473732
0.0001591383293
0.0001643616967
0.0001706388887
0.0001812180528
0.0001903335893
0.0002020269069
0.0002126624264
0.0002217105961
0.0002295426811
0.0002362700976
0.0002422169703
0.0002475221316
0.0002521301339
0.0002559168122
0.0002587889257
0.0002600173573
0.0002597131322
0.0002579228417
0.0002553227945
0.000158632245
0.0001546193777
0.0001456455697
0.0001413354433
0.0001429861845
0.0001478465741
0.0001531712736
0.0001582787664
0.0001640403364
0.0001816788079
0.0002249192253
0.0001787653068
0.0001891210257
0.0001994303809
0.0002078227373
0.0002149438171
0.0002212279153
0.000227146968
0.0002326978271
0.0002375083454
0.0002414392788
0.0002447248631
0.0002454636516
0.0002444927976
0.0002422986724
0.0002402455376
0.0001911589656
0.0001777215851
0.000160487974
0.0001506402725
0.0001480591957
0.0001496741812
0.0001523501824
0.0001573731412
0.0001824156105
0.0002968301211
0.0004540041002
0.0002077729361
0.0001767741383
0.0001853622388
0.0001933172651
0.0001997441943
0.0002052789205
0.0002101479356
0.0002144547141
0.0002182842817
0.0002217853096
0.0002237816821
0.0002240151576
0.0002232628018
0.0002216749973
0.0002208840259
0.0002307230649
0.0002118572342
0.0001831048162
0.0001651161464
0.0001564428285
0.0001542940925
0.0001529448738
0.0001510449403
0.0001519421767
0.0001646337533
0.000200712409
0.0001604242485
0.0001651983514
0.0001719138702
0.0001781326231
0.000183241901
0.0001877960218
0.0001923347787
0.0001983221357
0.0002092642254
0.0002187678999
0.0002007785457
0.0002009766955
0.0002020478732
0.000201293503
0.0002007597697
0.0002682527298
0.0002528148492
0.0002149385802
0.0001878871115
0.0001715224991
0.0001657997076
0.0001605155123
0.0001513108015
0.0001452012482
0.0001423173127
0.0001474011164
0.0001481119571
0.0001541594935
0.0001592278695
0.0001640453985
0.0001685472208
0.0001733528597
0.0001794609629
0.0001885914087
0.0002032666517
0.000215608004
0.000200037545
0.0001907072921
0.000179571885
0.0001784517074
0.0001754907273
0.0002994923946
0.0002943359575
0.0002543101045
0.0002193028603
0.0001953389465
0.0001882461316
0.0001797992755
0.0001590009793
0.0001467165052
0.000136720873
0.0001329361148
0.0001384000227
0.0001475114205
0.0001558828375
0.0001633513416
0.000169975972
0.0001763584806
0.0001835111056
0.0001922856996
0.0002028328875
0.0002104285734
0.000209741566
0.0001955737191
0.0001709117581
0.0001599031922
0.0003243690369
0.0003333735443
0.0002974430519
0.0002570298971
0.000225240908
0.000220654984
0.0002128810095
0.000178518274
0.0001545690766
0.0001375975396
0.0001313726903
0.0001348838131
0.0001439687003
0.0001537372311
0.0001627737922
0.0001711211591
0.0001795969422
0.0001895069882
0.000202035578
0.0002161628354
0.0002272282459
0.0002302824903
0.0002154638183
0.0001873192216
0.0001822659035
0.0003449609503
0.0003702998908
0.0003409780626
0.0002975800224
0.0002570759292
0.0002546098874
0.0002509658783
0.0002135641125
0.0001753580742
0.00014417407
0.0001363312612
0.0001380229613
0.0001426959388
0.0001490771006
0.0001567248704
0.000165951219
0.0001777175722
0.0001930551113
0.0002123694367
0.000232463045
0.000247317142
0.0002497384645
0.0002291054396
0.0002095773262
0.0002182998982
0.0003680402087
0.0004078665958
0.000384186395
0.0003400103058
0.000289461665
0.0002840247656
0.0002844155754
0.0002524704061
0.0002109696113
0.0001600239107
0.0001457193511
0.0001465504525
0.0001481213401
0.0001500708726
0.0001533177197
0.000158976589
0.0001685254852
0.0001832847388
0.0002032474115
0.0002265845243
0.0002449181799
0.0002472337522
0.0002300494339
0.0002348751676
0.0002582894346
0.0003984969594
0.0004506439438
0.0004280736517
0.0003834877101
0.000324668761
0.0003081939081
0.0003135397469
0.0002830181644
0.0002431069791
0.0001830100384
0.0001572707432
0.0001573038396
0.0001586127855
0.0001596212123
0.0001610432673
0.0001635961088
0.0001679665246
0.0001747154704
0.0001841454644
0.0001962927122
0.0002115799161
0.0002343167837
0.000251227223
0.0002626980604
0.0002866598573
0.0003133288205
0.0004354097758
0.0004973615002
0.0004721843969
0.000426290769
0.0003632790996
0.0003268832305
0.000331996537
0.0002997570805
0.0002598059385
0.0002051586813
0.0001700230268
0.0001674444969
0.000169115416
0.0001709224986
0.0001729696623
0.0001758213436
0.0001800947692
0.000186371197
0.0001951945289
0.0002071456724
0.000223327856
0.0002456495323
0.0002656516069
0.0002717625369
0.0002818860804
0.000295695023
9.290723159e-05
0.0001199375022
0.0001334964453
0.0001440316757
0.0001526654675
0.0001601412739
0.0001669037323
0.0001731337386
0.0001788774315
0.0001841424443
0.000188953697
0.0001933697961
0.0001974630591
0.0002012714995
0.000204745895
0.000207725499
0.0002099583404
0.0002112458606
0.0002120970432
0.0002123738046
0.0002123706536
0.000212192502
0.0002118667055
0.0002114274064
0.0002107841364
0.0002098225395
9.762681519e-05
0.0002035897715
0.0002481663818
0.0002869967646
0.0003258915652
0.00036455729
0.0004027155027
0.0004392953461
0.0004731138873
0.0005035180653
0.0005307853588
0.0005561481972
0.0005813724985
0.0006079701628
0.0006364492108
0.0006654182479
0.000692124014
0.0007139271501
0.0007285619741
0.0007381452644
0.0007459491604
0.0007524195742
0.0007570211817
0.0007596644462
0.0007601685732
0.0007575933882
9.864140804e-05
0.0002274809369
0.0002850294257
0.0003416624141
0.0004016145303
0.0004622970095
0.0005209556866
0.0005747243667
0.0006219347859
0.0006628461697
0.0006997868773
0.0007364721117
0.0007766550419
0.0008218459442
0.0008703965481
0.0009169304395
0.0009544501936
0.0009792165707
0.0009891508137
0.0009880676222
0.0009858081324
0.0009855480267
0.0009847694922
0.0009812404225
0.0009749873368
0.0009646137781
9.850797705e-05
0.0002358826298
0.000302822695
0.0003737198845
0.0004509561096
0.0005291882684
0.0006031479619
0.0006685369311
0.0007243179911
0.0007729402113
0.0008197921818
0.0008706574356
0.0009285253032
0.000991166551
0.001054186331
0.001105476396
0.00114013801
0.001162570875
0.001172540635
0.001162782827
0.00114659956
0.00113273654
0.001121599142
0.001108446542
0.00109368783
0.001078664565
9.904690156e-05
0.0002394706692
0.0003132053867
0.0003940092134
0.0004826606476
0.0005723613914
0.0006567020602
0.0007301591495
0.0007932823796
0.0008508636427
0.0009099725247
0.0009747998939
0.001041884762
0.001097478878
0.00115067529
0.001197846336
0.001233529483
0.001255624947
0.001265340494
0.001266358207
0.001260895654
0.001238908626
0.001216957614
0.001193442652
0.001167271024
0.001131060495
0.0001004530772
0.0002396132128
0.0003161301153
0.0004004925721
0.0004931636072
0.0005883925731
0.0006801751216
0.0007607014694
0.0008324369968
0.000900611613
0.0009706466585
0.00103806398
0.001094185199
0.00115253175
0.001208446953
0.00125704839
0.001293403583
0.001315260488
0.001324306165
0.001325571821
0.001322768671
0.001309812087
0.001283961166
0.001254065682
0.001222617457
0.001180109503
0.0001014203327
0.0002345949883
0.00030897627
0.0003904035481
0.000480188986
0.0005759938924
0.0006740654287
0.0007624091756
0.0008454304875
0.0009248694995
0.001001901366
0.001061881641
0.001121358299
0.001181521003
0.001239204416
0.001289118213
0.0013265161
0.001349448723
0.001359719561
0.001362214032
0.001360741805
0.001349630154
0.001323560414
0.001292777998
0.00126547034
0.001228806805
0.0001007483256
0.0002238706187
0.0002926867776
0.0003673274475
0.00045132323
0.0005431270663
0.000642114764
0.0007383697452
0.0008358813252
0.0009271523886
0.001010754548
0.001071533828
0.001132471384
0.001193232348
0.001250951493
0.001300968994
0.001339277571
0.001364416336
0.001378059899
0.00138413023
0.001385204547
0.001376101616
0.001352220295
0.001323758602
0.001300611664
0.001279103655
9.953964479e-05
0.0002107012283
0.0002746422477
0.0003478760439
0.0004346524391
0.0005129017035
0.0005902292582
0.0006929612879
0.0008081235426
0.0009115223648
0.001005526525
0.001072694532
0.001135038479
0.001195112957
0.001251356953
0.001300400252
0.001339317867
0.001367156469
0.001385188722
0.001395816604
0.001399724898
0.001392538035
0.001372283789
0.001348653719
0.001331321119
0.001320412365
0.0001022369454
0.0002026643265
0.0002706573111
0.0003683527991
0.0004728969091
0.0005177518003
0.0005349645721
0.0006334047574
0.0007685087664
0.0008834120201
0.00098876794
0.001069419837
0.00113397374
0.001193323693
0.001247800259
0.001295503259
0.001334662202
0.001364743557
0.001386414957
0.001400453633
0.001406067513
0.001400422209
0.00138460362
0.00136720527
0.001356413392
0.001354794796
0.0001133290427
0.0002059631437
0.0003074527222
0.000471804063
0.0006035665301
0.0006164732198
0.0005544140108
0.0005780679207
0.0007252522731
0.0008512534503
0.0009681266314
0.001061780639
0.001129123639
0.001189225917
0.001243202045
0.001290186542
0.001329343782
0.001360449014
0.001383665845
0.001398753584
0.001404790429
0.00140101459
0.001390367416
0.001379586877
0.001374544297
0.001378099006
0.000132097332
0.0002331239343
0.0004153960963
0.0006796881526
0.0008711190486
0.0008876900107
0.0007307929492
0.0005770479655
0.0006877121963
0.0008232562355
0.000948388252
0.001047376521
0.001116913724
0.001178381141
0.00123304444
0.001280305831
0.001319686348
0.001351085913
0.001374507982
0.001389566297
0.001396427913
0.001395953994
0.001391249276
0.001386898191
0.001386554198
0.001392552225
0.0001443845674
0.0002552974126
0.0004703143868
0.0007466225764
0.0009870061964
0.001033766339
0.0008910306701
0.0006502479575
0.0006669358816
0.0008056212639
0.0009309264042
0.001026127591
0.001095752895
0.001157633891
0.001212684301
0.001260381139
0.001300387505
0.001332659718
0.001357208436
0.001373566603
0.001383188142
0.001387517587
0.00138899289
0.001390425511
0.001393894488
0.001400992229
0.0001279443214
0.000260341669
0.0004435525453
0.0006682603383
0.0008786739424
0.000943928738
0.0008401826561
0.0006489767364
0.0006665871549
0.0007991243685
0.0009148501648
0.001000603623
0.001069646577
0.001131486059
0.001186449102
0.001234270718
0.001274944279
0.00130866233
0.001335541509
0.001354609553
0.001368275837
0.00137774583
0.001384670128
0.00139068696
0.001396953553
0.001404492665
0.0001255698636
0.0003014010821
0.0006809566535
0.000669006232
0.0006110933059
0.0006686324794
0.0005969278633
0.0005644602909
0.0006595137275
0.0007779772178
0.0008893270785
0.0009704661159
0.001040890759
0.001103724527
0.001159066807
0.001207155506
0.001248517007
0.001283726524
0.001313037479
0.001335533685
0.001353310471
0.001367180631
0.001378149314
0.001387212842
0.001395113333
0.001402599948
0.0001375025261
0.0005051332435
0.0007875656548
0.0008351799634
0.0004913346959
0.0004169511382
0.0004220743649
0.0004922934126
0.0005991840465
0.0007256312844
0.0008450536563
0.0009334728677
0.00100840448
0.001074062962
0.001131007733
0.001180118036
0.001222462971
0.001259002782
0.001290278175
0.001316324734
0.001337630931
0.001354701549
0.001368077984
0.001378512243
0.001386730926
0.001393570848
0.0001121143957
0.0001941767396
0.0003863861278
0.0004106446272
0.0003881214081
0.0003626332165
0.0003853750773
0.0004454441089
0.000545087936
0.0006662118434
0.0007889054344
0.0008891691351
0.0009697022591
0.001039491329
0.001099205715
0.001150482061
0.001194828831
0.001233505437
0.001267180282
0.001295888996
0.001319598469
0.001338338042
0.001352325499
0.001362304765
0.001369332424
0.001374854668
0.0001154972347
0.0001777921143
0.000208132418
0.0002595623941
0.0002765450679
0.0002934325566
0.0003244735588
0.0003879079851
0.0004796090926
0.0005917149578
0.0007144386983
0.0008325762728
0.0009205950064
0.0009956673563
0.001058683119
0.001112773477
0.001159799076
0.001201233136
0.001237707985
0.001269000614
0.001294523172
0.001313852789
0.001326897759
0.001334670299
0.001338944324
0.001342236177
0.0001206487412
0.0001873442325
0.0001944865651
0.0001975445843
0.0002132347454
0.0002395680843
0.0002852517218
0.0003517685512
0.0004329022994
0.0005248585258
0.0006198649795
0.0007545853458
0.0008530813488
0.0009349625609
0.001000501204
0.001057429427
0.001107466511
0.001152186839
0.001192022656
0.001226123562
0.001253090857
0.0012720034
0.00128251204
0.001286112584
0.001285595177
0.001285171805
0.0001284380768
0.0002055780872
0.0002108295325
0.0002003858132
0.0001993396585
0.0002207119332
0.0002668505382
0.0003318671368
0.0004022974411
0.0004502518958
0.0004474898441
0.0006587962392
0.000745223689
0.0008398768707
0.0009131838721
0.0009723719779
0.001025154444
0.001073350465
0.0011176484
0.001155857881
0.001184541089
0.001201495241
0.001206736161
0.001204178808
0.001198434411
0.00119562226
0.0001400302078
0.0002216996893
0.0002375427965
0.000229211233
0.0002223180841
0.0002314358271
0.0002625134989
0.000312765835
0.0003503675466
0.0004564789422
0.0005221225055
0.0006016748754
0.0006145547786
0.0006907930203
0.0007617079429
0.0008294593843
0.0008911039936
0.0009493737637
0.001003286579
0.00105308917
0.001087160668
0.001097119122
0.001093135149
0.001081186931
0.001068010623
0.001062816098
0.0001584582318
0.0002335529578
0.0002569525089
0.0002583214183
0.0002541714974
0.0002546073661
0.0002644368176
0.0002695974463
0.0003580169285
0.0006103847798
0.001032067006
0.0004621537869
0.0004989840123
0.00051164864
0.0005677738694
0.0006154331847
0.0006696899299
0.0007323461275
0.000812665308
0.0009114452245
0.0009697112081
0.0009548988133
0.0009288840936
0.0008963485324
0.0008662514972
0.0008612332817
0.0001826072579
0.0002513108024
0.0002710848849
0.0002769509738
0.0002775693062
0.0002761012743
0.0002690496918
0.0002671917214
0.0002803907111
0.0003603273085
0.0003709885066
0.0002945282873
0.0003601151567
0.0003823934199
0.000408188568
0.0004395282747
0.000478922326
0.0005411400816
0.0006549083199
0.0008167853086
0.0008811136096
0.0007651438365
0.0006725361393
0.0006098507791
0.0005786992829
0.0005870169835
0.0002072261792
0.0002873660901
0.0002947719901
0.0002933950807
0.0002895190803
0.0002870048313
0.0002745537892
0.000250792053
0.0002321524259
0.0002291954236
0.0002194038042
0.0002591712326
0.000293476409
0.0003272060721
0.0003676932931
0.0004097007176
0.0004620175249
0.0005431768083
0.0006756513037
0.0008366197695
0.0008845077292
0.0007747518363
0.0006019180679
0.0004189978987
0.0003547445145
0.0004099148831
0.0002288552215
0.0003498033269
0.000343893406
0.0003270279599
0.000306798445
0.0002939107359
0.0002771983825
0.0002480376
0.0002191350019
0.0002020793865
0.0002061174769
0.0002390017646
0.0002964908565
0.000363922105
0.0004314805307
0.0004966312181
0.0005658305301
0.000650958392
0.000757137379
0.0008579778145
0.0008852438399
0.0008031722644
0.000632577165
0.0003938846572
0.0002990045524
0.0002494968757
0.000447197608
0.0004304838087
0.0003935476216
0.0003545632165
0.0003250760698
0.0002893684073
0.0002458748031
0.0002146812537
0.0001984072056
0.0002012630739
0.0002295195887
0.0002884288646
0.0003630814037
0.0004425243864
0.0005221956366
0.0006072936294
0.0007066393066
0.0008162909031
0.0009123592235
0.0009557599448
0.0009161794764
0.0007860669384
0.0005720135823
0.0004830773328
0.0002755076879
0.0005824861395
0.0005627530521
0.0004936987325
0.0004430253643
0.0004097010376
0.0003441666804
0.0002666857873
0.0002153613893
0.0002018348314
0.0002076781242
0.0002278428796
0.0002630134266
0.0003128789928
0.0003745766551
0.0004485415849
0.000542769921
0.0006670891301
0.0008083042589
0.0009448825271
0.001032906322
0.00104742476
0.0009839679142
0.0008383328173
0.000783907499
0.0003098897223
0.0007300372078
0.0007439615308
0.0006239258337
0.0005636795297
0.0005514189325
0.0004574781931
0.0003474502706
0.0002434733092
0.0002184755879
0.0002276308095
0.0002419688413
0.000258338148
0.0002811972254
0.0003137061653
0.0003601715739
0.0004294861587
0.0005373127607
0.0006956334478
0.0008746675517
0.001020974257
0.001114309753
0.001150665753
0.001118527316
0.001185953766
0.0003578905583
0.000894108787
0.0009357793347
0.0008000615632
0.0007045837071
0.0006989950626
0.0006101719919
0.0004750689937
0.0003081130275
0.0002526101794
0.0002629599975
0.0002801857048
0.0002924874344
0.0003063470388
0.0003248977388
0.000351790682
0.0003917437866
0.0004534499233
0.000550843607
0.0006985420462
0.0009145857545
0.001159274764
0.001322050036
0.001319865582
0.001385703193
0.001499022502
0.000409593279
0.001049651181
0.001113567985
0.001004750689
0.0008522021171
0.0008108465171
0.0007215154789
0.0005832039165
0.0003932583662
0.0003092896012
0.0003140303204
0.0003372973262
0.0003563902564
0.0003792754185
0.0004060337565
0.0004384396918
0.0004769929124
0.0005276364679
0.0006066915609
0.0007369250032
0.000942640862
0.001168393407
0.001328635606
0.001417172428
0.001476308741
0.00154423955
9.648711099e-05
0.0001247766937
0.0001391993615
0.0001510320007
0.000160808607
0.0001692944743
0.0001770166145
0.0001842050845
0.0001909114942
0.0001971170059
0.0002028065859
0.0002080018409
0.0002127564133
0.0002171198607
0.0002210845932
0.0002245504205
0.0002273402817
0.0002289444822
0.0002315405605
0.0002330214669
0.0002339033253
0.0002343359215
0.0002344450479
0.0002343220329
0.0002339244994
0.0002332686439
0.0001040708994
0.0002550593581
0.0003269819158
0.0003890456836
0.0004506767737
0.0005117360953
0.0005719909454
0.0006302762269
0.000685174393
0.0007357490977
0.0007820225103
0.0008250037647
0.000866258675
0.0009071101275
0.0009477724995
0.0009868580941
0.001022313031
0.001051199514
0.001071816995
0.001086746539
0.001095347525
0.001100470017
0.001102547432
0.001102870759
0.001102806335
0.001105413603
0.0001059566685
0.000299411893
0.0003939244511
0.0004853564212
0.0005818067848
0.0006795374797
0.0007748061362
0.0008640174601
0.0009449772163
0.001017515703
0.001083498501
0.001146079527
0.001208271582
0.001271349281
0.001333930538
0.001392384016
0.001442417219
0.001481116162
0.00150055656
0.001511236177
0.001514230551
0.001512777565
0.001507482439
0.001499622831
0.001494665282
0.001498132125
0.000105403962
0.0003119133432
0.0004189922138
0.0005310906697
0.000653541863
0.0007783922179
0.0008979656662
0.001006566631
0.001102309981
0.001186888812
0.001264554827
0.001339978103
0.001415831119
0.001491241423
0.00156213709
0.001624453201
0.001674190244
0.001709185752
0.001728925086
0.001735189573
0.001733232807
0.001725184835
0.001711556737
0.001694211462
0.001683468747
0.001691055307
0.0001047436925
0.0003129536745
0.000427690677
0.0005537757033
0.0006936750548
0.0008362360354
0.0009710558768
0.001091041067
0.00119538617
0.001287553824
0.001373069576
0.001455885578
0.001535832308
0.001609598403
0.001670614637
0.001724169691
0.001767836263
0.001800040959
0.0018214547
0.00183419008
0.00183935423
0.001833865858
0.001817750606
0.001795429193
0.001771951546
0.001746195173
0.0001047549208
0.0003080054976
0.0004260791177
0.0005589662399
0.0007070625557
0.0008584170846
0.001001951851
0.001128973395
0.001239595826
0.001337594496
0.001427751328
0.001510836299
0.001582590853
0.001646087193
0.001705396056
0.001756905028
0.001798168866
0.001828658715
0.001850042919
0.001864899442
0.00187425091
0.0018750095
0.001863389745
0.001842497033
0.001819558244
0.001795024609
0.000104746226
0.000297338067
0.0004135977561
0.0005455500877
0.0006927525081
0.0008458274364
0.0009948658694
0.001129054647
0.001247184965
0.001351066805
0.001443722484
0.001522327725
0.001587314796
0.001649472096
0.001706823707
0.001756443648
0.001796148222
0.001826054442
0.001848399581
0.001865857827
0.001879113411
0.00188453411
0.001876965558
0.001858944305
0.001839420199
0.001821507483
0.0001032882896
0.0002802474232
0.0003896851063
0.0005129045955
0.0006503786855
0.0007966414697
0.0009466323236
0.001095732161
0.001227592455
0.001339324206
0.00143503406
0.001510252101
0.001575755178
0.00163649424
0.001691785149
0.001739368422
0.00177781543
0.001807941016
0.001832285118
0.001853201366
0.001870603702
0.001880269076
0.001876876493
0.001863020028
0.001848176506
0.001836440237
0.0001005425524
0.0002589314635
0.0003581028824
0.0004664037022
0.0005842628338
0.0007059991278
0.0008374554735
0.001021793742
0.001186540938
0.001311170976
0.001413266238
0.001491146184
0.001557690811
0.001617487793
0.001670749079
0.001716268751
0.001753635444
0.001784296526
0.001810813916
0.001834918037
0.00185559255
0.00186826914
0.001868423299
0.001859280601
0.001850187549
0.001844978049
9.963105758e-05
0.0002390146687
0.0003275322529
0.0004230672666
0.0005319793018
0.0006317610835
0.0007080959123
0.0008930515695
0.001123272406
0.001272399786
0.001384302873
0.001468906543
0.001538424586
0.001598585213
0.001650712093
0.001694768496
0.001731326005
0.001762311042
0.001790087888
0.001815642503
0.001837292015
0.001850809402
0.001853303698
0.001848804765
0.001845831978
0.001847529663
0.0001036735722
0.0002267894293
0.0003148630933
0.0004385965449
0.0006195549465
0.0007416152711
0.0007480628257
0.0007816795129
0.001033672227
0.001226117267
0.001351353973
0.001443941454
0.001517380113
0.001580374189
0.001633704581
0.001677869264
0.001714230042
0.001745048031
0.001772446351
0.001796787451
0.001816567153
0.00182883404
0.001832710438
0.001832612989
0.001835505121
0.001843700279
0.0001129011812
0.0002305672911
0.0003486434464
0.0005830548483
0.0008863272542
0.001010851113
0.0009629354629
0.0008181978551
0.0009384276449
0.001173131846
0.001315067136
0.001414047598
0.00149222568
0.00155957628
0.001616205634
0.001662324823
0.001699444934
0.001729900979
0.001755665758
0.001776591347
0.001792766968
0.001803085003
0.001808350256
0.001812610617
0.001820877331
0.001834795814
0.0001205987822
0.0002474356446
0.0004015387182
0.0007129481697
0.001031133469
0.001155701254
0.001117806292
0.0009316472778
0.0008788993408