/*--------------------------------*- C++ -*----------------------------------*\
  =========                 |
  \\      /  F ield         | OpenFOAM: The Open Source CFD Toolbox
   \\    /   O peration     | Website:  https://openfoam.org
    \\  /    A nd           | Version:  8
     \\/     M anipulation  |
\*---------------------------------------------------------------------------*/
FoamFile
{
    version     2.0;
    format      ascii;
    class       volVectorField;
    location    "1.4";
    object      U;
}
// * * * * * * * * * * * * * * * * * * * * * * * * * * * * * * * * * * * * * //

dimensions      [0 1 -1 0 0 0 0];

internalField   nonuniform List<vector> 
67410
(
(-0.1023839854 0.02991676196 0.07826577806)
(-0.2100789912 -0.005781540972 0.0840793308)
(-0.3112961486 -0.02750700611 0.08804016273)
(-0.3778738566 -0.04158068913 0.09124292024)
(-0.4342045039 -0.05159009798 0.09419296488)
(-0.4795914639 -0.06009562059 0.09707975222)
(-0.5160740374 -0.06837795622 0.09985591728)
(-0.5440946455 -0.07673016578 0.1026656328)
(-0.5639403806 -0.08516014487 0.1057564408)
(-0.5758283507 -0.09375760539 0.1093572556)
(-0.5797658352 -0.1026932221 0.1135174173)
(-0.57540916 -0.1120824645 0.1179563527)
(-0.5620670153 -0.1217663623 0.1219716189)
(-0.5389977672 -0.1310989013 0.1245276482)
(-0.5057547882 -0.1387346718 0.124629028)
(-0.462483683 -0.1426338903 0.1214766557)
(-0.4098157926 -0.1409418558 0.1142707199)
(-0.3447683079 -0.1335860519 0.1026478457)
(-0.2844565834 -0.1278173842 0.1063069452)
(-0.2401498261 -0.1182201397 0.1004457192)
(-0.2005932308 -0.10964069 0.092901964)
(-0.1637297793 -0.1016772827 0.08429234393)
(-0.1285147295 -0.0940056582 0.07605195748)
(-0.094412515 -0.08719524647 0.06850106402)
(-0.06122215375 -0.08105554193 0.06152085779)
(-0.02584051243 -0.07729561071 0.05503764247)
(-0.07682308482 0.06495255741 0.07738138784)
(-0.1711184191 -0.005030863071 0.08173058363)
(-0.2700382756 -0.05380359134 0.08185614942)
(-0.3398469946 -0.08572979783 0.08015449561)
(-0.3999078498 -0.1085785165 0.07815890803)
(-0.4479128679 -0.127357 0.07614420561)
(-0.486287092 -0.1445023734 0.07455387305)
(-0.5160239242 -0.1610953595 0.07386296604)
(-0.5379353081 -0.1776575863 0.07432608518)
(-0.5525504761 -0.1948231936 0.07586677027)
(-0.5598850418 -0.2131743425 0.0779386083)
(-0.5593400463 -0.2329944907 0.07952977001)
(-0.5497855112 -0.2538358587 0.07945965622)
(-0.5299364329 -0.2740579285 0.07700189239)
(-0.4987820986 -0.2908452606 0.07249205095)
(-0.4563128651 -0.3007416428 0.06716515625)
(-0.4040654434 -0.3008107959 0.06289924718)
(-0.3453481654 -0.2905512629 0.06166174193)
(-0.2885144552 -0.2782000549 0.06494464553)
(-0.2410233335 -0.2596689878 0.06868292118)
(-0.2023628153 -0.2424579695 0.06834334876)
(-0.1676280216 -0.2271991268 0.06365474365)
(-0.1341314838 -0.2130497318 0.05847811615)
(-0.1012618976 -0.2009474896 0.05438082152)
(-0.06946482145 -0.1898409436 0.05109815189)
(-0.03273131011 -0.1843071634 0.04689677821)
(-0.06281976185 0.05959860273 0.08350138228)
(-0.1477065597 -0.03293894453 0.08493334256)
(-0.2432221528 -0.094999219 0.08008477085)
(-0.3148126175 -0.1377136672 0.07341153842)
(-0.3767670188 -0.1694737897 0.06681674818)
(-0.4268526796 -0.1955773166 0.06093280954)
(-0.4678725545 -0.2191774882 0.05648874386)
(-0.5008580069 -0.2423843823 0.05398631652)
(-0.5266585324 -0.2660816192 0.05324927801)
(-0.5458234859 -0.2913791409 0.05347249258)
(-0.5580167241 -0.3190095878 0.05312920466)
(-0.5619814282 -0.3489909788 0.05040883049)
(-0.5556028392 -0.3800760422 0.0441512837)
(-0.5367350542 -0.4096459957 0.03452387367)
(-0.5042030678 -0.4342260101 0.02338872496)
(-0.4584945015 -0.4501117771 0.01357563639)
(-0.4020144422 -0.4544933629 0.008162767031)
(-0.3392406905 -0.4466053035 0.009848359847)
(-0.2780735579 -0.4285552607 0.02039482396)
(-0.2266573785 -0.4033596485 0.03486599351)
(-0.1882747033 -0.3784125839 0.0443833008)
(-0.1575183595 -0.3563150188 0.04353868272)
(-0.1274856969 -0.3365557305 0.03917881991)
(-0.09773124878 -0.3203520092 0.03606138354)
(-0.07064433396 -0.3057762542 0.03449843211)
(-0.03263070148 -0.2982931028 0.02337834893)
(-0.05518594219 0.03796989014 0.0930766065)
(-0.1401902159 -0.05894576309 0.09005242386)
(-0.2351859116 -0.1259993703 0.08065924591)
(-0.3068067142 -0.1730338263 0.06987465743)
(-0.3682702227 -0.2077931307 0.05982115827)
(-0.4186684259 -0.2351310537 0.05113799468)
(-0.4618631056 -0.2593837501 0.04464162484)
(-0.4983406138 -0.2845928267 0.04089474089)
(-0.5284839814 -0.3112553193 0.03888362087)
(-0.5527361737 -0.3408157023 0.03686978022)
(-0.5699248055 -0.3735972377 0.03241477089)
(-0.5776409816 -0.4089364595 0.02341766246)
(-0.572747599 -0.4447141496 0.009485670451)
(-0.5527302227 -0.4777557225 -0.007436433771)
(-0.5167433773 -0.5048144803 -0.02390327369)
(-0.4658408036 -0.5225442846 -0.03648795106)
(-0.403427776 -0.5291891395 -0.04232042395)
(-0.334788118 -0.5247736939 -0.03913910301)
(-0.2671631961 -0.5100189347 -0.02493922396)
(-0.2094506038 -0.485544033 -0.00125635768)
(-0.1692067503 -0.4582370854 0.02071710892)
(-0.1431078646 -0.4326620139 0.02616460901)
(-0.1174444537 -0.4100039307 0.02264247243)
(-0.09165483905 -0.3915479929 0.01994444478)
(-0.06922815929 -0.3753419648 0.02016126423)
(-0.03450534229 -0.3615730885 0.01185524668)
(-0.05749823526 -0.002137763985 0.1049930546)
(-0.1455315549 -0.09720634872 0.09650676623)
(-0.2396978417 -0.1654867156 0.08423931028)
(-0.3092486688 -0.2133694429 0.07174446739)
(-0.3675973664 -0.2471747102 0.06015326406)
(-0.416403357 -0.2703329717 0.04910088963)
(-0.462309503 -0.2895831244 0.03998157411)
(-0.5032929684 -0.3135569548 0.03452141585)
(-0.5382358601 -0.3399639833 0.03021365762)
(-0.5675646128 -0.3705599097 0.02450649758)
(-0.5888469855 -0.4045378671 0.01434324652)
(-0.5987496774 -0.4404414117 -0.001649625202)
(-0.5934166424 -0.4755831164 -0.02199662133)
(-0.5701342753 -0.5062414477 -0.04300043944)
(-0.5296896037 -0.5307860651 -0.06150081601)
(-0.4739361294 -0.5481558633 -0.0749886546)
(-0.40623912 -0.5572206686 -0.08144796126)
(-0.3320383252 -0.5572957709 -0.07862108807)
(-0.2586448257 -0.5482017091 -0.06360795259)
(-0.1946516238 -0.5302523884 -0.03513298421)
(-0.1498151259 -0.5070005238 -0.001868125381)
(-0.1272899502 -0.4821787973 0.01232697755)
(-0.105740543 -0.4600099038 0.01112625217)
(-0.08399414796 -0.4420934556 0.009803335183)
(-0.06242015218 -0.4269928074 0.01278291271)
(-0.04026083663 -0.4132955207 0.021549185)
(-0.06653502698 -0.04446878149 0.1180218563)
(-0.1566867762 -0.1400060576 0.1066596044)
(-0.2503704789 -0.2116681031 0.09545522894)
(-0.3163710903 -0.2609898337 0.08517228334)
(-0.3679267259 -0.2919849282 0.07368984021)
(-0.4114470557 -0.3036770329 0.05855130967)
(-0.4622836673 -0.3088724153 0.04332051655)
(-0.5097482201 -0.3286872461 0.03409450708)
(-0.549553837 -0.3510081652 0.02538465163)
(-0.5834806172 -0.3790573076 0.01457467002)
(-0.6074807461 -0.4101339738 -0.001547269947)
(-0.6177588748 -0.4421759356 -0.02288989476)
(-0.6102839305 -0.4722995091 -0.04637989542)
(-0.5849508649 -0.4991069135 -0.0687258212)
(-0.5419053569 -0.5212393856 -0.08767770945)
(-0.4828498784 -0.537963996 -0.1015861083)
(-0.4112685823 -0.548718152 -0.1087557122)
(-0.3328503373 -0.5529907787 -0.1068501793)
(-0.2550277328 -0.5501889121 -0.09257222214)
(-0.186886759 -0.5394974676 -0.06319270289)
(-0.1382604957 -0.5224459481 -0.02353820987)
(-0.1161642294 -0.5028318914 -0.001112796638)
(-0.09758634687 -0.4848908508 0.001065316949)
(-0.07944989765 -0.470352961 0.001268299144)
(-0.06168145961 -0.4584296093 0.006269436587)
(-0.0488253853 -0.4509996911 0.0202437535)
(-0.0743299558 -0.09179249033 0.1355971468)
(-0.1686348073 -0.196684085 0.1274617685)
(-0.2659542356 -0.2763631338 0.1240549784)
(-0.3285246523 -0.3333731529 0.1190576247)
(-0.3653962373 -0.3631888381 0.1042762103)
(-0.3936551517 -0.3497139939 0.08204999538)
(-0.4546509569 -0.3232078249 0.05698605262)
(-0.51218585 -0.3373229053 0.04075180402)
(-0.5563268244 -0.3511183128 0.02475095181)
(-0.5944407786 -0.3734074511 0.008391955181)
(-0.6199610248 -0.3981403614 -0.01235400328)
(-0.6296150847 -0.4234425525 -0.03639274428)
(-0.6219159561 -0.4474201892 -0.06090926463)
(-0.5961204581 -0.4686381758 -0.08353079379)
(-0.5524331074 -0.4866839439 -0.1026540442)
(-0.4924564073 -0.501545188 -0.1169164606)
(-0.4195967291 -0.5131371082 -0.1246226746)
(-0.3395782424 -0.5211238837 -0.1233765743)
(-0.2598502249 -0.5247450516 -0.1099488484)
(-0.1896857421 -0.5224973683 -0.08159982237)
(-0.1381238097 -0.513539779 -0.04107614151)
(-0.1139366864 -0.5009372375 -0.01459532026)
(-0.09562439156 -0.4892759365 -0.009254839663)
(-0.07908163001 -0.4790458004 -0.006957763258)
(-0.06452761871 -0.4701732249 0.0006166249439)
(-0.05945760877 -0.4653080574 0.01929815494)
(-0.07853685552 -0.1525770514 0.1663453216)
(-0.1867834302 -0.2721855477 0.16935116)
(-0.2975743798 -0.3731477664 0.1733278773)
(-0.3583447812 -0.4554184981 0.1513859675)
(-0.3675743957 -0.4905665227 0.1101223387)
(-0.3590072682 -0.4264613673 0.09517120151)
(-0.4328977464 -0.3359065665 0.08336222161)
(-0.5059870302 -0.3456684759 0.05786047223)
(-0.553013023 -0.3455922083 0.03020562285)
(-0.5960031864 -0.3596382459 0.008589187291)
(-0.6227730251 -0.3755294165 -0.01504725185)
(-0.6333564615 -0.3926379985 -0.03995715007)
(-0.6269908463 -0.4088613613 -0.0644379022)
(-0.6027832074 -0.4234015527 -0.0868730074)
(-0.5609093971 -0.4365772673 -0.106030526)
(-0.5027471481 -0.4489159694 -0.1205057428)
(-0.4315395526 -0.4607273687 -0.1284764544)
(-0.3529063855 -0.4718553101 -0.1275775929)
(-0.2741894727 -0.4813954377 -0.1150087207)
(-0.2043557747 -0.4873523363 -0.08898849217)
(-0.151357451 -0.4869638625 -0.0525998397)
(-0.1223824413 -0.4824407963 -0.02736214364)
(-0.1006765947 -0.4776312155 -0.02018754931)
(-0.08265127323 -0.4716367118 -0.01572237429)
(-0.06918725672 -0.4647733043 -0.005715211234)
(-0.06896124261 -0.4592958351 0.01651677878)
(-0.08803591856 -0.2392796418 0.2230546102)
(-0.2313369733 -0.3723029486 0.2303478515)
(-0.3721230428 -0.5125182261 0.191904088)
(-0.4281198058 -0.6297026627 0.07486541717)
(-0.3952824235 -0.6693580646 -0.02559811049)
(-0.3284497253 -0.539197867 0.01334528745)
(-0.3881215469 -0.3558000307 0.1172656368)
(-0.4875133821 -0.3626923926 0.09021149935)
(-0.5351575382 -0.3410535223 0.04365122793)
(-0.5861792492 -0.3442895229 0.01690951619)
(-0.6151419958 -0.3494244209 -0.008315269145)
(-0.628874542 -0.3574590702 -0.03267295932)
(-0.6255405324 -0.3654025792 -0.05622122148)
(-0.6049393951 -0.3729829937 -0.07786845822)
(-0.5671445451 -0.3810120261 -0.09673802482)
(-0.5132971169 -0.3904761899 -0.1112358565)
(-0.4464313013 -0.4020398434 -0.1194095663)
(-0.3719023244 -0.4156657213 -0.1190942002)
(-0.2967428994 -0.4301927263 -0.1082585793)
(-0.2290911698 -0.4430874592 -0.08657206629)
(-0.1755035844 -0.450410775 -0.05840095573)
(-0.1399541647 -0.4532973672 -0.03891863007)
(-0.1117430565 -0.4541958447 -0.03168155042)
(-0.08903395546 -0.4512893519 -0.02564524659)
(-0.07319284872 -0.4448711981 -0.01422804961)
(-0.07248609171 -0.4357001941 0.008823468619)
(-0.1276247037 -0.3443150895 0.3037617027)
(-0.3345943952 -0.4851371006 0.2481462815)
(-0.505118297 -0.6535508083 0.05769035293)
(-0.5333989617 -0.7695057196 -0.1945451339)
(-0.448573671 -0.7961247746 -0.3173028571)
(-0.3305234384 -0.6376674957 -0.2180394846)
(-0.2853945055 -0.4019222947 0.1241404192)
(-0.4463107342 -0.3938367749 0.1394315897)
(-0.4973380101 -0.3429740783 0.06511112418)
(-0.5648257903 -0.331509572 0.03172503656)
(-0.5981832508 -0.3253563183 0.005205960719)
(-0.6178368823 -0.3246538543 -0.01697753397)
(-0.6188313619 -0.3250267756 -0.03795493713)
(-0.6031496976 -0.3263381222 -0.05742713757)
(-0.5708384409 -0.3295499102 -0.07511350402)
(-0.5229659068 -0.3360424313 -0.0893544872)
(-0.4623356 -0.34679939 -0.09815782281)
(-0.3938009421 -0.3618394182 -0.09969130049)
(-0.323734572 -0.3796546688 -0.09282718157)
(-0.2589829896 -0.3971566066 -0.07842055668)
(-0.2045319212 -0.4100270081 -0.06103956626)
(-0.161901588 -0.4181062921 -0.04920537248)
(-0.1258437388 -0.422443042 -0.04324996596)
(-0.09622637326 -0.421118267 -0.0367672872)
(-0.07453881566 -0.414187415 -0.02570853511)
(-0.0666460084 -0.4006088113 -0.0050898266)
(-0.2197857684 -0.4221282988 0.3636519363)
(-0.4956553641 -0.5554683144 0.1334852592)
(-0.6562114565 -0.7073255789 -0.2241704551)
(-0.629061044 -0.7593132564 -0.4859498982)
(-0.4969362224 -0.7705721351 -0.5496788559)
(-0.3447694484 -0.6473327156 -0.478182029)
(-0.06176227264 -0.4707972861 0.02584371682)
(-0.3518762212 -0.4107753062 0.1909342863)
(-0.4318639212 -0.345312577 0.09195259229)
(-0.5316481969 -0.3169180795 0.04719729335)
(-0.5746493443 -0.3039371531 0.01776589678)
(-0.6023142406 -0.2977328645 -0.001574001145)
(-0.6083357766 -0.2934941893 -0.01819178982)
(-0.5977990723 -0.2905051402 -0.03356412671)
(-0.5710734775 -0.2898616954 -0.04829257612)
(-0.5295551176 -0.2933640504 -0.06144268387)
(-0.4758289103 -0.3023262955 -0.0713725149)
(-0.4140283979 -0.3168041072 -0.0765356385)
(-0.3494850361 -0.3350231359 -0.07616007487)
(-0.2875571799 -0.3535596344 -0.07096260895)
(-0.2317983429 -0.3684961031 -0.06392122278)
(-0.183011947 -0.3785943276 -0.05857369019)
(-0.1398035642 -0.3839789542 -0.05434156132)
(-0.1027906585 -0.3832094984 -0.04845094766)
(-0.0733227123 -0.3762300582 -0.03922765153)
(-0.05397675301 -0.3612484387 -0.0235903917)
(-0.3438554418 -0.3902125083 0.3341467017)
(-0.6445149231 -0.5026541943 -0.07819329216)
(-0.741654883 -0.6333444174 -0.4390545258)
(-0.6763888864 -0.5984009845 -0.6179568574)
(-0.5067434102 -0.61763984 -0.6610788256)
(-0.3162728292 -0.5757752248 -0.6736912775)
(0.1486473932 -0.4723903033 -0.2043237907)
(-0.1755022813 -0.3469902461 0.1901785134)
(-0.351898341 -0.3192030931 0.1171813386)
(-0.4876782002 -0.2852809381 0.05603246251)
(-0.5476460157 -0.2778541506 0.02092713549)
(-0.5828679107 -0.2732241171 0.001818522551)
(-0.5935065712 -0.2697819304 -0.01191102768)
(-0.5874865547 -0.2662673434 -0.02324199289)
(-0.5661290562 -0.2639497569 -0.03408094539)
(-0.5310528066 -0.2647926408 -0.04478292872)
(-0.4844028129 -0.2704215072 -0.05467626333)
(-0.4293539168 -0.2812454944 -0.06266386635)
(-0.3699659017 -0.2958734958 -0.06777579015)
(-0.310456396 -0.3112936215 -0.06957005661)
(-0.2536818191 -0.3245449888 -0.06909837837)
(-0.2007018614 -0.3338903282 -0.06748363255)
(-0.1520765853 -0.338749457 -0.06463642596)
(-0.108740557 -0.3380663327 -0.05966331088)
(-0.0720744003 -0.3318642059 -0.05232569519)
(-0.04256060961 -0.3191261875 -0.04143359851)
(-0.3731588111 -0.2459265411 0.2995889457)
(-0.6473307673 -0.4294896068 -0.1330489885)
(-0.6503424742 -0.5906466724 -0.3963274651)
(-0.6188286198 -0.408158859 -0.6422797734)
(-0.5101546775 -0.3877578122 -0.6952847385)
(-0.2845402192 -0.390037663 -0.7030491671)
(0.05149094071 -0.3622496824 -0.3561323901)
(-0.01817455706 -0.2191996218 0.07273248015)
(-0.3310260688 -0.2290915643 0.1264437268)
(-0.4504210438 -0.2282753325 0.05342277715)
(-0.5262842164 -0.2383996347 0.01576579882)
(-0.5628364363 -0.2404118849 -0.004483041376)
(-0.5762553635 -0.2398866909 -0.01789455204)
(-0.5736074136 -0.2374723503 -0.02804443066)
(-0.5570377975 -0.2351012405 -0.03710849021)
(-0.5280489265 -0.2346338636 -0.04604115879)
(-0.4881609528 -0.2375332469 -0.0549022639)
(-0.4394904244 -0.24433585 -0.06315020006)
(-0.38480476 -0.2542386245 -0.0699074357)
(-0.3275795871 -0.2651392517 -0.07408266884)
(-0.2705296948 -0.2751212384 -0.07608084696)
(-0.2150513606 -0.2824986549 -0.07607038422)
(-0.1625015735 -0.2861707208 -0.07405860931)
(-0.1143052171 -0.2851611953 -0.06975739334)
(-0.0722829558 -0.2794045973 -0.06341525081)
(-0.03692365799 -0.2683625648 -0.05461055512)
(-0.1632042931 -0.1393848941 0.369301838)
(-0.4721984995 -0.3620944507 0.1805991712)
(-0.4344254271 -0.6116794776 -0.3305631125)
(-0.3211264386 0.1130500189 -0.2555881112)
(-0.4273565312 -0.01495072768 -0.4043058121)
(-0.2736499496 -0.0922636757 -0.4897327002)
(-0.1784787133 -0.1909172707 -0.2470004853)
(-0.1921877862 -0.04251273681 0.09941314581)
(-0.3921452902 -0.1242697061 0.08744969965)
(-0.4617311656 -0.1779783644 0.03423892425)
(-0.5207385042 -0.1975983439 0.005804702255)
(-0.5479188949 -0.2038115771 -0.0123595221)
(-0.5598338797 -0.2038657115 -0.02524391906)
(-0.5585677569 -0.2007724533 -0.03529356401)
(-0.5455259447 -0.1970818814 -0.04407808485)
(-0.5215662759 -0.1946424356 -0.05248513829)
(-0.4875056094 -0.1947509637 -0.06078926931)
(-0.4444913385 -0.1979765112 -0.06875360025)
(-0.3941625885 -0.2039257124 -0.07570228571)
(-0.3394302004 -0.2112554699 -0.08027979585)
(-0.2829215785 -0.2184197778 -0.08309522305)
(-0.2261344422 -0.2238364362 -0.08388556956)
(-0.170818139 -0.2262636599 -0.08250505977)
(-0.1187670543 -0.2247204885 -0.07880666187)
(-0.0721454557 -0.2189931015 -0.07319246486)
(-0.03195307989 -0.2086278101 -0.06572617001)
(-0.3198986617 -0.3955995313 0.3856589423)
(-0.7887002519 -0.6120328692 -0.3267241284)
(-0.6835335095 -0.7260093413 -1.717719326)
(0.2369305805 0.02295993163 0.01475532357)
(-0.3450567801 0.1553822703 0.06265886537)
(-0.1758009134 0.1764156011 -0.08574130187)
(-0.3319463785 -0.01813489245 0.09520700524)
(-0.3849440484 -0.1066347129 0.1003353017)
(-0.4198002191 -0.1306006048 0.0529542549)
(-0.4774150263 -0.1613742828 0.02115056266)
(-0.5096567059 -0.1684093143 -0.001738152947)
(-0.5304973893 -0.1679694183 -0.01820180563)
(-0.5406708939 -0.1633001585 -0.03078275575)
(-0.5406684013 -0.156474473 -0.04104521074)
(-0.5309180313 -0.1496501971 -0.05003418602)
(-0.5115405851 -0.1442879138 -0.05840232113)
(-0.482704391 -0.1414068468 -0.06645399475)
(-0.4448557618 -0.1414846916 -0.0741179165)
(-0.3989145852 -0.1443382201 -0.08091358239)
(-0.3471335328 -0.1491714776 -0.08571416118)
(-0.2918165248 -0.1543379373 -0.08902791954)
(-0.2345844469 -0.1583006543 -0.09046483035)
(-0.1774375555 -0.1597762379 -0.08969465683)
(-0.1224922097 -0.1578603276 -0.08652019752)
(-0.07224173576 -0.152289854 -0.08128161893)
(-0.02836272906 -0.1426365808 -0.07412160344)
(-0.4425838365 0.110658225 0.2604714203)
(-0.7647155892 0.0480188583 -0.644893916)
(-0.6300382881 -0.1946750451 -1.951078846)
(0.5499269632 -0.06256870196 -0.1930080204)
(-0.01510994857 0.1659034264 0.2932919693)
(-0.01464604345 0.06433291909 0.1435632675)
(-0.2059937797 -0.1107783924 0.1654891666)
(-0.3117415064 -0.1161937518 0.09546728703)
(-0.3932368898 -0.1439105643 0.05276327679)
(-0.4472675735 -0.1477218537 0.01975363145)
(-0.4810538449 -0.1447805416 -0.002038531548)
(-0.5015660241 -0.1328004153 -0.01907267797)
(-0.5138479311 -0.1205561623 -0.03255648221)
(-0.5168873213 -0.1075736788 -0.04360172126)
(-0.511308664 -0.09613913246 -0.05316592447)
(-0.4968592601 -0.08719661911 -0.06183686621)
(-0.4734074306 -0.08135473098 -0.06991326528)
(-0.4409304534 -0.07880548868 -0.07741144072)
(-0.3998619075 -0.07931222243 -0.08408040097)
(-0.3516016664 -0.0821829889 -0.08938018074)
(-0.2979768915 -0.08574664735 -0.09331169992)
(-0.2408972773 -0.08847958427 -0.09551443613)
(-0.1826612014 -0.08915761194 -0.09549482409)
(-0.1256825714 -0.08702587996 -0.09293229631)
(-0.07254601614 -0.08191008451 -0.08801949588)
(-0.02525866979 -0.07315243713 -0.08088122026)
(-0.03399255791 0.09672904876 0.2353670334)
(-0.08720948949 0.3240210748 0.1214940068)
(-0.1699173264 0.6712798514 -0.2397981497)
(-0.1677013215 0.08337658105 0.05431074697)
(-0.2137026321 0.1542972278 0.1319761189)
(-0.1866129859 0.005486770562 0.1247918326)
(-0.2712008548 -0.08409907769 0.09820443805)
(-0.3365943653 -0.129769801 0.07589729881)
(-0.3838990532 -0.1442201966 0.04912424186)
(-0.4237402542 -0.143085578 0.02487855287)
(-0.4455636952 -0.1320916472 0.002630047813)
(-0.4633076122 -0.1004852981 -0.01549625783)
(-0.4791403357 -0.07980585457 -0.03067243869)
(-0.4864697372 -0.0573729049 -0.04275342068)
(-0.4866564944 -0.03951905638 -0.05284326152)
(-0.4780760128 -0.02534229761 -0.06149799866)
(-0.4604698352 -0.0154457774 -0.06928297236)
(-0.4336051702 -0.0101237717 -0.07650952688)
(-0.3974875497 -0.00886035563 -0.0831463727)
(-0.3528948368 -0.01051281059 -0.08889991575)
(-0.3013312085 -0.01317799164 -0.09360884487)
(-0.2449909935 -0.01505101783 -0.09683211914)
(-0.1866127398 -0.01505313401 -0.0978896523)
(-0.1289619468 -0.01268546833 -0.09627704801)
(-0.07459592012 -0.008247244145 -0.09189134695)
(-0.02646636463 -0.0003413263997 -0.08463040046)
(-0.03926204277 -0.2752530898 0.2093392813)
(-0.1243421665 -0.1734014305 0.2017302315)
(-0.03892039311 0.01027805809 0.2175312841)
(-0.0145747595 -0.1122985878 0.1101656105)
(-0.1568549306 -0.07255262588 0.149054465)
(-0.1588035975 -0.1262975605 0.1115652837)
(-0.2420825742 -0.1738951777 0.09493888071)
(-0.2966023427 -0.1847251542 0.07372913179)
(-0.3414004318 -0.1806555018 0.05842474487)
(-0.3770606687 -0.1615566558 0.04241328628)
(-0.3837274701 -0.139465686 0.01996291016)
(-0.4031120646 -0.07015762182 -0.0009272797853)
(-0.4316038232 -0.03733391223 -0.0189698671)
(-0.4444345937 -0.004393481408 -0.03242505725)
(-0.4541932535 0.01953953955 -0.04281471249)
(-0.4537521117 0.03745170525 -0.05137183471)
(-0.4434473226 0.04935482783 -0.05893285178)
(-0.4228247887 0.05591563359 -0.06595597145)
(-0.3917173084 0.05794541207 -0.07261551091)
(-0.3505084282 0.05700007267 -0.07883475902)
(-0.3006561691 0.0554646157 -0.08445855717)
(-0.2450447779 0.0555257231 -0.08901671111)
(-0.1872138078 0.05724452284 -0.09151151607)
(-0.1304791097 0.06075555479 -0.09120731264)
(-0.07737667592 0.06470558092 -0.08746944098)
(-0.03177208223 0.07068430164 -0.07995700159)
(-0.03933024037 -0.2843498624 0.1267336705)
(-0.08349645956 -0.1941929378 0.1211659664)
(-0.1099528694 -0.06056988306 0.1502856506)
(-0.1475299031 -0.1239026958 0.1226571752)
(-0.2100320933 -0.1167001707 0.1096113878)
(-0.2383451567 -0.191319949 0.08397698167)
(-0.2761389378 -0.2309049323 0.05800239642)
(-0.3020981509 -0.2467191459 0.04789529672)
(-0.3203552332 -0.2526279507 0.05135179396)
(-0.3391586201 -0.247378999 0.05611330445)
(-0.301002223 -0.2300036836 0.03857642129)
(-0.3192047614 -0.05759027561 0.02362308742)
(-0.3770674724 -0.0361066669 -0.00219789962)
(-0.3999617666 0.03571092127 -0.01479031171)
(-0.4201832165 0.06470418717 -0.02639324646)
(-0.4275170435 0.08819299951 -0.03540211499)
(-0.4248637087 0.1025575821 -0.04292864296)
(-0.4107987352 0.10967177 -0.04969672887)
(-0.3845138796 0.1111127981 -0.05615653322)
(-0.345717315 0.1093354481 -0.06247144638)
(-0.2958090165 0.1079471812 -0.06878633621)
(-0.2395970622 0.1105296431 -0.07478070036)
(-0.1822965713 0.1152912644 -0.07843478265)
(-0.1277232025 0.121973053 -0.07909236643)
(-0.07838753046 0.1263189736 -0.07563773451)
(-0.03825213434 0.1313278701 -0.06827851998)
(-0.03834211288 -0.4550676266 0.1274533576)
(-0.08095796356 -0.376714692 0.1068147847)
(-0.1116432876 -0.3049526752 0.1218172646)
(-0.1368391563 -0.2794407206 0.1113861056)
(-0.2002392193 -0.2688429397 0.09449041278)
(-0.2442701702 -0.2879464138 0.05595895354)
(-0.2916252975 -0.2972869485 0.02668394658)
(-0.3322874917 -0.2900580455 0.02151641382)
(-0.3550699803 -0.2807789478 0.04418245806)
(-0.3518027515 -0.2931871586 0.0843059331)
(-0.1505553855 -0.2977388169 0.06612766534)
(-0.1705157187 -0.0340666819 0.06675889543)
(-0.3064569973 0.0108362005 0.03482617577)
(-0.3154563373 0.07357204455 0.01115793652)
(-0.3812884406 0.1039720732 -0.00491230988)
(-0.3986832847 0.1272219577 -0.01518935956)
(-0.4068603975 0.1409453722 -0.02301708784)
(-0.4001508285 0.1463000986 -0.02979666122)
(-0.3783259603 0.1446519204 -0.0363803874)
(-0.3403952707 0.139062091 -0.0429657417)
(-0.2875388173 0.1360591738 -0.04968270514)
(-0.228416629 0.1462617856 -0.05678339625)
(-0.1714676591 0.1561457218 -0.06018867222)
(-0.1211339455 0.1702758757 -0.0605163237)
(-0.07886280209 0.1769240757 -0.0562450597)
(-0.04933162946 0.1838332289 -0.04893118677)
(-0.02537233643 -0.5398897604 0.1392015139)
(-0.05129774513 -0.426919552 0.101046886)
(-0.1094616631 -0.3528029405 0.09404752485)
(-0.1516395847 -0.3257487117 0.08534437119)
(-0.2107750597 -0.3192091514 0.0638994447)
(-0.2546265919 -0.3330842413 0.03152757912)
(-0.2923775913 -0.3550440097 0.004808593597)
(-0.3291103794 -0.3972931292 -0.005616063879)
(-0.374848047 -0.512509318 0.001657072953)
(-0.404555725 -0.9285098009 -0.006459305954)
(-0.06284645534 -0.7501079038 -0.08773808661)
(-0.05373739714 -0.06220737396 0.08434800677)
(-0.2521918398 -0.0789840786 0.04575371638)
(-0.2900405437 0.09600872137 0.0360344902)
(-0.3525321558 0.1118419658 0.02045041519)
(-0.3784035274 0.1478726064 0.01086470466)
(-0.3946368716 0.1602124626 0.003806453663)
(-0.3950287288 0.1618373742 -0.001805010278)
(-0.3778290282 0.1539775182 -0.007037505321)
(-0.3387740304 0.14121918 -0.01265028192)
(-0.2734383515 0.1339102894 -0.02012096157)
(-0.206150463 0.1511946951 -0.03394506222)
(-0.1520201956 0.1681845373 -0.03528158304)
(-0.1058662573 0.1925959636 -0.03295213588)
(-0.07347477871 0.1948485213 -0.02655792001)
(-0.05102801865 0.209102382 -0.02166118678)
(-0.01928952309 -0.7077067603 0.1585145193)
(-0.02674988823 -0.5292163759 0.1153993605)
(-0.09164217005 -0.4353018605 0.09707561967)
(-0.1353569427 -0.379660571 0.08002431734)
(-0.2068177388 -0.3569163333 0.05594691873)
(-0.2808008519 -0.3392996423 0.02919266857)
(-0.3923539412 -0.3034369654 0.01941304357)
(-0.5987008429 -0.2321964325 0.04097210914)
(-1.083923795 -0.1466924432 0.04856227644)
(-0.81852226 -0.1561697947 -0.5446624936)
(0.4375266238 -0.1172216323 -0.8592494333)
(0.6096923109 -0.01238831982 0.1309162468)
(-0.1210157915 0.07699386604 0.1076601956)
(-0.1145116413 0.09856152876 0.07862890929)
(-0.3258703219 0.1219334798 0.05365635331)
(-0.343674925 0.1350321404 0.04458614724)
(-0.3839786664 0.1398817731 0.03798784489)
(-0.3930329321 0.1332976652 0.03242371493)
(-0.3818656756 0.1125211232 0.02473079834)
(-0.3407922512 0.08037436267 0.01410406024)
(-0.2590329656 0.06037410241 0.006524299747)
(-0.1796367875 0.1224676896 0.004678008644)
(-0.1276527449 0.1464784922 0.007037929232)
(-0.09463467532 0.1903805957 0.008388442919)
(-0.06949354309 0.2029426823 0.01598927421)
(-0.08381802842 0.2093774205 0.01584205393)
(-0.02223890155 -0.8997182197 0.1468226437)
(-0.005081742617 -0.6478699783 0.1266036354)
(-0.06871793953 -0.5053409948 0.1111650719)
(-0.1011515738 -0.4238398814 0.09048204171)
(-0.1606728124 -0.3817128903 0.06246672626)
(-0.194990669 -0.3422000986 0.02963315132)
(-0.2113068546 -0.2683815394 0.006847757473)
(-0.2146516271 -0.1208394834 -0.002590479342)
(-0.2174613612 0.1357726662 0.01061847266)
(-0.2710965779 0.7286536753 0.01938496586)
(-0.1360922903 0.6795371624 -0.055391519)
(-0.09599814369 0.1210586981 0.04637459719)
(-0.2043732475 0.2186109941 0.09367693817)
(-0.265926742 0.09737266841 0.08648810401)
(-0.3253492764 0.1123976789 0.08579812929)
(-0.3625095322 0.09707057303 0.08378154737)
(-0.3923064708 0.09168634581 0.08120586989)
(-0.410940764 0.07711463927 0.06425026818)
(-0.4062071407 0.04701019045 0.005344957593)
(-0.3461589121 0.001103443727 -0.09835533765)
(-0.201794783 -0.03235181451 -0.1339732335)
(-0.08728523311 0.02350089057 0.04641851118)
(-0.0819243984 0.06144083392 0.06854018101)
(-0.04142626948 0.1199938939 0.063339956)
(-0.05345437257 0.1010757243 0.06531370559)
(-0.05318756257 0.1180174804 0.06499487232)
(-0.0242202081 -1.080070927 0.08110203907)
(0.009730601226 -0.7930030526 0.1161683823)
(-0.04426554376 -0.6025787086 0.1271614004)
(-0.06286168487 -0.4943642505 0.11408798)
(-0.1193653244 -0.4302293101 0.08803418863)
(-0.1541469059 -0.3857367548 0.04842487912)
(-0.1803162808 -0.3306350694 0.02091123921)
(-0.2231954985 -0.2462162344 0.02121984688)
(-0.2506526781 -0.1672540719 0.06583716332)
(-0.2386795798 -0.03954579423 0.1308216507)
(-0.06413707472 0.1084406775 0.121171047)
(-0.1012114563 0.04851293921 0.1378173707)
(-0.2550882023 0.04851862856 0.1186729908)
(-0.2651133879 0.0237049086 0.1073537533)
(-0.3388026306 0.007973157657 0.09738283313)
(-0.3657204493 -0.004522919791 0.09076436604)
(-0.3907764161 -0.01282448829 0.08009661516)
(-0.4019318599 -0.01869689567 0.05743437446)
(-0.3909711578 -0.02212562524 0.01047425535)
(-0.3386247905 -0.02300258913 -0.06434050154)
(-0.2252824787 -0.02743701593 -0.1253618975)
(-0.1207567435 -0.07534426286 -0.02461156119)
(-0.0698393578 -0.04654496334 0.00909258612)
(-0.04554573372 0.02094164645 0.1135909322)
(-0.06483402837 0.06215430454 0.1585337041)
(-0.3112577054 0.007464689541 0.1273662341)
(-0.009814785108 -1.208552266 -0.04473467018)
(0.03230971675 -0.9355245315 0.06995199738)
(-0.005209555504 -0.724218742 0.1327849469)
(-0.01695808027 -0.5978934867 0.1440232252)
(-0.07403585126 -0.5083672027 0.1212943821)
(-0.09985681464 -0.447269754 0.06600405148)
(-0.1012994299 -0.3675030109 0.02346376019)
(-0.1090475262 -0.2468065681 0.02022256901)
(-0.134855047 -0.1653663299 0.04533507771)
(-0.1506069459 -0.07655955284 0.09281392456)
(-0.145497109 0.03273209858 0.1228974876)
(-0.1758816909 -0.04793383535 0.1082252401)
(-0.2344292636 -0.01400726651 0.08261171322)
(-0.2716322374 -0.05974606893 0.06166578032)
(-0.3082579157 -0.06315186492 0.04938815653)
(-0.3407862245 -0.06663552851 0.04004719223)
(-0.3675711468 -0.06642949997 0.02998173246)
(-0.381658983 -0.06666806954 0.01566966374)
(-0.3727400959 -0.0693529391 -0.003723797484)
(-0.328244198 -0.07353955548 -0.02560026007)
(-0.2435998101 -0.08289068128 -0.04491521296)
(-0.1463181633 -0.1313919167 -0.05571229365)
(-0.06928975631 -0.1367232044 -0.02686753777)
(-0.01214967893 -0.1497074994 0.1080566602)
(-0.05957727821 -0.0585457993 0.1543340312)
(0.02657918179 -1.268317096 -0.2231064964)
(0.08546702198 -1.04725585 -0.02881284815)
(0.06701863999 -0.8502283838 0.1090393342)
(0.04307436971 -0.7196356463 0.1709540152)
(-0.0398523245 -0.612048617 0.1445385125)
(-0.06310640383 -0.5399227832 0.05085947264)
(-0.05213327369 -0.4404321843 -0.01106648249)
(-0.04113604431 -0.297956881 0.03201448432)
(-0.09100720778 -0.2673600697 0.07062233993)
(-0.1345159023 -0.248149269 0.1053943471)
(-0.1560801394 -0.1724892478 0.1225702074)
(-0.1865854021 -0.1163882254 0.1029652644)
(-0.2348935496 -0.09111319339 0.07055484355)