/*--------------------------------*- C++ -*----------------------------------*\
  =========                 |
  \\      /  F ield         | OpenFOAM: The Open Source CFD Toolbox
   \\    /   O peration     | Website:  https://openfoam.org
    \\  /    A nd           | Version:  8
     \\/     M anipulation  |
\*---------------------------------------------------------------------------*/
FoamFile
{
    version     2.0;
    format      ascii;
    class       volScalarField;
    location    "1.1";
    object      N2;
}
// * * * * * * * * * * * * * * * * * * * * * * * * * * * * * * * * * * * * * //

dimensions      [0 0 0 0 0 0 0];

internalField   nonuniform List<scalar> 
67193
(
0.7899999479
0.7900002819
0.790000538
0.7900006396
0.7900003101
0.7899999497
0.7899995463
0.7899991778
0.7899989338
0.789998871
0.7899989507
0.7899990789
0.7899991991
0.7899992799
0.7899993312
0.7899993532
0.7899993285
0.7899992432
0.7899990951
0.78999889
0.7899986396
0.7899983596
0.7899980665
0.7899977755
0.7899974969
0.789997236
0.7899969943
0.7899967712
0.7899965667
0.7899963813
0.7899962162
0.7899960675
0.789995888
0.7899955356
0.790000637
0.7900008873
0.7900010495
0.790001011
0.7900008917
0.7900007064
0.7900004448
0.7900001613
0.7899998951
0.789999756
0.7899997837
0.7899998965
0.7900000161
0.7900000963
0.7900001551
0.7900001923
0.7900001869
0.7900001235
0.7899999973
0.7899998093
0.7899995633
0.7899992664
0.7899989291
0.7899985646
0.7899981864
0.7899978105
0.7899974567
0.7899971412
0.7899968661
0.7899966206
0.7899963955
0.789996191
0.7899959798
0.7899956238
0.7900010322
0.7900012399
0.7900013411
0.7900012148
0.7900011165
0.7900009504
0.790000717
0.7900005838
0.7900004132
0.7900002903
0.7900002936
0.7900003804
0.7900004868
0.7900005556
0.7900006115
0.7900006525
0.7900006537
0.7900006
0.7900004891
0.7900003227
0.7900001009
0.7899998239
0.7899994946
0.7899991198
0.7899987099
0.7899982832
0.7899978709
0.789997504
0.7899971907
0.7899969128
0.7899966471
0.7899963859
0.7899961178
0.7899957558
0.7900013168
0.7900015119
0.790001567
0.7900013572
0.7900011674
0.7900009099
0.7900005106
0.7900006205
0.7900006122
0.7900005754
0.790000594
0.7900006665
0.7900007755
0.7900008426
0.7900008923
0.7900009287
0.7900009288
0.7900008784
0.7900007764
0.7900006268
0.7900004299
0.7900001808
0.7899998734
0.7899995048
0.7899990807
0.789998623
0.7899981752
0.7899977827
0.789997458
0.7899971779
0.7899969091
0.7899966292
0.7899963206
0.7899959347
0.7900014646
0.790001641
0.7900016279
0.7900013512
0.7900009899
0.79000068
0.7899996523
0.7900003742
0.7900005887
0.7900006895
0.7900007615
0.7900008418
0.7900009794
0.7900010585
0.7900010964
0.790001116
0.7900011047
0.79000105
0.7900009499
0.7900008092
0.790000632
0.7900004111
0.7900001354
0.7899997877
0.789999361
0.7899988764
0.7899983936
0.7899979786
0.7899976501
0.7899973804
0.7899971309
0.7899968685
0.7899965587
0.7899961638
0.7900014474
0.790001575
0.790001496
0.7900011871
0.7900005611
0.7900002896
0.7899973313
0.7899997681
0.7900003569
0.790000667
0.7900008402
0.7900009565
0.7900011424
0.7900012444
0.7900012673
0.7900012625
0.7900012333
0.7900011695
0.7900010652
0.790000922
0.7900007469
0.7900005454
0.7900003037
0.7899999904
0.7899995799
0.7899990802
0.7899985611
0.7899981156
0.7899977771
0.7899975149
0.7899972864
0.7899970534
0.7899967674
0.7899963805
0.7900012507
0.7900013499
0.7900012833
0.7900010144
0.7900003502
0.789999661
0.7899946773
0.789998838
0.7899999663
0.7900005705
0.7900008821
0.790001053
0.7900012897
0.7900014156
0.7900014288
0.7900013966
0.7900013415
0.7900012605
0.7900011469
0.7900009981
0.7900008179
0.7900006149
0.7900003917
0.7900001155
0.7899997375
0.7899992443
0.7899986985
0.7899982163
0.7899978565
0.7899975922
0.7899973749
0.7899971619
0.7899968966
0.7899965205
0.7900009819
0.7900011403
0.7900012432
0.7900012882
0.7900013803
0.79000177
0.7900036382
0.7900002623
0.7900002651
0.7900007023
0.790000994
0.7900011733
0.7900014223
0.7900015699
0.7900015792
0.790001522
0.790001436
0.7900013295
0.7900011991
0.7900010401
0.7900008525
0.7900006428
0.7900004185
0.790000166
0.7899998234
0.7899993562
0.7899988059
0.7899982921
0.7899979023
0.7899976241
0.7899974044
0.7899971921
0.789996924
0.7899965453
0.7900008538
0.7900011266
0.7900014189
0.7900017602
0.7900023103
0.7900032454
0.7900018438
0.7900011763
0.7900009503
0.7900010366
0.7900011898
0.7900013252
0.7900015483
0.7900016949
0.7900017021
0.7900016271
0.7900015123
0.7900013763
0.7900012224
0.7900010471
0.7900008483
0.7900006291
0.7900003962
0.7900001447
0.789999825
0.7899993899
0.7899988606
0.7899983379
0.7899979209
0.7899976188
0.7899973801
0.7899971434
0.7899968397
0.7899964335
0.7900008974
0.7900012172
0.7900015809
0.79000203
0.7900026754
0.7900035717
0.7900025227
0.7900016683
0.7900012876
0.7900012607
0.7900013542
0.7900014589
0.7900016377
0.7900017662
0.7900017716
0.7900016883
0.7900015536
0.7900013911
0.7900012117
0.7900010159
0.7900008013
0.7900005685
0.7900003204
0.7900000519
0.7899997259
0.7899993081
0.7899988164
0.789998323
0.7899979058
0.7899975818
0.7899973081
0.789997019
0.7899966461
0.7899961893
0.7900009293
0.7900011618
0.790001445
0.7900017202
0.7900020192
0.7900024681
0.7900020918
0.7900016562
0.7900014788
0.7900014796
0.7900015126
0.7900015621
0.7900016737
0.7900017652
0.790001763
0.7900016774
0.7900015338
0.7900013544
0.7900011546
0.7900009387
0.7900007056
0.7900004536
0.7900001788
0.7899998697
0.7899995004
0.7899990731
0.7899986214
0.7899981936
0.7899978239
0.7899975077
0.7899972025
0.789996846
0.7899963884
0.7899958852
0.7900008412
0.7900009075
0.7900011216
0.7900013739
0.7900015749
0.7900019448
0.7900016091
0.7900014566
0.7900014884
0.7900015519
0.7900015781
0.7900015919
0.7900016399
0.7900016825
0.7900016614
0.7900015712
0.7900014255
0.7900012407
0.7900010321
0.7900008039
0.7900005542
0.7900002753
0.7899999521
0.7899995694
0.789999139
0.7899987027
0.7899982991
0.7899979478
0.7899976449
0.7899973651
0.7899970605
0.7899966677
0.7899961593
0.7899956519
0.7900008138
0.7900008587
0.7900009664
0.7900012181
0.790001397
0.7900014794
0.7900013951
0.790001437
0.7900015282
0.790001577
0.7900015743
0.7900015541
0.7900015494
0.7900015358
0.7900014787
0.7900013706
0.7900012187
0.7900010359
0.7900008336
0.7900006083
0.7900003462
0.790000023
0.7899996208
0.7899991698
0.7899987274
0.7899983318
0.7899979893
0.7899976891
0.789997416
0.7899971515
0.7899968607
0.7899964873
0.7899960054
0.7899955427
0.7900008007
0.7900008685
0.7900007484
0.7900009559
0.7900011649
0.7900011143
0.7900012407
0.7900013591
0.7900014566
0.7900014949
0.7900014809
0.7900014358
0.7900013932
0.7900013292
0.7900012254
0.7900010834
0.7900009099
0.7900007323
0.790000554
0.7900003427
0.7900000452
0.7899996453
0.7899991991
0.7899987771
0.7899984079
0.7899980804
0.7899977748
0.7899974795
0.7899971918
0.7899969102
0.7899966219
0.7899962886
0.789995881
0.7899954947
0.7900008052
0.790000901
0.7900007572
0.790000718
0.7900009187
0.7900008537
0.7900011307
0.7900012562
0.7900013392
0.7900013452
0.7900013017
0.790001231
0.7900011512
0.7900010435
0.7900008918
0.7900007157
0.7900004762
0.7900002558
0.7900000714
0.7899998442
0.7899995215
0.7899991527
0.7899988114
0.7899985114
0.7899982248
0.7899979258
0.7899976108
0.7899972886
0.789996969
0.7899966605
0.7899963667
0.7899960675
0.7899957341
0.7899954344
0.7900007414
0.7900008476
0.7900007901
0.7900007099
0.790000785
0.7900009075
0.7900010424
0.7900011495
0.7900011977
0.7900011714
0.7900011034
0.7900010101
0.7900008911
0.790000743
0.7900005303
0.7900005581
0.7900002968
0.7899999159
0.7899995773
0.7899992951
0.7899990446
0.7899988324
0.7899986374
0.7899984126
0.7899981321
0.7899978027
0.7899974465
0.7899970857
0.7899967366
0.7899964044
0.7899960997
0.7899958203
0.7899955448
0.7899953267
0.790000333
0.7900004927
0.790000557
0.7900005955
0.7900006599
0.7900007728
0.7900009035
0.7900009977
0.790001014
0.7900009608
0.7900008761
0.7900007686
0.790000609
0.7900004255
0.7900002631
0.7900007784
0.7900005855
0.7900000694
0.7899995039
0.7899990864
0.7899988655
0.7899987514
0.7899986054
0.7899983652
0.7899980391
0.7899976596
0.789997261
0.7899968694
0.7899965042
0.7899961638
0.7899958483
0.7899955714
0.7899953388
0.7899951963
0.7900000925
0.7900001427
0.7900003395
0.7900004182
0.7900005057
0.7900006173
0.7900007376
0.7900007989
0.7900007853
0.7900007179
0.7900006243
0.7900005133
0.7900003117
0.7900002408
0.7900004039
0.7900008977
0.7900007848
0.7900003061
0.7899997017
0.7899991984
0.7899989156
0.7899987659
0.789998576
0.789998283
0.7899979061
0.7899974839
0.7899970549
0.789996646
0.789996298
0.7899960014
0.7899957026
0.7899954149
0.7899952166
0.7899951462
0.78999978
0.7899999268
0.7900000772
0.790000207
0.7900003176
0.7900004377
0.7900005348
0.7900005532
0.7900005157
0.790000444
0.7900003515
0.7900002365
0.7900000533
0.7900000324
0.79000024
0.7900003711
0.7900001713
0.7899997626
0.7899992981
0.7899990081
0.7899988677
0.789998717
0.7899984702
0.789998126
0.7899977139
0.7899972665
0.7899968271
0.7899964184
0.7899961546
0.789995999
0.7899957838
0.7899954913
0.7899952867
0.789995213
0.7899994178
0.7899996357
0.7899998561
0.7900000096
0.7900001161
0.7900002273
0.7900002876
0.7900002682
0.7900002114
0.7900001374
0.7900000499
0.7899999405
0.7899997593
0.7899996804
0.7899997882
0.7899998755
0.7899995368
0.7899991982
0.7899988833
0.7899987608
0.7899986601
0.789998471
0.7899981809
0.789997812
0.7899973926
0.7899969646
0.7899965797
0.789996217
0.7899961212
0.7899961362
0.7899960587
0.7899957995
0.7899955423
0.7899953952
0.7899994087
0.7899995517
0.7899997016
0.7899998092
0.7899998924
0.7899999756
0.789999995
0.7899999479
0.7899998766
0.7899997976
0.7899997146
0.789999617
0.7899994349
0.7899992785
0.7899992601
0.7899993416
0.789999004
0.7899987376
0.7899984552
0.7899984649
0.7899983672
0.7899981585
0.7899978722
0.7899975399
0.7899971847
0.7899968227
0.7899964663
0.7899961696
0.7899962209
0.7899963349
0.7899962979
0.7899961487
0.7899959197
0.7899957415
0.789999314
0.7899994203
0.7899994752
0.7899995451
0.7899996093
0.7899996606
0.7899996466
0.7899995831
0.7899995058
0.7899994235
0.7899993377
0.789999236
0.7899990474
0.7899988411
0.7899987267
0.7899987814
0.7899985304
0.7899983919
0.78999829
0.7899982019
0.7899980384
0.7899978157
0.7899975632
0.7899973036
0.7899970224
0.7899967163
0.7899964511
0.7899961736
0.7899962057
0.7899963958
0.7899963517
0.7899963945
0.7899963447
0.7899961969
0.7899989433
0.7899989968
0.7899990163
0.7899991216
0.7899991878
0.7899992221
0.7899991972
0.789999135
0.789999059
0.7899989691
0.7899988659
0.7899987359
0.7899985315
0.7899983197
0.7899981931
0.7899982324
0.7899981027
0.7899980179
0.7899979336
0.7899978209
0.7899976628
0.789997481
0.7899972905
0.7899970861
0.7899968505
0.7899965599
0.7899962001
0.7899957506
0.7899958287
0.7899957455
0.7899962664
0.789996645
0.7899967324
0.789996612
0.7899979481
0.7899977359
0.7899981441
0.7899983653
0.7899984758
0.7899985237
0.7899985197
0.7899984869
0.7899984342
0.7899983424
0.7899982162
0.7899980506
0.7899978457
0.7899976743
0.789997591
0.7899976487
0.7899976068
0.7899975429
0.7899975004
0.7899974182
0.7899972971
0.7899971572
0.7899970094
0.7899968337
0.7899965934
0.78999622
0.7899958197
0.7899957297
0.7899958977
0.7899960638
0.7899964673
0.7899969311
0.7899968276
0.7899968154
0.7899959422
0.7899953184
0.7899952406
0.7899959547
0.789996782
0.7899972041
0.7899973659
0.7899974048
0.7899974397
0.7899974778
0.789997428
0.7899973149
0.7899971478
0.789996971
0.7899968683
0.7899968236
0.7899969392
0.7899970015
0.7899970311
0.789997036
0.7899969951
0.7899969051
0.7899967784
0.7899966178
0.7899963727
0.7899961191
0.7899959906
0.7899960424
0.78999621
0.7899963782
0.7899964802
0.7899964397
0.7899964729
0.789996406
0.7899968833
0.7899946572
0.7899947608
0.7899953947
0.7899947176
0.7899947521
0.7899953149
0.7899956039
0.7899957162
0.7899959364
0.7899961846
0.7899962557
0.7899962329
0.7899961207
0.7899959765
0.7899959288
0.7899958749
0.7899960335
0.7899962454
0.7899963703
0.7899964675
0.7899964725
0.7899963536
0.789996216
0.7899961809
0.7899962674
0.7899963955
0.789996538
0.7899967021
0.7899968607
0.7899969743
0.7899968495
0.7899967372
0.7899965826
0.789996437
0.7899970643
0.7899943822
0.7899945392
0.7899941686
0.7899939449
0.7899942567
0.7899943846
0.7899945783
0.789995057
0.789995814
0.7899958246
0.7899958062
0.7899958129
0.7899958628
0.7899959523
0.7899959108
0.7899960088
0.7899958343
0.7899957776
0.789995874
0.789995986
0.7899961114
0.789996341
0.7899965038
0.789996673
0.7899968323
0.7899969725
0.7899971026
0.7899972378
0.7899973308
0.789997269
0.7899969662
0.789996725
0.7899965516
0.7899964842
0.7899971947
0.7899945381
0.7899943818
0.7899947316
0.7899945026
0.789994377
0.7899943485
0.7899944986
0.7899950533
0.7899961414
0.7899963987
0.7899963904
0.7899963469
0.7899962868
0.7899962919
0.7899964003
0.7899965218
0.7899963964
0.7899962841
0.7899962948
0.7899965227
0.7899967871
0.7899970398
0.7899971803
0.7899972916
0.7899974069
0.7899974883
0.7899975659
0.7899976559
0.7899976759
0.7899974142
0.7899970461
0.7899968062
0.7899966437
0.7899966252
0.789997292
0.7899943164
0.7899942923
0.7899943836
0.7899943966
0.789994407
0.7899945925
0.7899952469
0.7899964559
0.7899968313
0.7899968379
0.7899967556
0.7899966463
0.7899968283
0.7899967961
0.7899969851
0.7899968659
0.7899968372
0.7899969705
0.7899972007
0.7899974427
0.7899976584
0.7899977839
0.789997874
0.7899979768
0.789997971
0.7899979586
0.7899979871
0.7899979452
0.7899974951
0.7899971213
0.7899969047
0.7899967879
0.7899968109
0.7899973334
0.7899944413
0.7899944353
0.7899946232
0.7899946392
0.7899946434
0.7899948628
0.7899956649
0.7899968547
0.7899972104
0.7899972563
0.7899971691
0.7899970488
0.7899985789
0.789998471
0.7899983148
0.7899982402
0.7899981629
0.7899976269
0.7899972528
0.7899970596
0.7899969695
0.7899970051
0.7899973565
0.789994726
0.7899947844
0.7899948714
0.7899952677
0.7899963264
0.7899973157
0.7899992652
0.7899994995
0.7899996622
0.78999973
0.7899995385
0.7899993119
0.7899990705
0.7899988748
0.789998774
0.7899987785
0.7899988494
0.789998934
0.7899990045
0.7899990448
0.7899990557
0.7899990364
0.7899989796
0.7899988782
0.7899987304
0.789998541
0.7899983201
0.7899980808
0.7899978362
0.7899975956
0.7899973632
0.7899971383
0.789996919
0.7899967056
0.7899965024
0.7899963165
0.7899961538
0.7899960091
0.7899958278
0.7899954654
0.7899999312
0.7900000729
0.790000149
0.7900001786
0.7900001785
0.790000107
0.7899999875
0.7899998442
0.7899997172
0.7899996663
0.7899996972
0.789999764
0.7899998277
0.7899998651
0.7899998758
0.7899998597
0.7899998102
0.7899997199
0.7899995841
0.7899994013
0.7899991736
0.7899989069
0.7899986108
0.7899982951
0.7899979688
0.7899976406
0.7899973207
0.7899970179
0.7899967368
0.7899964805
0.7899962554
0.7899960659
0.7899958705
0.7899955091
0.7900003945
0.7900005477
0.7900006275
0.7900006458
0.790000636
0.7900005801
0.7900005
0.7900004158
0.7900003145
0.7900002511
0.7900002544
0.7900002967
0.7900003446
0.7900003707
0.7900003725
0.7900003498
0.7900002971
0.7900002084
0.7900000797
0.789999909
0.7899996955
0.7899994388
0.7899991414
0.7899988083
0.7899984471
0.78999807
0.7899976948
0.789997337
0.7899970017
0.7899966888
0.7899964046
0.7899961604
0.7899959321
0.7899955926
0.7900007408
0.7900008828
0.7900009458
0.79000096
0.7900009554
0.7900009252
0.7900008631
0.7900007964
0.790000707
0.7900006403
0.7900006272
0.7900006518
0.7900006897
0.7900007086
0.7900007019
0.7900006711
0.7900006124
0.7900005208
0.7900003927
0.7900002266
0.7900000233
0.7899997817
0.7899994968
0.7899991652
0.7899987902
0.7899983877
0.7899979837
0.7899975988
0.7899972363
0.7899968931
0.7899965762
0.7899963007
0.7899960509
0.7899957287
0.7900009405
0.7900010647
0.7900011191
0.7900011561
0.790001192
0.7900012376
0.790001336
0.7900011596
0.7900010109
0.7900009149
0.7900008834
0.7900008961
0.7900009311
0.790000949
0.7900009371
0.7900008995
0.7900008355
0.7900007398
0.790000609
0.7900004403
0.7900002353
0.7900000005
0.7899997286
0.7899994075
0.7899990296
0.7899986106
0.7899981877
0.7899977902
0.7899974202
0.7899970698
0.789996747
0.7899964709
0.789996227
0.7899959362
0.7900010045
0.7900011182
0.7900011908
0.7900012867
0.7900014416
0.7900014671
0.7900027359
0.7900017175
0.7900013159
0.7900011319
0.790001072
0.7900010757
0.7900011114
0.7900011332
0.7900011209
0.7900010746
0.7900009983
0.7900008917
0.7900007534
0.7900005824
0.7900003789
0.7900001423
0.789999873
0.7899995638
0.7899991928
0.7899987653
0.7899983267
0.7899979206
0.7899975519
0.7899972081
0.7899968941
0.7899966315
0.7899964064
0.7899961431
0.7900009851
0.790001112
0.7900012352
0.7900014149
0.7900018109
0.7900014916
0.7900072167
0.7900021498
0.7900015711
0.7900013111
0.790001222
0.7900012195
0.7900012547
0.7900012843
0.790001271
0.7900012141
0.7900011213
0.790000998
0.7900008459
0.7900006654
0.7900004574
0.7900002223
0.7899999551
0.7899996509
0.7899992932
0.7899988686
0.789998419
0.7899980025
0.7899976343
0.7899972993
0.7899969955
0.7899967419
0.7899965259
0.7899962752
0.7900009458
0.7900011107
0.7900012841
0.7900014776
0.7900017887
0.7900018592
0.7900058062
0.790002413
0.7900017147
0.7900014492
0.7900013523
0.7900013454
0.7900013791
0.7900014075
0.790001392
0.7900013246
0.790001214
0.79000107
0.7900008989
0.7900007031
0.7900004844
0.790000244
0.7899999794
0.7899996787
0.7899993355
0.7899989259
0.7899984755
0.789998048
0.7899976736
0.7899973402
0.789997038
0.7899967776
0.7899965476
0.7899962925
0.790000906
0.7900011074
0.7900012957
0.7900014637
0.7900016861
0.7900014974
0.7900021202
0.7900016804
0.7900015834
0.7900015022
0.7900014597
0.7900014547
0.7900014768
0.7900014988
0.7900014785
0.7900014019
0.7900012751
0.7900011102
0.7900009175
0.7900007022
0.7900004674
0.7900002157
0.7899999468
0.7899996519
0.7899993206
0.7899989353
0.7899985003
0.7899980706
0.7899976871
0.7899973468
0.7899970336
0.7899967441
0.7899964671
0.7899961818
0.7900008454
0.7900010595
0.7900012346
0.7900013936
0.7900015648
0.7900013775
0.7900017646
0.7900015924
0.7900015485
0.7900015382
0.7900015343
0.790001533
0.7900015412
0.79000155
0.7900015209
0.7900014354
0.7900012957
0.7900011128
0.7900009
0.7900006642
0.79000041
0.7900001413
0.7899998602
0.7899995621
0.7899992427
0.7899988861
0.7899984851
0.7899980756
0.7899976956
0.7899973487
0.7899970141
0.7899966711
0.7899963109
0.7899959648
0.7900008751
0.790001017
0.7900011588
0.7900013221
0.7900015045
0.7900014708
0.7900017105
0.7900016233
0.7900015713
0.7900015671
0.7900015804
0.790001578
0.7900015692
0.7900015566
0.7900015117
0.7900014149
0.790001264
0.7900010673
0.7900008396
0.7900005864
0.7900003127
0.7900000236
0.7899997233
0.7899994134
0.7899990963
0.7899987607
0.7899984023
0.789998039
0.7899976894
0.7899973503
0.7899969933
0.7899965838
0.7899961247
0.7899957137
0.7900008633
0.7900009699
0.7900010785
0.790001217
0.7900013863
0.7900014919
0.7900015882
0.7900015282
0.7900015154
0.7900015508
0.7900015852
0.7900015836
0.7900015573
0.7900015182
0.79000145
0.7900013362
0.7900011726
0.7900009649
0.7900007291
0.790000465
0.7900001759
0.7899998669
0.7899995448
0.7899992177
0.7899988889
0.789998558
0.7899982317
0.7899979169
0.789997612
0.7899972985
0.7899969358
0.7899964799
0.7899959533
0.7899955191
0.7900008438
0.7900009173
0.7900009847
0.7900010953
0.7900012205
0.7900013348
0.7900013888
0.7900013992
0.7900014488
0.7900015137
0.7900015536
0.7900015476
0.7900015051
0.7900014384
0.7900013414
0.7900012043
0.7900010245
0.7900008071
0.7900005687
0.790000301
0.7900000034
0.7899996802
0.7899993426
0.7899989974
0.7899986535
0.7899983216
0.7899980072
0.7899977094
0.7899974202
0.7899971194
0.7899967667
0.789996317
0.7899958022
0.7899954094
0.790000803
0.7900008485
0.790000864
0.7900009243
0.7900010183
0.7900011265
0.7900011778
0.7900012572
0.7900013538
0.7900014338
0.790001471
0.7900014573
0.7900014002
0.7900013083
0.7900011827
0.7900010219
0.7900008267
0.790000605
0.7900003638
0.7900000953
0.7899997965
0.7899994703
0.7899991268
0.7899987793
0.7899984362
0.7899980999
0.7899977706
0.7899974481
0.7899971307
0.7899968097
0.7899964628
0.7899960614
0.7899956367
0.7899953429
0.7900007067
0.790000761
0.7900007628
0.7900007813
0.7900008694
0.7900011288
0.7900010522
0.7900011329
0.7900012339
0.7900013043
0.7900013278
0.7900013007
0.7900012252
0.7900011118
0.7900009672
0.7900007932
0.7900005874
0.7900003588
0.7900001127
0.7899998439
0.7899995517
0.7899992461
0.7899989327
0.7899986059
0.7899982586
0.7899978935
0.7899975198
0.7899971472
0.7899967826
0.7899964277
0.7899960819
0.7899957433
0.789995442
0.7899952725
0.7900005027
0.7900006091
0.7900006162
0.7900006305
0.7900006877
0.7900008104
0.7900008802
0.7900009848
0.7900010764
0.7900011265
0.7900011259
0.7900010768
0.7900009891
0.7900008758
0.7900007409
0.7900005757
0.790000375
0.7900001317
0.7899998653
0.7899995983
0.7899993459
0.7899990982
0.7899988212
0.7899984888
0.7899981019
0.7899976787
0.789997245
0.7899968221
0.7899964176
0.789996039
0.7899957025
0.7899954308
0.7899952452
0.7899951797
0.7900002463
0.7900003426
0.7900004049
0.7900004446
0.7900005068
0.7900006058
0.7900006981
0.7900008022
0.7900008772
0.7900009053
0.7900008862
0.7900008256
0.7900007401
0.7900006718
0.7900006045
0.7900004873
0.7900003264
0.790000071
0.7899997738
0.7899995063
0.7899992781
0.7899990419
0.7899987478
0.7899983718
0.7899979234
0.7899974346
0.7899969446
0.7899964857
0.7899960727
0.7899957063
0.789995411
0.7899952132
0.7899951102
0.7899950973
0.789999782
0.7899999256
0.7900000831
0.7900002079
0.790000309
0.7900004066
0.7900004914
0.7900005773
0.7900006307
0.7900006423
0.7900006148
0.7900005603
0.790000508
0.7900005128
0.7900004841
0.7900003642
0.7900002383
0.7900000208
0.7899997286
0.7899994717
0.7899992396
0.7899989775
0.7899986391
0.7899982076
0.7899977015
0.7899971618
0.7899966369
0.7899961712
0.7899957843
0.7899954762
0.7899952646
0.7899951468
0.7899951077
0.7899951197
0.7899993929
0.7899995821
0.7899998006
0.7899999773
0.7900001089
0.7900001934
0.7900002503
0.7900003049
0.7900003346
0.790000335
0.7900003087
0.7900002694
0.7900002512
0.7900002915
0.7900002629
0.790000121
0.7899999676
0.7899998421
0.789999574
0.7899993469
0.7899991136
0.7899988219
0.789998438
0.7899979612
0.7899974208
0.7899968636
0.7899963431
0.7899959175
0.7899955938
0.7899953605
0.7899952324
0.7899952022
0.7899952441
0.7899952365
0.7899992324
0.7899993162
0.7899995867
0.789999776
0.789999897
0.7899999455
0.7899999672
0.7899999825
0.7899999871
0.7899999765
0.7899999516
0.7899999188
0.7899999023
0.7899999386
0.7899999132
0.7899997668
0.7899993163
0.7899993618
0.7899991318
0.7899989998
0.7899987929
0.7899984888
0.7899980866
0.7899976021
0.789997076
0.7899965596
0.7899961049
0.7899957703
0.7899955264
0.7899953686
0.7899952372
0.7899952908
0.7899953905
0.7899953495
0.7899991664
0.7899992552
0.7899994276
0.7899995711
0.7899996376
0.7899996443
0.7899996283
0.7899996055
0.7899995833
0.7899995577
0.7899995313
0.7899995008
0.7899994697
0.7899994667
0.789999435
0.7899993286
0.7899990412
0.7899989064
0.7899983772
0.7899984719
0.7899983178
0.7899980093
0.7899976065
0.7899971636
0.7899967225
0.7899963197
0.7899959992
0.7899957308
0.7899955516
0.7899954572
0.7899952984
0.7899953168
0.7899954354
0.7899954638
0.7899989252
0.7899990372
0.7899991706
0.7899992647
0.789999289
0.7899992656
0.7899992182
0.7899991627
0.7899991102
0.7899990654
0.7899990345
0.7899990076
0.7899989626
0.7899989134
0.7899988596
0.7899987693
0.7899985624
0.7899984247
0.7899982638
0.7899980891
0.7899978166
0.7899974802
0.789997116
0.7899967617
0.7899964473
0.7899962045
0.7899959525
0.7899956103
0.789995434
0.7899954289
0.78999534
0.7899953745
0.789995452
0.789995591
0.7899984675
0.7899985635
0.7899986809
0.7899987738
0.7899987902
0.7899987571
0.7899986964
0.7899986263
0.789998557
0.7899984963
0.7899984549
0.7899984201
0.7899983613
0.7899982888
0.7899982197
0.7899981421
0.7899979969
0.7899978307
0.7899976671
0.789997474
0.7899972273
0.789996953
0.7899966846
0.7899964586
0.7899962596
0.789996049
0.7899957856
0.7899955547
0.7899954322
0.7899955199
0.7899954726
0.7899955682
0.7899955638
0.7899957167
0.7899975629
0.789997602
0.7899978132
0.7899979888
0.7899980376
0.7899980148
0.7899979657
0.7899979151
0.7899978632
0.7899978043
0.7899977539
0.7899977043
0.7899976348
0.7899975565
0.7899974845
0.7899974115
0.7899972905
0.7899970488
0.7899969943
0.7899968659
0.7899967007
0.7899965338
0.7899963932
0.7899962535
0.7899960691
0.7899958204
0.7899955921
0.789995549
0.7899956525
0.7899958157
0.7899957211
0.7899957958
0.7899957604
0.789995781
0.7899961499
0.7899959425
0.7899960446
0.7899964128
0.789996781
0.7899969226
0.7899969314
0.7899969053
0.789996916
0.7899969456
0.7899969354
0.7899969052
0.7899968561
0.7899967878
0.789996711
0.7899966399
0.7899966128
0.7899965754
0.7899965169
0.7899964746
0.789996413
0.7899963311
0.7899962218
0.7899960984
0.7899959374
0.7899957767
0.7899956952
0.7899957437
0.789995906
0.7899961289
0.7899962885
0.7899962546
0.7899961646
0.7899959222
0.7899957681
0.7899951277
0.7899950319
0.7899952134
0.7899951074
0.7899952531
0.7899955022
0.7899955183
0.789995531
0.7899956988
0.7899958785
0.7899959725
0.789996014
0.7899959946
0.7899959273
0.7899958366
0.7899957555
0.7899957697
0.7899958365
0.7899958634
0.7899959793
0.7899960103
0.7899959441
0.7899958421
0.7899958218
0.7899958613
0.7899959414
0.789996063
0.7899962522
0.7899964825
0.7899966712
0.7899967105
0.7899965609
0.7899962454
0.7899959416
0.7899957956
0.7899946361
0.7899944742
0.7899945742
0.789994574
0.789994618
0.7899946353
0.7899948045
0.7899952268
0.7899956615
0.7899956401
0.7899956257
0.7899956328
0.7899956704
0.7899957438
0.7899957611
0.7899958094
0.789995697
0.7899956822
0.789995697
0.7899957984
0.7899958795
0.7899959641
0.7899959391
0.7899960721
0.7899961994
0.789996348
0.7899965323
0.7899967593
0.7899969753
0.7899970603
0.789996965
0.7899966563
0.7899962522
0.7899959771
0.7899958984
0.7899944752
0.7899943575
0.7899944722
0.78999444
0.78999445
0.7899945172
0.7899948144
0.789995425
0.78999606
0.7899961351
0.7899961162
0.7899960608
0.7899960111
0.7899960503
0.7899961942
0.7899962364
0.7899961787
0.7899961575
0.789996162
0.7899962893
0.7899964365
0.7899965522
0.789996612
0.7899966802
0.7899967774
0.7899969085
0.7899970754
0.7899972606
0.7899973984
0.7899973749
0.7899971583
0.7899967597
0.7899963198
0.7899960954
0.7899960471
0.7899942209
0.7899943804
0.7899943161
0.7899943767
0.789994524
0.7899949662
0.7899957171
0.7899963393
0.7899965296
0.7899965292
0.7899964441
0.7899963753
0.7899964142
0.7899965879
0.7899966624
0.7899966742
0.789996751
0.7899968355
0.7899969924
0.7899971431
0.7899972617
0.7899973467
0.7899974128
0.7899974961
0.7899975796
0.7899976776
0.7899977628
0.789997777
0.7899976297
0.7899973323
0.7899968846
0.7899964867
0.7899962852
0.789996232
0.7899943029
0.7899943565
0.7899943698
0.7899944529
0.7899946455
0.7899952302
0.7899961016
0.789996554
0.7899968446
0.7899968964
0.7899968245
0.7899967807
0.7899982413
0.789998249
0.789998267
0.7899982521
0.789998134
0.7899978745
0.789997543
0.7899970907
0.7899967231
0.7899965296
0.7899964524
0.7899944104
0.7899945421
0.7899948606
0.7899956192
0.789996556
0.789996825
0.789998872
0.7899990881
0.7899992432
0.78999931
0.7899992003
0.7899990379
0.7899988884
0.7899987842
0.7899987453
0.7899987639
0.7899988106
0.7899988556
0.7899988844
0.7899988886
0.7899988668
0.7899988179
0.7899987381
0.7899986244
0.7899984775
0.7899983024
0.7899981075
0.7899979024
0.7899976952
0.7899974901
0.7899972869
0.7899970827
0.789996875
0.7899966654
0.7899964613
0.7899962729
0.7899961081
0.7899959603
0.7899957714
0.7899953996
0.7899996797
0.7899998484
0.7899999582
0.7900000134
0.7900000184
0.7899999609
0.7899998672
0.7899997573
0.7899996766
0.7899996493
0.7899996667
0.789999699
0.7899997235
0.7899997267
0.7899997051
0.789999657
0.7899995787
0.7899994662
0.7899993171
0.7899991316
0.7899989127
0.7899986666
0.7899984002
0.7899981195
0.7899978288
0.7899975322
0.7899972345
0.7899969416
0.7899966598
0.7899963993
0.7899961734
0.7899959869
0.7899957893
0.7899954132
0.7900002461
0.7900004073
0.7900005049
0.790000557
0.7900005791
0.7900005529
0.7900005058
0.7900004048
0.7900003175
0.790000266
0.7900002561
0.7900002672
0.7900002781
0.7900002729
0.7900002456
0.7900001934
0.7900001124
0.7899999986
0.7899998494
0.789999664
0.7899994434
0.7899991903
0.789998908
0.7899986003
0.7899982715
0.7899979276
0.7899975776
0.7899972289
0.7899968872
0.7899965616
0.7899962702
0.7899960291
0.7899958044
0.7899954506
0.790000659
0.79000081
0.790000897
0.790000952
0.7900009895
0.7900009826
0.7900010219
0.7900008749
0.7900007818
0.7900007123
0.7900006809
0.7900006746
0.7900006748
0.7900006632
0.7900006305
0.7900005733
0.7900004878
0.7900003705
0.7900002186
0.7900000316
0.7899998102
0.7899995557
0.7899992691
0.789998951
0.7899986038
0.7899982356
0.7899978581
0.789997479
0.7899971008
0.7899967311
0.7899963916
0.789996109
0.7899958641
0.7899955387
0.7900009213
0.7900010586
0.7900011423
0.7900012134
0.7900012912
0.7900012726
0.7900016189
0.7900012313
0.7900011315
0.7900010382
0.7900009872
0.7900009684
0.7900009625
0.7900009478
0.790000911
0.7900008483
0.790000757
0.7900006346
0.7900004778
0.7900002867
0.7900000616
0.7899998044
0.7899995156
0.7899991928
0.7899988358
0.7899984541
0.7899980631
0.7899976716
0.7899972791
0.7899968907
0.7899965309
0.789996235
0.7899959971
0.7899957306
0.7900010554
0.7900011828
0.7900012774
0.790001376
0.7900015419
0.7900014964
0.7900024596
0.7900015324
0.7900014425
0.7900012884
0.7900012132
0.7900011861
0.790001177
0.7900011614
0.790001121
0.7900010511
0.7900009506
0.790000819
0.7900006556
0.7900004597
0.7900002297
0.7899999669
0.7899996749
0.7899993501
0.7899989885
0.7899985986
0.7899982001
0.7899978052
0.7899974125
0.7899970254
0.7899966687
0.7899963809
0.789996162
0.7899959418
0.790001102
0.7900012339
0.7900013554
0.7900014824
0.790001739
0.7900017939
0.7900023657
0.7900020907
0.7900017624
0.7900014832
0.7900013817
0.7900013516
0.7900013397
0.790001325
0.7900012818
0.7900012027
0.7900010885
0.790000942
0.7900007654
0.7900005598
0.7900003256
0.7900000622
0.7899997655
0.78999944
0.7899990785
0.789998685
0.789998281
0.7899978843
0.7899974959
0.7899971181
0.7899967731
0.7899964956
0.7899962845
0.7899960785
0.790001106