/*--------------------------------*- C++ -*----------------------------------*\
  =========                 |
  \\      /  F ield         | OpenFOAM: The Open Source CFD Toolbox
   \\    /   O peration     | Website:  https://openfoam.org
    \\  /    A nd           | Version:  8
     \\/     M anipulation  |
\*---------------------------------------------------------------------------*/
FoamFile
{
    version     2.0;
    format      ascii;
    class       volScalarField;
    location    "1.1";
    object      O2;
}
// * * * * * * * * * * * * * * * * * * * * * * * * * * * * * * * * * * * * * //

dimensions      [0 0 0 0 0 0 0];

internalField   nonuniform List<scalar> 
67193
(
0.2100000521
0.2099997181
0.209999462
0.2099993604
0.2099996899
0.2100000503
0.2100004537
0.2100008222
0.2100010662
0.210001129
0.2100010493
0.2100009211
0.2100008009
0.2100007201
0.2100006688
0.2100006468
0.2100006715
0.2100007568
0.2100009049
0.21000111
0.2100013604
0.2100016404
0.2100019335
0.2100022245
0.2100025031
0.210002764
0.2100030057
0.2100032288
0.2100034333
0.2100036187
0.2100037838
0.2100039325
0.210004112
0.2100044644
0.209999363
0.2099991127
0.2099989505
0.209998989
0.2099991083
0.2099992936
0.2099995552
0.2099998387
0.2100001049
0.210000244
0.2100002163
0.2100001035
0.2099999839
0.2099999037
0.2099998449
0.2099998077
0.2099998131
0.2099998765
0.2100000027
0.2100001907
0.2100004367
0.2100007336
0.2100010709
0.2100014354
0.2100018136
0.2100021895
0.2100025433
0.2100028588
0.2100031339
0.2100033794
0.2100036045
0.210003809
0.2100040202
0.2100043762
0.2099989678
0.2099987601
0.2099986589
0.2099987852
0.2099988835
0.2099990496
0.209999283
0.2099994162
0.2099995868
0.2099997097
0.2099997064
0.2099996196
0.2099995132
0.2099994444
0.2099993885
0.2099993475
0.2099993463
0.2099994
0.2099995109
0.2099996773
0.2099998991
0.2100001761
0.2100005054
0.2100008802
0.2100012901
0.2100017168
0.2100021291
0.210002496
0.2100028093
0.2100030872
0.2100033529
0.2100036141
0.2100038822
0.2100042442
0.2099986832
0.2099984881
0.209998433
0.2099986428
0.2099988326
0.2099990901
0.2099994894
0.2099993795
0.2099993878
0.2099994246
0.209999406
0.2099993335
0.2099992245
0.2099991574
0.2099991077
0.2099990713
0.2099990712
0.2099991216
0.2099992236
0.2099993732
0.2099995701
0.2099998192
0.2100001266
0.2100004952
0.2100009193
0.210001377
0.2100018248
0.2100022173
0.210002542
0.2100028221
0.2100030909
0.2100033708
0.2100036794
0.2100040653
0.2099985354
0.209998359
0.2099983721
0.2099986488
0.2099990101
0.20999932
0.2100003477
0.2099996258
0.2099994113
0.2099993105
0.2099992385
0.2099991582
0.2099990206
0.2099989415
0.2099989036
0.209998884
0.2099988953
0.20999895
0.2099990501
0.2099991908
0.209999368
0.2099995889
0.2099998646
0.2100002123
0.210000639
0.2100011236
0.2100016064
0.2100020214
0.2100023499
0.2100026196
0.2100028691
0.2100031315
0.2100034413
0.2100038362
0.2099985526
0.209998425
0.209998504
0.2099988129
0.2099994389
0.2099997104
0.2100026687
0.2100002319
0.2099996431
0.209999333
0.2099991598
0.2099990435
0.2099988576
0.2099987556
0.2099987327
0.2099987375
0.2099987667
0.2099988305
0.2099989348
0.209999078
0.2099992531
0.2099994546
0.2099996963
0.2100000096
0.2100004201
0.2100009198
0.2100014389
0.2100018844
0.2100022229
0.2100024851
0.2100027136
0.2100029466
0.2100032326
0.2100036195
0.2099987493
0.2099986501
0.2099987167
0.2099989856
0.2099996498
0.210000339
0.2100053227
0.210001162
0.2100000337
0.2099994295
0.2099991179
0.209998947
0.2099987103
0.2099985844
0.2099985712
0.2099986034
0.2099986585
0.2099987395
0.2099988531
0.2099990019
0.2099991821
0.2099993851
0.2099996083
0.2099998845
0.2100002625
0.2100007557
0.2100013015
0.2100017837
0.2100021435
0.2100024078
0.2100026251
0.2100028381
0.2100031034
0.2100034795
0.2099990181
0.2099988597
0.2099987568
0.2099987118
0.2099986197
0.20999823
0.2099963618
0.2099997377
0.2099997349
0.2099992977
0.209999006
0.2099988267
0.2099985777
0.2099984301
0.2099984208
0.209998478
0.209998564
0.2099986705
0.2099988009
0.2099989599
0.2099991475
0.2099993572
0.2099995815
0.209999834
0.2100001766
0.2100006438
0.2100011941
0.2100017079
0.2100020977
0.2100023759
0.2100025956
0.2100028079
0.210003076
0.2100034547
0.2099991462
0.2099988734
0.2099985811
0.2099982398
0.2099976897
0.2099967546
0.2099981562
0.2099988237
0.2099990497
0.2099989634
0.2099988102
0.2099986748
0.2099984517
0.2099983051
0.2099982979
0.2099983729
0.2099984877
0.2099986237
0.2099987776
0.2099989529
0.2099991517
0.2099993709
0.2099996038
0.2099998553
0.210000175
0.2100006101
0.2100011394
0.2100016621
0.2100020791
0.2100023812
0.2100026199
0.2100028566
0.2100031603
0.2100035665
0.2099991026
0.2099987828
0.2099984191
0.20999797
0.2099973246
0.2099964283
0.2099974773
0.2099983317
0.2099987124
0.2099987393
0.2099986458
0.2099985411
0.2099983623
0.2099982338
0.2099982284
0.2099983117
0.2099984464
0.2099986089
0.2099987883
0.2099989841
0.2099991987
0.2099994315
0.2099996796
0.2099999481
0.2100002741
0.2100006919
0.2100011836
0.210001677
0.2100020942
0.2100024182
0.2100026919
0.210002981
0.2100033539
0.2100038107
0.2099990707
0.2099988382
0.209998555
0.2099982798
0.2099979808
0.2099975319
0.2099979082
0.2099983438
0.2099985212
0.2099985204
0.2099984874
0.2099984379
0.2099983263
0.2099982348
0.209998237
0.2099983226
0.2099984662
0.2099986456
0.2099988454
0.2099990613
0.2099992944
0.2099995464
0.2099998212
0.2100001303
0.2100004996
0.2100009269
0.2100013786
0.2100018064
0.2100021761
0.2100024923
0.2100027975
0.210003154
0.2100036116
0.2100041148
0.2099991588
0.2099990925
0.2099988784
0.2099986261
0.2099984251
0.2099980552
0.2099983909
0.2099985434
0.2099985116
0.2099984481
0.2099984219
0.2099984081
0.2099983601
0.2099983175
0.2099983386
0.2099984288
0.2099985745
0.2099987593
0.2099989679
0.2099991961
0.2099994458
0.2099997247
0.2100000479
0.2100004306
0.210000861
0.2100012973
0.2100017009
0.2100020522
0.2100023551
0.2100026349
0.2100029395
0.2100033323
0.2100038407
0.2100043481
0.2099991862
0.2099991413
0.2099990336
0.2099987819
0.209998603
0.2099985206
0.2099986049
0.209998563
0.2099984718
0.209998423
0.2099984257
0.2099984459
0.2099984506
0.2099984642
0.2099985213
0.2099986294
0.2099987813
0.2099989641
0.2099991664
0.2099993917
0.2099996538
0.209999977
0.2100003792
0.2100008302
0.2100012726
0.2100016682
0.2100020107
0.2100023109
0.210002584
0.2100028485
0.2100031393
0.2100035127
0.2100039946
0.2100044573
0.2099991993
0.2099991315
0.2099992516
0.2099990441
0.2099988351
0.2099988857
0.2099987593
0.2099986409
0.2099985434
0.2099985051
0.2099985191
0.2099985642
0.2099986068
0.2099986708
0.2099987746
0.2099989166
0.2099990901
0.2099992677
0.209999446
0.2099996573
0.2099999548
0.2100003547
0.2100008009
0.2100012229
0.2100015921
0.2100019196
0.2100022252
0.2100025205
0.2100028082
0.2100030898
0.2100033781
0.2100037114
0.210004119
0.2100045053
0.2099991948
0.209999099
0.2099992428
0.209999282
0.2099990813
0.2099991463
0.2099988693
0.2099987438
0.2099986608
0.2099986548
0.2099986983
0.209998769
0.2099988488
0.2099989565
0.2099991082
0.2099992843
0.2099995238
0.2099997442
0.2099999286
0.2100001558
0.2100004785
0.2100008473
0.2100011886
0.2100014886
0.2100017752
0.2100020742
0.2100023892
0.2100027114
0.210003031
0.2100033395
0.2100036333
0.2100039325
0.2100042659
0.2100045656
0.2099992586
0.2099991524
0.2099992099
0.2099992901
0.209999215
0.2099990925
0.2099989576
0.2099988505
0.2099988023
0.2099988286
0.2099988966
0.2099989899
0.2099991089
0.209999257
0.2099994697
0.2099994419
0.2099997032
0.2100000841
0.2100004227
0.2100007049
0.2100009554
0.2100011676
0.2100013626
0.2100015874
0.2100018679
0.2100021973
0.2100025535
0.2100029143
0.2100032634
0.2100035956
0.2100039003
0.2100041797
0.2100044552
0.2100046733
0.209999667
0.2099995073
0.209999443
0.2099994045
0.2099993401
0.2099992272
0.2099990965
0.2099990023
0.209998986
0.2099990392
0.2099991239
0.2099992314
0.209999391
0.2099995745
0.2099997369
0.2099992216
0.2099994145
0.2099999306
0.2100004961
0.2100009136
0.2100011345
0.2100012486
0.2100013946
0.2100016348
0.2100019609
0.2100023404
0.210002739
0.2100031306
0.2100034958
0.2100038362
0.2100041517
0.2100044286
0.2100046612
0.2100048037
0.2099999075
0.2099998573
0.2099996605
0.2099995818
0.2099994943
0.2099993827
0.2099992624
0.2099992011
0.2099992147
0.2099992821
0.2099993757
0.2099994867
0.2099996883
0.2099997592
0.2099995961
0.2099991023
0.2099992152
0.2099996939
0.2100002983
0.2100008016
0.2100010844
0.2100012341
0.210001424
0.210001717
0.2100020939
0.2100025161
0.2100029451
0.210003354
0.210003702
0.2100039986
0.2100042974
0.2100045851
0.2100047834
0.2100048538
0.21000022
0.2100000732
0.2099999228
0.209999793
0.2099996824
0.2099995623
0.2099994652
0.2099994468
0.2099994843
0.209999556
0.2099996485
0.2099997635
0.2099999467
0.2099999676
0.20999976
0.2099996289
0.2099998287
0.2100002374
0.2100007019
0.2100009919
0.2100011323
0.210001283
0.2100015298
0.210001874
0.2100022861
0.2100027335
0.2100031729
0.2100035816
0.2100038454
0.210004001
0.2100042162
0.2100045087
0.2100047133
0.210004787
0.2100005822
0.2100003643
0.2100001439
0.2099999904
0.2099998839
0.2099997727
0.2099997124
0.2099997318
0.2099997886
0.2099998626
0.2099999501
0.2100000595
0.2100002407
0.2100003196
0.2100002118
0.2100001245
0.2100004632
0.2100008018
0.2100011167
0.2100012392
0.2100013399
0.210001529
0.2100018191
0.210002188
0.2100026074
0.2100030354
0.2100034203
0.210003783
0.2100038788
0.2100038638
0.2100039413
0.2100042005
0.2100044577
0.2100046048
0.2100005913
0.2100004483
0.2100002984
0.2100001908
0.2100001076
0.2100000244
0.210000005
0.2100000521
0.2100001234
0.2100002024
0.2100002854
0.210000383
0.2100005651
0.2100007215
0.2100007399
0.2100006584
0.210000996
0.2100012624
0.2100015448
0.2100015351
0.2100016328
0.2100018415
0.2100021278
0.2100024601
0.2100028153
0.2100031773
0.2100035337
0.2100038304
0.2100037791
0.2100036651
0.2100037021
0.2100038513
0.2100040803
0.2100042585
0.210000686
0.2100005797
0.2100005248
0.2100004549
0.2100003907
0.2100003394
0.2100003534
0.2100004169
0.2100004942
0.2100005765
0.2100006623
0.210000764
0.2100009526
0.2100011589
0.2100012733
0.2100012186
0.2100014696
0.2100016081
0.21000171
0.2100017981
0.2100019616
0.2100021843
0.2100024368
0.2100026964
0.2100029776
0.2100032837
0.2100035489
0.2100038264
0.2100037943
0.2100036042
0.2100036483
0.2100036055
0.2100036553
0.2100038031
0.2100010567
0.2100010032
0.2100009837
0.2100008784
0.2100008122
0.2100007779
0.2100008028
0.210000865
0.210000941
0.2100010309
0.2100011341
0.2100012641
0.2100014685
0.2100016803
0.2100018069
0.2100017676
0.2100018973
0.2100019821
0.2100020664
0.2100021791
0.2100023372
0.210002519
0.2100027095
0.2100029139
0.2100031495
0.2100034401
0.2100037999
0.2100042494
0.2100041713
0.2100042545
0.2100037336
0.210003355
0.2100032676
0.210003388
0.2100020519
0.2100022641
0.2100018559
0.2100016347
0.2100015242
0.2100014763
0.2100014803
0.2100015131
0.2100015658
0.2100016576
0.2100017838
0.2100019494
0.2100021543
0.2100023257
0.210002409
0.2100023513
0.2100023932
0.2100024571
0.2100024996
0.2100025818
0.2100027029
0.2100028428
0.2100029906
0.2100031663
0.2100034066
0.21000378
0.2100041803
0.2100042703
0.2100041023
0.2100039362
0.2100035327
0.2100030689
0.2100031724
0.2100031846
0.2100040578
0.2100046816
0.2100047594
0.2100040453
0.210003218
0.2100027959
0.2100026341
0.2100025952
0.2100025603
0.2100025222
0.210002572
0.2100026851
0.2100028522
0.210003029
0.2100031317
0.2100031764
0.2100030608
0.2100029985
0.2100029689
0.210002964
0.2100030049
0.2100030949
0.2100032216
0.2100033822
0.2100036273
0.2100038809
0.2100040094
0.2100039576
0.21000379
0.2100036218
0.2100035198
0.2100035603
0.2100035271
0.210003594
0.2100031167
0.2100053428
0.2100052392
0.2100046053
0.2100052824
0.2100052479
0.2100046851
0.2100043961
0.2100042838
0.2100040636
0.2100038154
0.2100037443
0.2100037671
0.2100038793
0.2100040235
0.2100040712
0.2100041251
0.2100039665
0.2100037546
0.2100036297
0.2100035325
0.2100035275
0.2100036464
0.210003784
0.2100038191
0.2100037326
0.2100036045
0.210003462
0.2100032979
0.2100031393
0.2100030257
0.2100031505
0.2100032628
0.2100034174
0.210003563
0.2100029357
0.2100056178
0.2100054608
0.2100058314
0.2100060551
0.2100057433
0.2100056154
0.2100054217
0.210004943
0.210004186
0.2100041754
0.2100041938
0.2100041871
0.2100041372
0.2100040477
0.2100040892
0.2100039912
0.2100041657
0.2100042224
0.210004126
0.210004014
0.2100038886
0.210003659
0.2100034962
0.210003327
0.2100031677
0.2100030275
0.2100028974
0.2100027622
0.2100026692
0.210002731
0.2100030338
0.210003275
0.2100034484
0.2100035158
0.2100028053
0.2100054619
0.2100056182
0.2100052684
0.2100054974
0.210005623
0.2100056515
0.2100055014
0.2100049467
0.2100038586
0.2100036013
0.2100036096
0.2100036531
0.2100037132
0.2100037081
0.2100035997
0.2100034782
0.2100036036
0.2100037159
0.2100037052
0.2100034773
0.2100032129
0.2100029602
0.2100028197
0.2100027084
0.2100025931
0.2100025117
0.2100024341
0.2100023441
0.2100023241
0.2100025858
0.2100029539
0.2100031938
0.2100033563
0.2100033748
0.210002708
0.2100056836
0.2100057077
0.2100056164
0.2100056034
0.210005593
0.2100054075
0.2100047531
0.2100035441
0.2100031687
0.2100031621
0.2100032444
0.2100033537
0.2100031717
0.2100032039
0.2100030149
0.2100031341
0.2100031628
0.2100030295
0.2100027993
0.2100025573
0.2100023416
0.2100022161
0.210002126
0.2100020232
0.210002029
0.2100020414
0.2100020129
0.2100020548
0.2100025049
0.2100028787
0.2100030953
0.2100032121
0.2100031891
0.2100026666
0.2100055587
0.2100055647
0.2100053768
0.2100053608
0.2100053566
0.2100051372
0.2100043351
0.2100031453
0.2100027896
0.2100027437
0.2100028309
0.2100029512
0.2100014211
0.210001529
0.2100016852
0.2100017598
0.2100018371
0.2100023731
0.2100027472
0.2100029404
0.2100030305
0.2100029949
0.2100026435
0.210005274
0.2100052156
0.2100051286
0.2100047323
0.2100036736
0.2100026843
0.2100007348
0.2100005005
0.2100003378
0.21000027
0.2100004615
0.2100006881
0.2100009295
0.2100011252
0.210001226
0.2100012215
0.2100011506
0.210001066
0.2100009955
0.2100009552
0.2100009443
0.2100009636
0.2100010204
0.2100011218
0.2100012696
0.210001459
0.2100016799
0.2100019192
0.2100021638
0.2100024044
0.2100026368
0.2100028617
0.210003081
0.2100032944
0.2100034976
0.2100036835
0.2100038462
0.2100039909
0.2100041722
0.2100045346
0.2100000688
0.2099999271
0.209999851
0.2099998214
0.2099998215
0.209999893
0.2100000125
0.2100001558
0.2100002828
0.2100003337
0.2100003028
0.210000236
0.2100001723
0.2100001349
0.2100001242
0.2100001403
0.2100001898
0.2100002801
0.2100004159
0.2100005987
0.2100008264
0.2100010931
0.2100013892
0.2100017049
0.2100020312
0.2100023594
0.2100026793
0.2100029821
0.2100032632
0.2100035195
0.2100037446
0.2100039341
0.2100041295
0.2100044909
0.2099996055
0.2099994523
0.2099993725
0.2099993542
0.209999364
0.2099994199
0.2099995
0.2099995842
0.2099996855
0.2099997489
0.2099997456
0.2099997033
0.2099996554
0.2099996293
0.2099996275
0.2099996502
0.2099997029
0.2099997916
0.2099999203
0.210000091
0.2100003045
0.2100005612
0.2100008586
0.2100011917
0.2100015529
0.21000193
0.2100023052
0.210002663
0.2100029983
0.2100033112
0.2100035954
0.2100038396
0.2100040679
0.2100044074
0.2099992592
0.2099991172
0.2099990542
0.20999904
0.2099990446
0.2099990748
0.2099991369
0.2099992036
0.209999293
0.2099993597
0.2099993728
0.2099993482
0.2099993103
0.2099992914
0.2099992981
0.2099993289
0.2099993876
0.2099994792
0.2099996073
0.2099997734
0.2099999767
0.2100002183
0.2100005032
0.2100008348
0.2100012098
0.2100016123
0.2100020163
0.2100024012
0.2100027637
0.2100031069
0.2100034238
0.2100036993
0.2100039491
0.2100042713
0.2099990595
0.2099989353
0.2099988809
0.2099988439
0.209998808
0.2099987624
0.209998664
0.2099988404
0.2099989891
0.2099990851
0.2099991166
0.2099991039
0.2099990689
0.209999051
0.2099990629
0.2099991005
0.2099991645
0.2099992602
0.209999391
0.2099995597
0.2099997647
0.2099999995
0.2100002714
0.2100005925
0.2100009704
0.2100013894
0.2100018123
0.2100022098
0.2100025798
0.2100029302
0.210003253
0.2100035291
0.210003773
0.2100040638
0.2099989955
0.2099988818
0.2099988092
0.2099987133
0.2099985584
0.2099985329
0.2099972641
0.2099982825
0.2099986841
0.2099988681
0.209998928
0.2099989243
0.2099988886
0.2099988668
0.2099988791
0.2099989254
0.2099990017
0.2099991083
0.2099992466
0.2099994176
0.2099996211
0.2099998577
0.210000127
0.2100004362
0.2100008072
0.2100012347
0.2100016733
0.2100020794
0.2100024481
0.2100027919
0.2100031059
0.2100033685
0.2100035936
0.2100038569
0.2099990149
0.209998888
0.2099987648
0.2099985851
0.2099981891
0.2099985084
0.2099927833
0.2099978502
0.2099984289
0.2099986889
0.209998778
0.2099987805
0.2099987453
0.2099987157
0.209998729
0.2099987859
0.2099988787
0.209999002
0.2099991541
0.2099993346
0.2099995426
0.2099997777
0.2100000449
0.2100003491
0.2100007068
0.2100011314
0.210001581
0.2100019975
0.2100023657
0.2100027007
0.2100030045
0.2100032581
0.2100034741
0.2100037248
0.2099990542
0.2099988893
0.2099987159
0.2099985224
0.2099982113
0.2099981408
0.2099941938
0.209997587
0.2099982853
0.2099985508
0.2099986477
0.2099986546
0.2099986209
0.2099985925
0.209998608
0.2099986754
0.209998786
0.20999893
0.2099991011
0.2099992969
0.2099995156
0.209999756
0.2100000206
0.2100003213
0.2100006645
0.2100010741
0.2100015245
0.210001952
0.2100023264
0.2100026598
0.210002962
0.2100032224
0.2100034524
0.2100037075
0.209999094
0.2099988926
0.2099987043
0.2099985363
0.2099983139
0.2099985026
0.2099978798
0.2099983196
0.2099984166
0.2099984978
0.2099985403
0.2099985453
0.2099985232
0.2099985012
0.2099985215
0.2099985981
0.2099987249
0.2099988898
0.2099990825
0.2099992978
0.2099995326
0.2099997843
0.2100000532
0.2100003481
0.2100006794
0.2100010647
0.2100014997
0.2100019294
0.2100023129
0.2100026532
0.2100029664
0.2100032559
0.2100035329
0.2100038182
0.2099991546
0.2099989405
0.2099987654
0.2099986064
0.2099984352
0.2099986225
0.2099982354
0.2099984076
0.2099984515
0.2099984618
0.2099984657
0.209998467
0.2099984588
0.20999845
0.2099984791
0.2099985646
0.2099987043
0.2099988872
0.2099991
0.2099993358
0.20999959
0.2099998587
0.2100001398
0.2100004379
0.2100007573
0.2100011139
0.2100015149
0.2100019244
0.2100023044
0.2100026513
0.2100029859
0.2100033289
0.2100036891
0.2100040352
0.2099991249
0.209998983
0.2099988412
0.2099986779
0.2099984955
0.2099985292
0.2099982895
0.2099983767
0.2099984287
0.2099984329
0.2099984196
0.209998422
0.2099984308
0.2099984434
0.2099984883
0.2099985851
0.209998736
0.2099989327
0.2099991604
0.2099994136
0.2099996873
0.2099999764
0.2100002767
0.2100005866
0.2100009037
0.2100012393
0.2100015977
0.210001961
0.2100023106
0.2100026497
0.2100030067
0.2100034162
0.2100038753
0.2100042863
0.2099991367
0.2099990301
0.2099989215
0.209998783
0.2099986137
0.2099985081
0.2099984118
0.2099984718
0.2099984846
0.2099984492
0.2099984148
0.2099984164
0.2099984427
0.2099984818
0.20999855
0.2099986638
0.2099988274
0.2099990351
0.2099992709
0.209999535
0.2099998241
0.2100001331
0.2100004552
0.2100007823
0.2100011111
0.210001442
0.2100017683
0.2100020831
0.210002388
0.2100027015
0.2100030642
0.2100035201
0.2100040467
0.2100044809
0.2099991562
0.2099990827
0.2099990153
0.2099989047
0.2099987795
0.2099986652
0.2099986112
0.2099986008
0.2099985512
0.2099984863
0.2099984464
0.2099984524
0.2099984949
0.2099985616
0.2099986586
0.2099987957
0.2099989755
0.2099991929
0.2099994313
0.209999699
0.2099999966
0.2100003198
0.2100006574
0.2100010026
0.2100013465
0.2100016784
0.2100019928
0.2100022906
0.2100025798
0.2100028806
0.2100032333
0.210003683
0.2100041978
0.2100045906
0.209999197
0.2099991515
0.209999136
0.2099990757
0.2099989817
0.2099988735
0.2099988222
0.2099987428
0.2099986462
0.2099985662
0.209998529
0.2099985427
0.2099985998
0.2099986917
0.2099988173
0.2099989781
0.2099991733
0.209999395
0.2099996362
0.2099999047
0.2100002035
0.2100005297
0.2100008732
0.2100012207
0.2100015638
0.2100019001
0.2100022294
0.2100025519
0.2100028693
0.2100031903
0.2100035372
0.2100039386
0.2100043633
0.2100046571
0.2099992933
0.209999239
0.2099992372
0.2099992187
0.2099991306
0.2099988712
0.2099989478
0.2099988671
0.2099987661
0.2099986957
0.2099986722
0.2099986993
0.2099987748
0.2099988882
0.2099990328
0.2099992068
0.2099994126
0.2099996412
0.2099998873
0.2100001561
0.2100004483
0.2100007539
0.2100010673
0.2100013941
0.2100017414
0.2100021065
0.2100024802
0.2100028528
0.2100032174
0.2100035723
0.2100039181
0.2100042567
0.210004558
0.2100047275
0.2099994973
0.2099993909
0.2099993838
0.2099993695
0.2099993123
0.2099991896
0.2099991198
0.2099990152
0.2099989236
0.2099988735
0.2099988741
0.2099989232
0.2099990109
0.2099991242
0.2099992591
0.2099994243
0.209999625
0.2099998683
0.2100001347
0.2100004017
0.2100006541
0.2100009018
0.2100011788
0.2100015112
0.2100018981
0.2100023213
0.210002755
0.2100031779
0.2100035824
0.210003961
0.2100042975
0.2100045692
0.2100047548
0.2100048203
0.2099997537
0.2099996574
0.2099995951
0.2099995554
0.2099994932
0.2099993942
0.2099993019
0.2099991978
0.2099991228
0.2099990947
0.2099991138
0.2099991744
0.2099992599
0.2099993282
0.2099993955
0.2099995127
0.2099996736
0.209999929
0.2100002262
0.2100004937
0.2100007219
0.2100009581
0.2100012522
0.2100016282
0.2100020766
0.2100025654
0.2100030554
0.2100035143
0.2100039273
0.2100042937
0.210004589
0.2100047868
0.2100048898
0.2100049027
0.210000218
0.2100000744
0.2099999169
0.2099997921
0.209999691
0.2099995934
0.2099995086
0.2099994227
0.2099993693
0.2099993577
0.2099993852
0.2099994397
0.209999492
0.2099994872
0.2099995159
0.2099996358
0.2099997617
0.2099999792
0.2100002714
0.2100005283
0.2100007604
0.2100010225
0.2100013609
0.2100017924
0.2100022985
0.2100028382
0.2100033631
0.2100038288
0.2100042157
0.2100045238
0.2100047354
0.2100048532
0.2100048923
0.2100048803
0.2100006071
0.2100004179
0.2100001994
0.2100000227
0.2099998911
0.2099998066
0.2099997497
0.2099996951
0.2099996654
0.209999665
0.2099996913
0.2099997306
0.2099997488
0.2099997085
0.2099997371
0.209999879
0.2100000324
0.2100001579
0.210000426
0.2100006531
0.2100008864
0.2100011781
0.210001562
0.2100020388
0.2100025792
0.2100031364
0.2100036569
0.2100040825
0.2100044062
0.2100046395
0.2100047676
0.2100047978
0.2100047559
0.2100047635
0.2100007676
0.2100006838
0.2100004133
0.210000224
0.210000103
0.2100000545
0.2100000328
0.2100000175
0.2100000129
0.2100000235
0.2100000484
0.2100000812
0.2100000977
0.2100000614
0.2100000868
0.2100002332
0.2100006837
0.2100006382
0.2100008682
0.2100010002
0.2100012071
0.2100015112
0.2100019134
0.2100023979
0.210002924
0.2100034404
0.2100038951
0.2100042297
0.2100044736
0.2100046314
0.2100047628
0.2100047092
0.2100046095
0.2100046505
0.2100008336
0.2100007448
0.2100005724
0.2100004289
0.2100003624
0.2100003557
0.2100003717
0.2100003945
0.2100004167
0.2100004423
0.2100004687
0.2100004992
0.2100005303
0.2100005333
0.210000565
0.2100006714
0.2100009588
0.2100010936
0.2100016228
0.2100015281
0.2100016822
0.2100019907
0.2100023935
0.2100028364
0.2100032775
0.2100036803
0.2100040008
0.2100042692
0.2100044484
0.2100045428
0.2100047016
0.2100046832
0.2100045646
0.2100045362
0.2100010748
0.2100009628
0.2100008294
0.2100007353
0.210000711
0.2100007344
0.2100007818
0.2100008373
0.2100008898
0.2100009346
0.2100009655
0.2100009924
0.2100010374
0.2100010866
0.2100011404
0.2100012307
0.2100014376
0.2100015753
0.2100017362
0.2100019109
0.2100021834
0.2100025198
0.210002884
0.2100032383
0.2100035527
0.2100037955
0.2100040475
0.2100043897
0.210004566
0.2100045711
0.21000466
0.2100046255
0.210004548
0.210004409
0.2100015325
0.2100014365
0.2100013191
0.2100012262
0.2100012098
0.2100012429
0.2100013036
0.2100013737
0.210001443
0.2100015037
0.2100015451
0.2100015799
0.2100016387
0.2100017112
0.2100017803
0.2100018579
0.2100020031
0.2100021693
0.2100023329
0.210002526
0.2100027727
0.210003047
0.2100033154
0.2100035414
0.2100037404
0.210003951
0.2100042144
0.2100044453
0.2100045678
0.2100044801
0.2100045274
0.2100044318
0.2100044362
0.2100042833
0.2100024371
0.210002398
0.2100021868
0.2100020112
0.2100019624
0.2100019852
0.2100020343
0.2100020849
0.2100021368
0.2100021957
0.2100022461
0.2100022957
0.2100023652
0.2100024435
0.2100025155
0.2100025885
0.2100027095
0.2100029512
0.2100030057
0.2100031341
0.2100032993
0.2100034662
0.2100036068
0.2100037465
0.2100039309
0.2100041796
0.2100044079
0.210004451
0.2100043475
0.2100041843
0.2100042789
0.2100042042
0.2100042396
0.210004219
0.2100038501
0.2100040575
0.2100039554
0.2100035872
0.210003219
0.2100030774
0.2100030686
0.2100030947
0.210003084
0.2100030544
0.2100030646
0.2100030948
0.2100031439
0.2100032122
0.210003289
0.2100033601
0.2100033872
0.2100034246
0.2100034831
0.2100035254
0.210003587
0.2100036689
0.2100037782
0.2100039016
0.2100040626
0.2100042233
0.2100043048
0.2100042563
0.210004094
0.2100038711
0.2100037115
0.2100037454
0.2100038354
0.2100040778
0.2100042319
0.2100048723
0.2100049681
0.2100047866
0.2100048926
0.2100047469
0.2100044978
0.2100044817
0.210004469
0.2100043012
0.2100041215
0.2100040275
0.210003986
0.2100040054
0.2100040727
0.2100041634
0.2100042445
0.2100042303
0.2100041635
0.2100041366
0.2100040207
0.2100039897
0.2100040559
0.2100041579
0.2100041782
0.2100041387
0.2100040586
0.210003937
0.2100037478
0.2100035175
0.2100033288
0.2100032895
0.2100034391
0.2100037546
0.2100040584
0.2100042044
0.2100053639
0.2100055258
0.2100054258
0.210005426
0.210005382
0.2100053647
0.2100051955
0.2100047732
0.2100043385
0.2100043599
0.2100043743
0.2100043672
0.2100043296
0.2100042562
0.2100042389
0.2100041906
0.210004303
0.2100043178
0.210004303
0.2100042016
0.2100041205
0.2100040359
0.2100040609
0.2100039279
0.2100038006
0.210003652
0.2100034677
0.2100032407
0.2100030247
0.2100029397
0.210003035
0.2100033437
0.2100037478
0.2100040229
0.2100041016
0.2100055248
0.2100056425
0.2100055278
0.21000556
0.21000555
0.2100054828
0.2100051856
0.210004575
0.21000394
0.2100038649
0.2100038838
0.2100039392
0.2100039889
0.2100039497
0.2100038058
0.2100037636
0.2100038213
0.2100038425
0.210003838
0.2100037107
0.2100035635
0.2100034478
0.210003388
0.2100033198
0.2100032226
0.2100030915
0.2100029246
0.2100027394
0.2100026016
0.2100026251
0.2100028417
0.2100032403
0.2100036802
0.2100039046
0.2100039529
0.2100057791
0.2100056196
0.2100056839
0.2100056233
0.210005476
0.2100050338
0.2100042829
0.2100036607
0.2100034704
0.2100034708
0.2100035559
0.2100036247
0.2100035858
0.2100034121
0.2100033376
0.2100033258
0.210003249
0.2100031645
0.2100030076
0.2100028569
0.2100027383
0.2100026533
0.2100025872
0.2100025039
0.2100024204
0.2100023224
0.2100022372
0.210002223
0.2100023703
0.2100026677
0.2100031154
0.2100035133
0.2100037148
0.210003768
0.2100056971
0.2100056435
0.2100056302
0.2100055471
0.2100053545
0.2100047698
0.2100038984
0.210003446
0.2100031554
0.2100031036
0.2100031755
0.2100032193
0.2100017587
0.210001751
0.210001733
0.2100017479
0.210001866
0.2100021255
0.210002457
0.2100029093
0.2100032769
0.2100034704
0.2100035476
0.2100055896
0.2100054579
0.2100051394
0.2100043808
0.210003444
0.210003175
0.210001128
0.2100009119
0.2100007568
0.21000069
0.2100007997
0.2100009621
0.2100011116
0.2100012158
0.2100012547
0.2100012361
0.2100011894
0.2100011444
0.2100011156
0.2100011114
0.2100011332
0.2100011821
0.2100012619
0.2100013756
0.2100015225
0.2100016976
0.2100018925
0.2100020976
0.2100023048
0.2100025099
0.2100027131
0.2100029173
0.210003125
0.2100033346
0.2100035387
0.2100037271
0.2100038919
0.2100040397
0.2100042286
0.2100046004
0.2100003203
0.2100001516
0.2100000418
0.2099999866
0.2099999816
0.2100000391
0.2100001328
0.2100002427
0.2100003234
0.2100003507
0.2100003333
0.210000301
0.2100002765
0.2100002733
0.2100002949
0.210000343
0.2100004213
0.2100005338
0.2100006829
0.2100008684
0.2100010873
0.2100013334
0.2100015998
0.2100018805
0.2100021712
0.2100024678
0.2100027655
0.2100030584
0.2100033402
0.2100036007
0.2100038266
0.2100040131
0.2100042107
0.2100045868
0.2099997539
0.2099995927
0.2099994951
0.209999443
0.2099994209
0.2099994471
0.2099994942
0.2099995952
0.2099996825
0.209999734
0.2099997439
0.2099997328
0.2099997219
0.2099997271
0.2099997544
0.2099998066
0.2099998876
0.2100000014
0.2100001506
0.210000336
0.2100005566
0.2100008097
0.210001092
0.2100013997
0.2100017285
0.2100020724
0.2100024224
0.2100027711
0.2100031128
0.2100034384
0.2100037298
0.2100039709
0.2100041956
0.2100045494
0.209999341
0.20999919
0.209999103
0.209999048
0.2099990105
0.2099990174
0.2099989781
0.2099991251
0.2099992182
0.2099992877
0.2099993191
0.2099993254
0.2099993252
0.2099993368
0.2099993695
0.2099994267
0.2099995122
0.2099996295
0.2099997814
0.2099999684
0.2100001898
0.2100004443
0.2100007309
0.210001049
0.2100013962
0.2100017644
0.2100021419
0.210002521
0.2100028992
0.2100032689
0.2100036084
0.210003891
0.2100041359
0.2100044613
0.2099990787
0.2099989414
0.2099988577
0.2099987866
0.2099987088
0.2099987274
0.2099983811
0.2099987687
0.2099988685
0.2099989618
0.2099990128
0.2099990316
0.2099990375
0.2099990522
0.209999089
0.2099991517
0.209999243
0.2099993654
0.2099995222
0.2099997133
0.2099999384
0.2100001956
0.2100004844
0.2100008072
0.2100011642
0.2100015459
0.2100019369
0.2100023284
0.2100027209
0.2100031093
0.2100034691
0.210003765
0.2100040029
0.2100042694
0.2099989446
0.2099988172
0.2099987226
0.209998624
0.2099984581
0.2099985036
0.2099975404
0.2099984676
0.2099985575
0.2099987116
0.2099987868
0.2099988139
0.209998823
0.2099988386
0.209998879
0.2099989489
0.2099990494
0.209999181
0.2099993444
0.2099995403
0.2099997703
0.2100000331
0.2100003251
0.2100006499
0.2100010115
0.2100014014
0.2100017999
0.2100021948
0.2100025875
0.2100029746
0.2100033313
0.2100036191
0.210003838
0.2100040582
0.209998898
0.2099987661
0.2099986446
0.2099985176
0.209998261
0.2099982061
0.2099976343
0.2099979093
0.2099982376
0.2099985168
0.2099986183
0.2099986484
0.2099986603
0.209998675
0.2099987182
0.2099987973
0.2099989115
0.209999058
0.2099992346
0.2099994402
0.2099996744
0.2099999378
0.2100002345
0.21000056
0.2100009215
0.210001315
0.210001719
0.2100021157
0.2100025041
0.2100028819
0.2100032269
0.2100035044
0.2100037155
0.2100039215
0.209998894