/*--------------------------------*- C++ -*----------------------------------*\
  =========                 |
  \\      /  F ield         | OpenFOAM: The Open Source CFD Toolbox
   \\    /   O peration     | Website:  https://openfoam.org
    \\  /    A nd           | Version:  8
     \\/     M anipulation  |
\*---------------------------------------------------------------------------*/
FoamFile
{
    version     2.0;
    format      ascii;
    class       volScalarField;
    location    "1.1";
    object      p;
}
// * * * * * * * * * * * * * * * * * * * * * * * * * * * * * * * * * * * * * //

dimensions      [1 -1 -2 0 0 0 0];

internalField   nonuniform List<scalar> 
67193
(
100004.2451
100004.2725
100004.285
100004.2851
100004.2874
100004.2791
100004.2584
100004.2215
100004.1805
100004.1403
100004.1043
100004.0736
100004.0485
100004.0271
100004.0078
100003.9904
100003.9741
100003.9573
100003.9389
100003.9192
100003.8993
100003.8808
100003.8656
100003.8545
100003.8481
100003.8463
100003.8484
100003.8539
100003.8621
100003.8726
100003.8846
100003.898
100003.9092
100003.9268
100004.0484
100004.0636
100004.0754
100004.0868
100004.104
100004.1137
100004.1196
100004.1006
100004.0768
100004.0497
100004.021
100003.993
100003.9674
100003.9436
100003.9209
100003.9
100003.8809
100003.8638
100003.8488
100003.8363
100003.8266
100003.82
100003.8164
100003.8154
100003.8167
100003.8201
100003.8256
100003.833
100003.8425
100003.8543
100003.8681
100003.884
100003.898
100003.9177
100003.9946
100004.0117
100004.0275
100004.0402
100004.0562
100004.0618
100004.0831
100004.0414
100004.0114
100003.9861
100003.9598
100003.9327
100003.9066
100003.8817
100003.8584
100003.8372
100003.8183
100003.802
100003.7889
100003.7794
100003.7743
100003.7735
100003.7765
100003.7821
100003.7891
100003.7968
100003.8051
100003.8145
100003.8257
100003.8392
100003.855
100003.8732
100003.8893
100003.9113
100003.9649
100003.9965
100004.0238
100004.0419
100004.0673
100004.0635
100004.1262
100004.0086
100003.9622
100003.9328
100003.906
100003.8782
100003.8505
100003.8248
100003.8018
100003.782
100003.7646
100003.7495
100003.737
100003.7281
100003.7243
100003.7263
100003.7335
100003.7445
100003.7572
100003.7698
100003.7815
100003.7932
100003.806
100003.821
100003.8387
100003.8591
100003.8774
100003.9031
100003.9617
100004.0112
100004.0587
100004.097
100004.1774
100004.1299
100004.2785
100003.9862
100003.9451
100003.9098
100003.8766
100003.8444
100003.8134
100003.7868
100003.7655
100003.7487
100003.7341
100003.7204
100003.7075
100003.6964
100003.69
100003.6906
100003.6984
100003.712
100003.7289
100003.7458
100003.761
100003.7747
100003.7887
100003.8048
100003.8237
100003.8458
100003.8662
100003.8968
100003.97
100004.0329
100004.1118
100004.2053
100004.4502
100004.3437
100005.0278
100003.9586
100003.9817
100003.9326
100003.8798
100003.8362
100003.799
100003.7716
100003.753
100003.7403
100003.7287
100003.7157
100003.7009
100003.6859
100003.6737
100003.6683
100003.6729
100003.6861
100003.705
100003.7254
100003.7438
100003.7595
100003.7745
100003.7912
100003.8107
100003.834
100003.856
100003.892
100003.9846
100004.0516
100004.158
100004.3392
100004.8012
100005.1149
100008.6408
100004.115
100004.1041
100004.0017
100003.9134
100003.8524
100003.8066
100003.7797
100003.7657
100003.7562
100003.7452
100003.7306
100003.7125
100003.6925
100003.6738
100003.6607
100003.6578
100003.6675
100003.6863
100003.7087
100003.7298
100003.7475
100003.7635
100003.7807
100003.8008
100003.8251
100003.8484
100003.8884
100004.0101
100004.0581
100004.1508
100004.3177
100004.6282
100004.7923
100005.6714
100004.1685
100004.0333
100003.9919
100003.9356
100003.8782
100003.8335
100003.8093
100003.7986
100003.7894
100003.7762
100003.7576
100003.7342
100003.7082
100003.6831
100003.6629
100003.6525
100003.6559
100003.6723
100003.695
100003.7178
100003.7376
100003.755
100003.7731
100003.794
100003.8192
100003.8437
100003.8854
100004.0475
100004.0652
100004.1366
100004.2893
100004.5147
100004.7169
100004.8143
100004.2778
100004.0283
100003.9726
100003.9436
100003.9038
100003.8682
100003.8507
100003.8421
100003.8309
100003.8131
100003.7884
100003.7583
100003.7258
100003.6945
100003.6686
100003.6525
100003.6503
100003.663
100003.6841
100003.7074
100003.729
100003.7484
100003.768
100003.7901
100003.8164
100003.8419
100003.8832
100004.0921
100004.089
100004.1456
100004.2933
100004.4963
100004.6392
100004.7315
100004.3201
100004.0842
100004.0121
100003.9747
100003.9375
100003.9077
100003.8949
100003.8861
100003.8707
100003.8464
100003.8145
100003.7774
100003.7387
100003.7025
100003.6728
100003.6538
100003.6489
100003.6583
100003.6769
100003.6991
100003.7215
100003.743
100003.7649
100003.7889
100003.8165
100003.8428
100003.8822
100004.107
100004.1085
100004.1376
100004.2308
100004.3436
100004.409
100004.3358
100004.1723
100004.0643
100004.0172
100003.9875
100003.9593
100003.9396
100003.9308
100003.9197
100003.8989
100003.8678
100003.8294
100003.7865
100003.7435
100003.7048
100003.6743
100003.6557
100003.6512
100003.6589
100003.6742
100003.6938
100003.7152
100003.7377
100003.7618
100003.7881
100003.8174
100003.8445
100003.8827
100004.1172
100004.1249
100004.1285
100004.1637
100004.209
100004.2416
100004.2103
100004.1261
100004.0616
100004.0228
100003.9954
100003.9745
100003.9612
100003.9524
100003.9372
100003.9108
100003.8743
100003.8314
100003.7849
100003.7406
100003.7032
100003.6762
100003.662
100003.6595
100003.6648
100003.6756
100003.6905
100003.7091
100003.7308
100003.7559
100003.784
100003.8153
100003.8438
100003.8833
100004.1269
100004.1392
100004.1297
100004.1269
100004.1268
100004.1523
100004.124
100004.0835
100004.0432
100004.0136
100003.9937
100003.9797
100003.9697
100003.959
100003.9405
100003.9115
100003.873
100003.8286
100003.7815
100003.7396
100003.7078
100003.6878
100003.6778
100003.6741
100003.6745
100003.6793
100003.6889
100003.7035
100003.7232
100003.7477
100003.7763
100003.8089
100003.8387
100003.8811
100004.1368
100004.1407
100004.1287
100004.12
100004.0794
100004.1525
100004.0719
100004.0459
100004.0199
100003.9988
100003.9848
100003.9762
100003.9693
100003.9607
100003.9459
100003.9224
100003.8867
100003.8413
100003.7949
100003.7566
100003.7303
100003.7132
100003.7012
100003.6921
100003.6864
100003.6856
100003.6906
100003.7017
100003.7186
100003.7411
100003.7684
100003.8005
100003.8304
100003.8752
100004.1503
100004.1401
100004.1065
100004.1083
100004.0633
100004.1789
100004.013
100004.0065
100003.9888
100003.9779
100003.9721
100003.9705
100003.9713
100003.9724
100003.9703
100003.9595
100003.924
100003.8766
100003.8296
100003.7912
100003.7634
100003.7423
100003.7248
100003.7104
100003.7004
100003.6963
100003.698
100003.7058
100003.7193
100003.7387
100003.7635
100003.7939
100003.8224
100003.8674
100004.1444
100004.1301
100004.066
100004.0356
100003.9914
100003.9423
100003.9425
100003.9476
100003.946
100003.9465
100003.9507
100003.96
100003.9743
100003.9935
100004.0089
100004.0098
100003.9714
100003.9143
100003.863
100003.8229
100003.7927
100003.7677
100003.7468
100003.73
100003.7183
100003.7119
100003.7107
100003.7149
100003.7249
100003.7407
100003.7624
100003.7911
100003.8179
100003.8624
100004.2216
100004.2219
100004.0226
100003.968
100003.9253
100003.9039
100003.8948
100003.895
100003.8993
100003.9079
100003.9212
100003.9429
100003.973
100004.0126
100004.0416
100004.0645
100004.0422
100003.9668
100003.8973
100003.8509
100003.8201
100003.7928
100003.7694
100003.7515
100003.7387
100003.7302
100003.7261
100003.7271
100003.7335
100003.7455
100003.7638
100003.7911
100003.8172
100003.861
100004.0305
100004.0002
100003.9247
100003.87
100003.8463
100003.8471
100003.8439
100003.8434
100003.8506
100003.864
100003.8834
100003.9151
100003.9568
100004.0065
100004.0634
100004.1247
100004.1278
100004.0285
100003.9357
100003.8748
100003.8412
100003.8145
100003.7903
100003.771
100003.7566
100003.7463
100003.7408
100003.7404
100003.7442
100003.7509
100003.7646
100003.7895
100003.8135
100003.8551
100003.9637
100003.9107
100003.8258
100003.784
100003.7808
100003.7929
100003.793
100003.7944
100003.8028
100003.8172
100003.838
100003.869
100003.9081
100003.9602
100004.0393
100004.1275
100004.145
100004.0477
100003.9698
100003.9064
100003.8605
100003.8263
100003.7993
100003.7787
100003.7636
100003.7544
100003.752
100003.7548
100003.7577
100003.7574
100003.7639
100003.7839
100003.8036
100003.8447
100003.8836
100003.7831
100003.7344
100003.7258
100003.7382
100003.7529
100003.7525
100003.7556
100003.7629
100003.7752
100003.7929
100003.819
100003.8518
100003.8956
100003.9654
100004.0503
100004.1058
100004.0374
100004.0023
100003.9327
100003.8782
100003.8381
100003.8078
100003.7854
100003.7701
100003.763
100003.7657
100003.772
100003.7758
100003.7727
100003.7708
100003.7834
100003.7997
100003.8441
100003.7277
100003.7019
100003.6972
100003.7087
100003.7245
100003.7335
100003.7333
100003.735
100003.7394
100003.7477
100003.7607
100003.7811
100003.8066
100003.8354
100003.8796
100003.9346
100003.9993
100003.9983
100004.0656
100003.9479
100003.8849
100003.8435
100003.8142
100003.7941
100003.7836
100003.7834
100003.7916
100003.7977
100003.8038
100003.813
100003.8041
100003.8029
100003.8111
100003.8584
100003.7266
100003.7235
100003.7276
100003.7331
100003.7404
100003.7416
100003.7383
100003.7365
100003.7368
100003.7409
100003.7496
100003.7651
100003.7853
100003.8085
100003.8388
100003.8755
100003.9372
100003.9489
100003.9387
100003.9016
100003.8701
100003.8431
100003.8222
100003.8094
100003.8051
100003.8098
100003.8088
100003.8015
100003.7858
100003.7965
100003.8322
100003.8304
100003.8318
100003.8747
100003.7893
100003.8025
100003.8119
100003.7857
100003.7809
100003.7727
100003.765
100003.7592
100003.755
100003.7553
100003.7608
100003.7734
100003.7917
100003.8138
100003.8407
100003.8712
100003.9142
100003.9342
100003.927
100003.904
100003.882
100003.8637
100003.85
100003.8424
100003.8405
100003.8436
100003.8507
100003.8347
100003.8328
100003.8231
100003.8318
100003.8564
100003.8575
100003.8841
100003.8681
100003.8734
100003.8463
100003.8387
100003.8283
100003.8143
100003.8047
100003.7973
100003.7888
100003.7859
100003.7887
100003.7992
100003.817
100003.8374
100003.8637
100003.8922
100003.9253
100003.9589
100003.9454
100003.9277
100003.9138
100003.9037
100003.8954
100003.8928
100003.896
100003.8968
100003.8925
100003.8765
100003.8666
100003.8507
100003.829
100003.8752
100003.8665
100003.8745
100003.8904
100003.9115
100003.9011
100004.0118
100003.884
100003.8996
100003.857
100003.8528
100003.8471
100003.8287
100003.8223
100003.8225
100003.8319
100003.8546
100003.8693
100003.8996
100003.917
100003.938
100003.958
100003.9593
100003.9566
100003.957
100003.9601
100003.9563
100003.9469
100003.9359
100003.9245
100003.9104
100003.8939
100003.8868
100003.8609
100003.8428
100003.8486
100003.8426
100003.855
100003.8815
100003.8454
100003.911
100003.8363
100003.8603
100003.8768
100003.8708
100003.8688
100003.873
100003.862
100003.8585
100003.8576
100003.8618
100003.8777
100003.894
100003.9194
100003.9379
100003.9659
100003.9891
100003.9929
100003.9955
100004.0015
100004.0034
100003.9884
100003.969
100003.9511
100003.936
100003.9238
100003.911
100003.9006
100003.8702
100003.8514
100003.8443
100003.8404
100003.8501
100003.8668
100003.9321
100004.1456
100004.1566
100003.8748
100003.8734
100003.8618
100003.8607
100003.8618
100003.8594
100003.8561
100003.8538
100003.8538
100003.8567
100003.8807
100003.8975
100003.9276
100003.9515
100003.9713
100003.9864
100003.9964
100004.0086
100004.0198
100003.9901
100003.9627
100003.9437
100003.9315
100003.9224
100003.9152
100003.9008
100003.8692
100003.8384
100003.8388
100003.8519
100003.8548
100003.9315
100003.8641
100003.9048
100003.8338
100003.8159
100003.8172
100003.8247
100003.8325
100003.8329
100003.8324
100003.8273
100003.8222
100003.8206
100003.8192
100003.8489
100003.8656
100003.8985
100003.9242
100003.941
100003.9484
100003.95
100003.9508
100003.9523
100003.941
100003.9276
100003.9175
100003.9118
100003.9083
100003.9117
100003.8974
100003.8623
100003.8356
100003.8463
100003.8656
100003.8679
100003.841
100003.887
100003.8551
100003.8113
100003.7908
100003.7992
100003.8128
100003.8119
100003.8113
100003.8099
100003.8067
100003.8118
100003.8231
100003.8358
100003.8547
100003.8804
100003.8997
100003.9098
100003.9097
100003.9082
100003.9078
100003.9082
100003.8997
100003.8901
100003.8831
100003.8839
100003.8886
100003.905
100003.8958
100003.8554
100003.8377
100003.8559
100003.881
100003.8879
100003.845
100003.8881
100003.8565
100003.8134
100003.7797
100003.7887
100003.8038
100003.8
100003.7948
100003.7967
100003.795
100003.8029
100003.8497
100003.8416
100003.8503
100003.8702
100003.903
100003.9045
100003.8598
100003.8465
100003.8687
100003.8989
100003.9122
100003.8736
100003.8213
100003.7849
100003.7954
100003.8028
100003.7942
100003.9752
100003.9852
100003.9937
100004
100004.0157
100004.0277
100004.0354
100004.031
100004.0157
100003.9923
100003.9641
100003.9346
100003.9064
100003.8799
100003.8552
100003.832
100003.8103
100003.7903
100003.7722
100003.7562
100003.7426
100003.7317
100003.7239
100003.7194
100003.7181
100003.7195
100003.7234
100003.7295
100003.7378
100003.7483
100003.7607
100003.775
100003.7877
100003.8063
100003.8092
100003.8127
100003.82
100003.8326
100003.8538
100003.8721
100003.895
100003.9079
100003.9118
100003.9035
100003.884
100003.858
100003.8301
100003.8025
100003.776
100003.751
100003.7286
100003.7096
100003.695
100003.685
100003.6795
100003.6781
100003.6798
100003.6837
100003.689
100003.6951
100003.7019
100003.7096
100003.7189
100003.7306
100003.7447
100003.7612
100003.7762
100003.7961
100003.7564
100003.7627
100003.7701
100003.7761
100003.7836
100003.7869
100003.8008
100003.8136
100003.8274
100003.8293
100003.8173
100003.7953
100003.7683
100003.7406
100003.7138
100003.6892
100003.6676
100003.6499
100003.637
100003.6293
100003.6273
100003.6308
100003.6385
100003.6486
100003.6596
100003.6701
100003.6799
100003.6896
100003.7005
100003.714
100003.7302
100003.749
100003.7659
100003.7876
100003.7234
100003.731
100003.7372
100003.7372
100003.7327
100003.6985
100003.6792
100003.7021
100003.7382
100003.7562
100003.7535
100003.7356
100003.7089
100003.6809
100003.655
100003.6325
100003.6134
100003.5976
100003.5857
100003.5783
100003.5766
100003.5816
100003.593
100003.6086
100003.6254
100003.6411
100003.6544
100003.6665
100003.6793
100003.6945
100003.7123
100003.733
100003.7515
100003.776
100003.7157
100003.7254
100003.7324
100003.7224
100003.6901
100003.5685
100003.4086
100003.5196
100003.6343
100003.6909
100003.7042
100003.6913
100003.6636
100003.6357
100003.6126
100003.5935
100003.5772
100003.5635
100003.5524
100003.5442
100003.5412
100003.5443
100003.5551
100003.5728
100003.5941
100003.6147
100003.632
100003.6466
100003.661
100003.6773
100003.6961
100003.718
100003.7374
100003.7658
100003.7248
100003.7365
100003.7454
100003.7203
100003.6255
100003.4261
100002.5976
100003.1529
100003.4876
100003.6304
100003.6712
100003.6644
100003.6349
100003.6081
100003.5899
100003.5747
100003.5605
100003.5471
100003.5347
100003.5248
100003.5193
100003.5196
100003.5274
100003.5438
100003.567
100003.5916
100003.6129
100003.63
100003.6458
100003.6628
100003.6821
100003.7045
100003.7249
100003.7571
100003.751
100003.7594
100003.7632
100003.712
100003.4852
100003.4272
100000.0878
100002.8555
100003.3505
100003.5855
100003.6588
100003.6565
100003.6241
100003.6012
100003.5858
100003.573
100003.56
100003.546
100003.5315
100003.5183
100003.5087
100003.5054
100003.5101
100003.5237
100003.5459
100003.5726
100003.5972
100003.617
100003.6342
100003.6519
100003.6715
100003.6946
100003.7157
100003.7511
100003.7932
100003.7858
100003.7746
100003.7325
100003.6184
100003.5551
100002.5478
100003.1507
100003.3713
100003.5816
100003.6675
100003.666
100003.6334
100003.611
100003.5972
100003.5853
100003.572
100003.5561
100003.5384
100003.5211
100003.5072
100003.4997
100003.501
100003.5114
100003.5312
100003.5577
100003.5845
100003.6068
100003.6255
100003.6441
100003.6645
100003.6884
100003.7104
100003.7473
100003.8459
100003.8065
100003.7742
100003.7429
100003.6981
100003.6541
100003.5133
100003.5196
100003.5506
100003.6379
100003.6919
100003.687
100003.6548
100003.6324
100003.6188
100003.6062
100003.5909
100003.5719
100003.5503
100003.5287
100003.5106
100003.4992
100003.4969
100003.5044
100003.5222
100003.5473
100003.5746
100003.5987
100003.6192
100003.6391
100003.6608
100003.686
100003.7092
100003.7459
100003.9026
100003.8305
100003.7823
100003.7546
100003.7326
100003.6886
100003.6694
100003.6491
100003.6577
100003.6993
100003.7289
100003.7152
100003.6825
100003.6595
100003.6445
100003.6295
100003.611
100003.5885
100003.5626
100003.5371
100003.5157
100003.5016
100003.497
100003.5029
100003.5183
100003.5414
100003.5677
100003.5925
100003.6148
100003.6366
100003.6602
100003.687
100003.7118
100003.7474
100003.8934
100003.8611
100003.815
100003.7876
100003.7674
100003.7322
100003.7285
100003.7314
100003.7425
100003.7589
100003.7623
100003.7411
100003.7091
100003.6858
100003.6684
100003.6503
100003.6284
100003.6027
100003.5731
100003.5447
100003.5214
100003.5062
100003.5008
100003.5051
100003.5196
100003.5401
100003.5634
100003.5868
100003.61
100003.6342
100003.6604
100003.6896
100003.7159
100003.7503
100003.9066
100003.9131
100003.8746
100003.8374
100003.8116
100003.7951
100003.806
100003.8069
100003.801
100003.7942
100003.7828
100003.7597
100003.7311
100003.7081
100003.6884
100003.6675
100003.6431
100003.6157
100003.583
100003.553
100003.5298
100003.5155
100003.5107
100003.515
100003.5267
100003.5421
100003.5599
100003.5795
100003.6016
100003.6268
100003.6554
100003.6873
100003.7153
100003.7506
100003.907
100003.9296
100003.9191
100003.8712
100003.8327
100003.8213
100003.826
100003.8217
100003.8104
100003.7992
100003.7874
100003.7702
100003.7485
100003.7283
100003.7088
100003.6876
100003.6625
100003.6344
100003.5994
100003.5692
100003.5478
100003.5353
100003.5308
100003.5333
100003.5381
100003.5452
100003.5559
100003.5709
100003.5907
100003.6154
100003.6445
100003.6775
100003.707
100003.7448
100003.8817
100003.8972
100003.923
100003.8885
100003.84
100003.8301
100003.8164
100003.806
100003.796
100003.7881
100003.782
100003.7743
100003.7638
100003.7524
100003.7391
100003.7217
100003.6963
100003.6641
100003.6293
100003.6007
100003.5815
100003.5696
100003.5611
100003.554
100003.5491
100003.5487
100003.5542
100003.5656
100003.5829
100003.6057
100003.6332
100003.6656
100003.6945
100003.734
100003.8323
100003.8281
100003.8586
100003.8611
100003.8155
100003.6691
100003.7649
100003.7765
100003.7752
100003.7735
100003.7735
100003.775
100003.7776
100003.7811
100003.7805
100003.767
100003.7395
100003.7056
100003.6737
100003.6471
100003.6252
100003.6052
100003.5862
100003.57
100003.5591
100003.5549
100003.5578
100003.5669
100003.5816
100003.6015
100003.6263
100003.6569
100003.6839
100003.7234
100003.7893
100003.7811
100003.7785
100003.7874
100003.7778
100003.7259
100003.7395
100003.7445
100003.7489
100003.7529
100003.7592
100003.7695
100003.7846
100003.8061
100003.818
100003.7848
100003.7479
100003.7151
100003.6909
100003.6725
100003.6516
100003.6264
100003.6018
100003.5831
100003.5712
100003.5658
100003.5667
100003.5733
100003.5853
100003.6019
100003.6235
100003.6529
100003.6787
100003.719
100003.639
100003.5655
100003.6743
100003.6876
100003.7094
100003.7062
100003.706
100003.7078
100003.7145
100003.723
100003.7355
100003.7553
100003.7831
100003.8212
100003.8304
100003.7747
100003.7449
100003.7125
100003.6904
100003.6756
100003.6591
100003.6369
100003.6139
100003.5959
100003.5842
100003.5782
100003.5775
100003.5818
100003.5902
100003.6025
100003.6203
100003.6501
100003.6774
100003.7223
100003.6375
100003.6107
100003.6095
100003.6129
100003.6402
100003.661
100003.6638
100003.667
100003.6749
100003.6858
100003.7017
100003.7284
100003.7626
100003.7878
100003.7778
100003.758
100003.7629
100003.721
100003.6946
100003.6767
100003.6639
100003.6451
100003.624
100003.6068
100003.5953
100003.5892
100003.588
100003.5911
100003.5953
100003.601
100003.6114
100003.6399
100003.6723
100003.7206
100003.5813
100003.5522
100003.5414
100003.5499
100003.5856
100003.6172
100003.6215
100003.6272
100003.6353
100003.6462
100003.6623
100003.6888
100003.7202
100003.7422
100003.7469
100003.7701
100003.8453
100003.765
100003.7542
100003.7137
100003.6806
100003.6527
100003.6298
100003.613
100003.6021
100003.5972
100003.5976
100003.6021
100003.6025
100003.601
100003.5992
100003.6176
100003.6456
100003.6997
100003.5125
100003.5282
100003.5003
100003.5154
100003.5599
100003.5895
100003.593
100003.5973
100003.6035
100003.6122
100003.6257
100003.6479
100003.6736
100003.6966
100003.7135
100003.7464
100003.9292
100003.8058
100003.8158
100003.7422
100003.696
100003.6624
100003.6378
100003.621
100003.611
100003.6076
100003.6098
100003.6172
100003.6125
100003.6078
100003.5967
100003.5971
100003.6067
100003.6667
100003.4588
100003.4735
100003.4883
100003.5224
100003.564
100003.5824
100003.5836
100003.5847
100003.5866
100003.5925
100003.6019
100003.618
100003.6375
100003.6582
100003.6789
100003.7004
100003.8223
100003.8144
100004.1702
100003.8052
100003.7238
100003.6789
100003.6509
100003.634
100003.6257
100003.6254
100003.632
100003.6366
100003.6258
100003.6218
100003.6118
100003.6034
100003.5968
100003.6429
100003.5068
100003.5125
100003.536
100003.5679
100003.5916
100003.5971
100003.5943
100003.5918
100003.5906
100003.5923
100003.5983
100003.6112
100003.6287
100003.6477
100003.6708
100003.6941
100003.7834
100003.7996
100003.7702
100003.7339
100003.708
100003.6845
100003.6667
100003.6558
100003.6528
100003.6563
100003.6564
100003.6389
100003.6261
100003.6271
100003.6288
100003.6284
100003.6172
100003.6503
100003.5775
100003.5851
100003.609
100003.6247
100003.6327
100003.6294
100003.623
100003.6169
100003.6118
100003.6106
100003.6146
100003.6261
100003.6436
100003.6637
100003.6853
100003.7102
100003.7652
100003.8006
100003.7927
100003.759
100003.7331
100003.7151
100003.7023
100003.6957
100003.6954
100003.7011
100003.7083
100003.7001
100003.6638
100003.6575
100003.6398
100003.6541
100003.6508
100003.6734
100003.6572
100003.6542
100003.6737
100003.6739
100003.6745
100003.6692
100003.6624
100003.6549
100003.6467
100003.6431
100003.6452
100003.6548
100003.671
100003.6913
100003.7153
100003.7481
100003.7939
100003.891
100003.8292
100003.7954
100003.7754
100003.7637
100003.7539
100003.7487
100003.7508
100003.7567
100003.7593
100003.7468
100003.7223
100003.6926
100003.6382
100003.6636
100003.6704
100003.6853
100003.6663
100003.6394
100003.6238
100003.6522
100003.6761
100003.7055
100003.7044
100003.7059
100003.6995
100003.6859
100003.6796
100003.6788
100003.6862
100003.701
100003.7212
100003.7458
100003.7716
100003.8009
100003.8297
100003.829
100003.8251
100003.8251
100003.8296
100003.8191
100003.8076
100003.8002
100003.7949
100003.7875
100003.7743
100003.7578
100003.7279
100003.6898
100003.6753
100003.6711
100003.6824
100003.6286
100003.6182
100003.6189
100003.6229
100003.6372
100003.6971
100003.7168
100003.7272
100003.7268
100003.718
100003.7132
100003.71
100003.7135
100003.7232
100003.7495
100003.7756
100003.8093
100003.8487
100003.9129
100003.8879
100003.8762
100003.8756
100003.884
100003.8612
100003.8363
100003.8189
100003.8102
100003.8046
100003.7928
100003.7707
100003.7304
100003.6867
100003.6692
100003.6754
100003.6852
100003.6023
100003.6309
100003.6062
100003.6284
100003.6024
100003.6717
100003.6908
100003.7197
100003.7147
100003.7172
100003.7131
100003.705
100003.7022
100003.689
100003.7369
100003.7489
100003.7915
100003.8225
100003.842
100003.8617
100003.8777
100003.8993
100003.9615
100003.8917
100003.8436
100003.8163
100003.8077
100003.8047
100003.795
100003.7671
100003.7158
100003.6779
100003.6727
100003.6803
100003.6917
100003.6024
100003.6517
100003.6079
100003.5878
100003.5937
100003.6177
100003.6465
100003.6857
100003.6778
100003.69
100003.685
100003.6719
100003.6713
100003.6545
100003.7066
100003.715
100003.7603
100003.7927
100003.8154
100003.8191
100003.8167
100003.8162
100003.8234
100003.8078
100003.7883
100003.7741
100003.7743
100003.7788
100003.7788
100003.7518
100003.699
100003.6717
100003.6755
100003.686
100003.7005
100003.6193
100003.6215
100003.6219
100003.6018
100003.6013
100003.6144
100003.6583
100003.6455
100003.6641
100003.6632
100003.6528
100003.6561
100003.6455
100003.6923
100003.7024
100003.7396
100003.7629
100003.7803
100003.7757
100003.7722
100003.7713
100003.7722
100003.7574
100003.7348
100003.7166
100003.7235
100003.7407
100003.7547
100003.7321
100003.6846
100003.6669
100003.6758
100003.6924
100003.7113
100003.6205
100003.6294
100003.6215
100003.6046
100003.595
100003.6006
100003.6462
100003.6267
100003.6439
100003.6503
100003.6484
100003.6554
100003.6644
100003.6369
100003.6469
100003.6826
100003.7248
100003.7147
100003.6739
100003.6647
100003.6791
100003.7004
100003.7241
100003.6363
100003.6124
100003.5975
100003.6056
100003.6484
100003.6229
100003.7766
100003.7877
100003.7979
100003.8026
100003.8043
100003.8048
100003.8059
100003.8018
100003.7921
100003.777
100003.7578
100003.736
100003.7131
100003.6897
100003.6667
100003.6446
100003.624
100003.6053
100003.589
100003.5756
100003.5655
100003.5589
100003.5556
100003.5554
100003.5578
100003.5623
100003.5688
100003.5771
100003.5871
100003.5989
100003.6118
100003.626
100003.6378
100003.6539
100003.6878
100003.6899
100003.6941
100003.697
100003.6995
100003.7023
100003.7058
100003.7108
100003.7113
100003.7045
100003.6911
100003.6732
100003.6526
100003.631
100003.6094
100003.5888
100003.5699
100003.5537
100003.5408
100003.5315
100003.5262
100003.5246
100003.5262
100003.5304
100003.5364
100003.5438
100003.5524
100003.5623
100003.5738
100003.5869
100003.6014
100003.617
100003.63
100003.6459
100003.6524
100003.6489
100003.646
100003.6421
100003.6361
100003.6266
100003.6151
100003.627
100003.6365
100003.639
100003.6326
100003.6191
100003.601
100003.581
100003.5609
100003.5421
100003.5252
100003.5111
100003.5002
100003.4933
100003.4905
100003.4918
100003.4967
100003.5043
100003.5136
100003.5238
100003.5346
100003.5465
100003.5597
100003.5746
100003.5909
100003.608
100003.6217
100003.637
100003.6194
100003.6111
100003.6042
100003.5935
100003.5782
100003.5548
100003.4945
100003.5313
100003.5547
100003.5712
100003.5743
100003.5662
100003.5507
100003.5323
100003.5141
100003.4971
100003.4821
100003.4695
100003.4599
100003.4542
100003.4529
100003.456
100003.4633
100003.4739
100003.4865
100003.4998
100003.5132
100003.5271
100003.5422
100003.5588
100003.5765
100003.5951
100003.6094
100003.6248
100003.6009
100003.5922
100003.5835
100003.5647
100003.5258
100003.4999
100003.2881
100003.4308
100003.4687
100003.5094
100003.5263
100003.5248
100003.5119
100003.4957
100003.4798
100003.4651
100003.4521
100003.4403
100003.4309
100003.4254
100003.4237
100003.4268
100003.4348
100003.447
100003.4619
100003.4779
100003.4937
100003.5094
100003.526
100003.5439
100003.5626
100003.582
100003.5966
100003.6132
100003.5981
100003.5894
100003.58
100003.5565
100003.4643
100003.4847
100002.9833
100003.3719
100003.3629
100003.4548
100003.4924
100003.4983
100003.4885
100003.4742
100003.4594
100003.4453
100003.4326
100003.4213
100003.4119
100003.4056
100003.4034
100003.4057
100003.4126
100003.4249
100003.4411
100003.459
100003.4768
100003.4941
100003.5117
100003.5302
100003.5494
100003.5692
100003.584
100003.6027
100003.6101
100003.6
100003.5868
100003.5597
100003.4036
100003.4988
100002.0784
100003.3017
100003.2322
100003.4219
100003.4797
100003.49
100003.4833
100003.4668
100003.4517
100003.4382
100003.4256
100003.4136
100003.4027
100003.3942
100003.39
100003.3912
100003.3979
100003.4088
100003.425
100003.4439
100003.4632
100003.4817
100003.5
100003.519
100003.5384
100003.5588
100003.5743
100003.5952
100003.6373
100003.6237
100003.6089
100003.5919
100003.5078
100003.5312
100003.0226
100003.3271
100003.3388
100003.4622
100003.4988
100003.5015
100003.4882
100003.4716
100003.4568
100003.4433
100003.43
100003.4163
100003.4028
100003.3914
100003.384
100003.3826
100003.3881
100003.3982
100003.4133
100003.4322
100003.4522
100003.4716
100003.4906
100003.51
100003.5299
100003.5511
100003.5675
100003.5898
100003.6718
100003.6527
100003.6334
100003.6182
100003.5747
100003.5885
100003.4526
100003.5096
100003.4885
100003.5272
100003.537
100003.5251
100003.5053
100003.487
100003.4715
100003.457
100003.442
100003.4261
100003.4093
100003.3944
100003.3837
100003.3792
100003.3823
100003.3919
100003.4053
100003.4234
100003.4434
100003.4633
100003.4828
100003.5028
100003.5236
100003.5458
100003.5635
100003.5861
100003.6633
100003.6728
100003.6529
100003.6321
100003.6038
100003.5963
100003.5549
100003.5697
100003.5594
100003.5691
100003.5665
100003.5493
100003.5269
100003.5074
100003.4909
100003.475
100003.4581
100003.44
100003.4194
100003.4008
100003.387
100003.3799
100003.3806
100003.3881
100003.4002
100003.417
100003.4363
100003.4562
100003.4762
100003.497
100003.519
100003.5426
100003.5615
100003.5842
100003.6853
100003.6907
100003.672
100003.648
100003.6222
100003.6061
100003.5882
100003.5958
100003.5954
100003.5962
100003.588
100003.5697
100003.5478
100003.5285
100003.5114
100003.4944
100003.4761
100003.457
100003.432
100003.4099
100003.3935
100003.3842
100003.3829
100003.3885
100003.398
100003.4127
100003.4304
100003.4497
100003.4701
100003.492
100003.5154
100003.5403
100003.5604
100003.5834
100003.7083
100003.7147
100003.6984
100003.6711
100003.6443
100003.6285
100003.6217
100003.6228
100003.6199
100003.6141
100003.6028
100003.5854
100003.5659
100003.548
100003.5314
100003.5146
100003.4966
100003.4794
100003.4489
100003.4231
100003.4044
100003.3935
100003.39
100003.3921
100003.3987
100003.4101
100003.4251
100003.4429
100003.4632
100003.4861
100003.5109
100003.537
100003.5579
100003.5817
100003.7143
100003.7253
100003.7178
100003.6901
100003.6614
100003.6442
100003.6374
100003.6336
100003.6279
100003.6198
100003.6093
100003.596
100003.5812
100003.5671
100003.5529
100003.5379
100003.5221
100003.5103
100003.4728
100003.4431
100003.4226