/*--------------------------------*- C++ -*----------------------------------*\
  =========                 |
  \\      /  F ield         | OpenFOAM: The Open Source CFD Toolbox
   \\    /   O peration     | Website:  https://openfoam.org
    \\  /    A nd           | Version:  8
     \\/     M anipulation  |
\*---------------------------------------------------------------------------*/
FoamFile
{
    version     2.0;
    format      ascii;
    class       volScalarField;
    location    "1.1";
    object      T;
}
// * * * * * * * * * * * * * * * * * * * * * * * * * * * * * * * * * * * * * //

dimensions      [0 0 0 1 0 0 0];

internalField   nonuniform List<scalar> 
67193
(
300.0026734
300.002699
300.002728
300.002748
300.002712
300.002672
300.0026314
300.0025906
300.0025616
300.0025449
300.002535
300.0025276
300.0025206
300.0025124
300.0025038
300.0024948
300.0024853
300.002475
300.0024645
300.0024558
300.0024513
300.0024526
300.0024605
300.0024743
300.0024925
300.0025144
300.0025411
300.0025746
300.002615
300.0026585
300.0026976
300.0027186
300.0027008
300.0026061
300.0026795
300.0027087
300.0027436
300.0027662
300.0027294
300.0026917
300.0026443
300.0025761
300.0025249
300.002506
300.0025103
300.00252
300.0025234
300.0025204
300.0025164
300.0025123
300.0025062
300.0024967
300.0024847
300.002472
300.0024615
300.0024561
300.0024575
300.0024663
300.0024828
300.0025087
300.0025467
300.0025974
300.0026569
300.0027175
300.0027706
300.0028032
300.0027927
300.0026957
300.0026071
300.0026356
300.002675
300.0026892
300.0026653
300.002648
300.0026353
300.0025527
300.0024899
300.0024649
300.0024696
300.0024809
300.002483
300.002479
300.0024793
300.0024816
300.0024811
300.0024766
300.002469
300.0024599
300.0024515
300.0024462
300.0024464
300.0024542
300.0024717
300.0025024
300.0025501
300.0026135
300.0026844
300.0027517
300.002807
300.0028406
300.0028342
300.0027415
300.0025712
300.0026068
300.0026536
300.0026544
300.0026381
300.0026261
300.0026863
300.0025474
300.0024718
300.0024394
300.0024353
300.0024379
300.0024348
300.0024301
300.0024352
300.0024438
300.0024491
300.00245
300.0024477
300.0024437
300.0024392
300.0024356
300.0024348
300.0024407
300.0024583
300.0024942
300.0025523
300.0026278
300.0027078
300.0027787
300.0028319
300.00286
300.0028502
300.002758
300.0025703
300.0026076
300.002656
300.0026466
300.0026772
300.0026341
300.0028554
300.0025533
300.0024725
300.0024322
300.0024111
300.0023991
300.0023935
300.0023889
300.0023959
300.0024077
300.0024172
300.0024228
300.0024254
300.0024265
300.0024268
300.0024268
300.0024265
300.0024295
300.0024442
300.0024815
300.0025478
300.0026348
300.0027238
300.0027988
300.0028515
300.0028755
300.0028612
300.0027675
300.0025747
300.0026116
300.0026509
300.0026519
300.0028303
300.0027103
300.003244
300.0025707
300.0025153
300.0024588
300.0024082
300.0023771
300.0023725
300.0023669
300.002371
300.0023819
300.0023936
300.0024032
300.0024099
300.0024147
300.0024188
300.0024225
300.0024245
300.002426
300.0024358
300.0024693
300.0025381
300.0026333
300.0027308
300.0028112
300.0028662
300.00289
300.0028747
300.0027811
300.0025608
300.0025824
300.0025994
300.0026386
300.0029132
300.0029671
300.0011046
300.0024595
300.0025951
300.0025147
300.0024257
300.0023747
300.0023719
300.0023649
300.0023626
300.0023695
300.0023813
300.0023934
300.0024033
300.0024106
300.0024168
300.0024227
300.0024271
300.0024291
300.0024348
300.0024611
300.0025255
300.0026232
300.002727
300.0028132
300.0028725
300.0028992
300.0028869
300.002797
300.0025147
300.0025078
300.0024947
300.0024972
300.0025377
300.0023107
300.0007346
300.0019954
300.0024458
300.0024919
300.0024311
300.0023823
300.0023901
300.0023805
300.0023715
300.002372
300.0023807
300.0023928
300.0024042
300.0024131
300.0024204
300.0024271
300.0024331
300.002436
300.0024396
300.0024582
300.0025125
300.0026049
300.0027105
300.0028015
300.0028655
300.0028968
300.0028903
300.0028091
300.0024822
300.0024572
300.0024343
300.0024175
300.0024505
300.0026012
300.0025211
300.0024629
300.0024556
300.0024641
300.002424
300.0023924
300.0024147
300.0024091
300.0023957
300.0023887
300.0023908
300.0023993
300.0024096
300.002419
300.0024268
300.0024339
300.0024404
300.0024445
300.0024476
300.0024606
300.0025026
300.0025818
300.0026804
300.0027714
300.0028388
300.0028753
300.0028779
300.0028129
300.0025091
300.0024879
300.0024708
300.0024598
300.0025221
300.0027936
300.0026191
300.002503
300.0024776
300.0024801
300.0024382
300.0024149
300.0024464
300.0024465
300.0024307
300.0024156
300.0024086
300.0024102
300.0024168
300.0024249
300.0024328
300.00244
300.0024464
300.0024513
300.0024562
300.0024691
300.0025032
300.0025653
300.002646
300.0027259
300.0027902
300.0028311
300.002848
300.0028095
300.0025271
300.0025426
300.0025881
300.0026118
300.002652
300.0027412
300.0025565
300.0025056
300.00251
300.0025032
300.0024553
300.00244
300.0024772
300.0024837
300.0024675
300.0024456
300.0024291
300.0024223
300.0024231
300.0024282
300.0024349
300.0024414
300.0024472
300.0024536
300.0024652
300.0024883
300.0025272
300.0025806
300.0026403
300.0026967
300.0027443
300.0027821
300.002815
300.002808
300.0025372
300.0025012
300.0025517
300.0025854
300.002613
300.002545
300.0025408
300.0025628
300.0025748
300.0025458
300.0024866
300.0024692
300.0025
300.0025088
300.0024934
300.0024673
300.0024439
300.0024298
300.0024242
300.002425
300.0024284
300.002432
300.0024373
300.0024513
300.002481
300.0025275
300.0025846
300.0026425
300.0026924
300.0027294
300.0027549
300.0027772
300.0028117
300.0028201
300.0025707
300.0025215
300.0025437
300.0025701
300.0025961
300.0025877
300.0026194
300.0026468
300.002633
300.0025832
300.002523
300.0024953
300.002505
300.0025071
300.0024908
300.0024617
300.0024345
300.0024167
300.0024066
300.0024024
300.0024006
300.0024028
300.0024197
300.0024602
300.0025216
300.0025935
300.0026642
300.002726
300.0027748
300.002808
300.0028263
300.002836
300.0028552
300.0028482
300.0026373
300.0026043
300.0025566
300.002599
300.0026191
300.0027109
300.0027046
300.002707
300.0026709
300.002613
300.0025559
300.0025201
300.0025036
300.0024889
300.0024691
300.0024358
300.0024073
300.0023886
300.0023759
300.0023672
300.0023686
300.0023934
300.0024472
300.0025217
300.002602
300.0026773
300.0027433
300.0027998
300.0028467
300.0028827
300.0029051
300.0029136
300.0029182
300.0028838
300.0027238
300.0027155
300.002592
300.0025758
300.0026174
300.0027452
300.0027092
300.0027029
300.0026556
300.0026037
300.0025631
300.0025391
300.0025242
300.0025071
300.0024912
300.0024487
300.0024209
300.0024039
300.002391
300.0023888
300.002413
300.0024695
300.0025454
300.0026229
300.0026925
300.0027537
300.0028077
300.0028565
300.0029002
300.0029368
300.0029628
300.0029728
300.0029691
300.0029138
300.0028134
300.0027981
300.0027017
300.0026011
300.0025675
300.002613
300.0026673
300.0026612
300.0026232
300.0025913
300.0025757
300.0025705
300.0025697
300.0025574
300.0025543
300.0025083
300.0024748
300.0024557
300.0024514
300.0024682
300.0025157
300.002583
300.0026513
300.0027119
300.0027653
300.0028144
300.0028604
300.0029036
300.0029421
300.0029733
300.0029952
300.0030024
300.0029921
300.0029261
300.002826
300.0026785
300.002777
300.0026648
300.0025705
300.0025796
300.0026273
300.0026186
300.0025938
300.0025877
300.0025979
300.0026077
300.0026191
300.0025985
300.0025952
300.0026162
300.0025629
300.0025286
300.0025258
300.0025541
300.002612
300.0026756
300.0027309
300.0027787
300.0028237
300.0028676
300.0029098
300.0029484
300.0029764
300.00299
300.0029932
300.0029865
300.0029653
300.0029002
300.0029265
300.0029131
300.0027972
300.0026738
300.0025626
300.002546
300.0025891
300.0025833
300.0025761
300.0025931
300.0026209
300.0026284
300.0026206
300.0025749
300.0026553
300.0028407
300.0027495
300.0026677
300.0026299
300.002634
300.0026788
300.0027381
300.0027896
300.0028335
300.0028758
300.0029182
300.0029582
300.0029908
300.003
300.00298
300.0029448
300.0029082
300.0028731
300.0028331
300.0028853
300.0028717
300.0027774
300.0026595
300.0025433
300.0025224
300.0025621
300.0025638
300.0025742
300.0026052
300.0026377
300.0026388
300.0026245
300.0026125
300.002732
300.0029264
300.0028667
300.0027776
300.0027411
300.0027436
300.0027756
300.0028138
300.0028495
300.0028862
300.0029258
300.0029674
300.0030044
300.0030265
300.0030119
300.0029529
300.0028699
300.002797
300.0027616
300.0027661
300.0029288
300.002876
300.0027535
300.002632
300.0025214
300.0025198
300.002554
300.002565
300.002588
300.0026241
300.0026537
300.0026498
300.0026315
300.0026202
300.0027077
300.0028491
300.0028586
300.0028074
300.0028168
300.0028215
300.0028434
300.0028697
300.0028974
300.0029287
300.0029647
300.003003
300.0030325
300.0030356
300.0030207
300.0029427
300.00282
300.0027208
300.0026951
300.0027168
300.0028463
300.0028345
300.0027129
300.0025923
300.0025186
300.0025371
300.0025676
300.0025864
300.0026155
300.0026505
300.0026739
300.0026649
300.0026426
300.0026221
300.0026763
300.0027683
300.0028121
300.0028353
300.0029306
300.0028953
300.0028956
300.0029083
300.0029275
300.0029522
300.0029817
300.0030132
300.003017
300.0029926
300.0030475
300.0029678
300.0028265
300.0027071
300.0026763
300.0026861
300.0027943
300.0027769
300.002663
300.0025704
300.0025425
300.00257
300.0025977
300.0026212
300.0026514
300.002682
300.0026976
300.0026821
300.0026591
300.0026447
300.0026869
300.0027535
300.0028233
300.0028658
300.0029014
300.0029121
300.0029251
300.0029401
300.0029573
300.0029761
300.0029947
300.0029905
300.0028758
300.0029797
300.0031319
300.0030344
300.002864
300.0027421
300.002692
300.0026819
300.0027312
300.0027018
300.0026264
300.0025759
300.0025816
300.002609
300.0026343
300.0026589
300.0026864
300.0027111
300.0027195
300.0027023
300.00269
300.002699
300.0027479
300.0028066
300.0028764
300.0029227
300.0029463
300.0029565
300.0029672
300.0029796
300.0029919
300.0030028
300.0030093
300.002998
300.0029262
300.0029237
300.0029452
300.0028663
300.0028918
300.002796
300.0027452
300.0027102
300.0026786
300.0026712
300.0026268
300.0025982
300.0026257
300.0026488
300.002673
300.0026957
300.002717
300.0027365
300.0027431
300.002735
300.0027445
300.0027798
300.0028399
300.0028935
300.0029469
300.0029911
300.002998
300.003002
300.0030089
300.0030159
300.003017
300.003008
300.0029828
300.0029405
300.0028936
300.0028767
300.0027616
300.0027817
300.0029905
300.0028753
300.002856
300.0027647
300.0028287
300.0029034
300.0028288
300.0026718
300.00268
300.0026813
300.0027016
300.0027285
300.0027472
300.0027595
300.0027748
300.002785
300.0027924
300.0028213
300.0028701
300.00293
300.0029597
300.0029901
300.0030124
300.0030202
300.0030236
300.0030245
300.0030178
300.0029941
300.0029669
300.0029493
300.0029516
300.0029489
300.0029203
300.0028228
300.0028125
300.0028799
300.002981
300.0030037
300.0027923
300.0029681
300.0029114
300.0026889
300.0028667
300.0028527
300.0027549
300.002751
300.0027829
300.002805
300.0028205
300.0028353
300.0028481
300.0028649
300.0028978
300.0029271
300.0029494
300.0029664
300.0029918
300.0030103
300.0030077
300.0029977
300.0029938
300.0030127
300.0030289
300.0030337
300.003023
300.0029994
300.0029497
300.0028807
300.0027829
300.0028416
300.0029208
300.0029943
300.0030089
300.0027684
300.0029549
300.0030036
300.0030492
300.0032086
300.0030375
300.0029671
300.0028808
300.0028232
300.0028077
300.0028188
300.0028413
300.0028715
300.0029095
300.0029322
300.0028972
300.0028919
300.0028971
300.0029175
300.0029682
300.0029708
300.0029892
300.0030556
300.0031062
300.0031026
300.0030802
300.0030472
300.0030042
300.002941
300.0028534
300.0027934
300.0029094
300.003004
300.0030335
300.003018
300.0027622
300.002649
300.0029277
300.0029104
300.002984
300.0030249
300.0030425
300.0030041
300.0029187
300.0028531
300.0028462
300.0028556
300.0028943
300.0029444
300.0029334
300.0028877
300.0028786
300.0029033
300.0028827
300.0029333
300.002971
300.0030025
300.0030475
300.0030643
300.0030526
300.0030222
300.0029862
300.002946
300.0028883
300.0028002
300.0027992
300.0029445
300.0030137
300.0030302
300.0030105
300.0027739
300.0029398
300.0029811
300.0030558
300.0030812
300.0031064
300.0030715
300.002967
300.0028787
300.0028643
300.0028621
300.0029027
300.0029327
300.0028456
300.0028818
300.0028607
300.0029164
300.0028496
300.0028634
300.0029153
300.0029494
300.0029794
300.0029781
300.0029567
300.0029109
300.0028727
300.002845
300.0028084
300.0027367
300.0028094
300.0029643
300.0030138
300.003022
300.0029979
300.0028074
300.0029604
300.0029845
300.0030498
300.0030737
300.0031075
300.003076
300.0029627
300.0028772
300.0028669
300.0028446
300.0028866
300.002922
300.0027692
300.0027349
300.0027163
300.0027113
300.0026707
300.0028033
300.0029599
300.0029969
300.0030045
300.0029836
300.0028494
300.0031102
300.0031154
300.0031288
300.0030569
300.0029217
300.0028615
300.0026042
300.0026312
300.0026589
300.0026727
300.002632
300.0025878
300.0025538
300.0025263
300.0025079
300.0024962
300.0024865
300.0024766
300.0024656
300.0024535
300.0024409
300.0024282
300.002416
300.0024055
300.0023982
300.0023959
300.0024001
300.0024114
300.0024289
300.0024511
300.002476
300.0025028
300.0025323
300.0025664
300.0026052
300.0026457
300.0026804
300.0026951
300.0026693
300.0025696
300.0026046
300.0026403
300.0026741
300.0026813
300.002636
300.0025784
300.0025316
300.0024887
300.0024633
300.002458
300.0024633
300.0024683
300.0024679
300.0024625
300.0024549
300.0024457
300.0024349
300.002423
300.002412
300.0024041
300.0024018
300.0024066
300.0024187
300.0024377
300.0024632
300.0024963
300.0025386
300.0025904
300.002649
300.0027084
300.0027588
300.002784
300.0027604
300.0026558
300.0025902
300.0026372
300.0026763
300.0026736
300.0026164
300.0025445
300.0024936
300.0024506
300.0024267
300.0024255
300.0024372
300.002448
300.0024512
300.0024493
300.0024466
300.0024425
300.0024354
300.0024253
300.002414
300.0024044
300.0023995
300.0024014
300.0024116
300.0024302
300.0024583
300.0024978
300.0025504
300.0026144
300.002684
300.0027512
300.002806
300.0028325
300.0028081
300.0027007
300.0025952
300.0026445
300.0026811
300.0026588
300.0025767
300.0024792
300.0024003
300.002381
300.0023799
300.002392
300.0024091
300.0024218
300.002427
300.0024288
300.002432
300.0024346
300.0024334
300.0024271
300.0024171
300.0024062
300.0023981
300.0023964
300.0024037
300.002422
300.0024535
300.0025012
300.0025653
300.0026403
300.0027171
300.0027863
300.0028381
300.0028582
300.0028269
300.0027131
300.0026021
300.0026506
300.0026747
300.0026226
300.0024993
300.0023278
300.0020871
300.0022125
300.0022976
300.0023494
300.0023787
300.0023946
300.0024038
300.0024098
300.0024182
300.0024275
300.0024335
300.0024334
300.002427
300.0024159
300.0024045
300.0023974
300.0023993
300.0024142
300.0024467
300.0025012
300.0025764
300.0026625
300.0027459
300.0028154
300.002862
300.0028738
300.0028353
300.002718
300.0026014
300.0026373
300.0026378
300.00255
300.002353
300.00207
300.0008859
300.0017777
300.0021483
300.0022961
300.0023515
300.0023749
300.0023906
300.0024006
300.0024116
300.0024242
300.0024351
300.0024406
300.0024394
300.0024321
300.002421
300.002409
300.0024036
300.0024121
300.0024412
300.0024981
300.0025816
300.0026778
300.002768
300.0028388
300.0028815
300.0028871
300.0028452
300.0027297
300.0025785
300.0025884
300.0025597
300.0024391
300.0020876
300.0015455
299.996446
300.0010173
300.001949
300.0022408
300.0023347
300.0023691
300.0023926
300.002405
300.0024162
300.0024292
300.0024422
300.0024514
300.0024542
300.0024501
300.0024404
300.0024279
300.0024172
300.0024177
300.0024399
300.0024934
300.0025794
300.0026824
300.0027793
300.002853
300.0028947
300.0028978
300.0028569
300.0027469
300.0025382
300.002515
300.0024727
300.0023821
300.0021179
300.0015629
300.0007844
300.0011521
300.0018811
300.0022215
300.0023364
300.0023796
300.0024089
300.0024249
300.0024344
300.0024441
300.0024551
300.0024646
300.0024693
300.0024675
300.0024597
300.002448
300.0024359
300.0024302
300.0024438
300.0024887
300.0025696
300.0026728
300.0027732
300.0028504
300.0028938
300.0028991
300.002864
300.0027637
300.0025179
300.0024645
300.0024326
300.0024201
300.0024067
300.0024107
300.0017184
300.0019721
300.0021673
300.0023014
300.0023653
300.002405
300.0024394
300.0024572
300.0024635
300.0024669
300.002472
300.002478
300.0024816
300.0024807
300.0024748
300.002465
300.0024536
300.0024456
300.0024522
300.0024859
300.0025541
300.0026482
300.0027452
300.0028231
300.0028699
300.0028821
300.0028599
300.0027764
300.0025499
300.0024699
300.0024514
300.0024882
300.0026007
300.0027881
300.0023934
300.0023105
300.0023217
300.0023693
300.0024054
300.0024405
300.0024768
300.0024949
300.0024969
300.0024925
300.0024891
300.0024887
300.0024886
300.0024869
300.0024824
300.0024753
300.0024672
300.0024619
300.0024653
300.0024894
300.0025408
300.0026163
300.0026994
300.0027712
300.0028201
300.0028434
300.0028426
300.0027851
300.0025496
300.0024875
300.0024808
300.0025233
300.0026239
300.0027553
300.0025205
300.0024209
300.002414
300.0024359
300.0024529
300.0024796
300.0025122
300.0025278
300.0025249
300.0025127
300.0025008
300.0024932
300.0024879
300.0024841
300.0024806
300.0024772
300.0024749
300.0024758
300.0024843
300.0025065
300.0025459
300.0026005
300.0026611
300.0027167
300.0027609
300.0027944
300.0028199
300.0027939
300.002573
300.0025023
300.0024854
300.0025128
300.0025642
300.0026061
300.002512
300.0024862
300.0024969
300.0025033
300.0025023
300.0025154
300.0025375
300.0025463
300.0025373
300.0025188
300.0025009
300.0024883
300.0024781
300.0024722
300.00247
300.0024717
300.0024785
300.0024916
300.0025134
300.0025448
300.0025843
300.0026275
300.0026687
300.0027039
300.0027344
300.002768
300.002811
300.0028068
300.0026007
300.0025335
300.002503
300.0025118
300.0025379
300.0025524
300.0025454
300.0025601
300.0025683
300.0025582
300.0025429
300.0025408
300.0025473
300.0025449
300.0025293
300.0025067
300.0024864
300.0024725
300.00246
300.0024537
300.002455
300.0024653
300.0024861
300.002518
300.0025596
300.0026065
300.002653
300.0026942
300.002727
300.0027509
300.0027706
300.0027964
300.0028358
300.0028268
300.0026384
300.0025837
300.0025364
300.0025322
300.0025481
300.0025615
300.0026029
300.002625
300.0026209
300.0025976
300.0025724
300.0025573
300.002548
300.0025337
300.0025125
300.0024875
300.0024662
300.0024516
300.0024419
300.0024404
300.0024508
300.0024763
300.0025175
300.0025707
300.0026286
300.0026846
300.0027341
300.0027744
300.0028043
300.0028252
300.0028426
300.0028627
300.0028858
300.0028512
300.0026986
300.0026514
300.002579
300.0025393
300.0025333
300.0024913
300.0026059
300.002643
300.0026377
300.002614
300.0025895
300.0025708
300.0025544
300.0025338
300.0025115
300.002487
300.0024641
300.0024482
300.0024428
300.0024517
300.0024793
300.0025257
300.0025841
300.0026464
300.0027076
300.002764
300.0028128
300.0028517
300.002879
300.0028974
300.002914
300.0029296
300.0029339
300.0028723
300.0027701
300.0027157
300.0026397
300.0025657
300.00255
300.0025625
300.0026176
300.0026408
300.0026368
300.0026209
300.0026048
300.0025892
300.0025714
300.0025495
300.0025348
300.0025247
300.0024987
300.0024762
300.0024727
300.0024958
300.0025426
300.0026012
300.0026618
300.0027214
300.0027794
300.0028341
300.0028828
300.0029219
300.0029458
300.0029583
300.00297
300.0029752
300.0029583
300.0028804
300.0028237
300.002824
300.0026845
300.0025879
300.0025542
300.00257
300.0026096
300.0026274
300.0026286
300.0026248
300.0026189
300.0026065
300.0025878
300.0025674
300.0025783
300.0026126
300.0025835
300.0025389
300.0025278
300.0025572
300.002612
300.002674
300.0027326
300.0027889
300.0028448
300.0028986
300.0029461
300.0029812
300.0029992
300.0030002
300.0029961
300.0029754
300.0029322
300.0028577
300.0028586
300.0028105
300.0027065
300.0025965
300.0025489
300.00256
300.0025937
300.0026114
300.0026206
300.0026278
300.002629
300.002616
300.0025975
300.0026018
300.0026909
300.0027984
300.0027681
300.0026804
300.002634
300.0026393
300.0026836
300.0027403
300.0027951
300.0028487
300.0029031
300.0029561
300.0030008
300.003028
300.0030344
300.0030151
300.0029771
300.0029113
300.0028466
300.0028043
300.0028504
300.0028028
300.0026858
300.0025855
300.0025396
300.0025504
300.0025799
300.0026006
300.0026173
300.0026314
300.0026352
300.0026217
300.0026075
300.0026404
300.0027734
300.0028987
300.0028853
300.0027724
300.0027316
300.0027294
300.0027619
300.0028059
300.0028521
300.0029011
300.0029528
300.0030026
300.00304
300.0030549
300.0030516
300.0030092
300.0029292
300.0028185
300.0027578
300.0027666
300.0027159
300.0027525
300.0026469
300.0025651
300.0025305
300.0025467
300.0025764
300.0026
300.0026214
300.0026382
300.0026422
300.0026286
300.0026133
300.0026336
300.0027322
300.0028299
300.0029602
300.0028212
300.0028256
300.002816
300.0028353
300.0028657
300.0029021
300.0029442
300.0029893
300.0030291
300.0030515
300.0030624
300.0030701
300.0030177
300.0029163
300.0027862
300.0027449
300.0027655
300.0026369
300.0026486
300.00259
300.0025417
300.0025281
300.0025525
300.0025825
300.0026091
300.0026332
300.0026505
300.0026539
300.0026415
300.0026267
300.002631
300.0026868
300.0027448
300.002839
300.0028503
300.0030069
300.0029172
300.0029067
300.002919
300.002944
300.0029754
300.0030067
300.0030251
300.003021
300.0030635
300.0031037
300.0030413
300.0029595
300.0028554
300.0028163
300.0027924
300.0026013
300.002587
300.0025535
300.0025314
300.0025389
300.0025679
300.0025974
300.0026249
300.0026496
300.0026667
300.0026711
300.0026633
300.0026554
300.0026629
300.0027069
300.0027595
300.0028508
300.0028923
300.0029132
300.0029208
300.0029372
300.0029561
300.0029766
300.0029945
300.0030013
300.002988
300.0029491
300.0030514
300.0031105
300.0030422
300.0030114
300.0029539
300.0029147
300.0028456
300.0025859
300.0025628
300.0025407
300.0025381
300.0025606
300.002591
300.00262
300.0026472
300.0026715
300.002689
300.0026958
300.0026941
300.0026983
300.0027206
300.0027715
300.0028272
300.0028996
300.0029582
300.0029783
300.0029807
300.0029875
300.0029964
300.0030004
300.0029984
300.0029887
300.0029738
300.0029485
300.0029547
300.0029567
300.0029234
300.0030142
300.0029992
300.0029844
300.0029126
300.0025962
300.0025728
300.0025667
300.0025611
300.0025922
300.0026248
300.0026553
300.0026814
300.0027038
300.0027222
300.0027328
300.0027395
300.0027586
300.0027992
300.002857
300.0029152
300.0029797
300.0030745
300.0030429
300.0030273
300.0030193
300.0030124
300.0029979
300.0029742
300.0029506
300.0029379
300.0029367
300.00294
300.0028664
300.0028635
300.0029831
300.0030074
300.0030131
300.0029823
300.0027319
300.0027515
300.0027426
300.0027423
300.0026078
300.0026384
300.0026785
300.0027152
300.0027393
300.0027575
300.0027749
300.0027888
300.0028029
300.0028308
300.0028812
300.002931
300.0029698
300.0030056
300.0030352
300.003032
300.0030224
300.0030112
300.0029991
300.0029743
300.0029559
300.0029556
300.0029758
300.002987
300.0029599
300.0028684
300.0028205
300.0028563
300.0029401
300.0030316
300.0030411
300.0028525
300.0028999
300.0029236
300.0028286
300.0027089
300.0026869
300.0027178
300.0027568
300.0027832
300.0028119
300.0028339
300.0028503
300.002867
300.002891
300.0029302
300.0029531
300.0029762
300.0030052
300.0030546
300.0030199
300.0029985
300.0030011
300.0030328
300.0030451
300.0030471
300.0030402
300.0030255
300.0029865
300.0029216
300.0028342
300.0028187
300.0028808
300.0029932
300.0030817
300.003071
300.002905
300.002978
300.0027654
300.0027645
300.0028173
300.0028009
300.0027746
300.0027678
300.0027682
300.0027905
300.0028193
300.0028493
300.0028806
300.0028927
300.0028993
300.0028983
300.002908
300.0029381
300.0030166
300.0030092
300.0030344
300.0030995
300.0031903
300.0031601
300.0031258
300.0030867
300.0030424
300.0029804
300.0028977
300.0028228
300.002839
300.0029244
300.0030435
300.0031111
300.0030808
300.0028369
300.0028977
300.0029163
300.0029331
300.0029102
300.0029241
300.0028979
300.0028411
300.0028196
300.0028198
300.0028343
300.0028641
300.0029065
300.0029351
300.0028995
300.0029054
300.0028948
300.0028992
300.0029632
300.0029996
300.0030303
300.0030672
300.0030971
300.0030937
300.0030695
300.0030331
300.0029887
300.0029291
300.0028494
300.0027934
300.0028409
300.0029389
300.0030629
300.0031171
300.0030859
300.0028941
300.0028965
300.0029892
300.0030125
300.0030239
300.0029753
300.0028903
300.0028844
300.0028605
300.0028705
300.0029076
300.0029529
300.0029932
300.0029295
300.0029252
300.0029033
300.0028621
300.0028903
300.0029333
300.0029673
300.0029956
300.0030103
300.0030007
300.002969
300.0029332
300.0028963
300.002852
300.0027904
300.002767
300.0028352
300.0029466
300.0030568
300.0031089
300.00309
300.0029125
300.0029544
300.0030645
300.0030914
300.0030786
300.0029954
300.002907
300.0029394
300.0028872
300.0028837
300.002922
300.0029541
300.002838
300.0028094
300.0027835
300.0027571
300.0027234
300.0027397
300.0028156
300.0029281
300.0030332
300.0030891
300.0030877
300.0031607
300.0031501
300.0030992
300.002978
300.0028998
300.0029591
300.0025139
300.0025341
300.0025517
300.0025531
300.0025166
300.0024732
300.0024413
300.0024182
300.0024034
300.0023935
300.0023851
300.0023763
300.0023665
300.0023558
300.0023445
300.0023335
300.0023236
300.0023164
300.0023135
300.0023164
300.002326
300.0023421
300.0023636
300.0023886
300.0024155
300.0024439
300.0024744
300.0025085
300.0025458
300.002583
300.0026124
300.0026201
300.002587
300.0024883
300.0025078
300.0025316
300.0025523
300.0025483
300.0025074
300.0024526
300.0024084
300.0023806
300.0023671
300.002366
300.0023703
300.0023735
300.0023729
300.0023686
300.0023619
300.0023533
300.0023438
300.0023347
300.0023276
300.0023249
300.002328
300.002338
300.0023547
300.0023775
300.0024063
300.0024418
300.0024849
300.0025357
300.0025916
300.0026468
300.0026909
300.002707
300.0026734
300.0025654
300.00251
300.0025457
300.0025731
300.0025619
300.0025024
300.0024297
300.0023679
300.0023469
300.0023394
300.0023456
300.0023576
300.0023675
300.0023721
300.0023723
300.0023697
300.0023647
300.0023574
300.0023487
300.0023405
300.0023351
300.002335
300.0023417
300.0023561
300.0023787
300.0024101
300.0024516
300.0025039
300.0025652
300.002631
300.002694
300.0027431
300.0027602
300.0027233
300.0026111
300.0025215
300.0025614
300.0025853
300.0025594
300.0024787
300.0023801
300.0022706
300.0022881
300.0023001
300.0023208
300.0023416
300.0023572
300.0023662
300.0023708
300.0023731
300.0023729
300.0023695
300.002363
300.0023547
300.0023473
300.0023439
300.0023474
300.0023599
300.002383
300.0024183
300.002467
300.0025283
300.0025978
300.0026688
300.0027333
300.0027799
300.0027908
300.0027448
300.0026228
300.0025252
300.0025634
300.0025771
300.0025289
300.0024081
300.0022826
300.0020299
300.0021778
300.0022313
300.0022844
300.0023206
300.0023437
300.002358
300.0023675
300.0023753
300.0023809
300.0023828
300.0023801
300.002373
300.0023642
300.0023571
300.0023563
300.0023655
300.0023878
300.002426
300.0024816
300.0025516
300.0026284
300.0027027
300.0027655
300.0028061
300.0028082
300.0027533
300.0026245
300.0025179
300.0025442
300.00254
300.0024659
300.0022736
300.0020994
300.0016651
300.0019925
300.0021014
300.0022308
300.0022975
300.002332
300.0023532
300.0023677
300.0023804
300.0023909
300.002398
300.0023999
300.0023958
300.0023869
300.0023764
300.0023704
300.0023747
300.0023939
300.0024325
300.0024927
300.0025701
300.0026536
300.002731
300.002792
300.0028265
300.0028211
300.0027627
300.0026366
300.0024967
300.0025002
300.0024731
300.0023769
300.0021006
300.0017941
300.0018955
300.0015801
300.0018975
300.0021668
300.0022789
300.0023282
300.0023578
300.0023757
300.0023901
300.0024028
300.0024128
300.0024178
300.0024164
300.002409
300.0023984
300.002389
300.0023879
300.0024021
300.002438
300.002499
300.0025805
300.0026692
300.0027498
300.0028104
300.002841
300.0028318
300.0027753
300.0026567
300.0024687
300.002445
300.0024053
300.0023216
300.0021067
300.0018521
300.003068
300.0015819
300.0019186
300.0021696
300.0022848
300.0023386
300.0023722
300.0023935
300.0024083
300.0024201
300.0024295
300.002435
300.0024347
300.0024287
300.0024187
300.0024084
300.0024037
300.0024123
300.0024425
300.0024994
300.0025799
300.0026702
300.0027528
300.0028137
300.0028437
300.0028358
300.0027863
300.0026781
300.0024465
300.0024003
300.0023596
300.0023225
300.0022494
300.0021471
300.0020739
300.0018629
300.0020648
300.0022307
300.0023185
300.0023667
300.0024001
300.0024216
300.002434
300.0024415
300.0024467
300.0024496
300.0024482
300.0024427
300.002434
300.0024247
300.0024191
300.0024234
300.0024466
300.0024948
300.0025674
300.0026528
300.0027334
300.0027941
300.0028262
300.0028255
300.0027899
300.0026972
300.002411
300.0023808
300.0023515
300.0023624
300.0024089
300.0024604
300.0022488
300.0021469
300.0022135
300.0023033
300.002363
300.0024036
300.002435
300.0024542
300.0024617
300.0024623
300.0024608
300.0024589
300.0024544
300.0024485
300.0024417
300.0024353
300.0024317
300.0024345
300.0024523
300.0024895
300.0025481
300.0026206
300.0026924
300.0027496
300.0027851
300.0027973
300.0027843
300.0027138
300.0024454
300.0023963
300.0023685
300.0023936
300.002468
300.0025435
300.0023841
300.0023032
300.0023226
300.0023715
300.0024106
300.0024425
300.0024688
300.0024827
300.0024833
300.0024761
300.0024677
300.002461
300.0024523
300.0024456
300.0024413
300.0024397
300.0024418
300.002449
300.0024649
300.0024936
300.0025366
300.0025903
300.0026458
300.0026936
300.0027301
300.0027578
300.0027734
300.0027292
300.0025003
300.0024325
300.0023929
300.0024043
300.0024531
300.0025008
300.002425
300.0023909
300.0024073
300.0024357
300.002458
300.0024782
300.0024946
300.0024995
300.0024918
300.0024778
300.0024647
300.0024567
300.0024436
300.0024362
300.0024355
300.0024408
300.002452
300.0024684
300.0024902
300.0025181
300.0025519
300.0025893
300.0026262
300.0026592
300.002691
300.0027291
300.0027688
300.0027447
300.0025455
300.0024767
300.0024255
300.0024176
300.0024384
300.0024632
300.0024509
300.0024576
300.0024767
300.0024909
300.0024984
300.0025049
300.0025081
300.0025016
300.0024855
300.0024663
300.0024519
300.0024473
300.0024312
300.0024254
300.0024305