/*--------------------------------*- C++ -*----------------------------------*\
  =========                 |
  \\      /  F ield         | OpenFOAM: The Open Source CFD Toolbox
   \\    /   O peration     | Website:  https://openfoam.org
    \\  /    A nd           | Version:  8
     \\/     M anipulation  |
\*---------------------------------------------------------------------------*/
FoamFile
{
    version     2.0;
    format      ascii;
    class       volVectorField;
    location    "1.1";
    object      U;
}
// * * * * * * * * * * * * * * * * * * * * * * * * * * * * * * * * * * * * * //

dimensions      [0 1 -1 0 0 0 0];

internalField   nonuniform List<vector> 
67193
(
(-0.4020415389 -0.3096438314 0.18614143)
(-0.29599213 -0.3328587084 0.1482906244)
(-0.1587099461 -0.3452309531 0.1103362618)
(0.02545615268 -0.3262467781 0.09242536823)
(0.1727914661 -0.3008368488 0.1330025595)
(0.2729238018 -0.271685044 0.1698560359)
(0.337259122 -0.2359483673 0.1954900288)
(0.3646932393 -0.1961099206 0.2065291948)
(0.3644999005 -0.1622664447 0.2011494286)
(0.3525733024 -0.1414077184 0.184044941)
(0.3414772764 -0.1334680728 0.1656952875)
(0.3369865537 -0.132816295 0.1529667767)
(0.3416548345 -0.1384059411 0.147277481)
(0.3549951104 -0.1448283036 0.1465911297)
(0.3742250866 -0.1528214607 0.1479770282)
(0.3992263015 -0.1626086546 0.1504254768)
(0.4302555211 -0.1709519628 0.1534513197)
(0.4646657019 -0.1742505022 0.1563057632)
(0.4977773543 -0.170605648 0.1579403709)
(0.5246656748 -0.1599142513 0.1572304946)
(0.5412925311 -0.1434322149 0.1533316613)
(0.5452552373 -0.12340278 0.1460669184)
(0.5359151397 -0.1025847612 0.1360197124)
(0.5140171414 -0.08344572317 0.124717513)
(0.4814531794 -0.06797385051 0.1142344224)
(0.4410793959 -0.05777765235 0.1061956795)
(0.3966614467 -0.05376688123 0.1010923437)
(0.3524366531 -0.05516706508 0.0982418153)
(0.3113766299 -0.05911569995 0.09650494448)
(0.2734921623 -0.0621272035 0.09508513397)
(0.2352756486 -0.06204951644 0.0938566338)
(0.1960003616 -0.05832303857 0.09359032071)
(0.135955668 -0.04771744227 0.09737616683)
(0.07784071853 -0.020289522 0.1089856516)
(-0.3782256127 -0.4722513788 0.01259841754)
(-0.2791249278 -0.4916082859 -0.03545160937)
(-0.1567832419 -0.4989380769 -0.07210733894)
(0.01464976181 -0.477795718 -0.06951770872)
(0.155289189 -0.4744987195 -0.01931525642)
(0.2671655946 -0.4646344591 0.0307453887)
(0.3446667357 -0.4385214621 0.07741509198)
(0.38210768 -0.3933160695 0.1197266162)
(0.3835549388 -0.3473719005 0.1479378649)
(0.3663349914 -0.3119453542 0.1529177799)
(0.3474785299 -0.2924297828 0.1404982721)
(0.3357088539 -0.2852515715 0.1240119195)
(0.336058145 -0.2924023433 0.111799591)
(0.3489050427 -0.3021565694 0.1034606659)
(0.3708835266 -0.3136031247 0.09527658924)
(0.3998078087 -0.327216 0.08761469822)
(0.433636843 -0.3389834244 0.08266285045)
(0.4689376402 -0.3440385027 0.08179225346)
(0.5015520607 -0.3393216367 0.08491514116)
(0.5274940821 -0.3238096586 0.0908175625)
(0.54352501 -0.2982127981 0.09751656806)
(0.5476481479 -0.2650026405 0.102788653)
(0.5394319525 -0.2283288108 0.1049705089)
(0.5197375814 -0.192901447 0.1036693363)
(0.4903349613 -0.1626798788 0.09988330417)
(0.4537495935 -0.1405105797 0.09474261882)
(0.4129858589 -0.1276340117 0.08859727464)
(0.370999082 -0.1227004672 0.08157212565)
(0.3296016525 -0.1216516128 0.0746524011)
(0.2884953016 -0.1196683835 0.06954434768)
(0.2444384513 -0.1136580324 0.06753579942)
(0.1970624445 -0.1028505291 0.06953896664)
(0.1277827504 -0.08348340552 0.07899860179)
(0.06454087557 -0.04258862147 0.1015824176)
(-0.3799636545 -0.5920275714 -0.07352430639)
(-0.2765121364 -0.6133327291 -0.1232313607)
(-0.1547460319 -0.6235365382 -0.1558654886)
(0.02167849372 -0.6203017035 -0.1379499521)
(0.1645582717 -0.6420085017 -0.07645111354)
(0.2893066707 -0.6600823117 -0.01783742804)
(0.3839713923 -0.6493001035 0.0349698392)
(0.4292113093 -0.589567633 0.08185757434)
(0.4211779285 -0.5290234884 0.1170098759)
(0.3876084769 -0.4800633842 0.1301348459)
(0.3525170041 -0.4512036693 0.1222461618)
(0.326652702 -0.4399229263 0.1055052943)
(0.3181544865 -0.4515404042 0.08867144901)
(0.3284127326 -0.4661902066 0.07319877588)
(0.3534561612 -0.4790143472 0.05625270989)
(0.388726575 -0.4913423624 0.04027996251)
(0.4297879775 -0.5008150326 0.02897601649)
(0.4719837113 -0.5033492049 0.02427799476)
(0.5106920884 -0.4957978188 0.02644991632)
(0.5417114837 -0.4765125604 0.03475621658)
(0.5615347215 -0.4452255002 0.04757297096)
(0.5676523934 -0.4034433489 0.06218858993)
(0.5590679378 -0.3551560141 0.07530114736)
(0.5367017194 -0.3061709895 0.08403787088)
(0.5030665278 -0.2624740804 0.086958701)
(0.4618205642 -0.2284222054 0.08406903426)
(0.4174379742 -0.20569192 0.07609081157)
(0.373978944 -0.1925926853 0.06482144519)
(0.333255109 -0.1845000392 0.05375495216)
(0.2939657497 -0.1761122303 0.04690847208)
(0.2513748464 -0.1639582467 0.04678470619)
(0.2038866724 -0.1472907116 0.05401835967)
(0.1313113671 -0.1240195946 0.0713183301)
(0.06444826519 -0.0878506194 0.1066282002)
(-0.3924552776 -0.5797490113 -0.124676453)
(-0.2901735401 -0.6162647768 -0.1727527576)
(-0.1657003073 -0.6439972694 -0.1977129878)
(0.01042627536 -0.6702683276 -0.1621806208)
(0.1513350066 -0.7306540449 -0.08848937277)
(0.2813313732 -0.7934102676 -0.02186549949)
(0.4137661527 -0.8290001353 0.03710843241)
(0.4836065749 -0.731665905 0.08244428442)
(0.4619801397 -0.651696779 0.1117266299)
(0.4105406997 -0.5901865094 0.1208189414)
(0.358919739 -0.5545489416 0.1130750071)
(0.3170549827 -0.541440733 0.09509756752)
(0.2986736799 -0.5586771962 0.06935198041)
(0.3061408945 -0.5772046194 0.04436400189)
(0.3343604887 -0.5877790957 0.02030039868)
(0.3759623315 -0.5936632794 -0.0001465543553)
(0.4245596407 -0.5960005533 -0.01442094657)
(0.4746451025 -0.5929375152 -0.02147771817)
(0.5211728121 -0.5820992237 -0.02115013652)
(0.5595524861 -0.5616396006 -0.0135962746)
(0.5858061149 -0.5302321411 0.0008652814155)
(0.5964336968 -0.4876371889 0.0206318878)
(0.5892882599 -0.4363822016 0.04255948638)
(0.5643742522 -0.3813308185 0.06194606363)
(0.5244056126 -0.3291553722 0.07397611432)
(0.4749545738 -0.2859367592 0.07538706365)
(0.4234819766 -0.2545609898 0.06618090729)
(0.3766100001 -0.2336506196 0.05042174868)
(0.336737219 -0.2187160088 0.0349143806)
(0.3012729175 -0.2047815347 0.02602846539)
(0.2634052959 -0.1886682874 0.02746836417)
(0.2194746244 -0.1698153143 0.0403918952)
(0.1457266216 -0.147859823 0.06719681096)
(0.0739015929 -0.1265907952 0.1157660781)
(-0.4231556901 -0.5481576468 -0.1506675958)
(-0.3226145821 -0.5881041249 -0.1886143278)
(-0.2004774163 -0.6340702874 -0.1977441362)
(-0.04441842703 -0.6992936145 -0.1423195207)
(0.0926539579 -0.8236705804 -0.07241063841)
(0.2073429387 -0.9437711986 -0.03124867572)
(0.4245873624 -1.119429338 0.02949716348)
(0.5700968952 -0.8826856671 0.09342060944)
(0.5206699623 -0.7575237471 0.121642544)
(0.4451067513 -0.674975819 0.1230898325)
(0.3724848341 -0.6299411058 0.112123728)
(0.3099881282 -0.6146506231 0.08893053851)
(0.2816704961 -0.6349086273 0.04743990597)
(0.2874135314 -0.6539958101 0.01183644004)
(0.3187781965 -0.6594685868 -0.01509176256)
(0.3655901202 -0.6561155514 -0.03447376763)
(0.4200833053 -0.6487787888 -0.04751178883)
(0.4764261186 -0.6382512907 -0.05463747939)
(0.5297293658 -0.6233640641 -0.0556498184)
(0.5754693366 -0.6025678902 -0.05050637033)
(0.6094751858 -0.5738747548 -0.03831718347)
(0.6266148382 -0.5345188479 -0.01846354099)
(0.6235283947 -0.4856856145 0.007765980243)
(0.5986224123 -0.4303744504 0.03585141282)
(0.5536230019 -0.3743143721 0.05826000393)
(0.495142788 -0.3245509372 0.06716610914)
(0.434350142 -0.2859807485 0.05941786345)
(0.3818991108 -0.2586097073 0.04033880995)
(0.3416794358 -0.2385869764 0.02053260577)
(0.3100097453 -0.2214742601 0.008886346632)
(0.2778849326 -0.2044932978 0.01003705821)
(0.2393671711 -0.1871083292 0.02603347249)
(0.1658442217 -0.1695977811 0.06040808394)
(0.09053319614 -0.1622897529 0.1211819294)
(-0.4502169761 -0.5075384939 -0.1339578463)
(-0.3711897133 -0.5420945003 -0.1632005235)
(-0.273332975 -0.6056052754 -0.1547510077)
(-0.1671355062 -0.7148085011 -0.09382627593)
(-0.0372104273 -0.9063344782 -0.06666965637)
(-0.02647797822 -1.106217446 -0.1201388055)
(0.3935056082 -1.566289329 -0.2125520263)
(0.7697148044 -1.043269439 0.05629106532)
(0.6261247074 -0.8407950368 0.1243683546)
(0.5047249804 -0.7292977588 0.1299280405)
(0.3986299774 -0.673334185 0.1163770138)
(0.3078785842 -0.6560468664 0.08286887692)
(0.2704628117 -0.6750203713 0.02056993054)
(0.2766591705 -0.6902570313 -0.0240162927)
(0.311698972 -0.6886528592 -0.04922449774)
(0.3618824429 -0.6784443617 -0.06418569208)
(0.419889043 -0.6643506622 -0.07390381273)
(0.4801044916 -0.6477592286 -0.07955736428)
(0.5377374555 -0.628415826 -0.08071557886)
(0.5883403214 -0.6053195831 -0.07678077525)
(0.627643063 -0.5772830265 -0.0669725349)
(0.6516820379 -0.5433223884 -0.05018888906)
(0.6551709007 -0.500847636 -0.02489057544)
(0.633432928 -0.4497396653 0.007359810189)
(0.5868470205 -0.3943449209 0.03863582602)
(0.5215892753 -0.3414176098 0.05716075125)
(0.4513635125 -0.2977166561 0.05463509054)
(0.3915423215 -0.2655889446 0.03504977857)
(0.3487962898 -0.2424467105 0.01207460509)
(0.3189946381 -0.2245045611 -0.00249869616)
(0.291210026 -0.2092491995 -0.003045553231)
(0.2574243336 -0.1957627017 0.01320918744)
(0.184425517 -0.1838159825 0.05120139576)
(0.1072635706 -0.1821654613 0.1209225814)
(-0.4853123572 -0.462062038 -0.07335873082)
(-0.4443389355 -0.4907393963 -0.09841235328)
(-0.3907674606 -0.5681338061 -0.09255250934)
(-0.3476616404 -0.7054739302 -0.07609293593)
(-0.2629949142 -0.8874377909 -0.1334116992)
(-0.5459697182 -1.077353493 -0.3326547857)
(0.2219597902 -1.247627287 -2.414400801)
(1.18799643 -1.011362118 -0.1852490707)
(0.812092272 -0.8339480665 0.08366995979)
(0.5963362133 -0.7257672822 0.1286739599)
(0.4368082445 -0.673322448 0.1207981964)
(0.3104326708 -0.6604146012 0.07404575852)
(0.2657168532 -0.6758547516 -0.009066003919)
(0.2746796153 -0.6851781477 -0.06004600807)
(0.3129816325 -0.6812768015 -0.08156997615)
(0.3664549354 -0.6675590307 -0.09083151937)
(0.4266910719 -0.6487514969 -0.09618997941)
(0.4884727885 -0.6276297149 -0.09942882127)
(0.5476850869 -0.605078541 -0.09973820658)
(0.6003921131 -0.5807318056 -0.09601957844)
(0.6425865545 -0.5536095391 -0.08743980663)
(0.6702202809 -0.5225337935 -0.07304018792)
(0.6794415434 -0.486365202 -0.05095725959)
(0.6637563295 -0.4426330886 -0.01942435109)
(0.6195204075 -0.3917262715 0.01684446445)
(0.5518669146 -0.3393613282 0.04463535299)
(0.4747698928 -0.2932591804 0.05056675451)
(0.4071715102 -0.2583802924 0.03429326852)
(0.3594619318 -0.2340301954 0.0102601059)
(0.3283366274 -0.2172179915 -0.006784556349)
(0.3017535774 -0.2055238982 -0.00975006489)
(0.269981649 -0.197199305 0.004861348057)
(0.1967354034 -0.1906089394 0.04312520894)
(0.118402526 -0.1875349231 0.1171348675)
(-0.5245388897 -0.4232349227 0.01574247169)
(-0.5334359531 -0.4437137034 -0.02589909184)
(-0.5186065563 -0.5208872265 -0.0738722735)
(-0.4932128169 -0.6342340211 -0.1554482332)
(-0.4042700159 -0.723108066 -0.3152732389)
(-0.5162874227 -0.79228033 -0.6089316074)
(0.3210420636 -0.4311716176 -1.427412835)
(1.127807763 -0.6457415772 -0.4303833956)
(0.923869255 -0.6595767069 -0.02863564563)
(0.6678188969 -0.6335062682 0.09902058805)
(0.4637923842 -0.6181085368 0.1158487026)
(0.3099545722 -0.6229198636 0.05930899267)
(0.2639772957 -0.6375104709 -0.03969966094)
(0.2771257373 -0.6454429513 -0.0935436548)
(0.3210342184 -0.640300897 -0.1117401916)
(0.3784305452 -0.6246762552 -0.1158684872)
(0.4401874977 -0.6032345786 -0.1164854606)
(0.5018328266 -0.5795891804 -0.1164427651)
(0.5602627199 -0.5555516577 -0.1149859963)
(0.612370705 -0.5314042952 -0.1106308413)
(0.654727674 -0.5064796695 -0.1022603357)
(0.6836443981 -0.4796482172 -0.0889605102)
(0.6953643809 -0.4494666989 -0.06921537653)
(0.6859307095 -0.4141316136 -0.04049471471)
(0.6471199381 -0.3707611997 -0.003350038593)
(0.5820826548 -0.3226799084 0.0310225662)
(0.5031719642 -0.2774479612 0.04671318221)
(0.429975125 -0.2421582495 0.03778751813)
(0.3761063706 -0.2184067561 0.01591012036)
(0.3403667329 -0.2040210502 -0.002367388827)
(0.3108782487 -0.1965816915 -0.007745516257)
(0.2770362085 -0.1934686174 0.004384937679)
(0.2016675655 -0.1912876191 0.04079385542)
(0.1216392129 -0.1832440298 0.1144188827)
(-0.5357585602 -0.3957861061 0.06840612679)
(-0.593160715 -0.3980988118 -0.009407615499)
(-0.5843892578 -0.44653864 -0.1359460119)
(-0.5170804709 -0.5071974783 -0.2980944018)
(-0.344849615 -0.5332549373 -0.5083693001)
(-0.02620339629 -0.5486319422 -0.7411182361)
(0.4416502359 -0.004072509625 -0.5382577081)
(0.7690095607 -0.3737463403 -0.3048513364)
(0.7797497769 -0.4812527992 -0.08987688895)
(0.6258983447 -0.5099200349 0.05326148318)
(0.4434138266 -0.5270173729 0.09554706979)
(0.2954568509 -0.549814185 0.03583078313)
(0.2599169408 -0.5684799785 -0.06926900864)
(0.2817507949 -0.57572919 -0.1232121315)
(0.3329033293 -0.5696015969 -0.1390566347)
(0.3948611726 -0.5532165861 -0.1390575448)
(0.4580873166 -0.5310121325 -0.1349645647)
(0.5187309766 -0.506974367 -0.1309762691)
(0.5747799665 -0.4835150414 -0.1268856153)
(0.6241713025 -0.4614590742 -0.1210686046)
(0.6642840294 -0.4404704716 -0.1120302284)
(0.6920057358 -0.4195862911 -0.09867193242)
(0.7040619339 -0.3973450595 -0.07969066803)
(0.6974573543 -0.3714545317 -0.05285063611)
(0.6652178097 -0.3385468346 -0.01719515019)
(0.6068389209 -0.2987915363 0.0201717283)
(0.5326469896 -0.2585786085 0.04433424105)
(0.4594899331 -0.2258098018 0.04573445293)
(0.4012871747 -0.2040823503 0.03047025297)
(0.3590900408 -0.1924159377 0.01363607762)
(0.3224800381 -0.1885616551 0.006638153222)
(0.2814425738 -0.189507932 0.01576520148)
(0.2006842742 -0.1905285895 0.04821516303)
(0.1169939309 -0.1777708188 0.1161436242)
(-0.4734330458 -0.3435763018 0.04793342536)
(-0.5569222854 -0.3158313919 -0.046500452)
(-0.5557408673 -0.3206125009 -0.2089660252)
(-0.4770762256 -0.3435285975 -0.394235844)
(-0.29319731 -0.3608099351 -0.6122047787)
(0.01289799243 -0.3725492282 -0.8266754191)
(0.4116835449 -0.2796074239 -0.5918357821)
(0.6941401599 -0.3264909362 -0.3735191509)
(0.7085764387 -0.3597509132 -0.1483248411)
(0.5762531316 -0.3844616663 0.01319255106)
(0.4076786577 -0.4151764912 0.06529848914)
(0.2777611654 -0.4501716573 0.003728585995)
(0.2562589736 -0.4751642654 -0.09696911972)
(0.2881308347 -0.482071756 -0.1477586966)
(0.3463835457 -0.4749305442 -0.1615896603)
(0.4126485963 -0.458483554 -0.1584566536)
(0.4772104094 -0.4370612064 -0.1502083372)
(0.5364828368 -0.4146672139 -0.1421546937)
(0.589296415 -0.3939670754 -0.1348429728)
(0.6345903667 -0.3761981193 -0.1267876511)
(0.6706427957 -0.3613512038 -0.1161161455)
(0.6949905013 -0.3487274514 -0.1013096683)
(0.7049546183 -0.3370158479 -0.08103982813)
(0.6983635132 -0.3235851954 -0.05377264571)
(0.670076713 -0.3042848549 -0.01919890865)
(0.6197369316 -0.2776952005 0.01786770367)
(0.5560678121 -0.2481202127 0.04624164208)
(0.491085202 -0.2222190971 0.05733320659)
(0.4345533229 -0.2039802804 0.05259247631)
(0.3873974409 -0.1937194231 0.0419749738)
(0.3413193738 -0.1903401982 0.03594639776)
(0.2883949034 -0.1917056271 0.04185227393)
(0.1978605932 -0.1932757344 0.06710379029)
(0.1071140613 -0.1797365822 0.1230057692)
(-0.3284333337 -0.2616340675 0.02250941336)
(-0.3985751849 -0.2032647742 -0.03014276854)
(-0.4038339421 -0.1695160788 -0.1808730278)
(-0.3361526918 -0.1433540951 -0.328627327)
(-0.1889883605 -0.1094863112 -0.4893611299)
(0.08853446021 -0.04208908345 -0.6247231248)
(0.3489125879 -0.01470787564 -0.4519922279)
(0.5139315447 -0.1042157691 -0.2437399231)
(0.522950775 -0.1829682443 -0.07730203566)
(0.4397213176 -0.2433324641 0.01284001639)
(0.3330200767 -0.2943804972 0.02961425495)
(0.2531244654 -0.3388421185 -0.03403896489)
(0.2535651265 -0.3666148917 -0.1202312476)
(0.2960538155 -0.3721769552 -0.1644940224)
(0.3598513836 -0.364150955 -0.1760298803)
(0.4289698351 -0.3485325548 -0.1705498755)
(0.4941229361 -0.3293443634 -0.1591367047)
(0.5517302795 -0.310338831 -0.1476417057)
(0.6009497192 -0.2943317649 -0.1370645474)
(0.6413762294 -0.283027686 -0.1261379043)
(0.6720981376 -0.2768030414 -0.1125652245)
(0.6912545507 -0.2752897345 -0.09420897146)
(0.6967572866 -0.2773260192 -0.06973323022)
(0.6870999375 -0.2798593104 -0.03917735343)
(0.6586552854 -0.2785434954 -0.004764593534)
(0.6154279026 -0.2708592954 0.02801382278)
(0.5650686066 -0.2584410358 0.05261748099)
(0.5144680052 -0.2448367459 0.06589514508)
(0.4668536473 -0.2322792207 0.06954905501)
(0.4201560259 -0.2213788937 0.06871771271)
(0.3670515467 -0.21270371 0.0689509138)
(0.3019985511 -0.2069715288 0.07460141868)
(0.1994417437 -0.2029374806 0.09120377284)
(0.09986121495 -0.1924798875 0.1312009356)
(-0.2118202448 -0.2138960575 0.00362871101)
(-0.233072931 -0.1210465395 0.06608596111)
(-0.2729195312 -0.01972362782 -0.04572648774)
(-0.227846623 0.04220738676 -0.1826886927)
(-0.1316372412 0.08835107343 -0.2986058213)
(0.08911600931 0.1261956088 -0.3440251992)
(0.2816285936 0.09854976774 -0.2062065047)
(0.3784747612 0.008645997724 -0.08788778986)
(0.3785654714 -0.08048619445 -0.02470690456)
(0.3338675836 -0.1447485762 -0.004745301092)
(0.2792271807 -0.1899710702 -0.01252886575)
(0.2422988904 -0.2283148276 -0.06510539196)
(0.2580070225 -0.2516180193 -0.1317066149)
(0.3063875749 -0.2549196605 -0.1680079748)
(0.371869736 -0.2470854851 -0.1766827149)
(0.441346778 -0.2343876223 -0.1688367026)
(0.5060685788 -0.2195530073 -0.1551289833)
(0.5618299205 -0.2056131216 -0.1415504146)
(0.6072872478 -0.1958801036 -0.1285452427)
(0.6422071701 -0.1929650831 -0.1145286116)
(0.6663698983 -0.1978689344 -0.09638030776)
(0.6786054276 -0.2104263655 -0.07141819255)
(0.6775463138 -0.2294652776 -0.0397995581)
(0.6614164956 -0.2522304794 -0.005929844536)
(0.6318155276 -0.2732307136 0.02346202206)
(0.5955275173 -0.2873175413 0.04354232233)
(0.5579727893 -0.2932381852 0.05424401235)
(0.5213638786 -0.2921413732 0.05911555753)
(0.4842120745 -0.285328459 0.06259661877)
(0.442296532 -0.2733079342 0.06814539793)
(0.3884054949 -0.2566696489 0.07747269632)
(0.318175509 -0.2377734307 0.08979052082)
(0.2082139924 -0.2200886498 0.1049985482)
(0.1029957262 -0.208176288 0.135932681)
(-0.1993762503 -0.1802645345 -0.03405880773)
(-0.1493939774 -0.1156515019 0.0682703983)
(-0.1753917097 0.02613733815 0.06752937367)
(-0.1566865292 0.1199538381 -0.05404489031)
(-0.08696073342 0.1813987664 -0.1625200495)
(0.0757106773 0.205677814 -0.1690410445)
(0.2074652548 0.1563673795 -0.09786036776)
(0.265595244 0.07426015046 -0.05537969608)
(0.2811842159 -0.00120938721 -0.04395368476)
(0.2714858327 -0.05526340323 -0.04297224715)
(0.2532689341 -0.08979686213 -0.05020022227)
(0.2448589223 -0.1183018126 -0.08158834759)
(0.2677280703 -0.135794819 -0.1255662615)
(0.3162626333 -0.1387781841 -0.1509592743)
(0.3787735006 -0.1337949566 -0.1537857536)
(0.4462956529 -0.1280725691 -0.1398989968)
(0.5113415015 -0.1202249132 -0.1222059314)
(0.5669011331 -0.1120689384 -0.1075652879)
(0.6091496193 -0.1093504694 -0.09413879577)
(0.6376483377 -0.116311914 -0.07792226694)
(0.6533825743 -0.1346269619 -0.05405572353)
(0.6568476027 -0.1646303157 -0.0218976305)
(0.6464309191 -0.2065147323 0.01138713576)
(0.6246624858 -0.2529036322 0.03528499456)
(0.5974642058 -0.2931242398 0.04534665039)
(0.5692645079 -0.3206751051 0.04448352415)
(0.541904382 -0.3348252264 0.03901943432)
(0.5144150005 -0.3381208666 0.03446746876)
(0.483789765 -0.3331217693 0.03419926776)
(0.4461079356 -0.3205729706 0.04031113571)
(0.395158932 -0.2996314303 0.05430011358)
(0.3276133887 -0.2708803707 0.07489878397)
(0.2187240666 -0.2385671679 0.09886341424)
(0.1136063813 -0.2154666114 0.1362629482)
(-0.1942472926 -0.1524173764 -0.1131524735)
(-0.07518946891 -0.1240476856 -0.04739638648)
(-0.02898523482 0.03895350123 0.1006655787)
(-0.05926081807 0.1650991186 0.05138438574)
(-0.04289167807 0.2321017279 -0.05707043003)
(0.05682478931 0.2157416175 -0.0768998708)
(0.152796145 0.1967152139 -0.06984651027)
(0.1835321381 0.1377758186 -0.07089849191)
(0.2030553851 0.08524232339 -0.07525732892)
(0.2128256334 0.04379979128 -0.07539939772)
(0.2217936955 0.01377331936 -0.07541495091)
(0.2376488086 -0.009934255219 -0.0850814284)
(0.2689149148 -0.02587637371 -0.1013183781)
(0.3170251565 -0.03642477455 -0.1068994495)
(0.3737557869 -0.04397883786 -0.09649541191)
(0.4399364847 -0.061089899 -0.06748732474)
(0.5146079068 -0.06881137594 -0.04088666442)
(0.577846058 -0.06656362716 -0.02506319355)
(0.6182012553 -0.06675963642 -0.01436826499)
(0.6370000562 -0.0790099729 0.0005253377889)
(0.6374333893 -0.111420189 0.0228451107)
(0.6238070977 -0.1638572583 0.04447596472)
(0.6029214663 -0.2247161896 0.05417511799)
(0.5801240494 -0.2802348385 0.04911885674)
(0.5584218905 -0.3214432755 0.03533731872)
(0.538356702 -0.3461520617 0.02044707774)
(0.5186146937 -0.3572911149 0.009255245718)
(0.4968264704 -0.3589539977 0.003379927753)
(0.469896165 -0.3539439685 0.002979655045)
(0.4351890266 -0.3424266733 0.008849200315)
(0.3879624016 -0.3218128523 0.02348374405)
(0.326081335 -0.2905169205 0.04816489694)
(0.2226938302 -0.2504502363 0.08240586309)
(0.1221733131 -0.2135858816 0.1344930374)
(-0.190998699 -0.1074273725 -0.2006605572)
(-0.02553630108 -0.1029234347 -0.1792889736)
(0.1091273286 0.01878809966 -0.0238867348)
(0.08203640105 0.1714998348 0.08566000255)
(0.005266151885 0.2766445546 0.02727621157)
(0.04950021126 0.2233121099 -0.2277582779)
(0.1393570848 0.2593822607 -0.06608649367)
(0.130591481 0.2153496957 -0.07625383931)
(0.146973443 0.1721205564 -0.08012915305)
(0.1604727651 0.1345699142 -0.0762366422)
(0.1773293505 0.1033007073 -0.07250675662)
(0.2021038672 0.07479168068 -0.0722804667)
(0.2355813793 0.05140923832 -0.07073713794)
(0.2828196888 0.02373064424 -0.0553904114)
(0.3313188765 -0.003218436071 -0.028673183)
(0.3964953698 -0.07939350026 0.004784991532)
(0.4983490673 -0.1193795537 0.03189115364)
(0.5806801585 -0.1133755765 0.05711467933)
(0.6203029362 -0.09907019811 0.07369475251)
(0.6217845011 -0.1062670738 0.08232462607)
(0.6000564173 -0.1422392723 0.08307437049)
(0.571373402 -0.1962509301 0.07125269644)
(0.5463355395 -0.2514330076 0.04800396251)
(0.5277064726 -0.2957784562 0.02167843107)
(0.513846009 -0.3253169722 0.0001013249955)
(0.5016602716 -0.3413099471 -0.01393277182)
(0.4880911827 -0.3478423764 -0.02083939667)
(0.4704131515 -0.348697688 -0.02239595575)
(0.4457089072 -0.346253357 -0.01999480507)
(0.4132990078 -0.3396797381 -0.0129666394)
(0.3696647988 -0.324139511 0.002506062552)
(0.3134262016 -0.296637292 0.02946286264)
(0.2159535301 -0.2570013374 0.07071223127)
(0.1225886392 -0.2112118786 0.1350702648)
(-0.2082306882 -0.0504947396 -0.2870439332)
(0.01634982946 -0.07142941084 -0.2921123913)
(0.179694316 0.1110633422 -0.1853269583)
(0.1979151917 0.2339814983 -0.02656252924)
(0.1332973522 0.341210452 0.03992740975)
(0.0836453669 0.3983146755 -0.01203937553)
(0.07702983963 0.3436354975 -0.05021516875)
(0.07907347005 0.3002507991 -0.07218909633)
(0.09254484734 0.2585731119 -0.07428387748)
(0.1074076665 0.2181803354 -0.06996310936)
(0.1268355325 0.1807687833 -0.06629648627)
(0.1525547991 0.1429318029 -0.05988540373)
(0.1759783041 0.1069045358 -0.04659056017)
(0.2161330996 0.05044893976 -0.01098587927)
(0.2469113281 -0.007463727888 0.01895803583)
(0.3258892969 -0.1707461057 -0.06077885942)
(0.4586919201 -0.2465506798 -0.06870847246)
(0.5645488337 -0.2363130145 -0.0132012982)
(0.6050582177 -0.1937443858 0.05242669223)
(0.5897376854 -0.1694460156 0.08653204834)
(0.550086061 -0.1801880227 0.07922382682)
(0.5137971078 -0.212815371 0.04637255014)
(0.4910906462 -0.2480992786 0.009167504612)
(0.4792299669 -0.275726989 -0.01961199109)
(0.4723492251 -0.2937993592 -0.03640001251)
(0.4655425581 -0.3039324787 -0.04315692561)
(0.4551528835 -0.3087451462 -0.04284489362)
(0.4381724872 -0.3111176061 -0.03826622285)
(0.4135737326 -0.3160242159 -0.03206551915)
(0.3833248042 -0.3207525822 -0.02288419897)
(0.3432150166 -0.3160020963 -0.003866491399)
(0.2905618519 -0.2977061435 0.02745813758)
(0.195017145 -0.2662194571 0.07422609478)
(0.1085772222 -0.221787109 0.144080882)
(-0.2703728656 0.1027582821 -0.5799440819)
(-0.01054064608 0.05870952172 -0.7906654857)
(0.2570637352 0.25877946 -0.2962942058)
(0.2493859961 0.3583943332 -0.1147567723)
(0.1952551199 0.4385130709 0.005635789599)
(0.09649576995 0.467031482 0.01924585462)
(0.04482521256 0.4267185577 -0.03067549319)
(0.03410468165 0.381042595 -0.05874201008)
(0.03973429933 0.3376917265 -0.06290050776)
(0.05285783444 0.2929053151 -0.06302168523)
(0.06911291188 0.2519055591 -0.06203735302)
(0.08691922962 0.2074716292 -0.04988949283)
(0.0801182658 0.1587994649 -0.02871956373)
(0.09509336163 0.07169904356 0.01746142928)
(0.07050359183 -0.02113544855 -0.03395060879)
(0.2545532968 -0.1725879282 -0.2639750107)
(0.4124403208 -0.2335242984 -0.2730992084)
(0.5430954198 -0.2297765543 -0.1979349622)
(0.6007694683 -0.1995312582 -0.08735570206)
(0.5782018136 -0.1714821256 0.001899185845)
(0.5206307965 -0.1676379993 0.02697160073)
(0.4747699168 -0.1833200487 0.003103119114)
(0.451591333 -0.2039459938 -0.03037831206)
(0.4427594357 -0.2217466208 -0.05272949289)
(0.4390837313 -0.2344397423 -0.06208265471)
(0.433826552 -0.2428075524 -0.06205108893)
(0.4227701845 -0.2493076646 -0.05551007493)
(0.4030925991 -0.2571929387 -0.04508572865)
(0.3761936214 -0.2751392242 -0.03582395557)
(0.3499807301 -0.298752309 -0.02572324131)
(0.315286294 -0.3107036207 0.000904562029)
(0.2629320566 -0.3054530765 0.04442001664)
(0.1598832754 -0.2895943227 0.1010195135)
(0.07400827743 -0.2718560569 0.1713043312)
(-0.1920789401 0.3864696537 -0.345104311)
(0.01665536631 0.4144115109 -0.3892611522)
(0.178599989 0.4365667937 -0.25898051)
(0.2232940223 0.496088585 -0.130993683)
(0.1861269865 0.5502648987 -0.004491523629)
(0.07088099395 0.5591867477 0.03785376472)
(0.004290492424 0.5067833775 -0.01149326112)
(-0.01214592246 0.4526602112 -0.04184670524)
(-0.01157941648 0.4063072891 -0.050520483)
(0.0004121512963 0.3603593378 -0.05677210983)
(0.01042635131 0.3219462111 -0.05770819912)
(0.01354378307 0.2894804478 -0.0352669466)
(-0.0407282904 0.2442306229 -0.01003670339)
(-0.08216442044 0.1572857398 -0.05517002141)
(-0.06529093995 0.03433221763 -0.2591590452)
(0.2076048696 -0.0833802443 -0.4647503435)
(0.3695568954 -0.1164576323 -0.4372450927)
(0.5111886758 -0.1121810045 -0.3513180382)
(0.5804705033 -0.0957885871 -0.2280217828)
(0.5687004289 -0.08114855011 -0.1024569469)
(0.5063588093 -0.08424775112 -0.03377715415)
(0.4523753772 -0.1027457137 -0.03377310341)
(0.4264677942 -0.1238898416 -0.05738449716)
(0.417153535 -0.1401797239 -0.07342796092)
(0.4125165542 -0.1518966396 -0.07732197763)
(0.4045012824 -0.1619539151 -0.07214588252)
(0.3888159544 -0.1743011628 -0.05957543227)
(0.3630393226 -0.1936116477 -0.0431136842)
(0.3357503667 -0.2364078058 -0.03942202819)
(0.3218735814 -0.2886652395 -0.03957425773)
(0.2988994956 -0.3225807092 -0.005017795327)
(0.2472276545 -0.3334924304 0.06209136326)
(0.132013754 -0.3439208438 0.1385795344)
(0.04352167081 -0.4054005087 0.210521075)
(-0.2050451142 0.4502729633 -0.4150189383)
(0.004703947701 0.4758935808 -0.3550334208)
(0.1531731721 0.5577557886 -0.2177575664)
(0.1791492946 0.6038393875 -0.1014823831)
(0.1317256695 0.6411931939 0.02026522649)
(0.01189405299 0.6290317434 0.0562610589)
(-0.04309780795 0.5654023724 0.003745225433)
(-0.05818256498 0.5060216638 -0.02575333325)
(-0.0560283018 0.4582102958 -0.03970525797)
(-0.04180190122 0.416647353 -0.05081168109)
(-0.03088297863 0.3881359605 -0.05260457861)
(-0.02944516953 0.3786568842 -0.02787492314)
(-0.08145581499 0.3612006935 -0.01714328831)
(-0.1107669769 0.3043125154 -0.09744696691)
(-0.05510336029 0.1937302567 -0.3050358522)
(0.1551867661 0.1367338305 -0.4509936888)
(0.3088112846 0.1277088238 -0.3991776422)
(0.427351331 0.1225457014 -0.2847571057)
(0.4682581076 0.1047457576 -0.1597000244)
(0.4467313019 0.0813532484 -0.07374327806)
(0.4115489038 0.04392477834 -0.05411892325)
(0.3948791669 0.003817757333 -0.06902438167)
(0.3914887874 -0.02696333329 -0.08510297319)
(0.3911257206 -0.04756520085 -0.0916108334)
(0.3864993959 -0.06282656718 -0.08862893299)
(0.3721785887 -0.07679211686 -0.07678788067)
(0.3476410806 -0.09704750122 -0.05463909424)
(0.3106686621 -0.1339071006 -0.03197172181)
(0.2931540319 -0.2134299137 -0.05847486003)
(0.3054236313 -0.2950589465 -0.08844660682)
(0.3029806916 -0.3517432005 -0.05508808351)
(0.2629849669 -0.385588223 0.03502371999)
(0.1525630935 -0.4357717492 0.1377545935)
(0.06765186877 -0.5874737845 0.2247052855)
(-0.1788851335 0.5940544084 -0.2602728803)
(-0.02429980095 0.6081994233 -0.2503084313)
(0.08863940487 0.6411042508 -0.148583302)
(0.1061100428 0.6740876495 -0.04032076363)
(0.04167983783 0.6899464521 0.06284086773)
(-0.05627143571 0.6567258443 0.06595866999)
(-0.08877705075 0.5907488016 0.01535400951)
(-0.09754598171 0.5334138237 -0.01229610716)
(-0.08911868453 0.4879457152 -0.02988943028)
(-0.07001043199 0.4535365811 -0.04339438366)
(-0.05352136833 0.436334007 -0.04512021446)
(-0.04509882465 0.4448006601 -0.02081549167)
(-0.07926530593 0.4507734066 -0.005950466884)
(-0.09918221999 0.4287595066 -0.06166745736)
(-0.05828155233 0.3497184849 -0.2263033832)
(0.1059445796 0.3236458443 -0.3399519618)
(0.2414889819 0.3094144762 -0.2815259983)
(0.3389861901 0.2749537031 -0.1606031792)
(0.3690743352 0.2053476256 -0.07515834572)
(0.3706984412 0.1611325735 -0.04195560867)
(0.3647142696 0.1203278953 -0.05326062895)
(0.366291021 0.09074029768 -0.07249998816)
(0.3703156627 0.07243503072 -0.08267543178)
(0.3701801064 0.06083004296 -0.08188848203)
(0.3598532376 0.04939951122 -0.07170906703)
(0.3346706994 0.02832045182 -0.05234495093)
(0.3001833115 -0.014045671 -0.02073028507)
(0.236586779 -0.08970727788 -0.008414518452)
(0.2490886097 -0.1991589073 -0.1041720371)
(0.2896840366 -0.286445784 -0.1564364533)
(0.3107120455 -0.3669288999 -0.1354764174)
(0.296123001 -0.4355981649 -0.05116568939)
(0.2136450527 -0.525250135 0.06472997582)