/*--------------------------------*- C++ -*----------------------------------*\
  =========                 |
  \\      /  F ield         | OpenFOAM: The Open Source CFD Toolbox
   \\    /   O peration     | Website:  https://openfoam.org
    \\  /    A nd           | Version:  8
     \\/     M anipulation  |
\*---------------------------------------------------------------------------*/
FoamFile
{
    version     2.0;
    format      ascii;
    class       Cloud<basicReactingMultiphaseParcel>;
    location    "0.1/lagrangian/reactingCloud1";
    object      positions;
}
// * * * * * * * * * * * * * * * * * * * * * * * * * * * * * * * * * * * * * //

9
(
(0.7222564595 0.08173888415 0.05386408725 0.1421405691) 62843 186941 1
(0.3077023229 0.02807852235 0.3061006788 0.358118476) 31655 100684 1
(0.03031568981 0.138860491 0.2170778594 0.6137459598) 67016 197071 2
(0.3937132565 0.104304359 0.3505585684 0.151423816) 34392 107546 2
(0.1911392004 0.2483232287 0.1196241977 0.4409133732) 66132 195160 1
(0.44940494 0.1446628884 0.2722271504 0.1337050212) 38724 122633 2
(0.6885614379 0.1275099325 0.1654994607 0.01842916886) 42053 132288 1
(0.3535611799 0.04345899969 0.2602564877 0.3427233327) 37785 119882 2
(0.1549977987 0.2316351097 0.04889790294 0.5644691887) 42053 132375 1
)


// ************************************************************************* //
