/*--------------------------------*- C++ -*----------------------------------*\
  =========                 |
  \\      /  F ield         | OpenFOAM: The Open Source CFD Toolbox
   \\    /   O peration     | Website:  https://openfoam.org
    \\  /    A nd           | Version:  8
     \\/     M anipulation  |
\*---------------------------------------------------------------------------*/
FoamFile
{
    version     2.0;
    format      ascii;
    class       vectorField;
    location    "0.1/lagrangian/reactingCloud1";
    object      U;
}
// * * * * * * * * * * * * * * * * * * * * * * * * * * * * * * * * * * * * * //

9((-0.8492453745 -0.02107444635 -2.325091407) (-0.5270925145 -1.130225032 -2.10150075) (-0.6332916276 -0.1767023982 -2.398450119) (-0.6360077225 -0.7869781447 -2.12769981) (-0.4657078322 0.060640525 -2.480032135) (-1.098281523 0.1666008769 -1.8518349) (-1.057984689 0.2680274901 -1.758677775) (-0.4929993788 -0.7716602556 -2.064879839) (-1.097338173 0.5868361493 -1.658029316))

// ************************************************************************* //
