/*--------------------------------*- C++ -*----------------------------------*\
  =========                 |
  \\      /  F ield         | OpenFOAM: The Open Source CFD Toolbox
   \\    /   O peration     | Website:  https://openfoam.org
    \\  /    A nd           | Version:  8
     \\/     M anipulation  |
\*---------------------------------------------------------------------------*/
FoamFile
{
    version     2.0;
    format      ascii;
    class       scalarField;
    location    "1/lagrangian/reactingCloud1";
    object      d;
}
// * * * * * * * * * * * * * * * * * * * * * * * * * * * * * * * * * * * * * //


184
(
0.0005267971262
0.0005076085701
0.0007544971366
0.0006329282275
0.0006357717504
0.001064322095
0.0007099934585
0.001195140168
0.0009192770399
0.001042463311
0.000559412244
0.0006292226653
0.0006642675781
0.001080711796
0.000836905045
0.0005818154279
0.0005595750338
0.0006308354945
0.001149005111
0.0006112490355
0.001116057799
0.0005475859603
0.0007871720289
0.0005332902003
0.0006366556638
0.0005367769966
0.0006427188158
0.0006355558165
0.0007735962436
0.0008606286709
0.0006991282338
0.0007238296888
0.0006867966873
0.0005397334417
0.0006043836141
0.0006734436129
0.0009490895007
0.0006412644646
0.0008583597305
0.0006256463557
0.0008052245273
0.001184162953
0.0005258571132
0.0008084112854
0.0009943228255
0.0009311754566
0.001078008643
0.0006889659668
0.0006621277422
0.0005274616824
0.0006622574217
0.0006086871483
0.0005206803542
0.0006282178172
0.0005355270297
0.0008669378926
0.001035477565
0.0006029437577
0.001082499031
0.0005072967658
0.0007217177223
0.0006505520864
0.001092300999
0.0005319026515
0.0005108256209
0.000901942085
0.000978705155
0.0009311754566
0.0005657164825
0.000648793637
0.0005725601378
0.0006712119376
0.0005878491959
0.0007076834411
0.0007852373519
0.001088317646
0.0007032348286
0.0005334355728
0.0005496803283
0.0005527969513
0.001105779801
0.0005020896695
0.0006876851942
0.0008094891584
0.0005913984501
0.0006638904271
0.0009377836805
0.001099963802
0.0007115236446
0.0005858064043
0.0005959866406
0.0007908147222
0.0005780185697
0.0007499194873
0.001044933881
0.0006233571696
0.000568264768
0.0006464194476
0.0008414650892
0.0008547923706
0.0006262078095
0.0009117126465
0.0006236820255
0.0006162908846
0.0006215264975
0.0009077092675
0.0007191508156
0.0005046543162
0.0009636307189
0.0006771506146
0.000920778852
0.0005851430126
0.0007012910442
0.0008831841713
0.0005820021559
0.0007074127226
0.0006035632653
0.000769129551
0.0007333494227
0.000742986804
0.0006932736462
0.0005419113158
0.0007094372208
0.0007925246869
0.0005454347907
0.0006438850473
0.0005506456707
0.0006524410633
0.0007336481964
0.0005206803542
0.0007783849126
0.0006914901202
0.0008514805486
0.001029483146
0.0007329407797
0.0008230550389
0.0005129477127
0.0007490412879
0.0007471933006
0.0009654282493
0.000525755183
0.0005976876615
0.0005533372963
0.0006864974306
0.0005327327593
0.0008179122469
0.0009864149174
0.0005411172282
0.0006635501751
0.000544113611
0.0005577349014
0.0010566954
0.000746802102
0.0007518354203
0.0006269801282
0.001174321799
0.0005723554868
0.0005155859931
0.0005654290872
0.0009142031888
0.0005983215956
0.0006547649137
0.0005803368864
0.0006426045109
0.0006948104407
0.0008946519085
0.0005329862189
0.0006449986523
0.0008491885094
0.00100460833
0.0005742950519
0.0006005436228
0.0007408603752
0.0008248851971
0.0007981267805
0.001049940853
0.0006379617125
0.0005979964963
0.001179226945
0.0005477830486
0.0006887259353
0.0007950343217
0.0008940757366
0.0007563249291
)


// ************************************************************************* //
