/*--------------------------------*- C++ -*----------------------------------*\
  =========                 |
  \\      /  F ield         | OpenFOAM: The Open Source CFD Toolbox
   \\    /   O peration     | Website:  https://openfoam.org
    \\  /    A nd           | Version:  8
     \\/     M anipulation  |
\*---------------------------------------------------------------------------*/
FoamFile
{
    version     2.0;
    format      ascii;
    class       scalarField;
    location    "1/lagrangian/reactingCloud1";
    object      mass0;
}
// * * * * * * * * * * * * * * * * * * * * * * * * * * * * * * * * * * * * * //


184
(
7.612698162e-08
6.810754969e-08
2.236563363e-07
1.32029754e-07
1.338172496e-07
6.312739338e-07
1.873965816e-07
8.889246485e-07
4.045271353e-07
5.899167889e-07
9.116000127e-08
1.29724347e-07
1.526291855e-07
6.60888656e-07
3.052368604e-07
1.025567192e-07
9.12396075e-08
1.30724438e-07
7.899039783e-07
1.189222124e-07
7.238831706e-07
8.549984618e-08
2.539904461e-07
7.897674472e-08
1.343761643e-07
8.053600965e-08
1.382520124e-07
1.336809466e-07
2.410746118e-07
3.319371412e-07
1.779421947e-07
1.974774889e-07
1.686914201e-07
8.187407421e-08
1.149599227e-07
1.590421119e-07
4.451741378e-07
1.3731562e-07
3.293187235e-07
1.275249544e-07
2.718688214e-07
8.646549428e-07
7.613807303e-08
2.751094583e-07
5.119065028e-07
4.204389865e-07
6.523417105e-07
1.702949333e-07
1.511589174e-07
7.641544844e-08
1.512477494e-07
1.174331785e-07
7.350586518e-08
1.291038423e-07
7.997469763e-08
3.392910285e-07
5.781366479e-07
1.141402525e-07
6.605275982e-07
6.798211933e-08
1.957539473e-07
1.43368797e-07
6.786336829e-07
7.836188683e-08
6.941070148e-08
3.820712633e-07
4.908561647e-07
4.204389877e-07
9.427681801e-08
1.422093543e-07
9.77398675e-08
1.574662317e-07
1.057806434e-07
1.845548744e-07
2.521223046e-07
6.749407262e-07
1.810962819e-07
7.904134832e-08
8.648464431e-08
8.844953213e-08
7.040676284e-07
6.591014657e-08
1.702815696e-07
2.777357158e-07
1.077082489e-07
1.523693583e-07
4.294537815e-07
6.930165379e-07
1.875756365e-07
1.046816995e-07
1.10234616e-07
2.57532863e-07
1.005619744e-07
2.196101136e-07
5.941209291e-07
1.261302613e-07
9.555658298e-08
1.406538619e-07
3.102535265e-07
3.252297987e-07
1.278685847e-07
3.946229656e-07
1.263275584e-07
1.218893192e-07
1.250222655e-07
3.894473267e-07
1.936726748e-07
6.692531049e-08
4.659510847e-07
1.616829593e-07
4.065129894e-07
1.043264642e-07
1.795987448e-07
3.607052413e-07
1.026554944e-07
1.843431555e-07
1.144924415e-07
2.369228304e-07
2.053720233e-07
2.135756417e-07
1.735091943e-07
8.286918698e-08
1.859303681e-07
2.592070541e-07
8.449615111e-08
1.390059658e-07
8.6941095e-08
1.44621306e-07
2.056231375e-07
7.391153078e-08
2.455792383e-07
1.721735193e-07
3.214641986e-07
5.68154095e-07
2.050288977e-07
2.91934389e-07
7.066720506e-08
2.188394881e-07
2.184225788e-07
4.68563469e-07
7.567616351e-08
1.111811829e-07
8.822227442e-08
1.684710052e-07
7.872934356e-08
2.849236846e-07
4.997897128e-07
8.250542443e-08
1.521352046e-07
8.388362483e-08
9.034245449e-08
6.144094252e-07
2.168827513e-07
2.212976313e-07
1.283422792e-07
8.432760918e-07
9.763509885e-08
7.136935143e-08
9.413320742e-08
3.97865805e-07
1.121508727e-07
1.461721438e-07
1.017768358e-07
1.381782628e-07
1.746656186e-07
3.728813796e-07
7.884176872e-08
1.397284496e-07
3.18875201e-07
5.279572319e-07
9.863104673e-08
1.134050256e-07
2.117471241e-07
2.938861724e-07
2.647427463e-07
6.027024007e-07
1.352048479e-07
1.113536192e-07
8.585998428e-07
8.559219915e-08
1.701170063e-07
2.631214508e-07
3.721614166e-07
2.265290316e-07
)


// ************************************************************************* //
