/*--------------------------------*- C++ -*----------------------------------*\
  =========                 |
  \\      /  F ield         | OpenFOAM: The Open Source CFD Toolbox
   \\    /   O peration     | Website:  https://openfoam.org
    \\  /    A nd           | Version:  8
     \\/     M anipulation  |
\*---------------------------------------------------------------------------*/
FoamFile
{
    version     2.0;
    format      ascii;
    class       scalarField;
    location    "1/lagrangian/reactingCloud1";
    object      nParticle;
}
// * * * * * * * * * * * * * * * * * * * * * * * * * * * * * * * * * * * * * //


184
(
100.201465
2523.80961
100.605322
103.8346216
100.5841464
797.9919011
2661.774239
100.2795121
100.6001202
135.3084642
100.7052528
101.3201879
100.1135299
756.8884253
100.1600784
100.8492632
101.3556581
101.1795879
100.1126163
100.4841675
323.1438054
100.2166386
100.139054
100.031847
100.1043691
101.7033364
104.5190358
107.3642904
100.1015484
101.4638411
101.6939249
100.2297677
105.0231022
100.4118252
101.5567881
106.7405977
100.0198604
104.4177757
101.0183434
102.6817108
100.744469
100.4803045
6447.154017
100.8590168
100.0814645
100.2890238
100.6218891
101.0892971
101.7747739
106.5454741
101.6961173
100.4141876
100.6126629
101.7280676
101.8540015
100.7447356
100.062543
100.3377113
100.8112166
108.3669636
100.1520686
103.3582913
237.1647366
100.8991375
101.1246101
100.0300134
1020.983847
100.8799664
100.0502429
398.8180192
102.5642461
515.1616191
100.3548547
100.222726
101.3414129
746.8440341
100.0821012
105.4063889
100.1854506
5701.441109
100.1327865
120.2562986
2871.382734
1836.448246
100.2818605
100.2080243
100.0378516
100.3449113
100.3375032
101.0629988
103.4213591
1257.326382
104.5565198
101.4594747
101.4928022
112.2036587
107.2563951
101.6310154
102.7919119
101.5296832
112.3392901
100.0840843
108.0322099
107.8639942
100.987235
100.0775613
101.1849178
112.1119046
100.123543
103.660882
100.0258528
109.4958722
104.1068164
1397.533093
105.2843391
102.1629278
104.2662649
103.527918
100.6845486
102.9039279
101.6510916
105.3531289
104.7251429
101.0118379
100.6149854
225.4328574
106.7670396
100.3496924
100.117337
6871.33188
105.7794931
101.6051135
102.7511029
100.0134802
101.8158654
1675.241602
7186.794176
100.1972077
2325.174717
101.5406239
109.4077529
100.2170423
103.6368237
100.3480996
101.4809141
101.4752088
100.3082911
100.0303569
100.6290796
101.1780439
100.5535823
100.3383973
121.4423144
100.1170692
101.5221255
100.1485492
109.2182475
100.4602461
106.6200449
101.302117
4528.459257
103.4184216
101.8064714
100.2603851
101.0595232
100.1084781
102.0682553
100.9973924
100.0432898
100.0763214
100.3771982
4312.512879
101.0457474
1674.443667
101.1589453
100.2196672
100.825315
101.3674444
591.5103083
100.6072086
187.3537829
1846.575876
100.0283229
2241.967196
)


// ************************************************************************* //
