/*--------------------------------*- C++ -*----------------------------------*\
  =========                 |
  \\      /  F ield         | OpenFOAM: The Open Source CFD Toolbox
   \\    /   O peration     | Website:  https://openfoam.org
    \\  /    A nd           | Version:  8
     \\/     M anipulation  |
\*---------------------------------------------------------------------------*/
FoamFile
{
    version     2.0;
    format      ascii;
    class       scalarField;
    location    "2/lagrangian/reactingCloud1";
    object      age;
}
// * * * * * * * * * * * * * * * * * * * * * * * * * * * * * * * * * * * * * //


79
(
0.1902195609
0.1841317365
0.1812874251
0.1783932136
0.1762974052
0.172255489
0.171007984
0.1679640719
0.1900698603
0.1632235529
0.1780938124
0.1532934132
0.1503493014
0.1494510978
0.1479540918
0.1448103792
0.1439620758
0.1402070162
0.1372873852
0.1354452486
0.1346194633
0.1320785852
0.1302364487
0.1302364487
0.127379908
0.1520958084
0.1266440118
0.1243334088
0.1236177203
0.1230111014
0.1226248239
0.122183364
0.121243187
0.1199689913
0.1174304965
0.1169868112
0.1301094048
0.1139576021
0.1133295113
0.1960578842
0.1060956437
0.1001377837
0.1700598802
0.2240484967
0.09012339596
0.2230007406
0.2341269123
0.2203564038
0.2331789425
0.2359157575
0.07015038709
0.2700400518
0.2700400518
0.0621484779
0.1566866267
0.1555389222
0.1583333333
0.2254455048
0.2302352468
0.2484068047
0.1980538922
0.05006821632
0.05810618292
0.1021043321
0.05405874139
0.2163150589
0.04223693946
0.1080640286
0.09813942634
0.03805366518
0.04159041018
0.03412147321
0.04006533012
0.02819425002
0.1027356318
0.1652195609
0.03823265701
0.04236372691
0.1013778365
)


// ************************************************************************* //
