/*--------------------------------*- C++ -*----------------------------------*\
  =========                 |
  \\      /  F ield         | OpenFOAM: The Open Source CFD Toolbox
   \\    /   O peration     | Website:  https://openfoam.org
    \\  /    A nd           | Version:  8
     \\/     M anipulation  |
\*---------------------------------------------------------------------------*/
FoamFile
{
    version     2.0;
    format      ascii;
    class       scalarField;
    location    "2/lagrangian/reactingCloud1";
    object      Cp;
}
// * * * * * * * * * * * * * * * * * * * * * * * * * * * * * * * * * * * * * //


79
(
4182.9481
4182.9481
4182.9481
4182.9481
4182.9481
4182.9481
4182.9481
4182.9481
4182.948099
4182.9481
4182.948099
4182.9481
4182.9481
4182.9481
4182.9481
4182.9481
4182.9481
4182.9481
4182.9481
4182.948099
4182.9481
4182.9481
4182.9481
4182.9481
4182.9481
4182.948099
4182.9481
4182.948116
4182.948118
4182.948118
4182.948118
4182.948119
4182.948121
4182.948124
4182.948126
4182.948126
4182.948099
4182.948123
4182.948123
4182.948099
4182.948099
4182.948099
4182.948099
4182.948122
4182.948099
4182.948112
4182.948123
4182.948112
4182.948122
4182.94812
4182.948099
4182.948099
4182.948099
4182.948099
4182.948112
4182.948112
4182.948112
4182.948123
4182.948123
4182.948105
4182.948099
4182.948099
4182.948099
4182.948099
4182.948099
4182.948122
4182.948099
4182.948108
4182.948099
4182.948099
4182.948099
4182.948099
4182.948099
4182.948099
4182.948108
4182.94811
4182.948099
4182.948099
4182.948107
)


// ************************************************************************* //
