/*--------------------------------*- C++ -*----------------------------------*\
  =========                 |
  \\      /  F ield         | OpenFOAM: The Open Source CFD Toolbox
   \\    /   O peration     | Website:  https://openfoam.org
    \\  /    A nd           | Version:  8
     \\/     M anipulation  |
\*---------------------------------------------------------------------------*/
FoamFile
{
    version     2.0;
    format      ascii;
    class       scalarField;
    location    "2/lagrangian/reactingCloud1";
    object      d;
}
// * * * * * * * * * * * * * * * * * * * * * * * * * * * * * * * * * * * * * //


79
(
0.0007099934585
0.0009363231911
0.000719952717
0.0007301990769
0.0006610790348
0.0008105892089
0.0005497112485
0.000632160165
0.000519202055
0.0008278298158
0.0007847170309
0.0007014659743
0.0006767958989
0.001039585879
0.0006557633465
0.0006493223681
0.0007876391418
0.0007118141369
0.0009145630392
0.001011916923
0.0007188627275
0.0006876851942
0.0005779687569
0.0006138346203
0.0006997284733
0.0005309625955
0.000610056469
0.0007487263237
0.0006128468204
0.0006008790845
0.0005251251211
0.0005611885153
0.0007260140523
0.0008094891584
0.0009428182543
0.0005637724558
0.0006561670517
0.0008758253129
0.0005659072505
0.0005971850428
0.0007551118501
0.0008692315493
0.0006740681761
0.0006935796377
0.0005228765399
0.0005657371147
0.0005521946869
0.000658261236
0.0005549332298
0.0006201352731
0.0005041130318
0.0003324852646
0.0002461992229
0.0006674106056
0.0006322628451
0.0005542147371
0.001029972214
0.0006516593492
0.0005305295019
0.0008357749614
0.00072683876
0.0007694685537
0.000656275537
0.0005508470837
0.0006058948867
0.0007596520716
0.0007885291428
0.001078640796
0.00088745246
0.0005147145273
0.0005016087786
0.0009757237175
0.0006112077959
0.0008706639635
0.0009225859207
0.0008118138873
0.0007025479276
0.00109026723
0.000571946352
)


// ************************************************************************* //
