/*--------------------------------*- C++ -*----------------------------------*\
  =========                 |
  \\      /  F ield         | OpenFOAM: The Open Source CFD Toolbox
   \\    /   O peration     | Website:  https://openfoam.org
    \\  /    A nd           | Version:  8
     \\/     M anipulation  |
\*---------------------------------------------------------------------------*/
FoamFile
{
    version     2.0;
    format      ascii;
    class       scalarField;
    location    "2/lagrangian/reactingCloud1";
    object      rho;
}
// * * * * * * * * * * * * * * * * * * * * * * * * * * * * * * * * * * * * * //


79
(
994.5114687
994.5114687
994.5114687
994.5114687
994.5114687
994.5114687
994.5114687
994.5114687
1000
994.5114687
1000
994.5114687
994.5114688
994.5114688
994.5114687
994.5114688
994.5114688
994.5114687
994.5114687
994.5114686
994.5114687
994.5114687
994.5114685
994.5114687
994.5114687
1000
994.5114687
994.511474
994.5114745
994.5114746
994.5114748
994.511475
994.5114758
994.5114767
994.5114774
994.5114774
1000
994.5114764
994.5114762
1000
1000
1000
1000
994.5114759
1000
994.5114726
994.5114763
994.5114727
994.511476
994.5114753
1000
1000
1000
1000
994.5114726
994.5114726
994.5114726
994.5114763
994.5114762
994.5114705
1000
1000
1000
1000
1000
994.5114759
1000
994.5114715
1000
1000
994.5114686
1000
1000
1000
994.5114713
994.5114721
994.5114686
994.5114686
994.5114712
)


// ************************************************************************* //
