/*--------------------------------*- C++ -*----------------------------------*\
  =========                 |
  \\      /  F ield         | OpenFOAM: The Open Source CFD Toolbox
   \\    /   O peration     | Website:  https://openfoam.org
    \\  /    A nd           | Version:  8
     \\/     M anipulation  |
\*---------------------------------------------------------------------------*/
FoamFile
{
    version     2.0;
    format      ascii;
    class       scalarField;
    location    "1.3/lagrangian/reactingCloud1";
    object      d;
}
// * * * * * * * * * * * * * * * * * * * * * * * * * * * * * * * * * * * * * //


122
(
0.000553351894
0.0006355019744
0.0006815387149
0.0007664892186
0.0007641491689
0.0007316163649
0.0005262480079
0.0008912321838
0.00104045259
0.0006630962915
0.0005280850394
0.0008062033145
0.0008044662196
0.0005768945275
0.0005246360811
0.0005684058509
0.0008444018383
0.0008974439232
0.0006521361212
0.0008150281658
0.00096705856
0.000916403387
0.0008178471679
0.0005061152528
0.0007454130723
0.0007865589636
0.001039158074
0.0008016362905
0.001144958224
0.0005556317784
0.0005278690562
0.001010532677
0.0008161637573
0.0005826119758
0.001043555458
0.00095933892
0.0005320726803
0.0006521361212
0.0006003759617
0.0007008545118
0.0005162845292
0.0009103809819
0.0005004731121
0.00101844561
0.0009760370652
0.0008044662196
0.001030069007
0.0005743026509
0.0009312409011
0.0005678313105
0.0005824910867
0.000900171754
0.0005878906332
0.0008246422473
0.0008031270148
0.0006304111317
0.0008825603428
0.000789719957
0.0008420242643
0.0005220231593
0.0006892955313
0.0006015280026
0.0008686117933
0.0008797502784
0.000652678538
0.0006837514233
0.0005857487358
0.0007997817868
0.0005446459796
0.0005208219865
0.0009714396082
0.0006748316842
0.0008171015873
0.0005945441043
0.0008679577922
0.0005312815284
0.0005528021751
0.0006599863347
0.0008883715962
0.0006620978709
0.0008314952291
0.0005774359104
0.0009892077975
0.0006630530753
0.0009129431751
0.0005461457763
0.0006207954822
0.0005070834709
0.0009428182543
0.0007453638945
0.001046212477
0.00071411339
0.0007822030247
0.0009435666802
0.0008203424338
0.001053226137
0.0006293669549
0.0005840513704
0.0006426288434
0.001113413507
0.0005335381245
0.001036686229
0.0007726005037
0.000654767387
0.001054287964
0.001156112303
0.0009326711355
0.0006506893956
0.0005232250394
0.001098505506
0.0008441582614
0.0007524570969
0.0005736033443
0.0006150789783
0.0007659497292
0.0005353386445
0.000887563794
0.001015877236
0.0006935392552
0.0006959794644
0.0006404016995
0.0009390806485
)


// ************************************************************************* //
