/*--------------------------------*- C++ -*----------------------------------*\
  =========                 |
  \\      /  F ield         | OpenFOAM: The Open Source CFD Toolbox
   \\    /   O peration     | Website:  https://openfoam.org
    \\  /    A nd           | Version:  8
     \\/     M anipulation  |
\*---------------------------------------------------------------------------*/
FoamFile
{
    version     2.0;
    format      ascii;
    class       scalarField;
    location    "1.3/lagrangian/reactingCloud1";
    object      mass0;
}
// * * * * * * * * * * * * * * * * * * * * * * * * * * * * * * * * * * * * * //


122
(
8.82292567e-08
1.336469745e-07
1.648466068e-07
2.344912114e-07
2.323500951e-07
2.039194508e-07
7.58891717e-08
3.68621789e-07
5.865098449e-07
1.518232263e-07
7.668669325e-08
2.728614338e-07
2.711014596e-07
9.997644192e-08
7.519394745e-08
9.562777196e-08
3.135132705e-07
3.763833317e-07
1.444186186e-07
2.819202491e-07
4.709412576e-07
4.007453349e-07
2.848556781e-07
6.750822607e-08
2.156748142e-07
2.533974688e-07
5.843233842e-07
2.682504924e-07
7.815870251e-07
8.932430543e-08
7.659263858e-08
5.373527847e-07
2.831003035e-07
1.029785187e-07
5.91772828e-07
4.597530408e-07
7.843705861e-08
1.45215639e-07
1.126881643e-07
1.792635691e-07
7.165982653e-08
3.928963083e-07
6.527556931e-08
5.531108062e-07
4.841805614e-07
2.725976197e-07
5.691246267e-07
9.863496191e-08
4.205276396e-07
9.533808553e-08
1.034823958e-07
3.798258883e-07
1.058030141e-07
2.920149992e-07
2.712384949e-07
1.304608004e-07
3.579658896e-07
2.578801784e-07
3.108724522e-07
7.407603541e-08
1.705394303e-07
1.133381104e-07
3.412601552e-07
3.545574844e-07
1.447792809e-07
1.66457416e-07
1.04650787e-07
2.678632611e-07
8.413008449e-08
7.356586532e-08
4.800053112e-07
1.609107346e-07
2.840773323e-07
1.100400687e-07
3.40489903e-07
7.808768869e-08
8.796656794e-08
1.496970523e-07
3.650836745e-07
1.511384599e-07
2.993558188e-07
1.00258173e-07
5.040469748e-07
1.517935436e-07
3.962229782e-07
8.48270096e-08
1.245816453e-07
6.789640535e-08
4.364076615e-07
2.156321306e-07
5.963045241e-07
1.896312676e-07
2.492108187e-07
4.374477709e-07
2.8747094e-07
6.117352506e-07
1.298136101e-07
1.037436587e-07
1.38193961e-07
7.187500312e-07
7.908694357e-08
5.833653238e-07
2.401449063e-07
1.469805071e-07
6.102196169e-07
8.090934611e-07
4.247997293e-07
1.434595966e-07
7.458886118e-08
6.90263858e-07
3.149707666e-07
2.230713781e-07
9.881745087e-08
1.211716642e-07
2.352878077e-07
8.03312282e-08
3.640886611e-07
5.459238971e-07
1.737086971e-07
1.755487317e-07
1.367621272e-07
4.33617994e-07
)


// ************************************************************************* //
