/*--------------------------------*- C++ -*----------------------------------*\
  =========                 |
  \\      /  F ield         | OpenFOAM: The Open Source CFD Toolbox
   \\    /   O peration     | Website:  https://openfoam.org
    \\  /    A nd           | Version:  8
     \\/     M anipulation  |
\*---------------------------------------------------------------------------*/
FoamFile
{
    version     2.0;
    format      ascii;
    class       scalarField;
    location    "1.3/lagrangian/reactingCloud1";
    object      nParticle;
}
// * * * * * * * * * * * * * * * * * * * * * * * * * * * * * * * * * * * * * //


122
(
152.1678818
104.2151612
105.507346
100.1067631
100.2650587
103.1752821
103.6773453
103.3968156
101.9577186
101.4157603
106.2263391
100.6857251
103.0792897
108.5043658
106.5827279
148.6072306
100.004546
102.1802962
100.280878
103.5530955
100.0061642
103.6137881
101.5730819
106.5611026
108.0035385
104.2468523
106.6687292
100.1956166
102.365797
124.4944532
106.9317821
102.1451434
106.4458483
106.4378048
102.0789816
101.6748794
115.2559147
3381.90246
107.9685869
102.4533192
128.4623953
106.7606683
132.7115609
887.8964602
100.3671646
1801.575258
100.7452575
102.1683699
100.3758228
102.1022743
4885.799653
100.5595698
114.583867
100.0373741
1854.002721
100.1637233
100.25996
1935.750665
100.0199223
100.3740538
101.4809563
106.3819293
100.1276297
100.7967011
101.7375191
100.0061744
100.4204903
1888.959135
101.1218577
101.1530192
1038.932627
3198.613932
100.6295179
4571.55466
100.4408746
106.8638476
108.3045722
103.8176201
102.1716017
101.9428839
102.2724903
123.2076276
102.307923
101.350031
102.693179
105.3625292
109.3423058
119.5556793
320.7469857
111.117864
101.3167296
108.3171537
101.2497249
103.4327052
106.6204009
812.3157872
100.5499781
102.1240619
101.3662955
100.381677
777.581112
849.2229871
191.0057353
3459.774204
100.0145662
614.1715705
1169.779939
100.107517
106.8568676
100.1127984
1682.855695
2227.637655
5363.934647
100.9087979
2102.177021
6189.898967
1063.915577
100.1485587
101.6518774
101.089434
101.2818826
1170.58301
)


// ************************************************************************* //
