/*--------------------------------*- C++ -*----------------------------------*\
  =========                 |
  \\      /  F ield         | OpenFOAM: The Open Source CFD Toolbox
   \\    /   O peration     | Website:  https://openfoam.org
    \\  /    A nd           | Version:  8
     \\/     M anipulation  |
\*---------------------------------------------------------------------------*/
FoamFile
{
    version     2.0;
    format      ascii;
    class       labelField;
    location    "1.3/lagrangian/reactingCloud1";
    object      origId;
}
// * * * * * * * * * * * * * * * * * * * * * * * * * * * * * * * * * * * * * //


122
(
811
812
813
815
818
822
823
826
828
829
831
835
836
837
838
840
842
843
845
851
852
856
859
860
861
864
559
865
866
867
560
868
869
562
870
871
872
588
873
874
875
876
877
589
879
585
880
881
882
883
593
885
889
890
617
891
892
609
893
900
901
903
906
908
909
912
913
621
914
915
637
630
917
638
918
919
920
921
923
924
925
926
927
928
929
930
931
932
933
934
935
936
937
938
939
661
942
943
944
945
947
643
948
672
949
653
658
950
951
952
665
659
654
953
675
670
954
955
956
957
958
625
)


// ************************************************************************* //
