/*--------------------------------*- C++ -*----------------------------------*\
  =========                 |
  \\      /  F ield         | OpenFOAM: The Open Source CFD Toolbox
   \\    /   O peration     | Website:  https://openfoam.org
    \\  /    A nd           | Version:  8
     \\/     M anipulation  |
\*---------------------------------------------------------------------------*/
FoamFile
{
    version     2.0;
    format      ascii;
    class       Cloud<basicReactingMultiphaseParcel>;
    location    "1.3/lagrangian/reactingCloud1";
    object      positions;
}
// * * * * * * * * * * * * * * * * * * * * * * * * * * * * * * * * * * * * * //

122
(
(0.04965263303 0.3354428859 0.4479172036 0.1669872775) 104 307 1
(0.0529834916 0.09439217631 0.360079476 0.492544856) 186 202529 2
(0.02079225351 0.3944362401 0.2683918419 0.3163796645) 924 2709 1
(0.6590194905 0.1413492818 0.1459302544 0.05370097324) 2599 7532 2
(0.3083598174 0.003807078934 0.3887641406 0.2990689631) 218 645 2
(0.6394394561 0.03914845752 0.1204264791 0.2009856073) 4159 206555 2
(0.1943247421 0.02442830129 0.006983766226 0.7742631904) 1853 5353 2
(0.1974201024 0.1858628849 0.00802812 0.6086888927) 1064 3120 2
(0.5532153381 0.09424035264 0.1123210119 0.2402232974) 1886 5530 1
(0.1123455489 0.2276521828 0.07841761221 0.5815846562) 2693 5461 2
(0.3011518718 0.3334053993 0.004906943996 0.3605357848) 2693 7813 2
(0.8836267085 0.08076207261 0.01955652332 0.01605469553) 2693 7892 1
(0.2852290668 0.4390529939 0.240848033 0.03486990633) 3542 10298 2
(0.06518253615 0.3466936844 0.3061367214 0.2819870581) 4368 12800 2
(0.03111046375 0.03023464213 0.4133159355 0.5253389586) 4395 12797 1
(0.1620479961 0.134800671 0.168355036 0.5347962968) 5199 12709 1
(0.1425375644 0.05067679921 0.7824169594 0.02436867704) 5106 14958 2
(0.2991876126 0.1182970051 0.04562745874 0.5368879235) 3627 10629 2
(0.3941436624 0.2887571954 0.1671646824 0.1499344598) 5567 16319 2
(0.1895491689 0.1149416752 0.1017023639 0.593806792) 5451 15979 2
(0.367704723 0.1263064394 0.3749295451 0.1310592925) 6750 17227 1
(0.1997516181 0.03962513339 0.02212275049 0.738500498) 5315 15578 1
(0.225851795 0.2657896042 0.4682996819 0.04005891894) 6070 17786 1
(0.1417557236 0.1198058625 0.6106625064 0.1277759075) 6880 20156 2
(0.04798409339 0.1950989943 0.4421333008 0.3147836115) 6881 20155 1
(0.4715371317 0.003952244575 0.3576125853 0.1668980385) 6911 20244 1
(0.2850130792 0.02568851499 0.2824841681 0.4068142377) 110 325 2
(0.01466502923 0.1854653959 0.01362685745 0.7862427175) 7815 22807 2
(0.1822969878 0.1677726716 0.3175336229 0.3323967178) 7856 20423 2
(0.3153274842 0.4153444892 0.1164941809 0.1528338457) 7885 23017 2
(0.007620389186 0.02618941916 0.8979533228 0.0682368689) 1704 2575 1
(0.5613664652 0.07183210751 0.3090556886 0.05774573868) 7914 23103 1
(0.01449443798 0.02160559902 0.6257341464 0.3381658166) 7885 23104 2
(0.09494980882 0.07869635464 0.1847033794 0.6416504571) 879 2578 1
(0.4897403095 0.09956791559 0.3396153903 0.07107638464) 8776 25712 2
(0.08601118484 0.489153425 0.08035085278 0.3444845373) 9711 25799 1
(0.2165291089 0.6665990856 0.02299175864 0.09388004692) 9682 28366 1
(0.07234150051 0.1022499525 0.1721769923 0.6532315547) 3067 8921 2
(0.225634824 0.5748328475 0.02897511936 0.1705572091) 9711 28366 1
(0.1657282948 0.4632277106 0.1255799734 0.2454640212) 9711 28448 2
(0.07636130599 0.3758085978 0.1040748738 0.4437552224) 9710 28448 2
(0.01600941291 0.1091490262 0.7665777003 0.1082638606) 9740 28534 2
(0.07690650931 0.1332256592 0.7565138396 0.03335399194) 9739 28536 1
(0.1442580381 0.14072994 0.1907937151 0.5242183067) 1408 4144 1
(0.3051049792 0.08642072111 0.1431720994 0.4653022002) 10497 30749 2
(0.1035867567 0.2703776525 0.1047925481 0.5212430426) 2676 7843 2
(0.1745655412 0.727727187 0.09626080032 0.001446471465) 11406 33320 1
(0.1788607949 0.5612389719 0.1968202528 0.06307998048) 11494 33671 1
(0.338789658 0.1768640442 0.04167645201 0.4426698459) 11584 33852 2
(0.04012452205 0.01741383748 0.6240346449 0.3184269956) 11495 33671 1
(0.3841487235 0.229863838 0.1750256657 0.2109617728) 1243 3650 1
(0.1723966552 0.02812337545 0.01871318028 0.7807667891) 15946 46599 2
(0.09298796996 0.03590114219 0.8016201343 0.06949075357) 15984 46804 2
(0.01856095059 0.01924544796 0.5978755491 0.3643180523) 16007 46871 1
(0.4225343876 0.06951071212 0.2996479901 0.2083069101) 17110 50021 2
(4.318218803e-05 0.0267002416 0.4254504349 0.5478061413) 16770 49101 1
(0.4323149554 0.1949026164 0.1207820012 0.2520004271) 16890 49457 2
(0.09682403175 0.4601248725 0.07207461707 0.3709764787) 12352 36180 1
(0.3580706366 0.2066613476 0.02691843117 0.4083495847) 16801 49102 2
(0.5491568398 0.342040271 0.04039760299 0.06840528615) 19416 56848 1
(0.6617752745 0.03044450306 0.1790010868 0.1287791357) 17704 51839 2
(0.1299293474 0.05056448916 0.3914366392 0.4280695242) 16927 49567 1
(0.4014743587 0.3918380607 0.1021936156 0.104493965) 17866 52319 1
(0.2826455051 0.1209739679 0.201561307 0.39481922) 17800 52122 1
(0.4476140845 0.09483462048 0.1678807896 0.2896705055) 17866 52230 2
(0.2918428312 0.1258488224 0.5304340373 0.05187430899) 18733 54851 1
(0.1878345338 0.7247120059 0.03658777055 0.0508656898) 19708 58152 1
(0.4845536436 0.05070833513 0.2968450778 0.1678929435) 13373 39090 2
(0.1604396021 0.2053095439 0.0808772179 0.5533736361) 19647 54853 2
(0.6861241687 0.219054673 0.009805577567 0.08501558076) 19647 57894 1
(0.1304177231 0.5367788619 0.2880958783 0.0447075367) 25285 78176 2
(0.400747597 0.005871133635 0.4369971921 0.1563840772) 18851 55201 1
(0.436287917 0.261826271 0.1655439835 0.1363418285) 53177 163036 1
(0.2262725705 0.2634720821 0.3954222072 0.1148331402) 23320 70964 1
(0.2054011105 0.3010220508 0.02590904858 0.4676677902) 56118 167201 2
(0.5604314353 0.2183046324 0.1280120062 0.09325192604) 56110 167180 1
(0.6267902192 0.1184994612 0.09092795042 0.1637823692) 56110 67898 1
(0.05983093824 0.183403687 0.1129926025 0.6437727722) 56120 67901 1
(0.02466113287 0.09781931178 0.3707745199 0.5067450354) 55820 169657 1
(0.5929809787 0.06302784226 0.2267049981 0.1172861809) 56031 170192 2
(0.227148249 0.3633583901 0.319709732 0.08978362893) 55750 169464 1
(0.07255027109 0.4282158169 0.2473816705 0.2518522415) 55779 169554 1
(0.371671432 0.2679677861 0.2366310114 0.1237297706) 55814 169644 1
(0.01323232467 0.09739696874 0.4652091608 0.4241615458) 56030 170191 1
(0.1324068015 0.3354489528 0.03782709341 0.4943171523) 57097 169643 2
(0.3942956787 0.2490627177 0.04447222778 0.3121693758) 57091 169628 2
(0.5687195554 0.1298262443 0.2719588098 0.02949539052) 57091 169628 1
(0.5726229049 0.07678854301 0.2666280188 0.08396053328) 57090 172840 2
(0.01385056387 0.4637379399 0.3400879918 0.1823235044) 57007 172628 2
(0.5345494888 0.2593580335 0.05498176236 0.1511107153) 57055 172751 1
(0.191931686 0.2800020511 0.09114324374 0.4369230192) 57074 172788 1
(0.3310370912 0.1673309219 0.03749781673 0.4641341701) 57073 172781 2
(0.3165409056 0.1787615612 0.2241697489 0.2805277843) 56931 172423 2
(0.005897750829 0.4511167526 0.1890959089 0.3538895877) 57053 172745 1
(0.3327306986 0.2590342977 0.3947982806 0.01343672307) 57024 172671 1
(0.34040988 0.2737786713 0.1079683811 0.2778430676) 34294 109206 2
(0.03811386995 0.1694436336 0.1343575108 0.6580849856) 58217 175494 2
(0.4093982102 0.05854655995 0.1461767772 0.3858784526) 58096 175220 2
(0.1899848008 0.3000185338 0.03148960868 0.4785070567) 57739 174397 1
(0.04485354544 0.103118612 0.1093825607 0.7426452819) 58139 175309 1
(0.2013687234 0.07081038803 0.715578856 0.0122420326) 51900 159725 2
(0.1901477069 0.588141501 0.1254110106 0.09629978153) 58964 177301 2
(0.3755731533 0.0935704494 0.1943801952 0.3364762021) 25042 77102 2
(0.3516361548 0.2956867899 0.190685229 0.1619918264) 37469 118471 2
(0.3184646622 0.2849710118 0.2384890298 0.1580752962) 51929 159793 2
(0.1133203936 0.009282280346 0.3277501582 0.5496471679) 64587 190993 2
(0.1470718896 0.1027094715 0.2562329183 0.4939857206) 52319 160849 2
(0.2471383075 0.05698954657 0.1102124104 0.5856597355) 51837 205576 1
(0.4671439496 0.08178751118 0.3448301308 0.1062384084) 51851 159603 1
(0.6605853034 0.1670273221 0.1445137784 0.02787359608) 51626 76576 2
(0.07975180161 0.1348369581 0.1688945832 0.616516657) 34150 108694 1
(0.1770369586 0.4892907476 0.01261805463 0.3210542392) 64642 191299 1
(0.1459368659 0.535995083 0.03909763213 0.278970419) 65632 193771 1
(0.3844851541 0.5152974938 0.08283748686 0.01737986518) 51702 159209 2
(0.1401692976 0.02969702934 0.4128803444 0.4172533287) 36564 115818 2
(0.1406634503 0.464485706 0.3548175088 0.04003333489) 35750 111075 1
(0.1820379089 0.2261831688 0.1406682295 0.4511106928) 58951 177269 1
(0.1151588114 0.6066178867 0.03848976714 0.2397335347) 51763 159378 1
(0.04199440499 0.6702843696 0.1938282874 0.09389293805) 51763 159378 2
(0.1128580577 0.7708554985 0.04277808098 0.07350836287) 51769 159236 2
(0.2905934799 0.5889100211 0.01404698586 0.1064495132) 51708 203112 2
(0.01463190219 0.214425442 0.6494726241 0.1214700317) 19016 204308 2
)


// ************************************************************************* //
