/*--------------------------------*- C++ -*----------------------------------*\
  =========                 |
  \\      /  F ield         | OpenFOAM: The Open Source CFD Toolbox
   \\    /   O peration     | Website:  https://openfoam.org
    \\  /    A nd           | Version:  8
     \\/     M anipulation  |
\*---------------------------------------------------------------------------*/
FoamFile
{
    version     2.0;
    format      ascii;
    class       volScalarField;
    location    "0.7/wallFilmRegion";
    object      alpha;
}
// * * * * * * * * * * * * * * * * * * * * * * * * * * * * * * * * * * * * * //

dimensions      [0 0 0 0 0 0 0];

internalField   nonuniform List<scalar> 
1342
(
0.07600103873
0.1957917573
0.4068748341
0.1006260655
0.006814576057
0.01229971423
0.01745631284
0.01826569231
0.1160361333
0.2585569118
0.5817114421
0.4159542988
0.1875812545
0.07947417007
0.04809050738
0.03659669982
0.0292686486
0.04737643089
0.1877884553
0.1144858692
0.130970229
0.1202965383
0.1014080916
0.08975858833
0.07147841234
2.850346818
0.001644646181
0.003388884486
0.1157630395
0.3073743481
0.04530007053
0.004404641395
0.02419274535
0.03209909575
0.0224635488
0.1274595257
0.2444929037
0.7533139927
0.6241871224
0.3270618108
0.1513010786
0.07520947926
0.04971941623
0.03614116779
0.04046754128
0.05020278307
0.05078152368
0.07494061739
0.07238113438
0.06973262517
0.07550441775
0.05945783214
2.91740167
0.04262392077
0.1136877045
0.4263703526
0.316443985
0.2460773523
0.2299798368
0.01628434772
0.04605402545
0.05227089277
0.02946588496
0.1447073132
0.2511840325
0.848196957
0.7727455473
0.3722662744
0.1988133928
0.1287014198
0.08553380594
0.05529582286
0.03153510364
0.01600546014
0.01256427487
0.1082898578
0.08800094495
0.07557409773
0.08352027029
0.06199673068
3.334467346
0.0132045053
0.01343301789
0.1427381497
0.2537497742
0.3142798013
0.104727208
0.09896977618
0.1482826649
0.1889683316
0.1755320994
0.2421013484
0.3973947511
0.8740318253
0.8724194224
0.5040106577
0.3086534975
0.2532754355
0.1931346632
0.1161413313
0.05900392226
0.02679545497
0.0129807022
0.1727261129
0.1120911484
0.05636517742
0.05935146108
0.0519317567
3.452065603
0.01932289501
0.03468930219
0.06403641176
0.2607186339
0.2997711373
0.5969783278
0.005573165157
0.008749534006
0.007450797786
0.01819459135
0.2227849229
0.2756720876
0.3284728147
0.2453034266
0.182712465
0.158158694
0.159239972
0.1644009207
0.1400859025
0.09558718162
0.04650082005
0.01984772058
0.3107092657
0.193547282
0.08940177955
0.054463143
0.0559652391
3.443868464
0.1859285877
0.06994912904
0.04816695869
0.06402131578
0.1223710697
0.3711482123
0.1336626591
0.03620169534
0.02478606004
0.03212886999
0.02761738485
0.1825917346
0.1720783112
0.08398763462
0.0548508596
0.0494654319
0.05095370481
0.05732492115
0.07238145091
0.09156404196
0.1383766527
0.2198297614
0.2477686489
1.044848547
0.6846596987
0.3759349172
0.2202404964
0.1215857367
1.934664407
0.2631473642
0.2159388759
0.04986807698
0.1155759046
0.06373196198
0.2063382553
0.05266700052
0.05401779137
0.07052815714
0.05652570774
0.02586210008
0.1398915988
0.1110860929
0.04946239434
0.02728138718
0.02280324824
0.02251478372
0.02356625933
0.02627640532
0.03170745381
0.04003631995
0.04951137579
0.04930521458
0.4964708103
0.3061827437
0.1507332859
0.07214753586
0.03522193178
1.458265011
0.02799603934
0.100032888
0.05770552464
0.1760830388
0.06445373357
0.03445477324
0.03713719311
0.05363539236
0.05260428431
0.03450694582
0.01991990694
0.1021912203
0.06939077612
0.03853590691
0.03311210858
0.03441423731
0.03622074745
0.03766387627
0.03897610839
0.04071301796
0.0436943317
0.04838341599
0.05834737089
0.2876355243
0.1712728502
0.07450961831
0.03087078966
0.01751667845
0.9638273268
0.1113009809
0.06885364477
0.02456740691
0.06331308604
0.01968183182
0.0215260822
0.04549369408
0.06336839201
0.06202997916
0.04777038319
0.03510515396
0.06964097624
0.04245879405
0.04213027235
0.05063434357
0.05693890169
0.060118775
0.06127597884
0.0611979113
0.06056625563
0.06046552581
0.06170969001
0.06697141938
0.1688467461
0.1068227397
0.04996003485
0.02487821752
0.01644561942
0.7393804668
0.2632593009
0.05885033969
0.01676796273
0.02417846457
0.01040785073
0.01392956942
0.02993489695
0.047305231
0.053672569
0.04662799001
0.03611190422
0.03829602688
0.03136257521
0.05242087416
0.0697738352
0.07851786634
0.08071106027
0.07922937086
0.07511386436
0.0704363034
0.06756961897
0.06770088158
0.06955482747
0.09875850525
0.0735618724
0.04549350602
0.03012096037
0.02170996794
0.71364193
0.4562421399
0.1508657584
0.03669905943
0.01554227254
0.007085660412
0.007151860008
0.01236337611
0.02112859916
0.02899231892
0.03040021387
0.02587651417
0.01688071264
0.03275149471
0.0666492375
0.08940286753
0.09787033367
0.09656317032
0.08969986612
0.08052788797
0.0733625884
0.07228101168
0.08071787659
0.09775388513
0.1211250189
0.1244495305
0.1163361124
0.1011193563
0.07370448249
0.9198538595
0.8297144484
0.5105719722
0.2521691602
0.051022832
0.009421967151
0.00534071799
0.005660971403
0.00773415314
0.01015727849
0.01323384633
0.01619245868
0.008453340861
0.03921506654
0.08076129835
0.1056607448
0.111307545
0.1049738204
0.09272595931
0.08166966111
0.07892572369
0.1027178588
0.1963915128
0.4079354815
0.7266942992
1.05853747
1.185826932
1.080984875
0.8038980295
2.442360841
0.4446670606
0.4885934859
0.5100477845
0.3001490616
0.08028749891
0.01922983433
0.01075867794
0.005902278082
0.003551548266
0.005522230692
0.008587046931
0.006352186307
0.04483821932
0.09071454095
0.1150540962
0.1171014663
0.1065954048
0.09249055627
0.08390350027
0.09224479824
0.1436662265
0.2556078359
0.3863123239
0.4547396849
0.4232473149
0.4527297323
0.5787628691
0.5749980606
2.648408527
0.6316942242
0.3178442655
0.4145282591
0.4516252009
0.3937731831
0.2184749913
0.1248521655
0.1428732948
0.03711714392
0.007675588019
0.007395231359
0.006311371399
0.04736392587
0.09426634947
0.1169417209
0.1166747819
0.1050167661
0.09282741227
0.08944031657
0.1060751195
0.1434427463
0.1666891824
0.1446016631
0.09110577897
0.04200359651
0.0208476534
0.02026595649
0.0586161944
1.581447251
0.5390672829
0.331972599
0.4951014417
0.1160885262
0.05121949834
0.1820397366
0.3389412598
0.5359800346
0.5339537385
0.1139380586
0.01917228811
0.01005250629
0.04758583129
0.09194105028
0.1133950567
0.1135299455
0.1052184313
0.09890547129
0.1021625443
0.116448705
0.1220777951
0.1046112136
0.07338892706
0.04281128934
0.02164173389
0.01142040762
0.009071358946
0.01230835502
1.123326696
0.4286027448
0.04403111889
0.1008243343
0.04068773631
0.01851155495
0.02879816147
0.07566478956
0.2488950818
0.3271125298
0.1584952655
0.03994963288
0.01651893716
0.04721428639
0.08704498726
0.1088213731
0.113681458
0.1135929937
0.1163942744
0.1226126489
0.1192730754
0.09992056251
0.07351819813
0.0473322099
0.02711004095
0.01505183163
0.009447511432
0.008188170189
0.008672091813
1.074297507
0.2630344267
0.008904395449
0.007979944195
0.02423103929
0.01196366879
0.009637035715
0.01864259526
0.2137601184
0.2151681292
0.2415005058
0.1042580471
0.03497343381
0.05045943597
0.08408379392
0.1081105906
0.1235145244
0.1368620866
0.1453232613
0.1364732716
0.1084176107
0.07784509139
0.05150959815
0.03158780368
0.01891277049
0.01229985658
0.009515803988
0.01002673882
0.01201299006
1.316462467
0.07289322094
0.00393243469
0.005910265464
0.01208895565
0.004544309915
0.002669718778
0.001666890751
0.4242865482
0.1484410402
0.2148267492
0.1889079342
0.07856400269
0.06517049342
0.08717943497
0.1142841253
0.1485881271
0.1766001725
0.1699245707
0.1270672928
0.08316246474
0.0523782708
0.03226790646
0.02015903492
0.01372555377
0.01094269978
0.01051687813
0.01353727673
0.01899878412
1.661330517
0.02875672538
0.006777831855
0.006304423095
0.008531044244
0.01940549137
0.08636633727
0.2896908967
1.897826092
0.7168443634
0.3576474587
0.2357680434
0.1397986785
0.09422525145
0.09901108123
0.1291789906
0.1925661537
0.2197730456
0.2114504782
0.1563840913
0.1007494661
0.06562507637
0.04358611184
0.03003056798
0.02203963757
0.01841139766
0.01781210872
0.02213428842
0.02942003126
1.898170066
0.02389954395
0.01194001008
0.009598041301
0.008196264989
0.01154878667
0.02560566394
0.07802183678
0.803079949
0.2312327653
0.0774446966
0.08231894478
0.1011363151
0.104671755
0.115040624
0.1514712855
0.2585903063
0.2705020288
0.2591989251
0.2850915533
0.3230802272
0.3482457276
0.3316995554
0.2595608513
0.1599579661
0.09117487361
0.05740383606
0.04847148911
0.04709958678
2.017943309
0.0359279281
0.02108834655
0.01955120987
0.02723648459
0.0510958402
0.05204713719
0.03901766635
0.3394729021
0.07028194269
0.03410498409
0.07563005253
0.1423373895
0.179602683
0.1754774088
0.1984318223
0.3604282502
0.5088384518
0.1188831933
0.01676589651
0.006366144099
0.007727247276
0.0241906565
0.07120317755
0.1189652964
0.1250531442
0.1040647373
0.08760653173
0.07100707663
2.116261058
0.08487717847
0.03886033622
0.03688583319
0.07045891931
0.1379404612
0.1254063366
0.05708644782
0.1304647909
0.03586748629
0.0516347039
0.1248320875
0.2575935702
0.3422394599
0.2906569648
0.2660678912
0.4543474701
0.4639545261
0.02512446287
0.004608228693
0.002064133255
0.001908289356
0.007004055405
0.02953362565
0.07312859309
0.1162253083
0.1326607666
0.1275659981
0.09061890833
2.245527624
0.1714416575
0.07420914142
0.05013444549
0.1044110981
0.2180020851
0.2089072746
0.08684811313
0.04561587473
0.04075654303
0.09670400637
0.2245075647
0.4381214766
0.5677820935
0.3956323737
0.3051564698
0.4798157125
0.1695256833
0.008866142363
0.002999206585
0.00197915273
0.002003288414
0.004305543229
0.01353936381
0.03553636639
0.06760367636
0.09210840764
0.1084549738
0.0835348119
2.407119127
0.195746099
0.1289665466
0.05536362886
0.1032669469
0.2299963584
0.2398087208
0.09253141481
0.02889628013
0.06125447723
0.1779964095
0.3530664173
0.5874514445
0.7771289198
0.3984263673
0.2653073155
0.3851401429
0.02987806573
0.004209631186
0.002357200454
0.001928760307
0.002149562276
0.003723139517
0.008576819148
0.01989983435
0.03864234869
0.05691025716
0.077407233
0.06761731294
2.609709999
0.1625036062
0.1637830009
0.05567365621
0.07941211788
0.1873219642
0.2052372437
0.06008778414
0.03517845035
0.09110313877
0.2785333
0.4331473761
0.5788077768
0.8853806132
0.2969865849
0.1666901261
0.2145486324
0.006631967549
0.002156312055
0.001867876184
0.001883397168
0.002369815063
0.003841859783
0.007266480984
0.01423979084
0.02556950614
0.03809724892
0.05937826228
0.0575410645
3.007133781
0.12476767
0.1429834145
0.05398127423
0.0585450478
0.131794187
0.1444256183
0.02858193455
0.04635516726
0.1217232765
0.3383176406
0.3997326679
0.4270208486
0.8437642129
0.2129487323
0.08437632151
0.08809777965
0.002709976274
0.001496218213
0.001726765599
0.002147527522
0.003008275869
0.004681347489
0.007699517824
0.01289871706
0.02077870182
0.02992307151
0.07218190182
0.06596998782
4.681106341
0.09142367534
0.100322737
0.05499243016
0.124696537
0.09402409385
0.0933312795
0.01584626793
0.05701199121
0.1427410278
0.3160690404
0.2852569851
0.2566785072
0.7243862343
0.1941931062
0.03974323169
0.02998585186
0.001612925104
0.001309152221
0.002042336565
0.003201948338
0.004767730291
0.006875300649
0.009819961351
0.01411969241
0.02011445684
0.03516381966
0.6529890151
0.2404963703
10.76167874
0.07082221933
0.07491392894
0.06186171181
0.160368438
0.07602114205
0.06343391249
0.01584932293
0.06659977284
0.1516427421
0.2578465888
0.2143514291
0.2041525717
0.6481860083
0.312081953
0.03219801305
0.01578149
0.00204889558
0.002225477757
0.00438807356
0.007791966287
0.01155078953
0.01541189359
0.01973584927
0.02515931612
0.04543415691
0.6274525264
5.836510817
2.936928241
22.50396514
0.07782427967
0.0596675969
0.05540494862
0.1161615754
0.07629435573
0.04991536427
0.01645814805
0.07636291028
0.1479416198
0.1701211397
0.1142570341
0.1225536652
0.411250963
0.4529236914
0.03145328443
0.006284267982
0.002517994371
0.003404840442
0.006083669854
0.01039372704
0.01522955425
0.0199657429
0.02473895438
0.03004831012
0.04572616714
0.08259790176
0.08954691819
0.7055177106
3.890179225
2.211849762
2.149981912
1.919485641
1.82843892
1.608517427
1.370819871
1.325269653
1.729794922
2.481346613
3.409761521
4.052648746
4.246098615
4.461071994
4.418263062
2.979303237
1.983363367
1.525499969
1.390723962
1.435309884
1.591761218
1.82112084
2.096323243
2.397824124
2.714493632
3.119461372
4.087525974
8.025695413
17.19659144
23.72161219
15.87374489
0.01528096972
0.02676041657
0.003497184083
0.01503235415
0.002793404287
0.001930562315
0.001181462654
0.1246095284
0.02485568808
0.01839879015
0.01252620476
0.1093118999
0.0132594252
0.00858824271
0.005463440941
0.06540686257
0.01192051539
0.00824578222
0.00544380881
0.007739567017
0.0009991866254
0.0006631043814
0.0003467138711
0.54485604
2.468677492
0.2853373139
0.37306026
0.02173264447
0.002904484149
0.8735005661
0.000519715833
0.0002113757987
0.4761635417
0.0001040355937
6.059458004e-05
0.1176635019
3.802013379e-05
3.717892752e-05
3.442045618
5.356158485e-05
7.376859425e-05
4.095936888
0.0001161509716
0.0002009090517
3.058575802
0.0003543346815
0.0006463556064
0.6917775396
0.001598573505
0.006875372942
3.297324335
0.1152368305
1.563624769
0.3418735859
0.8824038349
0.4465721987
1.182157766
0.3854282566
0.9671339053
0.5895676316
0.5887075143
0.2858189718
0.6028862266
0.7243381038
0.1059748676
0.6490448113
0.3054533578
0.2409452564
0.1949594819
0.3651811918
0.6920419431
0.07838459076
0.6628239265
0.3134939073
0.1637734291
0.1570263623
0.2414015793
0.05307548818
0.04217669756
0.07348547478
0.1319777667
0.0209575439
1.444922867
0.02178208835
0.02046031323
0.03599818153
0.005387756674
0.02850832279
0.004466105213
0.00558966736
0.04385915304
2.82759519
0.1050712912
0.002943765234
0.3997797275
0.004847923298
0.2287149202
3.910293275
0.3682761792
0.01229350268
0.707172391
0.04448421148
0.4783595311
3.425914768
0.6428344315
0.1484940635
0.6682417622
0.2908430703
1.070080976
3.914014798
0.3149706589
0.331805642
0.2770584617
0.3732977079
1.987389838
5.387352063
1.013958089
0.4603581561
0.6772712397
0.7180674768
0.5872730634
4.889579696
0.6646628952
0.187813198
0.6219354473
5.296816336
0.3993700581
0.1395437666
0.01979485418
0.06980321575
0.023675261
0.01805181146
0.02350350035
0.02396201621
0.01918024864
0.02510935056
0.02699789357
0.02967324534
0.004471769363
0.06245798943
0.01173671362
0.0001533591969
0.001324032656
0.0003002037531
3.918414104e-05
0.0001198005431
5.162914337e-05
2.435555362e-05
2.95712543e-05
3.237588082e-05
4.934664329e-05
4.796873716e-05
7.210999669e-05
0.0001644280657
0.0001335785554
0.0003079175033
0.0006265960765
0.0006557219924
0.001714291897
0.01138312717
0.007147522724
0.03380748928
0.02798860195
0.02905564956
0.03079201321
0.08823187703
0.0268562722
0.02537340189
0.0196586236
0.1474564688
0.04011420311
0.0004962223244
0.008339144407
0.001147386756
6.741288402e-05
0.0004651910156
0.000100884852
4.746869255e-05
6.719287281e-05
8.334874219e-05
0.0001022798216
0.0001150311499
0.0001673267496
0.0005474230878
0.000353956564
0.001268499252
0.004637054262
0.003859118169
0.0137520108
0.0723984079
0.04661975474
0.1356753669
0.0278800018
0.1560631349
0.02315682289
0.0215731448
0.01969610647
0.01634519115
0.01536673155
0.004753674981
0.08686828564
0.02052979126
0.0001950840124
0.006528889886
0.0006006889232
0.000173506154
0.0003736850595
0.0004302749393
0.0003261506767
0.0005427620388
0.0007971044579
0.003988748548
0.002119393674
0.01258813902
0.03660293843
0.03316370616
0.08347552869
0.09449603183
0.01422128842
0.01068303427
0.01185387169
0.009711726499
0.00687698022
0.007926024316
0.003167944616
0.09851905669
0.01407709102
0.001367976075
0.007997246647
0.006388094942
0.002695912295
0.008438415793
0.01296666792
0.0335473916
0.02712740314
0.08280745495
0.01030185978
21.42335842
18.6204311
15.36161527
1.373562934
0.04641448798
1.249441166
0.03592961367
1.235250038
0.03033251394
0.06860352306
1.393512657
0.0200903852
0.02553812304
0.7515453313
1.976360099
0.140283546
0.7205892074
3.604963621
0.6006850894
0.2217105323
3.693020765
0.7266534917
0.994388555
4.807129151
0.6595636788
4.065654985
6.79035659
0.8679759218
3.615302059
4.861005238
0.4073419719
2.334172499
5.411742213
0.2835397004
2.421149329
0.1791059921
1.163777659
0.09095086867
0.01838499042
0.01828163575
0.03629978822
0.0004580649011
7.370203779e-05
2.323249447e-05
3.550634039e-05
8.341683667e-05
0.0003092871122
0.001905671108
0.2052175884
0.1264678948
0.03914503885
0.02862392835
0.02971206194
0.02984165302
0.02796803576
0.03164443528
0.09334914013
0.003235291509
0.0001936239191
4.078775759e-05
6.894651118e-05
0.0002031776913
0.001374367492
0.01925094134
0.5940699124
0.3123581643
0.02487831021
0.001692184689
0.0001350915177
0.0002256884559
0.0007510005326
0.01213517915
0.1006937944
0.6126543718
0.01928495722
0.01806548038
0.002183014252
0.001479615443
0.001351905551
0.0008432235764
0.2885057091
0.02543215579
0.001617966027
0.001793214787
0.00759974039
0.07422018354
0.3001520811
0.01022069992
0.001685626463
0.0009451629403
0.2055636985
0.06073135692
0.002854490613
0.0004868737253
0.000345566309
0.004243688544
0.0002179304133
0.04443721092
0.0008704630299
0.0001316195247
7.487251021e-05
3.300576353e-05
0.0542057122
0.001185419038
0.0001928668654
0.0001157450594
5.254530955e-05
0.1003567728
0.003421155709
0.0005406253387
0.0003459553425
0.00017129776
2.201577448
0.08030400223
2.529369591
0.1020680387
0.4351750245
0.01861987508
1.260836637
0.03988736597
0.08343053143
0.1009535489
0.01458015845
0.0135429462
1.241115708
0.03278657457
0.1087668752
0.1100612148
0.01293791595
0.01274539261
0.1094487348
0.01306206741
0.3427885239
25.48360478
1.749357496
0.02340502665
0.04993679766
0.00425283288
1.036903147
0.003884857972
0.003837900732
0.02295770308
0.003403428493
0.003109266933
0.002627961999
0.002182368977
0.001773174404
0.001408413376
0.02994952954
0.0288659569
0.01982416035
0.002778938983
0.003037151851
0.002129315204
0.00234813573
0.002540577128
0.00174036613
0.001539974275
0.001373090211
0.001032727022
0.01340685313
0.0108542592
0.008653151069
0.0161974205
0.01292612529
0.002212433145
0.001872109745
0.002002145242
0.00167023533
0.001134863101
0.0008714224724
0.0007596379505
0.000623802798
0.002405844196
0.001823421546
0.001150997548
0.001046767739
0.00642405002
0.005146701404
0.01391795099
0.009959639668
0.008934027527
0.007555473108
0.006749844724
0.006322973442
0.005222985812
0.001120745622
0.0075914299
0.001294186471
0.0008312369423
0.001407773835
0.001158053602
0.001175384474
0.0009654336741
0.0007727735412
0.0005845883678
0.000510010357
0.0004086942972
0.001568347336
0.001406901901
0.0007207544216
0.0005512126242
0.001480077667
0.0002413485263
0.0004147816044
0.0002030238524
0.0001622365175
0.0002794046018
0.0001249989739
9.184970913e-05
6.351802682e-05
0.0001610737782
0.0005893983464
0.0001036654307
0.0001016374839
8.31794001e-05
6.196996815e-05
5.183115145e-05
4.347642946e-05
2.811437344e-05
1.618016579e-05
0.000227163851
0.002083723171
0.0004097149046
0.0001531959914
0.0003535239486
0.0002863173644
8.175717578e-05
0.0002211559109
0.00016021053
0.0001061068249
0.0006199003015
0.004472129658
0.0007964707868
0.0004424446199
0.0006990850465
0.00057572655
0.0002542270171
0.0004536483774
0.0003364168012
0.0004992422789
0.0002291935621
)
;

boundaryField
{
    walls
    {
        type            zeroGradient;
    }
    wallFilmFace_top
    {
        type            zeroGradient;
    }
    region0_to_wallFilmRegion_wallFilmFace
    {
        type            zeroGradient;
    }
    mirrorFace_top
    {
        type            zeroGradient;
    }
    region0_to_wallFilmRegion_mirrorFace
    {
        type            zeroGradient;
    }
    procBoundary2to0
    {
        type            processor;
        value           nonuniform List<scalar> 
26
(
0.2201700578
0.3085375278
0.1044391323
0.2471945437
0.05885777945
0.01003315057
0.0117193771
0.01691301154
0.1077766679
0.2581726561
0.4124045324
0.2511986323
0.1091577093
0.05954215807
0.04344917429
0.03521684783
0.04780063458
0.08302415127
0.3387938487
0.1582486694
0.2696149052
0.263730914
0.2089461437
0.1577758886
0.1199852806
2.688497023
)
;
    }
    procBoundary2to1
    {
        type            processor;
        value           nonuniform List<scalar> 
33
(
0.03679035126
0.03679035126
0.001119672628
0.001119672628
0.04323643638
0.03896528143
0.02298789894
0.02298789894
0.4869459082
0.2814151397
0.05191910465
0.0572376382
0.2392391126
0.516707336
0.4387128037
0.2522739969
0.3317323668
0.682373133
0.9180223693
0.4798174765
0.09305175356
0.04367494584
0.03940633313
0.06192231949
0.1026742887
0.08873471561
0.06937943515
0.06540485338
0.06857304375
0.07423005428
0.09779158102
0.1220600397
2.291985338
)
;
    }
    procBoundary2to3
    {
        type            processor;
        value           nonuniform List<scalar> 
64
(
0.01334585014
0.002987291332
0.002524538852
0.001783060278
0.0008675288251
0.009952770978
0.004296443295
0.004314328949
0.0002138574207
0.03000718055
0.001485586251
0.006915518338
0.002198959215
0.001485586251
0.001066409371
0.001305390569
0.003777049428
0.01623832253
0.05622151289
0.1253245613
0.1962037825
0.2637881789
0.5666962789
0.4699551455
0.4699551455
0.06205211725
0.2704202254
0.2704202254
0.07740619684
0.2704202254
0.02098057492
0.03304064853
0.02098057492
0.03201234886
0.02340279012
1.219902905
0.02860294299
0.03000718055
0.1341411075
0.02098057492
0.0005666496697
0.003382252131
0.0001635499086
1.877143605e-05
2.929759278e-05
0.0001014464887
0.1078248092
0.01415963128
0.8446973819
0.003393339278
0.002987291332
0.002116272483
0.001108218686
0.000729664168
0.006789057908
0.0005019690799
0.0004028573533
0.00406387183
0.0003231666396
0.0002544415109
4.076106457e-05
7.787293251e-06
6.145541252e-05
0.0001377114065
)
;
    }
}


// ************************************************************************* //
