/*--------------------------------*- C++ -*----------------------------------*\
  =========                 |
  \\      /  F ield         | OpenFOAM: The Open Source CFD Toolbox
   \\    /   O peration     | Website:  https://openfoam.org
    \\  /    A nd           | Version:  8
     \\/     M anipulation  |
\*---------------------------------------------------------------------------*/
FoamFile
{
    version     2.0;
    format      ascii;
    class       volVectorField;
    location    "0.7/wallFilmRegion";
    object      contactForce:contactAngle;
}
// * * * * * * * * * * * * * * * * * * * * * * * * * * * * * * * * * * * * * //

dimensions      [1 -2 -2 0 0 0 0];

internalField   nonuniform List<vector> 
1342
(
(0 0 0)
(0 606.4624325 -1.793257867e-12)
(0 0 0)
(-599.1720609 -549.2410548 -1.624059116e-12)
(0 0 0)
(0 0 0)
(0 0 0)
(0 0 0)
(0 696.5563536 -2.059657934e-12)
(0 0 0)
(0 0 0)
(0 0 0)
(0 -580.7243441 -1.717152527e-12)
(0 0 0)
(0 0 0)
(0 0 0)
(0 0 0)
(0 0 0)
(-412.041796 377.704979 -2.23368304e-12)
(-654.5685838 0 1.774211692e-12)
(-347.3371994 0 -9.414593603e-13)
(-517.2898245 0 1.402116871e-12)
(-1102.449328 -1010.578549 -5.976389748e-12)
(0 0 0)
(0 0 0)
(0 277.0348268 8.191684364e-13)
(0 0 0)
(0 0 0)
(0 636.2117267 0)
(0 -744.6548064 0)
(0 0 0)
(0 0 0)
(0 0 0)
(0 0 0)
(0 0 0)
(0 545.4717927 0)
(0 0 0)
(0 0 0)
(0 0 0)
(0 0 0)
(640.4820758 -587.1085685 0)
(0 0 0)
(0 0 0)
(0 0 0)
(0 0 0)
(0 0 0)
(0 0 0)
(0 0 0)
(0 0 0)
(0 0 0)
(0 0 0)
(0 0 0)
(0 716.4398189 0)
(0 0 0)
(1.113019125e-05 1870.482015 0)
(315.6496609 0 0)
(0 0 0)
(0 0 0)
(873.2641336 -800.492121 0)
(0 0 0)
(0 0 0)
(0 0 0)
(0 0 0)
(0 769.0535236 0)
(0 0 0)
(0 0 0)
(0 0 0)
(0 0 0)
(0 0 0)
(720.0950597 -660.0871369 0)
(0 0 0)
(0 0 0)
(0 0 0)
(0 0 0)
(0 0 0)
(897.1835245 -1.823865602e-11 2.431820803e-12)
(0 0 0)
(0 0 0)
(0 0 0)
(0 0 0)
(0 409.1398327 0)
(0 0 0)
(0 0 0)
(-1081.59451 991.4616322 0)
(0 0 0)
(0 0 0)
(0 -545.922598 0)
(0 0 0)
(-7.073772504e-06 1188.791952 0)
(-530.0678737 0 0)
(-535.639883 0 0)
(0 0 0)
(0 0 0)
(0 0 0)
(0 0 0)
(0 0 0)
(0 0 0)
(0 0 0)
(314.5005537 0 0)
(909.3729883 -833.591909 0)
(0 0 0)
(0 0 0)
(0 0 0)
(0 773.9796302 0)
(801.482833 -734.6925996 0)
(0 0 0)
(0 0 0)
(0 0 0)
(0 685.9468613 0)
(0 0 0)
(0 0 0)
(0 0 0)
(0 597.6410425 0)
(0 0 0)
(0 -241.4275502 0)
(0 0 0)
(0 0 0)
(0 0 0)
(0 0 0)
(0 392.7905738 0)
(0 0 0)
(-334.8228339 0 0)
(-283.5552021 0 0)
(-347.2657244 0 0)
(-515.9489786 0 0)
(-441.4564537 0 1.196570122e-12)
(-234.206771 0 0)
(-563.1415188 -516.213058 0)
(0 0 0)
(0 0 0)
(0 0 0)
(0 494.8746177 0)
(0 -741.4464302 0)
(0 0 0)
(0 0 0)
(0 0 0)
(0 690.1867505 0)
(724.8245146 -664.4224706 0)
(0 0 0)
(0 0 0)
(0 0 0)
(-651.3229533 597.0460427 0)
(0 0 0)
(-895.9218611 -821.261709 0)
(0 0 0)
(0 0 0)
(0 0 0)
(0 0 0)
(0 330.8179892 0)
(0 -483.4279706 0)
(0 0 0)
(0 0 0)
(0 0 0)
(0 0 0)
(0 0 0)
(0 0 0)
(0 0 0)
(9.987542313e-06 1678.465486 0)
(1148.740576 0 0)
(1116.41589 0 0)
(0 0 0)
(0 0 0)
(393.46913 0 0)
(495.1892009 0 0)
(1381.24302 0 0)
(0 0 0)
(-576.1240398 0 0)
(473.037746 -433.6179354 0)
(0 0 0)
(901.2496877 0 0)
(0 0 0)
(-1768.01195 -1.797077237e-11 -4.792205966e-12)
(0 0 0)
(0 0 0)
(0 0 0)
(0 0 0)
(0 0 0)
(0 287.0431303 0)
(-871.1504809 -798.554606 0)
(0 0 0)
(0 0 0)
(0 0 0)
(0 0 0)
(0 0 0)
(0 0 0)
(0 0 0)
(0 0 0)
(0 0 0)
(0 0 0)
(0 718.731646 0)
(0 0 0)
(-476.8486684 -437.1112785 0)
(0 0 0)
(0 0 0)
(0 465.1616106 0)
(0 0 0)
(-2073.858824 6.288723807e-11 0)
(0 0 0)
(-1184.219498 -2.407375049e-11 0)
(0 0 0)
(0 0 0)
(0 0 0)
(0 0 0)
(0 0 0)
(0 0 0)
(0 0 0)
(-738.6548036 7.382846513e-12 0)
(0 0 0)
(0 0 0)
(0 0 0)
(0 0 0)
(0 0 0)
(0 0 0)
(0 0 0)
(0 0 0)
(0 0 0)
(0 0 0)
(0 0 0)
(0 671.4313815 0)
(0 -468.0786978 0)
(0 0 0)
(0 0 0)
(0 0 0)
(0 266.5845488 0)
(1420.033701 0 0)
(0 0 0)
(0 0 0)
(0 0 0)
(0 0 0)
(0 0 0)
(0 0 0)
(0 0 0)
(0 0 0)
(0 0 0)
(0 0 0)
(0 0 0)
(0 0 0)
(0 0 0)
(0 0 0)
(0 0 0)
(0 0 0)
(0 0 0)
(0 0 0)
(0 0 0)
(0 0 0)
(0 0 0)
(0 0 0)
(-555.7738571 509.4593708 0)
(-782.4586128 -717.253731 0)
(0 0 0)
(0 0 0)
(0 0 0)
(0 351.458945 0)
(0 -461.5686384 0)
(0 0 0)
(0 0 0)
(0 0 0)
(0 0 0)
(0 0 0)
(0 0 0)
(0 0 0)
(0 0 0)
(0 0 0)
(0 0 0)
(0 0 0)
(0 0 0)
(0 0 0)
(0 0 0)
(0 0 0)
(0 0 0)
(0 0 0)
(0 0 0)
(0 0 0)
(0 0 0)
(0 0 0)
(0 0 0)
(0 0 0)
(0 0 0)
(0 0 0)
(0 0 0)
(0 0 0)
(0 416.6363896 0)
(0 0 0)
(844.0946261 -773.7534059 0)
(0 0 0)
(0 0 0)
(0 0 0)
(0 0 0)
(0 0 0)
(0 0 0)
(0 0 0)
(0 0 0)
(0 0 0)
(0 0 0)
(0 0 0)
(0 0 0)
(0 0 0)
(0 0 0)
(0 0 0)
(0 0 0)
(0 0 0)
(0 0 0)
(0 0 0)
(0 0 0)
(0 0 0)
(350.5392683 321.327662 0)
(536.591261 0 0)
(293.2083249 0 0)
(535.0785753 -490.4886931 0)
(0 0 0)
(0 540.8064684 0)
(0 0 0)
(0 0 0)
(823.7408781 -755.0958035 0)
(0 0 0)
(0 0 0)
(0 0 0)
(0 0 0)
(0 0 0)
(0 0 0)
(0 0 0)
(0 0 0)
(0 0 0)
(0 0 0)
(0 0 0)
(815.911207 747.918605 0)
(266.8089161 0 0)
(906.4965561 -830.9551749 0)
(0 0 0)
(0 0 0)
(0 0 0)
(747.2636369 684.9916659 0)
(458.7237632 0 0)
(340.4299037 0 0)
(0 0 0)
(0 0 0)
(0 0 0)
(0 0 0)
(292.3202285 0 0)
(0 0 0)
(0 0 0)
(0 0 0)
(0 0 0)
(673.5471287 -617.4182035 0)
(0 0 0)
(0 0 0)
(0 0 0)
(0 0 0)
(0 0 0)
(0 0 0)
(0 0 0)
(0 0 0)
(0 0 0)
(0 0 0)
(0 493.4306575 0)
(0 0 0)
(0 -277.4685724 0)
(0 0 0)
(0 0 0)
(0 0 0)
(0 356.511773 0)
(0 0 0)
(0 0 0)
(-271.7560233 0 0)
(-263.6116858 0 0)
(-454.2945949 0 0)
(-286.3712736 0 0)
(-660.5802998 0 0)
(0 0 0)
(0 0 0)
(0 0 0)
(0 0 0)
(0 0 0)
(-1109.738484 0 0)
(455.5421161 0 1.234749386e-12)
(706.6314598 0 0)
(910.3043182 -834.4456235 0)
(0 0 0)
(0 0 0)
(0 0 0)
(0 0 0)
(0 0 0)
(0 0 0)
(0 436.815318 0)
(0 0 0)
(0 -716.5491752 0)
(0 0 0)
(0 0 0)
(342.0882671 313.5809109 0)
(0 0 0)
(0 0 0)
(-423.0621877 -387.8070047 0)
(0 0 0)
(0 0 0)
(0 0 0)
(0 0 0)
(0 0 0)
(0 417.7657611 0)
(0 0 0)
(-587.5113456 0 0)
(0 0 0)
(-581.1564051 -532.7267066 0)
(0 0 0)
(-1058.324795 970.1310656 -2.868595105e-12)
(-637.9831027 0 0)
(0 0 0)
(586.1720782 0 0)
(732.5059348 -671.4637724 0)
(0 0 0)
(0 0 0)
(0 0 0)
(0 0 0)
(0 350.6197897 0)
(0 0 0)
(0 -564.3076901 0)
(0 0 0)
(927.9876852 850.6553765 0)
(0 0 0)
(-654.7652886 0 0)
(-1057.965825 -969.8020094 0)
(0 0 0)
(0 0 0)
(0 0 0)
(0 0 0)
(0 0 0)
(0 0 0)
(0 340.4378516 0)
(0 -667.0521623 0)
(0 0 0)
(-1146.286538 1.145712102e-11 0)
(0 0 0)
(0 0 0)
(0 0 0)
(0 0 0)
(0 516.1907598 0)
(0 0 0)
(0 -471.2247327 0)
(0 0 0)
(0 0 0)
(0 0 0)
(0 0 0)
(0 425.6018012 0)
(0 0 0)
(0 0 0)
(696.721994 0 0)
(0 0 0)
(0 -384.0123662 0)
(0 0 0)
(0 0 0)
(0 0 0)
(0 0 0)
(0 0 0)
(0 0 0)
(0 0 0)
(0 0 0)
(0 250.6455641 0)
(-1013.2583 -928.8201065 0)
(0 0 0)
(0 0 0)
(0 0 0)
(0 0 0)
(0 0 0)
(0 0 0)
(0 301.160015 0)
(0 0 0)
(0 0 0)
(983.1343018 -901.2064417 0)
(0 0 0)
(0 0 0)
(0 0 0)
(0 676.3217579 0)
(0 0 0)
(0 0 0)
(0 0 0)
(0 0 0)
(-839.301051 -769.3592953 0)
(0 0 0)
(0 0 0)
(0 0 0)
(0 0 0)
(0 0 0)
(0 0 0)
(0 0 0)
(0 0 0)
(0 769.8465379 0)
(0 0 0)
(0 0 0)
(0 0 0)
(0 0 0)
(0 0 0)
(0 0 0)
(0 0 0)
(0 537.3157845 0)
(0 0 0)
(0 0 0)
(0 -648.4441294 0)
(0 0 0)
(0 0 0)
(0 0 0)
(0 787.024269 0)
(0 0 0)
(0 0 0)
(0 0 0)
(0 -452.1014245 0)
(0 0 0)
(0 0 0)
(0 0 0)
(0 0 0)
(0 0 0)
(0 0 0)
(0 0 0)
(0 0 0)
(0 0 0)
(0 714.9615539 0)
(0 0 0)
(0 0 0)
(0 0 0)
(0 0 0)
(0 0 0)
(0 0 0)
(-5.785180767e-06 972.2273717 0)
(0 0 0)
(0 0 0)
(-561.9647587 0 0)
(-349.1404346 0 0)
(1018.250586 -933.396374 0)
(0 0 0)
(0 0 0)
(0 669.2197143 0)
(0 0 0)
(0 0 0)
(0 0 0)
(0 0 0)
(520.9346263 -477.5234092 0)
(0 0 0)
(0 0 0)
(0 0 0)
(0 0 0)
(0 0 0)
(0 0 0)
(0 0 0)
(0 0 0)
(0 740.9001779 0)
(0 0 0)
(0 0 0)
(0 0 0)
(0 0 0)
(0 0 0)
(0 0 0)
(0 0 0)
(0 334.4260879 0)
(-615.8205791 -564.5021964 0)
(0 0 0)
(0 0 0)
(0 727.9707701 0)
(330.7853626 0 0)
(248.758025 0 0)
(0 0 0)
(0 0 0)
(0 0 0)
(0 0 0)
(-647.2834978 0 0)
(-439.4889406 0 0)
(-1416.25119 0 0)
(-1404.779458 0 0)
(-656.6089623 0 0)
(1024.755949 -939.3596181 0)
(0 0 0)
(0 0 0)
(0 0 0)
(0 0 0)
(0 669.3469053 0)
(0 0 0)
(0 0 0)
(0 0 0)
(0 0 0)
(0 0 0)
(0 0 0)
(0 0 0)
(0 -781.1959223 0)
(0 0 0)
(0 0 0)
(0 0 0)
(0 300.670315 0)
(0 0 0)
(0 0 0)
(0 0 0)
(0 0 0)
(0 0 0)
(-489.4553351 -448.6673921 0)
(0 0 0)
(0 0 0)
(0 0 0)
(0 0 0)
(0 0 0)
(-745.3197202 683.209746 0)
(282.4599571 0 0)
(486.194534 -445.678322 0)
(0 0 0)
(0 0 0)
(0 764.5221945 0)
(0 0 0)
(0 0 0)
(0 0 0)
(0 0 0)
(1110.561344 1018.014569 0)
(622.3792699 -570.5143328 -1.686962391e-12)
(0 0 0)
(-2233.641247 -3.783935437e-13 0)
(0 0 0)
(0 0 0)
(385.3182113 353.2083617 0)
(0 0 0)
(0 0 0)
(0 0 0)
(0 0 0)
(0 0 0)
(0 -740.5953985 0)
(0 0 0)
(0 0 0)
(0 0 0)
(0 0 0)
(0 0 0)
(0 0 0)
(0 0 0)
(-505.9908993 463.8249902 0)
(-700.6818018 0 0)
(510.8758169 -468.3028339 0)
(0 0 0)
(0 291.2907505 0)
(1493.49669 3.036098185e-11 0)
(0 0 0)
(0 0 0)
(723.8666194 663.5443999 0)
(0 0 0)
(0 -395.4907744 -1.169432618e-12)
(0 0 0)
(0 0 0)
(0 0 0)
(0 0 0)
(0 348.3091772 0)
(0 0 0)
(0 0 0)
(0 0 0)
(0 0 0)
(0 0 0)
(-440.9204095 -404.1770413 0)
(0 0 0)
(0 0 0)
(0 0 0)
(0 0 0)
(0 0 0)
(0 0 0)
(0 0 0)
(0 0 0)
(0 0 0)
(-1150.471164 5.846921918e-11 0)
(0 0 0)
(0 654.3664571 0)
(0 427.3318348 0)
(1010.157717 -925.9779051 0)
(0 0 0)
(-1016.695589 931.9709601 0)
(0 0 0)
(0 -488.7702414 -1.445252061e-12)
(0 0 0)
(0 0 0)
(0 0 0)
(619.2655258 567.6600643 0)
(0 0 0)
(0 0 0)
(0 0 0)
(0 0 0)
(0 0 0)
(0 -582.2952877 0)
(0 0 0)
(0 0 0)
(0 0 0)
(0 0 0)
(0 0 0)
(0 0 0)
(0 0 0)
(0 0 0)
(0 0 0)
(0 0 0)
(0 0 0)
(0 0 0)
(0 342.9122479 0)
(0 734.8878013 0)
(0 -282.0290037 0)
(0 0 0)
(0 0 0)
(0 277.3600702 0)
(0 -387.0847138 0)
(0 0 0)
(0 0 0)
(0 0 0)
(0 722.3865939 0)
(0 0 0)
(0 0 0)
(0 0 0)
(0 0 0)
(-351.7280738 0 0)
(-398.069612 -364.8971436 0)
(0 0 0)
(0 0 0)
(0 0 0)
(0 0 0)
(0 0 0)
(0 0 0)
(0 0 0)
(0 0 0)
(0 0 0)
(0 0 0)
(0 0 0)
(0 0 0)
(0 744.5901685 0)
(-613.0462989 561.9591063 0)
(0 -378.0691759 0)
(0 0 0)
(0 0 0)
(-872.023054 799.3544647 0)
(-995.0821999 -912.1586816 -2.697175722e-12)
(0 0 0)
(0 0 0)
(724.8309172 664.4283396 0)
(0 0 0)
(0 0 0)
(0 0 0)
(0 0 0)
(0 -358.4474905 0)
(0 0 0)
(0 0 0)
(0 0 0)
(0 0 0)
(0 0 0)
(0 0 0)
(0 0 0)
(0 0 0)
(0 0 0)
(0 0 0)
(0 0 0)
(0 0 0)
(0 0 0)
(0 0 0)
(0 605.8138939 0)
(0 0 0)
(-1241.370733 1.261778293e-11 0)
(0 0 0)
(1114.811446 -1.133138423e-11 0)
(0 0 0)
(0 0 0)
(0 0 0)
(0 0 0)
(0 676.5554754 0)
(0 0 0)
(0 0 0)
(0 0 0)
(0 0 0)
(0 -565.2532862 0)
(0 0 0)
(0 0 0)
(0 0 0)
(0 0 0)
(0 0 0)
(0 0 0)
(0 0 0)
(0 0 0)
(0 0 0)
(0 0 0)
(0 0 0)
(0 0 0)
(614.6931518 563.4687215 0)
(551.8573527 0 0)
(0 0 0)
(0 0 0)
(0 0 0)
(0 0 0)
(0 -1122.425313 0)
(0 0 0)
(0 0 0)
(0 0 0)
(0 0 0)
(0 619.8994012 0)
(0 0 0)
(0 0 0)
(0 0 0)
(0 0 0)
(0 -582.5915257 0)
(0 0 0)
(0 0 0)
(0 0 0)
(0 0 0)
(0 0 0)
(0 0 0)
(0 0 0)
(0 0 0)
(0 0 0)
(0 0 0)
(0 0 0)
(-4.190725633e-06 704.2793487 0)
(-545.7095139 0 0)
(0 0 0)
(0 0 0)
(0 0 0)
(0 0 0)
(0 0 0)
(0 0 0)
(0 0 0)
(0 0 0)
(0 0 0)
(0 0 0)
(0 695.2554914 0)
(0 0 0)
(0 0 0)
(0 0 0)
(0 0 0)
(0 -404.9417973 0)
(0 0 0)
(0 0 0)
(0 0 0)
(0 0 0)
(0 0 0)
(0 0 0)
(0 0 0)
(0 0 0)
(0 0 0)
(0 0 0)
(0 0 0)
(0 0 0)
(0 0 0)
(0 341.0919013 0)
(0 0 0)
(301.3518376 0 0)
(697.4613366 0 0)
(332.4808038 0 0)
(0 0 0)
(707.749354 0 0)
(221.9664579 0 -6.016412863e-13)
(516.142817 0 0)
(253.6129102 0 0)
(0 0 0)
(0 0 0)
(0 0 0)
(0 0 0)
(0 0 0)
(0 0 0)
(349.4356013 0 0)
(539.6274845 0 0)
(447.285903 0 0)
(229.2996753 0 0)
(489.969118 0 0)
(443.6747364 0 0)
(524.9996495 0 0)
(339.6130938 0 0)
(432.5212588 0 0)
(480.7665014 0 0)
(273.015333 0 0)
(508.6610465 0 0)
(656.9695601 0 0)
(0 0 0)
(0 0 0)
(-1055.536609 -91.67006327 -1235.253947)
(0 0 0)
(0 0 0)
(0 0 0)
(0 0 0)
(0 0 0)
(0 0 0)
(0 0 0)
(-3403.368933 863.0997461 2259.522684)
(0 0 0)
(0 0 0)
(0 0 0)
(0 0 0)
(0 0 0)
(0 0 0)
(0 0 0)
(0 0 0)
(0 0 0)
(0 0 0)
(0 0 0)
(0 0 0)
(0 0 0)
(0 0 0)
(0 0 0)
(23.98234272 -1431.796521 -55.66294085)
(0 0 0)
(-0.04865840617 -1066.264961 -47.62624751)
(-17.90259877 1778.921206 -2077.792504)
(0 0 0)
(0 0 0)
(0 -2.049418902 -1217.499127)
(0 0 0)
(0 0 0)
(0 -1.222435853 -1281.64881)
(0 0 0)
(0 0 0)
(0 0 0)
(0 0 0)
(0 0 0)
(1.997635536e-12 -1.165009178 -1377.551878)
(0 0 0)
(0 0 0)
(-1.984625528e-12 -0.7215146098 -1370.187861)
(0 0 0)
(0 0 0)
(8.852591422e-05 0.8527632595 -886.1120834)
(0 0 0)
(0 0 0)
(0.01001214377 2.816697778 -865.8839774)
(0 0 0)
(0 0 0)
(0 0 0)
(-0.02621431243 581.9711418 -26.28571149)
(-334.2547847 -334.2894432 0.09133647981)
(-0.006211408565 -746.4885715 -50.79632923)
(-2433.860224 1804.576641 -217.6600519)
(0.1559382401 -661.8708947 -64.86725767)
(-820.5280605 -819.8943453 -48.98272975)
(0.1926740875 818.776242 -80.49663358)
(-810.4186021 -507.3140704 -122.4495781)
(-1219.46907 542.7437374 -512.0034035)
(-894.3526792 847.0901344 -350.1274985)
(-4943.187898 -1437.96946 89.38505115)
(-743.4278187 -703.3298021 -292.239084)
(0 0 0)
(0.05498556584 -1584.9305 1464.360502)
(-972.4661692 957.1022495 -580.8574036)
(-0.000326744323 -424.6302284 -11.81663989)
(0 0 0)
(-0.0004158941185 543.3495735 -11.97419233)
(-1268.857183 -1141.87865 -893.2608213)
(-1709.265947 1341.127887 -1414.718969)
(0 0 0)
(-1661.74969 843.5511245 -1400.81894)
(-2156.284734 -2354.139023 -323.7563821)
(4.353535371e-12 1716.858142 1708.618545)
(-2743.147083 2985.28426 -405.4351451)
(-1454.311085 -734.3691011 -1219.429532)
(0 0 0)
(0 0 0)
(0 0 0)
(0 0 0)
(0 0 0)
(-974.3862752 -7.978676939 0.01310259645)
(0 0 0)
(0 0 0)
(0 0 0)
(0 0 0)
(0 0 0)
(0 0 0)
(0 0 0)
(0 0 0)
(0 0 0)
(1.763412797 1112.673959 -1.772159088)
(0 0 0)
(-1188.260475 -0.4551711711 -0.0001069906597)
(0 0 0)
(0 0 0)
(0 0 0)
(0 0 0)
(0 0 0)
(-1403.228754 0.08735605434 0.0003519853932)
(0 0 0)
(0 0 0)
(320.9029594 -0.511645464 -320.9028932)
(0 0 0)
(-1526.097765 1450.089575 -2.310922741)
(0 0 0)
(-723.5631109 0.02570056414 -0.0006921461425)
(0 0 0)
(0 0 0)
(0 0 0)
(0 0 0)
(0 0 0)
(0 0 0)
(0 0 0)
(0 0 0)
(0 0 0)
(0 0 0)
(0 0 0)
(0 0 0)
(0 0 0)
(0 0 0)
(0 0 0)
(-1190.244439 1.932029234 -0.003553341962)
(0 0 0)
(0 0 0)
(0 0 0)
(-801.3705678 8.980624523 -0.01429717285)
(0 0 0)
(0 0 0)
(0 0 0)
(0 0 0)
(0 0 0)
(0 0 0)
(0 0 0)
(0 0 0)
(0 0 0)
(0 0 0)
(0 0 0)
(0 0 0)
(0 0 0)
(0 0 0)
(0 0 0)
(0 0 0)
(0 0 0)
(0 0 0)
(0 0 0)
(0 0 0)
(0 0 0)
(0 0 0)
(0 0 0)
(0 0 0)
(0 0 0)
(0 0 0)
(0 0 0)
(0 0 0)
(0 0 0)
(0 0 0)
(0 0 0)
(0 0 0)
(0 0 0)
(0 0 0)
(0 0 0)
(0 0 0)
(0 0 0)
(0 0 0)
(0 0 0)
(0 0 0)
(0 0 0)
(-0.1437773141 -650.1386484 642.5291121)
(0 0 0)
(0 0 0)
(0 0 0)
(0 0 0)
(0 0 0)
(0 0 0)
(0 0 0)
(0 0 0)
(0 0 0)
(0 0 0)
(0 0 0)
(0 0 0)
(0 0 0)
(0 0 0)
(0 0 0)
(0 0 0)
(0 0 0)
(0 0 0)
(0 0 0)
(0 0 0)
(0 0 0)
(-0.3998373686 1825.108987 1804.325826)
(0 0 0)
(-786.1313665 -335.4411715 -414.9033873)
(0 0 0)
(0 0 0)
(0 0 0)
(0 0 0)
(0 0 0)
(0 0 0)
(0 0 0)
(0 0 0)
(0 0 0)
(0 0 0)
(0 0 0)
(0 0 0)
(0 0 0)
(0 0 0)
(0 0 0)
(0 0 0)
(0 0 0)
(0 0 0)
(0 0 0)
(0 0 0)
(0 0 0)
(0 0 0)
(0 0 0)
(0 0 0)
(0 0 0)
(0 0 0)
(0 0 0)
(0 0 0)
(0 0 0)
(0 0 0)
(0 0 0)
(0 0 0)
(0 0 0)
(0 0 0)
(0 0 0)
(0 0 0)
(0 0 0)
(0 0 0)
(0 0 0)
(0 0 0)
(0 0 0)
(0 0 0)
(0 0 0)
(0 0 0)
(0 0 0)
(-1744.8734 138.423405 -337.8655026)
(-18.76927886 -443.6575717 -1199.215614)
(0 0 0)
(-0.1822755082 353.6795804 -354.8080249)
(0 0 0)
(-0.1869931961 366.7543932 -367.9242663)
(0 0 0)
(0 0 0)
(-937.3405378 -80.84293562 -2496.315617)
(0 0 0)
(0 0 0)
(0.0001035817874 -2.602889609 -1038.420969)
(-1463.533538 -4.023553246 0.006554473962)
(0.5709945683 2359.816058 -3.762023428)
(-1.431141278e-12 -1.164187222 -986.6011483)
(0 0 0)
(-1251.053344 -0.03577744762 -0.0001306879693)
(1.306650547 -2101.054995 -2479.518126)
(0 0 0)
(0 0 0)
(-1.340910269 2177.287994 -2573.533905)
(0 0 0)
(0 0 0)
(0 -0.4707300349 -613.9850906)
(0 0 0)
(0 0 0)
(-1.05070568e-12 0.01444669927 -726.6127948)
(0 0 0)
(0 0 0)
(0.001178065583 1.606879303 -761.7528779)
(0 0 0)
(0 0 0)
(0 0 0)
(0 0 0)
(-489.4860856 489.1208103 -29.17973227)
(0 0 0)
(0 0 0)
(0 0 0)
(0 0 0)
(0 0 0)
(0 0 0)
(0 0 0)
(0 0 0)
(0 0 0)
(0 0 0)
(0 0 0)
(-0.007697594223 1038.151779 -71.10125182)
(0 0 0)
(0 0 0)
(0 0 0)
(0 0 0)
(0 0 0)
(0 0 0)
(0 0 0)
(0 0 0)
(0 0 0)
(0 0 0)
(0 0 0)
(0 0 0)
(0 0 0)
(0 0 0)
(0 0 0)
(0.4217929811 868.2709982 59.79242664)
(0 0 0)
(0 0 0)
(0 0 0)
(0 0 0)
(0 0 0)
(0 0 0)
(0 0 0)
(0.03180099741 935.1440804 865.8009612)
(-2232.685652 -2001.981471 -990.0104754)
(0 0 0)
(0 0 0)
(0 0 0)
(0 0 0)
(0 0 0)
(0 0 0)
(0 -1545.810047 1533.097775)
(0 0 0)
(0 0 0)
(0 0 0)
(0 0 0)
(0 0 0)
(-1871.590901 -1463.181596 -1554.601347)
(0 0 0)
(0 0 0)
(0 0 0)
(-2912.733662 -1746.678772 1835.988573)
(0 0 0)
(0 0 0)
(0 0 0)
(0 0 0)
(0 0 0)
(0 0 0)
(0 0 0)
(0 0 0)
(0 0 0)
(0 0 0)
(0 0 0)
(0 0 0)
(0 0 0)
(0 0 0)
(0 0 0)
(0 0 0)
(0 0 0)
(0 0 0)
(0 0 0)
(0 0 0)
(0 0 0)
(-0.4513965313 879.3198891 -882.1259307)
(0 0 0)
(0 0 0)
(-1112.297254 -1108.540242 1.766651853)
(-1850.9384 -38.73228132 -1638.39394)
(0 0 0)
(-0.4803835523 923.7943822 -926.743269)
(0 0 0)
(0 0 0)
(1021.664584 -960.9034221 1.5300176)
(0 0 0)
(0 0 0)
(-0.226500805 439.3644132 -440.765806)
(0 0 0)
(-1.44165239 -1219.553679 1.942018866)
(-0.1511906891 -622.5787399 0.9915824632)
(0 0 0)
(0 0 0)
(0.04694719856 -741.6906823 1.181477687)
(0 0 0)
(0 0 0)
(0 0 0)
(-0.3969841251 -763.7025018 -761.2731384)
(0 0 0)
(0 0 0)
(0 0 0)
(-0.3892072367 -768.6536532 -766.2061504)
(0 0 0)
(0 0 0)
(0 0 0)
(0 0 0)
(0 0 0)
(0 0 0)
(0 0 0)
(0 0 0)
(0 0 0)
(0 0 0)
(0 0 0)
(0 0 0)
(0 0 0)
(0 0 0)
(0 0 0)
(0 0 0)
(0 0 0)
(0 0 0)
(0 0 0)
(0 0 0)
(0 0 0)
(0 0 0)
(0 0 0)
(0 0 0)
(0 0 0)
(0 0 0)
(0 0 0)
(0 0 0)
(0 0 0)
(0 0 0)
(0 0 0)
(0 0 0)
(0 0 0)
(0 0 0)
(0 0 0)
(0 0 0)
(0 0 0)
(0 0 0)
(0 0 0)
(0 0 0)
(0 0 0)
(0 0 0)
(0 0 0)
(0 0 0)
(0 0 0)
(0 0 0)
(0 0 0)
(0 0 0)
(0 0 0)
(0 0 0)
(0 0 0)
(0 0 0)
(0 0 0)
(0 0 0)
(0 0 0)
(0 0 0)
(0 0 0)
(0 0 0)
(0 0 0)
(0 0 0)
(0 0 0)
(0 0 0)
(0 0 0)
(0 0 0)
(0 0 0)
(0 0 0)
(0 0 0)
(0 0 0)
(0 0 0)
(0 0 0)
(0 0 0)
(0 0 0)
(0 0 0)
(0 0 0)
(0 0 0)
(0 0 0)
(0 0 0)
(0 0 0)
(0 0 0)
(0 0 0)
(0 0 0)
(0 0 0)
(0 0 0)
(0 0 0)
(0 0 0)
(0 0 0)
(0 0 0)
(0 0 0)
(0 0 0)
(0 0 0)
(0 0 0)
(0 0 0)
(0 0 0)
(0 0 0)
(0 0 0)
(0 0 0)
(0 0 0)
(0 0 0)
(0 0 0)
(0 0 0)
(0 0 0)
(0 0 0)
(0 0 0)
)
;

boundaryField
{
    walls
    {
        type            calculated;
        value           uniform (0 0 0);
    }
    wallFilmFace_top
    {
        type            calculated;
        value           uniform (0 0 0);
    }
    region0_to_wallFilmRegion_wallFilmFace
    {
        type            calculated;
        value           uniform (0 0 0);
    }
    mirrorFace_top
    {
        type            calculated;
        value           uniform (0 0 0);
    }
    region0_to_wallFilmRegion_mirrorFace
    {
        type            calculated;
        value           uniform (0 0 0);
    }
    procBoundary2to0
    {
        type            processor;
        value           uniform (0 0 0);
    }
    procBoundary2to1
    {
        type            processor;
        value           uniform (0 0 0);
    }
    procBoundary2to3
    {
        type            processor;
        value           uniform (0 0 0);
    }
}


// ************************************************************************* //
