/*--------------------------------*- C++ -*----------------------------------*\
  =========                 |
  \\      /  F ield         | OpenFOAM: The Open Source CFD Toolbox
   \\    /   O peration     | Website:  https://openfoam.org
    \\  /    A nd           | Version:  8
     \\/     M anipulation  |
\*---------------------------------------------------------------------------*/
FoamFile
{
    version     2.0;
    format      ascii;
    class       volScalarField;
    location    "0.7/wallFilmRegion";
    object      kappa;
}
// * * * * * * * * * * * * * * * * * * * * * * * * * * * * * * * * * * * * * //

dimensions      [1 1 -3 -1 0 0 0];

internalField   nonuniform List<scalar> 
1342
(
0.6088100001
0.6088100004
0.6088099997
0.6088100045
0.6088100221
0.6088100055
0.6088100034
0.6088100031
0.6088100003
0.6088099999
0.6088100002
0.6088100005
0.6088100018
0.6088100044
0.6088100068
0.6088100082
0.6088100089
0.60881001
0.6088100011
0.6088100016
0.6088100009
0.6088100008
0.6088100009
0.6088100013
0.608810002
0.6088100034
0.6088100511
0.6088100248
0.6088100014
0.6088099993
0.608810005
0.6088100222
0.6088100022
0.6088100016
0.6088100021
0.6088100002
0.60881
0.6088100003
0.6088100004
0.6088100012
0.6088100028
0.6088100053
0.6088100077
0.6088100094
0.6088100111
0.6088100052
0.6088100038
0.608810002
0.6088100016
0.6088100018
0.6088100025
0.6088100035
0.6088100036
0.6088100002
0.6088099984
0.6088099982
0.6088099992
0.6088099982
0.6088099992
0.6088100064
0.6088100008
0.6088100006
0.6088100011
0.6088100001
0.6088100001
0.6088100003
0.6088100007
0.6088100016
0.6088100035
0.6088100056
0.6088100073
0.6088100086
0.6088100099
0.6088100118
0.6088100142
0.6088100023
0.6088100035
0.6088100041
0.6088100049
0.6088100055
0.6088100039
0.6088100097
0.6088100052
0.6088099973
0.6088099982
0.6088099984
0.608810001
0.6088100006
0.6088100001
0.6088100001
0.6088100001
0.60881
0.60881
0.6088100003
0.6088100005
0.6088100009
0.6088100016
0.6088100024
0.6088100032
0.608810004
0.6088100052
0.6088100071
0.6088100104
0.6088100005
0.6088100017
0.6088100053
0.6088100077
0.6088100074
0.6088100043
0.6088100057
0.6088100016
0.6088099991
0.6088099979
0.608809998
0.6088099978
0.6088100082
0.6088100033
0.6088100018
0.6088099989
0.60881
0.6088100001
0.6088100005
0.6088100008
0.6088100009
0.6088100012
0.6088100015
0.6088100021
0.6088100028
0.6088100037
0.6088100048
0.6088100074
0.6088100002
0.6088100004
0.6088100014
0.6088100073
0.6088100081
0.6088100043
0.6088100043
0.6088100071
0.6088100077
0.6088100035
0.6088099983
0.608809997
0.6088099975
0.6088099967
0.6088099928
0.608809992
0.6088099951
0.6088099999
0.6088100002
0.6088100007
0.6088100012
0.6088100014
0.6088100014
0.6088100015
0.6088100019
0.6088100025
0.6088100031
0.6088100012
0.6088100002
0.60881
0.6088100001
0.6088100002
0.6088100008
0.6088100029
0.6088100043
0.6088100014
0.6088100001
0.6088100106
0.6088100045
0.6088100028
0.6088099975
0.6088099974
0.6088099928
0.6088099914
0.6088099928
0.6088099957
0.6088099999
0.6088100004
0.6088100011
0.6088100018
0.608810002
0.6088100021
0.608810002
0.6088100021
0.6088100024
0.608810003
0.6088100039
0.6088100048
0.6088100002
0.6088100003
0.6088100008
0.6088100024
0.608810006
0.6088100044
0.608809992
0.6088100003
0.6088099997
0.6088099982
0.6088100036
0.6088100073
0.6088100008
0.6088099992
0.6088099989
0.6088099998
0.6088100008
0.6088100002
0.6088100008
0.6088100013
0.6088100014
0.6088100013
0.6088100013
0.6088100012
0.6088100012
0.6088100013
0.6088100014
0.6088100018
0.6088100026
0.6088100006
0.6088100009
0.6088100023
0.6088100055
0.6088100087
0.6088100044
0.6088099979
0.608810001
0.6088100034
0.6088099994
0.6088100067
0.6088100076
0.6088100028
0.6088100012
0.6088100008
0.6088100009
0.6088100012
0.6088100007
0.6088100012
0.6088100011
0.608810001
0.6088100009
0.6088100009
0.6088100009
0.6088100009
0.608810001
0.6088100012
0.6088100016
0.6088100022
0.6088100014
0.6088100022
0.6088100043
0.6088100069
0.6088100084
0.6088100045
0.6088099981
0.6088100014
0.6088100046
0.6088100025
0.6088100119
0.6088100099
0.6088100046
0.6088100024
0.6088100017
0.6088100016
0.6088100017
0.6088100014
0.6088100013
0.6088100009
0.6088100007
0.6088100007
0.6088100007
0.6088100008
0.6088100008
0.608810001
0.6088100012
0.6088100017
0.6088100023
0.6088100025
0.6088100036
0.608810005
0.6088100062
0.6088100068
0.6088100044
0.6088099964
0.6088099975
0.6088100002
0.6088100049
0.6088100145
0.6088100146
0.6088100085
0.6088100048
0.6088100034
0.6088100031
0.6088100031
0.6088100031
0.6088100011
0.6088100007
0.6088100006
0.6088100006
0.6088100006
0.6088100007
0.6088100008
0.6088100011
0.6088100014
0.6088100019
0.6088100024
0.6088100028
0.608810003
0.6088100032
0.6088100034
0.6088100038
0.608810004
0.6088099945
0.6088099938
0.608809994
0.6088099979
0.6088100083
0.6088100164
0.6088100151
0.6088100101
0.6088100071
0.6088100059
0.6088100062
0.6088100071
0.6088100011
0.6088100006
0.6088100005
0.6088100005
0.6088100006
0.6088100007
0.6088100009
0.6088100012
0.6088100015
0.6088100016
0.6088100016
0.6088100016
0.6088100017
0.6088100018
0.6088100019
0.6088100021
0.608810003
0.6088099951
0.608809994
0.6088099938
0.6088099939
0.6088099954
0.6088099997
0.6088100044
0.6088100114
0.6088100157
0.6088100118
0.6088100113
0.6088100127
0.6088100013
0.6088100006
0.6088100005
0.6088100005
0.6088100006
0.6088100008
0.608810001
0.6088100013
0.6088100014
0.6088100014
0.6088100015
0.6088100017
0.6088100021
0.6088100024
0.6088100025
0.6088100026
0.6088100032
0.6088099957
0.608809996
0.6088099949
0.6088099941
0.608809995
0.6088099909
0.6088099892
0.6088099884
0.6088099913
0.6088100066
0.6088100117
0.6088100137
0.6088100015
0.6088100007
0.6088100005
0.6088100006
0.6088100007
0.6088100009
0.6088100011
0.6088100013
0.6088100014
0.6088100015
0.6088100017
0.6088100023
0.6088100037
0.6088100065
0.608810008
0.6088100045
0.6088100036
0.6088099958
0.6088099988
0.6088099988
0.6088099956
0.6088100018
0.6088099957
0.6088099884
0.6088099881
0.6088099889
0.6088099911
0.6088099983
0.6088100047
0.6088100013
0.6088100007
0.6088100006
0.6088100006
0.6088100007
0.6088100009
0.6088100011
0.6088100012
0.6088100013
0.6088100017
0.6088100024
0.6088100036
0.6088100056
0.608810009
0.6088100126
0.6088100105
0.608810004
0.6088099966
0.6088100011
0.6088100016
0.6088099996
0.608810004
0.6088100018
0.6088099931
0.6088099948
0.6088099931
0.6088099919
0.6088099946
0.6088099991
0.6088100009
0.6088100007
0.6088100006
0.6088100007
0.6088100007
0.6088100008
0.6088100009
0.6088100011
0.6088100015
0.6088100023
0.6088100034
0.6088100052
0.6088100079
0.6088100114
0.6088100145
0.6088100143
0.608810004
0.6088099978
0.608810008
0.608810011
0.6088100053
0.6088100064
0.608810006
0.6088100004
0.60881
0.6088099993
0.6088099977
0.6088099965
0.6088099974
0.6088100004
0.6088100006
0.6088100006
0.6088100006
0.6088100005
0.6088100005
0.6088100007
0.6088100012
0.608810002
0.6088100031
0.6088100048
0.6088100071
0.6088100099
0.6088100125
0.6088100136
0.6088100122
0.6088100037
0.608809999
0.6088100168
0.6088100161
0.6088100113
0.6088100115
0.6088100137
0.6088100249
0.60881
0.6088100003
0.6088099994
0.6088099984
0.608809998
0.6088099998
0.6088100005
0.6088100005
0.6088100003
0.6088100002
0.6088100003
0.6088100008
0.6088100016
0.6088100028
0.6088100045
0.6088100066
0.6088100091
0.6088100112
0.6088100123
0.6088100114
0.6088100092
0.6088100035
0.6088100017
0.6088100112
0.6088100126
0.608810011
0.6088100018
0.6088100001
0.60881
0.60881
0.60881
0.6088100001
0.6088099995
0.6088099988
0.6088099992
0.60881
0.6088100001
0.6088099998
0.6088099999
0.6088100005
0.6088100015
0.6088100027
0.6088100041
0.6088100056
0.6088100071
0.6088100085
0.6088100094
0.6088100095
0.6088100085
0.608810007
0.6088100033
0.6088100032
0.608810007
0.6088100084
0.6088100092
0.6088100041
0.6088100021
0.6088100007
0.60881
0.6088100002
0.6088100004
0.6088099995
0.6088099988
0.6088099989
0.6088099994
0.6088099994
0.6088099995
0.60881
0.6088100009
0.6088100015
0.6088100016
0.6088100017
0.6088100018
0.6088100021
0.6088100026
0.6088100033
0.6088100041
0.6088100047
0.6088100048
0.6088100032
0.608810003
0.6088100044
0.6088100044
0.6088100032
0.6088100015
0.6088100015
0.6088100019
0.6088100001
0.6088100007
0.6088100009
0.6088099998
0.6088099991
0.6088099987
0.6088099987
0.6088099987
0.6088099994
0.6088100006
0.6088100016
0.6088100046
0.6088100096
0.6088100092
0.6088100046
0.6088100028
0.6088100025
0.6088100025
0.6088100028
0.608810003
0.6088100032
0.6088100031
0.6088100027
0.6088100031
0.6088100027
0.6088100016
0.6088100009
0.6088100009
0.6088100014
0.6088100005
0.6088100013
0.6088100006
0.6088099997
0.6088099991
0.6088099987
0.6088099985
0.6088099985
0.6088099996
0.608810001
0.6088100033
0.6088100101
0.608810022
0.6088100306
0.6088100123
0.6088100044
0.6088100026
0.608810002
0.6088100019
0.608810002
0.6088100022
0.608810003
0.6088100029
0.6088100029
0.6088100022
0.6088100012
0.6088100008
0.6088100008
0.6088100012
0.6088100012
0.6088100012
0.6088100002
0.6088099995
0.608809999
0.6088099988
0.6088099987
0.6088099987
0.60881
0.6088100014
0.6088100061
0.6088100158
0.6088100283
0.6088100349
0.6088100201
0.6088100081
0.6088100038
0.6088100023
0.6088100018
0.6088100016
0.6088100016
0.6088100029
0.6088100032
0.6088100033
0.6088100024
0.6088100013
0.6088100008
0.6088100009
0.6088100013
0.6088100016
0.6088100008
0.6088099998
0.6088099992
0.6088099989
0.6088099991
0.6088099992
0.6088099992
0.6088100005
0.6088100034
0.6088100111
0.6088100227
0.6088100343
0.608810037
0.6088100247
0.6088100123
0.608810006
0.6088100034
0.6088100023
0.6088100017
0.6088100016
0.6088100029
0.6088100037
0.6088100038
0.6088100029
0.6088100015
0.6088100009
0.608810001
0.6088100018
0.6088100013
0.6088100007
0.6088099995
0.6088099991
0.608809999
0.6088099996
0.6088099999
0.60881
0.6088100012
0.6088100096
0.6088100215
0.6088100326
0.6088100398
0.6088100371
0.6088100256
0.6088100148
0.6088100082
0.6088100048
0.6088100032
0.6088100022
0.6088100018
0.6088100029
0.6088100043
0.6088100044
0.6088100037
0.608810002
0.608810001
0.6088100012
0.6088100029
0.6088100012
0.6088100006
0.6088099995
0.6088099991
0.6088099992
0.60881
0.6088100008
0.6088100012
0.6088100022
0.6088100209
0.608810035
0.6088100413
0.6088100406
0.6088100331
0.6088100231
0.6088100149
0.6088100093
0.608810006
0.6088100041
0.6088100025
0.608810002
0.608810003
0.6088100049
0.608810005
0.6088100042
0.60881
0.6088100012
0.6088100015
0.6088100043
0.6088100012
0.6088100007
0.6088099996
0.6088099992
0.6088099995
0.6088100004
0.6088100014
0.6088100029
0.6088100039
0.6088100347
0.6088100464
0.6088100412
0.6088100322
0.6088100242
0.6088100178
0.6088100128
0.608810009
0.6088100063
0.6088100045
0.6088100027
0.6088100019
0.6088100033
0.6088100052
0.6088100053
0.6088100036
0.6088099991
0.6088100012
0.6088100019
0.6088100047
0.6088100013
0.6088100008
0.6088099999
0.6088099997
0.6088100001
0.6088100006
0.6088100016
0.608810005
0.6088100079
0.6088100412
0.6088100432
0.6088100283
0.6088100191
0.6088100142
0.6088100111
0.6088100089
0.6088100071
0.6088100052
0.6088100031
0.608810003
0.6088100031
0.6088100033
0.6088100048
0.6088100055
0.608810004
0.6088099994
0.6088100013
0.6088100023
0.6088100047
0.6088100014
0.608810001
0.6088100003
0.6088100004
0.6088100008
0.6088100009
0.6088100015
0.6088100049
0.6088100122
0.6088100324
0.6088100301
0.6088100192
0.6088100128
0.6088100096
0.6088100078
0.6088100065
0.6088100054
0.6088100044
0.6088100031
0.6088100025
0.6088100029
0.6088100026
0.6088100025
0.6088100025
0.6088100025
0.6088100023
0.6088100021
0.608810002
0.6088100018
0.6088100017
0.6088100017
0.6088100018
0.6088100019
0.608810002
0.6088100019
0.6088100019
0.608810002
0.608810002
0.608810002
0.608810002
0.6088100019
0.6088100019
0.6088100018
0.6088100018
0.6088100018
0.6088100019
0.608810002
0.6088100021
0.6088100024
0.6088100029
0.6088100028
0.6088099753
0.6088099987
0.6088099991
0.6088099982
0.608809999
0.6088099978
0.608809997
0.6088099949
0.6088099981
0.6088099984
0.6088099984
0.6088099984
0.6088099983
0.6088099985
0.6088099984
0.6088099981
0.6088099985
0.6088099984
0.6088099982
0.6088099979
0.6088099983
0.6088099964
0.6088099949
0.6088099914
0.6088099964
0.6088099952
0.6088099954
0.6088099939
0.6088099965
0.6088099955
0.6088099947
0.6088099932
0.6088099886
0.608809995
0.6088099813
0.6088099622
0.6088099955
0.6088099414
0.6088099341
0.6088099857
0.6088099394
0.6088099466
0.6088099817
0.6088099577
0.6088099689
0.6088099802
0.608809974
0.6088099756
0.6088099793
0.6088099763
0.6088099751
0.608809962
0.608809974
0.6088099669
0.6088099948
0.6088099947
0.6088099947
0.6088099719
0.6088099802
0.6088099776
0.6088099952
0.6088099956
0.6088099821
0.6088099878
0.6088099966
0.6088099968
0.6088099975
0.6088099976
0.6088099949
0.6088099976
0.6088099967
0.6088099979
0.608809998
0.6088099982
0.6088099983
0.6088099988
0.6088099993
0.6088099992
0.6088099992
0.6088099993
0.6088099994
0.6088099994
0.6088099955
0.6088099925
0.6088099947
0.6088099961
0.6088099951
0.6088099938
0.6088099965
0.6088099934
0.6088099934
0.6088099944
0.6088099941
0.6088099951
0.6088099937
0.6088099961
0.6088099951
0.608809996
0.608809996
0.6088099966
0.6088099962
0.6088099967
0.6088099967
0.6088099969
0.6088099969
0.6088099971
0.6088099969
0.6088099971
0.6088099971
0.6088099971
0.6088099833
0.6088099859
0.6088099971
0.608809996
0.6088099968
0.6088099835
0.6088099806
0.6088099815
0.6088099938
0.6088099832
0.6088099911
0.6088099781
0.6088099792
0.6088099771
0.6088099798
0.6088099759
0.6088099801
0.6088099789
0.6088099796
0.6088099976
0.608809997
0.608809998
0.6088099981
0.6088099982
0.6088099983
0.6088099984
0.6088099984
0.6088099985
0.6088099985
0.608809995
0.6088099949
0.6088099945
0.6088099874
0.6088099932
0.6088099886
0.6088099617
0.6088099812
0.6088099688
0.6088099289
0.6088099458
0.6088099392
0.6088099476
0.6088099466
0.6088099555
0.6088099752
0.6088099697
0.6088099813
0.6088099802
0.6088099837
0.6088099836
0.6088099794
0.6088099836
0.6088099831
0.6088099982
0.6088099984
0.6088099985
0.608809998
0.6088099985
0.6088099985
0.6088099944
0.6088099956
0.6088099955
0.6088099901
0.6088099947
0.6088099925
0.6088099779
0.6088099905
0.6088099859
0.6088099562
0.6088099778
0.6088099738
0.6088099661
0.6088099743
0.6088099776
0.6088099873
0.6088099859
0.6088099922
0.608809988
0.6088099921
0.6088099923
0.6088099877
0.6088099926
0.6088099918
0.6088099983
0.6088099981
0.6088099984
0.6088099984
0.6088099984
0.6088099984
0.6088099984
0.6088099953
0.6088099975
0.6088099971
0.6088099916
0.6088099969
0.6088099955
0.6088099866
0.6088099954
0.6088099936
0.6088099872
0.6088099928
0.6088099936
0.6088099957
0.6088099959
0.6088099979
0.6088099957
0.6088099977
0.6088099978
0.6088099984
0.6088099985
0.6088099984
0.6088099985
0.6088099984
0.6088099983
0.6088099983
0.6088099979
0.6088099984
0.608809999
0.608809997
0.6088099991
0.6088099989
0.6088099974
0.6088099989
0.6088099991
0.608809999
0.6088099992
0.6088099994
0.6088099983
0.6088099923
0.608809993
0.608809992
0.608809993
0.6088099949
0.6088099932
0.6088099966
0.6088099948
0.6088099978
0.6088099937
0.6088099927
0.6088099958
0.6088099963
0.6088099944
0.6088099931
0.6088099956
0.6088099949
0.6088099952
0.6088099964
0.6088099952
0.6088099966
0.6088099969
0.6088099871
0.6088099968
0.6088099972
0.6088099831
0.6088099824
0.6088099861
0.6088099806
0.6088099797
0.6088099799
0.6088099799
0.6088099792
0.6088099743
0.6088099803
0.6088099826
0.6088099948
0.6088099952
0.6088099979
0.6088099983
0.6088099957
0.6088099928
0.6088099789
0.6088099361
0.6088099377
0.6088099623
0.6088099794
0.6088099803
0.6088099773
0.6088099979
0.608809998
0.6088099983
0.6088099983
0.6088099984
0.6088099984
0.6088099985
0.6088099946
0.6088099934
0.6088099855
0.6088099617
0.6088099599
0.6088099781
0.6088099882
0.6088099883
0.6088099829
0.6088099968
0.6088099965
0.6088099942
0.6088099894
0.6088099858
0.6088099918
0.6088099954
0.6088099957
0.6088099927
0.6088099989
0.6088099989
0.6088099974
0.6088099961
0.608809996
0.6088099934
0.608809998
0.6088099981
0.6088099979
0.6088099968
0.6088099983
0.6088099988
0.6088099985
0.6088099986
0.6088099971
0.6088099956
0.6088099985
0.6088099984
0.6088099955
0.6088099911
0.6088099879
0.6088099974
0.6088099821
0.6088099993
0.6088099918
0.6088099809
0.6088099692
0.6088099426
0.6088099994
0.6088099939
0.6088099871
0.6088099801
0.6088099633
0.6088099995
0.6088099972
0.6088099942
0.6088099915
0.6088099848
0.608809994
0.6088099931
0.6088099935
0.6088099981
0.6088099922
0.6088099969
0.6088099929
0.6088099958
0.608809998
0.6088099975
0.6088099975
0.6088099978
0.6088099938
0.6088099973
0.6088099971
0.6088099969
0.6088099981
0.6088099983
0.608809997
0.6088099984
0.6088099826
0.6088099749
0.6088099875
0.6088099989
0.6088099992
0.6088099986
0.6088099888
0.6088099984
0.6088099984
0.608809999
0.6088099982
0.608809998
0.6088099977
0.6088099973
0.6088099967
0.6088099957
0.6088099983
0.6088099984
0.608809999
0.6088099979
0.6088099981
0.6088099972
0.6088099975
0.6088099977
0.6088099967
0.6088099962
0.6088099958
0.6088099943
0.6088099984
0.6088099984
0.6088099983
0.6088099984
0.6088099987
0.6088099976
0.6088099974
0.6088099972
0.6088099967
0.6088099958
0.6088099948
0.6088099934
0.6088099931
0.6088099977
0.6088099969
0.6088099951
0.6088099949
0.6088099982
0.608809998
0.6088099985
0.6088099984
0.6088099982
0.6088099981
0.6088099981
0.6088099979
0.6088099977
0.6088099968
0.6088099984
0.608809997
0.6088099957
0.6088099969
0.6088099966
0.6088099964
0.6088099961
0.6088099953
0.6088099941
0.6088099929
0.6088099922
0.6088099973
0.6088099966
0.6088099946
0.608809992
0.6088099939
0.6088099874
0.6088099897
0.6088099855
0.6088099825
0.6088099854
0.6088099781
0.6088099716
0.608809962
0.6088099837
0.6088099893
0.6088099775
0.6088099763
0.608809973
0.6088099653
0.6088099587
0.6088099534
0.6088099351
0.6088099061
0.6088099887
0.608809996
0.6088099929
0.6088099844
0.6088099919
0.6088099903
0.6088099735
0.6088099879
0.6088099841
0.6088099781
0.6088099948
0.6088099977
0.6088099958
0.6088099931
0.6088099952
0.6088099944
0.6088099889
0.6088099931
0.6088099912
0.6088099935
0.608809988
)
;

boundaryField
{
    walls
    {
        type            zeroGradient;
    }
    wallFilmFace_top
    {
        type            zeroGradient;
    }
    region0_to_wallFilmRegion_wallFilmFace
    {
        type            zeroGradient;
    }
    mirrorFace_top
    {
        type            zeroGradient;
    }
    region0_to_wallFilmRegion_mirrorFace
    {
        type            zeroGradient;
    }
    procBoundary2to0
    {
        type            processor;
        value           nonuniform List<scalar> 
26
(
0.6088099925
0.6088099918
0.6088100013
0.6088100014
0.6088100058
0.6088100098
0.6088100053
0.6088100037
0.6088100004
0.6088099998
0.6088100002
0.6088100009
0.6088100031
0.6088100059
0.6088100073
0.6088100079
0.6088100044
0.6088100049
0.6088100005
0.6088100011
0.6088100006
0.6088100005
0.6088100005
0.6088100007
0.6088100011
0.608810003
)
;
    }
    procBoundary2to1
    {
        type            processor;
        value           nonuniform List<scalar> 
33
(
0.6088100021
0.6088100021
0.60881008
0.60881008
0.6088100017
0.6088100015
0.608810004
0.608810004
0.6088100019
0.6088100012
0.6088099909
0.6088099955
0.6088099972
0.6088099959
0.6088099948
0.6088099955
0.6088099952
0.608809995
0.6088099953
0.608809996
0.6088099972
0.60881
0.6088100017
0.6088100022
0.6088100026
0.608810003
0.6088100033
0.6088100036
0.6088100041
0.6088100048
0.6088100048
0.6088100044
0.6088100021
)
;
    }
    procBoundary2to3
    {
        type            processor;
        value           nonuniform List<scalar> 
64
(
0.6088099985
0.608809998
0.6088099977
0.6088099965
0.6088099936
0.6088099984
0.6088099979
0.6088099976
0.6088099876
0.6088099966
0.6088099931
0.6088099931
0.6088099927
0.6088099931
0.6088099938
0.6088099956
0.6088099968
0.608809997
0.608809997
0.6088099971
0.608809997
0.6088099965
0.6088099939
0.6088099849
0.6088099849
0.6088099858
0.608809978
0.608809978
0.6088099811
0.608809978
0.6088099985
0.6088099986
0.6088099985
0.6088099986
0.6088099986
0.6088099959
0.6088099982
0.6088099966
0.6088099825
0.6088099985
0.6088099914
0.6088099971
0.6088099778
0.6088099172
0.608809946
0.6088099776
0.6088099973
0.6088099985
0.6088099898
0.6088099982
0.608809998
0.6088099972
0.6088099947
0.6088099927
0.6088099982
0.608809991
0.6088099904
0.6088099977
0.6088099899
0.6088099888
0.6088099477
0.608809856
0.6088099676
0.6088099823
)
;
    }
}


// ************************************************************************* //
