/*--------------------------------*- C++ -*----------------------------------*\
  =========                 |
  \\      /  F ield         | OpenFOAM: The Open Source CFD Toolbox
   \\    /   O peration     | Website:  https://openfoam.org
    \\  /    A nd           | Version:  8
     \\/     M anipulation  |
\*---------------------------------------------------------------------------*/
FoamFile
{
    version     2.0;
    format      ascii;
    class       surfaceScalarField;
    location    "0.7/wallFilmRegion";
    object      phi;
}
// * * * * * * * * * * * * * * * * * * * * * * * * * * * * * * * * * * * * * //

dimensions      [1 0 -1 0 0 0 0];

internalField   nonuniform List<scalar> 
2598
(
5.479323942e-07
-4.17388117e-06
4.774670476e-05
6.520003247e-05
5.395166355e-05
-0.0003184073992
-6.804107979e-06
-7.196969721e-05
-4.937002151e-06
-1.271955774e-05
1.993492733e-05
-7.175416303e-05
3.796536808e-05
-0.0001105933711
6.875844934e-05
-0.0001007512152
0.0007098780667
-0.001378396063
0.001392205729
-0.002463448951
0.001878033118
-0.004625318356
0.001061697564
-0.002426156748
0.0004898889514
-0.0006663624663
0.0002482462461
-2.655257559e-06
0.0001770558488
6.504056572e-05
0.0001551494851
6.389289323e-05
0.0001496925936
3.841424893e-05
0.0001342305878
-1.715941918e-05
9.389299117e-05
-0.0002061926296
0.0003985012999
0.0006734673741
0.0008947186971
0.0009752191711
0.001010123651
0.0008789886293
0.0009680130488
0.0007009797703
0.0008174297759
0.0006032691416
0.0006163048145
0.0004627452659
0.004695071148
-4.033999679e-06
3.509926743e-07
1.06951302e-06
7.245567087e-07
6.051514357e-05
5.205231169e-05
-1.027254751e-05
-0.0002677362752
-5.268406449e-06
-0.0002445130551
-1.360982489e-05
-3.302429519e-05
1.935980308e-05
-0.0001126985822
1.489637234e-05
-0.000127998466
6.08634581e-05
-8.073184653e-05
0.0008564941008
-0.001028021684
0.001562545339
-0.001751997389
0.00287110991
-0.004386428419
0.001839287913
-0.003057591892
0.000897211506
-0.001081059965
0.0004586746575
-0.0002222921257
0.0002772582413
4.134435139e-05
0.0002131343944
5.816134429e-05
0.0001835349086
3.04317369e-05
0.0001432496424
-9.125829682e-06
6.753955511e-05
-4.05030501e-05
0.0001863824238
5.62610396e-05
0.0005277874064
-0.0003239584804
0.0006155824843
0.000290245074
0.0006598117573
0.0004786797462
0.0006008155264
0.0005390869032
0.0004593653852
0.000418345236
0.005149489481
1.839902682e-05
-4.531184764e-06
9.539593065e-05
-6.470127819e-06
-0.000286390367
-0.0002245759719
-0.0001185038882
-0.0001973185392
-1.396767435e-05
6.761493659e-05
-2.536355309e-05
-0.0001216028115
-0.0001238946634
-8.030021623e-05
-0.0001494316077
-0.0001190822305
-0.0001113347239
-0.0001129847463
1.34482174e-05
-7.027775079e-05
0.001049845169
-0.0004419817641
0.001969576685
-0.0008248602659
0.004671661823
-0.002804127029
0.003192446164
-0.00333046214
0.001317384767
-0.002090685268
0.0006931591032
-0.001114545753
0.0004844538456
-0.0005688518534
0.0003602993899
-0.0002657250589
0.0002621602486
-0.0001354604164
0.0001749815768
-7.773723589e-05
0.0001060310001
-4.103575735e-05
9.701048054e-05
-2.310213446e-05
0.0009115845243
-0.002175782574
0.0007675120514
-0.0005793050969
0.0006838180288
0.0001044599347
0.0005556607107
0.0004286034585
0.0004281012928
0.0003747375619
0.003464134718
-1.546872568e-05
3.349136528e-06
3.592149069e-06
-2.105728168e-06
7.527883369e-05
-7.963922854e-05
-0.0001106052892
-0.0001303651024
-0.000119749152
9.410003144e-05
-0.0005956960934
-0.0005148279162
-0.001468325311
0.0001078919075
-0.001764213679
0.0001306999838
-0.001304819881
-3.018555539e-06
-0.0001033680362
-1.303625357e-05
0.001832235415
0.0008367195613
0.003865613984
0.0009894089934
0.007410537136
-0.0007488289521
0.005890254531
-0.00116150517
0.002901544776
-0.00106953125
0.001698171459
-0.0009641728384
0.001346248599
-0.0008744879421
0.0009639472364
-0.0007250535989
0.0005703600407
-0.0004707711154
0.000306199346
-0.0002433876546
0.0001650153194
-8.304151562e-05
9.935022445e-05
-2.540346964e-05
0.001613218602
-0.003064932443
0.001136242505
-0.001640068511
0.0005377468609
-0.0003806460406
0.0003242107102
8.346431014e-05
0.0003096087004
0.000237910073
0.0007340533368
-7.562335309e-05
1.276915914e-05
-9.765733387e-05
7.537569755e-06
-7.596437821e-05
1.583762183e-05
3.403516746e-05
7.635524208e-05
4.518488468e-05
-3.91704124e-05
-8.315416279e-06
0.0005117040579
-1.784799563e-05
1.230176177e-05
1.168842094e-05
1.902207987e-05
2.289792478e-05
4.161128343e-07
7.464473101e-05
-4.197977317e-05
0.001423044682
0.001576570971
0.001740747131
0.001496367247
0.001636719234
-4.39481305e-06
0.001334720359
-0.0002647038455
0.001203550276
-0.0003396136864
0.001192922753
-0.0003684310699
0.001237213321
-0.0003932334349
0.001172049039
-0.000432024924
0.0008773849187
-0.00043614809
0.000500986111
-0.0004187605116
0.000235476248
-5.396316601e-05
0.0001385787285
1.125686044e-05
0.003106906301
-0.002405441378
0.002473732837
-0.001414528493
0.00115573244
-0.0005946579059
0.0002321938976
3.464208202e-05
0.0001444164869
0.0001720539966
0.002750053128
-0.0003232444678
7.320975772e-05
-0.000167961998
9.530291768e-06
-0.0001199124958
-3.095948443e-05
-0.0001190829182
3.849373683e-06
-5.986084044e-05
0.0001003228489
0.0002469713272
0.0002781017153
0.0002150424899
0.0002405342579
8.435760686e-05
5.305343348e-05
6.486892079e-05
4.30781963e-05
8.636936413e-05
1.825613313e-05
0.0001081446751
-3.136424946e-05
0.001041213734
0.001790718592
0.001097403837
0.001303403952
0.0006021134841
0.0002629640915
0.0004703953874
-7.045499983e-05
0.0004926001555
-0.0001152577963
0.0005623907202
-0.0001238688044
0.0006597617986
-0.0001260408014
0.0007900430738
-0.0001295032718
0.0007726148892
-0.0001364588016
-0.0004719410536
-0.0001207882401
-0.002461190336
-2.613926633e-05
-0.0003151515221
0.0001200822254
0.01107381584
0.005764895667
0.01042629372
0.003619044309
0.007407862312
0.001801966137
0.004496983891
0.0008797470406
0.001741427291
0.0003792826481
0.003046199038
-0.0004320576976
-1.933552973e-05
-1.644775604e-05
8.401173029e-05
1.47958887e-05
-1.861911888e-05
-5.593190195e-05
-6.466844981e-05
-8.429426777e-05
5.94163357e-05
0.0001807744665
0.0002197428459
9.877432449e-05
8.469747536e-05
0.0001240288442
7.361297912e-05
0.000168480152
9.968366843e-05
0.0001310833124
7.600948788e-05
9.350972362e-05
4.43341589e-05
0.0007343478724
0.001659824067
0.0006471652266
0.0009827173772
0.0003440919873
0.0002174156939
0.0002369436725
2.897285628e-05
0.0002386383743
-3.395136008e-06
0.0002721953704
-1.223091478e-05
0.0003186534765
-1.470266089e-05
0.0003825295587
-1.633427727e-05
0.0004705809238
-1.817697555e-05
0.0005642565696
-1.94312721e-05
0.0005459857036
-1.671128904e-05
0.0004200716522
8.425672104e-06
0.00507268045
0.005759966217
0.004212001739
0.003363205858
0.002474798824
0.001385137196
0.001061554145
0.0004584514429
0.0003968926315
0.0001393771427
0.002509614054
-4.763011415e-06
4.665474394e-05
-5.546254149e-05
0.0001374370082
-0.0001379870532
4.797162468e-05
8.756444396e-06
3.580867411e-05
-8.899599708e-06
5.774268152e-05
-0.0001122091811
6.167050622e-05
-0.0002860879975
8.018703594e-05
-0.0003182803089
0.0001367013364
-0.0002102562745
0.0001519235665
-0.0001013617361
0.0001237569251
1.872469016e-06
0.0001096040331
0.0004796002193
0.001300425049
0.0003961434448
0.0006157669081
0.0002867567833
0.0002220096293
0.0003088462183
0.0001585959987
0.0003798985902
0.000154631507
0.0004592249931
0.000154018588
0.0005370375154
0.0001506379639
0.0006130641463
0.0001443927965
0.0006910165507
0.0001367307425
0.0007754391431
0.0001298890589
0.0008551651739
0.0001255118713
0.0007778298319
0.0001343969259
0.00297126924
0.004040437796
0.002090676349
0.002211872418
0.0009502561834
0.0007194411396
0.0003361513155
0.0001860733389
0.0001807183227
7.375450357e-05
0.001882440034
-4.583774862e-07
0.0003800577673
-1.309778965e-05
0.0001740098011
-3.694303963e-05
4.587805047e-05
8.836697676e-06
0.0001010487947
-2.353783522e-05
3.818407929e-05
-0.0002226564438
5.83661021e-05
-0.0004715400275
0.0001406558031
-0.0004931293403
0.0001993601357
-0.0003675575372
0.0002139917083
-0.000219031073
0.0001911963647
-9.208798752e-05
0.0001921864453
0.0002467394762
0.0007861465834
0.0002434272629
0.0003667899867
0.000323237281
0.0003143774511
0.0004658584981
0.0003611640518
0.0006053787414
0.0003898830265
0.0007253088822
0.0003904639749
0.0008258899182
0.0003729836147
0.0009078500541
0.0003442853954
0.0009727716018
0.0003111435817
0.001027176107
0.0002808634022
0.001069061363
0.0002582316085
0.0009595375031
0.0002562317558
0.001974963142
0.00188676373
0.001285853769
0.001044154406
0.0005700410026
0.0003519723452
0.0002522203205
0.0001314991085
0.0001765053035
8.03068167e-05
0.001729370071
-0.0001572431921
0.0006002022613
-5.211156899e-05
0.0001922504904
-5.567706361e-05
4.887561605e-05
-2.40502039e-05
6.292198099e-05
-5.412126794e-05
3.318373615e-05
-0.000170718163
4.834057093e-05
-0.0003378475226
0.0001059718849
-0.0004091920355
0.0001626169803
-0.0003510491143
0.0001958216721
-0.0002392153018
0.0001874313547
-0.0001326724852
0.0001717129035
8.076687636e-05
0.0003058554012
0.0001932401078
0.0003023074396
0.0004058965552
0.000495904592
0.0006268402662
0.000641021129
0.0008016338936
0.0006923516116
0.0009255330307
0.0006718840958
0.001010711703
0.0006097942666
0.001055421676
0.000532420239
0.001075198718
0.0004575813183
0.001092904242
0.0003987532537
0.001111395089
0.0003617129525
0.001045384069
0.0003530650397
0.001311749813
0.0007064041823
0.0008878674363
0.0004685765087
0.0004847160206
0.0002548561375
0.0002891201664
0.0001703477769
0.0002317747754
0.0001229120322
0.002040856152
-0.0007353235705
0.0008431136723
-0.000218541791
0.0004379780875
-8.749609328e-05
0.0001164172401
-4.049766307e-05
5.548611753e-05
-4.504762254e-05
2.886411459e-05
-7.726690551e-05
3.048074697e-05
-0.000131970249
5.31931206e-05
-0.0001843771621
8.752279833e-05
-0.0001923507429
0.0001216951105
-0.0001531816495
0.0001359764683
-8.098771822e-05
0.0001183222632
1.593688672e-05
9.43745099e-05
0.0002124308432
0.0003695990852
0.0005118873122
0.0007464043429
0.0007815858482
0.0009699822144
0.0009551065994
0.001011298445
0.001048006809
0.0009435105122
0.00108369567
0.0008081291176
0.001074583605
0.0006701232084
0.001062639996
0.0005573175835
0.001090945449
0.0004858582466
0.001195257287
0.0004358757931
0.001321612666
0.0004517958466
0.001424786722
0.0005317578837
0.001287017191
0.0005149190468
0.001081653484
0.0004789340914
0.0008784806826
0.0004441088915
0.000741135885
0.0003300511545
0.002839571286
-0.001614177342
0.001674823599
-0.001084167183
0.001104837926
-0.0002887690737
0.0006561186936
-6.468752226e-05
0.0001820253562
-3.782324327e-05
4.34054014e-05
-3.753224054e-05
2.495889637e-05
-4.594587428e-05
2.698382566e-05
-5.226781673e-05
3.658211736e-05
-4.633378723e-05
4.951093806e-05
-4.108713776e-05
8.148086378e-05
-1.873303162e-05
8.93478655e-05
1.825664315e-05
4.807889643e-05
0.0002546756839
0.0004949286876
0.0006092615602
0.001015858077
0.000893261835
0.001281757453
0.001036968629
0.001283844995
0.001085416056
0.001147082973
0.001070506693
0.0009431053871
0.001036219604
0.0007651154505
0.001054649268
0.0006553962118
0.0012864667
0.0006649418313
0.002103715058
0.0008276575071
0.003855332616
0.001101352731
0.006429005977
0.001303158489
0.009107224821
0.001216428525
0.01010624914
0.001313980953
0.009130363303
0.001667255219
0.007279552514
0.00156398841
0.006466426082
-0.001332331434
0.0008611174497
-0.001648157572
0.0009120430067
-0.001183859378
0.000930976029
-0.0004158005299
0.0006036284651
-0.0001062479034
0.0001091676967
-5.357236109e-05
7.728669471e-05
-2.746623937e-05
4.709317036e-05
-1.474734808e-05
2.583842753e-05
-2.850884161e-06
1.636224702e-05
1.304539923e-05
3.684618527e-05
2.182541441e-05
5.592905393e-05
2.903601479e-05
4.25936119e-05
0.0002923992659
0.0006115469032
0.0006709100066
0.001238072355
0.0009405488224
0.001519346148
0.001049749614
0.001480938769
0.001056206403
0.001275550317
0.001018886439
0.001029872657
0.001000969364
0.0008406428973
0.001101759773
0.0007735356296
0.001548628246
0.0008173458859
0.00242083759
0.0008533127781
0.003347395385
0.000708569773
0.003702690783
0.0004410250361
0.003316663147
0.0001080752317
0.003537182245
-3.060803908e-06
0.004527563115
0.0001041496773
0.004927513778
0.0004851958049
0.00633152574
-0.0003537654311
0.0009478473682
-0.0007815038491
0.0003409106997
-0.001049892067
0.000447015063
-0.0007289781749
0.000216751411
-0.0003520614072
-0.0002806043579
-0.0001944001906
-0.0001628387917
-0.0001513105567
0.0003144575962
-4.108484984e-05
0.0004043727941
7.545791723e-06
0.0001072486189
1.799360114e-05
3.348181875e-05
2.759332257e-05
4.105586961e-05
3.309232122e-05
4.172232567e-05
0.0003099468059
0.0006812191924
0.0006879094307
0.001366866047
0.0009309855844
0.00165925961
0.001009180286
0.001591284746
0.0009960606799
0.001349699507
0.0009661411747
0.001095515083
0.0009861016843
0.0009164438169
0.001140678667
0.0008385542009
0.001394506833
0.0007422831864
0.001459576032
0.0005530778326
0.001185353953
0.0003231278284
0.0007228216273
0.000158860574
0.0003236042068
6.092183296e-05
0.0001582752893
2.265597974e-05
0.0001475513347
1.922017999e-05
0.0004968867205
6.598021795e-05
0.004235581451
-3.370791156e-05
0.0007906109433
-0.0001836230352
0.0001476210961
-0.0001769868959
-0.0002268377908
-1.572877303e-05
7.562790763e-05
8.619232057e-05
-0.0001494496066
0.0002097384618
-0.0001793488675
0.0002777235904
-3.79568924e-05
0.0006021828197
-0.0005817548331
0.0001999232693
3.63845452e-05
5.07480774e-05
0.000229406222
4.506295522e-05
7.495350757e-05
4.688579634e-05
5.851919445e-05
0.0003080480435
0.0007053652315
0.0006626208109
0.001402582519
0.0008844538547
0.001706330213
0.0009551985371
0.001637327217
0.0009574062395
0.00140394914
0.0009604961192
0.001170864974
0.0009999508218
0.0009967124934
0.001069166234
0.0008302539207
0.001026364337
0.0006041664952
0.0008280652183
0.0003846519962
0.0005614595572
0.0002191002047
0.0003287984986
0.0001123862735
0.000181742559
5.552713796e-05
0.0001074170833
3.15024587e-05
7.758618651e-05
2.474099191e-05
0.0001111821959
2.990679363e-05
0.003459213686
-7.265215559e-06
0.0003576114694
1.845849681e-05
3.806188109e-05
-1.292744517e-05
-1.620288612e-05
6.012568371e-06
5.766393469e-05
2.984103769e-05
-8.031141614e-05
5.648455091e-05
-6.99923611e-05
0.0002219946641
-4.492521455e-05
0.0008317140209
-0.002791660897
0.0006389136665
-0.0009310558772
0.000188587964
-0.000139610711
8.426881417e-05
8.722197508e-05
7.135815779e-05
7.972670186e-05
0.0002989475448
0.0006968953382
0.0006206583261
0.001377885618
0.0008351441675
0.001703512563
0.0009279915281
0.001674372859
0.0009726952718
0.001482792206
0.001003978684
0.001274209519
0.001002947647
0.001053418165
0.0009075646652
0.0007575888823
0.0007237841372
0.0004940486262
0.0005158068244
0.0002984413583
0.0003317637738
0.0001685360258
0.0002033842629
9.219977784e-05
0.0001317548091
5.402896665e-05
9.651093765e-05
3.724191866e-05
8.037920353e-05
3.320767633e-05
8.759976482e-05
3.396710503e-05
0.003769501495
-4.105272582e-06
0.0001247939238
9.761888177e-06
1.447923643e-05
4.615546301e-06
1.159486018e-05
1.362409109e-05
4.527050541e-05
1.83051155e-05
-2.612981899e-05
1.931977142e-05
-1.85872352e-05
5.890408042e-05
-6.532671986e-06
0.001029901737
-0.006900434407
0.001063156049
-0.001234029954
0.0008929828224
-0.000702956264
0.0003254399374
2.207491284e-05
0.0001506059477
0.0001157800661
0.0003081970604
0.000685496943
0.0005910743115
0.001335215963
0.0008126178114
0.001696905463
0.000953564935
0.001745418242
0.001045781092
0.001614911691
0.001042409238
0.001385021937
0.0008965649555
0.001024717204
0.0006774144599
0.0006396554858
0.000481375488
0.0003851523787
0.0003221428199
0.0002238404568
0.0002100955502
0.0001292712026
0.0001439518949
7.902458662e-05
0.0001111646458
5.500702026e-05
9.906708998e-05
4.482220836e-05
0.0001002762718
4.744192366e-05
0.000124092577
5.532229757e-05
0.005032186439
-4.850472451e-07
0.0001320556164
4.836435931e-06
1.481748168e-05
6.987133535e-06
2.017282375e-05
1.262444318e-05
4.141688926e-05
6.926689921e-06
3.699803142e-06
4.847681059e-06
6.128246053e-07
4.537549243e-06
1.770969908e-06
0.002465014617
-0.005275800495
0.001063935315
-0.000980693392
0.001135841524
-5.003719068e-05
0.0007783441371
-9.29670255e-05
0.0003529479022
0.0001489846201
0.0003778290461
0.0006994843074
0.0005964814935
0.001302013283
0.0008235565816
0.00169677489
0.001026722036
0.001861879271
0.001111509114
0.001781521698
0.0009518216931
0.001383795639
0.0006650938321
0.000860369748
0.0004370570656
0.0004820346395
0.0002852945222
0.0002733702373
0.0001901077009
0.0001602045396
0.0001361618272
0.0001005932222
0.000110004471
7.136801843e-05
0.0001023949174
5.895521797e-05
0.0001104029093
5.671644954e-05
0.0001344172285
7.044385556e-05
0.0001939971707
9.318387401e-05
0.006695422993
-2.666077157e-05
0.0001175426761
-2.224724548e-05
4.196681261e-05
-1.740829906e-05
3.783277223e-05
-0.0001217398739
4.921038694e-05
-0.001165750023
0.000143641254
-0.003449800065
0.0006629339775
-0.004205939548
0.002643621799
0.01852374899
0.02427261103
0.01354850232
0.0074028225
0.006031078619
0.001368486826
0.002133499519
3.191812648e-05
0.0007901447419
0.0003076104819
0.0005483852786
0.0008015507619
0.0006557672915
0.001300640802
0.0008428369453
0.001704364095
0.001092039374
0.002038535546
0.001029120934
0.001899616544
0.0008277209736
0.001146673874
0.0006006060148
0.000423089843
0.00043415248
0.0001879495882
0.0003237206256
0.0001115304117
0.0002498109864
8.824928054e-05
0.0002019906535
8.011483241e-05
0.0001733244334
8.153973545e-05
0.0001658746607
8.055933608e-05
0.0001790182531
8.663074154e-05
0.0002135611878
0.0001124237771
0.0002946978216
0.0001462739913
0.008043411107
-6.646032764e-05
0.0001493049751
-4.414304861e-05
8.827346743e-05
-2.43477802e-05
7.271087794e-05
-5.267241379e-06
6.366666778e-05
-5.030341903e-05
9.853437332e-05
-0.0004363841413
0.0002184112485
-0.001024116545
0.0007806980991
0.006386718465
0.01839759483
0.00263024077
0.003713585613
0.0006285066922
0.000385615877
0.0004675656323
0.000209166227
0.000530096585
0.0004393486522
0.0005741918411
0.0008242278002
0.0006963924803
0.001257502571
0.0008354711351
0.001710225262
0.001091761673
0.002358307289
0.0008953026095
0.001782180601
0.0007983738312
0.0007074764135
0.0009950057989
-1.400080921e-05
0.001318686899
-1.539929074e-05
0.001619429653
-1.590725509e-05
0.001713438535
-1.944041854e-05
0.001426900178
4.256659668e-05
0.0009552200809
0.0002515746004
0.0006281963235
0.000274692341
0.0004636924476
0.0002425423963
0.0004053207534
0.0002323498719
0.0004441026425
0.0002330490446
0.009051875374
-0.0001241571681
0.0002779570712
-8.902975695e-05
0.0001748188228
-8.134481745e-05
0.0001702074986
-9.953751162e-05
0.0002473799731
-0.0001010929257
0.0004779841436
-6.469990436e-05
0.0004664542076
4.666275992e-05
0.0003438972633
0.002062292186
0.009863195387
0.0005982801441
0.001116960034
0.0002854246025
0.0002363669434
0.0006029121299
0.0004415909064
0.0009670994198
0.0009009646637
0.001048671523
0.001362444253
0.0009683286596
0.001599629015
0.0009001856722
0.001936642217
0.0008662326842
0.002986881397
0.0006153397704
0.002197407971
0.0001420817719
0.0002349542738
3.214238701e-05
1.93716259e-05
2.25833339e-05
4.318495336e-06
4.07768923e-05
2.188200918e-06
0.0001561657473
9.252368618e-06
0.0004903874564
6.056993545e-05
0.0008306173414
0.0001869546595
0.000870432723
0.0003323698063
0.0007643244668
0.0003922530834
0.0006514731328
0.000398525576
0.0006220111168
0.0003381292696
0.01006600065
-0.0002001250256
0.0006875768962
-0.0001641740086
0.0003451284329
-0.0002286054528
0.0003452639311
-0.0004115539472
0.0006681318314
-0.0004672247196
0.001288189942
-0.0002076590362
0.001098592564
1.484904341e-05
0.0004856377561
0.0006263382585
0.003505833616
0.0002615347691
0.0004342750949
0.0004484247821
0.0004395958771
0.001033592005
0.0009591915944
0.001729825991
0.001881216185
0.001833827574
0.002532936962
0.001371383657
0.002348208191
0.0009792800617
0.002327846918
0.0006663918031
0.003514767692
0.0001975578134
0.00146805253
5.830278473e-05
6.418427354e-05
2.578046767e-05
2.142367971e-05
1.507647448e-05
1.118559837e-05
1.397524773e-05
7.420633427e-06
5.136321908e-05
1.402344916e-05
0.0002208396779
4.728018004e-05
0.0005601529298
0.0001349375791
0.0008811559236
0.0002736560405
0.0009633981711
0.0004098643381
0.0008455025417
0.0004650688664
0.0007304365832
0.0003884228247
0.01130302534
-0.0002461033265
0.001289732922
-0.0002165007403
0.0006712556438
-0.0003188268571
0.000494509611
-0.0006692538812
0.001015098892
-0.0008562655637
0.002012227696
-0.0003974066788
0.001732229273
-2.297477815e-05
0.0006634521745
0.0002172351833
0.0008387582229
0.0002859495943
0.0004566489741
0.0007607670886
0.0009310044371
0.001576422856
0.001895592048
0.002321188575
0.003270162119
0.002228101202
0.003883067129
0.001384175349
0.002903297467
0.0008376906893
0.002442329118
0.000390643151
0.0034410916
7.744065103e-05
0.0004333098693
3.105476409e-05
4.644162497e-05
2.024432399e-05
2.264262069e-05
1.567688729e-05
1.485810319e-05
1.607995155e-05
1.222348628e-05
3.41591522e-05
1.789852469e-05
0.0001065535691
4.059058863e-05
0.000277008784
9.624456862e-05
0.0005165502247
0.0002001757262
0.000689396152
0.0003136367336
0.0007083443368
0.0003860810371
0.0006388846132
0.0003602030741
0.0128218934
-0.0001574262179
0.001362242335
-0.0002192327172
0.001106311262
-0.0003073242284
0.0005751718399
-0.0006467902622
0.001050799135
-0.0008829487103
0.002182132009
-0.0004122048622
0.001932160648
-1.592852617e-05
0.0006069378711
0.0001378715768
0.0003994476382
0.0003876527149
0.0007609657751
0.001133809608
0.001782476961
0.001896832274
0.003044847832
0.002115167411
0.004205571603
0.001733698574
0.004777023905
0.0008452088251
0.002712954523
0.0004619304443
0.001934100667
3.584247709e-06
0.002492286008
3.678436709e-05
9.585942483e-05
2.112997541e-05
3.610877885e-05
1.678577072e-05
2.21016291e-05
1.546415348e-05
1.712400028e-05
1.795258497e-05
1.665244781e-05
3.131108128e-05
2.316991948e-05
7.137126822e-05
4.181755104e-05
0.0001623535018
8.21163961e-05
0.0003085463742
0.0001537175138
0.0004489674951
0.0002368067581
0.0005008820648
0.0003480721272
0.0004899067011
0.0003364476079
0.01459298881
0.0001051861997
0.001082338387
-0.0001773846161
0.001291575948
-0.0002199297992
0.0006059825682
-0.0004163231752
0.0008683096822
-0.0005990853914
0.001886594543
-0.0002264186222
0.001642319102
-6.24513748e-06
0.0003665697717
0.0001652785186
0.0005113023851
0.0005043177602
0.001228506095
0.001359928607
0.002819842556
0.001692992817
0.003672258972
0.001298497987
0.003869677837
0.0005104573594
0.005045305035
0.0001782374247
0.001920899868
0.0001266855475
0.001111295965
-7.603483682e-06
0.001270902955
6.40806763e-06
3.73952266e-05
1.176829036e-05
2.247680114e-05
1.306288578e-05
1.951628598e-05
1.484081561e-05
1.866935126e-05
1.990775764e-05
2.141799849e-05
3.329170385e-05
3.037800298e-05
6.339696981e-05
4.891490912e-05
0.0001230616988
8.287923878e-05
0.0002179340295
0.0001373858063
0.0003228462204
0.0002024126132
0.0003812384876
0.0003335270715
0.0003912845358
0.0003447695601
0.01623510552
0.0001238129757
0.000844655935
-0.0001512862749
0.001119807948
-0.0001481981872
0.0005968949339
-0.0001979047952
0.0005922297875
-0.000282108952
0.00148893401
-7.487045008e-05
0.001220415704
1.567729645e-05
0.0001948490723
0.0002089312434
0.0007261124874
0.000588537058
0.001727710649
0.00127462902
0.003451382077
0.001148975992
0.00329547133
0.0006074779745
0.002697382762
-0.0001869524698
0.004712485652
-9.544612307e-05
0.001351015405
-1.712231735e-05
0.0005300719558
-2.085178651e-06
0.0005067804446
4.265593567e-06
2.22471386e-05
7.900848872e-06
1.67751454e-05
1.159095199e-05
1.816111573e-05
1.630377608e-05
2.195158704e-05
2.475470533e-05
2.934571529e-05
4.061460288e-05
4.242121638e-05
6.884670661e-05
6.330533979e-05
0.0001167016862
9.57292418e-05
0.0001883770462
0.0001428774613
0.0002737775519
0.0001991925204
0.0004118670364
0.0001793487446
0.0003688755576
0.0003862343722
0.01503277084
-1.064683062e-05
0.0006734527825
-0.0001438762995
0.0008399457138
-0.0002133715882
0.0005888420759
-3.232962356e-05
0.001074065233
-8.391215981e-05
0.001217209663
-1.444152252e-05
0.0009057295953
2.735539517e-05
0.0001403602949
0.000249691353
0.0009446453958
0.0006222712671
0.002107046577
0.0009887358049
0.003293106558
0.0006890566431
0.002317804312
0.0003300345637
0.001646756558
-0.0003042049642
0.004186773883
-0.0001039686931
0.00127466796
-4.296688684e-05
0.0002561199834
-3.888103431e-07
0.0001851790908
3.992951947e-06
1.588606026e-05
6.659818297e-06
1.532516153e-05
1.295902066e-05
2.058571394e-05
2.291438769e-05
3.177482845e-05
3.740944832e-05
4.699669687e-05
5.800714622e-05
6.626386748e-05
8.745731943e-05
9.076207085e-05
0.0001303840688
0.0001236029701
0.0001900070777
0.0001683159727
0.0001937380931
0.0001359092563
-0.0008387673844
-0.007321796608
-0.00134757146
0.0004605690605
0.01165722043
-0.0001302495289
0.0004991898575
-0.0001579939433
0.0005884492643
-0.0002402619512
0.0005987160331
1.180812859e-05
0.001333743326
4.392994542e-06
0.001091181368
2.473236879e-05
0.0007089030037
4.039447344e-05
0.000155905726
0.0002876567691
0.0011232493
0.0006243961851
0.002248469837
0.0007876581685
0.002584112269
0.0006184185099
0.001295992198
0.0004642863353
0.0008115231724
-0.000218030849
0.003303272973
-0.0001003579638
0.001888295454
-4.527386225e-05
0.00010857869
-7.696648027e-07
2.243277303e-05
5.867197017e-06
1.057592052e-05
1.076664089e-05
1.62130533e-05
2.629373146e-05
2.720201624e-05
5.25304604e-05
4.923471053e-05
8.563805923e-05
7.496494038e-05
0.0001242565543
9.923151833e-05
0.0001711129917
0.0001216483665
0.0002322591932
0.0001451527494
0.0001714636166
0.0002647201171
-0.01161015392
0.0005283063485
-0.01080657891
-0.0001819950088
-0.01071656406
-0.003280609356
-0.001297423826
-0.0002144814535
0.0004574458426
-0.0001661504926
0.0004026863021
-0.0001775172403
0.0004578457874
4.097148862e-05
0.0009997454467
6.152921447e-05
0.001014396954
6.034653079e-05
0.0006253747783
4.825662391e-05
0.0001946809498
0.000328329464
0.00119818979
0.0006119867935
0.002038578994
0.0006245796348
0.001706758998
0.0005070116201
0.0007491634752
0.000507145372
0.0005960915115
0.0004417791879
0.002522793014
-7.48138389e-05
0.003008971949
-1.83587156e-05
0.0001328283654
-2.683921008e-07
1.660792361e-05
7.216635558e-06
1.19900691e-05
1.551222781e-05
2.193515991e-05
3.470027526e-05
3.962273725e-05
6.742621829e-05
7.124254507e-05
0.0001092367315
0.0001072637343
0.0001565767873
0.000139264368
0.000210325025
0.0001658792363
0.0002752347817
0.0001905939928
0.0003228421056
0.0002917187921
0.0005101335208
0.0004610889893
0.0004396804541
0.0002624972239
0.001751118326
-0.0054096798
-0.001863157723
-0.001082846216
-0.0003251807916
0.0004952326674
0.001293461648
0.002075257159
0.002770965566
0.00367105179
0.005552951496
0.007981684565
0.01080004126
0.01330051667
0.01443962233
0.01365913003
0.01171336148
0.008005614099
0.005858070782
0.005194973933
0.005491832927
0.006474343387
0.008037876686
0.01010000035
0.01256274829
0.01531348248
0.01822742958
0.02116310984
0.02406842292
0.02682105232
0.01604800537
-0.00704760429
0.01347866823
-0.0003076165745
-0.0008886851219
0.0003035121218
0.0002329894173
-0.0001739201927
0.0001923063787
0.0008569559366
-0.0001285977707
-0.0007551030892
0.0001566905327
0.0001045864503
-0.0001390440566
5.011831496e-05
0.0005797262291
-0.0004743997225
-8.06149301e-05
0.000123267304
6.941696823e-05
-5.412621124e-05
-0.0001091390745
8.789584603e-05
4.018000437e-05
-7.774211526e-05
-2.82948048e-05
5.697095216e-05
1.859926966e-05
-4.910665986e-05
0.0009498695674
0.002991529267
-0.001759329489
-0.001454697304
0.001560754908
-0.001338691701
-0.0003722304005
0.0005048349272
0.001123521358
-0.0009220334923
0.0003756970553
-0.0002628331849
0.0002645264225
0.0007386461926
-0.0001768576202
0.00162844894
0.002233763226
0.001555823057
-0.001194373775
-0.002157380138
0.0002229419998
-0.001359221248
-0.0001625678482
0.001714785398
0.001077223897
-0.0008513153959
-0.0001056976657
0.0001462108091
0.0006680043503
9.631013163e-05
-6.980529735e-05
0.0007013376015
0.0008435883417
0.0001642547529
-0.001026093089
0.0001245191014
0.0008719573986
-0.0007236644234
-8.244098567e-05
8.030170905e-05
0.0005936142658
-0.0004810260656
-5.519509748e-05
-3.579835018e-05
5.208125942e-05
0.0003839607138
9.023823544e-05
4.812450554e-05
-6.055348074e-05
0.0001180798136
-8.463078314e-05
4.754626391e-05
-3.564839444e-05
2.747947768e-05
-1.598561103e-05
2.536236055e-05
1.807909711e-05
-1.020714533e-05
-1.680198154e-05
9.881324411e-06
1.004077491e-05
-5.365811929e-06
-0.004226294187
0.001000561357
-0.000129764803
0.002221604529
-0.002140899688
0.01928727755
-0.01582066092
-0.002689539099
-0.0001997249078
-0.005992203869
-2.285233959e-05
0.0001098031468
-1.683820079e-05
0.0005091193632
-2.048355006e-05
0.0001490316489
-0.0003743789442
-2.328732818e-06
-4.454253644e-05
-2.433215466e-06
0.0003548614233
-0.001001939059
0.001124232371
-6.837102233e-07
5.979187685e-06
-6.633172516e-06
-2.295575521e-07
-2.404360116e-06
-6.320465657e-07
0.0002645159641
-0.0008778091213
0.0004818186215
-3.8533932e-08
1.072442669e-06
-1.117974373e-06
7.137063464e-08
-6.77984004e-07
-3.207474139e-07
9.824313805e-05
-0.0001945413443
4.81016948e-06
1.162020278e-07
3.648235462e-07
-3.70034453e-07
1.880548849e-07
-3.418557148e-07
-6.699166667e-07
0.001581024605
0.002788365524
-0.003568554682
3.392972702e-07
4.137818814e-07
-4.839937285e-07
5.329262683e-07
-7.497952492e-07
-2.093592925e-06
0.000961817141
0.00415939683
-0.003819564463
9.32363604e-07
1.053050655e-06
-1.294072202e-06
1.779807159e-06
-2.769851006e-06
-8.254750988e-06
-6.871780347e-05
0.003131212788
-0.002195834697
3.50031924e-06
4.113860812e-06
-5.628487098e-06
7.394628118e-06
-1.193719118e-05
-5.097944208e-05
7.775486934e-05
0.0005385851857
0.001057012129
1.936095393e-05
2.045391217e-05
-3.298004544e-05
7.796408098e-05
-0.0001188911531
-0.01274178361
-0.001603695324
0.008446480881
0.001255430094
0.0009269958394
-0.002226755241