/*--------------------------------*- C++ -*----------------------------------*\
  =========                 |
  \\      /  F ield         | OpenFOAM: The Open Source CFD Toolbox
   \\    /   O peration     | Website:  https://openfoam.org
    \\  /    A nd           | Version:  8
     \\/     M anipulation  |
\*---------------------------------------------------------------------------*/
FoamFile
{
    version     2.0;
    format      ascii;
    class       volScalarField;
    location    "0.6";
    object      htcConv;
}
// * * * * * * * * * * * * * * * * * * * * * * * * * * * * * * * * * * * * * //

dimensions      [1 0 -1 1 0 0 0];

internalField   uniform 0;

boundaryField
{
    walls
    {
        type            calculated;
        value           uniform 0;
    }
    region0_to_wallFilmRegion_wallFilmFace
    {
        type            convectiveHeatTransfer;
        L               1;
        value           nonuniform List<scalar> 
1019
(
2.099225047
2.19593653
2.110300733
2.000465964
2.515392783
2.717174232
2.921233648
2.839661495
2.645440109
2.613257725
2.53348569
2.431602888
2.353620737
2.339278431
2.322222237
2.291071763
2.219085648
2.082920179
1.929600526
1.835057482
1.699205618
1.423216799
1.607027879
2.403295657
2.495198982
2.441326105
2.334032886
2.25013727
2.098838863
2.049136459
2.011855134
1.86974867
1.680296954
1.481960819
2.899541535
2.95348785
3.151719198
3.019324308
2.665719106
2.614451591
2.56430155
2.456076235
2.323292264
2.228230567
2.174462888
2.129742723
2.103508669
2.061127544
2.004323435
1.997694774
2.01457287
1.977133703
2.467181359
3.078697604
2.793249317
2.684870817
2.490904529
2.316327613
2.148439326
2.002189485
1.844355308
1.697892894
1.521274828
1.381652008
3.224708051
3.180689044
3.413326024
3.242668792
2.740215333
2.598326615
2.596062967
2.488792111
2.317960217
2.13856933
2.040901706
1.926265481
1.939053609
1.973752996
2.020727762
2.144751723
2.22790235
2.68033135
3.410522608
3.742646747
3.118909973
2.708599019
2.560497098
2.458293186
2.336954183
2.116162313
1.837465711
1.685742067
1.543187874
1.457939003
1.392393306
3.357817551
3.388410284
3.614583446
3.416675551
2.855388658
2.574319641
2.649310951
2.559519793
2.365683951
2.096257896
2.011557043
1.746695684
1.698591601
1.843775828
2.078656283
2.380680946
2.997833806
3.672976338
3.957429049
4.132467154
3.711398506
3.253134539
2.815059343
2.511984246
2.197532784
2.075168804
1.91619429
1.710875919
1.55838335
1.507270135
1.488177089
3.256086852
3.4961527
3.65489758
3.437003046
2.943250146
2.508264164
2.65527419
2.62932917
2.429157767
2.118657144
2.115878116
1.871701787
1.513795193
1.564601355
1.917113937
2.464111436
3.223841521
3.866838443
4.194923608
4.572944638
4.072787323
3.616392918
2.938836957
2.289327444
1.917309477
1.951905298
1.978128479
1.7974269
1.646681549
1.581201033
1.653072042
3.117107648
3.505400168
3.588092904
3.383103119
2.986358764
2.174240964
2.548715006
2.682923962
2.516132521
2.188742997
2.150688639
1.981139072
1.610555927
1.620020854
1.578995585
1.94599795
2.47709542
3.213826425
3.888056699
4.175047847
3.521755334
3.063570773
2.86987268
2.599390691
2.068167426
1.503917675
1.816279485
1.73539997
1.726549618
1.674537151
1.750756067
2.97621017
2.911873313
2.869489422
2.047616909
1.863455184
2.625156537
2.761465602
2.819662905
2.643538737
2.315902128
2.182705775
2.054776947
1.904790087
1.944044453
1.795422331
2.410709058
2.051377852
2.508769706
3.163369655
3.68309898
2.719482075
2.709857067
2.676750251
2.568831545
2.467647069
2.132588348
1.911571629
1.810719197
1.890164968
1.867974464
1.911196597
3.346030517
3.613592172
4.08569106
3.428214307
2.375426733
2.770119563
2.902015913
2.881972083
2.678176034
2.288732733
2.01528228
1.947768489
1.829705363
2.618671106
1.621071548
3.214490691
2.413427258
2.626926077
2.536750549
2.529059986
2.586972558
2.815964669
2.664268274
2.422725304
2.255095746
2.136514266
2.02145418
1.966332293
2.097451575
2.081519124
2.078386425
3.735103996
4.667602423
4.890163686
4.597712786
2.542848751
1.928151512
2.592697133
2.711070699
2.581295258
2.199182369
1.831847855
1.607824354
2.448700486
2.095914652
2.529361878
4.523411001
2.984491835
2.798200746
2.432789109
1.11523531
2.904871732
2.797817187
2.583392076
2.325949924
2.252686621
2.204286953
2.074877226
2.067293452
2.266184214
2.262387239
3.687297289
4.203836024
4.359579163
3.537564878
2.604898055
2.722212021
2.85206929
2.841559141
2.69287631
2.459623633
2.136090408
1.928674702
2.180963611
3.259727334
4.278313193
6.002792421
4.054969901
3.228370877
2.046713754
2.079738865
3.286878027
2.700687943
2.250429568
2.171051965
2.074302133
2.25167128
2.080374466
2.129773808
2.370766624
2.379412261
3.701511639
3.795929364
3.980813596
3.417980779
3.025685248
2.705261114
2.469316522
2.614021276
2.668556924
2.608833326
2.487820229
2.404152412
2.568858407
3.4926406
5.430602716
8.319663747
4.493553152
2.498191031
2.203077892
3.210181271
3.605101906
2.75379594
2.338524223
2.287308491
1.996336127
2.223383049
2.006174053
2.136431478
2.389306119
2.359222086
3.49860982
3.497141417
3.510118719
3.154294674
3.569552315
3.477512022
2.553847529
2.685107847
2.809743847
2.783052893
2.699678619
2.533532852
2.612969182
3.219372795
3.909432126
5.417029257
1.93750534
3.013165245
3.648823109
3.894081554
4.186131233
3.78071948
3.387230787
2.764035791
2.279790887
2.265751779
1.896429017
2.129709391
2.333310666
2.214631943
3.328510478
3.535110415
3.928288165
4.27129233
4.479845936
4.345956052
3.665972265
2.833192821
2.906726526
2.868788934
2.75025503
2.5181972
2.504446732
2.620990817
3.044887676
3.412837776
1.943510436
2.50418096
3.362440276
3.808292726
3.914047343
3.454606592
1.981652707
2.207568874
2.012192384
2.233207037
1.78956405
2.044001473
1.966300265
3.262850113
3.517763335
3.972893397
4.304338635
4.407151229
4.272085175
3.77510674
3.212450445
3.128911656
2.907322466
2.701249597
2.388465106
2.281244159
2.406720064
2.618211973
2.320904379
2.542563382
2.107105095
2.399131381
3.565174867
3.735608266
3.045110034
2.153039295
1.601622663
2.072462092
2.276192184
1.607682947
2.049106018
1.574469416
3.06402845
3.29671623
3.696557658
4.032765486
4.258268477
4.223283642
3.71601839
3.310148806
3.169060437
2.80164325
2.58992549
2.291331341
2.574742309
2.61024713
2.540796235
2.271424275
2.593695022
2.302050719
1.709520789
2.936469395
3.208996932
2.821976865
2.043401402
1.863383199
2.449372291
2.780402582
2.061116125
1.405127284
1.217308076
2.853661201
3.037007348
3.391855566
3.664775994
3.895331775
3.912881671
3.468646666
3.175277736
3.006730418
2.657491373
2.623009796
2.770260713
2.823279712
2.779494968
2.671916039
2.603502955
2.707200063
2.798670429
2.275482616
2.623116665
3.066266268
2.933431321
2.249804189
2.085088083
2.250118796
2.489423623
1.655936084
1.209879915
1.005344837
2.696425635
2.821768689
3.093002599
3.320257433
3.487012573
3.471233191
3.136439183
3.001373684
2.904592881
2.859201035
3.004632391
3.03197223
3.024640829
2.992325283
2.948781323
2.958789701
2.977714994
3.078709532
2.966617023
3.082175501
3.138532684
2.938553039
2.287113478
1.967329045
2.046595136
2.058233944
0.9823900255
1.313860678
1.127019318
2.603832044
2.676889207
2.85873659
2.996899091
3.112364921
3.089603701
2.922630081
2.939503223
2.988664213
3.077606468
3.163855158
3.179023124
3.21074394
3.215374192
3.193837949
3.182442095
3.145404716
3.192609258
3.186063629
3.306413516
3.211752976
2.928560103
2.200687548
1.788677612
1.497569225
1.561922592
1.217906573
1.634066834
2.682579382
2.554215779
2.578736618
2.70451761
2.767670978
2.823571681
2.820455036
2.804308027
2.912266031
3.025538946
3.110079831
3.153245754
3.189465434
3.275076199
3.341577601
3.350773947
3.313166917
3.253420598
3.278074516
3.244601367
3.303454923
3.177448109
2.855547556
2.162535362
1.869347672
1.867710455
1.588627188
1.757843364
2.476014026
1.974521472
2.510125181
2.49769229
2.606592755
2.642400873
2.668007111
2.670709869
2.702931665
2.815336924
2.945081484
3.042732557
3.0849292
3.125441693
3.210170344
3.304882529
3.348632144
3.316718173
3.280444973
3.328320925
3.236901196
3.220540628
3.02445169
2.690984119
1.910507908
1.870271206
1.986526539
1.854056649
1.774215112
2.330891784
1.442301341
2.446355414
2.425044387
2.555435982
2.607272221
2.638774449
2.647120099
2.671922838
2.73908788
2.841799008
2.9545426
3.038673583
3.093320011
3.140035799
3.186420945
3.228762716
3.228240746
3.251340763
3.341887064
3.202153317
3.125932632
2.831041067
2.420059095
2.128945322
2.207237807
2.252809191
2.128862376
2.064726607
2.124532875
1.60944274
2.362946484
2.370690421
2.545681729
2.63348275
2.686625014
2.702219151
2.714591811
2.740195016
2.794767332
2.885636703
2.983372785
3.047841677
3.072182167
3.068804755
3.075819481
3.094829027
3.176127388
3.32108256
3.164174463
3.03143471
2.704369529
2.281023455
2.412594985
2.480925474
2.506681596
2.416821588
2.281449362
2.090000511
1.420051198
2.281889283
2.345706007
2.564917463
2.68692121
2.762421984
2.787363981
2.793641448
2.793835235
2.804980607
2.843071299
2.899104491
2.945816052
2.964059741
2.94456597
2.927062803
2.964215488
3.065157056
3.263992702
3.131909285
2.969173926
2.693007278
2.473794212
2.554832114
2.623753598
2.655035085
2.564305534
2.292482553
1.887357379
1.536645766
2.221913788
2.344782099
2.593621769
2.740717057
2.833550397
2.870982923
2.87415029
2.854284801
2.823821914
2.797950317
2.783271095
2.771731173
2.756022762
2.746047823
2.762653114
2.83913951
2.940286673
3.169992025
3.091595378
2.926751135
2.68663847
2.515438409
2.567002191
2.617212681
2.637141656
2.565144126
2.221015891
1.940949905
1.804235065
1.746741049
2.176510116
2.344129945
2.608785428
2.774655868
2.880017733
2.92525822
2.926322398
2.891185222
2.828443056
2.746524845
2.649678122
2.542169521
2.444941243
2.413906086
2.476115297
2.595566104
2.720628052
2.984045028
2.971111576
2.852135498
2.63464444
2.444790744
2.510168816
2.597449806
2.526690302
2.318177236
2.166925373
2.054315128
1.952094647
1.899276553
2.122441341
2.305798483
2.584990776
2.766705285
2.883790821
2.933364645
2.928728283
2.877448823
2.789533461
2.677185426
2.538128162
2.340354247
2.050314468
1.793574515
1.965186444
2.057596395
2.29018644
2.667145599
2.769029711
2.708958166
2.557926229
2.397899416
2.42160999
2.501456582
2.404152143
2.139619179
2.154995225
2.148960945
2.063196655
1.988617998
2.023702885
2.19744512
2.49003061
2.691358982
2.828843723
2.893417774
2.901743266
2.872337632
2.823175525
2.756046163
2.658210122
2.493584294
2.217146098
1.821231423
0.874568558
1.377564026
1.746670168
2.234220047
2.43174878
2.430941183
2.347342852
2.133658815
2.04496658
2.323432443
2.30327776
2.246551568
2.19452835
2.261730951
2.184828239
2.117834133
1.861842342
2.016613201
2.313580337
2.558235191
2.739804534
2.850715495
2.907707882
2.921798266
2.900315391
2.843658916
2.744039151
2.5878582
2.368130559
2.121959948
1.792838258
1.697230964
1.765972929
1.963159871
1.971989743
1.980693297
2.07326245
2.389160566
1.862985137
1.826133081
2.037931519
2.238812281
2.147459114
2.356642071
2.332836842
2.31660972
1.648177605
1.801924138
2.112985394
2.413146489
2.66595184
2.838012273
2.941824491
2.971853202
2.962969303
2.91638221
2.835621092
2.709590804
2.540687948
2.352049623
2.101291816
1.937356912
1.957917781
1.997329424
1.775655864
1.721012041
2.118791885
2.511889795
2.068869712
1.66227677
1.822401857
2.123340208
2.201812835
2.374682459
2.473796853
2.487933127
1.422445796
1.600136782
1.942040374
2.301103982
2.621319645
2.844365686
2.981185494
3.027056235
3.031447511
2.997890869
2.93412087
2.835691325
2.70824598
2.560968926
2.362519158
2.2088562
2.145668613
2.052668976
1.76452361
1.858910415
2.142333474
2.171402778
1.93330668
1.608529632
1.649968029
1.770558716
2.175885871
2.326329304
2.54996673
2.588344957
1.214527535
1.432777049
1.804911804
2.203539705
2.567317201
2.830436805
2.993273138
3.067844433
3.081759966
3.057732975
3.000955285
2.916941424
2.811838832
2.68609974
2.512056778
2.355313383
2.213821564
1.962417107
1.75707137
2.020626874
2.162257952
2.151302947
1.985875965
1.605509953
1.197831735
1.359590705
1.955241634
2.185552014
2.493392272
2.585973473
1.057739573
1.329948415
1.719513534
2.133444352
2.516826149
2.807708652
2.989731946
3.08907458
3.121132887
3.096038383
3.036001515
2.948650817
2.84474906
2.725883471
2.571310252
2.426089758
2.183039328
1.813853939
1.929740649
2.14801643
2.232842164
2.221100749
2.107827749
1.984664266
2.186493497
1.94624809
1.710113369
1.944194232
2.337126315
2.468304988
0.9421069874
1.245662457
1.628984555
2.046179419
2.435619896
2.725477193
2.8999689
2.988166148
3.006882911
2.966911155
2.878950414
2.752764131
2.606960778
2.457787392
2.300440569
2.150301619
1.816688359
1.764947609
2.025647617
2.160101915
2.202729159
2.172721746
2.061118666
1.929241099
1.993054506
1.479488267
1.410321682
1.699988674
2.053808254
2.17689129
0.8976206279
1.263201952
1.697720095
2.147689367
2.544775047
2.822602415
2.969765552
3.011141726
2.984219703
2.899219536
2.75946674
2.572257166
2.36727795
2.195545112
2.062519085
1.871698981
1.823556785
2.057100949
2.160751088
2.209746835
2.195155542
2.121615965
1.97063565
1.764187395
1.579574706
1.521187102
1.39110169
1.62322521
2.01829587
2.175956848
)
;
    }
    region0_to_wallFilmRegion_mirrorFace
    {
        type            convectiveHeatTransfer;
        L               1;
        value           nonuniform List<scalar> 
133
(
3.622079748
4.064641355
4.397280385
4.200655679
4.114086126
4.527258064
4.541912196
4.371605749
4.297351254
4.252470651
4.274784162
4.443348687
3.900798673
3.849103023
3.95441422
4.525523924
3.676996602
3.297694639
3.84675687
3.616297587
3.614311935
3.574754607
4.221839794
4.386799396
4.335821236
4.223969336
4.212005065
4.137238146
4.007804801
4.460998648
4.465474805
4.290782166
4.464941028
4.532831827
4.332591695
4.462510504
4.211644856
4.356363689
4.203778904
4.53686446
4.558221197
4.588724647
4.809544609
4.346300213
4.440322656
4.26118589
4.272814246
4.097046245
4.270830048
3.963031022
4.506880354
3.73493938
4.205479341
1.66989796
3.706551413
3.373602465
2.575284118
3.781412754
3.354813258
3.540805681
3.327556602
4.231115492
4.172699301
4.017236607
4.144200577
3.942453214
3.877872775
3.868464925
4.474735935
4.464681625
4.430672318
4.687291761
4.210774112
4.190712809
4.369604317
4.336060743
3.399689241
3.501412791
2.106715903
3.757724469
1.764930192
1.823350483
3.979935253
4.008428955
1.737361843
1.364635434
3.995256974
2.028399113
3.743783029
3.937596953
3.969461459
3.844531333
3.982012148
4.021413623
4.213166637
4.398508205
4.207350912
4.229966408
4.128604068
4.147293564
4.430099669
4.450312917
4.492544131
4.633801278
4.416518538
4.321697303
4.321983409
4.043377226
3.995886173
3.987779157
4.030892385
3.86217183
3.674576481
3.617281053
3.891642754
3.608321696
4.268958636
4.034379555
4.554916172
4.336649476
4.47669256
4.315021398
4.373660386
4.581423217
4.434954571
4.418430773
3.400517111
3.018920135
3.017390848
3.720779209
3.151947025
3.479259
3.887154566
)
;
    }
    procBoundary3to0
    {
        type            processor;
        value           uniform 0;
    }
    procBoundary3to1
    {
        type            processor;
        value           uniform 0;
    }
    procBoundary3to2
    {
        type            processor;
        value           uniform 0;
    }
}


// ************************************************************************* //
