/*--------------------------------*- C++ -*----------------------------------*\
  =========                 |
  \\      /  F ield         | OpenFOAM: The Open Source CFD Toolbox
   \\    /   O peration     | Website:  https://openfoam.org
    \\  /    A nd           | Version:  8
     \\/     M anipulation  |
\*---------------------------------------------------------------------------*/
FoamFile
{
    version     2.0;
    format      ascii;
    class       volScalarField;
    location    "0.6";
    object      k;
}
// * * * * * * * * * * * * * * * * * * * * * * * * * * * * * * * * * * * * * //

dimensions      [0 2 -2 0 0 0 0];

internalField   nonuniform List<scalar> 
67193
(
0.01028074083
0.01212297915
0.01677314461
0.02407900139
0.03206855151
0.03789142961
0.02293160058
0.02309754082
0.04493582128
0.0304380505
0.02183307117
0.01617366774
0.01393201291
0.01111625218
0.00862137165
0.007099615839
0.00641415571
0.006222630673
0.006235500494
0.006273027418
0.006261964565
0.006195899176
0.006069802005
0.005813325839
0.005295757387
0.004410505657
0.003139563027
0.001776848404
0.0007307017195
0.0002244912915
6.256935859e-05
2.265238103e-05
1.162466026e-05
9.169494592e-06
0.01259649463
0.01631046876
0.0235767174
0.03313592417
0.04198023299
0.04729896769
0.0325766196
0.03781894152
0.06813158707
0.04627702871
0.03307553122
0.0235695226
0.0219268888
0.01735392952
0.01223142925
0.008656886583
0.006915030613
0.006346172531
0.006307440512
0.006440214432
0.006625725717
0.006852783576
0.007081928586
0.007203034453
0.007061057475
0.00647703764
0.005327810016
0.003767309258
0.002232532958
0.00110019432
0.0004949021532
0.0002323829186
0.0001121039069
8.333098213e-05
0.01517315892
0.02093538013
0.02996506343
0.03992262104
0.04967706046
0.05509883057
0.03984791301
0.05306272602
0.08476070016
0.05702596667
0.04114427852
0.02989870092
0.03127837326
0.02568375788
0.01852227651
0.01221056043
0.008374824833
0.006839102344
0.006574780731
0.006785856351
0.007135886965
0.007543077606
0.007937440582
0.008201692364
0.008206544318
0.007835829523
0.006987398871
0.005666618869
0.004215427459
0.002946454074
0.001958047531
0.00124213251
0.0007286848024
0.0005537977269
0.01601826918
0.02198133062
0.03104927109
0.04181232741
0.05378000255
0.05942437313
0.04014880457
0.05404922262
0.08358059497
0.05483064541
0.03965357823
0.03226662345
0.04041902724
0.03293447605
0.02558657073
0.01758679214
0.01120817867
0.007939397142
0.007116965036
0.00732793273
0.007759587512
0.008208177471
0.008610165271
0.008865027072
0.00886270586
0.008528866071
0.00783762526
0.006905661352
0.005957325441
0.00512828224
0.004310555276
0.003430177282
0.002500476288
0.001988648605
0.01425190565
0.01748273482
0.02429778759
0.03522251322
0.04865260322
0.05661311177
0.02959564967
0.03419459329
0.06368063074
0.03909195875
0.03472176333
0.03646530739
0.05273815669
0.0405704331
0.03132675894
0.02331872614
0.01518110433
0.009855191332
0.008117323932
0.008180192072
0.008552378036
0.008874391246
0.009132395378
0.009257175197
0.009141625758
0.008745022788
0.00809245218
0.007384326993
0.006889213472
0.006613142635
0.006332544553
0.00585504643
0.005040020747
0.004298688946
0.01353356463
0.0148885237
0.01685324957
0.02064435833
0.0271151411
0.03298249197
0.02905271179
0.03445974425
0.04016478093
0.04222793153
0.03848162744
0.04208858235
0.06412623313
0.04994972017
0.03645997756
0.02736823016
0.01856564925
0.01199670036
0.009533556291
0.009310086579
0.009435344672
0.009466787491
0.009454691025
0.009377015776
0.009086350275
0.008585807927
0.00792348033
0.007332839249
0.007075423624
0.007106355106
0.007225986596
0.007249977724
0.006954910291
0.006497225266
0.01319199355
0.01471364706
0.01634093532
0.01837169981
0.02170796805
0.02701757204
0.03350412022
0.0391343804
0.04364608653
0.04959256292
0.04340690409
0.04176728493
0.06290320957
0.05231370541
0.03804322982
0.02785518306
0.01879258941
0.01318411415
0.01116355914
0.01056649204
0.01022923913
0.009891778464
0.00956042194
0.00922698385
0.00874387296
0.008165072133
0.007500336213
0.006960179125
0.0068045878
0.00697078616
0.00728353006
0.007597911493
0.007719843526
0.007723449491
0.01268726275
0.01433087287
0.01663847703
0.01947654088
0.02356581876
0.02918313611
0.03545541799
0.04203653958
0.05061133731
0.05815018919
0.05207720496
0.0450310972
0.04677311519
0.03835050266
0.03065954556
0.02386607788
0.01818668163
0.01512266957
0.01340817174
0.01192596553
0.01084529431
0.01006408921
0.009408741154
0.008822207766
0.008177022877
0.007616999391
0.006980305705
0.006417320181
0.006261938646
0.00647631893
0.006895140317
0.007377704128
0.007757587651
0.008083522516
0.01241428676
0.01346134675
0.0159265075
0.01904066307
0.02281954544
0.02763235884
0.03374340093
0.04210995984
0.05428184547
0.06340687157
0.05907580073
0.04906475609
0.04083170879
0.0347689594
0.02906236522
0.02300445502
0.01962047381
0.0182749598
0.01626450099
0.01360254671
0.01149941027
0.01009040502
0.009057576171
0.008220078925
0.007480354017
0.00708480208
0.006481571044
0.005841040738
0.005620689279
0.005793772263
0.006263832779
0.006891315499
0.007464671464
0.008010730561
0.01272652984
0.01265326547
0.01427630977
0.01692661937
0.01929116828
0.02225452279
0.02825548516
0.03738653417
0.04999377482
0.06214710861
0.05902164458
0.04859698753
0.03907594475
0.03146748338
0.02386442516
0.02071419471
0.02194169157
0.02178435137
0.01927944879
0.0156870991
0.01254598689
0.01028257427
0.008710224853
0.00757360896
0.00678396087
0.006672382808
0.006084535977
0.005431265382
0.005173193361
0.005275039618
0.005682146879
0.006371990027
0.007096213251
0.00778500721
0.01328403631
0.01267433082
0.01316515813
0.01619294849
0.01936665929
0.02221298942
0.02611829615
0.0315439376
0.03882020387
0.05126481856
0.04908451049
0.04164913409
0.03417728827
0.02575648213
0.02124325741
0.0240176718
0.0260496374
0.02483157993
0.02173039519
0.01769941774
0.01394019963
0.01091162907
0.008672851824
0.00712241511
0.006230232711
0.006388547765
0.005915936589
0.005322099013
0.005073393694
0.00511642009
0.00542296184
0.006051401127
0.006844654198
0.007584143007
0.01380067803
0.01306465644
0.01218949912
0.01397179314
0.01856344708
0.02299101481
0.02701726464
0.03000114143
0.0307617835
0.03614168102
0.03607156357
0.03123885217
0.02405280746
0.02036776968
0.02382351121
0.02919174795
0.02886623693
0.026391705
0.02304071763
0.018976009
0.01505077357
0.01171414487
0.009035096996
0.007057971408
0.005921992553
0.006159157775
0.00600488742
0.005509882356
0.00527863425
0.005266465817
0.005488920309
0.006045500317
0.006831414021
0.007528889516
0.01418839619
0.01339013995
0.01225937746
0.01115238185
0.01278454916
0.01803555252
0.0239007206
0.02789920118
0.0272974588
0.02730874577
0.02613896986
0.02138550539
0.01795788001
0.02374273901
0.02948722904
0.03255958283
0.03075920431
0.02715524322
0.02338493455
0.01934161928
0.01539331819
0.0120752526
0.009431768244
0.007311299233
0.005889120778
0.005930508792
0.006281361399
0.005914993062
0.005713929763
0.005672447343
0.005847168718
0.006376187972
0.007120653987
0.007703403298
0.01423419474
0.01347800048
0.01247693832
0.0111510305
0.01054390057
0.01233490026
0.01674594118
0.02131337062
0.03344854231
0.0311620754
0.02232680445
0.015549881
0.01874866467
0.02582194375
0.03125057514
0.03484567464
0.0322854641
0.02750356807
0.02284102249
0.018709629
0.01491279666
0.01179651864
0.009461424544
0.007605329468
0.006093039543
0.005685131247
0.006595069276
0.006446239602
0.006319400235
0.006312163596
0.006517576007
0.007092141007
0.007778744418
0.008166754923
0.01387489685
0.01331480179
0.01251616161
0.01155971482
0.01121878166
0.01023695299
0.01144605903
0.01467106403
0.02184010174
0.06801318648
0.03774002862
0.01703023195
0.01725346376
0.02472964798
0.03104816974
0.03505231418
0.03222833456
0.02714495875
0.02193349763
0.01756501043
0.01404863063
0.01132011342
0.009348685432
0.007879930147
0.006492380649
0.005540054904
0.006793681271
0.00720257649
0.007201204639
0.007281399836
0.007585094361
0.008215282522
0.0087348882
0.008797012538
0.0134750454
0.01308149824
0.01264594342
0.01363248868
0.01635071236
0.01126337154
0.01097806693
0.02323322247
0.06336262782
0.1447560011
0.1001149705
0.03497225961
0.01836729385
0.02284456251
0.02926629125
0.03323289792
0.0305223065
0.02591360931
0.02096570809
0.01667288235
0.0134293526
0.01111835423
0.009547567303
0.008436608994
0.007263549037
0.006362331418
0.007327241377
0.007982906185
0.00811738857
0.008272367248
0.008501783461
0.008920731169
0.009139533477
0.008819151462
0.01320134799
0.0129381097
0.01391715178
0.01989206075
0.02951200245
0.0191019994
0.01177891856
0.009180600111
0.01730895827
0.08619569621
0.01813998295
0.01934483667
0.01874550031
0.02394114324
0.02785157757
0.03132927495
0.0288457814
0.02467990495
0.02014022015
0.01619248067
0.0132549694
0.01122282181
0.009860277421
0.008999951155
0.008117903976
0.007076375476
0.007545090303
0.008602701154
0.008986259308
0.009151355395
0.009227580415
0.009325990151
0.008773747432
0.007271109633
0.01291679528
0.01367212693
0.01908332767
0.0312116516
0.04570420485
0.03443789657
0.02068973496
0.01039631007
0.00851815587
0.02512841222
0.01375550592
0.03045798531
0.02259089183
0.02262909045
0.02662502071
0.03129957348
0.02760125936
0.02291857621
0.0184758277
0.01503142943
0.01263376093
0.01107847469
0.0101064623
0.009462440275
0.0087358382
0.007750098935
0.007561236242
0.008426300974
0.009170688577
0.009458901996
0.009390829622
0.00881350261
0.007531564265
0.00669557732
0.01239882539
0.01771527798
0.02980405778
0.04970392012
0.06230334243
0.04909835042
0.03451867359
0.01750698628
0.009643338163
0.01290656971
0.02138145447
0.04187815483
0.032928551
0.02120501519
0.0137530143
0.02523876135
0.02497092186
0.02084617478
0.01657170251
0.01329424675
0.01113987177
0.009951569937
0.009400635954
0.009102104737
0.00861606046
0.007847975225
0.007392705573
0.007971455499
0.008811072201
0.008981953385
0.008415108146
0.007687020246
0.007201349114
0.00694280759
0.01460337737
0.02584839181
0.03975095505
0.05380833283
0.07064795929
0.06327154224
0.04977226229
0.03167338302
0.01448077739
0.02155561494
0.03312418936
0.05396700054
0.04323158838
0.03223192517
0.02043714251
0.01831581687
0.01996423537
0.0185068436
0.01555172489
0.01289253199
0.01107370326
0.009951499022
0.009284879474
0.008825874022
0.008286274268
0.00754468214
0.006903636221
0.007059120992
0.007519017218
0.007652117657
0.007769059554
0.007749000674
0.007502554701
0.007195533794
0.01067740345
0.01689371714
0.02729925624
0.04134308498
0.06775454856
0.0424132202
0.02912262671
0.01600149842
0.01947683207
0.03015358263
0.04085487303
0.03987681019
0.04075470385
0.03296069823
0.02284920488
0.01683656347
0.01634803068
0.01582987193
0.01388880017
0.01176047854
0.01020941294
0.009319657217
0.009175178931
0.009150003049
0.008555086027
0.007513847156
0.006772588193
0.007212615633
0.007898481837
0.00837221769
0.008451138516
0.008229496701
0.007773158967
0.007281727217
0.008619080642
0.01117430108
0.016695865
0.02722058714
0.04772164047
0.03019684435
0.01776220468
0.009981397723
0.01283113877
0.01712862391
0.02043313781
0.02981398805
0.02684128829
0.02127201732
0.01426158945
0.01124606137
0.01187684939
0.01197367549
0.01095763045
0.009921279042
0.01091858909
0.01436857474
0.01628281922
0.01614726005
0.01476609728
0.01263508143
0.01037981288
0.009526194863
0.009403493268
0.009369025034
0.009064205803
0.008538127746
0.007882896821
0.00723455794
0.007660182087
0.008846622735
0.01111929472
0.01605046395
0.02995937925
0.01843602549
0.01114746349
0.007387554484
0.008380806845
0.00955067213
0.01195660023
0.02336401823
0.01540992292
0.009560396448
0.0128757106
0.010670347
0.009127630424
0.01033349978
0.01223277684
0.01645222996
0.01999836566
0.02070945553
0.02014073073
0.01870511764
0.01692524426
0.01480947938
0.01224884883
0.01137279607
0.01052979672
0.01017364964
0.009570309071
0.008739512435
0.007869563909
0.007079506608
0.007209052058
0.00799245154
0.009090780225
0.01059507714
0.01416573793
0.01091170924
0.007702017112
0.00603288317
0.006040847877
0.006150122636
0.008083932461
0.01440989861
0.009436675564
0.01309332836
0.0321947398
0.02590478886
0.0172479808
0.01686420675
0.02055959793
0.02342246046
0.02384097698
0.02299654796
0.02133261808
0.01912061535
0.01708998659
0.01497400532
0.01287530411
0.01112541153
0.0106205855
0.01046090219
0.0096757696
0.008717531675
0.007734300514
0.006820565437
0.006769961954
0.007031665518
0.007547757368
0.008113533984
0.00830862436
0.007871023009
0.006862623068
0.005739587423
0.005103064165
0.004967139516
0.00491870837
0.00604351179
0.01054432488
0.01891864355
0.0374289566
0.05670081442
0.04598542328
0.02840215996
0.01990802939
0.02286967384
0.02681184616
0.0270015947
0.0253519458
0.02245972938
0.01975822204
0.01698653512
0.01397038656
0.01198222472
0.01069681021
0.01004870184
0.009850686001
0.009178651009
0.008426204762
0.007511245369
0.006484941208
0.006756825789
0.006887315239
0.007014671449
0.006733790493
0.006275862523
0.005921436719
0.005126378593
0.004358593603
0.004399787819
0.004836280631
0.006145541966
0.009734793266
0.01751672233
0.03101779386
0.04883662293
0.06214143028
0.05706203216
0.03763172999
0.0230575398
0.02401153656
0.02951179312
0.02967158149
0.02771130389
0.02378861169
0.01975185358
0.01582876383
0.01203388332
0.01037875089
0.009861272485
0.009371327076
0.008595913223
0.007738582699
0.0070266308
0.00603029756
0.005643684935
0.00662400277
0.006419822409
0.005783278116
0.004752025661
0.004333796463
0.00404875389
0.003796522171
0.003686593777
0.004498315393
0.005888157735
0.007758445969
0.009992700144
0.0127058806
0.01757483334
0.0288734437
0.04361256979
0.03086626667
0.01725536559
0.01582543234
0.02293968789
0.02902465662
0.02949812261
0.02701710133
0.0225515713
0.01796863759
0.01434461845
0.01186252629
0.01063046975
0.01008420382
0.009869232676
0.009650055226
0.008640148457
0.007178908608
0.00608889247
0.005517135372
0.006061626184
0.005249241298
0.004091269139
0.003015150417
0.002827701595
0.002883672215
0.002878070244
0.003046551612
0.004285611333
0.00631180439
0.009311334448
0.0134450048
0.01863632525
0.02369787086
0.02987086312
0.02646816085
0.01977715174
0.01797647508
0.01782612229
0.02099132891
0.02043657854
0.02235292634
0.02103649173
0.01670105733
0.01346562949
0.01214067025
0.01143922132
0.01099647959
0.01093806624
0.01120798752
0.01152072777
0.01131273475
0.009767909944
0.007680884562
0.006156643905
0.003620545891
0.002376313711
0.001630460422
0.001651907754
0.001896120904
0.002049987697
0.002750246959
0.005051845174
0.00899303246
0.01469710124
0.02208697785
0.02797909851
0.02880139237
0.02600597915
0.02066060638
0.02089340091
0.02243578367
0.02478995302
0.0167725149
0.01487017327
0.0175338105
0.01472374425
0.01223983529
0.01219971168
0.01234895397
0.01217790905
0.01199178696
0.01210405132
0.01259708593
0.01320307077
0.01348397627
0.01296436004
0.01109470801
0.008552126521
0.001846223546
0.0008941944338
0.0006369591876
0.0007537680725
0.0009807094877
0.001220892403
0.002111881276
0.004347026969
0.007858822067
0.01251788795
0.0180084604
0.02267805729
0.01168822227
0.01207595342
0.01236986227
0.01293855766
0.01356654327
0.01406603918
0.01450823521
0.01479384728
0.01459869838
0.01338306433
0.01108010147
0.0007173326931
0.001162240572
0.001447533706
0.001364090015
0.001828871541
0.003617157863
0.009972977171
0.01005962738
0.01182021387
0.01545906844
0.02081121953
0.02633780972
0.01839495673
0.01719927241
0.02842049509
0.0181561877
0.01466159678
0.01200309601
0.01035286824
0.00862967344
0.007280143409
0.006523598403
0.006279680065
0.006276224678
0.00627366556
0.006193291737
0.006026933183
0.005749921991
0.00533562975
0.004804356307
0.004111566174
0.003173696115
0.002043727583
0.001012828898
0.0003676167907
0.0001044397794
3.115680125e-05
1.577438769e-05
1.107607653e-05
6.827347609e-06
0.01259442714
0.01342004131
0.0155283222
0.01871349942
0.02887895886
0.04129719097
0.03005170394
0.03088872313
0.06357687864
0.02742770561
0.0184281025
0.01400948271
0.01225814326
0.009785880764
0.007553685057
0.006379057059
0.006127827874
0.006198401545
0.006134599029
0.005960005353
0.005862382912
0.00589746289
0.005981355093
0.005982405627
0.005747884597
0.005133584334
0.004079139769
0.002750399938
0.001461762975
0.0006229880639
0.0002493067544
0.0001246427456
7.232945736e-05
4.346900164e-05
0.01441163453
0.01638853605
0.01964280022
0.02659531577
0.04540364076
0.05463135854
0.04466554377
0.05456534534
0.08329922238
0.04940572339
0.02370765168
0.01658078323
0.01470633701
0.01120952408
0.008296305364
0.006468867421
0.005793590493
0.005785921191
0.005735505387
0.005562811724
0.005574395703
0.005930102335
0.006476133157
0.006924226152
0.007036711657
0.006686895958
0.00579626083
0.004472548894
0.003075879505
0.001854943077
0.001031359829
0.0006017523076
0.0003737592957
0.0003029009373
0.0152993629
0.0174730088
0.02098589708
0.03035352367
0.05341353204
0.05985702915
0.04893236982
0.05962194634
0.084467955
0.0584433708
0.0298649248
0.01943026211
0.02173410918
0.01411134819
0.008887802879
0.007287794346
0.006272767237
0.006054714596
0.006007804413
0.005769768604
0.005649614267
0.005972918631
0.006637348756
0.007281775802
0.007599123207
0.007492914879
0.006950855927
0.005994495198
0.004796667762
0.003667605163
0.002716070966
0.001978619458
0.001460377923
0.001255100269
0.01561701495
0.01747115621
0.02078373148
0.02930938878
0.04864414307
0.05846295177
0.04221223579
0.03563909478
0.08477406065
0.04767471714
0.02738176394
0.02307176679
0.04054901013
0.02618253284
0.01143976955
0.008230465183
0.007380940002
0.006958587132
0.006916557104
0.006639037855
0.0063201015
0.006380958618
0.00681118967
0.007311994875
0.007609552645
0.007626530539
0.007414696643
0.007012949469
0.00638908524
0.005612338279
0.004791271041
0.00410932263
0.003553081436
0.003132060429
0.01596802216
0.01787831848
0.0204129471
0.02560451787
0.03761897101
0.05197908558
0.03306405323
0.02755953252
0.04298289464
0.03595306171
0.03006060007
0.03945239688
0.06017216654
0.04466299756
0.01847663106
0.009771937715
0.008605131325
0.008180461968
0.008196631024
0.007921654568
0.007453741997
0.007247572379
0.007290672442
0.007339721204
0.007340066496
0.007264444421
0.00717732557
0.007220279416
0.007334339567
0.007287705769
0.006924425473
0.006448570453
0.005875955781
0.005313355609
0.01593649675
0.01826864822
0.02091682726
0.02412152932
0.02862359003
0.03191369789
0.02770588442
0.02802451706
0.0400029828
0.04722889641
0.04203023879
0.0511002352
0.06725721031
0.05208059947
0.02423473957
0.01224414605
0.00994990169
0.009599502735
0.00975461272
0.009484929473
0.008872425109
0.008316042475
0.007852538942
0.007390119501
0.00701863076
0.006734129423
0.006524490749
0.006625300045
0.007156436158
0.007872526885
0.008337100687
0.008371444198
0.007696094173
0.007081983895
0.01562356809
0.01804243119
0.02156427777
0.02498262751
0.02797546521
0.0302107186
0.02978304371
0.03413375833
0.0542570317
0.06207951205
0.05779567843
0.05133085176
0.0605649638
0.04054111068
0.01816300032
0.01250387227
0.01159456201
0.01179564012
0.01189549969
0.01136454229
0.01038317752
0.009309974879
0.008263923559
0.007352200769
0.006710368278
0.006233980674
0.00576094961
0.005541963365
0.005816096224
0.00662296063
0.007745755372
0.008669350036
0.008410899612
0.007957255033
0.01556874295
0.01725979729
0.02139310112
0.02579591334
0.02817509061
0.03003420772
0.03192342371
0.0409570867
0.06342548029
0.07128981305
0.06804781833
0.05282759825
0.03450603989
0.01908494599
0.01442505977
0.01358569117
0.01395885397
0.01480036458
0.01451312127
0.01335618681
0.01174047328
0.0100080842
0.008408699097
0.007179803623
0.006407159398
0.005817506407
0.005100683535
0.00450006744
0.004268147869
0.004632854634
0.005628511831
0.007027757753
0.00782773368
0.008082336048
0.01604375305
0.01653129625
0.02040173124
0.0259721706
0.02888213829
0.03107822576
0.03537195952
0.04613127677
0.0633267014
0.07045539023
0.0673139503
0.04797234961
0.02791355313
0.01837318823
0.01526631034
0.0147387013
0.01695715056
0.01813887168
0.01703559083
0.01484220375
0.01256708142
0.01026390931
0.008259150014
0.00688889765
0.00609941688
0.005500865758
0.004689088255
0.003873960983
0.003439332408
0.003519777632
0.004059007962
0.005160139804
0.006698872949
0.007797979611
0.01663063246
0.01631365989
0.01872079279
0.02511655415
0.03007370257
0.03257527756
0.03767555862
0.04616937631
0.05534450508
0.05916854743
0.05399943179
0.03585992344
0.02418466199
0.01898343929
0.01674738183
0.01812050291
0.02146161661
0.02044035263
0.01819546407
0.01509112595
0.01234991144
0.009876346916
0.007814780954
0.006511020419
0.005834304673
0.005376673186
0.004640791527
0.003857364195
0.00341351099
0.003348668439
0.003614845198
0.004309254242
0.005966937345
0.007478958432
0.0171143696
0.01651066583
0.01704640427
0.02216512938
0.02922600704
0.03319796216
0.03757819731
0.04156214145
0.04417111106
0.04021475052
0.03046045746
0.02228281224
0.01802269627
0.0164874913
0.01896396086
0.02384670224
0.02554155849
0.02087512244
0.01694744029
0.01403641776
0.01102702241
0.008774498794
0.007092048831
0.006111431525
0.005728192614
0.005619798185
0.005077156749
0.004416611813
0.00397593734
0.003756288075
0.003798862998
0.004305841989
0.005893855597
0.007363537874
0.0174347423
0.01675241001
0.01633380671
0.01861711945
0.02215057862
0.02827561356
0.03720648537
0.04060495437
0.05067060927
0.03326487614
0.02292619272
0.01748168728
0.01494611896
0.01743347589
0.0260753047
0.03116880785
0.02931139478
0.02247238732
0.01552143383
0.01213369087
0.009277511397
0.007388208689
0.00625278439
0.005781923141
0.005896767143
0.006381882759
0.005939919305
0.005321667266
0.004875284562
0.004547551858
0.004416014324
0.00483580631
0.006357200508
0.007524546103
0.01739915994
0.01683401244
0.01590617035
0.0165050246
0.01774497982
0.02019285609
0.02792591283
0.04457029184
0.1718580665
0.05235051304
0.02526345434
0.01478230984
0.01442100907
0.01794891699
0.0322145311
0.03726809935
0.03473460004
0.02629021175
0.01651035956
0.01079254119
0.008040404534
0.006451950928
0.005693621797
0.00563878706
0.006309796972
0.007546763238
0.007055668165
0.00636536586
0.005931113769
0.005577242149
0.005364616121
0.005766371535
0.007145538082
0.007911311012
0.01693265727
0.01685600102
0.0157477517
0.01530207392
0.01538162186
0.01675603207
0.02090979415
0.05152368308
0.03960309842
0.09537531306
0.03846673695
0.01694143758
0.01380885988
0.01774052537
0.03616291912
0.04033766252
0.0372134057
0.02869911885
0.01833679888
0.01100928835
0.007600984701
0.006213817867
0.005729843674
0.005750251511
0.006564894993
0.008783086498
0.008595032645
0.007652021607
0.007191111984
0.006809907094
0.006523155191
0.006904203509
0.007932500599
0.008247929034
0.01628953169
0.01691622713
0.01620952767
0.01485617966
0.01401523682
0.01458351206
0.01604199975
0.02369180314
0.08242445816
0.1761902898
0.1719876032
0.02207299146
0.01458830355
0.01860403386
0.03554049944
0.03715418915
0.03331652967
0.02506597501
0.01609758182
0.009939395648
0.007118195088
0.006285238363
0.006140323441
0.00605182138
0.006486917302
0.007745633079
0.009200368238
0.008498827431
0.008118297692
0.007745898063
0.007475527375
0.007825970899
0.008239157765
0.007821420823
0.01545579312
0.01745694122
0.01749310168
0.01711478461
0.01454636811
0.01375272401
0.01142307933
0.01214115434
0.03047600229
0.2008074139
0.06255624255
0.02166762454
0.01387900173
0.01656684131
0.02726667055
0.03120978216
0.0278005679
0.02085393703
0.01403941687
0.009430228392
0.006913342258
0.005952948047
0.00585988799
0.005757602933
0.006120823557
0.007271096569
0.009216111861
0.009220182028
0.00909562266
0.008825713148
0.008452987739
0.008247245442
0.007708332625
0.006654004431
0.01444912919
0.0173409109
0.01880821686
0.02216847496
0.02697163281
0.01581533166
0.01256197022
0.009517396347
0.010816207
0.03925934252
0.01947211851
0.02032658166
0.01614749272
0.01721058245
0.03042732368
0.03086136655
0.02579045405
0.01881002313
0.01261998582
0.008652995185
0.006377200161
0.005374990682
0.005488093227
0.005809726964
0.006287626168
0.006943944415
0.007867079989
0.008431296029
0.009090058518
0.009171790433
0.00841671052
0.007685112196
0.006792060015
0.006518932956
0.01385233253
0.01579470657
0.02019224313
0.04428422395
0.05575821679
0.02964430535
0.01607848744
0.01156587981
0.01127601051
0.01904950164
0.01731977744
0.02737190611
0.01681143167
0.01493714265
0.02443242793
0.02849055605
0.02483711541
0.01790322889
0.01199837058
0.008087243381
0.005816937729
0.005129004692
0.005659209978
0.006229303878
0.006598180783
0.006652589667
0.006869845444
0.007703358175
0.008306261142
0.008161424523
0.007763632721
0.007299277112
0.006626125568
0.006630071067
0.01282264161
0.01397622111
0.02132616022
0.04562149943
0.06539732744
0.05665361772
0.02189675931
0.01631432257
0.0148583497
0.01582239291
0.02890556675
0.05160589962
0.03568473104
0.01465845368
0.00991987749
0.01069769673
0.01093318847
0.009895457687
0.008472231342
0.007058054974
0.006046727286
0.006103402325
0.006701690803
0.006982159186
0.006830028525
0.006461812883
0.006256036806
0.006624994032
0.007008222348
0.007286231854
0.007536875026
0.007379461505
0.006532679503
0.0066316981
0.008387187958
0.01082334492
0.01431693795
0.03448012876
0.07088470602
0.02253570498
0.01286035173
0.01354113696
0.01620535963
0.01902722671
0.04363160077
0.03634117765
0.03877381296
0.01893451521
0.008740330376
0.008451874762
0.008883617909
0.008804940192
0.008232747001
0.007643789935
0.007393581921
0.007823358157
0.008152725043
0.007898642167
0.007237286844
0.006670145332
0.006535153733
0.00742752491
0.007959652359
0.008251125205
0.008151509928
0.007450572522
0.006371749697
0.006509707337
0.006257832227
0.008928933061
0.01157596586
0.01343339382
0.0272597283
0.01121754579
0.009736967955
0.00948484841
0.01113581968
0.01479787088
0.02599043078
0.02514315451
0.01305603583
0.009155228668
0.008543193394
0.00767653585
0.007927679647
0.008203360755
0.008086095661
0.008439477793
0.01071273682
0.01330386474
0.01422773233
0.01352582681
0.01221797388
0.01103889535
0.01057649906
0.0119183968
0.01060758491
0.009755912818
0.008916612386
0.007818024123
0.006678202953
0.006401440887
0.005591662027
0.008099645142
0.01027268454
0.010899342
0.01495002792
0.008976613175
0.007267586644
0.006561503595
0.007250558571
0.006920457991
0.008640962948
0.01027710399
0.01077709817
0.01232806621
0.0165388121
0.0115275262
0.008607540337
0.009904741013
0.01250609666
0.01620903799
0.01684144075
0.01708420235
0.01630249228
0.01351736421
0.01253690913
0.01267612506
0.01534315727
0.0160395105
0.01372595837
0.01175481784
0.01026017386
0.008713147443
0.007364901858
0.00631297191
0.005910677834
0.007592650601
0.008859674574
0.00887538978
0.01145864005
0.00727975129
0.005647144762
0.005001655195
0.005133854612
0.005310377317
0.007107572911
0.01207242503
0.02187265965
0.03489305814
0.04665675499
0.03260419111
0.01779035553
0.01609220613
0.01993220018
0.0223692574
0.0221863158
0.02094278381
0.01746080634
0.01179147429
0.0106223779
0.01173360878
0.01456041543
0.01757405323
0.01527016745
0.01302716603
0.01095832274
0.009115211981
0.00786494438
0.006143546369
0.005306259365
0.00666464111
0.006923610096
0.007380833875
0.008434987061
0.009699149658
0.006994403516
0.004670243952
0.004262109799
0.004305018144
0.005419236301
0.00978654226
0.01403158463
0.03117052677
0.05946927911
0.07511000864
0.06556272625
0.03522552928
0.02408739242
0.0278051804
0.0295628255
0.02885328627
0.02598708476
0.01998851237
0.01392275918
0.01004461679
0.01015055864
0.0127988171
0.01553094589
0.01643738796
0.01469152056
0.011594394
0.008874037343
0.00794967692
0.00577405352
0.006612193887
0.007103764953
0.006257120605
0.005773563964
0.006981118498
0.01233359015
0.01017094472
0.004876244768
0.004271726168
0.005340320206
0.008967398649
0.01630882509
0.02348700823
0.04175285092
0.06912573907
0.07390144559
0.06885045699
0.04331117251
0.03253661377
0.03651796587
0.03589289313
0.03381353505
0.03102782442
0.02343129238
0.01538937433
0.01019090868
0.008578033357
0.009051179508
0.009455964165
0.009868993655
0.009713779077
0.009294774662
0.007572266158
0.00623589953
0.005404913568
0.005884413438
0.005786220852
0.005070069486
0.004374091846
0.004581685959
0.008018865769
0.006657254508
0.005130998641
0.005305923065
0.007674321987
0.01249077478
0.01946448365
0.02746150898
0.04039181167
0.05553238983
0.06222844016
0.0537607464
0.04029332553
0.03758137555
0.03952455495
0.0364130244
0.03413137482
0.03023479892
0.02249923665
0.0152458783
0.01090676314
0.008275407421
0.007288830903
0.006909118387
0.007561268035
0.008484229955
0.008361175911
0.006542197664
0.006159311288
0.005397988355
0.004453021028
0.003753333792
0.003115141122
0.002780903444
0.003220356933
0.004367477277
0.004397259399
0.004247412681
0.005237518214
0.008590323806
0.0148990614
0.02363947908
0.03326229493
0.04039618379
0.04633811868
0.05052859848
0.04405707714
0.03903950653
0.04096844786
0.04062222691
0.03175697536
0.02191842593
0.01653950654
0.0139467462
0.01284801866
0.01214408801
0.01088571064
0.009300806475
0.007577837975
0.007313531624
0.008508430239
0.009684717054
0.008057564935
0.008932917155
0.005977034012
0.002205058141
0.001512731269
0.001288128698
0.001750230241
0.002426199086
0.002470902495
0.002775657648
0.004394581745
0.00854185292
0.01708641701
0.02898019274
0.03720288612
0.04208489633
0.04636378746
0.04540549578
0.04130100812
0.04119408393
0.04001233435
0.03511100408
0.0191060836
0.01400451098
0.01339191366
0.01401133655
0.01431881663
0.01400216695
0.01300763316
0.01164540488
0.01034502017
0.009755411699
0.01028006465
0.01158495158
0.01154959785
0.009883751398
0.007477440664
0.0009520476411
0.0004792906317
0.0004000868618
0.0006041316808
0.0008763053839
0.001020135899
0.001589736725
0.003388701241
0.007169165947
0.01455595521
0.02516525733
0.03416728914
0.01497136008
0.01477676175
0.01374676447
0.01268148478
0.01200795743
0.01189158184
0.0127189008
0.01417854669
0.01471782113
0.01217117693
0.009387019466
0.0004657851807
0.0009447303552
0.001297178967
0.00117928372
0.001303449525
0.002577456595
0.01025937411
0.009484398285
0.009955009764
0.01179064306
0.01507238428