/*--------------------------------*- C++ -*----------------------------------*\
  =========                 |
  \\      /  F ield         | OpenFOAM: The Open Source CFD Toolbox
   \\    /   O peration     | Website:  https://openfoam.org
    \\  /    A nd           | Version:  8
     \\/     M anipulation  |
\*---------------------------------------------------------------------------*/
FoamFile
{
    version     2.0;
    format      ascii;
    class       volScalarField;
    location    "0.6";
    object      N2;
}
// * * * * * * * * * * * * * * * * * * * * * * * * * * * * * * * * * * * * * //

dimensions      [0 0 0 0 0 0 0];

internalField   nonuniform List<scalar> 
67193
(
0.7899949902
0.7899947251
0.7899945073
0.7899945548
0.7899950526
0.7899957282
0.7899941952
0.7899937715
0.7899948382
0.7899933047
0.789993587
0.7899939388
0.7899940786
0.7899940223
0.7899941349
0.7899942408
0.7899943338
0.7899944182
0.7899944735
0.7899944801
0.7899944357
0.7899943557
0.7899942608
0.78999415
0.7899939961
0.789993763
0.7899934392
0.789993084
0.7899928133
0.7899926982
0.7899926787
0.7899926823
0.7899926872
0.7899926832
0.7899950204
0.7899948167
0.7899948536
0.7899953187
0.7899960399
0.7899964113
0.7899947021
0.7899945462
0.7899976914
0.7899949405
0.7899941142
0.7899940816
0.7899942559
0.7899938491
0.7899939219
0.7899940784
0.7899941911
0.7899942812
0.789994349
0.7899943814
0.7899943821
0.7899943709
0.7899943642
0.7899943597
0.7899943315
0.7899942307
0.7899939994
0.7899936392
0.7899932568
0.7899929534
0.7899927905
0.7899927227
0.7899926964
0.7899926771
0.7899950519
0.7899949957
0.7899953107
0.789995903
0.7899964653
0.7899967502
0.7899955694
0.7899961661
0.7899988751
0.7899964408
0.7899951386
0.7899945031
0.7899952166
0.7899940739
0.7899937111
0.7899938603
0.7899940725
0.789994214
0.7899942984
0.7899943457
0.7899943712
0.7899943926
0.7899944202
0.7899944514
0.7899944698
0.7899944479
0.7899943458
0.7899941176
0.7899937935
0.7899934637
0.7899931802
0.7899929639
0.7899928169
0.7899927388
0.7899952655
0.7899953112
0.7899956265
0.7899960883
0.7899965733
0.7899969518
0.7899961437
0.7899964615
0.789998478
0.7899965036
0.7899957082
0.7899950163
0.7899969521
0.7899951525
0.7899939939
0.7899937364
0.7899939394
0.7899941607
0.7899942873
0.7899943637
0.7899944165
0.7899944576
0.7899944968
0.7899945366
0.7899945645
0.7899945611
0.7899945111
0.7899944101
0.7899942495
0.7899940399
0.7899937907
0.789993514
0.7899932308
0.7899930263
0.789995479
0.7899954583
0.7899955419
0.7899958024
0.789996223
0.7899965813
0.7899953427
0.7899952867
0.7899963465
0.7899961698
0.7899959327
0.789995692
0.7899983214
0.789996414
0.7899948625
0.7899940016
0.7899939147
0.7899941295
0.7899943008
0.7899944191
0.7899945021
0.7899945523
0.7899945877
0.7899946227
0.7899946466
0.7899946424
0.7899946011
0.7899945426
0.7899944819
0.7899944083
0.7899942985
0.7899941191
0.7899938449
0.7899935335
0.7899956028
0.7899955744
0.7899955417
0.7899955064
0.7899955661
0.7899957559
0.7899954988
0.7899957434
0.789996226
0.7899966788
0.7899964728
0.789996392
0.7899985801
0.7899970483
0.7899955723
0.789994575
0.7899941844
0.7899942339
0.7899943595
0.7899944969
0.7899946055
0.7899946589
0.7899946841
0.7899947131
0.7899947298
0.7899947187
0.7899946679
0.7899946082
0.789994562
0.7899945302
0.7899945074
0.789994461
0.7899943311
0.7899940433
0.7899956943
0.789995632
0.7899955636
0.7899954543
0.7899953899
0.7899955566
0.7899958215
0.7899961224
0.7899964537
0.7899968017
0.7899967748
0.789995963
0.7899975758
0.7899965372
0.7899954232
0.7899948076
0.7899945488
0.7899944683
0.7899944615
0.7899945685
0.789994693
0.7899947579
0.7899947835
0.7899948116
0.7899948238
0.7899948026
0.7899947271
0.789994646
0.7899945813
0.789994541
0.7899945359
0.7899945533
0.7899945404
0.7899943823
0.7899958023
0.789995679
0.78999558
0.7899954992
0.7899954849
0.7899956328
0.789995843
0.7899960719
0.7899964539
0.7899969103
0.7899968162
0.7899963061
0.7899964138
0.7899957851
0.7899952883
0.789994979
0.7899947572
0.7899946195
0.7899945448
0.7899946125
0.7899947443
0.7899948334
0.7899948775
0.789994918
0.7899949302
0.7899948921
0.7899947768
0.7899946718
0.7899945837
0.7899945251
0.7899945137
0.789994555
0.7899945957
0.7899945472
0.789995947
0.789995759
0.7899955922
0.7899955305
0.7899955053
0.7899955336
0.789995635
0.7899958777
0.7899963313
0.789996849
0.789996809
0.7899963255
0.7899960921
0.7899957117
0.7899953337
0.7899950358
0.7899948698
0.7899947832
0.7899946974
0.7899947013
0.7899947938
0.7899948918
0.7899949628
0.7899950258
0.7899950423
0.7899949738
0.7899948194
0.7899947215
0.789994638
0.7899945706
0.7899945311
0.7899945592
0.789994613
0.7899946266
0.7899961
0.7899958946
0.7899955867
0.7899955016
0.7899954332
0.7899953286
0.7899953473
0.7899955781
0.7899959341
0.7899965084
0.7899963778
0.7899959148
0.7899956054
0.7899952652
0.7899949857
0.7899949273
0.7899949475
0.789994954
0.7899949059
0.7899948718
0.7899948978
0.7899949645
0.7899950467
0.7899951323
0.7899951511
0.7899950359
0.7899948795
0.7899948355
0.7899947685
0.7899946926
0.7899946212
0.7899946024
0.7899946441
0.7899946777
0.7899962057
0.7899960548
0.789995579
0.7899953873
0.7899953667
0.7899953217
0.7899953376
0.78999549
0.7899954977
0.7899960377
0.7899958597
0.7899955499
0.789995286
0.7899949827
0.7899948702
0.7899950015
0.7899950113
0.7899950329
0.789995056
0.7899950621
0.7899950659
0.7899950924
0.7899951561
0.7899952441
0.789995253
0.7899950828
0.7899949948
0.7899950162
0.7899949647
0.7899948726
0.7899947635
0.7899946941
0.7899947059
0.7899947279
0.7899962806
0.7899961591
0.7899956941
0.789995259
0.7899952801
0.7899952235
0.7899951955
0.789995387
0.7899946456
0.7899953614
0.7899951958
0.7899950608
0.7899948245
0.7899947378
0.789994894
0.7899950227
0.7899949484
0.7899949738
0.7899950684
0.7899951567
0.7899952168
0.7899952596
0.7899953055
0.7899953698
0.7899953544
0.7899951377
0.7899951515
0.7899952319
0.7899951876
0.7899950693
0.7899949202
0.7899948073
0.7899947885
0.7899947855
0.7899963134
0.7899961885
0.7899958318
0.7899951427
0.7899950446
0.7899951321
0.7899950548
0.7899951526
0.7899939436
0.7899946222
0.789994225
0.7899944823
0.7899944556
0.7899947319
0.7899949279
0.7899949818
0.7899949817
0.7899949339
0.7899949993
0.7899951319
0.7899952796
0.7899953981
0.7899954641
0.7899955039
0.789995466
0.78999522
0.789995292
0.7899954229
0.7899953785
0.7899952316
0.7899950484
0.7899949106
0.7899948742
0.7899948492
0.7899963001
0.7899961566
0.7899958279
0.7899951435
0.7899946588
0.7899946641
0.7899940829
0.7899945056
0.7899900397
0.7899936779
0.7899927335
0.7899938613
0.7899941749
0.7899945708
0.7899948798
0.7899951491
0.7899951708
0.7899950314
0.7899949949
0.7899950814
0.7899952685
0.7899954705
0.7899955943
0.7899956266
0.7899955813
0.7899953232
0.7899953398
0.7899955054
0.7899954543
0.7899952895
0.7899950988
0.789994975
0.789994945
0.7899949127
0.7899962185
0.7899960529
0.7899957451
0.7899950729
0.789994651
0.7899945425
0.7899945977
0.789994569
0.7899940503
0.7899955691
0.7899913756
0.7899923654
0.7899937718
0.7899944915
0.7899950207
0.7899953991
0.7899954191
0.789995273
0.7899951655
0.7899951511
0.7899952728
0.7899954906
0.7899956657
0.7899957125
0.789995661
0.7899954477
0.7899952405
0.7899953805
0.7899953253
0.7899951697
0.7899950175
0.7899949508
0.7899949472
0.7899949358
0.7899960907
0.7899958799
0.7899955372
0.7899947963
0.7899945723
0.7899942335
0.7899937331
0.7899938135
0.7899951669
0.7900026548
0.7900015172
0.7899906606
0.7899927678
0.7899943318
0.7899951613
0.7899956883
0.7899956869
0.7899955712
0.7899954598
0.7899953658
0.7899953579
0.7899954816
0.7899956415
0.7899957138
0.7899956782
0.7899954183
0.7899950508
0.7899951427
0.789995091
0.7899949779
0.7899948861
0.789994854
0.7899948677
0.789994894
0.7899959504
0.7899956328
0.7899951804
0.7899948286
0.7899951259
0.7899945959
0.7899944964
0.7899944699
0.7899944897
0.7899954704
0.7899929703
0.7899950629
0.7899949323
0.7899953677
0.7899957257
0.7899961594
0.7899961053
0.7899959284
0.7899957902
0.7899956253
0.7899954565
0.7899953999
0.7899954648
0.7899955389
0.7899955536
0.7899953703
0.7899949687
0.7899949053
0.7899949005
0.7899948594
0.7899948275
0.7899948469
0.7899948084
0.7899946075
0.7899958196
0.7899952954
0.7899950289
0.7899958426
0.78999614
0.789995248
0.7899946643
0.7899946473
0.7899948666
0.7899950287
0.7899944235
0.7899962592
0.7899949492
0.7899951621
0.7899955525
0.7899963189
0.789996442
0.7899961512
0.7899959077
0.7899956553
0.7899953562
0.7899951179
0.7899950246
0.7899950743
0.7899951874
0.7899951917
0.789994926
0.7899947139
0.7899946782
0.7899947166
0.7899947923
0.7899947891
0.7899946336
0.7899945883
0.7899954331
0.7899952205
0.7899959506
0.7899970286
0.7899970823
0.7899962153
0.789995421
0.7899948206
0.789995079
0.789995087
0.7899953277
0.7899972926
0.7899964839
0.7899950038
0.7899944493
0.7899955749
0.7899957569
0.7899954865
0.7899951855
0.7899949245
0.7899947201
0.7899946437
0.7899946929
0.7899948175
0.7899949502
0.7899949937
0.7899948348
0.7899946516
0.7899946579
0.7899947243
0.7899946814
0.7899945829
0.7899945893
0.7899947235
0.7899950497
0.7899949315
0.7899954295
0.7899956047
0.7899968144
0.7899963866
0.7899963275
0.7899954778
0.7899951184
0.789995597
0.7899962021
0.7899971637
0.7899969168
0.7899961081
0.7899950025
0.7899947744
0.789994957
0.789994873
0.7899946957
0.7899945471
0.7899944758
0.7899944979
0.7899945717
0.7899946592
0.7899947323
0.7899947588
0.7899946756
0.7899945321
0.789994447
0.789994438
0.7899944956
0.7899945764
0.7899946897
0.7899948626
0.7899949646
0.7899945772
0.7899945683
0.7899949318
0.7899958996
0.7899952905
0.7899950998
0.7899948796
0.7899952404
0.7899957223
0.7899958795
0.7899962429
0.7899961529
0.7899957924
0.7899952861
0.7899947046
0.789994539
0.7899944459
0.7899943477
0.7899943149
0.7899943633
0.7899944256
0.7899944463
0.7899944506
0.7899944638
0.7899944761
0.7899944041
0.7899942658
0.7899943388
0.7899945155
0.7899946439
0.7899947287
0.7899948187
0.7899949675
0.789994886
0.7899946208
0.789994456
0.7899946159
0.7899955339
0.7899950164
0.7899947374
0.789994736
0.7899949622
0.7899951081
0.7899951927
0.7899954389
0.7899954028
0.7899948904
0.7899944256
0.7899941368
0.7899941187
0.7899940959
0.7899941115
0.7899941903
0.7899942464
0.7899943075
0.7899943276
0.7899943857
0.7899944263
0.7899943746
0.7899942964
0.7899943408
0.7899945247
0.789994741
0.7899948477
0.7899948913
0.78999494
0.7899950544
0.7899947084
0.7899945957
0.7899944874
0.7899944189
0.7899949866
0.7899946177
0.7899945821
0.7899947133
0.78999483
0.7899948356
0.7899946906
0.7899953564
0.789994467
0.7899939639
0.789993824
0.7899937554
0.789993764
0.7899938125
0.7899939628
0.7899940834
0.789994169
0.789994216
0.7899942709
0.7899943516
0.7899944436
0.7899944645
0.7899944554
0.7899946734
0.7899947238
0.7899949449
0.7899950229
0.7899950314
0.7899950429
0.7899951303
0.789994514
0.7899944756
0.789994436
0.7899943699
0.7899944724
0.7899944559
0.789994453
0.7899945595
0.7899945364
0.7899943655
0.7899942038
0.7899944689
0.7899938073
0.7899936294
0.7899939382
0.7899937186
0.7899935925
0.7899938735
0.7899940908
0.7899941962
0.789994258
0.7899942541
0.7899942398
0.7899942933
0.7899943948
0.7899944354
0.7899944865
0.7899945909
0.7899948129
0.789995038
0.7899951077
0.789995097
0.7899950971
0.7899951878
0.7899944693
0.789994354
0.7899943575
0.7899943748
0.7899943231
0.7899943636
0.7899943376
0.7899943087
0.7899943582
0.7899942464
0.7899941128
0.7899939042
0.7899938641
0.7899937242
0.7899940376
0.789994447
0.7899941537
0.7899938882
0.7899938663
0.7899941869
0.7899943428
0.7899944232
0.7899943804
0.7899942695
0.7899942929
0.7899943545
0.7899943472
0.7899944081
0.7899945334
0.7899946799
0.7899948463
0.7899949404
0.7899951119
0.7899951002
0.789995209
0.7899942797
0.7899942586
0.7899942568
0.7899941986
0.7899940521
0.789993923
0.7899939456
0.7899940074
0.7899940631
0.7899939365
0.7899937977
0.7899937591
0.7899938105
0.7899940617
0.7899943845
0.7899947937
0.7899944754
0.7899941582
0.7899939248
0.7899941936
0.7899944587
0.7899945768
0.7899944437
0.7899940032
0.7899942809
0.7899943898
0.7899943416
0.7899943803
0.7899944669
0.7899945849
0.7899946655
0.7899947613
0.7899948772
0.7899950953
0.7899952659
0.7899942009
0.7899941566
0.789994047
0.7899938322
0.7899936775
0.7899936111
0.7899935901
0.7899936963
0.7899937806
0.789993797
0.7899937954
0.7899937996
0.7899938332
0.7899938885
0.7899940615
0.7899943417
0.789994016
0.7899937574
0.7899938192
0.7899942176
0.7899945392
0.789994687
0.7899946557
0.7899946372
0.7899946125
0.7899946029
0.7899945584
0.7899945343
0.7899945598
0.7899946608
0.7899947064
0.789994748
0.789994812
0.7899949528
0.7899951322
0.78999409
0.7899939443
0.7899937112
0.789993501
0.7899934138
0.7899934008
0.7899934498
0.7899935189
0.7899935959
0.7899936675
0.7899937417
0.7899938452
0.7899939948
0.7899941278
0.7899944068
0.7899940584
0.7899939083
0.7899938487
0.7899937841
0.7899941256
0.7899940651
0.7899944546
0.7899946419
0.7899946759
0.7899947664
0.7899948174
0.7899947908
0.7899947269
0.7899946795
0.7899946769
0.7899947335
0.7899948128
0.7899948622
0.789994914
0.7899949272
0.7899936034
0.7899933904
0.7899932613
0.7899932427
0.7899932774
0.7899933293
0.7899934095
0.7899935391
0.7899937273
0.7899939585
0.7899942475
0.7899945157
0.789994485
0.7899942735
0.7899941092
0.7899940819
0.789994175
0.7899940163
0.7899940416
0.7899943278
0.7899946545
0.7899947148
0.7899948429
0.7899949511
0.7899950022
0.7899949609
0.78999485
0.789994734
0.7899946774
0.7899946905
0.7899947667
0.7899948551
0.7899948028
0.7899944901
0.7899932302
0.7899930611
0.7899930177
0.7899930491
0.7899931031
0.7899931477
0.7899932454
0.7899934067
0.7899936057
0.7899938103
0.7899940229
0.7899942214
0.7899949652
0.7899949871
0.7899949297
0.7899947857
0.7899946361
0.7899945346
0.7899945145
0.7899945978
0.7899947528
0.7899948144
0.7899945326
0.7899931173
0.7899932738
0.7899933115
0.7899931706
0.7899931404
0.789993299
0.789994974
0.7899948159
0.7899947275
0.7899946085
0.7899944793
0.7899945415
0.7899941814
0.7899943579
0.7899939245
0.7899942818
0.7899944502
0.7899944157
0.7899943591
0.7899943161
0.7899943079
0.789994297
0.7899943072
0.7899943368
0.7899943631
0.789994357
0.7899942975
0.789994182
0.7899940254
0.7899938545
0.7899936561
0.7899933967
0.7899930877
0.7899928253
0.7899927055
0.7899927106
0.789992758
0.7899927965
0.7899928207
0.7899928308
0.7899950801
0.7899949889
0.7899949448
0.7899948341
0.7899947016
0.7899946752
0.789994389
0.7899943867
0.7899945602
0.7899947866
0.789994736
0.7899946248
0.7899945135
0.78999441
0.7899943197
0.7899942058
0.7899941425
0.7899941363
0.7899941623
0.7899941798
0.7899941632
0.789994115
0.7899940602
0.7899940138
0.7899939521
0.7899938197
0.7899935675
0.7899932366
0.7899929423
0.7899927858
0.7899927522
0.7899927622
0.7899927754
0.7899927694
0.7899951333
0.7899950794
0.7899950097
0.7899948676
0.7899947863
0.7899949803
0.7899944413
0.7899942305
0.7899952323
0.7899945683
0.7899946616
0.7899946699
0.789994513
0.7899945097
0.7899944764
0.7899943187
0.7899941901
0.7899941207
0.7899941106
0.7899941121
0.7899940955
0.7899940667
0.7899940558
0.7899940774
0.7899941065
0.7899940891
0.7899939589
0.7899936864
0.7899933452
0.7899930534
0.7899928766
0.7899927894
0.7899927469
0.7899927078
0.7899952307
0.7899952057
0.789995181
0.7899950834
0.7899950953
0.7899953884
0.7899946729
0.7899945761
0.7899956913
0.7899950298
0.7899949559
0.7899948226
0.7899945068
0.7899944963
0.7899945814
0.7899945185
0.7899943517
0.7899942121
0.7899941623
0.7899941541
0.7899941437
0.789994127
0.7899941239
0.7899941497
0.7899941973
0.7899942294
0.7899941911
0.7899940406
0.7899937817
0.7899934875
0.7899932351
0.7899930375
0.7899928919
0.78999282
0.7899953334
0.7899953447
0.7899953831
0.7899953737
0.7899954185
0.7899955257
0.7899949054
0.7899948553
0.7899959514
0.789995331
0.7899952518
0.7899949784
0.7899949282
0.7899946226
0.789994583
0.7899946431
0.7899944929
0.789994321
0.7899942558
0.7899942596
0.7899942708
0.7899942638
0.7899942493
0.7899942491
0.789994279
0.7899943139
0.7899943049
0.7899942259
0.7899940716
0.7899938657
0.7899936586
0.7899934647
0.7899932969
0.7899932155
0.789995428
0.789995439
0.7899954861
0.7899955117
0.7899955269
0.7899955454
0.7899949918
0.7899948977
0.7899952536
0.789995622
0.7899954434
0.7899950944
0.7899955994
0.7899951639
0.7899946653
0.7899946996
0.7899945629
0.7899944104
0.7899943485
0.789994377
0.7899944201
0.7899944282
0.7899944037
0.7899943731
0.7899943787
0.7899943944
0.7899943658
0.7899942854
0.7899941638
0.7899940189
0.7899938955
0.7899938088
0.7899937541
0.7899936949
0.7899955175
0.7899955145
0.7899955622
0.7899956198
0.7899955615
0.7899953982
0.789995107
0.7899949423
0.7899953951
0.789996073
0.7899958507
0.7899954648
0.7899959322
0.7899957437
0.7899950897
0.7899948787
0.7899946612
0.7899944861
0.7899944341
0.7899944989
0.7899945794
0.7899945992
0.7899945619
0.789994512
0.7899945027
0.7899944929
0.7899944173
0.7899942923
0.7899941511
0.7899940147
0.7899939264
0.7899939232
0.7899940129
0.789994043
0.7899956018
0.7899955672
0.7899955862
0.7899956841
0.7899956923
0.7899954933
0.7899952121
0.7899952147
0.7899958525
0.7899964013
0.7899962621
0.789995836
0.7899959154
0.7899955363
0.7899950731
0.7899948534
0.7899946587
0.7899945258
0.7899945196
0.789994647
0.7899947641
0.7899947843
0.789994731
0.7899946691
0.7899946516
0.7899946092
0.7899944764
0.789994307
0.7899941555
0.7899940323
0.7899939383
0.7899939261
0.7899940713
0.7899942172
0.7899956877
0.7899956173
0.7899955671
0.7899956614
0.7899957249
0.7899955734
0.7899953911
0.7899955546
0.7899961936
0.7899965648
0.7899965179
0.7899960273
0.7899955293
0.7899951548
0.7899949557
0.7899947966
0.7899946419
0.7899945509
0.7899946266
0.7899948446
0.7899949819
0.7899949885
0.7899949182
0.7899948498
0.7899948194
0.7899947326
0.7899945541
0.7899943602
0.7899941967
0.7899940849
0.7899940107
0.7899939571
0.7899940712
0.7899942858
0.7899957781
0.7899956761
0.7899955203
0.7899955656
0.7899956764
0.7899956071
0.7899955594
0.7899958157
0.7899961885
0.789996425
0.7899963019
0.7899957165
0.7899952365
0.7899949431
0.7899948051
0.7899947123
0.7899945544
0.7899945127
0.7899947386
0.7899950776
0.7899952089
0.7899952023
0.7899951204
0.7899950473
0.7899949912
0.7899948533
0.7899946661
0.7899944896
0.7899943495
0.7899942403
0.7899941355
0.7899940516
0.7899940942
0.7899943243
0.7899958848
0.78999574
0.7899954716
0.7899954165
0.7899955579
0.7899955805
0.7899956243
0.7899958874
0.7899958083
0.7899959727
0.7899957001
0.7899951212
0.7899948321
0.7899947101
0.7899946655
0.7899945998
0.7899943987
0.7899944388
0.7899948096
0.7899952476
0.7899953946
0.7899954037
0.7899953255
0.7899952445
0.7899951512
0.7899949712
0.7899948304
0.789994739
0.7899946403
0.7899945123
0.7899943529
0.7899941963
0.7899941549
0.7899943644
0.7899959888
0.7899958002
0.7899954612
0.7899952315
0.7899953452
0.7899954244
0.7899954434
0.7899956859
0.7899948685
0.7899952143
0.7899949392
0.7899947187
0.7899946001
0.7899945504
0.7899945431
0.7899944275
0.7899943681
0.7899944265
0.7899947927
0.7899952928
0.7899955181
0.7899955825
0.7899955288
0.7899954327
0.7899952949
0.7899950973
0.789995067
0.7899950912
0.7899950204
0.7899948433
0.7899946033
0.7899943675
0.7899942476
0.7899944166
0.7899960558
0.7899958249
0.7899954651
0.7899950409
0.7899950191
0.7899950823
0.7899950736
0.7899952595
0.7899930229
0.7899944939
0.7899944621
0.7899945103
0.7899944655
0.7899945015
0.7899944283
0.7899945574
0.7899945881
0.7899944899
0.7899947323
0.7899952502
0.7899956031
0.7899957552
0.7899957375
0.7899956119
0.7899954258
0.7899952443
0.7899953365
0.7899954483
0.7899953779
0.7899951384
0.7899948172
0.7899945092
0.7899943488
0.7899944818
0.7899960825
0.7899958061
0.7899954285
0.7899949422
0.789994692
0.7899947404
0.78999429
0.7899946775
0.7899920917
0.7899935552
0.7899945794
0.7899946833
0.7899946083
0.7899945772
0.7899947334
0.7899949906
0.7899949773
0.7899946945
0.7899947304
0.7899951712
0.7899956431
0.7899959097
0.7899959354
0.7899957778
0.7899955449
0.7899953748
0.7899955237
0.7899956603
0.7899955634
0.7899952706
0.7899949052
0.7899945688
0.7899944255
0.7899945493
0.7899960524
0.7899957386
0.7899953557
0.7899948349
0.7899945828
0.789994548
0.7899947
0.7899948408
0.7899948784
0.7899969659
0.7899962258
0.7899952971
0.7899946789
0.7899946687
0.7899951281
0.7899954154
0.7899952632
0.789994906
0.7899948296
0.7899951289
0.7899956034
0.7899959733
0.7899960794
0.7899959336
0.7899956344
0.7899953898
0.7899954994
0.7899956166
0.7899954894
0.7899951764
0.7899948326
0.789994537
0.7899944496
0.7899945844
0.7899959697
0.7899956356
0.7899952885
0.7899947786
0.7899945314
0.7899943604
0.7899943953
0.7899947364
0.7899945914
0.7899974073
0.7899919367
0.7899957458
0.7899952159
0.7899948714
0.7899954206
0.7899955954
0.7899952752
0.7899948928
0.7899948954
0.7899951911
0.7899955854
0.7899959044
0.7899960034
0.7899958553
0.7899956006
0.7899952169
0.789995161
0.7899953074
0.7899951965
0.7899949361
0.7899946915
0.7899944805
0.7899944242
0.7899945558
0.7899958542
0.7899954815
0.7899952508
0.7899946108
0.7899946303
0.789994504
0.7899946434
0.7899947405
0.7899950428
0.7899981068
0.7899953629
0.7899948619
0.7899948411
0.7899949353
0.7899952006
0.7899956798
0.7899954859
0.7899951508
0.7899951781
0.7899953445
0.7899954481
0.789995554
0.7899956288
0.7899955714
0.7899954284
0.7899951286
0.7899949515
0.7899949872
0.789994917
0.7899947832
0.7899946331
0.7899944613
0.789994446
0.7899944358
0.7899956385
0.7899953213
0.7899951347
0.7899943727
0.7899946194
0.7899945497
0.7899948599
0.7899948343
0.7899952726
0.7899957418
0.7899954693
0.7899953651
0.7899950142
0.7899950272
0.7899953351
0.7899958564
0.7899959372
0.7899956133
0.7899953851
0.789995203
0.7899949697
0.7899949343
0.7899950958
0.7899952006
0.7899951677
0.7899949982
0.7899947321
0.7899945362
0.7899944019
0.7899943188
0.7899943587
0.7899944116
0.7899944358
0.7899945181
0.7899953931
0.7899949544
0.7899948507
0.7899938268
0.7899953169
0.7899945742
0.7899950981
0.7899949897
0.7899954098
0.789995418
0.7899956165
0.7899949836
0.7899948934
0.7899946175
0.7899951696
0.7899955392
0.7899955492
0.7899952408
0.7899949297
0.7899946683
0.7899944425
0.7899944653
0.7899946758
0.7899948138
0.7899948778
0.7899948321
0.7899946372
0.7899944396
0.7899943166
0.7899943166
0.7899943382
0.7899943586
0.7899944634
0.7899946603
0.7899950356
0.7899947508
0.789994478
0.7899933405
0.7899948886
0.7899945262
0.7899948098
0.7899949563
0.7899954604
0.7899955229
0.7899955198
0.7899952597
0.7899947209
0.7899942665
0.7899944064
0.7899943154
0.7899942483
0.7899942452
0.7899942604
0.7899941927
0.7899940843
0.7899941632
0.7899943496
0.7899944944
0.7899945996
0.7899946315
0.7899945284
0.7899943416
0.7899941916
0.7899941749
0.7899942398
0.789994363
0.7899945531
0.7899947924
0.7899946203
0.7899945244
0.7899944689
0.7899941319
0.7899952641
0.7899942836
0.7899947074
0.7899948497
0.7899953411
0.7899953834
0.7899957959
0.7899952228
0.7899948956
0.7899941022
0.789994338
0.7899941556
0.7899940535
0.7899940293
0.7899940669
0.7899940834
0.7899940994
0.7899941371
0.7899941936
0.7899942533
0.7899943252
0.7899943723
0.7899942787
0.7899941329
0.7899941367
0.7899942481
0.7899943734
0.7899945037
0.7899946731
0.7899948911
0.7899942767
0.7899943429
0.7899944886
0.7899944056
0.7899946217
0.7899945938
0.7899946661
0.7899947266
0.7899950564
0.7899950211
0.7899961757
0.7899944748
0.7899941088
0.7899940362
0.789994055
0.7899939348
0.7899938738
0.7899939077
0.7899939686
0.7899940236
0.7899939973
0.789993918
0.7899939899
0.7899940966
0.7899941851
0.7899942
0.7899941337
0.7899942499
0.7899944529
0.7899946236
0.7899947147
0.7899947497
0.789994826
0.7899949776
0.7899940363
0.7899941293
0.7899943121
0.7899943163
0.7899945023
0.7899944937
0.7899944848
0.789994579
0.7899947195
0.789994694
0.7899944037
0.7899940105
0.7899938835
0.7899937427
0.7899936448
0.7899935739
0.7899934326
0.7899935323
0.7899936452
0.789993705
0.7899936923
0.789993684
0.7899937349
0.7899938138
0.7899939928
0.7899942034
0.7899943314
0.7899947551
0.7899947446
0.7899948913
0.7899949822
0.7899949724
0.7899949839
0.7899950596
0.7899938859
0.7899939918
0.789994196
0.7899942263
0.7899943537
0.7899943821
0.7899943037
0.7899942544
0.7899943097
0.7899941688
0.7899940825
0.7899938972
0.7899939001
0.7899937588
0.7899937775
0.7899935892
0.7899934226
0.7899936025
0.789993717
0.7899937439
0.7899937664
0.7899938007
0.7899937615
0.7899936825
0.7899937189
0.7899940653
0.7899944634
0.7899948171
0.7899951062
0.7899951863
0.7899951326
0.7899950843
0.7899950854
0.7899951277
0.789993899
0.7899937984
0.7899939023
0.7899940564
0.789994045
0.7899940586
0.7899941294
0.7899941188
0.7899941324
0.7899940097
0.7899938356
0.7899937086
0.7899937418
0.7899938152
0.789994038
0.7899941261
0.7899939294
0.7899936743
0.789993734
0.7899939165
0.7899940316
0.7899941097
0.7899940918
0.7899939765
0.7899938009
0.7899937043
0.7899939003
0.7899943793
0.7899947505
0.7899949553
0.7899950154
0.7899949334
0.7899949288
0.789995069
0.7899951602
0.7899937734
0.7899937686
0.7899937653
0.7899937836
0.7899937085
0.7899936696
0.7899936551
0.7899938037
0.7899938456
0.7899938006
0.789993749
0.7899938419
0.7899938117
0.7899940153
0.7899942596
0.7899943458
0.7899941673
0.7899939299
0.7899939646
0.7899942593
0.7899944006
0.7899944985
0.7899944372
0.7899941372
0.7899939629
0.7899938146
0.7899938896
0.7899940646
0.7899943029
0.7899945018
0.7899944903
0.7899944621
0.7899946188
0.7899949162
0.7899951063
0.7899937585
0.789993672
0.7899935734
0.7899934613
0.7899934367
0.7899934521
0.7899934877
0.7899935494
0.7899936187
0.7899936885
0.7899937774
0.7899938723
0.7899939881
0.789994161
0.7899943622
0.7899944506
0.7899942735
0.7899941374
0.7899941903
0.7899943932
0.7899944363
0.7899945494
0.7899943975
0.7899944231
0.7899942636
0.7899940803
0.7899939374
0.7899939342
0.789994064
0.7899942301
0.7899944835
0.789994535
0.7899946356
0.7899948046
0.789995003
0.7899936783
0.7899935104
0.789993399
0.7899932948
0.7899932973
0.7899933526
0.7899934004
0.7899934408
0.7899935191
0.7899936483
0.7899938211
0.7899940217
0.7899942164
0.7899943897
0.7899944565
0.7899944336
0.7899942705
0.7899942381
0.7899941364
0.789994461
0.7899937908
0.7899940336
0.7899941344
0.7899943626
0.7899944741
0.7899944929
0.7899944127
0.7899942696
0.7899941183
0.7899941454
0.7899943673
0.7899945417
0.7899946268
0.7899946055
0.7899947496
0.7899932842
0.7899931832
0.7899931323
0.7899931714
0.7899932278
0.7899932633
0.7899933159
0.7899934223
0.7899935976
0.7899938304
0.7899941163
0.7899943799
0.7899945481
0.7899945977
0.7899945173
0.7899944718
0.7899943459
0.7899944299
0.7899940936
0.7899941672
0.7899942543
0.789994474
0.7899947378
0.7899949216
0.7899949548
0.7899948314
0.7899945976
0.7899943567
0.7899942077
0.78999422
0.7899943822
0.789994576
0.7899945683
0.7899943134
0.7899930232
0.7899929504
0.7899929267
0.789992962
0.7899930028
0.7899930248
0.7899930935
0.7899932469
0.7899934592
0.7899937086
0.7899939762
0.789994225
0.7899949331
0.7899948302
0.7899946273
0.7899943821
0.7899941798
0.7899940446
0.7899939805
0.7899940455
0.7899942917
0.7899944075
0.7899942158
0.7899929501
0.7899930811
0.7899931357
0.7899930316
0.7899929718
0.7899930964
0.7899948246
0.7899946741
0.7899946916
0.7899946976
0.7899945988
0.7899945866
0.7899945297
0.7899946065
0.7899945557
0.7899946287
0.7899946032
0.7899944781
0.7899943789
0.7899942995
0.7899942555
0.7899942272
0.7899942198
0.7899942309
0.7899942402
0.7899942146
0.7899941234
0.7899939572
0.7899937528
0.7899935391
0.789993308
0.7899930613
0.7899928535
0.78999276
0.7899927895
0.7899928743
0.789992954
0.7899930062
0.7899930379
0.7899930591
0.7899948932
0.7899947782
0.7899947497
0.7899947328
0.7899946186
0.7899946019
0.7899945033
0.7899944491
0.7899948424
0.7899946306
0.7899946607
0.7899944726
0.78999434
0.7899941995
0.7899940972
0.7899940187
0.7899939884
0.7899940036
0.7899940309
0.7899940245
0.7899939662
0.7899938672
0.789993758
0.7899936663
0.7899935684
0.7899934117
0.7899931892
0.7899929732
0.7899928547
0.7899928508
0.789992902
0.7899929466
0.7899929744
0.7899929826
0.7899949608
0.7899949038
0.789994893
0.7899948091
0.7899946674
0.7899948811
0.7899944465
0.7899943099
0.789995193
0.789994703
0.7899947511
0.7899945581
0.7899944239
0.7899942709
0.789994176
0.7899940755
0.789994012
0.7899940036
0.7899940163
0.789993979
0.7899938847
0.789993796
0.7899937625
0.7899937728
0.7899937729
0.7899937078
0.7899935356
0.7899932788
0.7899930408
0.7899929089
0.789992878
0.7899928798
0.7899928832
0.7899928571
0.7899950751
0.7899950909
0.7899951326
0.7899950549
0.7899950084
0.7899953698
0.7899945842
0.7899944014
0.7899955429
0.7899950186
0.7899949133
0.7899947843
0.7899946598
0.7899944977
0.7899944102
0.7899942951
0.7899941746
0.7899941297
0.7899941448
0.7899941135
0.7899940029
0.789993902
0.7899938752
0.7899938977
0.7899939239
0.7899939118
0.7899938146
0.7899936081
0.7899933433
0.7899931183
0.7899929793
0.7899928956
0.78999284
0.789992787
0.7899951742
0.7899952269
0.78999531
0.7899953202
0.7899954006
0.7899955931
0.7899948459
0.7899948099
0.7899958265
0.789995577
0.7899953486
0.7899951285
0.7899952007
0.789994868
0.7899946708
0.7899945324
0.7899943547
0.7899942767
0.7899943119
0.7899943385
0.7899942775
0.7899941715
0.7899940944
0.7899940618
0.7899940572
0.7899940499
0.7899939946
0.7899938553
0.7899936397
0.7899934081
0.7899932205
0.7899930775
0.7899929861
0.7899929737
0.7899952651
0.7899953461
0.7899954835
0.7899955859
0.7899956347
0.7899956452
0.7899950219
0.7899950101
0.7899958377
0.7899958245
0.7899957203
0.7899955975
0.7899959863
0.7899955613
0.7899949457
0.7899947325
0.7899944913
0.7899943865
0.7899944377
0.7899945255
0.7899945264
0.7899944448
0.7899943353
0.789994241
0.7899941861
0.7899941529
0.789994095
0.7899939856
0.7899938226
0.7899936332
0.7899934711
0.7899933558
0.7899933224
0.7899933797
0.7899953378
0.7899954257
0.789995587
0.7899957315
0.7899956868
0.7899955555
0.7899952001
0.7899952449
0.7899957422
0.7899962822
0.7899961578
0.7899961212
0.7899963241
0.7899960253
0.7899951757
0.789994849
0.7899945662
0.7899944445
0.7899945081
0.7899946559
0.789994718
0.7899946625
0.7899945433
0.7899944065
0.7899943104
0.7899942445
0.7899941531
0.7899940307
0.7899938908
0.7899937431