/*--------------------------------*- C++ -*----------------------------------*\
  =========                 |
  \\      /  F ield         | OpenFOAM: The Open Source CFD Toolbox
   \\    /   O peration     | Website:  https://openfoam.org
    \\  /    A nd           | Version:  8
     \\/     M anipulation  |
\*---------------------------------------------------------------------------*/
FoamFile
{
    version     2.0;
    format      ascii;
    class       volScalarField;
    location    "0.6";
    object      p;
}
// * * * * * * * * * * * * * * * * * * * * * * * * * * * * * * * * * * * * * //

dimensions      [1 -1 -2 0 0 0 0];

internalField   nonuniform List<scalar> 
67193
(
100003.9517
100003.9668
100003.9968
100004.0668
100004.1997
100004.2833
100004.3031
100004.3497
100004.6364
100004.4401
100004.3248
100004.2189
100004.204
100004.1265
100004.0558
100004.0024
100003.9629
100003.9352
100003.9138
100003.8965
100003.8835
100003.8757
100003.8728
100003.8736
100003.8751
100003.8757
100003.874
100003.8706
100003.8666
100003.8637
100003.8618
100003.862
100003.8615
100003.8643
100003.883
100003.8748
100003.865
100003.8618
100003.9194
100004.0257
100004.0562
100004.0359
100004.0974
100003.9654
100003.9675
100003.976
100003.9765
100003.941
100003.9246
100003.912
100003.8946
100003.8778
100003.8622
100003.8484
100003.8379
100003.832
100003.8306
100003.8331
100003.8385
100003.8446
100003.8489
100003.8509
100003.8535
100003.8558
100003.857
100003.8595
100003.8596
100003.8639
100003.8601
100003.8472
100003.8311
100003.8431
100003.9736
100004.216
100004.0561
100004.0515
100004.6393
100004.0765
100003.9408
100003.9274
100003.8873
100003.8342
100003.836
100003.8555
100003.8586
100003.8526
100003.8419
100003.8296
100003.8192
100003.8125
100003.8099
100003.811
100003.8154
100003.8224
100003.8303
100003.8368
100003.8411
100003.8451
100003.8487
100003.8547
100003.8565
100003.8637
100003.836
100003.816
100003.7994
100003.8361
100003.9812
100004.1887
100003.9644
100003.9688
100004.3653
100004.1228
100003.9705
100003.8899
100003.8291
100003.7759
100003.7314
100003.7834
100003.8123
100003.8224
100003.8193
100003.809
100003.7987
100003.7914
100003.7877
100003.7879
100003.7914
100003.7975
100003.8048
100003.8122
100003.8188
100003.8256
100003.8319
100003.8416
100003.8464
100003.8591
100003.8337
100003.8228
100003.8136
100003.8272
100003.9161
100004.0295
100003.9383
100003.8957
100004.0668
100004.0644
100004.0036
100003.8983
100004.0198
100003.9898
100003.7308
100003.7304
100003.7762
100003.8048
100003.8095
100003.7994
100003.7879
100003.7794
100003.7743
100003.7728
100003.7746
100003.7786
100003.7829
100003.787
100003.7915
100003.7986
100003.8072
100003.8219
100003.8309
100003.8519
100003.8415
100003.8366
100003.8337
100003.8381
100003.866
100003.9463
100003.9469
100003.9518
100004.0168
100004.0415
100004.0234
100003.9615
100004.2776
100004.219
100003.8152
100003.7112
100003.7517
100003.7956
100003.8047
100003.7923
100003.7795
100003.7708
100003.7653
100003.7626
100003.763
100003.7646
100003.765
100003.7644
100003.7649
100003.7698
100003.7785
100003.7973
100003.8109
100003.8466
100003.8535
100003.8543
100003.8557
100003.87
100003.8998
100003.9304
100003.932
100003.9508
100004.0272
100004.064
100004.0745
100004.0635
100004.2383
100004.1209
100003.8119
100003.7269
100003.762
100003.7952
100003.7971
100003.7843
100003.773
100003.7656
100003.7605
100003.7572
100003.7566
100003.7559
100003.7517
100003.7459
100003.7427
100003.7456
100003.7533
100003.7751
100003.791
100003.8453
100003.8665
100003.8731
100003.8723
100003.8796
100003.8993
100003.9209
100003.9361
100003.9776
100004.0566
100004.1307
100004.1235
100004.0796
100004.0477
100003.9015
100003.78
100003.7694
100003.795
100003.8063
100003.7947
100003.7805
100003.7708
100003.7646
100003.7594
100003.7554
100003.755
100003.7521
100003.7432
100003.7345
100003.7324
100003.7357
100003.74
100003.7611
100003.7796
100003.8484
100003.8767
100003.8921
100003.8924
100003.895
100003.9086
100003.9293
100003.9571
100004.0167
100004.1004
100004.1634
100004.1392
100004.0545
100003.961
100003.8846
100003.8471
100003.8395
100003.8342
100003.8149
100003.7923
100003.7787
100003.7716
100003.7665
100003.7611
100003.7569
100003.758
100003.7531
100003.7408
100003.7354
100003.7392
100003.7438
100003.7439
100003.7593
100003.7775
100003.8593
100003.8802
100003.9064
100003.9127
100003.915
100003.9309
100003.9576
100003.9934
100004.0626
100004.152
100004.1641
100004.1264
100004.0167
100003.9323
100003.8925
100003.8734
100003.8609
100003.8348
100003.8059
100003.7879
100003.7803
100003.7738
100003.7693
100003.7647
100003.7616
100003.7657
100003.7586
100003.7463
100003.7517
100003.761
100003.7657
100003.7609
100003.7697
100003.7845
100003.8773
100003.8843
100003.9155
100003.936
100003.9396
100003.9544
100003.9879
100004.0344
100004.0981
100004.2107
100004.1525
100004.1012
100004.0077
100003.9564
100003.9427
100003.9143
100003.8729
100003.8218
100003.7943
100003.7861
100003.7871
100003.7789
100003.7728
100003.7699
100003.7695
100003.7783
100003.7706
100003.7641
100003.7828
100003.796
100003.7979
100003.7866
100003.788
100003.7978
100003.8994
100003.89
100003.9164
100003.9476
100003.969
100003.9857
100004.0403
100004.1451
100004.1632
100004.6212
100004.2384
100004.2157
100004.0968
100004.0373
100003.9934
100003.9176
100003.8532
100003.82
100003.7912
100003.7839
100003.7968
100003.79
100003.7799
100003.7769
100003.7799
100003.7945
100003.7901
100003.7943
100003.8246
100003.84
100003.8357
100003.8138
100003.8064
100003.8116
100003.9193
100003.8966
100003.915
100003.945
100003.9799
100004.0007
100004.0342
100004.1091
100004.1402
100004.7711
100004.3351
100004.4812
100004.2091
100004.1073
100004.0182
100003.894
100003.8697
100003.8585
100003.8156
100003.7884
100003.8004
100003.8028
100003.7913
100003.7859
100003.7903
100003.8101
100003.8149
100003.8305
100003.8629
100003.8763
100003.8635
100003.8308
100003.816
100003.8195
100003.9288
100003.9036
100003.9159
100003.9419
100003.988
100004.0697
100004.1287
100004.6114
100004.2344
100007.1787
100004.4689
100004.6306
100004.2484
100004.2162
100004.0247
100003.9114
100003.9307
100003.9243
100003.8726
100003.8151
100003.8036
100003.8098
100003.8039
100003.7948
100003.7969
100003.8171
100003.8336
100003.8478
100003.8736
100003.8843
100003.8652
100003.8281
100003.8129
100003.8197
100003.9247
100003.9097
100003.9167
100003.9338
100003.9619
100003.9937
100004.02
100004.0157
100004.1783
100004.3151
100004.3153
100004.3297
100004.1229
100004.18
100004.03
100003.9561
100004.0024
100003.9977
100003.942
100003.8645
100003.8228
100003.8131
100003.8085
100003.8
100003.7992
100003.8141
100003.8372
100003.8457
100003.8579
100003.8661
100003.846
100003.8159
100003.8085
100003.8202
100003.9101
100003.9136
100003.9179
100003.93
100003.9363
100004.0197
100004.1589
100004.3747
100004.1234
100004.2153
100004.9768
100004.7375
100004.1162
100004.3356
100004.3289
100004.1156
100004.0928
100004.0691
100004.0027
100003.9217
100003.8634
100003.8296
100003.812
100003.7984
100003.7911
100003.8019
100003.8296
100003.8377
100003.8326
100003.843
100003.8266
100003.8062
100003.8036
100003.8147
100003.8917
100003.9236
100003.9227
100003.9259
100003.8881
100003.8882
100003.9849
100003.9889
100004.0396
100003.7951
100004.2054
100004.1232
100003.8552
100003.8123
100003.8988
100003.9239
100004.0925
100004.1322
100004.0727
100003.9886
100003.9144
100003.8545
100003.8121
100003.7877
100003.7799
100003.7932
100003.8268
100003.8331
100003.8169
100003.8217
100003.8119
100003.7982
100003.8032
100003.8253
100003.8699
100003.9406
100003.9273
100003.9222
100003.9002
100003.8829
100003.8916
100004.0007
100004.0644
100004.042
100003.8337
100004.2606
100003.9597
100004.1695
100004.0591
100004.0741
100004.1721
100004.2367
100004.186
100004.0861
100003.9816
100003.8896
100003.8225
100003.785
100003.7749
100003.7891
100003.8177
100003.8237
100003.8069
100003.7994
100003.7949
100003.802
100003.8234
100003.8326
100003.8647
100003.9219
100003.9217
100003.958
100004.0234
100004.3116
100003.8409
100003.8577
100003.9877
100003.9427
100004.0326
100004.0017
100003.8442
100003.8705
100003.9557
100004.0336
100004.1133
100004.1233
100004.0735
100003.9955
100003.9128
100003.8478
100003.8095
100003.7921
100003.7909
100003.8026
100003.8217
100003.8308
100003.8298
100003.8283
100003.8306
100003.83
100003.8356
100003.8368
100003.8598
100003.9095
100003.8849
100003.8849
100004.1768
100004.7201
100004.0991
100003.8216
100003.9557
100004.0964
100004.0496
100004.0651
100004.1319
100004.0113
100003.8803
100003.9834
100004.0008
100003.9425
100003.8967
100003.8697
100003.8468
100003.8293
100003.827
100003.828
100003.8299
100003.8346
100003.845
100003.8515
100003.8581
100003.8465
100003.8397
100003.8343
100003.8351
100003.8346
100003.8569
100003.8637
100003.8453
100003.8289
100003.8613
100004.2402
100003.7921
100003.8469
100003.9171
100003.9294
100003.8714
100004.1117
100004.365
100004.2318
100003.8965
100003.9513
100003.9304
100003.9307
100003.9159
100003.8972
100003.8868
100003.8868
100003.8954
100003.8911
100003.8812
100003.8762
100003.8829
100003.8762
100003.8733
100003.8541
100003.8399
100003.8328
100003.8351
100003.834
100003.8565
100003.8202
100003.8038
100003.805
100003.734
100003.7802
100003.7334
100003.8411
100003.8559
100003.8654
100003.7992
100003.9689
100003.9402
100003.8961
100003.8438
100003.9105
100003.9057
100003.9323
100003.9673
100003.9591
100003.9685
100003.9644
100003.948
100003.9219
100003.9005
100003.8862
100003.8931
100003.8733
100003.8668
100003.8708
100003.852
100003.8411
100003.842
100003.838
100003.8609
100003.7963
100003.7878
100003.8091
100003.779
100003.854
100003.7808
100003.8344
100003.8272
100003.8219
100003.78
100003.7721
100003.7898
100003.9566
100003.9293
100003.9854
100003.9649
100004.0185
100004.0198
100004.0107
100004.0019
100003.9753
100003.9352
100003.9034
100003.8813
100003.8663
100003.8794
100003.8665
100003.9005
100003.8628
100003.869
100003.8536
100003.8539
100003.8465
100003.8691
100003.7873
100003.7797
100003.8084
100003.7933
100003.8895
100003.7916
100003.8483
100003.8391
100003.8453
100003.822
100003.8503
100003.8871
100004.0223
100003.9452
100003.9893
100003.9779
100003.9909
100004.0251
100003.9876
100003.9808
100003.9442
100003.9383
100003.9172
100003.8899
100003.8685
100003.8624
100003.8554
100003.8589
100003.8582
100003.8567
100003.8562
100003.8641
100003.8555
100003.8768
100003.7565
100003.7739
100003.7748
100003.7848
100003.8022
100003.7771
100003.7685
100003.8131
100003.8106
100003.8218
100003.8186
100003.84
100003.8753
100003.8753
100003.9294
100003.9572
100003.9462
100003.9542
100003.9517
100003.9477
100003.9491
100003.9617
100003.9661
100003.954
100003.8996
100003.8763
100003.8666
100003.8466
100003.8596
100003.8581
100003.8637
100003.8569
100003.8678
100003.8573
100003.878
100003.758
100003.7798
100003.7762
100003.7795
100003.7941
100003.755
100003.7939
100003.7964
100003.8032
100003.8086
100003.8078
100003.8339
100003.8693
100003.902
100003.9261
100003.9992
100003.9691
100003.9618
100003.979
100003.9894
100004.0086
100004.0286
100004.0809
100004.2657
100003.9799
100003.909
100003.8832
100003.8506
100003.8315
100003.8382
100003.8491
100003.8588
100003.8593
100003.8568
100003.8733
100003.7527
100003.7694
100003.7744
100003.7789
100003.7809
100003.7566
100003.7711
100003.7882
100003.7911
100003.7929
100003.7952
100003.8094
100003.8322
100003.852
100003.89
100003.905
100003.92
100003.9143
100003.9509
100003.9356
100003.9481
100003.948
100003.952
100003.9098
100003.8849
100003.8692
100003.8561
100003.8423
100003.8372
100003.839
100003.8463
100003.8564
100003.8682
100003.8684
100003.8863
100003.7702
100003.7798
100003.7766
100003.7807
100003.7802
100003.7719
100003.7778
100003.7849
100003.7864
100003.7869
100003.7909
100003.8055
100003.8299
100003.8665
100003.8882
100003.9082
100003.9134
100003.9628
100003.9828
100004.0168
100004.0529
100003.9647
100003.94
100003.9368
100003.8976
100003.8688
100003.8506
100003.8365
100003.826
100003.8244
100003.8333
100003.8541
100003.8754
100003.8861
100003.9186
100003.7828
100003.7816
100003.7848
100003.7855
100003.7834
100003.7846
100003.7865
100003.7835
100003.7764
100003.7751
100003.795
100003.8288
100003.8513
100003.8636
100003.8636
100003.9291
100003.8792
100004.0156
100003.8677
100003.8812
100003.8665
100003.8813
100003.8825
100003.873
100003.8609
100003.8507
100003.8425
100003.8357
100003.8319
100003.8343
100003.846
100003.8693
100003.8864
100003.9272
100003.794
100003.7921
100003.795
100003.7966
100003.7973
100003.7976
100003.7966
100003.7931
100003.7875
100003.7854
100003.7959
100003.8172
100003.8683
100003.8552
100003.8471
100003.8418
100003.8373
100003.8334
100003.8344
100003.8439
100003.8657
100003.8875
100003.9428
100003.7954
100003.7982
100003.8006
100003.8032
100003.804
100003.8031
100003.7921
100003.7676
100003.7151
100003.644
100003.6502
100003.648
100003.8231
100003.6657
100003.4639
100003.502
100003.6448
100003.7874
100003.7925
100003.7891
100003.7921
100003.7931
100003.7868
100003.7769
100003.7643
100003.7501
100003.7374
100003.7288
100003.7253
100003.7266
100003.7321
100003.7378
100003.7402
100003.7383
100003.735
100003.7324
100003.731
100003.732
100003.7323
100003.7356
100003.7137
100003.6492
100003.5634
100003.507
100003.5366
100003.5608
100003.5937
100003.4327
100003.507
100003.3285
100003.3138
100003.541
100003.5082
100003.5657
100003.634
100003.6941
100003.7164
100003.7207
100003.7147
100003.7046
100003.6953
100003.6897
100003.6886
100003.6917
100003.6981
100003.7075
100003.7168
100003.7231
100003.7252
100003.726
100003.7266
100003.7295
100003.7304
100003.7357
100003.6858
100003.6279
100003.5977
100003.6026
100003.6375
100003.6298
100003.6195
100003.5424
100003.6749
100003.5487
100003.4178
100003.5122
100003.4351
100003.4442
100003.4812
100003.5986
100003.662
100003.6898
100003.6926
100003.6867
100003.6789
100003.6732
100003.6707
100003.6719
100003.6773
100003.6864
100003.6972
100003.7058
100003.7111
100003.7149
100003.7182
100003.7249
100003.7274
100003.7368
100003.6675
100003.6246
100003.6092
100003.6051
100003.6271
100003.6384
100003.6014
100003.4836
100003.5604
100003.537
100003.4691
100003.5191
100003.4969
100003.5052
100003.4106
100003.4779
100003.5732
100003.6449
100003.6646
100003.6651
100003.6588
100003.6529
100003.6497
100003.6497
100003.6537
100003.6617
100003.6711
100003.6785
100003.6833
100003.6889
100003.6954
100003.7089
100003.7161
100003.7346
100003.6834
100003.6594
100003.6403
100003.6284
100003.6449
100003.6468
100003.7052
100003.6531
100003.6436
100003.6907
100003.5765
100003.5625
100003.5889
100003.5894
100003.506
100003.4576
100003.5106
100003.6138
100003.6487
100003.6543
100003.6494
100003.6436
100003.6392
100003.6372
100003.6388
100003.6438
100003.6485
100003.6505
100003.6504
100003.653
100003.6584
100003.677
100003.6891
100003.7224
100003.6985
100003.6912
100003.6893
100003.6964
100003.7185
100003.7501
100003.7322
100003.7039
100003.7115
100003.6966
100003.6477
100003.647
100003.6636
100003.6429
100003.5523
100003.4839
100003.4882
100003.5972
100003.6384
100003.6453
100003.6413
100003.6364
100003.6322
100003.6291
100003.6285
100003.6296
100003.6276
100003.6237
100003.6211
100003.6221
100003.6241
100003.6394
100003.652
100003.6967
100003.7113
100003.7121
100003.7145
100003.7236
100003.733
100003.7224
100003.7108
100003.7199
100003.7425
100003.7449
100003.7303
100003.7295
100003.6757
100003.6224
100003.527
100003.4982
100003.5301
100003.6115
100003.6369
100003.6388
100003.6355
100003.6324
100003.6287
100003.6252
100003.623
100003.6192
100003.6097
100003.6032
100003.6023
100003.6054
100003.6045
100003.6151
100003.6202
100003.6724
100003.7212
100003.7299
100003.7296
100003.7345
100003.7399
100003.7406
100003.7408
100003.7498
100003.7741
100003.783
100003.7786
100003.7639
100003.733
100003.6706
100003.5877
100003.5602
100003.5901
100003.6255
100003.631
100003.6315
100003.632
100003.6312
100003.6283
100003.6246
100003.6213
100003.6123
100003.5961
100003.5906
100003.5902
100003.5934
100003.5942
100003.6031
100003.6031
100003.6608
100003.7269
100003.7468
100003.7476
100003.7496
100003.7558
100003.7617
100003.7656
100003.7784
100003.8117
100003.8064
100003.7869
100003.7454
100003.6863
100003.6273
100003.588
100003.5957
100003.6153
100003.6214
100003.6155
100003.6184
100003.6277
100003.6319
100003.6304
100003.6271
100003.6232
100003.6095
100003.5899
100003.5889
100003.5874
100003.5862
100003.5845
100003.5974
100003.5969
100003.6611
100003.729
100003.7593
100003.769
100003.7695
100003.7798
100003.7953
100003.8064
100003.8142
100003.8698
100003.8165
100003.7766
100003.7269
100003.6762
100003.6473
100003.6373
100003.6335
100003.6241
100003.6168
100003.6054
100003.606
100003.6226
100003.6321
100003.6336
100003.6318
100003.6283
100003.6122
100003.5928
100003.5961
100003.5965
100003.5957
100003.5883
100003.5975
100003.5985
100003.67
100003.7333
100003.7654
100003.788
100003.7892
100003.7975
100003.8212
100003.8545
100003.8373
100003.9771
100003.8235
100003.764
100003.7082
100003.6735
100003.6754
100003.6664
100003.6323
100003.6271
100003.6224
100003.6107
100003.6083
100003.6213
100003.6308
100003.6347
100003.6367
100003.6361
100003.6214
100003.6034
100003.6101
100003.6118
100003.6103
100003.6024
100003.6084
100003.6055
100003.6837
100003.7386
100003.7656
100003.7975
100003.8092
100003.811
100003.8352
100003.9292
100003.8404
100004.2529
100003.8357
100003.7418
100003.7127
100003.7073
100003.7056
100003.6459
100003.6118
100003.6275
100003.625
100003.6222
100003.6192
100003.6249
100003.6304
100003.6333
100003.6395
100003.6458
100003.6384
100003.6233
100003.6335
100003.6361
100003.6315
100003.6186
100003.6224
100003.6156
100003.698
100003.7435
100003.7641
100003.7969
100003.8193
100003.8254
100003.8449
100003.9522
100003.8313
100004.777
100003.8532
100003.849
100003.7794
100003.7495
100003.6753
100003.6097
100003.6203
100003.6331
100003.6325
100003.6324
100003.6318
100003.6322
100003.6346
100003.6342
100003.6403
100003.6556
100003.6614
100003.6469
100003.658
100003.6594
100003.6504
100003.6315
100003.6306
100003.6229
100003.7066
100003.7473
100003.7618
100003.7853
100003.8119
100003.851
100003.8504
100004.2238
100003.7149
100006.1892
100003.9245
100003.3656
100003.5563
100003.5764
100003.5844
100003.5807
100003.6259
100003.6576
100003.6529
100003.6451
100003.6411
100003.639
100003.6396
100003.6384
100003.6379
100003.6565
100003.6789
100003.6643
100003.6707
100003.67
100003.6573
100003.6352
100003.6327
100003.6269
100003.7072
100003.7484
100003.7581
100003.7709
100003.7722
100003.7668
100003.7954
100003.7111
100003.8947
100003.1728
100002.9791
100002.2977
100003.0078
100003.48
100003.5629
100003.5785
100003.649
100003.6846
100003.6757
100003.6584
100003.6456
100003.6399
100003.6382
100003.6382
100003.6356
100003.6485
100003.6756
100003.6719
100003.6691
100003.6675
100003.655
100003.6363
100003.6367
100003.6344
100003.7031
100003.7398
100003.7427
100003.7271
100003.6914
100003.6518
100003.7241
100003.6917
100003.441
100003.3651
100003.2727
100003.3596
100002.0769
100002.7353
100003.3982
100003.4709
100003.6378
100003.701
100003.6963
100003.6789
100003.6594
100003.6442
100003.6347
100003.6297
100003.6193
100003.624
100003.6602
100003.663
100003.6562
100003.6581
100003.6499
100003.637
100003.6399
100003.6348
100003.6878
100003.7274
100003.721
100003.6645
100003.6406
100003.5311
100003.5745
100003.6296
100003.6733
100003.5948
100003.2819
100003.4668
100003.487
100003.4888
100003.514
100003.5655
100003.6494
100003.7235
100003.7129
100003.6925
100003.6686
100003.6487
100003.6345
100003.6245
100003.6127
100003.606
100003.6441
100003.6596
100003.6439
100003.6432
100003.6396
100003.6373
100003.6402
100003.645
100003.7006
100003.7093
100003.683
100003.5931
100003.6911
100003.5377
100003.4388
100003.4609
100003.6053
100003.5046
100003.2038
100003.2004
100003.0835
100003.3303
100003.4967
100003.5844
100003.6748
100003.7546
100003.7497
100003.7207
100003.6844
100003.6523
100003.6287
100003.6142
100003.6013
100003.5944
100003.6262
100003.6472
100003.6392
100003.6375
100003.638
100003.6367
100003.6533
100003.6763
100003.7173
100003.6824
100003.6455
100003.611
100003.7632
100003.5568
100003.5144
100003.3699
100003.5506
100003.5906
100003.6043
100003.5194
100003.5945
100003.4357
100003.4711
100003.6438
100003.6592
100003.7208
100003.702
100003.6768
100003.6494
100003.6323
100003.6264
100003.6236
100003.6189
100003.6162
100003.6408
100003.6616
100003.6615
100003.6595
100003.6611
100003.667
100003.684
100003.6918
100003.7164
100003.6359
100003.583
100003.5918
100003.7269
100003.6841
100003.5287
100003.3907
100003.4591
100003.5284
100003.5355
100003.5652
100003.6092
100003.5875
100003.5434
100003.5751
100003.6211
100003.6557
100003.6458
100003.6406
100003.6337
100003.6249
100003.6215
100003.6276
100003.6358
100003.6474
100003.6721
100003.6901
100003.6872
100003.6778
100003.6817
100003.6818
100003.6884
100003.6906
100003.7105
100003.6345
100003.5912
100003.5593
100003.6716
100003.6425
100003.54
100003.4701
100003.5583
100003.5513
100003.5489
100003.6938
100003.663
100003.6231
100003.5981
100003.6282
100003.6412
100003.6877
100003.6662
100003.6534
100003.6459
100003.6488
100003.6669
100003.6858
100003.7004
100003.7135
100003.7324
100003.7347
100003.7144
100003.7061
100003.6964
100003.6878
100003.6899
100003.6893
100003.707
100003.626
100003.5962
100003.5209
100003.5171
100003.4644
100003.4446
100003.491
100003.5929
100003.5807
100003.577
100003.6765
100003.6103
100003.5451
100003.5043
100003.5738
100003.6251
100003.6973
100003.6944
100003.7102
100003.7221
100003.733
100003.7318
100003.7221
100003.717
100003.7122
100003.719
100003.722
100003.6759
100003.6569
100003.691
100003.6854
100003.6921
100003.6916
100003.7085
100003.6235
100003.6123
100003.5945
100003.5674
100003.5327
100003.5417
100003.6041
100003.6382
100003.6197
100003.5678
100003.5857
100003.5461
100003.5954
100003.6432
100003.7759
100003.7986
100003.9236
100003.8736
100003.852
100003.8089
100003.7672
100003.7371
100003.7171
100003.7047
100003.6942
100003.7041
100003.719
100003.6895
100003.7859
100003.7665
100003.7233
100003.706
100003.6999
100003.7147
100003.6239
100003.615
100003.6079
100003.6064
100003.5485
100003.5849
100003.6512
100003.7293
100003.6784
100003.6377
100003.6374
100003.5635
100003.5962
100003.671
100003.6887
100003.72
100003.7967
100003.7316
100003.7865
100003.7473
100003.737
100003.7378
100003.7235
100003.7284
100003.7031
100003.6978
100003.696
100003.6963
100003.6938
100003.7048
100003.7063
100003.7055
100003.7026
100003.7175
100003.6132
100003.6215
100003.6191
100003.6216
100003.6421
100003.5718
100003.6362
100003.6535
100003.6609
100003.6542
100003.6473
100003.6559
100003.6409
100003.6568
100003.6876
100003.7152
100003.7514
100003.7918
100003.7954
100003.7809
100003.7629
100003.7494
100003.7446
100003.7365
100003.719
100003.7111
100003.7077
100003.6985
100003.7016
100003.7234
100003.716
100003.7155
100003.7043
100003.7
100003.713
100003.6028
100003.6306
100003.6251
100003.6321
100003.6465
100003.5824
100003.6432
100003.6595
100003.6663
100003.6656
100003.652
100003.6661
100003.6708
100003.6631
100003.6868
100003.7046
100003.7473
100003.751
100003.7593
100003.7614
100003.7827
100003.7665
100003.7903
100003.7934
100003.7724
100003.7359
100003.7202
100003.7068
100003.6846
100003.6858
100003.6987
100003.7108
100003.7084
100003.7078
100003.7177
100003.615
100003.6285
100003.6373
100003.6408
100003.6501
100003.6149
100003.6426
100003.6563
100003.6563
100003.6514
100003.6496
100003.6559
100003.6674
100003.681
100003.7107
100003.7093
100003.7494
100003.7606
100003.7636
100003.7613
100003.7731
100003.7545
100003.8274
100003.73
100003.7254
100003.7153
100003.7114
100003.6979
100003.7002
100003.6962
100003.6977
100003.7092
100003.7197
100003.7184
100003.7386
100003.6248
100003.6431
100003.6441
100003.6479
100003.6515
100003.6388
100003.6448
100003.6536
100003.6509
100003.6465
100003.6433
100003.6492
100003.6539
100003.6638
100003.6668
100003.7212
100003.7472
100003.7522
100003.8008
100003.6878
100004.0023
100003.7536
100003.758
100003.7371
100003.7238
100003.7119
100003.7035
100003.693
100003.6847
100003.6806
100003.6853
100003.7015
100003.7284
100003.7238
100003.7523
100003.6522
100003.6537
100003.6537
100003.6568
100003.6504
100003.6528
100003.6528
100003.6435
100003.6298
100003.6221
100003.6207
100003.6268
100003.6479
100003.679
100003.7083
100003.7058
100003.7379
100003.6272
100003.7206
100003.6895
100003.6957
100003.7149
100003.7139
100003.7134
100003.7092
100003.7045
100003.6977
100003.6931
100003.6854
100003.6862
100003.6945
100003.7166
100003.7329
100003.776
100003.6615
100003.6619
100003.663
100003.6662
100003.6653
100003.6663
100003.665
100003.6574
100003.6439
100003.6338
100003.633
100003.6386
100003.7042
100003.7029
100003.7007
100003.6978
100003.6934
100003.6892
100003.6907
100003.6957
100003.7108
100003.7184
100003.7672
100003.6638
100003.6682
100003.6713
100003.6741
100003.6729
100003.667
100003.6251
100003.6193
100003.616
100003.6129
100003.6301
100003.6544
100003.7169
100003.7167
100003.7628
100003.7224
100003.6787
100003.6619
100003.6472
100003.6363
100003.6278
100003.6223
100003.6158
100003.6072
100003.5944
100003.5805
100003.5703
100003.5654
100003.5654
100003.5683
100003.5725
100003.5765
100003.5797
100003.582
100003.5835
100003.5846
100003.5857
100003.5881
100003.5892
100003.5922
100003.5903
100003.5826
100003.576
100003.5743
100003.5775
100003.586
100003.6413
100003.6547
100003.6078
100003.6436
100003.612
100003.6047
100003.5921
100003.5888
100003.5846
100003.5845
100003.5811
100003.5748
100003.5648
100003.5546
100003.5478
100003.5461
100003.5477
100003.5505
100003.5543
100003.5596
100003.5655
100003.5705
100003.5748
100003.5783
100003.5808
100003.5848
100003.5864
100003.591
100003.5845
100003.5826
100003.582
100003.5824
100003.5712
100003.637
100003.669
100003.658
100003.667
100003.61
100003.5989
100003.6043
100003.5929
100003.5818
100003.5684
100003.5675
100003.5644
100003.5608
100003.5538
100003.5459
100003.5398
100003.5367
100003.5368
100003.5388
100003.5424
100003.5477
100003.5538
100003.5596
100003.5644
100003.5688
100003.5725
100003.5789
100003.5815
100003.5889
100003.5732
100003.571
100003.5673
100003.5661
100003.5805
100003.6377
100003.6647
100003.6403
100003.6623
100003.6237
100003.5957
100003.5978
100003.5694
100003.5505
100003.5456
100003.5445
100003.5417
100003.5427
100003.5395
100003.5343
100003.5285
100003.5236
100003.5211
100003.5213
100003.5239
100003.5287
100003.5349
100003.5412
100003.5468
100003.5529
100003.5577
100003.5668
100003.5706
100003.5827
100003.5739
100003.5744
100003.5752
100003.5782
100003.5915
100003.6432
100003.6641
100003.649
100003.6254
100003.6465
100003.6258
100003.6145
100003.5898
100003.5455
100003.5215
100003.5283
100003.5286
100003.5342
100003.5329
100003.529
100003.5234
100003.5178
100003.5129
100003.5104
100003.5111
100003.5143
100003.5189
100003.5238
100003.5287
100003.5347
100003.5386
100003.5488
100003.5521
100003.5695
100003.5774
100003.5811
100003.586
100003.5921
100003.6083
100003.6486
100003.6714
100003.6551
100003.6999
100003.6657
100003.6605
100003.6396
100003.6297
100003.5714
100003.5216
100003.5138
100003.519
100003.5279
100003.5273
100003.5231
100003.5167
100003.5108
100003.5056
100003.5019
100003.5009
100003.5024
100003.5048
100003.5077
100003.5109
100003.5158
100003.5178
100003.5274
100003.5281
100003.5483
100003.5826
100003.5901
100003.5981
100003.6099
100003.6278
100003.6628
100003.6608
100003.6652
100003.6708
100003.6659
100003.6729
100003.6561
100003.6251
100003.5631
100003.5155
100003.5042
100003.5103
100003.524
100003.5229
100003.5183
100003.5123
100003.5062
100003.5014
100003.4974
100003.4952
100003.4947
100003.4943
100003.4942
100003.4944
100003.497
100003.4963
100003.5061
100003.5033
100003.5252
100003.5881
100003.6003
100003.6089
100003.6193
100003.6322
100003.6531
100003.661
100003.6688
100003.683
100003.6734
100003.6703
100003.6457
100003.6041
100003.5429
100003.513
100003.5121
100003.5169
100003.5255
100003.5199
100003.5146
100003.5089
100003.5038
100003.4994
100003.4959
100003.4932
100003.4908
100003.488
100003.4852
100003.4822
100003.4806
100003.4748
100003.4839
100003.4816
100003.5071
100003.5936
100003.6116
100003.6221
100003.6316
100003.6409
100003.6576
100003.664
100003.6724
100003.6809
100003.6739
100003.6593
100003.6274
100003.5994
100003.5597
100003.532
100003.526
100003.5271
100003.5279
100003.5168
100003.5111
100003.5074
100003.5038
100003.5002
100003.497
100003.494
100003.4899
100003.4852
100003.4811
100003.478
100003.4768
100003.467
100003.4676
100003.466
100003.495
100003.5989
100003.622
100003.6367
100003.6464
100003.6515
100003.6652
100003.6739
100003.6735
100003.6957
100003.6727
100003.6516
100003.6196
100003.5856
100003.5651
100003.5462
100003.5385
100003.5366
100003.5302
100003.5162
100003.5106
100003.5088
100003.5067
100003.5038
100003.5008
100003.4975
100003.4914
100003.4833
100003.4773
100003.4739
100003.4716
100003.4661
100003.4652
100003.4584
100003.4915
100003.6057
100003.6303
100003.6506
100003.6623
100003.6642
100003.6739
100003.69
100003.6641
100003.7161
100003.6704
100003.6604
100003.6298
100003.6
100003.5814
100003.5632
100003.5497
100003.5426
100003.5308
100003.5206
100003.5156
100003.5143
100003.5125
100003.5104
100003.5082
100003.5057
100003.5
100003.4907
100003.4857
100003.482
100003.477
100003.4671
100003.4678
100003.4608
100003.4957
100003.6135
100003.6357
100003.6587
100003.6741
100003.6719
100003.6713
100003.6998
100003.6251
100003.5857
100003.6506
100003.6879
100003.6395
100003.6142
100003.5988
100003.5686
100003.5492
100003.5378
100003.5273
100003.5264
100003.5247
100003.5228
100003.5205
100003.5189
100003.5184
100003.5186
100003.5151
100003.5069
100003.5026
100003.4977
100003.4898
100003.4774
100003.4741
100003.4688
100003.5048
100003.6225
100003.6424
100003.6643
100003.6828
100003.6836
100003.6726
100003.6992
100003.5973
100003.9179
100003.7116
100003.7865
100003.6853
100003.6495
100003.6128
100003.5687
100003.545
100003.5408
100003.5298
100003.5349