/*--------------------------------*- C++ -*----------------------------------*\
  =========                 |
  \\      /  F ield         | OpenFOAM: The Open Source CFD Toolbox
   \\    /   O peration     | Website:  https://openfoam.org
    \\  /    A nd           | Version:  8
     \\/     M anipulation  |
\*---------------------------------------------------------------------------*/
FoamFile
{
    version     2.0;
    format      ascii;
    class       surfaceScalarField;
    location    "0.6";
    object      phi;
}
// * * * * * * * * * * * * * * * * * * * * * * * * * * * * * * * * * * * * * //

dimensions      [1 0 -1 0 0 0 0];

internalField   nonuniform List<scalar> 
196504
(
-4.702428034e-05
-1.611633624e-05
2.845582141e-05
-6.132898222e-05
-2.018266906e-05
3.44870867e-05
-7.12479245e-05
-2.904399206e-05
3.896271447e-05
-6.992167772e-05
-4.001024491e-05
3.868386193e-05
-5.045145893e-05
-5.137508331e-05
3.190488009e-05
-1.205013208e-05
-6.19894545e-05
2.358823086e-05
-2.07194417e-05
-4.819897551e-05
5.686835699e-05
-2.137696865e-05
-5.512177524e-05
5.577936232e-05
5.010946693e-05
-9.091328986e-05
1.942729957e-05
7.878651033e-05
-7.050159946e-05
4.18246436e-05
7.581435677e-05
-5.559134335e-05
5.85636298e-05
6.290998056e-05
-4.347979523e-05
5.638429242e-05
6.245430237e-05
-5.188698172e-05
5.234282863e-05
6.191128716e-05
-4.430879928e-05
4.48519235e-05
5.745186497e-05
-3.274451088e-05
3.72040506e-05
5.23720098e-05
-2.500912333e-05
3.008910242e-05
4.862792343e-05
-2.116593604e-05
2.491014811e-05
4.634144127e-05
-1.9729861e-05
2.20164686e-05
4.45717599e-05
-1.912942153e-05
2.089922622e-05
4.227005151e-05
-1.853658873e-05
2.083841824e-05
3.908376881e-05
-1.797354336e-05
2.115994635e-05
3.552845045e-05
-1.782160333e-05
2.137704251e-05
3.241170416e-05
-1.824537637e-05
2.136224684e-05
3.015169231e-05
-1.885074256e-05
2.111088486e-05
2.842760392e-05
-1.897744594e-05
2.070167284e-05
2.673512208e-05
-1.796440613e-05
1.965703442e-05
2.420052555e-05
-1.526812368e-05
1.780287316e-05
2.031864323e-05
-1.143790867e-05
1.53199485e-05
1.552808544e-05
-8.150363268e-06
1.294108328e-05
1.087662674e-05
-6.411264414e-06
1.106289199e-05
6.934213927e-06
-5.832820762e-06
9.775410056e-06
3.959031774e-06
-5.955218318e-06
8.930582904e-06
1.460036398e-06
-5.871598348e-06
8.370780526e-06
-6.480444605e-06
7.940669264e-06
-5.412379932e-05
-2.669962167e-05
1.942943476e-05
-6.342687612e-05
-3.119497514e-05
2.031511021e-05
-6.848750684e-05
-3.970114764e-05
1.571760498e-05
-6.467339802e-05
-4.966505648e-05
5.840619398e-06
-4.711014941e-05
-5.992559318e-05
-9.01270113e-06
-1.557564442e-05
-7.000672215e-05
-2.351718023e-05
-2.859535606e-05
-5.966240281e-05
2.448316827e-05
-2.250213731e-05
-7.012002335e-05
8.905192717e-06
4.82184782e-05
-9.760215638e-05
-6.403108821e-05
7.730090901e-05
-8.412265646e-05
-1.546110512e-05
7.379086516e-05
-7.498508843e-05
2.290396326e-05
5.884481994e-05
-6.51080377e-05
3.657443311e-05
5.972100766e-05
-8.542962719e-05
3.266666484e-05
6.319456788e-05
-7.7745188e-05
2.996295948e-05
6.020876046e-05
-5.873595548e-05
2.897738428e-05
5.469108271e-05
-4.334867728e-05
2.385736119e-05
4.955395857e-05
-3.452654762e-05
1.849786428e-05
4.54764174e-05
-3.07352667e-05
1.508307475e-05
4.211483403e-05
-2.91341727e-05
1.336645875e-05
3.911423993e-05
-2.812682735e-05
1.25909527e-05
3.645018447e-05
-2.760260407e-05
1.229323409e-05
3.430859204e-05
-2.786739378e-05
1.218750236e-05
3.273370886e-05
-2.894408745e-05
1.22737187e-05
3.147330229e-05
-3.038850498e-05
1.279830143e-05
3.003568635e-05
-3.139647149e-05
1.385678384e-05
2.77614086e-05
-3.086159298e-05
1.517161758e-05
2.42960161e-05
-2.780941813e-05
1.600684901e-05
1.99054634e-05
-2.262934685e-05
1.558215892e-05
1.543338319e-05
-1.782284293e-05
1.414473063e-05
1.116770873e-05
-1.483203104e-05
1.268661359e-05
7.304801558e-06
-1.341144926e-05
1.144171091e-05
4.106746375e-06
-1.31907988e-05
1.043381392e-05
1.296374906e-06
-1.27058219e-05
9.644776109e-06
-1.433160837e-05
9.147720491e-06
-6.247300373e-05
-2.901723235e-05
1.284405065e-05
-7.167249357e-05
-3.050403567e-05
8.50831738e-06
-7.421771932e-05
-3.58688517e-05
-1.287197024e-06
-6.778146385e-05
-4.286165621e-05
-1.323970535e-05
-4.561977006e-05
-4.850619174e-05
-3.358101219e-05
-1.34076158e-05
-5.247749244e-05
-4.974118453e-05
-3.978629751e-05
-3.884178663e-05
5.558202762e-06
-3.854956622e-05
-4.907086572e-05
-2.228546628e-05
4.698488138e-05
-6.668549919e-05
-0.0001164498567
7.938262239e-05
-6.909503963e-05
-4.742493282e-05
7.010211613e-05
-7.129953254e-05
5.595184066e-06
5.267948581e-05
-7.004108443e-05
2.235583362e-05
5.9411117e-05
-9.739282054e-05
5.231872044e-06
7.023210786e-05
-9.423380886e-05
5.667797767e-06
6.980800077e-05
-7.545991416e-05
1.714820942e-05
6.226226147e-05
-5.635803965e-05
2.055523404e-05
5.341808666e-05
-4.325023191e-05
1.756799228e-05
4.624725392e-05
-3.710023316e-05
1.353593733e-05
4.123908199e-05
-3.465431702e-05
1.052845239e-05
3.820147756e-05
-3.346365065e-05
8.374558959e-06
3.667602558e-05
-3.321465138e-05
7.137627826e-06
3.607514305e-05
-3.400425619e-05
6.737874504e-06
3.580422325e-05
-3.563695574e-05
6.96392164e-06
3.524638663e-05
-3.764254067e-05
7.812011915e-06
3.380393851e-05
-3.935295801e-05
9.399081847e-06
3.108168389e-05
-3.979590594e-05
1.16567234e-05
2.703755863e-05
-3.774201671e-05
1.397688849e-05
2.222948914e-05
-3.330887978e-05
1.548777465e-05
1.752668441e-05
-2.867635486e-05
1.555649274e-05
1.337729986e-05
-2.54541967e-05
1.477172838e-05
9.393616911e-06
-2.331674601e-05
1.388915788e-05
5.572486137e-06
-2.233660671e-05
1.296711528e-05
2.028688508e-06
-2.126601082e-05
1.210416066e-05
-2.420241517e-05
1.189966615e-05
-5.926763917e-05
-2.885511704e-05
9.261114723e-06
-6.657346299e-05
-2.58605044e-05
2.662111825e-06
-6.861476198e-05
-2.582005884e-05
-8.007582548e-06
-6.208440243e-05
-2.71775335e-05
-2.221449925e-05
-3.902360527e-05
-2.7467323e-05
-4.409953788e-05
-1.478986466e-06
-2.869137557e-05
-6.133047475e-05
-2.454650916e-05
-1.659219436e-05
8.181046552e-07
-3.473839599e-05
-1.538093873e-05
-2.349767304e-05
2.831045023e-05
-1.013242792e-05
-0.0001196010042
5.351852858e-05
-5.111553625e-05
-4.318715585e-05
3.418035182e-05
-6.446741293e-05
1.250629432e-05
2.451278151e-05
-7.173707126e-05
1.13637166e-05
5.203993707e-05
-9.623303049e-05
-2.86865067e-05
7.602442708e-05
-9.45641042e-05
-2.365393872e-05
8.184438786e-05
-7.773810659e-05
-3.541597969e-06
7.401110202e-05
-6.059007173e-05
1.206546967e-05
6.027667228e-05
-4.674843743e-05
1.723277932e-05
4.845074403e-05
-3.988929408e-05
1.46151423e-05
4.09280075e-05
-3.748428605e-05
1.035286033e-05
3.750778366e-05
-3.641421774e-05
6.370941629e-06
3.688462297e-05
-3.640584746e-05
3.814505071e-06
3.751851948e-05
-3.758770759e-05
2.949703201e-06
3.827391967e-05
-3.96822469e-05
3.290040908e-06
3.836789955e-05
-4.218741439e-05
4.451046435e-06
3.712324041e-05
-4.451714316e-05
6.409000107e-06
3.412058609e-05
-4.585630624e-05
9.063214164e-06
2.972918885e-05
-4.503889628e-05
1.168844124e-05
2.528105146e-05
-4.234980968e-05
1.348923789e-05
2.155307697e-05
-3.936809256e-05
1.441988872e-05
1.838515037e-05
-3.711537792e-05
1.482928814e-05
1.48591386e-05
-3.505160314e-05
1.526105015e-05
1.057221435e-05
-3.344974538e-05
1.54002423e-05
5.604545299e-06
-3.18098675e-05
1.551169788e-05
-3.532941717e-05
1.673170776e-05
-4.5942886e-05
-3.197332046e-05
9.360838074e-06
-5.124857651e-05
-2.608999948e-05
5.535043024e-06
-5.425308452e-05
-2.102507089e-05
-1.790536465e-06
-5.082560952e-05
-1.56917823e-05
-1.491320627e-05
-3.391394763e-05
-8.287983884e-06
-3.609087856e-05
-1.912147735e-06
-9.686248749e-06
-5.100674165e-05
-1.182110999e-05
-2.082651594e-05
1.41434355e-05
-2.728224e-05
-1.541154939e-05
1.549187632e-05
-1.194458947e-06
1.041349776e-05
-4.663336055e-05
1.050571239e-05
-4.910392596e-05
-1.37115839e-05
-1.33380675e-05
-5.712334072e-05
1.649991238e-05
-6.10882582e-06
-6.80882808e-05
-1.087779682e-05
4.839164507e-05
-8.021344827e-05
-7.051945911e-05
8.333897071e-05
-7.604385649e-05
-5.346720418e-05
9.41848546e-05
-6.471350281e-05
-2.387029026e-05
8.752541822e-05
-5.179464394e-05
-2.135806616e-06
6.91271878e-05
-4.198744358e-05
1.363741068e-05
5.153008483e-05
-3.867179142e-05
1.637977536e-05
4.060358991e-05
-3.873645962e-05
1.217884564e-05
3.636869097e-05
-3.848074574e-05
6.301601748e-06
3.637940384e-05
-3.848220761e-05
2.065821278e-06
3.804940241e-05
-3.957622902e-05
3.186961737e-07
3.965571304e-05
-4.178899646e-05
5.006109864e-07
4.021257219e-05
-4.468708981e-05
1.942986363e-06
3.887694009e-05
-4.757432402e-05
4.392980779e-06
3.542722002e-05
-4.97968573e-05
7.390436769e-06
3.103554867e-05
-5.02145002e-05
9.567440016e-06
2.765556444e-05
-4.921794299e-05
1.024828305e-05
2.591322559e-05
-4.796088179e-05
1.033529569e-05
2.483402497e-05
-4.694387846e-05
1.090787156e-05
2.277869206e-05
-4.564832892e-05
1.265223208e-05
1.87372574e-05
-4.429501169e-05
1.488687536e-05
1.163215792e-05
-4.263754958e-05
1.793295163e-05
-4.613475554e-05
2.243764568e-05
-3.940930675e-05
-3.539035929e-05
1.093180128e-05
-4.413188221e-05
-2.936628908e-05
7.99878193e-06
-4.715057031e-05
-2.355963131e-05
5.553236841e-06
-4.832683403e-05
-1.756683468e-05
3.051359837e-06
-4.339257579e-05
-9.874146392e-06
-3.348000412e-06
-3.65689638e-05
-1.025597668e-05
-6.253714756e-06
-4.295632974e-05
-3.175169794e-05
1.731274138e-05
-3.900296565e-05
-3.300772133e-05
1.36429706e-05
-1.561117055e-05
-2.060789723e-05
7.629837488e-06
-1.590586861e-06
-4.806812996e-05
-1.505616059e-05
-1.820557718e-05
-4.35361617e-05
3.028039727e-06
-7.484489246e-06
-5.325812566e-05
-2.555096929e-05
4.830531189e-05
-4.670611294e-05
-8.929641214e-05
8.695882913e-05
-4.054800959e-05
-7.414885332e-05
9.926600388e-05
-3.776464975e-05
-3.925583956e-05
9.216178987e-05
-3.338027435e-05
-1.130994483e-05
7.206935854e-05
-3.193943973e-05
1.00446326e-05
5.142467012e-05
-3.61021771e-05
1.807528095e-05
3.854365305e-05
-4.060917647e-05
1.475393639e-05
3.409691247e-05
-4.132327338e-05
7.289468949e-06
3.486330824e-05
-4.077627904e-05
1.52787797e-06
3.746051596e-05
-4.114987913e-05
-1.023355712e-06
3.976914117e-05
-4.294713511e-05
-1.150288473e-06
4.0509111e-05
-4.58811819e-05
4.543136767e-07
3.852270454e-05
-4.914981356e-05
3.56207923e-06
3.407160719e-05
-5.218020519e-05
6.834619903e-06
2.970856668e-05
-5.362934431e-05
7.778051877e-06
2.793173492e-05
-5.390416108e-05
6.463210888e-06
2.847751989e-05
-5.367544316e-05
5.168932284e-06
2.962059756e-05
-5.338107461e-05
5.294271101e-06
2.942974353e-05
-5.281330436e-05
7.355981384e-06
2.643441869e-05
-5.216589323e-05
1.086635886e-05
1.803474017e-05
-5.093015419e-05
1.669243544e-05
-5.429084053e-05
2.619096428e-05
-3.280362512e-05
-3.728578657e-05
1.280139996e-05
-4.078231506e-05
-3.09323807e-05
9.544754168e-06
-4.579755951e-05
-2.461111546e-05
6.066770942e-06
-4.824209853e-05
-2.098486009e-05
5.862657281e-06
-4.666103969e-05
-1.967874508e-05
8.22368023e-06
-4.514386059e-05
-2.217880865e-05
1.040584464e-05
-4.74282817e-05
-3.300520213e-05
3.538128538e-06
-4.145978755e-05
-3.677696087e-05
-2.199072582e-06
-1.815185797e-05
-3.345584837e-05
-1.045977515e-05
1.047557456e-05
-4.385401976e-05
-3.284135726e-05
1.112460591e-05
-3.271078771e-05
-1.147421473e-05
1.286505393e-05
-3.382997354e-05
-2.116845579e-05
5.115869002e-05
-9.864884367e-06
-7.513438165e-05
8.191451671e-05
-2.495958194e-06
-6.880752841e-05
8.909737377e-05
-9.875082697e-06
-3.50722765e-05
7.878262374e-05
-1.845272366e-05
-4.612615989e-06
5.98223072e-05
-2.811521166e-05
1.513629956e-05
4.326309466e-05
-3.992498406e-05
2.038224636e-05
3.34340972e-05
-4.680806869e-05
1.602811572e-05
3.084373287e-05
-4.65202489e-05
7.787565289e-06
3.291385216e-05
-4.405366967e-05
1.207500897e-06
3.641774136e-05
-4.282308363e-05
-1.830454011e-06
3.915939917e-05
-4.360669618e-05
-2.081871269e-06
3.952329136e-05
-4.608376146e-05
-1.61097725e-07
3.604019047e-05
-4.947226513e-05
3.805753882e-06
3.001425937e-05
-5.320808891e-05
7.054001393e-06
2.594530081e-05
-5.539487966e-05
5.83466576e-06
2.619088783e-05
-5.643576654e-05
2.286176242e-06
2.918142824e-05
-5.657663892e-05
-8.920013107e-08
3.250202115e-05
-5.653412522e-05
-1.674084548e-07
3.392715172e-05
-5.639634936e-05
2.158041428e-06
3.172305082e-05
-5.628386652e-05
6.322197731e-06
2.286731298e-05
-5.559288169e-05
1.351858824e-05
-5.818731834e-05
2.676390958e-05
-2.307878372e-05
-3.820778494e-05
1.404289406e-05
-3.47119998e-05
-3.162599476e-05
1.232684799e-05
-4.2492581e-05
-2.360731401e-05
6.776866222e-06
-4.739255371e-05
-1.87766761e-05
2.691925842e-06
-4.930675478e-05
-1.856066336e-05
7.962988544e-07
-4.827049622e-05
-2.257543666e-05
-6.394225596e-07
-4.621406011e-05
-2.976114553e-05
-5.300290227e-06
-3.793470028e-05
-3.318030624e-05
-1.187583103e-05
-1.582914989e-05
-3.07008308e-05
-2.486038048e-05
1.402827402e-05
-3.274272908e-05
-4.096852735e-05
3.521921441e-05
-2.449009361e-05
-2.941145873e-05
4.652131201e-05
-1.931839374e-05
-2.581355687e-05
6.539677321e-05
5.20750418e-06
-3.394764842e-05
8.050525057e-05
8.742120588e-06
-2.634643808e-05
7.985818267e-05
-3.652559309e-06
-5.57534081e-06
6.756186201e-05
-1.758846715e-05
1.14322454e-05
5.176454371e-05
-3.336536261e-05
2.104769138e-05
3.898751192e-05
-4.779333991e-05
2.064563384e-05
3.117817925e-05
-5.417357218e-05
1.517508724e-05
2.949693553e-05
-5.231323487e-05
7.474480904e-06
3.215002701e-05
-4.775426166e-05
1.047755754e-06
3.592521064e-05
-4.458732886e-05
-2.010681301e-06
3.843516734e-05
-4.393596329e-05
-2.180438161e-06
3.761041013e-05
-4.547089356e-05
2.121281434e-07
3.166561681e-05
-4.861950948e-05
5.092258918e-06
2.38574509e-05
-5.289842549e-05
7.498702565e-06
2.078388225e-05
-5.548750633e-05
3.166372511e-06
2.337461421e-05
-5.692833784e-05
-2.098004847e-06
2.887379749e-05
-5.720733858e-05
-4.868348224e-06
3.44482357e-05
-5.714846987e-05
-4.959975969e-06
3.744889129e-05
-5.704893905e-05
-2.347962078e-06
3.574404664e-05
-5.712245879e-05
2.543532169e-06
2.60207332e-05
-5.657346701e-05
1.070398966e-05
-5.834274843e-05
2.617625497e-05
-1.128434841e-05
-3.802441269e-05
1.263208752e-05
-2.577055191e-05
-3.210214172e-05
1.496239277e-05
-3.57080778e-05
-2.283740095e-05
9.167720336e-06
-4.087496208e-05
-1.584739484e-05
2.237756263e-06
-4.277634409e-05
-1.435742162e-05
-2.301674565e-06
-4.307852992e-05
-1.715907189e-05
-5.113983588e-06
-4.13279557e-05
-2.211720894e-05
-9.39433004e-06
-3.208107094e-05
-2.47284536e-05
-1.769856385e-05
-1.051067792e-05
-2.082618929e-05
-3.144487869e-05
1.791093264e-05
-1.765033411e-05
-4.351383128e-05
4.052362914e-05
-9.274894461e-06
-3.782774502e-05
5.553357644e-05
-3.510989373e-06
-3.081724975e-05
6.874509896e-05
6.61991851e-06
-1.462382867e-05
7.633018944e-05
4.233387205e-06
-3.07624968e-06
7.139131935e-05
-6.818899905e-06
8.105337163e-06
5.784205303e-05
-2.296843247e-05
1.892940394e-05
4.556703649e-05
-4.185227365e-05
2.076214394e-05
3.716138761e-05
-5.489805484e-05
1.551061506e-05
3.186075763e-05
-5.937500386e-05
1.050233561e-05
3.105513201e-05
-5.674359856e-05
5.236271516e-06
3.363439002e-05
-5.110569571e-05
7.72460256e-07
3.682590595e-05
-4.641532578e-05
-1.363236232e-06
3.819449871e-05
-4.412798083e-05
-1.176300075e-06
3.525913931e-05
-4.424114367e-05
1.705870705e-06
2.60549512e-05
-4.661558641e-05
7.200505834e-06
1.679074272e-05
-5.113591122e-05
7.501906923e-06
1.552374166e-05
-5.375916797e-05
-4.611553774e-07
2.066462636e-05
-5.548369947e-05
-6.585367522e-06
2.861968992e-05
-5.565539394e-05
-9.506879097e-06
3.631119883e-05
-5.540906494e-05
-9.430808548e-06
4.084565768e-05
-5.49883334e-05
-6.59497913e-06
3.949841981e-05
-5.486742568e-05
-9.077263958e-07
2.868494253e-05
-5.425814069e-05
8.498210844e-06
-5.528675422e-05
2.562901088e-05
8.093116763e-07
-3.699868984e-05
8.564996984e-06
-1.441414016e-05
-3.232881631e-05
1.545016207e-05
-2.60410624e-05
-2.319291707e-05
1.198253444e-05
-3.136601389e-05
-1.440654531e-05
3.884235162e-06
-3.367033332e-05
-1.064672292e-05
-1.40622313e-06
-3.547523373e-05
-1.20271448e-05
-3.326860182e-06
-3.465726115e-05
-1.543823393e-05
-7.496796736e-06
-2.455268729e-05
-1.815882014e-05
-1.66740337e-05
-2.25551788e-06
-1.399617883e-05
-2.912707913e-05
2.49375633e-05
-5.785794849e-06
-3.905747002e-05
4.528716732e-05
4.740791034e-06
-3.43651785e-05
5.682767114e-05
8.825838136e-06
-2.387725382e-05
6.305007561e-05
8.875235487e-06
-8.477650221e-06
6.211821697e-05
-6.806026994e-08
5.233385197e-06
5.074811563e-05
-1.375418997e-05
1.830549139e-05
4.009881111e-05
-3.479933831e-05
2.248035748e-05
3.652639532e-05
-5.161306582e-05
1.333340159e-05
3.495143292e-05
-5.976943182e-05
6.44658353e-06
3.386585358e-05
-6.138890057e-05
3.09976179e-06
3.507010483e-05
-5.832735762e-05
3.79816383e-07
3.758452102e-05
-5.313727282e-05
-4.825227363e-07
3.959115911e-05
-4.800782511e-05
-4.138276487e-07
3.896146631e-05
-4.41948539e-05
6.968642565e-07
3.317763726e-05
-4.250059636e-05
4.043562906e-06
2.040886674e-05
-4.345052042e-05
9.603962235e-06
1.041539565e-05
-4.78003859e-05
6.658167403e-06
1.154758678e-05
-5.03342369e-05
-4.556936552e-06
1.901662075e-05
-5.178747762e-05
-1.116509929e-05
2.91490984e-05
-5.180091308e-05
-1.398683525e-05
3.849893899e-05
-5.123119597e-05
-1.35276174e-05
4.414699416e-05
-5.032224127e-05
-1.031408346e-05
4.306246824e-05
-4.964784075e-05
-4.135017077e-06
3.125279615e-05
-4.895154246e-05
6.503102979e-06
-4.93463419e-05
2.531241635e-05
9.179682487e-06
-3.446126371e-05
4.741865939e-06
-5.748943829e-06
-3.070647119e-05
1.330627454e-05
-2.072105859e-05
-2.29827815e-05
1.47620279e-05
-2.977971226e-05
-1.283313705e-05
7.485329772e-06
-3.38144154e-05
-6.389736485e-06
-2.221752592e-07
-3.318317627e-05
-7.720582464e-06
-4.937669854e-06
-2.840368601e-05
-1.036065269e-05
-9.85695829e-06
-1.55624231e-05
-1.500984919e-05
-1.599001511e-05
6.983723446e-06
-1.329312887e-05
-2.324919056e-05
3.099214996e-05
-3.808000382e-06
-2.598605671e-05
4.788010719e-05
7.482161757e-06
-1.962927174e-05
5.596102436e-05
7.339110652e-06
-6.594137978e-06
5.554728135e-05
1.321978116e-06
7.967039187e-06
4.707730195e-05
-1.33445813e-05
2.174653864e-05
3.376030663e-05
-2.797075532e-05
2.753362777e-05
2.935676514e-05
-4.614544557e-05
1.574975871e-05
3.248262725e-05
-5.636065156e-05
1.621884802e-06
3.503303153e-05
-6.081312253e-05
-1.506492402e-06
3.670011438e-05
-6.059649409e-05
-2.459210773e-06
4.003581429e-05
-5.752061808e-05
-4.142122433e-06
4.301382071e-05
-5.33182204e-05
-2.79672198e-06
4.391678696e-05
-4.847976964e-05
-4.306846705e-07
4.106424667e-05
-4.366499722e-05
2.323004219e-06
3.225043605e-05
-4.005430216e-05
6.367814417e-06
1.613056774e-05
-3.89118963e-05
1.158151376e-05
5.650867631e-06
-4.242782814e-05
5.107367512e-06
9.205007092e-06
-4.475723389e-05
-9.130954236e-06
1.890972011e-05
-4.542875881e-05
-1.60632756e-05
3.088925588e-05
-4.526741656e-05
-1.851291592e-05
4.134917167e-05
-4.43094588e-05
-1.738157493e-05
4.757008529e-05
-4.285500349e-05
-1.368810853e-05
4.649301303e-05
-4.166766455e-05
-6.903088301e-06
3.367672118e-05
-4.087743889e-05
4.742186939e-06
-4.077146649e-05
2.51018476e-05
1.556540671e-05
-3.064779822e-05
1.954628678e-06
3.410315493e-06
-2.835227458e-05
9.800808836e-06
-1.091582342e-05
-2.359374663e-05
1.493706384e-05
-2.171181065e-05
-1.402220579e-05
1.198504762e-05
-2.869332235e-05
-3.267109193e-06
3.858880318e-06
-3.002816221e-05
-1.399010248e-06
-4.986741368e-06
-2.456490144e-05
-3.251110588e-06
-1.257292673e-05
-1.212512807e-05
-1.09662684e-05
-1.648308125e-05
1.552349411e-05
-2.243725758e-05
-1.850451402e-05
3.454029068e-05
-1.648027313e-05
-6.344229918e-06
4.761483753e-05
-6.974626155e-06
1.382302109e-06
4.742862331e-05
-5.538362221e-06
1.306376153e-05
3.594906105e-05
-1.219707328e-05
2.499863845e-05
1.910491919e-05
-2.736253474e-05
3.086211092e-05
1.06245619e-05
-3.971384166e-05
2.022346341e-05
1.772518056e-05
-5.127590434e-05
-1.970104264e-06
3.041656199e-05
-5.667298536e-05
-1.237892727e-05
3.769737347e-05
-6.035656361e-05
-7.737188465e-06
4.122064395e-05
-5.986307879e-05
-4.256434674e-06
4.538792421e-05
-5.62857644e-05
-5.401831772e-06
4.858794178e-05
-5.198231158e-05
-4.535594872e-06
4.880827238e-05
-4.6982738e-05
-1.717018486e-06
4.450638994e-05
-4.16118365e-05
2.249054565e-06
3.339692787e-05
-3.635052995e-05
7.40599812e-06
1.478835396e-05
-3.281494128e-05
1.251189313e-05
3.375944917e-06
-3.438535039e-05
3.370154825e-06
8.364070255e-06
-3.598359396e-05
-1.376157745e-05
1.991158739e-05
-3.562013253e-05
-2.135599047e-05
3.33305986e-05
-3.525910639e-05
-2.34272143e-05
4.455299701e-05
-3.410672252e-05
-2.142507336e-05
5.089387583e-05
-3.256185544e-05
-1.663400721e-05
4.941049798e-05
-3.127407687e-05
-8.910222044e-06
3.559485126e-05
-3.067838626e-05
3.616561511e-06
-3.019323361e-05
2.501658817e-05
1.947108318e-05
-2.620142685e-05
-1.582720555e-07
1.040806384e-05
-2.607904077e-05
6.789586128e-06
-5.84790079e-07
-2.470982227e-05
1.210876662e-05
-8.839619572e-06
-1.914326905e-05
1.337576907e-05
-1.61428633e-05
-8.598004417e-06
1.263405796e-05
-2.335279909e-05
-7.143012504e-07
6.525159614e-06
-2.304639684e-05
1.881154252e-06
-5.438958739e-06
-1.530684371e-05
-8.326068391e-06
-1.037958411e-05
8.687644052e-06
-2.067108033e-05
-2.576126213e-05
2.969902434e-05
-4.953775987e-05
1.204622484e-05
4.495126423e-05
-4.408291841e-05
2.185636501e-05
3.240828809e-05
-2.567786214e-05
3.268259772e-05
9.453434975e-06
-2.816439752e-05
3.892218239e-05
-6.430371016e-06
-3.661600286e-05
2.513723417e-05
-4.233968981e-06
-4.520842289e-05
3.29811139e-06
1.28370572e-05
-4.995624465e-05
-1.839069065e-05
3.309964229e-05
-5.397172086e-05
-2.296377619e-05
4.48556518e-05
-5.873062269e-05
-1.338181715e-05
4.915666803e-05
-5.932741412e-05
-4.836474011e-06
5.191530568e-05
-5.529993143e-05
-3.744199812e-06
5.38733722e-05
-4.954444531e-05
-4.395626005e-06
5.349431959e-05
-4.337136301e-05
-3.231996953e-06
4.884707592e-05
-3.714163018e-05
1.773610393e-07
3.706109622e-05
-3.082026153e-05
6.256016669e-06
1.730302581e-05
-2.511571537e-05
1.205911489e-05
4.213397745e-06
-2.361846586e-05
2.322959773e-06
9.014238761e-06
-2.367300076e-05
-1.711125404e-05
2.140234206e-05
-2.246831059e-05
-2.553978213e-05
3.552110299e-05
-2.216294104e-05
-2.721483432e-05
4.704104416e-05
-2.125327143e-05
-2.437335221e-05
5.319467037e-05
-2.032055136e-05
-1.839493754e-05
5.104090038e-05
-1.971980287e-05
-9.400546996e-06
3.646288888e-05
-1.99315289e-05
3.831088652e-06
-1.903527975e-05
2.530487061e-05
1.986852171e-05
-2.276825634e-05
-1.574718941e-06
1.312261362e-05
-2.454641026e-05
5.212931551e-06
3.931424407e-06
-2.577872342e-05
1.025976007e-05
-3.235942927e-06
-2.472010983e-05
1.274391266e-05
-8.768966445e-06
-1.721135795e-05
1.414604429e-05
-2.151153032e-05
-5.005692632e-06
1.703401109e-05
-3.495458549e-05
4.148749132e-06
1.117535808e-05
-4.221651917e-05
-6.994649931e-06
5.930685448e-06
9.746015954e-06
1.626524774e-05
-8.890102415e-05
3.656680433e-05
-8.594174056e-05
9.582020212e-06
5.345054997e-05
-0.0001023419077
4.13755953e-05
2.771488308e-05
-5.456946838e-05
5.4627215e-05
-3.853375031e-07
-4.106878665e-05
4.100455734e-05
-1.47332917e-05
-4.076757132e-05
1.849939812e-05
-1.017469901e-05
-4.239014229e-05
-7.377025321e-06
1.222404679e-05
-4.49388983e-05
-2.74161591e-05
3.711264501e-05
-4.957011417e-05
-2.92901888e-05
5.185473397e-05
-5.46328802e-05
-1.883975043e-05
5.746078633e-05
-5.669298139e-05
-8.240332085e-06
5.873886536e-05
-5.325905914e-05
-3.31872839e-06
5.888378173e-05
-4.595233039e-05
-3.736764512e-06
5.764452308e-05
-3.787404043e-05
-4.257775081e-06
5.334849674e-05
-3.034916956e-05
-2.496137403e-06
4.294611938e-05
-2.357373424e-05
3.156134952e-06
2.449102198e-05
-1.6614925e-05
9.95456133e-06
9.125942559e-06
-1.13030499e-05
3.049863374e-06
1.031615366e-05
-7.216239212e-06
-1.764681497e-05
2.204376349e-05
-7.019212523e-06
-2.717658679e-05
3.615354573e-05
-8.06364493e-06
-2.820901113e-05
4.743987315e-05
-8.220512159e-06
-2.431907467e-05
5.308334766e-05
-8.768469511e-06
-1.719559454e-05
5.029760739e-05
-9.64971447e-06
-7.284423996e-06
3.562572099e-05
-1.115530738e-05
5.895564775e-06
-9.451058866e-06
2.604139847e-05
1.627573527e-05
-2.140729923e-05
-2.680802362e-06
1.117659477e-05
-2.439786774e-05
4.950090526e-06
3.482322186e-06
-2.780596258e-05
9.721005742e-06
6.663331745e-07
-3.392480334e-05
1.202023206e-05
3.429635496e-06
-3.338664006e-05
1.341159365e-05
-6.445901876e-06
-1.145143384e-05
1.632102747e-05
-1.619889829e-05
-1.60912206e-06
1.551071881e-05
-2.769490338e-05
-2.02423812e-08
4.521531865e-06
-3.89779662e-05
6.128946339e-06
2.14195389e-05
1.782278025e-05
-8.03072982e-05
-6.243555588e-05
8.242110953e-05
-0.000127423736
-3.951707305e-05
4.974570427e-05
-6.354512084e-05
4.16497734e-05
2.674364586e-06
-3.741188827e-05
4.341432702e-05
-1.901940402e-05
-3.894626604e-05
1.987213568e-05
-1.30146329e-05
-3.738183301e-05
-1.101331395e-05
1.262378488e-05
-3.916365668e-05
-3.141380032e-05
3.976749826e-05
-4.449848172e-05
-3.221541005e-05
5.577148214e-05
-4.864200384e-05
-2.199484892e-05
6.279386815e-05
-5.053571354e-05
-1.317956948e-05
6.446247995e-05
-4.785153305e-05
-7.075984569e-06
6.376148467e-05
-4.035219727e-05
-4.898931575e-06
6.187346862e-05
-3.093278366e-05
-5.053003942e-06
5.809310928e-05
-2.201168903e-05
-4.556871018e-06
4.984340353e-05
-1.473602975e-05
-5.877514688e-07
3.399103309e-05
-7.758480729e-06
6.996147454e-06
1.457056841e-05
5.991681392e-08
8.057670777e-06
9.423503722e-06
7.800141197e-06
-9.869183573e-06
2.049437243e-05
5.159062415e-06
-2.324905413e-05
3.38673648e-05
2.682206385e-06
-2.411880676e-05
4.432159958e-05
9.183163049e-07
-1.959308346e-05
4.924265679e-05
-1.484971651e-06
-1.220462706e-05
4.632951676e-05
-3.770079316e-06
-2.96660796e-06
3.279739454e-05
-6.18355633e-06
8.560231024e-06
-2.598322309e-06
2.594451285e-05
1.140648963e-05
-2.059720587e-05
-2.992077262e-06
5.914085543e-06
-2.552306365e-05
6.616926734e-06
-1.59411023e-06
-3.182319161e-05
1.15247252e-05
2.019589822e-06
-4.470475165e-05
7.165581588e-06
6.831369063e-06
-5.318490011e-05
1.498582888e-05
-1.392768538e-05
-1.786379169e-05
2.717096822e-05
-5.132144987e-05
-6.353605494e-07
3.641959031e-05
-0.0001087485323
1.846012649e-05
3.894655973e-05
-9.592790268e-05
2.21978075e-05
-2.888964531e-05
1.944586292e-05
3.142847511e-05
-0.0002271053162
0.0001313106243
2.534844803e-05
-0.0002646146966
0.0001166567662
-2.405796244e-05
-2.483438388e-05
3.670465813e-05
-1.482181901e-05
5.736267078e-05
-1.141849459e-05
-2.319423363e-05
3.237117037e-05
-1.20961253e-05
-2.684903283e-05
-9.855324903e-06
1.332787843e-05
-3.029806113e-05
-3.428982801e-05
4.079502565e-05
-3.745064691e-05
-3.451516273e-05
5.636223119e-05
-4.009130275e-05
-2.411800619e-05
6.417481898e-05
-4.007019536e-05
-1.827811913e-05
6.743488683e-05
-3.664013893e-05
-1.447139977e-05
6.779822428e-05
-2.973478992e-05
-1.09806233e-05
6.660237145e-05
-2.099027585e-05
-8.746492205e-06
6.385292953e-05
-1.243596706e-05
-6.826094165e-06
5.651112827e-05
-5.525048975e-06
-1.868985406e-06
3.836442233e-05
1.060001549e-06
9.328408545e-06
1.283980148e-05
8.832565056e-06
1.675212648e-05
6.026458131e-06
1.55190557e-05
-9.054769347e-07
1.733673238e-05
1.134893573e-05
-1.750010131e-05
2.92492979e-05
9.408831471e-06
-1.863919618e-05
3.861404725e-05
7.039482351e-06
-1.548597965e-05
4.326106891e-05
4.034246765e-06
-1.016635652e-05
4.083525689e-05
1.147497138e-06
-2.491922498e-06
2.807198796e-05
-1.590506571e-06
8.170033479e-06
9.819415081e-07
2.449153482e-05
3.158382369e-06
-1.573408269e-05
-5.996395518e-06
-4.222214606e-06
-2.55263064e-05
7.383036137e-06
-8.754054732e-06
-3.416846545e-05
6.876288264e-06
7.163824668e-06
-4.688338683e-05
-1.374003297e-05
2.793259208e-05
-7.205477675e-05
-1.899558551e-06
2.631518744e-05
-3.777842696e-05
2.153146536e-05
8.18043269e-06
-1.300957531e-05
3.050842104e-05
-2.216851345e-05
1.301013004e-05
3.579866697e-05
-2.690437971e-05
1.572757823e-05
1.120523815e-05
1.470165826e-05
7.805289148e-05
-8.823043452e-05
7.492091822e-07
5.940837072e-05
-2.010974511e-05
-1.775417664e-05
-3.001221755e-05
2.445698741e-05
-2.86869172e-05
-3.023806707e-05
2.634773078e-05
-3.890023701e-05
-2.577197732e-05
1.279019732e-05
-2.323881535e-05
-2.554013378e-05
-1.697094136e-05
9.987802423e-06
-2.059383537e-05
-4.293124459e-05
3.925508407e-05
-2.241979322e-05
-4.429841819e-05
5.604771337e-05
-2.249140387e-05
-3.439273373e-05
6.547157758e-05
-2.07808936e-05
-2.871328298e-05
7.103480887e-05
-1.710745764e-05
-2.509595106e-05
7.321562689e-05
-1.162831529e-05
-2.028726916e-05
7.217497315e-05
-5.101203829e-06
-1.484834819e-05
6.888195412e-05
1.134233973e-06
-1.027707888e-05
6.18745365e-05
5.850581276e-06
-4.368089959e-06
4.605048929e-05
1.02686856e-05
6.615489427e-06
2.252219477e-05
1.632200088e-05
1.603896021e-05
1.236456138e-05
2.115286914e-05
4.523865728e-06
1.809583597e-05
1.726068002e-05
-1.164302822e-05
2.643149439e-05
1.58755272e-05
-1.4802409e-05
3.322545205e-05
1.350644754e-05
-1.326103291e-05
3.539900222e-05
9.721565325e-06
-7.861029098e-06
3.062090176e-05
4.865911277e-06
1.059488082e-06
1.78848552e-05
-2.000591563e-06
1.314591048e-05
-8.742447805e-06
2.760901314e-05
-7.74850992e-06
-4.460985848e-06
-1.101974571e-05
-1.968977359e-05
-1.680152546e-05
3.215610878e-06
-2.108159001e-05
-2.590256442e-05
-6.874989033e-06
2.815410022e-06
-3.789230446e-05
-3.288889415e-05
3.818088454e-05
-7.306297914e-05
-3.435798416e-05
4.415634818e-05
-4.623024796e-05
2.47573152e-06
2.30091148e-05
-2.493572644e-05
3.307288208e-05
-1.016551406e-05
-4.098116154e-06
5.02827443e-05
-2.53207835e-05
-1.525659895e-05
4.613950995e-05
-1.461283644e-05
2.857498602e-05
3.877018443e-05
8.879326044e-06
-9.594411539e-06
4.551230388e-05
1.641974997e-05
-4.390143437e-05
6.348844967e-06
-3.241758272e-07
-3.935129566e-05
2.585707904e-05
-2.260634151e-05
-2.345582798e-05
1.996547803e-05
-1.563062195e-05
-1.492379789e-05
-1.759268056e-05
1.004040695e-05
5.84260671e-06
-5.210795142e-05
3.651407597e-05
1.174003451e-05
-6.063385486e-05
5.51641458e-05
1.385301737e-05
-5.49947836e-05
6.686198254e-05
1.438711906e-05
-4.686607428e-05
7.424449876e-05
1.443801117e-05
-3.892813987e-05
7.809149757e-05
1.474057619e-05
-3.021597968e-05
7.878931692e-05
1.5460768e-05
-2.125982383e-05
7.68663813e-05
1.61053142e-05