/*--------------------------------*- C++ -*----------------------------------*\
  =========                 |
  \\      /  F ield         | OpenFOAM: The Open Source CFD Toolbox
   \\    /   O peration     | Website:  https://openfoam.org
    \\  /    A nd           | Version:  8
     \\/     M anipulation  |
\*---------------------------------------------------------------------------*/
FoamFile
{
    version     2.0;
    format      ascii;
    class       volScalarField;
    location    "0.6";
    object      T;
}
// * * * * * * * * * * * * * * * * * * * * * * * * * * * * * * * * * * * * * //

dimensions      [0 0 0 1 0 0 0];

internalField   nonuniform List<scalar> 
67193
(
300.0032091
300.0032658
300.003268
300.0032304
300.003193
300.0031904
300.0033647
300.0032766
300.0027366
300.0033036
300.0033425
300.0033984
300.0033232
300.0033407
300.0033441
300.0033394
300.0033198
300.0032821
300.0032326
300.0031823
300.0031385
300.003103
300.0030708
300.003033
300.0029829
300.0029243
300.0028695
300.0028352
300.0028274
300.0028361
300.0028462
300.0028539
300.0028578
300.0028628
300.0033252
300.0033101
300.0032436
300.0031705
300.0031541
300.003272
300.0031642
300.0028502
300.0022517
300.0027107
300.0030453
300.0032821
300.0031064
300.0031963
300.0032924
300.0033598
300.0033838
300.0033663
300.0033278
300.0032913
300.0032661
300.0032479
300.0032273
300.0031948
300.0031439
300.0030708
300.0029815
300.0029002
300.0028493
300.0028312
300.0028332
300.0028417
300.0028475
300.0028539
300.0033107
300.0032499
300.003155
300.0031132
300.0031472
300.003321
300.0029073
300.0024611
300.0024175
300.0025778
300.0028305
300.0031659
300.0027518
300.0028795
300.0030949
300.003251
300.0033338
300.0033439
300.0033176
300.0032959
300.0032889
300.0032861
300.0032768
300.003254
300.0032134
300.0031522
300.0030741
300.0029889
300.0029171
300.0028697
300.0028432
300.0028328
300.0028294
300.0028327
300.0032845
300.0032402
300.0031879
300.0031849
300.0032373
300.0034617
300.0029115
300.0027225
300.002913
300.0029892
300.003036
300.0031935
300.002513
300.0026181
300.0028568
300.003097
300.0032426
300.0032902
300.0032808
300.0032765
300.0032876
300.0032981
300.003297
300.0032802
300.0032448
300.0031919
300.0031331
300.0030777
300.0030258
300.002975
300.002923
300.0028741
300.0028336
300.0028081
300.0032832
300.0032897
300.0032563
300.0032378
300.0032841
300.0034792
300.0032062
300.0031344
300.0029244
300.0034258
300.0031661
300.0029948
300.0025443
300.002591
300.0027162
300.0029334
300.0031313
300.0032155
300.0032291
300.0032491
300.0032806
300.003302
300.0033055
300.0032899
300.0032539
300.0032037
300.0031657
300.0031487
300.0031356
300.0031078
300.0030577
300.0029861
300.0029018
300.0028166
300.0032489
300.0032902
300.0033004
300.0032646
300.003204
300.0031794
300.0032574
300.0032962
300.0031738
300.0034178
300.0031249
300.0030457
300.0028231
300.0027286
300.0027751
300.0028917
300.0030602
300.003144
300.0031762
300.0032262
300.0032765
300.0033048
300.003308
300.0032883
300.0032465
300.0031981
300.0031882
300.0032078
300.0032206
300.0032103
300.0031763
300.0031133
300.0030177
300.0028721
300.0032152
300.0032592
300.003299
300.003289
300.0032515
300.0032383
300.0033133
300.0033685
300.0033811
300.0034463
300.0032982
300.0033663
300.0030834
300.0029268
300.0029502
300.0030181
300.0030965
300.0031124
300.0031379
300.0032075
300.0032679
300.0032978
300.0032991
300.0032738
300.0032246
300.0031848
300.0032168
300.0032626
300.0032795
300.0032708
300.0032471
300.0032003
300.0031206
300.0029474
300.0032054
300.0032181
300.0032747
300.0032782
300.0032582
300.0032715
300.0033272
300.0033574
300.0033529
300.0034389
300.0033108
300.0033535
300.0031242
300.0030864
300.0031327
300.0031588
300.0031377
300.0031068
300.0031199
300.0031808
300.003239
300.0032708
300.003273
300.0032455
300.0031926
300.0031764
300.0032609
300.0033116
300.0033174
300.0033019
300.0032804
300.0032459
300.0031874
300.0030123
300.0032363
300.0031875
300.0032511
300.0032803
300.0032814
300.0033073
300.0033498
300.0033668
300.0033661
300.0034536
300.0033202
300.0033267
300.0032688
300.0032703
300.0032813
300.0032298
300.0031745
300.003142
300.0031278
300.0031468
300.0031852
300.0032174
300.0032259
300.0032054
300.0031576
300.0031847
300.0033148
300.0033474
300.0033419
300.0033215
300.0032982
300.003268
300.0032266
300.0030604
300.0032842
300.0031886
300.0032371
300.0033044
300.0033206
300.0033317
300.0033572
300.0033816
300.0034118
300.003467
300.0033774
300.0033458
300.0033165
300.0033037
300.0032671
300.0032335
300.0032327
300.0032028
300.0031614
300.0031353
300.0031354
300.0031515
300.0031649
300.0031601
300.0031291
300.0032112
300.0033599
300.0033675
300.0033569
300.0033356
300.003312
300.0032827
300.0032518
300.0030967
300.0032997
300.0032242
300.00323
300.0033107
300.0033403
300.0033811
300.0034299
300.0034616
300.003539
300.0034686
300.0034178
300.0033817
300.0033517
300.0033214
300.0032757
300.0033225
300.0032987
300.003252
300.0032017
300.0031585
300.0031249
300.0031101
300.0031171
300.0031244
300.0031164
300.0032431
300.003383
300.0033763
300.0033654
300.003346
300.0033236
300.0032954
300.0032697
300.0031247
300.0033035
300.0032566
300.0032418
300.0033434
300.0033744
300.0034723
300.0035912
300.0036122
300.0040089
300.0036065
300.0035918
300.003496
300.0034299
300.0033524
300.0033596
300.0034193
300.0033203
300.0032611
300.0032135
300.0031785
300.0031443
300.0031153
300.0031066
300.0031138
300.0031223
300.0032609
300.0033886
300.0033779
300.003367
300.0033497
300.0033295
300.0033025
300.0032791
300.0031425
300.0033061
300.0032772
300.0032616
300.0034103
300.0034374
300.0034341
300.0035731
300.0036415
300.0042347
300.003738
300.0038993
300.003579
300.0034052
300.0034238
300.0034485
300.0034253
300.0032913
300.0032236
300.0031787
300.0031624
300.0031554
300.0031439
300.0031315
300.003132
300.0031414
300.0032556
300.0033864
300.0033731
300.0033596
300.0033428
300.0033237
300.0032969
300.0032736
300.0031445
300.0033132
300.0032934
300.0032858
300.0034238
300.0035972
300.0035956
300.0039668
300.0037847
300.0060789
300.0034386
300.003841
300.0035282
300.0035401
300.0035164
300.0034202
300.0033818
300.003254
300.0031792
300.0031303
300.0031246
300.0031474
300.0031677
300.0031709
300.0031664
300.0031659
300.0032286
300.0033693
300.0033576
300.0033414
300.0033229
300.0033016
300.0032719
300.0032502
300.0031323
300.0033284
300.0033105
300.003301
300.0034004
300.0035303
300.0035962
300.0035864
300.0036353
300.0036652
300.001593
300.0011989
300.0034952
300.003574
300.003459
300.0033627
300.0033295
300.0032353
300.0031663
300.0031194
300.0031161
300.0031474
300.0031843
300.0032049
300.0031997
300.0031909
300.003178
300.0032558
300.0032941
300.0032906
300.0032773
300.0032616
300.0032437
300.0032453
300.0031471
300.0033409
300.0033295
300.0033187
300.0033599
300.0034379
300.0036729
300.0038687
300.0032392
300.001777
299.9991429
299.9906926
300.0014234
300.0034788
300.0035722
300.0034183
300.0033205
300.0032452
300.0031973
300.003163
300.0031603
300.003184
300.0032161
300.0032363
300.003226
300.0031908
300.0031424
300.0032006
300.0032944
300.0033184
300.0033377
300.0033534
300.0033592
300.0033634
300.0032463
300.0033636
300.0033481
300.003319
300.0032071
300.0031543
300.003375
300.0035037
300.0034105
300.0032116
300.0023788
300.0028826
300.0030489
300.0032138
300.0032667
300.0032941
300.0033051
300.0032431
300.0032233
300.0032082
300.0032058
300.0032172
300.0032397
300.0032643
300.003272
300.0032428
300.0031767
300.0031957
300.0033301
300.0033797
300.003415
300.0034343
300.0034311
300.0033585
300.0031422
300.003384
300.0033524
300.0032367
300.0029943
300.0030351
300.0031858
300.0033498
300.0033022
300.0033592
300.0028642
300.0033663
300.0030645
300.0032581
300.0033903
300.0034423
300.0034499
300.0033334
300.0033043
300.003294
300.003291
300.0032926
300.0033009
300.0033145
300.0033218
300.0032999
300.0032296
300.0032011
300.0033053
300.0033732
300.0034111
300.003407
300.0033234
300.0031863
300.0030726
300.0033723
300.0032367
300.002982
300.0028803
300.0032342
300.0031006
300.0031717
300.0032798
300.003411
300.0033893
300.0034862
300.0032088
300.0029847
300.003158
300.0033428
300.0034289
300.0033588
300.003315
300.0033115
300.0033244
300.0033382
300.0033519
300.003362
300.0033566
300.00332
300.0032443
300.0031893
300.003248
300.0033135
300.0033134
300.0032593
300.0032151
300.0032105
300.0031585
300.0033218
300.0031499
300.0030877
300.0032806
300.0040611
300.0033505
300.0031749
300.0032228
300.0033668
300.0033071
300.0033725
300.0032437
300.0030625
300.0029795
300.0030936
300.0032978
300.0033514
300.003339
300.0033452
300.003365
300.0033875
300.0034012
300.0033915
300.0033551
300.0032958
300.00322
300.0031468
300.0031319
300.003187
300.0032379
300.0032817
300.0033108
300.0033168
300.0032423
300.0034125
300.0033269
300.0032792
300.0032842
300.0037152
300.0034161
300.0033244
300.003278
300.0032764
300.0032873
300.0034062
300.0036204
300.0032372
300.0031213
300.0030587
300.0031105
300.0032511
300.0033297
300.0033716
300.0034056
300.0034127
300.0033782
300.0033103
300.003232
300.0031614
300.0031017
300.0030562
300.0031277
300.003255
300.0033381
300.0033785
300.0033913
300.0033828
300.0032972
300.003442
300.0034036
300.0033594
300.0032404
300.0034245
300.0033265
300.003266
300.0032793
300.0032987
300.0033307
300.0034761
300.0035065
300.003291
300.0032108
300.0031642
300.0032049
300.0032852
300.0033403
300.0033703
300.0033695
300.003338
300.0033035
300.0032764
300.0032275
300.0031653
300.003111
300.003126
300.0032208
300.00332
300.0034084
300.0034301
300.0034296
300.0034176
300.0033338
300.0034512
300.0034425
300.003403
300.0033141
300.0033239
300.0033071
300.0032373
300.0032923
300.0033288
300.0033185
300.0033792
300.0033561
300.0033611
300.0032883
300.0032392
300.0032043
300.0032095
300.003213
300.0032541
300.0033636
300.0034504
300.0034777
300.0034664
300.0034192
300.0033604
300.0032975
300.0032638
300.0032172
300.0033784
300.0034323
300.003456
300.0034509
300.0034421
300.0033628
300.0034476
300.0034522
300.0034185
300.0033756
300.0033568
300.0032821
300.003218
300.0033152
300.0033699
300.0033746
300.003366
300.0032993
300.0031906
300.0032175
300.0032915
300.0032059
300.0031329
300.0032057
300.0034074
300.0035636
300.0035757
300.0035654
300.0035432
300.003485
300.0034282
300.0033863
300.0033334
300.0033032
300.0033468
300.0034158
300.0034503
300.0034554
300.0034604
300.0033864
300.0034188
300.0034385
300.0034312
300.0033702
300.0033212
300.0031106
300.0031141
300.0031588
300.0032665
300.0033231
300.0033185
300.0033175
300.0032257
300.0032232
300.0033108
300.0034082
300.0033244
300.0032453
300.0032761
300.0034489
300.0036029
300.0036262
300.0036245
300.0036053
300.0035433
300.0034812
300.003433
300.0033976
300.0033416
300.0033074
300.0033372
300.003417
300.0034138
300.003456
300.0034055
300.0033634
300.0033791
300.0033479
300.0032287
300.0031351
300.0030351
300.0030386
300.0030816
300.0031499
300.0032019
300.0031834
300.003151
300.0031929
300.003267
300.0033879
300.0035164
300.0034302
300.0033356
300.0032698
300.0034204
300.0036464
300.0037057
300.0037395
300.0038678
300.0036174
300.0034939
300.003433
300.0034101
300.0033996
300.0033479
300.0032997
300.0032986
300.0033722
300.0034342
300.0033724
300.0033135
300.0032848
300.0032006
300.0031127
300.0030227
300.0029969
300.0030579
300.0030728
300.0031165
300.0031659
300.0031926
300.0032064
300.0032132
300.0032493
300.0033047
300.0033595
300.0032862
300.0032227
300.0032279
300.0033387
300.0035791
300.0036295
300.0036234
300.0035444
300.003468
300.0034297
300.0034299
300.0034438
300.0034493
300.0034062
300.0033547
300.0032863
300.0032881
300.0033488
300.0033079
300.0032022
300.0031425
300.0030638
300.0030293
300.0029856
300.003018
300.0030567
300.0030701
300.0031012
300.0031462
300.0031903
300.0032205
300.0032448
300.0032753
300.0032874
300.0032379
300.0032082
300.0032937
300.0033407
300.0030937
300.0034458
300.0035351
300.0035116
300.0034428
300.0034064
300.0034237
300.0034522
300.0034669
300.0034684
300.0034584
300.0034223
300.00334
300.0032218
300.0032207
300.0031721
300.0030001
300.0029448
300.0029386
300.0029432
300.0029918
300.0030056
300.0030096
300.0030528
300.0031241
300.0032139
300.0032975
300.0033515
300.0033374
300.0032935
300.0032369
300.0033453
300.0033807
300.0032932
300.0032626
300.0032782
300.003387
300.0033857
300.0034096
300.0034452
300.0034757
300.00349
300.0034883
300.0034801
300.0034682
300.0034538
300.0034188
300.0033284
300.0031954
300.0030833
300.0028706
300.0028313
300.002833
300.0028507
300.0028824
300.0028907
300.0029124
300.002981
300.0030755
300.0031773
300.0032595
300.0033097
300.0034108
300.0034185
300.0034225
300.003436
300.0034551
300.0034694
300.0034748
300.003465
300.0034097
300.0032907
300.0031459
300.0028176
300.0028518
300.0028611
300.002829
300.002823
300.0028882
300.0031122
300.0031659
300.0032138
300.0032447
300.0033016
300.0033577
300.0034121
300.0032819
300.0034111
300.0033291
300.0032439
300.0032784
300.0032314
300.003233
300.0032384
300.0032433
300.0032329
300.0032058
300.0031648
300.0031133
300.0030572
300.003005
300.0029624
300.0029303
300.0029023
300.0028803
300.0028775
300.002906
300.0029593
300.0030147
300.0030576
300.0030873
300.0031062
300.0031246
300.0032728
300.0032848
300.0032843
300.0033181
300.0033937
300.0035577
300.0033604
300.0032683
300.0036005
300.0032875
300.0032349
300.0032853
300.0032182
300.0032464
300.0032888
300.0033335
300.0033433
300.0033324
300.0033121
300.0032798
300.0032326
300.0031793
300.0031307
300.0030861
300.0030383
300.0029844
300.0029339
300.0029085
300.0029205
300.0029598
300.0030036
300.003039
300.0030637
300.0030842
300.0033244
300.0033335
300.003348
300.0033757
300.0034358
300.0036053
300.0032517
300.0032462
300.0034909
300.0032823
300.0032707
300.0032808
300.0032649
300.0032465
300.0032465
300.0033121
300.0033427
300.0033519
300.0033587
300.0033584
300.0033328
300.0032851
300.0032326
300.0031826
300.00313
300.0030685
300.0029995
300.0029383
300.0029073
300.0029117
300.0029376
300.0029688
300.0029944
300.0030068
300.003331
300.0033562
300.0033695
300.0033817
300.0034001
300.0036011
300.0032163
300.0031465
300.0035231
300.0031633
300.003215
300.0032582
300.0034285
300.0033745
300.0032861
300.003261
300.003291
300.003321
300.0033541
300.0033883
300.0033943
300.0033648
300.003315
300.0032595
300.0032016
300.0031382
300.0030693
300.0030004
300.002944
300.0029125
300.0029025
300.0029062
300.0029111
300.0028998
300.0033122
300.0033421
300.0033513
300.0033515
300.0033557
300.0035416
300.0032969
300.0032572
300.0033346
300.0032595
300.0032658
300.0032858
300.0034704
300.0033843
300.0033708
300.0032536
300.0032276
300.0032571
300.0033055
300.0033663
300.0034025
300.0034006
300.0033685
300.003319
300.00326
300.0031962
300.0031357
300.0030778
300.0030201
300.0029694
300.0029294
300.0028986
300.0028647
300.0028199
300.0032815
300.0033297
300.0033691
300.0033751
300.0033539
300.003409
300.0033634
300.0033748
300.0033063
300.0034076
300.0033262
300.0033042
300.0034377
300.0032605
300.0033686
300.0032614
300.0031826
300.0031833
300.0032397
300.0033201
300.0033776
300.003398
300.0033888
300.0033552
300.0033001
300.0032381
300.0031927
300.0031545
300.003106
300.0030506
300.0029995
300.0029505
300.0028912
300.0028093
300.0032482
300.0032918
300.0033566
300.003388
300.0033885
300.0033619
300.0033819
300.003381
300.0033321
300.0033998
300.003283
300.0032261
300.0033687
300.0031731
300.0032408
300.0031935
300.0031294
300.0031219
300.0031855
300.0032817
300.0033532
300.003388
300.0033941
300.0033739
300.0033197
300.0032622
300.003239
300.0032256
300.0031935
300.0031418
300.0030861
300.0030313
300.0029709
300.0028498
300.0032386
300.0032477
300.003324
300.0033717
300.0033849
300.0033791
300.003374
300.0033484
300.0032824
300.003362
300.0032524
300.0032279
300.0032123
300.003198
300.0032855
300.0032182
300.0031238
300.003098
300.0031684
300.0032727
300.0033471
300.0033834
300.0033944
300.0033793
300.0033205
300.0032736
300.0032781
300.0032928
300.0032876
300.0032541
300.0031989
300.0031299
300.0030643
300.0029108
300.0032696
300.0032187
300.0032882
300.0033504
300.0033663
300.0033621
300.0033469
300.0033091
300.0032572
300.003325
300.0032275
300.0032156
300.0032484
300.0033035
300.0032811
300.0031915
300.0031189
300.0031168
300.0031925
300.0032859
300.003348
300.0033768
300.0033868
300.0033692
300.0033062
300.0032808
300.0033132
300.0033498
300.0033571
300.0033385
300.0033066
300.0032387
300.0031575
300.0029708
300.0033287
300.0032258
300.0032654
300.0033397
300.003355
300.0033468
300.0033318
300.0033044
300.0033075
300.0033273
300.0032736
300.0032737
300.003307
300.0033048
300.0032452
300.0031778
300.0031645
300.0031846
300.0032504
300.003304
300.0033415
300.0033602
300.0033689
300.0033473
300.0032868
300.0032918
300.0033456
300.0033888
300.003399
300.003383
300.0033588
300.0033217
300.0032391
300.0030235
300.0033789
300.0032689
300.0032606
300.003333
300.0033513
300.0033521
300.0033697
300.0033563
300.0034556
300.0033596
300.0033215
300.0033296
300.0033177
300.003279
300.003217
300.0032286
300.0032557
300.0032682
300.0032989
300.0033134
300.0033291
300.0033381
300.0033432
300.0033228
300.0032742
300.0033097
300.0033697
300.0034053
300.0034152
300.0034076
300.0033906
300.0033642
300.0032963
300.0030659
300.0033976
300.0033256
300.0032859
300.0033454
300.0033615
300.0033808
300.0034747
300.0034501
300.0038105
300.0034577
300.0034126
300.0033624
300.0033047
300.0032464
300.0032413
300.0033388
300.0033645
300.0033365
300.0033132
300.0033137
300.0033204
300.0033224
300.0033257
300.0033097
300.0032761
300.0033311
300.0033763
300.0033923
300.0033983
300.0034012
300.0033996
300.0033824
300.0033264
300.0030938
300.0033995
300.0033653
300.0033366
300.0034034
300.0034047
300.0034047
300.0035254
300.0034953
300.0041835
300.0035267
300.0035389
300.0033643
300.0032488
300.0032564
300.0033229
300.0034263
300.0033745
300.0033499
300.0033172
300.0033137
300.003322
300.0033232
300.0033296
300.0033192
300.0032931
300.0033459
300.003363
300.0033562
300.0033575
300.0033718
300.0033873
300.0033838
300.0033311
300.003103
300.0033949
300.0033857
300.0033738
300.0034496
300.0035041
300.0034758
300.0037663
300.0033471
300.0019818
300.0032727
300.0032537
300.0031178
300.0031766
300.0032732
300.003349
300.003408
300.003355
300.0033387
300.0033246
300.0033194
300.0033325
300.0033363
300.003347
300.003346
300.0033182
300.0033467
300.0033408
300.0033209
300.0033229
300.0033471
300.0033744
300.0033777
300.0033165
300.003098
300.0033909
300.0033964
300.003391
300.0034783
300.0034893
300.0034837
300.0033982
300.0033192
300.0028316
300.0016587
300.0017604
300.0026661
300.0031702
300.0032916
300.003341
300.0033645
300.003337
300.0033356
300.0033299
300.0033228
300.00333
300.0033379
300.00335
300.003365
300.0033447
300.0033234
300.0033236
300.0033053
300.0033154
300.0033501
300.0033851
300.0033848
300.0033065
300.003106
300.0033867
300.0033979
300.0033915
300.003477
300.0034582
300.0034796
300.0034377
300.0030538
300.0028817
300.0028147
300.0051186
300.0021286
300.0027983
300.0032011
300.0032703
300.0033138
300.0033057
300.0033385
300.0033552
300.0033525
300.0033489
300.0033468
300.0033501
300.0033553
300.0032945
300.0032214
300.0032906
300.003307
300.0033389
300.0033919
300.0034362
300.0034145
300.0033053
300.003122
300.0033864
300.0034115
300.0033764
300.0035233
300.0033114
300.0033721
300.0033288
300.0032497
300.0031823
300.0024444
300.002837
300.0031594
300.0032036
300.0032739
300.0033011
300.0032952
300.0032543
300.0032943
300.0033319
300.0033421
300.0033401
300.0033411
300.0033466
300.0033478
300.0032831
300.0031945
300.0032836
300.0033319
300.0033845
300.0034386
300.0034444
300.0033493
300.0032104
300.0030368
300.0034192
300.0034159
300.0033677
300.0036103
300.0032967
300.0033583
300.0032082
300.0032063
300.0032335
300.0028959
300.0031433
300.0030473
300.0031071
300.0032701
300.0033074
300.0033663
300.0033066
300.0033103
300.0033501
300.0033855
300.0034048
300.0034017
300.0033765
300.0033422
300.0032833
300.0031989
300.0032321
300.003279
300.0033233
300.0033404
300.0032961
300.0032255
300.0031368
300.0030409
300.0034077
300.0034782
300.0034402
300.0036401
300.0033687
300.0032894
300.0030926
300.0032242
300.0033486
300.0033428
300.0033862
300.003506
300.0032943
300.0033195
300.0033209
300.003426
300.0033997
300.0033615
300.0033707
300.0033877
300.0033824
300.0033673
300.0033394
300.0033038
300.0032639
300.0031941
300.0031692
300.0031751
300.0031879
300.0031963
300.0031982
300.0031971
300.0032037
300.0031373
300.0033779
300.0034067
300.0034029
300.0035799
300.0039889
300.0031406
300.0030604
300.0032121
300.0033722
300.0033863
300.0034084
300.0033589
300.0033754
300.0035605
300.003446
300.0034469
300.0034512
300.0034225
300.0033922
300.0033431
300.0032877
300.003273
300.0032691
300.003251
300.0032167
300.0031579
300.0030886
300.0030486
300.0031062
300.0031924
300.0032595
300.0033027
300.0033185
300.0032239
300.003425
300.0034118
300.0033762
300.0034486
300.0036951
300.0032919
300.0032037
300.0033032
300.0033624
300.003355
300.0033071
300.0035246
300.003235
300.0033971
300.0033953
300.0034024
300.0033971
300.0033707
300.0033446
300.0033116
300.0032689
300.0032219
300.0031753
300.0031273
300.0030848
300.0030405
300.0029984
300.0030599
300.0031976
300.003307
300.0033726
300.0034053
300.0034088
300.0032918
300.0033997
300.0033658
300.0032967
300.0032936
300.0032544
300.0031974
300.0032006
300.0033195
300.0033538
300.0034142
300.0034082
300.0034098
300.0033736
300.0033317
300.0032903
300.0033226
300.0033408
300.0033018
300.0032879
300.0032496
300.0031954
300.003171
300.0031311
300.0030775
300.0030239
300.0030007
300.0030763
300.0032332
300.0033492
300.0034312
300.0034608
300.0034776
300.0034735
300.0033474
300.0033541
300.0033134
300.0032901
300.0032797
300.0031676
300.0032131
300.0032183
300.003315
300.0033593
300.0033489
300.0033862
300.0033328
300.0032714
300.0032471
300.0032296
300.0031739
300.0031824
300.0031172
300.0031501
300.0032266
300.0032572
300.0032867
300.0032758
300.0032334
300.0032117
300.0031939
300.0032743
300.003276
300.0034701
300.003533
300.0035164
300.0035109
300.0035132
300.0033938
300.0032765
300.0032509
300.0032404
300.0032336
300.0030879
300.0031581
300.0031943
300.0033415
300.0033488
300.0033802
300.0033819
300.0033301
300.0032954
300.0032785
300.0033012
300.0032062
300.0031485
300.0032134
300.0033221
300.003405
300.0034536
300.0034753
300.0034354
300.0033398
300.0033233
300.0033065
300.00331
300.0033845
300.0034498
300.0034805
300.0034897
300.003502
300.0035243
300.0034268
300.0032673
300.0032132
300.0032138
300.0031833
300.0031511
300.0029789
300.0030596
300.0031196
300.0032145
300.0032742
300.0032744
300.0032587
300.0032039
300.0032363
300.0033494
300.0034799
300.0033785
300.0033081
300.0032983
300.0034288
300.0035277
300.0035716
300.0035761
300.0035352
300.0034568
300.0034006
300.0033889
300.0033455
300.0033458
300.003411
300.0034422
300.0034546
300.0034947
300.0035235
300.0034452
300.0032139
300.0031941
300.0031891
300.0031136
300.003078
300.0030815
300.0031391
300.0030744
300.003131
300.0031798
300.0032147
300.0032282
300.0032374
300.0033008
300.0034238
300.0035892
300.0034787
300.003395
300.0033703
300.0034615
300.0035739
300.0036242
300.0035512
300.0034997
300.0035397
300.0034761
300.0034471
300.003446
300.0033604
300.003291
300.0032898
300.0033733
300.0034613
300.0035385
300.0034105
300.0031775
300.0032053
300.0031902
300.0031457
300.0030744
300.0031271
300.0031856
300.0031432
300.0031823
300.003232
300.0032858
300.003326
300.0033249
300.0033418
300.0033713
300.0034023
300.0033885
300.0033727
300.0033782
300.0034051
300.0035275
300.003581
300.0036391
300.0035342
300.003496
300.0034981
300.0034939
300.0035187
300.0034484
300.0033974
300.0032907
300.0032747
300.0033206
300.0033938
300.0033074
300.0031031
300.0031397
300.0031241
300.0031181
300.0030837
300.0031298
300.0031894
300.0031781
300.003204
300.0032438
300.0032951
300.0033304
300.0033544
300.0033716
300.003412
300.00336
300.0033732
300.0033826
300.003397
300.0032495
300.0035043
300.0033754
300.0034149
300.0034406
300.0034747
300.0035086
300.0035356
300.0035531
300.003532
300.0034692
300.0033581
300.0032765
300.0032463
300.0032399
300.0031401
300.0030333
300.0030184
300.0030196
300.0030375
300.0030846
300.0030937
300.0030811
300.0031055
300.0031664
300.0032706
300.0033663
300.0034228
300.0034063
300.0033862
300.003381
300.0034048
300.0034406
300.0033286
300.0033134
300.0032532
300.0033389
300.0034116
300.0034584
300.0034914
300.0035165
300.0035342
300.003545
300.0035406
300.0035219
300.0034428
300.0033294
300.003211
300.0030887
300.0030396
300.0029493
300.0029332
300.0029307
300.0029393
300.0029485
300.0029429
300.0029455
300.0029872
300.0030641
300.0031801
300.0032925
300.0033605
300.0035119
300.0035119
300.0035009
300.0034864
300.0034763
300.0034612
300.0034075
300.0033147
300.003205
300.0031353
300.0030999
300.0028997
300.0029066
300.0029029
300.0028725
300.0028504
300.0028782
300.003013
300.0030485
300.0030993
300.0031409
300.0031964
300.0032403
300.0032444
300.0032327
300.0032849
300.0032526
300.0031666
300.0031564
300.0031289
300.0031271
300.0031255
300.0031215
300.0031073
300.0030809
300.0030394
300.0029839
300.0029237
300.0028734
300.0028454
300.0028325
300.002833
300.0028512
300.002896
300.0029648
300.0030387
300.0030994
300.0031421
300.0031708
300.0031889
300.0032077
300.0032019
300.0032318
300.0032534
300.0032601
300.0032916
300.0033504
300.0032773
300.0033019
300.0031484
300.0032921
300.003272
300.0032819
300.0032485
300.0032566
300.0032578
300.0032555
300.0032437
300.0032287
300.0032027
300.0031554
300.003092
300.0030318
300.0029882
300.0029607
300.0029356
300.002913
300.002907
300.002931
300.0029823
300.0030409
300.0030893
300.0031238
300.0031484
300.0031708
300.0032879
300.0033271
300.0033475
300.0033388
300.0033296
300.003386
300.0032362
300.0032035
300.0032135
300.0031129
300.0032802
300.0033271
300.0033025
300.0033204
300.003314
300.0033047
300.0032908
300.0032899
300.0032895
300.0032624
300.0032051
300.0031426
300.0030944
300.0030547
300.0030124
300.0029664
300.002926
300.0029094
300.0029278
300.0029706
300.0030172
300.0030551
300.003084
300.0030994
300.0033155
300.0033561
300.0033662
300.0033285
300.0032392
300.0034048
300.003191
300.0031415
300.0032516
300.0029466
300.0032959
300.0033352
300.0032992
300.0033217
300.0033433
300.0033241
300.003301
300.0033087
300.0033355
300.0033421
300.0033073
300.0032488
300.0031905
300.0031359
300.0030803
300.0030223
300.0029652
300.0029207
300.0029041
300.0029173
300.0029446
300.0029713
300.0029897
300.0029787
300.0033056
300.0033428
300.0033443
300.0032969
300.0032163
300.0034023
300.003206
300.0031699
300.0032671
300.0029715
300.0032264
300.0032601
300.0032039
300.0031882
300.0032992
300.0033097
300.0032801
300.0032842
300.0033288
300.0033703
300.0033766
300.0033419
300.0032834
300.0032177
300.0031515
300.0030863
300.0030231
300.0029663
300.0029257
300.002908
300.0029043
300.0029032
300.002891
300.0028473
300.0032772
300.003315
300.0033302
300.0033046
300.0032568
300.003362
300.0032972
300.0032922
300.0030838
300.0031705
300.0032146
300.0031233
300.0031256
300.0030097
300.00321
300.0032642
300.0032366
300.0032268
300.0032781
300.0033369
300.0033744
300.0033778
300.0033433
300.0032849
300.0032178
300.0031509
300.0030889
300.0030296
300.0029765
300.0029373
300.0029083
300.0028796
300.0028379
300.002774
300.0032455
300.0032788
300.0033157
300.0033205
300.0033017
300.0032796
300.0033102
300.0032701
300.0031733
300.0031881
300.0031061
300.0029831
300.0030716
300.002964
300.0031697
300.0032286
300.003173
300.0031534
300.0032155
300.0032871
300.0033361
300.0033626
300.0033593
300.003324
300.0032682
300.0032081
300.0031542
300.0030967
300.0030367
300.0029847
300.0029417
300.0029017
300.0028505
300.0027701
300.0032308
300.0032424
300.0032887
300.003304
300.0033007
300.0032834
300.0032565
300.0031868
300.0031059
300.0031292
300.0030118
300.0029459
300.0030286
300.0030162
300.0031736
300.0032038
300.0031115
300.003094
300.0031706
300.0032507
300.003305
300.0033391
300.0033545
300.0033415
300.0033011
300.0032549
300.003217
300.0031653
300.0031013
300.0030415
300.0029925
300.0029534
300.0029103
300.0028037
300.0032466
300.0032195
300.003262
300.0032797
300.0032715
300.0032472
300.0032029
300.0031202
300.0030707
300.0030966
300.0030124
300.002997
300.0030595
300.003198
300.0032716
300.0031729
300.0030673
300.0030749
300.0031637
300.0032373
300.003288
300.0033218
300.0033419
300.0033458
300.0033184
300.0032918
300.0032773
300.0032446
300.0031952
300.0031312
300.0030655
300.0030263
300.0029894
300.002853
300.0032889
300.0032237
300.0032464
300.0032649
300.0032485
300.0032163
300.0031745
300.0031082
300.0031003
300.0031154
300.0030815
300.0030906
300.003199
300.0032769
300.0032418
300.003132
300.0030724
300.0031058
300.0031901
300.0032408
300.0032776
300.0033057
300.0033266
300.0033406
300.0033229
300.0033171
300.0033264
300.0033223
300.0033043
300.0032642
300.0031955
300.003119
300.0030723
300.0029039
300.003336
300.0032564
300.0032481
300.0032658
300.0032412
300.0032077
300.0031929
300.0031533
300.0031768
300.0031695
300.0031771
300.0032164
300.0032741
300.0032498
300.0031764
300.0031264
300.0031168
300.0031597
300.003219
300.0032439
300.0032652
300.0032872
300.0033098
300.0033304
300.0033209
300.0033278
300.0033358
300.0033403
300.0033412
300.0033267
300.0032929
300.0032262
300.0031512
300.0029502
300.003369
300.0033049
300.0032732
300.0032841
300.0032526
300.0032212
300.0032446
300.0032083
300.0030963
300.0032556
300.0033265
300.003313
300.0032561
300.0031864
300.0031451
300.0031696
300.0031784
300.0032062
300.0032376
300.0032435
300.0032519
300.0032686
300.0032941
300.0033208
300.0033173
300.0033172
300.0033167
300.0033166
300.0033242
300.003332
300.0033261
300.0032998
300.0032126
300.0029868
300.0033805
300.0033511
300.0033223
300.0033265
300.003296
300.0032469
300.0032895
300.0031717
300.002215
300.0033745
300.0034721
300.0033209
300.0032309
300.0032037
300.0032243
300.0032837
300.0032532