/*--------------------------------*- C++ -*----------------------------------*\
  =========                 |
  \\      /  F ield         | OpenFOAM: The Open Source CFD Toolbox
   \\    /   O peration     | Website:  https://openfoam.org
    \\  /    A nd           | Version:  8
     \\/     M anipulation  |
\*---------------------------------------------------------------------------*/
FoamFile
{
    version     2.0;
    format      ascii;
    class       scalarField;
    location    "1.1/lagrangian/reactingCloud1";
    object      mass0;
}
// * * * * * * * * * * * * * * * * * * * * * * * * * * * * * * * * * * * * * //


127
(
1.093274055e-07
1.351229427e-07
7.811607479e-08
1.051257692e-07
1.032319948e-07
2.165335985e-07
1.115353296e-07
5.170181016e-07
4.124966139e-07
1.096956192e-07
1.527346925e-07
7.497618555e-08
1.45224972e-07
2.90332099e-07
7.027934616e-08
1.126011688e-07
8.705024761e-07
7.804018762e-08
8.538873938e-07
2.074568128e-07
3.863802407e-07
2.677526815e-07
1.478397797e-07
7.531805296e-08
1.416269855e-07
1.649061279e-07
1.715988455e-07
1.680427705e-07
1.486187407e-07
1.560302046e-07
1.16789985e-07
2.172237605e-07
1.911846423e-07
1.495673708e-07
8.463659745e-07
3.728462263e-07
9.484094899e-08
1.17378205e-07
4.774686908e-07
1.173517456e-07
9.142992718e-08
1.622788935e-07
1.039882453e-07
1.502898766e-07
1.23960487e-07
1.053859743e-07
1.12782599e-07
1.669072562e-07
1.974394778e-07
2.300445499e-07
7.845942758e-08
6.698374163e-08
2.032558795e-07
9.112587691e-08
1.376615795e-07
2.29151611e-07
8.175368778e-08
2.469345454e-07
1.139406399e-07
1.277616887e-07
2.053235641e-07
4.911958096e-07
8.457317035e-08
7.807971437e-07
8.750964096e-07
9.279515989e-08
6.89520213e-08
8.614754972e-08
3.409194763e-07
1.208616128e-07
9.427256152e-08
3.911816883e-07
3.841798456e-07
2.499806408e-07
9.257943328e-08
2.780018412e-07
1.795021452e-07
1.584604132e-07
1.497779367e-07
6.27809167e-07
2.410746118e-07
3.423697536e-07
7.897674472e-08
2.751094583e-07
1.506045344e-07
3.821443725e-07
2.754759586e-07
7.545040486e-07
9.77398675e-08
5.379938093e-07
2.110099044e-07
5.536799034e-07
7.60686375e-08
8.187407421e-08
1.343761643e-07
1.105840092e-07
8.254112247e-08
7.936473614e-07
7.579891264e-08
6.980927313e-07
1.73559888e-07
8.646549428e-07
1.094714036e-07
9.020735622e-08
7.578312466e-08
1.365864224e-07
5.919031824e-07
1.677953914e-07
5.460257411e-07
2.725976197e-07
1.974774889e-07
1.099770656e-07
8.607910616e-08
7.538288805e-08
1.464618932e-07
9.535010935e-08
4.204389865e-07
1.45215639e-07
1.180259944e-07
5.531108062e-07
2.061604151e-07
2.49210867e-07
1.248706314e-07
7.663880368e-08
6.966712927e-08
1.034823958e-07
1.127050457e-07
)


// ************************************************************************* //
