/*--------------------------------*- C++ -*----------------------------------*\
  =========                 |
  \\      /  F ield         | OpenFOAM: The Open Source CFD Toolbox
   \\    /   O peration     | Website:  https://openfoam.org
    \\  /    A nd           | Version:  8
     \\/     M anipulation  |
\*---------------------------------------------------------------------------*/
FoamFile
{
    version     2.0;
    format      ascii;
    class       labelField;
    location    "1.1/lagrangian/reactingCloud1";
    object      origId;
}
// * * * * * * * * * * * * * * * * * * * * * * * * * * * * * * * * * * * * * //


127
(
640
643
659
683
682
644
681
684
680
677
675
676
673
672
669
671
642
668
670
667
666
474
645
476
665
478
479
664
481
486
488
647
491
492
662
674
649
495
685
650
696
500
660
678
694
652
658
695
657
655
661
698
510
517
456
703
759
473
704
758
769
468
708
548
549
550
639
551
763
764
553
554
470
556
722
772
557
770
563
565
291
569
218
239
571
572
776
574
636
576
819
578
824
293
220
581
752
767
582
583
783
238
784
785
781
787
780
788
827
585
228
830
789
833
586
834
242
588
520
589
504
590
768
591
592
593
594
)


// ************************************************************************* //
