/*--------------------------------*- C++ -*----------------------------------*\
  =========                 |
  \\      /  F ield         | OpenFOAM: The Open Source CFD Toolbox
   \\    /   O peration     | Website:  https://openfoam.org
    \\  /    A nd           | Version:  8
     \\/     M anipulation  |
\*---------------------------------------------------------------------------*/
FoamFile
{
    version     2.0;
    format      ascii;
    class       vectorField;
    location    "1.1/lagrangian/reactingCloud1";
    object      U;
}
// * * * * * * * * * * * * * * * * * * * * * * * * * * * * * * * * * * * * * //


127
(
(-0.1129623425 -0.4823342915 -2.101695225)
(0.1673571619 -0.3787886394 -2.11515068)
(-0.06765533901 -0.779956421 -2.024936261)
(0.113367886 -0.5110320764 -2.052998569)
(0.1159140121 -0.5075403193 -2.055827885)
(0.1668110877 -0.364385915 -2.145614666)
(0.1178298482 -0.5068944636 -2.064121814)
(0.09083576446 -0.573492687 -2.112027943)
(0.1128113787 -0.5363465356 -2.131821162)
(0.1294671359 -0.4882353504 -2.077239758)
(0.13260134 -0.4884660716 -2.09985334)
(0.1358665534 -0.4695354884 -2.051340858)
(0.1373909341 -0.4788805587 -2.097584066)
(0.1395242921 -0.4842749659 -2.135432238)
(0.2117021552 -0.6697450815 -1.937334766)
(0.1512928334 -0.4467945166 -2.078074606)
(0.2496171167 -0.3521255677 -2.251801699)
(0.164978207 -0.4018869184 -2.043641505)
(0.1523576812 -0.4629425008 -2.184061086)
(0.1649221483 -0.4176327999 -2.124223469)
(0.1704154488 -0.4086419177 -2.1592131)
(0.8223816252 0.0512518019 -1.71006092)
(0.1729613511 -0.3200937547 -2.066060225)
(0.5760708549 0.01781462848 -1.652388541)
(0.1762847507 -0.3721204965 -2.077469691)
(0.5972888166 0.1031420861 -1.711858205)
(0.5370647429 0.02619151006 -1.68720202)
(0.1818229308 -0.3533245415 -2.079859806)
(0.3571357147 0.08425462136 -1.662459068)
(0.3179659934 0.07003208257 -1.612816149)
(0.295814702 0.05643415851 -1.57225666)
(0.1852009433 -0.2867499492 -2.090873237)
(0.2883855731 0.05011971356 -1.568919935)
(0.441907532 -0.6854369905 -3.10112223)
(0.2021256201 -0.3027420396 -2.186555358)
(-0.09351417327 -0.5829611257 -2.088273973)
(0.1843967833 -0.2459809359 -1.978930728)
(0.2651458047 0.03326049632 -1.501626721)
(-0.1856450356 -0.5270893617 -2.055977526)
(0.1915084989 -0.225014285 -2.001376618)
(-0.2023767992 -0.5068262297 -1.878204816)
(0.2538094295 0.03127490482 -1.446576807)
(0.1971826437 -0.2254425898 -2.000667605)
(-0.1105086487 -0.4113420466 -1.922180391)
(-0.1100023588 -0.4659679235 -1.883578079)
(0.1946790318 -0.2070147595 -1.988516364)
(0.199431774 -0.212979051 -2.010126026)
(-0.224144895 -0.466518732 -1.899969485)
(0.2050057939 -0.2042850482 -2.051858242)
(0.2055859827 -0.2017190391 -2.062039602)
(-0.1075166751 -0.2748649209 -1.688664631)
(-0.1339432611 -0.344800011 -1.711073178)
(0.4238565125 -0.8817027973 -2.740928621)
(0.4070089305 -0.9729617823 -2.567855924)
(0.09214120429 -0.9432195423 -3.230295227)
(-0.04607861883 -0.1512472368 -1.61373832)
(1.108094603 -0.7076436007 -1.055406406)
(0.626841528 -0.2444024206 -3.319167423)
(-0.2284145221 -0.3309719647 -1.698105644)
(1.060154939 -0.7638723509 -1.132714141)
(1.401804321 -0.824515077 -1.02143679)
(0.9783064652 -0.1487111999 -3.189872247)
(-0.2291500717 -0.3242702538 -1.685657852)
(1.193021931 -0.1823863099 -2.095150466)
(0.6885442971 0.03177990091 -0.6342510944)
(0.443243442 0.0007634302488 -0.6277411096)
(-0.2017569387 -0.3075468632 -1.84376366)
(0.4838160463 -0.000161141128 -0.6283843823)
(0.6366288609 -0.9149328678 -1.147121408)
(1.046768256 -0.7957083904 -1.079649434)
(0.4244699532 0.06855818005 -0.6066622949)
(0.09887813214 -0.5506850167 -2.43808083)
(0.7910095612 -0.1673141627 -3.325709924)
(-0.1816504168 -0.5070550153 -2.412654696)
(-0.2500796152 -0.3424180434 -1.637347359)
(0.5481183498 -0.8078956219 -1.073474645)
(0.02228138439 0.1222486713 -2.482362712)
(0.1216903167 -0.6763631101 -1.102063727)
(0.6378344485 0.01835251396 -0.4826486075)
(0.306704015 0.001208085351 -0.45175004)
(0.1348502301 -0.1288648593 -2.02529107)
(0.7656225044 -0.9549909832 -1.89968036)
(0.118888221 -0.1387969443 -1.70686289)
(0.209386075 -0.1731975451 -2.002884546)
(0.5357404852 0.2143378685 -2.261809794)
(0.8537166508 -0.8023244615 -1.94114389)
(0.0921762669 -0.5751594728 -0.965531239)
(0.2420830661 -1.019938073 -2.008190707)
(-0.2398169193 -0.2756289286 -1.870600198)
(-0.2495006293 -0.3752266586 -2.238255247)
(0.345598206 0.08069585584 -0.5040330426)
(-0.1418111316 -0.4210839185 -2.209419622)
(-0.01008642912 -0.5834895052 -0.4859945314)
(0.116287522 -0.1039280406 -1.664898404)
(0.1070357451 -0.09496209126 -2.015839958)
(1.109761672 -0.365184381 -1.792367218)
(-0.0478589233 -0.288918795 -1.388399078)
(0.2727056551 -0.5472125246 -1.119132782)
(0.2052966917 -0.4091042868 -2.123588808)
(0.3441522891 0.03210154936 -0.1914028477)
(0.2687888235 -0.4226868452 -0.9225245723)
(0.2122590777 0.01783269119 -2.051340733)
(0.2790034939 -0.4208475971 -0.9195261924)
(0.2868515426 -0.4208903105 -0.9146849198)
(0.2502213236 -0.4040798223 -0.9395130747)
(0.2997100201 -0.4300730704 -0.9001151708)
(0.2275546475 -0.4121923999 -0.9300619078)
(0.3125980921 -0.4365478796 -0.8846706382)
(0.0244344129 -0.498005745 -0.414265352)
(1.247378139 0.3531333239 -1.647547799)
(0.1185364182 -0.161406799 -1.921976322)
(0.01688709126 -0.4907546617 -0.4073173302)
(0.3152238772 -0.4265930095 -0.8845813592)
(0.01452478394 -0.4913481596 -0.4003550906)
(0.5304093445 0.06450624919 -0.1431114686)
(0.017662473 -0.4835746347 -0.3887233719)
(0.1812691859 -0.1486980343 -1.995704671)
(0.6061746292 1.095041851 -1.657022761)
(-0.1624392023 -1.047869015 -2.496907613)
(0.5016417702 1.086468685 -1.697442305)
(-0.0196846236 -0.7126605323 -3.096025576)
(-0.1127889224 1.363898816 -1.526678088)
(-0.1852218432 -0.4914537976 -0.9857751585)
(-0.3182758943 0.2668836556 -2.011674743)
(0.1347154888 0.676876117 -1.914419547)
(0.3494791103 0.8261285381 -1.806830898)
(-0.7517090865 0.1949430436 -1.84547566)
)


// ************************************************************************* //
