/*--------------------------------*- C++ -*----------------------------------*\
  =========                 |
  \\      /  F ield         | OpenFOAM: The Open Source CFD Toolbox
   \\    /   O peration     | Website:  https://openfoam.org
    \\  /    A nd           | Version:  8
     \\/     M anipulation  |
\*---------------------------------------------------------------------------*/
FoamFile
{
    version     2.0;
    format      ascii;
    class       scalarField;
    location    "0.4/lagrangian/reactingCloud1";
    object      age;
}
// * * * * * * * * * * * * * * * * * * * * * * * * * * * * * * * * * * * * * //


274
(
0.2858769679
0.2635139248
0.2613313157
0.2578391411
0.2563113147
0.2547004724
0.2493591551
0.2493591551
0.2473771767
0.2462383555
0.2589304457
0.2400314559
0.2394102633
0.2535309732
0.2283552009
0.2238100572
0.2225702672
0.2209830237
0.2203839478
0.2131950885
0.2114109058
0.2065069817
0.2181919684
0.2097571513
0.195631194
0.2142768831
0.206138662
0.2035007115
0.1797437954
0.1676989107
0.1666963611
0.1655761035
0.1741662814
0.1719851198
0.1840888969
0.156104958
0.1749636208
0.1516792339
0.1717496814
0.1510997153
0.1501603086
0.1942715087
0.1496818311
0.1475766887
0.166107325
0.166107325
0.1463562111
0.1443132038
0.1581111493
0.1411970428
0.1569315221
0.1405405163
0.1635148426
0.1520914498
0.1764136567
0.1260148657
0.1252762733
0.1901354782
0.124700711
0.1198770031
0.1695605415
0.1164273023
0.1162427258
0.1160565582
0.1153007679
0.1281485771
0.1120439083
0.2409054073
0.1105247955
0.1094007882
0.1090942407
0.1084811459
0.1083789634
0.1081745984
0.1061309488
0.1056200364
0.1050069415
0.1043938467
0.1042916642
0.1040872992
0.1033720218
0.1020436496
0.1012042935
0.1010948123
0.1009853311
0.1
0.09846517119
0.09693034238
0.09645808737
0.09622195986
0.09574970484
0.1121451177
0.09397874852
0.09291617473
0.09279811098
0.09235614203
0.09218887905
0.09218887905
0.09210231673
0.1301181568
0.1141375553
0.09092217792
0.0901920404
0.09011462234
0.0898855121
0.08929451944
0.08723598706
0.08672300433
0.08618980952
0.08524913316
0.08423780168
0.09622195986
0.08357677499
0.08338150057
0.08117482909
0.08059422989
0.07871874535
0.07842182769
0.2115739187
0.07752917784
0.1260969315
0.07651569891
0.07299398681
0.09421487603
0.07167985611
0.07090332434
0.07066439148
0.07048519184
0.06952946043
0.0961038961
0.0657663762
0.06558841534
0.06529398015
0.08211665663
0.06500133993
0.06429966862
0.06400536139
0.06400536139
0.06335028705
0.06317099379
0.06275264283
0.06233429188
0.06227452746
0.06173664766
0.06113900345
0.06054135923
0.06012300828
0.05916677753
0.05838984005
0.05599926318
0.05564067665
0.05486373916
0.05432585937
0.05420633052
0.06606493405
0.05247316229
0.05151693154
0.05079975848
0.05073999406
0.05002239411
0.0490469067
0.0490469067
0.04817196687
0.04734484973
0.04488379472
0.198954869
0.04417828885
0.04374756041
0.04331045136
0.04322976093
0.04318924569
0.06809586331
0.04264508485
0.04233693467
0.04124957166
0.04124957166
0.04061269622
0.04041649962
0.04036745047
0.04026935217
0.1161499103
0.03997487716
0.03987665879
0.03943467612
0.03928734856
0.03914002101
0.03889447508
0.05211457576
0.03884536589
0.03850160159
0.03845249241
0.03840338322
0.03825605566
0.0841167937
0.03810872811
0.03805961892
0.03771585462
0.03761763625
0.03697921684
0.03688099846
0.03663545254
0.03629168824
0.03580059638
0.03516217696
0.03378711977
0.03373801058
0.03363979221
0.03309959117
0.03300137279
0.03290315442
0.03255939012
0.05611879202
0.03113522374
0.03098789618
0.03084056862
0.03044769514
0.02976016654
0.02917085631
0.02637163272
0.0247510296
0.02465281122
0.02450548367
0.0244072653
0.02411261018
0.02367062751
0.02347377722
0.02237498077
0.02226475919
0.02176876208
0.02055632469
0.01950921968
0.01928877652
0.03005482165
0.01824167151
0.01818656072
0.0177456744
0.01763545282
0.02809045422
0.0166434586
0.03408177488
0.01603723991
0.0155412428
0.01526568885
0.01493273152
0.01436128492
0.01428648657
0.01378522815
0.0125704848
0.01225881988
0.01215493158
0.01173937836
0.01142771345
0.01121993684
0.01059660702
0.01038883041
0.0101810538
0.009661612282
0.009453835674
0.009142170761
0.192171496
0.008518840937
0.007791622808
0.199859944
0.02006032758
0.006025521638
0.005609968422
0.004882750293
0.004063611523
0.003874606336
0.002553856256
0.001453762542
0.001453762542
0.0006922678769
0.0006922678769
)


// ************************************************************************* //
