/*--------------------------------*- C++ -*----------------------------------*\
  =========                 |
  \\      /  F ield         | OpenFOAM: The Open Source CFD Toolbox
   \\    /   O peration     | Website:  https://openfoam.org
    \\  /    A nd           | Version:  8
     \\/     M anipulation  |
\*---------------------------------------------------------------------------*/
FoamFile
{
    version     2.0;
    format      ascii;
    class       scalarField;
    location    "0.4/lagrangian/reactingCloud1";
    object      d;
}
// * * * * * * * * * * * * * * * * * * * * * * * * * * * * * * * * * * * * * //


274
(
0.0005008881275
0.0006314915633
0.0005359989418
0.0006825346606
0.0005422732665
0.0007905071563
0.0007115236446
0.0006488612148
0.001044933881
0.0006233571696
0.0005129687218
0.0006183914934
0.0005003174016
0.0005216235091
0.0007191508156
0.0006035632653
0.0006029782903
0.000559412244
0.0006043836141
0.0007722289343
0.0005506456707
0.0006932736462
0.0007590051002
0.0005533372963
0.0007457144778
0.0005724247778
0.0006635501751
0.0005723554868
0.0007833936592
0.0007669265336
0.0005018408886
0.0005246938508
0.0006906261129
0.0005856343663
0.0007443006471
0.0005101829668
0.0006401220959
0.0005772536987
0.0006622572468
0.0005151211486
0.0006179398274
0.0007605674901
0.0006419450989
0.0006119023409
0.0006577083602
0.000524916601
0.0008758787022
0.0007772549941
0.0006119023409
0.0007706150403
0.001122597136
0.001156563691
0.0006021729306
0.0006542514865
0.0006236820255
0.0008892429358
0.001190654841
0.0006924267827
0.0006434573852
0.0009752225296
0.0006488833965
0.0007725225321
0.0007442184151
0.0009475076531
0.0006087606697
0.000504801141
0.0009471794099
0.00102211911
0.0007531709922
0.0006688694871
0.0005677458533
0.0005419113158
0.0006269801282
0.0007069514233
0.0008491885094
0.0008803412941
0.0005391524846
0.0005028992971
0.0005528881865
0.0007612701702
0.0007455892949
0.0005746176783
0.0009772847138
0.0006104332912
0.0005119278878
0.0006179203652
0.000655050375
0.0006830618771
0.0008167107779
0.0008047741376
0.0005292681958
0.000954229075
0.0007196665056
0.0005329984212
0.0005205148496
0.0007302204781
0.0007485137379
0.0005469682727
0.0005529377123
0.0006538555129
0.000533506078
0.0006073430592
0.000609695492
0.0005412691686
0.0006642675781
0.0005304343079
0.0006867966873
0.0007224420211
0.0007374660115
0.000572335655
0.0009880435676
0.0008018479559
0.0005641831787
0.0006445070442
0.0006463909097
0.0007734973711
0.0007260445281
0.000671063491
0.0005743023327
0.0007245047931
0.0005516653332
0.000506941758
0.001085426407
0.0009730315248
0.0005393846479
0.001076199153
0.0005182589234
0.0005397353759
0.0005878973422
0.0009189999812
0.0009654282493
0.001195140168
0.0005048081873
0.0005385184109
0.0006386895049
0.0007492071388
0.00076604103
0.0005190900642
0.0006796241501
0.0009516522836
0.000664944017
0.000567605943
0.0005459647634
0.0009099588627
0.0005855515813
0.000601696284
0.0005497702645
0.001065416873
0.0005705998516
0.0009736043411
0.001132919427
0.0006149808915
0.0005535305288
0.0008173086147
0.0005818154279
0.0008169823009
0.0009195627436
0.0005841030085
0.0008201065695
0.0005769933958
0.000821908225
0.0006091005973
0.0006334310926
0.001131238929
0.0009965955933
0.0006426045109
0.0005374039885
0.0008833395557
0.0005746543661
0.001038935975
0.001036667327
0.0009116060793
0.000512611143
0.0010970688
0.0005643190777
0.0006514297036
0.001004132008
0.0005584542003
0.001079688555
0.00071262422
0.0005260068465
0.0005862508271
0.0005260068465
0.00081416291
0.0007104037737
0.0007850456047
0.0005378097254
0.0006252399996
0.0005855970064
0.0006392344417
0.0005379225164
0.0007214575785
0.0005853452905
0.0009510957071
0.0005061437155
0.0005072279506
0.0005086737973
0.0005937606088
0.0008349675576
0.0007094372208
0.0007085103922
0.001158084561
0.0007681590935
0.0005145781398
0.0009620788917
0.0008725132132
0.0007234113021
0.0006180457269
0.0005361510667
0.0006275667386
0.0005569127013
0.001092300999
0.0007371211768
0.0007706985975
0.0009586248087
0.0005040438855
0.0005429886757
0.0005117446441
0.0006656650176
0.0008669341393
0.0008430044635
0.0008769356766
0.001142763854
0.0005113710384
0.0005204709709
0.0005600880268
0.00076212909
0.001141638627
0.0006140542893
0.0009772829104
0.000753159044
0.0005881201397
0.001082499031
0.0006554687239
0.0005187261317
0.0005487587824
0.0005478827681
0.0005072967658
0.0006724674518
0.0006086871483
0.0005873477744
0.0005631758554
0.0008991330796
0.0006226932653
0.0008154134522
0.0006255565673
0.0005907343074
0.0007746668405
0.0005008750167
0.0005355421348
0.0005558119253
0.0005097270646
0.0008655292124
0.0005536401642
0.0007107601079
0.0008261004369
0.0006289133668
0.0005072967658
0.0008027723483
0.0006449986523
0.0007181968579
0.0006018405429
0.0005654290872
0.0007076834411
0.00102541882
0.0005477227135
0.0008583597305
0.0008255110953
0.001154621108
0.0008179122469
0.0008757579925
0.000688381251
0.0006512981345
0.0007125543116
)


// ************************************************************************* //
