/*--------------------------------*- C++ -*----------------------------------*\
  =========                 |
  \\      /  F ield         | OpenFOAM: The Open Source CFD Toolbox
   \\    /   O peration     | Website:  https://openfoam.org
    \\  /    A nd           | Version:  8
     \\/     M anipulation  |
\*---------------------------------------------------------------------------*/
FoamFile
{
    version     2.0;
    format      ascii;
    class       volScalarField;
    location    "1.5";
    object      alphat;
}
// * * * * * * * * * * * * * * * * * * * * * * * * * * * * * * * * * * * * * //

dimensions      [1 -1 -1 0 0 0 0];

internalField   nonuniform List<scalar> 
67410
(
0.0001101179674
0.0001346952322
0.0001463810823
0.0001554804085
0.0001633050297
0.0001702444264
0.0001763743667
0.000181618257
0.000185877819
0.000189095918
0.0001912858588
0.0001925387543
0.0001930131109
0.0001928951013
0.0001923059537
0.0001911683121
0.0001891527037
0.0001858990794
0.0001815340383
0.0001768207337
0.000172023051
0.0001679645072
0.0001651183281
0.0001636100073
0.00016345604
0.0001630780219
0.00011127134
0.000140533264
0.0001554082925
0.0001668053165
0.0001767365204
0.0001857662415
0.0001939216333
0.0002010843867
0.0002071794937
0.0002122149617
0.000216266598
0.000219429792
0.000221760712
0.0002232306262
0.0002237087753
0.0002229964653
0.0002209557953
0.0002177118411
0.0002136779473
0.0002089725604
0.0002031219762
0.0001977778307
0.0001942188202
0.0001919619753
0.0001909902853
0.000191020561
0.0001099175019
0.0001442386081
0.0001608545492
0.0001727261461
0.0001833986865
0.0001934311504
0.0002025617394
0.0002105298443
0.0002172815824
0.0002229408662
0.0002277279985
0.0002318435618
0.0002353530667
0.0002381185857
0.000239810853
0.0002400453965
0.0002386746033
0.0002360432879
0.0002326765896
0.0002279198073
0.0002196198787
0.0002108170273
0.0002057017812
0.000202332368
0.0002010693648
0.0002041801928
0.0001133553341
0.0001540667489
0.000168901081
0.0001782777649
0.0001878192974
0.0001978347435
0.0002073890636
0.0002158527293
0.0002231574828
0.0002296122967
0.0002356393132
0.0002414961033
0.0002470849204
0.0002519493988
0.0002554564171
0.0002571336742
0.0002570628959
0.0002559175129
0.000254064891
0.0002494679811
0.0002371810798
0.0002211049426
0.0002131043697
0.0002090272746
0.0002095039168
0.0002193564102
0.000133930992
0.0001715103772
0.000180882865
0.0001851536314
0.0001914226755
0.0002002401162
0.0002098515346
0.0002189259468
0.000227263362
0.000235359792
0.0002437487216
0.0002524992833
0.0002610918115
0.0002686813166
0.0002744562566
0.000278138076
0.0002802146101
0.0002814914497
0.000281725966
0.000277492625
0.0002611676651
0.0002338891749
0.0002200739716
0.0002151221241
0.0002197594974
0.0002401098742
0.0001613135325
0.0001909143471
0.0001947500655
0.0001936090235
0.0001950451904
0.0002013671143
0.0002107898758
0.0002210153343
0.0002314127404
0.0002424180622
0.0002543046081
0.0002666329294
0.0002784359225
0.000288826057
0.0002969271958
0.0003028902067
0.0003075230233
0.0003113913695
0.0003134399994
0.00030955516
0.0002909818501
0.0002519814553
0.0002284147612
0.0002214506803
0.0002326114016
0.0002652075636
0.0001820975579
0.0002071977543
0.0002081300822
0.0002032133037
0.0001994381355
0.0002020679197
0.0002111029591
0.0002232844733
0.0002369080685
0.0002517561966
0.0002674469102
0.0002831649478
0.000297670193
0.0003097124104
0.0003193663638
0.000327265099
0.0003340868282
0.0003397760192
0.0003426897637
0.0003391221484
0.000321740911
0.0002753793603
0.0002393207481
0.0002282672413
0.0002468915945
0.0002896035923
0.0001946119977
0.0002193873753
0.0002199824879
0.0002133396196
0.0002050469931
0.0002032327223
0.0002116280474
0.0002263798389
0.0002437946051
0.0002623969173
0.0002812138902
0.0002992069547
0.0003146899028
0.0003275717195
0.0003383598538
0.000347700327
0.0003559560849
0.0003625801509
0.0003657020731
0.000362221611
0.0003467229505
0.0003011456576
0.0002527616391
0.0002349659826
0.0002591163567
0.0003072819779
0.0002012211597
0.0002278565831
0.0002296958144
0.0002229377902
0.000211420458
0.0002052021604
0.0002126047813
0.0002298298532
0.0002505801059
0.0002719709975
0.0002928289743
0.0003115113981
0.0003273282987
0.000340712158
0.0003522530848
0.0003624650123
0.0003714340274
0.0003783207011
0.0003812139208
0.0003775023696
0.0003630206661
0.0003215049329
0.0002666701171
0.0002404518487
0.0002656495627
0.0003144777925
0.0002036269441
0.0002326490757
0.000236432885
0.0002303724542
0.0002168674521
0.0002070934989
0.0002131452838
0.0002319440488
0.0002548635964
0.0002778552493
0.0002996329359
0.0003184133847
0.000334295846
0.0003478696222
0.0003596945975
0.0003701784983
0.0003792509997
0.0003859075388
0.0003882265888
0.0003839234564
0.0003693081021
0.0003309269619
0.0002768412085
0.0002440378786
0.0002654354389
0.0003107785258
0.0002025676788
0.0002334074718
0.0002390832045
0.000233577047
0.0002189193331
0.0002070079951
0.0002115431567
0.0002305182648
0.0002542560018
0.000277968098
0.0003000445265
0.0003188255618
0.0003346125621
0.0003480112346
0.0003595838281
0.0003697509101
0.0003784437488
0.0003845404945
0.0003859912533
0.0003805919142
0.0003644029083
0.0003267982079
0.0002769621092
0.000245741066
0.0002611081339
0.0002995808713
0.0001984702448
0.00022958894
0.0002353938022
0.0002295953594
0.0002149457486
0.0002029041854
0.0002062082321
0.0002236758956
0.0002466789847
0.0002702961695
0.0002926919303
0.0003117749105
0.0003274945269
0.0003403813371
0.0003510853081
0.0003602138214
0.0003679302682
0.0003732684516
0.0003736192859
0.0003663384618
0.0003464798673
0.0003076250476
0.0002678836101
0.0002467771024
0.0002567517989
0.0002866605109
0.0001919310149
0.0002213364259
0.0002251091929
0.0002176273446
0.0002036305032
0.0001937344028
0.0001967638048
0.0002110101702
0.0002310482948
0.0002532920719
0.000275631887
0.000295694943
0.000311843884
0.0003240768583
0.0003330419198
0.0003395696522
0.0003442133553
0.0003466248788
0.0003448896136
0.0003354467031
0.0003133384276
0.0002799727614
0.0002589758768
0.0002504765974
0.0002525011801
0.0002709166156
0.0001830892272
0.0002089666
0.0002096456611
0.0001997480195
0.0001877183452
0.000182534058
0.000186893654
0.0001972310771
0.0002115247223
0.000228781845
0.0002476512788
0.0002664959916
0.0002829098664
0.0002944203639
0.0003009174026
0.0003033582488
0.0003031043746
0.0003013312456
0.0002982043917
0.0002915937659
0.0002792429822
0.0002655922948
0.0002582047702
0.0002544582147
0.0002521734312
0.0002547809464
0.0001716694152
0.0001922172597
0.000191241119
0.0001822289067
0.0001767203762
0.0001780788533
0.0001839098801
0.0001910481409
0.0002000662377
0.0002117096447
0.0002246856953
0.0002375185631
0.0002492015765
0.0002588139745
0.0002649207425
0.0002672122577
0.0002671195493
0.0002663561272
0.0002660207076
0.0002653961106
0.0002638381476
0.0002617671923
0.0002596177708
0.0002578136246
0.0002559268903
0.000254361558
0.0001659600943
0.0001766247592
0.0001788433633
0.0001797726398
0.0001826923883
0.00018728969
0.0001915703402
0.0001938495475
0.0001960282062
0.0002021735862
0.0002118052574
0.0002215628118
0.0002301693236
0.0002376088486
0.0002439446477
0.0002490002393
0.0002527346312
0.0002555493727
0.0002580628262
0.0002596596959
0.000260606641
0.0002608106857
0.0002603203194
0.0002595051338
0.0002583194263
0.000256917197
0.0001758147171
0.0001811351475
0.0001876977696
0.0001954026691
0.0002006833774
0.0002044919966
0.0002068960343
0.0002058680403
0.0002009865841
0.0001984224278
0.0002040677964
0.0002134350261
0.0002220845481
0.0002298466941
0.0002371404309
0.0002436303861
0.0002493124601
0.0002551772628
0.000256255861
0.0002580302374
0.000259442314
0.0002600471545
0.0002599694253
0.0002593122047
0.0002581529563
0.0002565658006
0.0001897576932
0.0002007530359
0.0002073423862
0.0002133175488
0.0002167078325
0.0002190157576
0.000221112886
0.0002206511253
0.0002135021478
0.0002016383796
0.0001982677642
0.0002064963897
0.0002164301883
0.000225393155
0.0002336855658
0.0002416192718
0.0002530519894
0.000287305904
0.0002546933243
0.0002544275617
0.0002560633648
0.0002567669637
0.0002567645942
0.0002560037916
0.0002545708469
0.0002525826727
0.0001999822264
0.000215053839
0.0002207729251
0.0002250963926
0.0002272087415
0.0002283916932
0.0002305634259
0.0002327465785
0.0002281628404
0.0002122292642
0.0001964192423
0.0001984649504
0.0002093562461
0.0002199064149
0.0002306484002
0.000248123589
0.0003066939987
0.0004499142012
0.0002676435816
0.00024973869
0.0002499384419
0.0002499509086
0.0002494362846
0.0002481750901
0.0002462935551
0.0002439187982
0.0002067020404
0.0002230868169
0.0002279279863
0.0002321413953
0.0002344060314
0.0002339361001
0.0002343955895
0.0002387907419
0.0002389508553
0.0002251830614
0.0002009347318
0.0001892938094
0.0001978312176
0.0002095553833
0.0002278357584
0.0002812470289
0.0004259004393
0.0006329202961
0.0002867909536
0.0002407711342
0.0002374470657
0.0002364496747
0.0002351325076
0.0002333685058
0.0002308532096
0.00022788438
0.0002115100874
0.0002278875892
0.0002307661221
0.0002349275674
0.000237689052
0.0002358468219
0.0002337159184
0.0002355273061
0.000239481795
0.0002306651099
0.0002087455058
0.0001851887824
0.0001845945799
0.0001935363779
0.0002023862791
0.0002140220654
0.0002423738409
0.0003159981811
0.0002243391862
0.0002198962386
0.0002166104592
0.0002140840195
0.0002117458618
0.0002096879695
0.0002074069051
0.0002061110777
0.0002157766445
0.0002328966164
0.0002317245354
0.0002320392967
0.0002353016914
0.0002541199787
0.0002561865411
0.0002218615238
0.0002275800014
0.000217964384
0.0001999921099
0.000183088586
0.0001753231273
0.0001795303757
0.0001863029313
0.0001923245337
0.0001986323363
0.0002093397896
0.0002003621082
0.00020040378
0.0001983030057
0.0001935078941
0.0001889298079
0.0001864291382
0.0001893031409
0.0001991557935
0.0002197544073
0.000240340941
0.0002367590333
0.0002289983399
0.0002232415506
0.0002180219792
0.0002318350267
0.0001940074566
0.000198821643
0.0001851708807
0.0001649160294
0.0001578378433
0.0001609095603
0.0001672336363
0.0001745906139
0.0001819915533
0.0001892115573
0.0001960555515
0.0002020415775
0.0002056254132
0.0002040224569
0.0001967894258
0.0002011673825
0.0001840980638
0.0002034122983
0.0002383720592
0.0002237390833
0.0002487670948
0.0002470182505
0.0002377217651
0.0002217724616
0.0002076650354
0.0001884389553
0.0001708384785
0.0001676170449
0.0001552232846
0.0001449092829
0.0001470342848
0.000154320992
0.0001635154014
0.0001735775659
0.0001839580341
0.0001944679592
0.0002048307634
0.0002143160546
0.0002205422852
0.0002215835467
0.0002315131165
0.0003132391446
0.0002120254982
0.0002452474508
0.0002948530725
0.0002276455245
0.000257292141
0.0002570418379
0.0002496927876
0.0002375338479
0.0002227960107
0.000204357808
0.0001746119349
0.00015630133
0.0001461578389
0.0001444788413
0.0001495485065
0.0001578807137
0.000167973623
0.0001790156873
0.0001904018788
0.0002017107368
0.0002126247193
0.0002227671216
0.0002321580872
0.0002444564746
0.0002734663568
0.0003230546617
0.00025031736
0.00027210927
0.0002307290639
0.0002645792557
0.0002662811082
0.0002589233491
0.0002497106229
0.0002409619935
0.000224488477
0.0001920464744
0.0001669584291
0.0001544796151
0.0001537554088
0.0001581528801
0.000165674119
0.0001757285624
0.0001875607745
0.0002002119489
0.0002130124664
0.0002259283768
0.00023978032
0.0002582962363
0.0002913654466
0.0003468133606
0.0004044393509
0.0003077558456
0.0003016735727
0.0002324436124
0.0002701408841
0.0002730202044
0.0002660521658
0.0002621558075
0.0002658277369
0.0002539431421
0.0002155474458
0.0001804028116
0.0001639946912
0.000162873223
0.000167230724
0.0001746522516
0.0001851390979
0.0001983856512
0.0002133495313
0.0002292139957
0.0002463040687
0.0002661512288
0.0002959755238
0.0003581520628
0.000449447242
0.000541331321
0.0003964319303
0.0003255856471
0.0002324522767
0.0002736570162
0.0002769866945
0.0002729261768
0.0002821435516
0.0003052065995
0.0002979857879
0.0002478644142
0.0001965727399
0.000172391962
0.0001704081464
0.0001749402946
0.000182685391
0.0001940392548
0.0002090349954
0.0002265767955
0.0002459040534
0.0002652290457
0.0002790545904
0.0002795400878
0.0002945365624
0.0003275719395
0.0003837576647
0.0003066521004
0.0002935815429
0.0002305302012
0.0002749266906
0.0002790647602
0.0002857895294
0.0003184329869
0.000358622968
0.0003533926596
0.0002896989681
0.0002189508851
0.0001802198686
0.0001766649455
0.0001811620715
0.0001889268671
0.0002006143362
0.0002165241418
0.0002355534056
0.0002562555311
0.0002739560436
0.0002840402701
0.0002853893896
0.0002887959913
0.0002886466872
0.0002979741539
0.0002849324178
0.0002856311227
0.0002908320298
0.0002267054367
0.0002744389686
0.0002846964514
0.0003169334424
0.0003705001725
0.0004135010202
0.0004098033772
0.0003338097373
0.000246596436
0.0001876416378
0.0001822972058
0.0001866441236
0.0001936483183
0.0002039804101
0.0002184325568
0.0002368598856
0.0002581103637
0.0002760588612
0.0002863481577
0.0002893917523
0.0002902791078
0.0002892022394
0.0002898117117
0.0002959485578
0.0003030238206
0.0003086242077
0.0001098142247
0.0001384087032
0.0001523249739
0.0001630485991
0.0001722365308
0.0001805152294
0.0001881585357
0.0001951806542
0.0002014796412
0.0002069293115
0.0002114382398
0.0002149602445
0.000217469859
0.0002189367508
0.0002192668946
0.000218338274
0.0002161377825
0.0002129036591
0.0002090810022
0.0002051494656
0.000201373491
0.0001982231814
0.0001961031985
0.0001953844902
0.0001957848738
0.0001943083796
0.0001146090771
0.0002414345154
0.0002899612682
0.0003317897792
0.0003733440552
0.0004163596945
0.0004617921751
0.0005085117246
0.0005542362078
0.0005966875857
0.0006343469018
0.000666306984
0.0006916300055
0.0007090907635
0.000717469025
0.0007167491224
0.0007088681938
0.0006971801084
0.0006844830522
0.0006714588995
0.0006589382326
0.0006477660541
0.0006379557308
0.0006288165728
0.0006154756609
0.0005862800052
0.0001136747997
0.000258472397
0.000322490119
0.0003829201113
0.0004454951852
0.0005121991521
0.000582676315
0.0006526343941
0.0007165162598
0.0007705664258
0.0008141058248
0.000848539366
0.0008752251251
0.0008945580658
0.000905835727
0.0009078917978
0.0009003901982
0.0008851257025
0.0008659314075
0.00084594983
0.000825681974
0.0008062517214
0.0007842667436
0.0007557899151
0.0007170661109
0.0006672955585
0.000111594585
0.0002560517102
0.0003298357243
0.0004012460971
0.0004775003817
0.0005614527018
0.0006507536202
0.0007366721038
0.0008102264397
0.000867911338
0.0009121964348
0.0009475375276
0.0009767016521
0.0009995961607
0.00101426219
0.001018370648
0.001011026463
0.0009943829652
0.0009728452352
0.000947639448
0.0009152661934
0.0008842937443
0.0008513321789
0.0008075203844
0.0007487421826
0.0006849238706
0.0001193453569
0.0002602522628
0.0003393295711
0.0004108902881
0.0004892944004
0.0005804750196
0.0006802130455
0.0007745114808
0.0008512865555
0.0009091112307
0.0009549138254
0.00099587135
0.001033791778
0.001065686903
0.001088870032
0.001101231077
0.001101820803
0.001091741644
0.001072984171
0.00104244113
0.0009922678612
0.0009374572564
0.0008892308223
0.0008340204028
0.0007607246664
0.0006885510352
0.0001409987269
0.000285808764
0.0003654816063
0.0004252843943
0.0004912023841
0.0005760446897
0.0006760953934
0.0007729569885
0.0008521834481
0.0009145107959
0.0009697274771
0.001023476156
0.001072856105
0.001109901072
0.001140697626
0.001164762481
0.001179006717
0.001179053185
0.001162160741
0.001128506983
0.001078742821
0.0009989589348
0.00092071732
0.0008508980422
0.0007657151141
0.0006951699021
0.000164074252
0.000334796033
0.0004132564984
0.0004537208213
0.0004942167751
0.0005585342454
0.0006486208072
0.000744842491
0.0008306105559
0.0009064553134
0.0009786731813
0.001041857305
0.001091759413
0.001137430408
0.001179856004
0.001216843107
0.001243553307
0.001253664258
0.001242133201
0.001208764443
0.001158000117
0.001087716599
0.0009662506791
0.0008740754512
0.0007782804426
0.0007207925784
0.0001818976583
0.0003996300964
0.0004800960324
0.0005012418542
0.0005101554599
0.0005437142976
0.0006155480185
0.000709116766
0.0008054690997
0.0009002366362
0.0009869330841
0.001051349089
0.001110524673
0.001167732705
0.001222427418
0.001271121424
0.001308147994
0.001326311034
0.001319600687
0.001287856174
0.001237261648
0.001174885446
0.001042710243
0.000923076537
0.0008129406449
0.0007746431672
0.0001937226134
0.0004637453976
0.0005522630084
0.0005624832459
0.0005444669414
0.0005449029866
0.0005941652542
0.0006828698454
0.000789337791
0.000899628607
0.0009878870092
0.001059755154
0.001127828962
0.001194642396
0.001258420473
0.001315206317
0.001359112349
0.00138238056
0.001378786103
0.001349689197
0.001301500019
0.001247652737
0.001155835853
0.001027610313
0.0008811538472
0.0008555393398
0.0001996630291
0.0005091484147
0.0006064793301
0.0006164023759
0.0005856468841
0.0005605755616
0.0005884945077
0.0006702691821
0.0007823720534
0.0009005344165
0.0009857718026
0.00106159914
0.001134687892
0.001206307982
0.001274260355
0.00133479555
0.001382353572
0.001407914053
0.001405491305
0.00138047674
0.001339682605
0.001301531168
0.001251478437
0.001134637601
0.000985129038
0.0009579670629
0.0002002900333
0.0005287190909
0.0006250411792
0.0006385124338
0.0006089538436
0.0005734038011
0.0005876987365
0.0006618688673
0.0007736421676
0.000891833112
0.0009756831239
0.001051911061
0.001125225435
0.001196563901
0.001264156226
0.00132520077
0.001375415899
0.001402250523
0.001399265522
0.001379597778
0.001350929581
0.001330723322
0.001302934128
0.001201633904
0.001092419149
0.001067322098
0.0001964723679
0.0005220457553
0.0006105936573
0.0006209743705
0.0005932780341
0.0005635538483
0.0005776386617
0.0006463588823
0.0007531345116
0.0008716382634
0.0009571654351
0.001032485557
0.001102677911
0.001169911
0.001233816877
0.001292937669
0.001343894475
0.001376645595
0.001375313289
0.001364527259
0.001352581865
0.001354953503
0.001350987626
0.001303974928
0.001219244636
0.001184738316
0.0001884101679
0.0004842812378
0.0005554114609
0.0005529232658
0.0005291179299
0.000519508999
0.0005473774849
0.0006156859498
0.0007157715184
0.0008323024443
0.0009328878218
0.001011679553
0.001079111258
0.001141039351
0.001199665496
0.001255200777
0.001304403794
0.001340359021
0.001355948584
0.001358854743
0.001362786137
0.001376462747
0.001375640331
0.001349123363
0.001310900543
0.001277798068
0.0001753257428
0.0004111197999
0.0004568250424
0.0004392580524
0.0004266388455
0.0004442665871
0.0004922429041
0.0005657071024
0.0006630930139
0.000777519793
0.0008940929513
0.00099315116
0.00106620883
0.001127463631
0.001182932814
0.001236999375
0.001287915027
0.001329236122
0.001354753425
0.001366393761
0.00137325839
0.001378551528
0.001372607539
0.001357682044
0.001345087367
0.001337264102
0.0001597846731
0.0003149656017
0.0003425578649
0.000320809083
0.0003208892743
0.0003576700452
0.0004195136896
0.0004992085274
0.000598805696
0.0007153585484
0.0008359765151
0.000948752859
0.00104671123
0.001122193257
0.001178046862
0.001229473985
0.001278340112
0.001319542854
0.001348021025
0.001361229579
0.001365168186
0.001363365529
0.001358137996
0.001353829308
0.001355841877
0.001364251801
0.0001536425313
0.0002335977209
0.0002539896227
0.000247018512
0.0002581293151
0.0002986385759
0.0003611362371
0.0004383562841
0.0005325599766
0.0006490996428
0.0007787658918
0.0009027781983
0.001009753581
0.001096895613
0.00116379817
0.001215366815
0.00126250818
0.001300148043
0.001326328894
0.001336126468
0.00134088727
0.001341788111
0.001342604523
0.001346037626
0.001354567706
0.001368650122
0.0001617745529
0.0002054046626
0.0002191383011
0.0002310321823
0.0002546351716
0.0002946987943
0.0003504221635
0.0004132508561
0.0004821425722
0.0005749293931
0.0006999778624
0.000836590734
0.0009592950472
0.001057676478
0.001131152383
0.001191539591
0.001246214919
0.001268064244
0.001316037441
0.001312070335
0.001316572246
0.001320734046
0.001326143975
0.001333006531
0.001342609852
0.001356047229
0.0001731840324
0.0002242272358
0.0002383951706
0.0002602797905
0.0002903789375
0.0003298290495
0.0003799909995
0.0004295324577
0.00046850469
0.0005167427872
0.0006100007495
0.0007460319646
0.0008839422399
0.0009990839185
0.001086595217
0.001156833139
0.001246663588
0.001550650358
0.0013499981
0.00130100226
0.001295322124
0.001296448011
0.001302188535
0.001308655794
0.001316271763
0.001325999722
0.0001818169392
0.0002561457854
0.0002818351581
0.0003108407974
0.0003387815545
0.0003701335431
0.0004090560449
0.000450236563
0.0004773186143
0.0004862889216
0.0005234888975
0.000634300339
0.0007810722619
0.0009195522167
0.001022199508
0.001117215611
0.001681681393
0.001922932334
0.001840224791
0.001296902858
0.001271803274
0.00125661158
0.00125692221
0.001259733507
0.001263885526
0.001269574157
0.0001877123874
0.0002879821457
0.0003227120189
0.0003541217576
0.0003794994055
0.0004006458386
0.0004158128406
0.0004557564812
0.0004740435131
0.0004690616866
0.0004574468808
0.0005170065636
0.0006488277364
0.0007902302043
0.0008782922348
0.001107898032
0.001843926412
0.002425171323
0.00164192096
0.001267662951
0.001213456095
0.001182467123
0.001168834743
0.001163155692
0.001162030541
0.001163737871
0.000191912262
0.0003189323863
0.000348212408
0.0003794628341
0.0004032219812
0.0003995414256
0.0003795688688
0.0004329846613
0.0004377540309
0.00043047819
0.0004051851009
0.0004123587175
0.0004987232822
0.0006217989097
0.0007577936781
0.0008997105791
0.001098577069
0.001352264668
0.001263095845
0.001148779647
0.001101659728
0.001051946451
0.001001935644
0.0009721248219
0.0009605686842
0.000956542768
0.0001959634413
0.0003596554923
0.0003674852133
0.0003834557009
0.000394281858
0.0005587344325
0.0005232212528
0.0003473205027
0.0003672409898
0.0003552584976
0.000342228709
0.0003430917602
0.0003938481342
0.0004911887917
0.0006070511337
0.0007341991476
0.0008653961269
0.0009608726185
0.001020430478
0.00101271686
0.0009739685459
0.000901264346
0.0008333842953
0.0007611845441
0.0007878485036
0.0008391635278
0.0002013199957
0.0004244185025
0.0004099765219
0.0003707004734
0.000366542051
0.000314737251
0.0004499948288
0.0002536177737
0.0002709285007
0.0002683316166
0.0002803609938
0.0003066551976
0.0003551994647
0.000436878492
0.0005484457988
0.0006779270469
0.0008126676533
0.0009352974417
0.001023681027
0.001054428749
0.001027536456
0.001005354908
0.001135093954
0.0008256976244
0.0009397401397
0.001121690977
0.000207794218
0.000501875372
0.0005076230491
0.0004128873005
0.0003431133937
0.000314959797
0.0002640815462
0.0002204623255
0.0002121176121
0.0002236327249
0.0002553099707
0.0002988283845
0.000352725894
0.0004337940565
0.0005484285902
0.0006864042068
0.0008355768326
0.0009780338409
0.001088361849
0.001150121056
0.001212016634
0.001597430198
0.002066300457
0.001396089863
0.001326311874
0.001504394925
0.0002145595203
0.0005643665434
0.0006299152066
0.0005280257962
0.0004076679253
0.0003343781184
0.0002846125859
0.0002350411457
0.0002149300133
0.000221283011
0.0002507299217
0.0002976597923
0.0003630139068
0.0004519364273
0.0005681461648
0.0007088555025
0.0008643608524
0.001019027486
0.001157683438
0.001285505034
0.001471351236
0.001854829491
0.002282925366
0.001786736136
0.001637088925
0.0002204920626
0.0006142585025
0.0007231886543
0.000660748501
0.0005161172262
0.000405757259
0.0003346463958
0.0002779400509
0.0002475892945
0.0002500014755
0.0002778203457
0.0003232059683
0.0003867131813
0.0004731024784
0.0005900890307
0.0007393160308
0.0009086879505
0.001085141531
0.001265418427
0.001453286518
0.001704349482
0.002041473089
0.002148754122
0.002037362207
0.001805238438
0.0002247242359
0.0006568547846
0.0007976296174
0.000763417984
0.0006190869153
0.0004977560272
0.0004076492919
0.0003337701043
0.0002914546409
0.0002910220099
0.000323102227
0.0003732423812
0.0004352105417
0.0005158942463
0.0006359171885
0.0008050908629
0.001002797795
0.001202612366
0.001376460593
0.001560057424
0.001832502307
0.002136727051
0.002343699523
0.002145331948
0.00189611633
0.0002267272843
0.0006936816453
0.0008554963074
0.0008330266997
0.0007110161862
0.0006228154836
0.0005266781563
0.0004148200933
0.0003456478641
0.0003395517888
0.0003767820417
0.0004334596352
0.0004973864562
0.000579207241
0.0007107844505
0.0009044209791
0.001111946427
0.001297094699
0.001445627327
0.001575312999
0.001784910635
0.00203403237
0.002123907194
0.002064152764
0.00181019366
0.0002261557242
0.0007252034814
0.0009012727299
0.0008809640346
0.0008195803115
0.0008001975044
0.0007222298865
0.0005527846071
0.0004165022561
0.0003934407318
0.000429485745
0.0004833664771
0.000544857462
0.0006334902707
0.0007802776705
0.0009855233918
0.001175690749
0.001349278406
0.001474228283
0.001552677112
0.001716954779
0.001782833621
0.001818246536
0.001782489296
0.001691894512
0.001634114756
0.0002228648111
0.0007512288496
0.0009353268679
0.0009360918592
0.0009513134406
0.001021368248
0.0009632758279
0.0007478331187
0.0005094700876
0.0004558079053
0.0004915977327
0.0005414018953
0.000594988755
0.0006794757294
0.0008197824509
0.001010238177
0.0011863312
0.00133087596
0.001432451249
0.001504244108
0.001578826972
0.001637939627
0.001680652042
0.001678303691
0.001652861829
0.001630410098
0.0001147834604
0.0001452321083
0.0001602432965
0.0001722946433
0.0001825366215
0.0001916997037
0.0002001580124
0.0002079957423
0.0002151419159
0.0002214683004
0.0002268666679
0.0002312780805
0.0002346722958
0.0002370004993
0.0002381626603
0.000238062331
0.0002367377309
0.0002344360209
0.0002315383505
0.0002284241516
0.0002254168256
0.0002228652978
0.0002211023152
0.0002203410939
0.0002201458416
0.0002183204828
0.0001231136697
0.0003090137833
0.0003917416439
0.000460039994
0.000527100983
0.0005946906909
0.0006637162322
0.0007326645233
0.0007986520591
0.0008588525788
0.0009115012352
0.0009559092697
0.0009918571186
0.001019159106
0.001037620622
0.001047341471
0.00104897926
0.00104385903
0.001033751021
0.001020408762
0.001005684408
0.0009908777152
0.0009762690571
0.0009607660758
0.0009398340392
0.0009060369685
0.0001232569861
0.0003482734021
0.000457235822
0.0005595299774
0.0006636878966
0.0007708206987
0.0008801152113
0.0009866081011
0.001083947602
0.001167741988
0.001236909107
0.00129272454
0.001336978436
0.001370878957
0.001394750412
0.001408276795
0.001411096386
0.001403808524
0.001388638892
0.001368575668
0.001345424043
0.001319855743
0.001289673897
0.001252138708
0.001203712978
0.001143095059
0.0001198866244
0.0003426191237
0.0004674392422
0.0005915329523
0.0007197188517
0.0008530547156
0.0009890010094
0.001118418642
0.001231421852
0.001323394495
0.001395685127
0.001452345172
0.00149691395
0.001531251299
0.00155585143
0.001570490954
0.001574597158
0.001568481084
0.001554079423
0.001533686663
0.001507748947
0.001477001009
0.001436851273
0.001382341192
0.001311574766
0.001231684702
0.0001195716916
0.0003302798258
0.0004661708034
0.0005993615692
0.0007363259776
0.0008812138806
0.001031339525
0.001173099545
0.001292658923
0.001385471352
0.001455600668
0.001509581455
0.001551965672
0.001585030245
0.001610209973
0.001628313908
0.001638207992
0.001638638572
0.001629809029
0.001613354467
0.001589916738
0.001559550956
0.00151698149
0.001453293745
0.00136574195
0.001270973617
0.0001325617328
0.0003375097615
0.0004796434238
0.0006065991987
0.000733112461
0.0008719285546
0.001023818257
0.001171078574
0.001294567652
0.001388317846
0.001457556412
0.001509476591
0.001548819677
0.001579187277
0.001605514893
0.001630099919
0.001649583355
0.001659388169
0.001657297783
0.001646851032
0.001633531037
0.001610160815
0.001570270161
0.001503856573
0.001402159022
0.001297466457
0.0001539354235
0.0003763973631
0.0005199007693
0.0006284798204
0.0007271680733
0.0008422969621
0.0009837036222
0.001131968056
0.001260811811
0.001359893646
0.001432184853
0.001482826374
0.001517372633
0.001550856547
0.001585971452
0.001621331118
0.001651752636
0.001670326268
0.001673224971
0.001665356038
0.001656810657
0.001650899079
0.001622359965
0.001563899916
0.001446155634
0.001336019958
0.0001738252522
0.0004406344163
0.0005844169478
0.0006716461079
0.0007358274568
0.0008154597801
0.0009348304402
0.001078906663
0.001213977674
0.00132171626
0.00139880258
0.00144672496
0.00148699991
0.001529599354
0.001575876866
0.001622453915
0.001662676998
0.001688155517
0.001694375806
0.001687771116
0.001679963681
0.001682216099
0.001686642088
0.001676336357
0.001520018566
0.001398775392
0.0001883952978
0.0005112069215
0.0006580788214
0.0007300386953
0.0007660639052
0.0008092374558
0.0008990608703
0.001032652691
0.001171534155
0.001286883027
0.001366753378
0.001416288017
0.00146372234
0.001515216333
0.001570180694
0.001624305431
0.001670684652
0.001699639965
0.0017071173
0.001702523029
0.001696217546
0.001705607121
0.001751917179
0.001814092146
0.001642857338
0.001482825111
0.0001966725225
0.0005667015693
0.000718061648
0.0007827471139
0.0008031587401
0.0008194634517
0.0008808898256
0.001000271454
0.001139071785
0.00125822928
0.001337381587
0.001390617911
0.001442629728
0.001498510311
0.001556859039
0.001613962767
0.001664508097
0.001693307155
0.001699309062
0.001697712127
0.001696331211
0.001713639434
0.0017717228
0.001807874721
0.001705583623
0.001553158893
0.0001987708079
0.0005950346483
0.000746207975
0.0008063357526
0.0008204909696
0.0008237172567
0.0008668250024
0.0009741227546
0.001111093804
0.001232601601
0.00131284999
0.001367717181
0.00142002249
0.001474911634
0.001531796206
0.001589895414
0.001649139227
0.001675632807
0.001675119072
0.001674776012
0.001681815384
0.001706342785
0.001753511972
0.001772555477
0.001697991951
0.001589894089
0.0001954159377
0.0005905339524
0.0007332574628
0.0007868715302
0.0007980553525
0.0008001935793
0.0008400676746
0.0009429163565
0.001079328754
0.001205412283
0.001293296737
0.001349926238
0.001399947164
0.001450017744
0.001501772526
0.001556342157
0.001614823023
0.001651848534
0.001648967113
0.001649942747
0.001664162455
0.00169896985
0.001750524027
0.001766702728
0.001713006564
0.00162930144
0.0001868939701
0.0005487881665
0.0006754483672
0.0007185534775
0.0007270857706
0.0007382924043
0.0007901675387
0.0008975635714
0.001036109634
0.001171007407
0.001276693147