/*--------------------------------*- C++ -*----------------------------------*\
  =========                 |
  \\      /  F ield         | OpenFOAM: The Open Source CFD Toolbox
   \\    /   O peration     | Website:  https://openfoam.org
    \\  /    A nd           | Version:  8
     \\/     M anipulation  |
\*---------------------------------------------------------------------------*/
FoamFile
{
    version     2.0;
    format      ascii;
    class       volScalarField;
    location    "1.5";
    object      epsilon;
}
// * * * * * * * * * * * * * * * * * * * * * * * * * * * * * * * * * * * * * //

dimensions      [0 2 -3 0 0 0 0];

internalField   nonuniform List<scalar> 
67410
(
0.05761558653
0.07946305816
0.1019948269
0.1222233305
0.1416218615
0.1604618025
0.1784449357
0.1948684164
0.208939548
0.2200169274
0.2277792872
0.2323014511
0.2340260833
0.2335919613
0.2314550516
0.2273797424
0.2202794649
0.209114435
0.1947181243
0.1799403341
0.1657003668
0.1542600835
0.1465542344
0.1425762023
0.1421816749
0.1411994881
0.05381232869
0.07915756135
0.107053767
0.1323790303
0.1574607412
0.182859744
0.2080405603
0.2319929066
0.2537787826
0.2727783501
0.2887351293
0.3016108473
0.3113330867
0.3175653825
0.3196075504
0.316558729
0.3079320858
0.2945352568
0.2784303796
0.2604425871
0.239223875
0.220887364
0.2091929842
0.2019936739
0.1989378632
0.1989552676
0.05187514254
0.08557608124
0.1187139105
0.1469973677
0.1759662545
0.2064667031
0.2371386203
0.266282908
0.2927762068
0.3162826691
0.3371009763
0.3556873816
0.3720476605
0.3852797584
0.3935233961
0.3946462317
0.3878591285
0.3750698361
0.3591713392
0.3376320335
0.3022176424
0.2674867806
0.2485442218
0.2365261498
0.2320327113
0.2426777011
0.05686007824
0.1042720004
0.1374604111
0.1616639118
0.1890276908
0.2209183737
0.2545269342
0.2870131425
0.3171653571
0.345468167
0.3733264225
0.4017699419
0.4302302469
0.4560876306
0.4753572772
0.4847009639
0.484135229
0.4774842999
0.4670966155
0.4423353964
0.3803580833
0.3084516087
0.2763303068
0.2607520898
0.262268929
0.3003668463
0.09369057426
0.1439096638
0.1689268616
0.1811722411
0.2001628504
0.2290983422
0.2637034932
0.299410794
0.3348885915
0.3718604656
0.4129129914
0.4588792006
0.5072866068
0.5528246467
0.5892353253
0.6131502702
0.6267411623
0.6351239054
0.6367491352
0.6087737936
0.5076678152
0.3648640472
0.3042608171
0.2841462402
0.3023515287
0.3932871536
0.163893138
0.1986693809
0.2109896524
0.2072704388
0.2118193904
0.2330049228
0.267212286
0.3079420744
0.3533430039
0.4060131694
0.4685776263
0.5400631729
0.6151041844
0.6866921797
0.7461760245
0.7919260079
0.828611539
0.8602311939
0.8776654113
0.8459531753
0.7026217429
0.4560852753
0.3400651453
0.3098257811
0.3581522396
0.5297678696
0.236117895
0.2541725234
0.2577060576
0.2398380447
0.226572401
0.2354567841
0.268301599
0.3173143378
0.3788293637
0.4544855196
0.5448902429
0.6468994249
0.7518507397
0.8471616227
0.929019015
0.9996483905
1.063477161
1.119039428
1.148744938
1.113911637
0.951209063
0.5955688434
0.3910859157
0.3391855958
0.4280835283
0.690640224
0.2885046913
0.3018903567
0.3044443181
0.2776930352
0.2463904919
0.2395746685
0.2701729859
0.3304653183
0.4126215977
0.5145211083
0.6335970135
0.7636591552
0.888994531
1.003095203
1.105713424
1.199958967
1.287743504
1.361598639
1.397976523
1.359218945
1.192208764
0.7797752175
0.4609586977
0.3698974802
0.4951624686
0.8264810352
0.3190814092
0.338349051
0.3467256167
0.3170804905
0.2702864921
0.2466738197
0.27383274
0.3456662268
0.4480190723
0.5731222217
0.7158496151
0.8624778471
1.001244046
1.129587426
1.248592295
1.360626591
1.464612252
1.54842462
1.585264606
1.54024615
1.369989855
0.9502872511
0.5419220119
0.3965052734
0.5340949493
0.887221413
0.3307669657
0.3602601763
0.3782928679
0.3500839241
0.2919352282
0.2536780853
0.2759223645
0.3552982012
0.4715392209
0.6114630456
0.7674621699
0.9217398493
1.067278931
1.203096498
1.330341098
1.450428499
1.560237577
1.644768143
1.675709434
1.62144421
1.443630787
1.037529441
0.6068463684
0.4146783505
0.5331928771
0.8568473702
0.3256927538
0.3638895743
0.3913426035
0.3651301911
0.3004923952
0.2535040896
0.2698319367
0.3488946593
0.4683787406
0.612522789
0.7710566864
0.9258120268
1.07086441
1.205186302
1.329798945
1.446127251
1.550973633
1.628083749
1.64774229
1.580385836
1.387583234
0.9999470701
0.6079141728
0.4236266783
0.5077720799
0.7675787246
0.3063673744
0.3464074862
0.3736442194
0.3469060817
0.2845340569
0.2388313485
0.2500633157
0.3188892695
0.4278976819
0.563368216
0.7159370382
0.8659638181
1.004253655
1.127988684
1.238098974
1.337443269
1.425569281
1.489207942
1.494563359
1.409630928
1.192786956
0.8338035553
0.5496193928
0.4290227169
0.4830260148
0.6726637909
0.2771281583
0.3104735235
0.3268481597
0.2954639853
0.2419105888
0.2079101733
0.2173759556
0.2678664327
0.3516586445
0.4635447389
0.5977753301
0.7386563266
0.8670271675
0.9736153365
1.056984284
1.120517474
1.1672486
1.192246172
1.17492763
1.081476023
0.8811920438
0.6273565163
0.4959779081
0.4486197167
0.4595397055
0.5677484928
0.2406577993
0.2613857351
0.2640634998
0.2284021547
0.1893546229
0.1737717683
0.186309709
0.2188492052
0.2698725051
0.341438859
0.4332329563
0.5402395372
0.6469116958
0.7296697329
0.7793822033
0.7985781138
0.7964724737
0.7824749057
0.75835333
0.7090768602
0.6224256282
0.5350085516
0.4914685245
0.4703990272
0.4578058815
0.4720229973
0.1982902201
0.2034460184
0.2003513058
0.1731170663
0.1576109508
0.1611042476
0.1774623412
0.1989755119
0.2284834586
0.2706951547
0.3235804782
0.3823483176
0.4418108038
0.495261056
0.5314177389
0.5454161835
0.5447656785
0.539977461
0.5377189957
0.5338717692
0.5244594797
0.5121673897
0.499639832
0.4892963031
0.4786078734
0.4698019051
0.1785979356
0.1573886297
0.1633146717
0.1656584304
0.173769428
0.187273265
0.2005557197
0.2079232751
0.2150309608
0.235842476
0.2711501698
0.3103891292
0.3480279309
0.3829616677
0.4145639676
0.4410021994
0.4612029463
0.4768587609
0.4909023903
0.5000282877
0.5054608238
0.5066301774
0.503763561
0.4990346718
0.492198277
0.4841746352
0.2121098424
0.1691389796
0.1882763744
0.2126047124
0.2304690883
0.2439847561
0.2528454974
0.2492363701
0.2319433601
0.2230676165
0.2425444336
0.277484487
0.3126084878
0.346567981
0.3807171545
0.4129471305
0.4424235658
0.4729241573
0.4807827099
0.4909000453
0.4988524828
0.5022981812
0.5018112268
0.4979848137
0.4913001797
0.4822429837
0.2669583712
0.2305784683
0.2542128284
0.2770555434
0.2906067833
0.3000866533
0.3089058964
0.307131895
0.2782958468
0.2343234209
0.2224979365
0.2512656839
0.2892949174
0.3267597567
0.3641936687
0.4021570099
0.4584652037
0.6501721212
0.4714917994
0.4709308259
0.4797702799
0.4836734685
0.4835849405
0.4792445996
0.4711953503
0.4602018109
0.3127798353
0.283920872
0.3073619128
0.3259136636
0.3352239718
0.3405398463
0.3504618357
0.3607117533
0.3399369909
0.2735728164
0.2165328377
0.223073106
0.2618030373
0.3033179879
0.349316419
0.4294073384
0.7769112675
2.418413364
0.5358824913
0.4450750369
0.4462953648
0.4463029908
0.4434674161
0.4367113583
0.4268294012
0.4145666642
0.3456071859
0.3172320868
0.3385232277
0.357756647
0.3683703536
0.3661183197
0.368346801
0.3898221743
0.3907476363
0.327157712
0.2321954336
0.1936129799
0.2208072005
0.2619627517
0.3334987538
0.6109313766
2.097640035
7.083339818
0.6587403826
0.3985776944
0.3827782632
0.3780049904
0.3717495257
0.3633597095
0.3517208006
0.3382753515
0.3704200352
0.3382615411
0.3514638849
0.371074447
0.3843399243
0.3737722003
0.3630378728
0.3743132939
0.3936243022
0.3518782159
0.2607316871
0.1815783445
0.1795118742
0.2068038389
0.2361950513
0.2776046072
0.3953142
0.8589499418
0.321286406
0.303581611
0.2905121084
0.2805362685
0.2715937239
0.2636706086
0.2551234352
0.2502514761
0.3933767545
0.3610586363
0.3557986285
0.3574783446
0.3713290397
0.4371116224
0.4607094493
0.3119466941
0.3378435558
0.2970057691
0.2293991123
0.1757441938
0.1539334243
0.16512554
0.1844815765
0.2028173661
0.2228423387
0.2587035011
0.2295435549
0.2297617028
0.2226821287
0.2069200248
0.1922586118
0.1850838573
0.1934579585
0.2248051807
0.4156000741
0.3968137747
0.3793521744
0.3434347077
0.3185302348
0.2955786727
0.3446779456
0.2085626011
0.2251364151
0.1820465563
0.1283999676
0.1123475354
0.1189316569
0.1334488637
0.1518071849
0.1719084034
0.1931612279
0.2148613599
0.2352357674
0.2480851762
0.2423127923
0.2164886077
0.2259647369
0.177286482
0.2388256217
0.3843124132
0.4386637128
0.4400952861
0.4308053698
0.3838827685
0.3116116648
0.2558873836
0.1909715753
0.1424385306
0.1348196039
0.1070477248
0.08689512097
0.09068103926
0.1047961814
0.1246281175
0.1490517472
0.1774044263
0.2095881011
0.2449849122
0.2807844371
0.3061352234
0.3095460041
0.345278662
0.828371359
0.269712639
0.4199683828
0.7295592523
0.4621160164
0.4869910642
0.4855203448
0.4449813282
0.3829117929
0.3156569378
0.2434848905
0.1517916631
0.1089840439
0.08908113499
0.08597535786
0.09532590737
0.1121499416
0.1350446392
0.1634487593
0.1966520966
0.2338157378
0.2738721441
0.3149155777
0.3559696392
0.4134640912
0.5729878589
0.9428250017
0.4428764056
0.5728374716
0.481244554
0.5296694556
0.5399035704
0.4962768752
0.4447964779
0.3989548157
0.3223445259
0.2018698907
0.1328018519
0.1051357053
0.1036089742
0.112717825
0.1295405733
0.1545519324
0.1878971095
0.2285259741
0.2751859736
0.3282210651
0.39194994
0.4883935682
0.6969728095
1.171774008
1.869479278
0.8225533394
0.7817984452
0.4921545521
0.5639099671
0.5820950945
0.5384223904
0.5142031592
0.5348588479
0.4659226109
0.2851072294
0.1675226462
0.125819274
0.1231786362
0.1332695767
0.1517376419
0.1806636397
0.2222295863
0.2763853077
0.3426921178
0.4249848051
0.5354552354
0.7332070634
1.295643074
2.572403805
4.533190994
1.764138105
0.9815978204
0.4923088436
0.586345816
0.6079531211
0.5808912126
0.6399878393
0.8091770231
0.7530289984
0.4332319211
0.2166414606
0.1461906996
0.1411083276
0.1525866902
0.1736549771
0.2079620982
0.2599275385
0.3310213296
0.4231923174
0.5313516411
0.6197267349
0.6222197221
0.7255645288
0.9936644948
1.599455108
0.8184056309
0.7213897681
0.4802830802
0.594636814
0.6216082701
0.6659080402
0.9192280026
1.31510834
1.259025561
0.6925012758
0.29942239
0.1670636307
0.1572601476
0.1694832237
0.1921023375
0.2298728932
0.2889608489
0.3721198042
0.4792802397
0.5856054006
0.6537901231
0.663403016
0.6861713731
0.6855146777
0.7519626834
0.6602621934
0.6657510083
0.7027551878
0.4568150434
0.5914284445
0.6590756493
0.9070457384
1.450860529
2.021960332
1.969522657
1.062566902
0.4284365885
0.1886324503
0.1728153643
0.1853760282
0.2069330985
0.241758021
0.2968475768
0.3786122954
0.4903096483
0.6004820669
0.6706398679
0.692326407
0.6986073271
0.6906686396
0.6947785161
0.7398802947
0.794675097
0.8397643546
0.06923614709
0.09789108214
0.1304929677
0.1600431323
0.1886509798
0.2171800038
0.245954987
0.274548515
0.3020283266
0.3272506661
0.3491662711
0.3669638348
0.3800224297
0.3878165209
0.3896196367
0.3847238617
0.3732232908
0.3567196455
0.337847234
0.3191490703
0.3018557467
0.2879148001
0.2787817167
0.2757503206
0.2775107117
0.2713430772
0.07871253432
0.09350640191
0.1179718807
0.1392992086
0.1596241305
0.1795202743
0.1994111156
0.2189119609
0.237581823
0.2551269724
0.2713473242
0.2858647475
0.2978021685
0.3057179959
0.3081641042
0.3047810972
0.2969562249
0.28697014
0.2761604812
0.2642006543
0.2513645199
0.2401352286
0.2323089852
0.2279563531
0.2267129484
0.2258541661
0.07681424011
0.0978514151
0.1265736616
0.1496063928
0.1707014818
0.191004073
0.2105668834
0.228680309
0.2451038058
0.2600707013
0.2739286414
0.2867503611
0.2981165302
0.3070703499
0.3123762145
0.3131170252
0.309301685
0.3018082778
0.2914860435
0.2782044691
0.2617720381
0.2460852684
0.2352951722
0.2285524015
0.2265837715
0.2319091084
0.0726739431
0.1076708281
0.1386624792
0.1588652393
0.1773779664
0.1959982867
0.2141233836
0.2306022567
0.2455524119
0.2598555039
0.2742742523
0.288962686
0.3033539782
0.3162447919
0.3260282259
0.3312495517
0.3312133476
0.3259832308
0.3155687382
0.2989779736
0.2752867949
0.2502857496
0.2342463787
0.2264576763
0.2283646657
0.2457362885
0.08876494837
0.1331583105
0.1610921676
0.1716904792
0.1830481603
0.1978040093
0.2143870845
0.230664667
0.2466956159
0.2636757875
0.2824245468
0.3027834465
0.3237512395
0.3437439373
0.3605717314
0.3722703941
0.3775886393
0.3756096054
0.3647514866
0.3424654766
0.3075825784
0.267656202
0.2409860771
0.2305748709
0.2393233354
0.2756026817
0.1463163418
0.1759644963
0.1933186932
0.1889398489
0.1891661771
0.1977500181
0.2128393436
0.2308965092
0.2510387274
0.2740775508
0.3003867676
0.3293985522
0.3599163433
0.3905809179
0.417489295
0.4382072377
0.4511620477
0.4545940554
0.4447358448
0.4152203598
0.3624778695
0.3028486758
0.2594104282
0.2425453048
0.2597648599
0.3207857312
0.2308112744
0.2270401557
0.2294709052
0.2102673631
0.1983054459
0.1987377821
0.2118262948
0.2330991203
0.259661129
0.2909615687
0.3267102523
0.3670134211
0.4103989141
0.4526705456
0.4906669177
0.5220512316
0.5447601856
0.5553906033
0.5474338649
0.5114610298
0.4415426682
0.3540358719
0.2904009587
0.2627579635
0.2879048245
0.3733456149
0.3148548534
0.2747861318
0.263620866
0.2351283771
0.2129956152
0.2038147509
0.2133058876
0.2377555713
0.2713299187
0.3112110175
0.3571098526
0.4097907702
0.4641219129
0.5169259093
0.5653925433
0.6072379587
0.6395957754
0.6571608488
0.6510385408
0.6102441507
0.5274987768
0.4165296655
0.3302429085
0.2905955859
0.3185392698
0.4187640328
0.3806570507
0.310119363
0.2919842171
0.2620034793
0.2333901023
0.2141103167
0.2176570367
0.2434568549
0.2825224077
0.3294740054
0.3853460883
0.4462748343
0.5085149492
0.5690443781
0.6254511845
0.675355148
0.7149974004
0.7371812368
0.7314977128
0.6875930759
0.5980956928
0.4741434906
0.3695732174
0.3263341655
0.345711805
0.4462062089
0.4170059565
0.3278550702
0.3109134554
0.2854988356
0.2541898501
0.2261722794
0.2221787196
0.2464090781
0.2877253344
0.3384869488
0.4003364018
0.4653481645
0.5310785995
0.5949204252
0.6547681635
0.7083332654
0.751427652
0.7747318808
0.7672189488
0.7215928054
0.6309780109
0.5057770226
0.3955226855
0.3490080518
0.3618402392
0.4529873326
0.421117046
0.3270172617
0.3159264433
0.2966624593
0.2652150892
0.2319785353
0.2214485963
0.2417492689
0.2816409909
0.3324001315
0.3944841157
0.4588552618
0.5232151631
0.5851087222
0.6428679379
0.6949398734
0.7380118059
0.7597448749
0.7479282344
0.7015519622
0.6150290812
0.4995786759
0.3964428306
0.3448164792
0.3610495241
0.4415549459
0.3976349101
0.3087070072
0.3019544957
0.2865277695
0.2566689606
0.2231502059
0.2103416681
0.2264846448
0.2621022643
0.3083034074
0.365690628
0.4253262293
0.4841172011
0.5393253903
0.5898419304
0.635270631
0.6735677791
0.6951054381
0.6798113716
0.6348425175
0.5564119757
0.4593599698
0.3771894869
0.3375810071
0.3524415538
0.4176921587
0.3508421208
0.2762556
0.2704968131
0.2543475411
0.2260547302
0.1974823215
0.1884874478
0.2025142616
0.232848798
0.2726811418
0.3204358537
0.3720014171
0.4222445247
0.4676683429
0.507427642
0.5420795968
0.5706618344
0.5871001223
0.579995957
0.5421418635
0.4768524431
0.4022484051
0.3448211254
0.3210631503
0.3359167971
0.3878247778
0.282841525
0.2331574392
0.2271286635
0.2067060611
0.1816909625
0.1639823776
0.1639538756
0.1783290416
0.2033986738
0.236215721
0.2740499494
0.3143481428
0.3538117415
0.3881693792
0.4163103664
0.4389797673
0.4567549598
0.4667238944
0.462349249
0.4371821328
0.393589132
0.3459852324
0.3144652777
0.3046718637
0.3186196357
0.3579497376
0.2138836199
0.1830824406
0.1786684921
0.1571476356
0.1420866277
0.139453381
0.1487334502
0.1635819092
0.1832521642
0.2080568948
0.2364384687
0.2655309739
0.2922639239
0.3147465712
0.3328430411
0.3462104125
0.3558088103
0.360998766
0.3595043907
0.3476522701
0.3276453689
0.3066946031
0.2946645961
0.2936144574
0.3054383751
0.3328799827
0.1896019728
0.1395431254
0.1393190581
0.1303508329
0.1298344951
0.1377960511
0.1504155537
0.1619309971
0.1734656088
0.1890082688
0.208740881
0.2292245782
0.2477659781
0.2632018107
0.2756160236
0.2864794201
0.2969399677
0.3062490666
0.304727193
0.2997449306
0.2934560774
0.2870822416
0.2845480264
0.2869417557
0.2958671753
0.3136438543
0.2211556414
0.1350939985
0.133822654
0.1389678546
0.1477865929
0.1585449441
0.1704995915
0.1776273802
0.1789623827
0.1814735337
0.1917754639
0.2064986566
0.2205899837
0.2331149629
0.245433057
0.2612292486
0.2912928181
0.3498815372
0.2939529548
0.2811018129
0.2791827399
0.278056685
0.2788872188
0.2818093169
0.2880243985
0.299269065
0.2715653327
0.1716249587
0.1665002252
0.1703255582
0.1785233597
0.1884998545
0.201451422
0.2084239047
0.2023583268
0.1879900228
0.1830289164
0.1916470214
0.2041003579
0.2169950129
0.2357647132
0.2843598301
0.476502523
1.153069567
0.3737474267
0.2785709259
0.2721224843
0.2710078811
0.2724270227
0.2747091723
0.2787437969
0.285998894
0.3144742271
0.2099528368
0.205536825
0.2080176166
0.218042391
0.227995175
0.2435544079
0.2508795355
0.2409239344
0.2096025704
0.1822177126
0.1787488587
0.1897563811
0.2073168891
0.2579515234
0.4963826657
1.792829633
3.050065765
1.197914042
0.3029501816
0.2662978485
0.2592652586
0.2598392881
0.2609891062
0.2633252928
0.2682235236
0.3462449775
0.2388809131
0.2406847317
0.250702127
0.2615153793
0.2780394771
0.3048452209
0.2829792924
0.2755459201
0.2370014231
0.1895999024
0.1679084037
0.1773948878
0.2114999491
0.3653817015
1.099061813
3.544926418
7.187949365
1.714236777
0.3503443512
0.2488920251
0.2393445541
0.2381306199
0.237873534
0.2393754246
0.243565862
0.3701029729
0.2588103107
0.2644083254
0.2798873475
0.3065817003
0.4278308439
0.623168692
0.2980663059
0.2706691233
0.2398997467
0.1922422298
0.1571083694
0.1528622271
0.16466553
0.1876875588
0.2649666899
0.5825069041
1.33920668
0.392976326
0.2380168924
0.2246323114
0.2169535186
0.212303805
0.2086976713
0.2111024891
0.219248665
0.39406735
0.2743593114
0.2766062007
0.3001192856
0.4447722659
1.768303887
2.553837621
0.3613107499
0.2316042854
0.1940961475
0.1641744739
0.1413824719
0.1328773261
0.1397350767
0.1520679721
0.1685175319
0.2023809393
0.2890029728
0.208376116
0.2037324053
0.2021755916
0.2006098275
0.2082471887
0.1860836296
0.1929120949
0.2099741356
0.4273337672
0.2918666691
0.2847475372
0.2798724996
0.3225478183
0.6991503873
2.81628219
0.2285480719
0.156699153
0.1307927028
0.1125415375
0.1051757251
0.1094046548
0.1196707991
0.1331071195
0.1479713708
0.1645166637
0.1823107055
0.1948685405
0.2034519366
0.2112571313
0.2498018428
0.4148391928
0.216858548
0.2227804026
0.2684980707
0.4700374577
0.3172965961
0.3032092757
0.2829913969
0.2479618221
0.2270002145
0.2147912209
0.1212698649
0.1083035731
0.09353091036
0.08666182797
0.09097582693
0.1002513279
0.1133371042
0.1291183925
0.1463806308
0.165274502
0.1854559534
0.2045379203
0.2256968693
0.2766728617
0.5778991526
1.090765534
0.4551588767
0.3189405828
0.3837720248
0.5176197367
0.3493608638
0.3277901795
0.3069708571
0.2745277711
0.2282475929
0.175961021
0.1239968103
0.09774537784
0.08459642996
0.08432513838
0.09200699792
0.1039655634
0.1189415926
0.1360273755
0.1548765196
0.1758320134
0.1992823888
0.2264337286
0.2685273478
0.382763341
0.7497524683
1.51964784
0.5798476979
0.4139287139
0.5619348249
0.3835969143
0.3579975009
0.3344533966
0.3103341874
0.2740325045
0.2227231165
0.159879758
0.1181546296
0.09838008685
0.09650232087
0.1025424467
0.1138617677
0.1296096762
0.1485904647
0.1699103266
0.1938835957
0.2225665834
0.2618583634
0.3317382503
0.4847255852
0.7876925881
0.9677841601
0.6988516078
0.474235355
0.5950801022
0.4140097008
0.3865113799
0.3649316845
0.3573545162
0.3496376835
0.3056725905
0.2159084352
0.1482629681
0.1176034707
0.1127368069
0.1175416956
0.1281142959
0.144079509
0.1646897772
0.1885151222
0.2157478418
0.2514974795
0.3088944534
0.4214234371
0.6780046467
1.111972406
1.698789712
0.9831676619
0.5568959638
0.6112766897
0.4374223806
0.4135010648
0.4040945553
0.4343696166
0.4952170653
0.4630424503
0.3144309721
0.1892294049
0.1383980687
0.1296015674
0.1335810507
0.1437236214
0.1597321845
0.1814026872
0.2069110839
0.2368349254
0.2734874681
0.3138131041
0.3727208846
0.4962034324
0.734718753
0.9324835419
0.6646040743
0.4509486369
0.6067644039
0.452636322
0.4410548328
0.4609421991
0.5808973085
0.7841054566
0.7520504424
0.4933533432
0.2510174201
0.1604740074
0.1452636431
0.1477376018
0.1571113919
0.173122344
0.1959226422
0.2237363835
0.2580427665
0.2945416596
0.3304844676
0.3594685073
0.4232361081
0.4696879652
0.5232129893
0.446218416
0.4032131352
0.3774625357
0.5806957118
0.4595510251
0.4711628591
0.5446384551
0.8610715815
1.22041488
1.174429805
0.7655895678
0.3388130385
0.1839083148
0.1594531469
0.1597443873
0.1675067122
0.182350624
0.2048831092
0.2344706294
0.2701357764
0.3061068281
0.3328886517
0.3531526869
0.3760670172
0.3972094112
0.4142126906
0.4040818493
0.3906846249
0.378101842
0.07906466038
0.1130909536
0.1519137186
0.1888390279
0.2245578985
0.2600966038
0.2960630494
0.3322298758
0.3676895943
0.4011349599
0.4312501578
0.456969072
0.4774578652
0.4918810353
0.4992144915
0.4986274405
0.4903734496
0.4762203441
0.4587891104
0.4405331461
0.4233686149
0.4091606381
0.3995403301
0.3954609929
0.3944764179
0.3848087261
0.09756421101
0.1021398071
0.1254272082
0.1462998096
0.1659879993
0.1849191395
0.20387167
0.2227584814
0.2412392949
0.2589335586
0.2754626883
0.2903047831
0.302584726
0.3110740563
0.3146730454
0.3132372942
0.3079735006
0.3006895385
0.2924223775
0.2831711993
0.273552426
0.2650455359
0.2588160312
0.2551848192
0.2535635995
0.2518059816
0.09791821963
0.1042511127
0.1308800214
0.1526335048
0.171422681
0.1886168651
0.2050737561
0.2206334234
0.2351327593
0.2485735775
0.2610252959
0.2724203852
0.2823778215
0.2901654663
0.2949235044
0.2961097416
0.2938358517
0.2886868962
0.2811735292
0.2715789615
0.2605712417
0.2500477767
0.2420823042
0.2372542106
0.2359272299
0.2390619309
0.09011759932
0.1082344831
0.1381106567
0.1586852601
0.1752100128
0.1899694301
0.2038415639
0.2165579865
0.2281880492
0.23915804
0.2499544228
0.2608130322
0.2715001682
0.2812446503
0.2889042057
0.2933831111
0.2940548494
0.2907390568
0.2833661435
0.271905453
0.2569297687
0.2413936819
0.2299709822
0.2245543806
0.2258048583
0.2357918024
0.08935341076
0.1218992293
0.1527874477
0.1680458696
0.1795386307
0.1903506082
0.2012997934
0.211826
0.2220172943
0.2325702634
0.2443030154
0.2576560803
0.2723499196
0.2872694691
0.3006624251
0.3107236441
0.316170244
0.3159942547
0.309070961
0.2944491651
0.2724641233
0.2474411552
0.2283141521
0.2204580468
0.2248400544
0.2440450865
0.1215548285
0.1505444394
0.1772042112
0.1832682043
0.1869395156
0.1917148066
0.1989569554
0.2079222431
0.2183295995
0.2307972892
0.2463095921
0.2654387132
0.2877226149
0.3114323737
0.3337934565
0.3521818793
0.364772278
0.3695624828
0.3638276949
0.3450383807
0.3128692075
0.2733835262
0.2407836856
0.2269310206
0.2334038177
0.2637392024
0.1903666502
0.1914914898
0.2092801628
0.2064080723
0.2011869646
0.1975611347
0.1993267976
0.2065242568
0.2181783579
0.2343452263
0.2559958845
0.2838426638
0.3170538712
0.351731704
0.3846814416
0.413062222
0.4344377693
0.4455513108
0.4418531859
0.4193131027
0.3761433413
0.3187005662
0.2682934389
0.2464026747
0.2514401806
0.2922869527
0.2743851465
0.2367914772
0.2460638465
0.2388106454
0.2256618635
0.2115473054
0.2049632613
0.2087511551
0.2213549031
0.2417464121
0.2706934354
0.3090721352
0.3529367246
0.3983277311
0.4413386633
0.479002145
0.5085145751
0.5254192689
0.5238734397
0.4994952021
0.4480390412
0.3744072922
0.3075064886
0.2897267431
0.2785627647
0.3233512482
0.3496707859
0.2785956628
0.2844901111
0.2778706853
0.2593050899
0.234348881
0.2165698361
0.2141476692
0.2259582527
0.249517598
0.2850820169
0.3320936653
0.3843561442
0.4373584892
0.4870194498
0.5306175658
0.5654270017
0.5856718766
0.5852589396
0.5616043831
0.5069909819
0.4237879087
0.3545910984
0.3993893822
0.3188037919
0.3486052733
0.3981216644
0.3081275966
0.315575052
0.3122754736
0.2923360191
0.2596091758
0.2303662048
0.219574965
0.2283494046
0.252880978
0.2925558203
0.3437122955
0.3997096362
0.4553258538
0.506697075
0.5520469303
0.5900585305
0.6105249859
0.6085996296
0.5871860961
0.5347730758
0.4503925679
0.3796216537
0.4347157798
0.3444447603
0.3638679872
0.4112391408
0.3168558703
0.3264767022
0.3270647005
0.3097925161
0.2746737665
0.2380599534
0.2199877697
0.2247316935
0.2477722746
0.2872123504
0.3376555322
0.3921618305
0.4453487893
0.4940332957
0.5388271529
0.5840047854
0.6041877024
0.5925419149
0.5710004864
0.524326586
0.4453852737
0.3621419644
0.3186294578
0.3171294151
0.3635313148
0.3909658376
0.3028397732
0.3131347014
0.316314789
0.3019502328
0.2681316531
0.2312230317
0.211210889
0.2135287371
0.2336461742
0.2686499194
0.3140767208
0.3626027796
0.4093914255
0.4520242061
0.492347255
0.5377782674
0.5778410888
0.5447558004
0.5197337776
0.4749510262
0.4057319867
0.335752225
0.2982970737
0.3045145122
0.3524427212
0.3422202352
0.2704308145
0.2813722081
0.2832916158
0.2681691949
0.2373291052
0.2076435454
0.1930788947
0.1965568752
0.2139960599
0.2422095483
0.2792713221
0.3185153031
0.3559647197
0.3894340723
0.4192575257
0.4464305624
0.466421766
0.4609145751
0.4415393701
0.402091971
0.3485148559
0.3001301309
0.277999512
0.2899198255
0.334172546
0.2711515022
0.2246707673
0.2367284697
0.2325175739
0.2146281107
0.1908729212
0.1749694667
0.1711175885
0.1785827389
0.1943191289
0.2160848998
0.2424536753
0.2708030271
0.2974750291
0.3207416867
0.3405430424
0.3570774269
0.3679254116
0.3669726304
0.3527878756
0.3254659689
0.2923840101
0.2669248606
0.2597490293
0.2750636924
0.3135722731
0.2029340476
0.1720297168
0.1833407613
0.1727159169
0.1571118704
0.1470574855
0.1474842613
0.1544559054
0.1655566954
0.1791761932
0.1947854397
0.2119301188
0.229518406
0.2460928741
0.2604102953
0.2725269159
0.2829249949
0.2901170634
0.2892075108
0.2810035448
0.2675738301
0.2532188233
0.2447266698
0.247021278
0.2629080735
0.2943291874
0.1787527253
0.1262481903
0.13295545
0.1256950871
0.1215521765
0.1262457709
0.138581058
0.1520930448
0.163447293
0.1723527342
0.1812980621
0.1913019211
0.2016075746
0.2115301572
0.2213582048
0.2324556949
0.2467103286
0.2588109421
0.2524748793
0.2435775611
0.2376478621
0.23395108
0.2342186219
0.2405130446
0.2547519309
0.2790018299
0.2036144545
0.1118389299
0.1094001212
0.1135861168
0.1239912878
0.1381260455
0.1558217605
0.1714955072
0.1791091565
0.1778941752
0.1767106113
0.1799821262
0.1860841806
0.1939431693
0.2062677307
0.2318129322
0.2826217448
0.3277109314
0.2732790872
0.2373958417
0.2283897513
0.2280742598
0.2315627742
0.2386816989
0.2505459787
0.2689220895
0.2434280819
0.1331382402
0.1265141744
0.1391690098
0.1594629317
0.1772260712
0.1971003514
0.2121176338
0.2151379606
0.1986028277
0.1805123147
0.1745379162
0.1781237917
0.1892190287
0.2206778353
0.3185699958
0.5818236893
0.7926498691
0.4527459737
0.263948326
0.2312595167
0.2287622066
0.232667984
0.2392513133
0.248760489
0.2626705829
0.2774688828
0.1628803748
0.1627817061
0.1863375731
0.2152419481
0.2341383118
0.2611973308
0.2599433195
0.2602660613
0.2307787002
0.191373578
0.1714959374
0.173409619
0.1971994329
0.2932979106
0.6671069183
1.778713234
4.117518512
1.177118525
0.3663189812
0.2422900316
0.2316646229
0.2345629206
0.2400987306
0.2474412462
0.257857319
0.3042361292
0.1901908152
0.2014665682
0.2375235697
0.2745219898
0.3295533357
0.4456196653
0.2992976081
0.2891038869
0.2572051498
0.2039033455
0.1685891099
0.1688391987
0.2140281617
0.4272473806
1.319874731
3.688332675
3.825657182
2.885202254
0.5206754195
0.2557536218
0.2346421869
0.2369700601
0.2412303418
0.2469335422
0.2554865834
0.3275481625
0.2128112306
0.2296222104
0.2751169397
0.3823820235
0.9456660731
1.447337444
0.3858435456
0.2879203615
0.2553239782
0.2025551884
0.159317863
0.148642141
0.1612737204
0.2076281268
0.3919000722
1.062328972
2.119541682
0.6491543995
0.2820217344
0.2408175487
0.240899018
0.2467736881
0.2487583615
0.2538876863
0.2682999414
0.3555508798
0.2317412889
0.2426118483
0.3294302692
1.139178728
2.718225912
5.864922158
0.7182017642
0.2866173937
0.2119877232
0.1740618205
0.1407252339
0.1311544128
0.1392376428
0.1561672065
0.1853158828
0.2491072225
0.350033258
0.2497640068
0.2337789146
0.2430022971
0.2637603989
0.2948227655
0.284410326
0.2875508759
0.2996565396
0.3986350953
0.2525127698
0.2447634464
0.3024214387
0.7493752256
3.669713552
7.887072678
1.048364918
0.2268612528
0.1462282689
0.125892222
0.1120415992
0.1133585061
0.1248573893
0.141895075
0.1617638562
0.1841555573
0.2081617863
0.2206312853
0.2396605268
0.2789351243
0.3874174447
0.5579394291
0.4385227707
0.3688623276
0.3785485403
0.4592105677
0.2823062251
0.2504338897
0.2351395081
0.2324817375
0.2968747907
0.6418250404
0.1444715423
0.1024723933
0.09448249272
0.09237265474
0.09637817976
0.1052523626
0.1192851825
0.1374264211
0.1578050059
0.1795715801
0.2024174878
0.2283913383
0.2751228518
0.4130286101
0.7818738964
1.128044066
0.7013431584
0.4892393083
0.4632509214
0.5241692278
0.3204011259
0.276060168
0.2463996378
0.2191077157
0.1894585181
0.1632272326
0.1149489325
0.09350334976
0.0845052093
0.08665956638
0.09463790289
0.1063737226
0.1215959697
0.1399768341
0.1609983961
0.1844574922
0.2116325466
0.2513041059
0.341126201
0.5939638768
1.128565971
1.446754534
0.9325112346
0.5828635083
0.58361997
0.3580441358
0.3108660743
0.2793227487
0.256973256
0.2316258701
0.1949496482
0.151216227
0.1139179204
0.09726891486
0.09603945605
0.1019187072
0.1126035722
0.1276191537
0.1464300319
0.1685296838
0.1941807913
0.2262156481
0.2747438423
0.3697840852
0.5713999416
0.8666335999
0.9716260347
0.760265315
0.5165915611
0.6313430324
0.3910516702
0.3456094029
0.3208240725
0.318919327
0.3221785333
0.2924219534
0.2212234111
0.1499342533
0.118018273
0.1116864347
0.1150326755
0.1238011101
0.1377781347
0.1569779585
0.1809579277
0.2097899995
0.2469255394
0.3039364805
0.4210891605
0.6675920805
0.9826808495
1.007002358
0.8957415982
0.5381840976
0.6603211033
0.4167791996
0.3789684824
0.3756944355
0.4250330547
0.4988001789
0.4884901198
0.362122567
0.2101094269
0.144602964
0.12984972
0.1304955954
0.1375829071
0.1506015938
0.1702043729
0.1957796809
0.2252929084
0.2564886868
0.2876362709
0.3503999758
0.4831233458
0.7025211176
0.8832968321
0.6500010707
0.4255586036
0.6650873984