/*--------------------------------*- C++ -*----------------------------------*\
  =========                 |
  \\      /  F ield         | OpenFOAM: The Open Source CFD Toolbox
   \\    /   O peration     | Website:  https://openfoam.org
    \\  /    A nd           | Version:  8
     \\/     M anipulation  |
\*---------------------------------------------------------------------------*/
FoamFile
{
    version     2.0;
    format      ascii;
    class       volScalarField;
    location    "1.5";
    object      k;
}
// * * * * * * * * * * * * * * * * * * * * * * * * * * * * * * * * * * * * * //

dimensions      [0 2 -2 0 0 0 0];

internalField   nonuniform List<scalar> 
67410
(
0.007818268322
0.01015477593
0.01199342438
0.01353089739
0.01492714264
0.01622310871
0.01741332382
0.01846555379
0.01934354134
0.02002078082
0.02048851276
0.02075854543
0.02086110937
0.02083537814
0.02070816004
0.02046424031
0.02003572427
0.0193527357
0.01845414566
0.01750824304
0.0165716887
0.01579964218
0.01526892775
0.01499133021
0.0149635287
0.01489450234
0.00759528547
0.01035255252
0.01266046966
0.01458566917
0.01637424081
0.01809065883
0.01971510612
0.02120013127
0.02250676567
0.02361592803
0.02452768783
0.02525127674
0.02579092961
0.02613397675
0.0262459343
0.02607883125
0.02560307521
0.02485544844
0.02394142892
0.02289878903
0.02163677765
0.02051568836
0.01978477234
0.01932806274
0.01913269716
0.01913505038
0.007411816677
0.0109050754
0.01356373437
0.01564032221
0.01763294079
0.01961553809
0.02151255115
0.02324023887
0.02475662778
0.02606421791
0.02719570894
0.02818667904
0.02904499917
0.02973013452
0.03015308866
0.03021083686
0.02986428846
0.02920545176
0.0283752168
0.02722857053
0.02528760456
0.02330858696
0.0221938573
0.02147257744
0.0212011523
0.02184910493
0.007880183373
0.01244085016
0.01495604877
0.01666353181
0.01849459465
0.02052009031
0.02255131785
0.0244310335
0.02611324284
0.02764482317
0.02911256508
0.03057426429
0.03200264028
0.03327308066
0.03420429656
0.03465202159
0.03462702429
0.0343116543
0.03381331688
0.03260583481
0.02948141928
0.02563331391
0.02381893999
0.02291539539
0.02300813754
0.02519492972
0.01099512406
0.015420625
0.01715773504
0.01797727697
0.01921323365
0.02102319038
0.02309011969
0.02513011993
0.02707865812
0.02903811413
0.03113957793
0.03341115849
0.03572198533
0.03782898425
0.03947236798
0.04053459931
0.04113406878
0.04150247398
0.04157284649
0.04034278086
0.03574058187
0.02867362791
0.02539916145
0.02426752595
0.02530124657
0.03016281963
0.01595980176
0.01911598279
0.01989671312
0.01966271544
0.01995090258
0.02126125784
0.0232951376
0.02560695646
0.02806752764
0.0307939107
0.0338828706
0.0372470158
0.04062087495
0.04371309098
0.04620169247
0.04807254749
0.04954804176
0.05080109219
0.05148181712
0.05022897985
0.04438189962
0.03327510072
0.027356162
0.02571042683
0.02833096398
0.03679152942
0.02035299422
0.02252520732
0.02273221596
0.02166941445
0.02086506332
0.02140998882
0.02335990122
0.0261268092
0.02940519373
0.03320186179
0.0374701689
0.04200978636
0.0464350394
0.05027762282
0.05346494671
0.05614171613
0.05850674301
0.06052449799
0.06158493856
0.06032753876
0.05430043316
0.0397506045
0.03002881918
0.02731193352
0.03191019151
0.04389752153
0.02325804069
0.02526053229
0.025401543
0.02389078291
0.02206230122
0.02165855264
0.02347036239
0.02684689702
0.03113152175
0.03606561339
0.04143213599
0.04691891891
0.05191624704
0.05626477224
0.06003754524
0.06340126157
0.06645459106
0.06896657096
0.0701819969
0.06887220563
0.0631072985
0.04756473286
0.03350414462
0.02893710204
0.03515873494
0.04946489335
0.02487135911
0.02725369535
0.02770012138
0.0260968921
0.02346377284
0.02208333571
0.02368325718
0.02766584828
0.03288773001
0.03875228494
0.04493971687
0.05087721611
0.05619194898
0.06089280954
0.0650953416
0.06893100539
0.07239593624
0.07512544661
0.07630398994
0.07484571533
0.06922077402
0.05425419247
0.03731362893
0.03030751125
0.0369722372
0.05184693332
0.02547362027
0.02841652441
0.02935487415
0.02787491685
0.02469747995
0.02249763707
0.02380365014
0.0281773687
0.03402711997
0.04045822584
0.04706907911
0.0531755821
0.0586295839
0.06349956503
0.06789856896
0.07192267059
0.0755041268
0.0781998462
0.07916877798
0.07744356464
0.07166953339
0.05751463284
0.04023154533
0.03122454722
0.03692611351
0.05065115226
0.02521164191
0.02860581764
0.0300237767
0.02866495047
0.02517508942
0.02248527787
0.02345084094
0.02783634166
0.03387244835
0.04050149446
0.04721157291
0.05332740046
0.05875579973
0.06356762937
0.06787428188
0.07177446143
0.07519947968
0.07766428553
0.07827901434
0.07612431228
0.06979632558
0.05611002281
0.04027572339
0.03166959424
0.03574017245
0.04706852913
0.0242036562
0.02768096955
0.02910977606
0.0277012743
0.02427413604
0.0216074438
0.02228898314
0.02621451793
0.03188955368
0.03830262761
0.04493195007
0.05100149672
0.05629063587
0.06082016417
0.06471370462
0.06812868756
0.07108680425
0.07318133959
0.0733472572
0.07053523028
0.0631004719
0.04971126977
0.03766311103
0.03193777412
0.03456639585
0.04310177027
0.02263731554
0.02573065837
0.02662452249
0.02488978875
0.02178517521
0.01969942107
0.02029974676
0.02333582515
0.0279784992
0.03363326762
0.03984246497
0.04587284209
0.05103844533
0.05513534966
0.05823660723
0.06054607882
0.06221680925
0.063099364
0.06248240724
0.05911971902
0.05157678624
0.04113649221
0.03517814856
0.03290295544
0.03343531164
0.0384953242
0.02060361264
0.02293990006
0.02309453729
0.02096541536
0.01850561237
0.01748130119
0.01831585789
0.02039259338
0.02345158705
0.02743340075
0.03215092408
0.0372435415
0.04199126851
0.04549456377
0.04753475471
0.04831131938
0.04822738397
0.04766169123
0.04667721762
0.04463216164
0.04092107518
0.03699987825
0.03496569737
0.03395890353
0.03335051557
0.03403903508
0.01810961017
0.01941032846
0.01921316008
0.01743374222
0.01638130825
0.01662538895
0.0177324132
0.01913742463
0.02098585219
0.02349756899
0.02646618045
0.02957949704
0.03256911599
0.03514174655
0.0368288668
0.03747179443
0.03744293882
0.03722470837
0.03712338646
0.03694689449
0.03651211401
0.03593981262
0.03535151137
0.03486190804
0.03435264054
0.03393089793
0.01689865033
0.01636531922
0.01677494179
0.01693871966
0.01748875781
0.01838260024
0.01923950271
0.01970589629
0.02015218207
0.02143312869
0.02352262053
0.02574032946
0.02778070012
0.02960883725
0.0312143127
0.03252614192
0.03351125026
0.03426449334
0.03493594426
0.03536810089
0.0356244958
0.03567964121
0.03554509527
0.03532243338
0.03499942034
0.03461862915
0.01895483347
0.01718047503
0.01845182995
0.02000615873
0.02110931323
0.02192459677
0.02244997526
0.0222337342
0.02119272394
0.02065028093
0.02183711535
0.02388716524
0.02586258796
0.02770293344
0.02949282538
0.0311333036
0.032598926
0.03409795036
0.0344527188
0.03493364596
0.0353117074
0.0354747319
0.03545223405
0.03527214071
0.03495620684
0.03452586923
0.02209191712
0.02111798031
0.02253485438
0.02386210365
0.0246321434
0.02516361772
0.02565265156
0.0255521689
0.02392581579
0.02133569258
0.02061585668
0.02235811623
0.02456075598
0.02663771939
0.02863482096
0.03059678581
0.03343261113
0.04242264884
0.03401402137
0.03397603045
0.03440350258
0.03459058762
0.03458726513
0.03438065108
0.033995162
0.03346479885
0.02454861543
0.02425404565
0.02556877183
0.02658566078
0.02708893319
0.02737385435
0.02790150148
0.02844028939
0.02733593481
0.02365110329
0.02024259575
0.02065274927
0.02297961194
0.02535014213
0.02786101564
0.03203911582
0.04791267495
0.1023848358
0.03717275485
0.03272433115
0.03278234049
0.03278343023
0.03264546901
0.03231384258
0.03182482002
0.03121275398
0.02623467588
0.02611183506
0.02726496118
0.0282866707
0.02884284835
0.02872569278
0.02884130353
0.02994705644
0.0299926397
0.02664150638
0.02120150149
0.01879090688
0.02051475735
0.02299754996
0.02705642549
0.04068670002
0.09277514238
0.2078280496
0.04266306756
0.0304067963
0.0295916599
0.02934474196
0.02901975573
0.02858259992
0.02796914528
0.02725239526
0.02747418064
0.02725200621
0.02795361653
0.02898069498
0.02966695746
0.02914260131
0.02859114232
0.02914407031
0.03013625952
0.0279640138
0.02289906493
0.01799913478
0.01786768889
0.01963690142
0.02146042302
0.02392516323
0.03038270122
0.05113731161
0.02635184125
0.02536055074
0.02462260517
0.02405463628
0.0235385342
0.02307967905
0.02257869676
0.02229210731
0.02859687661
0.0284631052
0.02818379687
0.02826936344
0.02901349161
0.03271247511
0.03372112407
0.02582216923
0.02721678811
0.02497396723
0.02102396049
0.01760691852
0.0161249476
0.01690006528
0.01819695161
0.01938573137
0.02065076247
0.02284225965
0.02105002173
0.02106220454
0.02062620801
0.01964095625
0.01870703056
0.0182327924
0.01878382989
0.02076881496
0.02966325258
0.03031232755
0.02941618462
0.02752642087
0.02617424484
0.02491716041
0.02774648111
0.01974419906
0.02076666394
0.01802145277
0.01428321727
0.013070721
0.01357850307
0.01466329357
0.01597971039
0.01736146877
0.01876489211
0.02014563208
0.0213985459
0.02216924734
0.02182424383
0.02025958144
0.02092718615
0.01773267637
0.02163420107
0.0297085821
0.03075027829
0.03247745846
0.0320196925
0.02965143175
0.02580312329
0.02262648821
0.01862008048
0.01531153203
0.0147552851
0.01265258589
0.01101432646
0.0113339098
0.01248238197
0.01401198344
0.01578801823
0.01773184382
0.01981616515
0.02198768391
0.02407831385
0.02550437437
0.02570651003
0.02775137946
0.04999874837
0.02347233831
0.03150082845
0.04552448896
0.03183592004
0.03474449984
0.03467511287
0.03271794853
0.02960220877
0.02602994409
0.02189493317
0.01597986246
0.01281075689
0.01119994883
0.01093959599
0.01171949067
0.01306099715
0.01478330446
0.01678992223
0.01899316057
0.0213163921
0.02368607478
0.02599769603
0.02821698106
0.03120553841
0.03885408132
0.0541707711
0.03268124395
0.03875242272
0.03270743159
0.03674453194
0.03721693707
0.03518519392
0.03271232588
0.03043324818
0.02640397772
0.01932640738
0.01461565651
0.01250900704
0.01238870963
0.01310530362
0.01437945795
0.01617598379
0.01842652281
0.02099544695
0.02376446236
0.02672889002
0.03009084153
0.03486231328
0.04423224678
0.06257224837
0.08534896593
0.0493852309
0.04766809462
0.03319876675
0.0383100239
0.03912972041
0.03714987206
0.03603789624
0.03701110109
0.03376271609
0.02433255789
0.01706359509
0.01409939981
0.01390287887
0.0146533117
0.01597886906
0.01795133526
0.02060954499
0.0238350285
0.02750964396
0.03175665844
0.03705425238
0.04572496083
0.06686338277
0.1055408309
0.1537603314
0.08208470061
0.05548953614
0.0332045889
0.03931810558
0.04027883229
0.03908250107
0.04170933226
0.04877879002
0.04649603514
0.03216470319
0.02025557553
0.01558226312
0.0152206677
0.01603671841
0.017482672
0.01971737999
0.02287957677
0.02688116353
0.03166387659
0.03684799421
0.04081848764
0.04093606719
0.04537531886
0.05599963776
0.0768999824
0.04917214971
0.04517117018
0.032660658
0.0396868566
0.04088116063
0.04281959624
0.05310469384
0.06740810142
0.06547241691
0.04396388129
0.02513203538
0.01703156093
0.0163605063
0.0171992396
0.01869930499
0.02107837704
0.02455189353
0.02906018808
0.03439883072
0.03931470887
0.04229813721
0.04270902838
0.04369418025
0.04366199857
0.04646214975
0.04257367167
0.0428026466
0.04437466946
0.031587373
0.03954451959
0.04251781213
0.05262726841
0.07196465491
0.08975049127
0.08818213124
0.05845745801
0.0319042731
0.01846651607
0.01742181469
0.01825770544
0.01964871349
0.02179701231
0.02499411394
0.02939377959
0.0349180714
0.03996346443
0.04301343352
0.04393500822
0.04420145673
0.04386799295
0.04404464714
0.04593046682
0.04816651687
0.04996959162
0.008558693301
0.01142523361
0.01383856281
0.01585583041
0.01769310881
0.01943474582
0.0211155228
0.02272165832
0.02421316362
0.02554250023
0.02666981772
0.0275678466
0.0282173536
0.02860122279
0.02868924006
0.02844798867
0.02787800917
0.02704998914
0.02608732033
0.02511562422
0.02419986027
0.0234488312
0.02295019976
0.02278321714
0.02287923211
0.02253809162
0.009322732732
0.01474796999
0.01815395324
0.02110172035
0.02396160976
0.02683510184
0.02978586203
0.03274895767
0.03561773822
0.03829693323
0.04072288187
0.04283806121
0.04454645593
0.04570079131
0.04615352646
0.04587645657
0.04503407083
0.04390389671
0.04267507661
0.04134174783
0.03994721389
0.03871231742
0.03778682527
0.03716207585
0.03666534102
0.03571730779
0.009172015789
0.01560998824
0.01983087589
0.02349315067
0.02706776046
0.03070103245
0.03438119889
0.03791942253
0.04113395264
0.04394031591
0.04635233198
0.04841728421
0.05013780944
0.05144410762
0.05221269555
0.05233386159
0.05179870399
0.05073181458
0.04931317336
0.04761750689
0.04563313464
0.04372103023
0.04216485806
0.04079488024
0.03956454845
0.0386127057
0.008839399727
0.01629764438
0.02099135103
0.024781752
0.02856596713
0.03256079768
0.03663976869
0.04045584936
0.04378121263
0.04661397616
0.04909635292
0.05136078197
0.0534279293
0.05518696453
0.0564436683
0.05700895506
0.05679991026
0.05588392723
0.05438527069
0.05224606301
0.04926957048
0.04617731541
0.04383270652
0.04197421403
0.04058755587
0.04026874594
0.01010265161
0.01827230797
0.02294881058
0.02607043339
0.02937514999
0.0332599564
0.03748298952
0.04148747085
0.04498121074
0.04805695024
0.05097366959
0.05389894715
0.05678516036
0.05940799987
0.06150301975
0.06284649186
0.06331075377
0.06285514111
0.06140556051
0.05864711545
0.05422602646
0.04916734933
0.04543762256
0.04304341018
0.04188115229
0.04275847093
0.01409827331
0.02201214604
0.02609046831
0.02782362898
0.0299201876
0.03312827027
0.03723423359
0.04146664343
0.04539933487
0.04914097446
0.05297584405
0.05699179753
0.06099358646
0.06462644784
0.06773615845
0.07012470689
0.07158746717
0.07186064919
0.07056619813
0.06718989851
0.06137792643
0.05398823046
0.04796994894
0.04459103426
0.043776011
0.04635167487
0.01910120354
0.02706161297
0.03022636578
0.03031744711
0.03072829386
0.0327022446
0.0363829472
0.04089922725
0.0455842492
0.0504084872
0.05550254536
0.06069567998
0.06570210132
0.07043138135
0.07468279053
0.07823236683
0.08078811411
0.08190349974
0.08093986674
0.0771773166
0.07018643269
0.06091075151
0.05199436727
0.04703971611
0.04646274946
0.05091821088
0.02348988323
0.03252660896
0.03491936297
0.03369679537
0.03235556861
0.03267500413
0.03556680979
0.04030294783
0.04588660473
0.05195394213
0.05827167222
0.06442690666
0.07046814813
0.0762603095
0.08160170469
0.08623539996
0.08978293593
0.09163704782
0.09097816559
0.08701578699
0.07929650292
0.06866464249
0.05759846362
0.05083648217
0.0499485944
0.05590465634
0.02665442327
0.03722345005
0.03941532449
0.0376808599
0.03498963868
0.03352670591
0.03529819671
0.04002142734
0.04635222247
0.05343858129
0.06056083551
0.06750201258
0.0743337812
0.08092910441
0.0870807669
0.09250722081
0.0967592382
0.09908626694
0.09857515488
0.09455732361
0.08660041004
0.07549430167
0.06415206021
0.05684042577
0.05417455146
0.06064572864
0.02832254071
0.04010288243
0.04262263144
0.04117625575
0.03787124155
0.0349501695
0.03549236911
0.03989014328
0.04657023211
0.05419183542
0.061661418
0.06898935162
0.07619568448
0.08315172387
0.0896572693
0.09544182886
0.1000381467
0.10251237
0.1019262994
0.09796550385
0.09024447289
0.07963780945
0.0690573267
0.06176728211
0.05860266767
0.06465926827
0.02850646555
0.04081410824
0.04361740602
0.04271973321
0.03944607975
0.03579865605
0.03541003946
0.03926279315
0.04581742724
0.05344230067
0.06089504408
0.06819305924
0.07531348054
0.08212946089
0.08848586787
0.09419481781
0.09889199063
0.1013116017
0.1004136059
0.09656477407
0.08946986011
0.08003102152
0.07054463233
0.06318186948
0.06164395482
0.06738335687
0.02743502186
0.03940397352
0.0421462974
0.04140308978
0.03830260905
0.03480798645
0.03421396114
0.03755509606
0.04360982711
0.05088269059
0.05807152373
0.06504529641
0.07171539697
0.07796768141
0.08373478
0.08895713997
0.09338686319
0.09601718288
0.09490904694
0.09135592276
0.08515156101
0.07743750074
0.07006772058
0.0651232555
0.06434302689
0.06904813041
0.02523599079
0.0359018516
0.03804529914
0.0368093989
0.03394654338
0.03143932286
0.03152806031
0.03465932145
0.04007161996
0.04676068773
0.05366585624
0.06021526598
0.06625641808
0.07170213774
0.07658256473
0.08096565495
0.08468531098
0.08707215133
0.08704557658
0.08424722387
0.07912586314
0.07303684019
0.06760237415
0.06460016402
0.06513483117
0.06909736089
0.0218578151
0.03038934073
0.03161719784
0.02957664597
0.02732809266
0.02649310835
0.02788451707
0.03117593323
0.03604740061
0.04206518955
0.04858687524
0.0548435966
0.06028649961
0.06493438089
0.06888131256
0.07233020621
0.07528316986
0.07731142917
0.0776833259
0.07586330142
0.07216228635
0.06778801109
0.06448699643
0.06312884146
0.06425754295
0.06790976179
0.01814548589
0.02357041805
0.02428305546
0.02203888478
0.02095880852
0.02192139872
0.0245182752
0.02804924773
0.03251473064
0.03786741322
0.043638403
0.04926595596
0.05428924877
0.05833471904
0.06146300358
0.06403869211
0.06619790301
0.06774499925
0.06833025757
0.06752286298
0.0656459187
0.06347049193
0.06209384797
0.06188470358
0.06316535657
0.06614602044
0.01675287664
0.01772151368
0.0184639899
0.01761302586
0.01796908934
0.01991149035
0.02287675434
0.02615117342
0.02983345674
0.03438022881
0.03957491042
0.04465127661
0.04909545762
0.05273996818
0.05559091589
0.0579179443
0.06009856876
0.06193646735
0.06240133309
0.06211726895
0.06157158684
0.06091970595
0.06066867457
0.06100116592
0.06213859086
0.06430981254
0.01856591518
0.01635066532
0.01680878232
0.01758756681
0.01904097163
0.02121669958
0.02399219417
0.02659343344
0.02883242902
0.03170491256
0.03596262431
0.04079696786
0.04515249676
0.04873873861
0.05171777943
0.05476182425
0.05913901766
0.06537982709
0.06105000372
0.05961053668
0.05950854086
0.05948220082
0.05969285007
0.06015981305
0.06103826902
0.06252892481
0.02128645645
0.01925514047
0.01955547969
0.02066676592
0.02234819723
0.02447442027
0.02715715968
0.02936867525
0.03022248258
0.03059266133
0.03279727146
0.03711440277
0.04169141017
0.04570236112
0.04968051339
0.05629661149
0.07565193269
0.1312493548
0.06972175323
0.05909075525
0.05827519938
0.05818099851
0.05846213683
0.05885209832
0.0594549521
0.06044585518
0.02347048208
0.02276233417
0.02362407201
0.02495924518
0.02667735135
0.02851375521
0.0309814624
0.03298873208
0.03328563103
0.03133705297
0.0303152872
0.03305078692
0.03778823002
0.04285666119
0.05040222542
0.07309533666
0.1704332339
0.237709546
0.145733889
0.06152504776
0.05712240172
0.05602544704
0.05609436644
0.05628117583
0.05662559489
0.05727829481
0.02502364311
0.02574457994
0.02735546776
0.02924607529
0.03092191263
0.03276013269
0.03494629945
0.03524978012
0.03547470005
0.03272677073
0.02890693358
0.02891990658
0.03330028485
0.04012774064
0.05560396546
0.1083113434
0.2509507079
0.4098144643
0.1646736764
0.06541270981
0.05394239086
0.05221784128
0.05178414018
0.05163029105
0.05176796843
0.05225746921
0.02615923282
0.02820021173
0.02978323611
0.03198809606
0.03451098262
0.04058162388
0.04773765136
0.03526187474
0.03378680125
0.03154301442
0.0273945236
0.02498330276
0.02710145149
0.03140790909
0.03701740661
0.04792475194
0.07851971271
0.1320892955
0.06915348758
0.05132570393
0.04882839655
0.04689135022
0.04527008621
0.04421120222
0.04420011085
0.04495036024
0.02727628078
0.03083297567
0.03129412495
0.03329782063
0.04110378341
0.0975637138
0.1134625719
0.03477108957
0.02862605094
0.02577468656
0.02326610054
0.02161799843
0.02245444839
0.0257151784
0.02982250736
0.03452567374
0.04107759433
0.05172455423
0.04526143465
0.04458477816
0.04355613544
0.04173637073
0.04089070826
0.0369412391
0.03826603597
0.04120203565
0.02878986189
0.03454632283
0.03353681079
0.0316157792
0.03374980306
0.04604388199
0.1104978865
0.02363150467
0.02022428554
0.01838824458
0.01743523064
0.01762769092
0.01934935879
0.02244331464
0.02652040268
0.03108801403
0.03589005326
0.04053158761
0.04383952354
0.04546237474
0.04573164606
0.04918923241
0.0673547469
0.04153469713
0.04491120875
0.05386661564
0.03067577816
0.03916906601
0.03850830306
0.0335517157
0.02863013549
0.0262453617
0.02337706004
0.01604930263
0.0148772326
0.01419572973
0.01460024874
0.01618402032
0.01845764356
0.02176408463
0.02611960989
0.03111317924
0.03647612971
0.04180324062
0.046311216
0.05000887979
0.05683948169
0.09430825371
0.1473580666
0.07824384505
0.06383958621
0.07458133513
0.03271086318
0.04358433378
0.04460172056
0.03951742828
0.03283664855
0.02711654945
0.02196583519
0.01675674494
0.01422685665
0.01342958036
0.01427230231
0.0162436266
0.01906860467
0.02275716294
0.02728700102
0.03252252707
0.03826565644
0.044232354
0.0502548628
0.05766917442
0.07366070533
0.1157506439
0.182822489
0.0999078053
0.08079997553
0.03455032939
0.04764593485
0.0499434425
0.04614222538
0.03928272113
0.03273005463
0.02679712738
0.02069115729
0.01678818222
0.01539349668
0.01607175653
0.01786915499
0.02059662134
0.02430574294
0.02906476755
0.03478865123
0.04119936996
0.04823761506
0.05650188496
0.06815315904
0.0892154043
0.1244694389
0.1415452117
0.1171221137
0.09081898858
0.03589429473
0.05118617508
0.05449974703
0.05180833782
0.04616768275
0.0409477439
0.03464847651
0.02634941705
0.02040394921
0.01815872688
0.0187333437
0.02055909352
0.0231772044
0.02676048858
0.03176480741
0.03823914777
0.04565544645
0.05398117418
0.06400289256
0.07958702335
0.1094085607
0.1512984126
0.1958547949
0.1425520786
0.1008630234
0.03654126346
0.05406837745
0.0583794634
0.05694867843
0.05454841284
0.05451175301
0.04847252856
0.03544908978
0.02510288824
0.02127798301
0.02169015739
0.02361887921
0.02624361259
0.02985560016
0.03524548212
0.04246096636
0.05037064593
0.05846114111
0.06611140958
0.07521212975
0.09237419102
0.1199918994
0.1381340923
0.1149647228
0.08868261173
0.03636022553
0.05623638011
0.06188524282
0.06254822574
0.06772641763
0.07774966173
0.07233923091
0.05125893742
0.03173752764
0.02466348587
0.02451688734
0.02622988082
0.02871824232
0.03250567096
0.03837775222
0.04609082162
0.05406361669
0.06187808294
0.06851260627
0.07333031611
0.08367258327
0.08981989647
0.09573661614
0.08753859997
0.0810711628
0.07708869007
0.03531081633
0.05767208924
0.06515982139
0.07008515496
0.08883704573
0.1095866437
0.1044002622
0.0742699256
0.04078044105
0.02841869122
0.02748109159
0.02886590801
0.03098725102
0.03455040901
0.04022675478
0.04777148812
0.05556568956
0.06264955295
0.06778007818
0.07154067172
0.0756331895
0.07917192102
0.08189606263
0.08083181367
0.07887582415
0.07706644718
0.009350672585
0.01257932531
0.01531442099
0.0177049201
0.01987245046
0.02191746661
0.02389411344
0.02580232977
0.02760676804
0.02925589848
0.03070169738
0.03190972422
0.03285570897
0.03351329008
0.03384486676
0.03381783407
0.033443333
0.0327965727
0.03199118453
0.0311367011
0.03032248436
0.02964015244
0.02917354755
0.02897422765
0.02892531283
0.02844998227
0.01075747758
0.01743807729
0.02175744904
0.02546431339
0.02903338095
0.03254984391
0.03610622766
0.03965356187
0.04308393529
0.0462877466
0.04918385823
0.05170684171
0.05377255057
0.0552669455
0.05608692498
0.05622033509
0.05578952408
0.05499112414
0.05396668856
0.05276234682
0.05148297126
0.05030170735
0.04933927804
0.04860138949
0.04791610169
0.04688332659
0.0107832487
0.01870306157
0.02401148835
0.02868461157
0.03310766207
0.03742651865
0.04170012434
0.04579526575
0.04955338757
0.05288269694
0.05577285539
0.0582486008
0.06031012046
0.06190633824
0.06295288418
0.06338449521
0.06320382937
0.06248562445
0.06133304117
0.05984048028
0.05811729824
0.05638807888
0.05484461986
0.05349900798
0.0523073896
0.05131081692
0.01020239905
0.01890169979
0.02493954373
0.03007254446
0.03485566605
0.03951325986
0.04407145202
0.04830610018
0.05203105102
0.05522044638
0.0579744879
0.06041049079
0.06257433917
0.0644136887
0.06580725639
0.0666266614
0.06679003407
0.06628329247
0.06513633333
0.06338550907
0.06109200986
0.058609229
0.05642285705
0.05468661234
0.05341654552
0.05289647893
0.01014569735
0.01969489967
0.0261956235
0.03115091644
0.03568835707
0.04020040356
0.04472343751
0.04892939053
0.05258333973
0.05571712437
0.05853267725
0.06121549151
0.06381423294
0.06623329808
0.06829575206
0.06981826601
0.07064116295
0.07063077708
0.06966429527
0.06765234127
0.06460328489
0.06097453191
0.05776559577
0.05555873592
0.05439185346
0.05466583785
0.01245969375
0.02212523285
0.02861598441
0.03272706028
0.03633694831
0.04013108877
0.04430000022
0.04843466309
0.05218329804
0.05556133621
0.05881204098
0.06213098509
0.06552399183
0.06883536327
0.071855328
0.07437097803
0.07613965415
0.07686537825
0.07621860096
0.07399010854
0.07017103539
0.06512287174
0.06035502496
0.05734067509
0.05615201376
0.05741801213
0.01680261826
0.02635180835
0.03237701151
0.035352619
0.03754308611
0.04004018561
0.04346380552
0.0474586572
0.05148062899
0.05541067514
0.0594331802
0.06367910339
0.06808094986
0.07249440881
0.07666748497
0.0803260632
0.08314749054
0.08467639398
0.08439738455
0.08202298517
0.07748647574
0.07119744579
0.06475768832
0.06093120179
0.05918853539
0.06133719516
0.02143626246
0.03170550889
0.0372218439
0.03931060683
0.03999721787
0.04076784633
0.042965239
0.04658211827
0.05088184206
0.0554832736
0.06039904093
0.06563506113
0.07110773963
0.07661645826
0.08185779534
0.0865302146
0.09025441744
0.09244257412
0.09247638841
0.09012291205
0.08515705423
0.07789789503
0.07068890789
0.06840489183
0.06387026563
0.06601215662
0.0251928398
0.03704231419
0.04247028729
0.04420862694
0.04374725166
0.04274469383
0.04331181182
0.04615796862
0.05050152624
0.05562026977
0.06126930885
0.06731612219
0.07362227932
0.0799040995
0.08583429999
0.09112498789
0.09539997482
0.09793059713
0.09811117266
0.09597861521
0.09102351632
0.08345000606
0.07736299237
0.08354860985
0.07103533034
0.07057070847
0.02746579925
0.04101617418
0.04672452677
0.04852800598
0.04756140247
0.04527282772
0.04421636299
0.04600057207
0.05005972107
0.05536699526
0.06139670331
0.06786009555
0.07453542915
0.08107817865
0.08717896791
0.09265044749
0.09727542213
0.09980039935
0.09981935255
0.0980014767
0.09348734732
0.08623191526
0.0804981828
0.08701602585
0.07523311681
0.07378915782
0.02806312731
0.04262012289
0.04844721258
0.05040662242
0.04948632254
0.0466885622
0.04458838429
0.04543797891
0.049047906
0.05424387533
0.0602729063
0.06670342371
0.07324758264
0.07955108537
0.08538694458
0.09084932845
0.09632726888
0.09876157783
0.09779015186
0.09598632882
0.09217282663
0.08556848968
0.07821797665
0.07376588618
0.07202758993
0.07462216107
0.02713076085
0.04150893678
0.04703342609
0.04896936524
0.04818335247
0.04546575486
0.04325990259
0.04380338116
0.04712137872
0.05209069365
0.05785694287
0.06391252084
0.06993336665
0.07562563643
0.08087156864
0.08592136055
0.09146960616
0.09589634114
0.09302929799
0.09089452844
0.08726400319
0.08149393953
0.07524996922
0.07125560504
0.07089185781
0.07438028744
0.02482350383
0.03781317768
0.04279070457
0.04428525995
0.04334211193
0.04108681931
0.0397586529
0.04086136843
0.04429553208
0.04913553689
0.05458231215
0.06009539577
0.06536602523
0.07020714368
0.07456482863
0.07855961132
0.08228641176
0.08512335252
0.08497283989
0.0835287223
0.08028110149
0.07571690355
0.07130452836
0.06889103899
0.06960343425
0.07336885773
0.02125378928
0.0318538046
0.03616894707
0.03670874825
0.03550977214
0.03430308753
0.03467524032
0.0369828127
0.0409070036
0.04579263984
0.05098925418
0.05599831422
0.06050536733
0.06444965341
0.06787938372
0.07092906716
0.07363351184
0.07563034397
0.07614742012
0.07517170322
0.07282073027
0.06984039279
0.06744088103
0.0666824284
0.06817782031
0.07198008438
0.01752287887
0.02453349942
0.02795973902
0.02754081098
0.02662090198
0.02711631256
0.02945023721
0.03303992999
0.03751365597
0.0424887278
0.04748991225
0.05209088017
0.05602558893
0.05923180873
0.06189781658
0.06424064797
0.06636697715
0.06802042571
0.06852884964
0.06800356422
0.06678812024
0.06543073815
0.064671533
0.06506459411
0.06696965807
0.07051803353
0.01610852843
0.0180038433
0.02024299174
0.01999731672
0.02024181535
0.02229534436
0.02594015017
0.03029165736
0.03489909335
0.0396360687
0.04435850436
0.04868817461
0.05231329091
0.05521378591
0.05763889419
0.0600343972
0.0626598062
0.06480237156
0.06470245699
0.0639078892
0.06331068373
0.06300572553
0.06321568737
0.06417965508
0.06611282703
0.06917364412
0.01757145389
0.01542699086
0.01620956204
0.01709158626
0.01886220338
0.02174559577
0.02573681045
0.03010009877
0.03409575087
0.03772236226
0.04161586911
0.04567224903
0.04931933733
0.05243268456
0.05552906138
0.05979452524
0.06627014958
0.07176186733
0.06704896174
0.06329583885
0.06211477616
0.06212244309
0.06272767707
0.06384918085
0.06558237453
0.06807919973
0.0197906851
0.01720280714
0.01739180454
0.01911242521
0.02183628199
0.02490233791
0.02873709077
0.0326403528
0.03564761592
0.03728325465
0.03931740685
0.04270846482
0.04660351288
0.05063578302
0.05629222308
0.06804238476
0.09347487801
0.1102820487
0.08499158405
0.06670526988
0.06249581449
0.06206359283
0.06267909342
0.06372723889
0.06516056073
0.06710644285
0.02159287186
0.02035537949
0.02131350743
0.02402295551
0.02735455774
0.0301410804
0.0337197102
0.03619350096
0.03836602604
0.03808526695
0.03746040111
0.03942741055
0.04363264696
0.0496059883
0.06181452
0.09667081051
0.1787655221
0.3096647202
0.1410953454
0.07835011045
0.06388596878
0.06218181998
0.06254516987
0.06339369319
0.06449614095
0.06594754793
0.02295865619
0.0236334443
0.02575171502
0.02951058332
0.03316567242
0.03728572606
0.04319538732
0.03880104884
0.03962383575
0.03848179381
0.03576035916
0.03574009209
0.03990685459
0.04809626631
0.06917757347
0.1368449074
0.2818769022
0.2992642469
0.2414235963
0.09000676928
0.06511882297
0.06201155715
0.06213923044
0.0626874159
0.06349444572
0.06467745026
0.02411633792
0.02679862867
0.02928485051
0.03350078843
0.04057081579
0.06929351819
0.08156737429
0.04351402949
0.03785243746
0.03623774491
0.03290318421
0.03128714752
0.0339450095
0.03945707971
0.04865919529
0.07125744931
0.1336219939
0.2114698134
0.1038323658
0.06831693294
0.06252085506
0.0620008211
0.06237917893
0.06243217706
0.06306530911
0.06519431184
0.02547185182
0.03006385492
0.03161353269
0.03722147686
0.07806373146
0.125323347
0.2195605045
0.05631900344
0.03527260331
0.03013528222
0.02802568423
0.02682727865
0.02894274192
0.03367515582
0.03967312772