/*--------------------------------*- C++ -*----------------------------------*\
  =========                 |
  \\      /  F ield         | OpenFOAM: The Open Source CFD Toolbox
   \\    /   O peration     | Website:  https://openfoam.org
    \\  /    A nd           | Version:  8
     \\/     M anipulation  |
\*---------------------------------------------------------------------------*/
FoamFile
{
    version     2.0;
    format      ascii;
    class       volScalarField;
    location    "1.5";
    object      N2;
}
// * * * * * * * * * * * * * * * * * * * * * * * * * * * * * * * * * * * * * //

dimensions      [0 0 0 0 0 0 0];

internalField   nonuniform List<scalar> 
67410
(
0.7899995597
0.7900001276
0.7900003778
0.790000527
0.7900006492
0.7900007624
0.7900008662
0.7900009569
0.7900010328
0.7900010946
0.7900011447
0.790001186
0.79000122
0.7900012458
0.7900012604
0.790001263
0.7900012594
0.7900012617
0.7900012757
0.7900012906
0.7900013093
0.7900013279
0.7900013462
0.7900013624
0.790001371
0.7900013757
0.7899993593
0.7899999788
0.7900002459
0.7900003977
0.790000531
0.7900006592
0.790000774
0.7900008687
0.7900009425
0.7900009986
0.7900010419
0.7900010765
0.7900011051
0.7900011277
0.7900011426
0.7900011496
0.7900011529
0.7900011624
0.7900011838
0.7900012096
0.7900012345
0.7900012531
0.7900012706
0.7900012871
0.7900012987
0.7900013107
0.7899991495
0.7899998061
0.7900000785
0.7900002485
0.7900004062
0.790000553
0.7900006767
0.7900007721
0.7900008415
0.7900008906
0.7900009256
0.7900009522
0.7900009748
0.7900009955
0.7900010135
0.7900010278
0.7900010406
0.79000106
0.7900010945
0.7900011409
0.7900011795
0.7900011985
0.7900012129
0.7900012258
0.7900012384
0.7900012562
0.7899989968
0.7899996521
0.7899999126
0.7900001041
0.7900002863
0.7900004489
0.7900005779
0.7900006716
0.7900007362
0.79000078
0.7900008112
0.7900008373
0.7900008632
0.7900008892
0.7900009122
0.7900009294
0.7900009442
0.7900009689
0.7900010175
0.790001084
0.7900011318
0.7900011398
0.7900011484
0.790001157
0.7900011632
0.790001163
0.7899990542
0.78999956
0.789999784
0.7899999722
0.7900001652
0.7900003408
0.7900004768
0.7900005716
0.7900006359
0.7900006817
0.7900007197
0.7900007569
0.7900007947
0.7900008291
0.790000854
0.7900008684
0.7900008815
0.7900009127
0.7900009764
0.7900010562
0.7900011055
0.7900010812
0.790001071
0.7900010703
0.7900010634
0.7900010378
0.7899991787
0.789999523
0.7899996853
0.7899998413
0.7900000328
0.7900002251
0.7900003761
0.7900004796
0.7900005523
0.7900006109
0.7900006655
0.7900007189
0.7900007671
0.7900008033
0.7900008245
0.7900008347
0.7900008503
0.7900008931
0.7900009695
0.7900010517
0.7900010997
0.7900010377
0.7900009876
0.7900009662
0.7900009543
0.7900009237
0.7899992571
0.789999467
0.7899995651
0.789999685
0.7899998777
0.7900000995
0.7900002795
0.7900004028
0.7900004945
0.7900005739
0.7900006467
0.7900007091
0.790000757
0.790000789
0.7900008052
0.7900008146
0.7900008379
0.7900008937
0.7900009758
0.7900010495
0.7900010884
0.7900010176
0.7900009185
0.7900008538
0.7900008631
0.7900008549
0.7899992397
0.7899993425
0.7899993937
0.7899994922
0.7899996978
0.7899999651
0.7900001902
0.7900003444
0.7900004619
0.7900005618
0.7900006436
0.7900007043
0.7900007495
0.7900007783
0.7900007926
0.7900008056
0.7900008386
0.790000905
0.7900009864
0.790001045
0.7900010626
0.7900010071
0.7900008862
0.7900007415
0.7900008107
0.7900008341
0.7899991331
0.7899991573
0.7899991823
0.7899992768
0.7899995049
0.7899998261
0.7900001065
0.7900002978
0.7900004412
0.7900005549
0.7900006367
0.7900006958
0.790000741
0.7900007699
0.7900007861
0.790000804
0.7900008438
0.7900009177
0.790000996
0.7900010387
0.790001033
0.7900009905
0.7900008986
0.7900006545
0.7900008063
0.7900008468
0.7899989697
0.7899989456
0.7899989606
0.7899990645
0.7899993173
0.7899996849
0.7900000174
0.7900002451
0.7900004124
0.7900005369
0.7900006183
0.7900006803
0.7900007292
0.7900007621
0.7900007822
0.7900008029
0.7900008434
0.7900009242
0.7900010013
0.790001033
0.7900010146
0.7900009912
0.7900009626
0.7900007829
0.7900008563
0.7900008856
0.7899987818
0.7899987357
0.7899987518
0.7899988769
0.7899991502
0.7899995393
0.7899999034
0.7900001622
0.7900003545
0.7900004938
0.7900005827
0.7900006519
0.790000708
0.7900007483
0.7900007742
0.7900007956
0.7900008306
0.790000917
0.7900009931
0.7900010146
0.7900009834
0.7900009764
0.7900009845
0.7900008795
0.7900008952
0.7900009139
0.7899985912
0.7899985384
0.7899985763
0.7899987318
0.7899990105
0.7899993805
0.7899997398
0.7900000208
0.7900002447
0.7900004127
0.7900005199
0.7900005997
0.7900006649
0.7900007153
0.7900007517
0.7900007818
0.7900008201
0.7900008838
0.7900009442
0.7900009497
0.7900009187
0.7900009269
0.7900009466
0.7900008971
0.790000901
0.7900009196
0.7899983961
0.7899983312
0.789998412
0.7899986125
0.7899988724
0.7899991745
0.7899994936
0.7899997882
0.7900000515
0.7900002637
0.7900004091
0.7900005048
0.790000577
0.7900006334
0.7900006765
0.7900007118
0.790000753
0.7900008161
0.7900008859
0.7900009128
0.790000895
0.7900008758
0.7900008733
0.7900008492
0.7900008516
0.7900008626
0.7899981349
0.7899980401
0.7899981627
0.7899984206
0.7899986433
0.7899988575
0.7899991434
0.7899994599
0.7899997668
0.7900000283
0.7900002317
0.7900003774
0.7900004759
0.7900005473
0.7900005999
0.7900006409
0.7900006816
0.7900007375
0.7900008213
0.7900008753
0.7900008737
0.7900008192
0.7900008093
0.7900007783
0.7900007549
0.7900007319
0.7899976667
0.7899975745
0.7899976944
0.7899979939
0.7899982227
0.7899984144
0.7899987227
0.7899990903
0.7899994618
0.7899997796
0.7900000253
0.7900002148
0.7900003579
0.7900004545
0.7900005128
0.7900005445
0.7900005589
0.7900005642
0.790000657
0.7900006996
0.790000715
0.7900006984
0.7900006915
0.7900006713
0.7900006472
0.7900006198
0.7899970434
0.7899970415
0.7899971692
0.7899974185
0.7899976972
0.7899979652
0.7899983057
0.7899986926
0.7899991048
0.7899994856
0.7899997713
0.7899999727
0.7900001193
0.7900002212
0.79000028
0.7900003011
0.7900002929
0.7900002015
0.7900004298
0.790000464
0.7900005271
0.7900005402
0.7900005423
0.7900005276
0.7900005051
0.7900004779
0.7899967245
0.7899967656
0.7899969217
0.7899971079
0.7899973428
0.7899976384
0.789997982
0.7899983499
0.7899987399
0.7899991596
0.7899994997
0.7899997219
0.7899998653
0.7899999501
0.7899999771
0.7899999478
0.7899998857
0.7899994539
0.7900001521
0.7900001153
0.7900002973
0.7900003263
0.7900003408
0.7900003347
0.7900003163
0.7900002926
0.789996745
0.789996777
0.7899968589
0.7899969299
0.7899970666
0.7899973304
0.7899976884
0.789998074
0.7899984135
0.789998826
0.7899992038
0.7899994457
0.7899995763
0.7899996365
0.7899996318
0.7899995591
0.7899994316
0.7899984323
0.7899998263
0.7899997836
0.7900000631
0.7900000436
0.7900000764
0.7900000826
0.7900000731
0.7900000663
0.7899968641
0.7899968793
0.789996822
0.7899966949
0.789996651
0.7899968344
0.7899972961
0.7899978135
0.7899981259
0.7899985364
0.7899989309
0.7899992123
0.7899993364
0.7899993395
0.7899991734
0.7899987394
0.7899980332
0.7899960102
0.7899989283
0.7899988601
0.7899997451
0.7899996682
0.7899997752
0.7899998082
0.7899998194
0.7899998368
0.7899969583
0.7899969616
0.789996758
0.7899963599
0.7899959915
0.7899958838
0.7899967562
0.789997549
0.7899978503
0.7899982847
0.7899986509
0.7899989848
0.7899991334
0.7899991607
0.789999086
0.7899989291
0.7899987343
0.7900005518
0.7899992925
0.7899992696
0.7899995117
0.7899994432
0.789999492
0.7899995346
0.7899995514
0.7899996065
0.7899969543
0.789996973
0.7899966781
0.7899959673
0.7899949637
0.7899938155
0.7899960055
0.7899972518
0.7899976387
0.7899980731
0.7899983795
0.7899988164
0.7899990065
0.7899990682
0.7899990527
0.7899989757
0.7899988442
0.7899985345
0.7899990527
0.7899989462
0.7899990882
0.7899991295
0.7899991157
0.7899992386
0.7899992098
0.7899992731
0.7899968809
0.789996905
0.7899965534
0.7899953186
0.7899922462
0.7899825961
0.7899950879
0.7899967397
0.7899974306
0.7899978929
0.7899981302
0.7899986155
0.7899988261
0.7899988392
0.7899987933
0.7899987198
0.7899986382
0.7899985329
0.789998517
0.7899983653
0.7899983561
0.7899983893
0.789998215
0.7899986499
0.7899985123
0.789998553
0.7899968826
0.7899969452
0.7899969169
0.7899965991
0.7899959109
0.7899956683
0.7899961078
0.7899969929
0.7899974938
0.7899977613
0.789997788
0.789998015
0.7899981449
0.7899981033
0.7899979796
0.7899978253
0.789997664
0.7899975189
0.7899974653
0.7899973755
0.7899972712
0.7899972383
0.7899967151
0.7899974367
0.7899973601
0.7899976742
0.78999697
0.7899970207
0.7899970707
0.7899970812
0.7899968993
0.7899962309
0.7899966844
0.7899969267
0.7899971904
0.7899973102
0.7899970346
0.7899968545
0.7899967469
0.7899966756
0.7899966276
0.7899965831
0.7899965458
0.7899965188
0.7899965029
0.7899963928
0.7899960907
0.7899958139
0.7899944697
0.7899961618
0.7899962855
0.7899973469
0.7899970992
0.7899971355
0.789997198
0.7899972981
0.789997376
0.7899973093
0.7899972022
0.7899971589
0.7899973555
0.7899973505
0.7899968228
0.789996315
0.7899960031
0.7899958623
0.7899958276
0.7899958402
0.7899958667
0.7899958942
0.7899959129
0.7899958854
0.7899958035
0.7899957224
0.7899957944
0.789995743
0.7899958702
0.7899972368
0.7899972618
0.7899973093
0.7899974039
0.7899975193
0.7899976064
0.7899975256
0.789997492
0.7899978897
0.789997894
0.789997336
0.7899967055
0.7899962172
0.7899959042
0.7899957432
0.7899956862
0.789995681
0.7899957007
0.78999573
0.7899957367
0.789995737
0.7899957262
0.789996019
0.7899957832
0.7899959892
0.7899973676
0.7899973813
0.7899974126
0.7899974733
0.789997555
0.7899976795
0.7899977033
0.7899976984
0.7899982564
0.7899984163
0.7899979431
0.7899973223
0.7899967713
0.7899963407
0.7899960484
0.7899958863
0.7899958114
0.789995796
0.7899958455
0.7899959113
0.7899961613
0.7899967603
0.78999942
0.78999654
0.7899964141
0.789997485
0.789997489
0.7899975036
0.7899975255
0.7899975855
0.78999775
0.789997851
0.7899978496
0.7899984546
0.7899988053
0.7899984595
0.7899979004
0.7899973485
0.7899968561
0.7899964669
0.7899962133
0.7899960836
0.7899960765
0.7899962084
0.7899960722
0.7899960346
0.7899960377
0.7899963557
0.789996055
0.789996177
0.7899975877
0.7899975848
0.7899975823
0.7899975939
0.7899977146
0.7899979064
0.7899980072
0.7899980131
0.7899985345
0.7899990722
0.7899988661
0.7899983899
0.7899978697
0.7899973556
0.7899969027
0.789996563
0.7899963254
0.7899961393
0.7899962276
0.789996164
0.789995939
0.789996107
0.7899961983
0.7899962567
0.7899963542
0.7899964625
0.7899976799
0.7899976684
0.7899976656
0.7899977812
0.789998003
0.7899981467
0.7899981689
0.7899982039
0.789998594
0.7899992532
0.789999162
0.7899987713
0.7899983161
0.789997842
0.7899973893
0.7899970107
0.7899967394
0.789996591
0.7899965482
0.7899964929
0.7899964384
0.7899963895
0.7899963659
0.789996511
0.7899966901
0.7899968496
0.7899995398
0.790000115
0.7900003695
0.7900005205
0.7900006409
0.7900007508
0.7900008519
0.7900009417
0.7900010184
0.7900010817
0.7900011329
0.7900011735
0.7900012047
0.7900012271
0.7900012418
0.7900012514
0.7900012605
0.7900012726
0.7900012876
0.7900013023
0.7900013172
0.7900013314
0.7900013446
0.7900013547
0.7900013577
0.7900013587
0.7899993448
0.7899999588
0.7900002325
0.7900003837
0.7900005053
0.7900006198
0.7900007251
0.790000816
0.790000891
0.7900009518
0.7900010015
0.7900010431
0.7900010782
0.790001107
0.790001129
0.7900011449
0.7900011586
0.7900011752
0.7900011962
0.7900012173
0.7900012354
0.7900012494
0.7900012608
0.7900012689
0.7900012735
0.7900012844
0.7899991236
0.7899997799
0.7900000688
0.7900002269
0.7900003567
0.790000478
0.7900005863
0.7900006778
0.7900007531
0.7900008152
0.7900008673
0.7900009118
0.7900009504
0.7900009839
0.7900010124
0.7900010367
0.79000106
0.7900010865
0.7900011174
0.7900011475
0.7900011697
0.7900011825
0.7900011917
0.7900011995
0.7900012104
0.7900012329
0.7899989317
0.7899996245
0.7899999054
0.7900000699
0.7900002083
0.7900003345
0.790000444
0.7900005356
0.7900006131
0.7900006802
0.790000739
0.7900007907
0.7900008359
0.7900008751
0.790000909
0.7900009392
0.7900009696
0.7900010046
0.790001044
0.7900010802
0.790001104
0.7900011114
0.7900011156
0.7900011219
0.7900011376
0.7900011639
0.7899989081
0.7899995167
0.7899997623
0.7899999194
0.7900000597
0.7900001904
0.7900003038
0.7900003999
0.7900004849
0.7900005627
0.790000633
0.7900006944
0.7900007458
0.7900007877
0.7900008218
0.7900008519
0.790000884
0.790000923
0.7900009665
0.7900010051
0.7900010312
0.7900010333
0.7900010273
0.7900010258
0.7900010472
0.7900010754
0.7899990135
0.7899994445
0.7899996304
0.7899997626
0.7899999007
0.790000043
0.79000017
0.7900002787
0.7900003775
0.7900004697
0.7900005518
0.7900006196
0.7900006712
0.7900007091
0.7900007364
0.7900007598
0.7900007877
0.7900008251
0.7900008674
0.790000906
0.7900009383
0.7900009451
0.7900009276
0.7900009067
0.7900009472
0.7900009793
0.789999076
0.7899993383
0.7899994599
0.7899995686
0.7899997162
0.7899998883
0.7900000456
0.7900001764
0.7900002926
0.7900003976
0.790000486
0.7900005534
0.7900005989
0.7900006266
0.7900006425
0.7900006556
0.7900006757
0.7900007078
0.7900007444
0.7900007794
0.7900008195
0.7900008403
0.7900008198
0.7900007525
0.7900008497
0.7900008808
0.7899990253
0.789999137
0.7899992122
0.7899993193
0.7899994988
0.789999723
0.7899999281
0.7900000887
0.7900002214
0.7900003331
0.7900004208
0.7900004826
0.7900005185
0.790000535
0.7900005395
0.7900005418
0.7900005523
0.7900005794
0.7900006097
0.790000639
0.7900006846
0.7900007184
0.7900007041
0.7900005306
0.7900007652
0.7900007801
0.7899988579
0.7899988488
0.789998905
0.7899990323
0.7899992564
0.7899995436
0.7899998061
0.7899999993
0.790000145
0.7900002589
0.7900003452
0.7900004001
0.7900004291
0.7900004386
0.7900004356
0.7900004288
0.7900004285
0.790000458
0.7900004879
0.7900005132
0.7900005647
0.7900006075
0.7900005888
0.790000222
0.7900007066
0.7900006941
0.7899986178
0.7899985253
0.7899985881
0.7899987451
0.78999901
0.789999351
0.7899996655
0.7899998883
0.7900000448
0.7900001619
0.7900002514
0.7900003065
0.7900003367
0.7900003476
0.7900003436
0.7900003297
0.7900003151
0.7900003644
0.7900004081
0.79000044
0.7900005118
0.7900005949
0.7900006309
0.7900005336
0.7900007164
0.7900006958
0.7899983477
0.7899982084
0.7899983008
0.7899984915
0.7899987858
0.7899991564
0.7899995012
0.7899997455
0.789999914
0.7900000412
0.7900001413
0.790000207
0.7900002495
0.7900002727
0.7900002775
0.7900002619
0.7900002281
0.7900003226
0.7900003954
0.790000442
0.7900005154
0.7900006102
0.7900006657
0.7900006503
0.7900007113
0.7900006895
0.7899980691
0.7899979138
0.789998052
0.7899982878
0.7899986046
0.789998972
0.7899993132
0.7899995676
0.7899997533
0.7899998983
0.790000019
0.7900001061
0.790000172
0.7900002223
0.7900002591
0.7900002837
0.7900003024
0.7900003652
0.7900004459
0.7900004904
0.7900005519
0.790000628
0.7900006695
0.7900006641
0.7900006763
0.7900006476
0.7899977825
0.7899976383
0.7899978428
0.789998141
0.7899984683
0.7899987941
0.7899990986
0.7899993542
0.7899995655
0.78999974
0.7899998866
0.7900000018
0.790000096
0.7900001769
0.7900002493
0.7900003163
0.7900003826
0.79000046
0.790000526
0.7900005688
0.7900006083
0.7900006465
0.7900006572
0.7900006404
0.79000062
0.7900005824
0.7899974798
0.7899973637
0.789997641
0.7899980101
0.7899983313
0.7899985894
0.7899988499
0.789999109
0.7899993519
0.7899995643
0.789999742
0.7899998888
0.7900000101
0.7900001148
0.7900002087
0.7900002948
0.7900003763
0.7900004579
0.7900005318
0.7900005796
0.7900006065
0.7900006141
0.7900006045
0.7900005761
0.7900005401
0.7900004949
0.7899971739
0.789997084
0.7899973778
0.7899977814
0.7899980978
0.7899983141
0.7899985646
0.789998841
0.7899991156
0.7899993617
0.7899995692
0.7899997408
0.7899998823
0.7900000016
0.790000108
0.7900002021
0.7900002852
0.7900003602
0.7900004371
0.7900004881
0.7900005156
0.7900005187
0.7900005043
0.7900004734
0.7900004323
0.7900003849
0.7899968986
0.7899968359
0.7899970609
0.7899973919
0.7899977096
0.78999796
0.7899982405
0.7899985433
0.7899988476
0.7899991261
0.7899993541
0.7899995368
0.7899996872
0.7899998133
0.7899999216
0.7900000171
0.7900000952
0.7900001578
0.7900002545
0.7900003167
0.7900003587
0.7900003686
0.7900003569
0.7900003273
0.7900002867
0.7900002416
0.7899967392
0.7899966754
0.7899968068
0.7899970135
0.7899972676
0.7899975484
0.7899978696
0.789998213
0.7899985504
0.7899988719
0.7899991276
0.7899993137
0.7899994578
0.7899995766
0.7899996781
0.7899997627
0.7899998284
0.789999865
0.7900000011
0.7900000786
0.7900001428
0.7900001593
0.7900001534
0.7900001295
0.7900000953
0.7900000591
0.7899967266
0.7899966061
0.7899965686
0.7899966206
0.7899967976
0.7899970709
0.7899974413
0.7899978563
0.7899982286
0.7899986006
0.7899988963
0.7899990885
0.7899992148
0.7899993121
0.7899993974
0.789999478
0.7899995288
0.7899995239
0.7899996719
0.7899998047
0.7899998769
0.7899998892
0.7899998906
0.7899998763
0.7899998537
0.7899998345
0.7899967604
0.7899965866
0.7899963437
0.789996215
0.7899963008
0.7899965228
0.7899970025
0.789997524
0.7899979018
0.7899983297
0.7899986723
0.7899988933
0.7899990062
0.7899990763
0.789999135
0.7899992004
0.7899991675
0.7899999868
0.7899992006
0.7899994582
0.7899995548
0.789999565
0.7899995768
0.7899995757
0.7899995687
0.7899995743
0.7899967879
0.7899966071
0.7899962301
0.7899959283
0.7899958431
0.7899959086
0.7899966779
0.789997275
0.7899976166
0.7899980775
0.789998436
0.7899987105
0.789998823
0.789998877
0.7899989696
0.7899992383
0.789999936
0.7900027883
0.789999545
0.7899994491
0.7899992577
0.7899992398
0.7899992314
0.7899992449
0.789999256
0.7899993009
0.7899967733
0.7899966512
0.789996252
0.7899957597
0.7899954367
0.7899953177
0.7899967089
0.7899971479
0.7899974306
0.7899978612
0.7899981888
0.7899985387
0.789998679
0.7899987015
0.7899987046
0.7899987222
0.7899987968
0.7899991821
0.7899987915
0.7899987818
0.7899988062
0.7899988235
0.7899988292
0.7899988912
0.7899989229
0.7899990066
0.789996731
0.789996666
0.7899962305
0.7899951156
0.7899928819
0.7899944668
0.7899996593
0.789996992
0.7899973139
0.7899976422
0.7899978851
0.7899982429
0.789998409
0.7899983914
0.7899983399
0.7899983153
0.7899983423
0.7899985339
0.789998334
0.7899983094
0.7899983076
0.7899983263
0.789998346
0.7899984681
0.7899985515
0.7899986605
0.7899967681
0.7899967949
0.7899967532
0.7899965818
0.7899963776
0.7899964849
0.7899978623
0.7899971297
0.7899972666
0.789997409
0.7899974609
0.7899976439
0.7899977523
0.7899977412
0.7899976824
0.7899976345
0.7899976173
0.7899976383
0.7899976546
0.7899976663
0.7899976614
0.7899976674
0.7899977375
0.7899977106
0.7899979626
0.7899981265
0.7899968407
0.7899968666
0.7899969053
0.7899969315
0.7899967677
0.7899962956
0.7899969828
0.7899970289
0.7899971298
0.7899971471
0.7899968921
0.789996737
0.7899966892
0.7899966905
0.7899967182
0.7899967714
0.7899968496
0.7899969462
0.7899970241
0.7899970711
0.7899971207
0.7899972916
0.7899981561
0.7899969003
0.7899973987
0.7899976097
0.7899969243
0.7899969418
0.7899969774
0.7899970605
0.7899971383
0.7899971213
0.7899971476
0.7899972454
0.7899973692
0.789997303
0.789996833
0.7899963882
0.7899961275
0.7899960434
0.7899960765
0.789996174
0.789996304
0.7899964474
0.7899965843
0.7899967045
0.7899968469
0.7899971331
0.7899977341
0.7899969463
0.7899971725
0.7899970193
0.7899970225
0.7899970524
0.7899971133
0.7899972193
0.7899973034
0.7899973591
0.7899975746
0.7899978593
0.7899978073
0.7899973066
0.7899967265
0.7899962835
0.7899960318
0.7899959426
0.7899959678
0.7899960696
0.7899962209
0.7899964029
0.7899965973
0.7899968333
0.7899971684
0.7899975328
0.7899970174
0.7899970365
0.7899971192
0.7899971057
0.7899971246
0.789997167
0.7899972626
0.7899973814
0.7899975223
0.7899978177
0.7899982309
0.7899982943
0.789997865
0.7899972777
0.7899967581
0.7899963884
0.7899961704
0.7899960868
0.7899961238
0.7899962599
0.7899964567
0.7899966967
0.7899970188
0.7899975374
0.7899971287
0.7899975179
0.7899970339
0.7899972181
0.7899971923
0.7899971992
0.7899972285
0.7899973095
0.7899974228
0.7899976362
0.7899979836
0.7899984544
0.7899986417
0.789998319
0.7899977867
0.7899972678
0.789996848
0.7899965442
0.7899963684
0.7899963326
0.7899964099
0.7899965073
0.7899966587
0.7899968484
0.7899971085
0.7899973532
0.7899969621
0.7899969625
0.7899973127
0.7899972819
0.7899972768
0.7899972953
0.7899973518
0.7899974568
0.7899977015
0.789998099
0.7899985664
0.7899988575
0.7899986498
0.7899982003
0.7899977191
0.7899972805
0.7899969135
0.7899966589
0.7899965329
0.7899965672
0.7899966462
0.7899966949
0.7899968484
0.7899968811
0.7899969512
0.7899969771
0.7899970141
0.7899969882
0.7899974039
0.789997375
0.7899973662
0.7899973755
0.7899974217
0.789997521
0.7899977458
0.7899981681
0.789998626
0.7899989835
0.7899988728
0.789998509
0.7899980834
0.7899976552
0.7899972622
0.7899969806
0.7899967907
0.7899967151
0.7899967307
0.7899967925
0.7899968587
0.7899969455
0.7899970178
0.7899970763
0.7899972038
0.7899972155
0.7899995059
0.7900000903
0.7900003531
0.7900005054
0.7900006235
0.7900007294
0.7900008272
0.7900009157
0.7900009934
0.7900010593
0.7900011135
0.7900011564
0.7900011887
0.7900012117
0.7900012285
0.7900012432
0.7900012589
0.7900012753
0.7900012909
0.7900013058
0.7900013193
0.7900013319
0.790001343
0.7900013518
0.7900013563
0.7900013606
0.7899993201
0.7899999342
0.7900002128
0.7900003646
0.7900004778
0.7900005813
0.7900006783
0.790000766
0.7900008426
0.7900009083
0.7900009645
0.7900010126
0.7900010535
0.7900010874
0.7900011144
0.7900011355
0.7900011539
0.7900011727
0.7900011927
0.7900012119
0.7900012284
0.7900012415
0.7900012515
0.7900012584
0.7900012642
0.7900012755
0.7899990994
0.7899997523
0.7900000499
0.7900002047
0.7900003172
0.7900004196
0.7900005156
0.7900006029
0.7900006811
0.7900007507
0.7900008126
0.7900008674
0.7900009154
0.7900009567
0.7900009914
0.7900010207
0.7900010472
0.7900010737
0.7900011009
0.790001126
0.7900011459
0.7900011598
0.7900011693
0.7900011769
0.7900011883
0.7900012067
0.7899988897
0.7899995864
0.7899998877
0.7900000411
0.7900001515
0.7900002513
0.7900003449
0.7900004323
0.7900005141
0.790000591
0.7900006625
0.7900007273
0.7900007842
0.790000833
0.7900008738
0.7900009087
0.7900009408
0.7900009731
0.7900010055
0.7900010341
0.7900010557
0.7900010685
0.7900010762
0.7900010823
0.790001101
0.7900011222
0.7899987943
0.7899994701
0.7899997411
0.7899998801
0.7899999827
0.7900000792
0.7900001732
0.7900002646
0.7900003545
0.7900004431
0.7900005275
0.7900006039
0.7900006694
0.790000723
0.7900007654
0.7900008003
0.7900008328
0.7900008667
0.7900009007
0.79000093
0.7900009524
0.7900009635
0.7900009659
0.7900009611
0.7900009959
0.7900010176
0.7899988549
0.7899993897
0.7899996026
0.7899997109
0.7899998012
0.7899999
0.7900000034
0.7900001066
0.7900002102
0.7900003135
0.7900004115
0.7900004979
0.790000568
0.7900006205
0.7900006571
0.7900006845
0.7900007108
0.7900007414
0.7900007732
0.7900008017
0.7900008279
0.79000084
0.7900008371
0.7900007956
0.7900008809
0.7900008981
0.7899989184
0.789999289
0.789999432
0.7899995044
0.7899995898
0.7899997068
0.7899998358
0.789999961
0.7900000826
0.7900002007
0.7900003094
0.7900004009
0.790000469
0.7900005114
0.7900005347
0.7900005476
0.7900005606
0.7900005844
0.7900006114
0.7900006376
0.7900006726
0.7900006922
0.7900006952
0.7900005611
0.7900007758
0.7900007597
0.7899988821
0.7899991043
0.7899991874
0.7899992382
0.7899993373
0.7899994938
0.7899996668
0.7899998237
0.7899999648
0.7900000948
0.7900002098
0.7900003019
0.7900003602
0.7900003894
0.7900003958
0.7900003888
0.7900003815
0.7900004018
0.7900004265
0.7900004498
0.790000497
0.7900005148
0.7900005289
0.790000137
0.790000681
0.7900006
0.7899987186
0.7899988172
0.7899988665
0.7899989187
0.7899990494
0.7899992599
0.7899994888
0.7899996829
0.7899998429
0.7899999817
0.7900001008
0.7900001896
0.7900002402
0.7900002582
0.7900002482
0.790000217
0.7900001778
0.7900002149
0.7900002498
0.790000272
0.7900003373
0.7900003341
0.7900002896
0.7899990871
0.790000572
0.7900004251
0.7899984581
0.7899984613
0.7899985036
0.7899985777
0.7899987495
0.7899990135
0.7899992963
0.7899995265
0.7899997039
0.7899998512
0.7899999768
0.7900000663
0.7900001172
0.7900001322
0.7900001102
0.7900000495
0.7899999444
0.7900000554
0.7900001282
0.7900001667
0.7900002938
0.7900003843
0.7900004346
0.7900002833
0.790000572
0.7900004972
0.7899981479
0.789998085
0.7899981426
0.7899982579
0.7899984741
0.7899987775
0.7899990957
0.7899993518
0.789999544
0.7899997018
0.789999839
0.7899999404
0.7900000055
0.7900000326
0.7900000103
0.7899999117
0.7899996491
0.7899999689
0.7900001252
0.7900002124
0.7900003327
0.7900004474
0.7900005129
0.7900004558
0.7900005716
0.7900005276
0.7899978227
0.7899977282
0.7899978248
0.7899980009
0.7899982597
0.7899985779
0.7899989
0.7899991636
0.7899993672
0.7899995387
0.7899996927
0.7899998201
0.7899999177
0.789999988
0.7900000266
0.7900000247
0.7899999777
0.7900000723
0.7900002326
0.7900003057
0.7900004027
0.7900004892
0.7900005361
0.7900005222
0.7900005454
0.7900005011
0.7899975009
0.7899974119
0.7899975719
0.7899978222
0.7899981182
0.789998423
0.7899987152
0.7899989666
0.7899991788
0.7899993675
0.7899995411
0.7899997004
0.7899998359
0.7899999539
0.7900000545
0.7900001358
0.790000202
0.7900002977
0.7900003765
0.7900004301
0.7900004859
0.7900005328
0.790000551
0.7900005353
0.7900005105
0.7900004565
0.7899972013
0.7899971411
0.789997372
0.7899976958
0.7899980172
0.7899982847
0.7899985291
0.7899987604
0.7899989805
0.7899991887
0.7899993843
0.7899995665
0.789999732
0.7899998824
0.7900000182
0.7900001373
0.7900002418
0.7900003452
0.7900004262
0.7900004794
0.7900005153
0.7900005319
0.7900005249
0.7900004945
0.7900004503
0.79000039
0.7899969645
0.7899969171
0.7899971817
0.7899975452
0.7899978753
0.7899981058
0.789998318
0.7899985397
0.7899987692
0.7899989948
0.7899992075
0.7899994049
0.7899995883
0.7899997587
0.7899999177
0.790000063
0.7900001933
0.7900003126
0.7900003881
0.7900004441
0.7900004735
0.7900004775
0.7900004579
0.7900004177
0.7900003632
0.7900002987
0.7899968212
0.7899967467
0.7899969692
0.7899972939
0.7899976085
0.7899978399
0.7899980596
0.7899982938
0.7899985383
0.7899987832
0.7899990085
0.7899992116
0.7899993992
0.7899995768
0.7899997464
0.7899999067
0.7900000526
0.7900002023
0.7900002667
0.7900003333
0.7900003643
0.7900003663
0.7900003422
0.7900002969
0.7900002377
0.7900001723
0.7899967592
0.7899966387
0.7899967639
0.7899969918
0.7899972469
0.7899974927
0.7899977428
0.7899980154
0.7899982843
0.7899985597
0.7899988014
0.7899990036
0.7899991835
0.7899993571
0.7899995326
0.7899997159
0.7899999064
0.790000283
0.790000114
0.7900001763
0.7900001949
0.7900001943
0.7900001685
0.7900001218
0.7900000626
0.7900000004
0.7899967654
0.7899965867
0.7899965736
0.7899966874
0.7899968794
0.7899971318
0.789997405
0.7899977299
0.7899980136
0.7899983294
0.789998596
0.7899987977
0.7899989603
0.7899991175
0.7899992856
0.7899994734
0.7899996648
0.7900001212
0.7899998731
0.7899999587
0.7899999641
0.7899999587
0.789999931
0.7899998844
0.7899998288
0.7899997745
0.7899967976
0.7899965916
0.7899964435
0.7899964447
0.7899965886
0.7899968867
0.7899971706
0.7899975168
0.7899977634
0.7899981102
0.7899983993
0.7899986116
0.7899987572
0.7899988997
0.7899990945
0.7899995
0.7899998373
0.7900013084
0.7899998744
0.7899998598
0.7899997082
0.7899996738
0.7899996348
0.7899995858
0.7899995356
0.7899994937
0.7899968382
0.7899966431
0.7899964288
0.7899963786
0.7899965443
0.7899969733
0.7899971592
0.7899974552
0.7899975941
0.7899979186
0.7899981987
0.7899984341
0.7899985629
0.7899986749
0.7899988469
0.7899991255
0.7899995943
0.790000353
0.7899998957
0.7899994677
0.7899993705
0.7899993285
0.7899992892
0.7899992347
0.7899991962
0.789999177
0.7899968706
0.7899967258
0.789996538
0.7899965485
0.7899969122
0.7899975921
0.7899974589
0.789997468
0.7899975147
0.7899977497
0.7899979788
0.7899982365
0.7899983468
0.7899983909
0.7899984493
0.789998554
0.7899987215
0.7899991496
0.7899989183
0.7899989331
0.7899989393
0.7899989303
0.7899989201
0.7899988433
0.7899988177
0.7899988019
0.7899968951
0.7899968086
0.7899966946
0.7899968464
0.7899978775
0.7900022167
0.7900016217
0.7899976327
0.7899976224
0.7899975803
0.7899976934
0.789997923
0.7899980257
0.7899980408
0.7899980636
0.7899981357
0.7899982567
0.7899984479
0.7899984633
0.7899985187
0.7899985472
0.7899985633
0.7899987084
0.789998501
0.7899985923
0.7899986
0.7899969287
0.7899968926
0.7899968697
0.789996905
0.7899971442
0.7899981677
0.7900012059
0.7899974068
0.7899973737
0.7899972987
0.7899972769
0.7899973709
0.789997438
0.789997465
0.7899974945
0.7899975653
0.7899976834
0.7899978361
0.7899979671
0.7899980778
0.7899981506
0.789998188
0.7899985032
0.7899979109
0.7899983011
0.7899983187
0.7899969516
0.7899969438
0.789996961
0.7899970256
0.7899970932
0.7899972948
0.7899974702
0.7899971448
0.789997131
0.7899970578
0.7899968199
0.7899966802
0.7899966525
0.7899967001
0.7899967995
0.7899969478
0.789997137
0.7899973492
0.7899975533
0.7899977571
0.7899980455
0.7899983302
0.7900000854
0.7899983554
0.789998292
0.7899982039
0.789996973
0.7899969594
0.7899969612
0.7899970019
0.7899970638
0.7899971169
0.7899972405
0.7899972915
0.7899973532
0.7899972247
0.7899968068
0.7899964299
0.7899962253
0.7899961954
0.7899962919
0.7899964699
0.7899966983
0.7899969532
0.7899972179
0.7899974847
0.7899978258
0.789998361
0.7899991318
0.7899982707
0.789998078
0.7899970244
0.7899969907
0.7899969887
0.7899970142
0.7899970781
0.7899971724
0.7899973171
0.7899975698
0.7899977761
0.7899976741
0.7899972222
0.7899967085
0.7899963296
0.7899961455
0.7899961329
0.7899962478
0.7899964531
0.7899967181
0.7899970272
0.789997349
0.7899977224
0.7899981731
0.7899985904
0.7899981503
0.789997969
0.7899970974
0.7899970423
0.78999703
0.7899970447
0.7899971043
0.7899972229
0.7899974368
0.7899977938
0.7899981184
0.7899981175
0.7899977217
0.7899971853
0.7899967175
0.7899964098
0.7899962693
0.789996278
0.7899964176
0.7899966593
0.7899969792
0.7899973285
0.7899977383
0.789998194
0.7899982628
0.7899982519
0.7899978683
0.789997184
0.7899971154
0.7899970936
0.7899971015
0.789997158
0.7899972818
0.789997523
0.7899979228
0.7899983188
0.7899984253
0.7899981247
0.7899976333
0.7899971549
0.7899967867
0.7899965531
0.7899964591
0.789996511
0.7899966777
0.78999695
0.7899972467
0.789997582
0.7899978914
0.7899980818
0.7899979992
0.7899977295