/*--------------------------------*- C++ -*----------------------------------*\
  =========                 |
  \\      /  F ield         | OpenFOAM: The Open Source CFD Toolbox
   \\    /   O peration     | Website:  https://openfoam.org
    \\  /    A nd           | Version:  8
     \\/     M anipulation  |
\*---------------------------------------------------------------------------*/
FoamFile
{
    version     2.0;
    format      ascii;
    class       volScalarField;
    location    "1.5";
    object      nut;
}
// * * * * * * * * * * * * * * * * * * * * * * * * * * * * * * * * * * * * * //

dimensions      [0 2 -1 0 0 0 0];

internalField   nonuniform List<scalar> 
67410
(
9.54824743e-05
0.0001167932986
0.0001269260504
0.0001348160496
0.0001416007576
0.0001476178922
0.0001529331504
0.0001574801164
0.0001611735718
0.0001639639742
0.0001658628596
0.0001669492316
0.0001673605311
0.000167258189
0.0001667473233
0.0001657608609
0.0001640131196
0.0001611919049
0.0001574069922
0.0001533201093
0.0001491600679
0.0001456409323
0.0001431730308
0.0001418651781
0.0001417316769
0.0001414038979
9.648258401e-05
0.0001218554584
0.000134753542
0.0001446358764
0.0001532472055
0.0001610768652
0.0001681483976
0.0001743592144
0.0001796442737
0.0001840105165
0.0001875236742
0.000190266459
0.0001922875758
0.0001935621137
0.0001939766942
0.0001933590324
0.0001915895553
0.0001887767161
0.000185278926
0.0001811988931
0.0001761258706
0.0001714919836
0.0001684059799
0.0001664490783
0.0001656065291
0.0001656327786
9.530869968e-05
0.0001250683615
0.0001394759893
0.0001497698323
0.0001590239797
0.0001677231224
0.0001756402524
0.0001825493932
0.0001884038198
0.0001933109745
0.0001974618803
0.0002010304623
0.000204073526
0.0002064714772
0.0002079388133
0.0002081421616
0.0002069535286
0.000204671903
0.0002017526334
0.0001976280333
0.000190431189
0.0001827982685
0.0001783628557
0.0001754412458
0.0001743460957
0.0001770434802
9.828963085e-05
0.0001335902993
0.000146453116
0.0001545836423
0.0001628571068
0.0001715415017
0.0001798260543
0.0001871648989
0.0001934988462
0.0001990958036
0.0002043218093
0.0002094002029
0.0002142462305
0.0002184641811
0.0002215050791
0.0002229593957
0.0002228979974
0.0002219048163
0.0002202983974
0.0002163124238
0.0002056584858
0.0001917189235
0.0001847816542
0.0001812464136
0.0001816597017
0.0001902027612
0.0001161306552
0.0001487155916
0.0001568424832
0.0001605456978
0.0001659816055
0.000173627219
0.0001819612849
0.0001898297077
0.0001970590727
0.0002040794694
0.0002113534814
0.0002189410545
0.0002263915894
0.0002329723995
0.0002379798004
0.0002411722605
0.0002429727844
0.000244079903
0.0002442832386
0.0002406125208
0.0002264571909
0.0002028040991
0.0001908249861
0.0001865312501
0.0001905522927
0.0002081980333
0.0001398739129
0.0001655407173
0.0001688667048
0.0001678773599
0.0001691226955
0.0001746044554
0.0001827749388
0.0001916414308
0.0002006570072
0.0002101996948
0.0002205064796
0.0002311963174
0.0002414306342
0.0002504398538
0.0002574642825
0.0002626347435
0.0002666518017
0.0002700060039
0.0002717823573
0.0002684138368
0.0002523089743
0.0002184918368
0.0001980572396
0.0001920187019
0.0002016961192
0.0002299601473
0.0001578956717
0.0001796600444
0.0001804685085
0.0001762052266
0.0001729318218
0.0001752121352
0.0001830464255
0.0001936090084
0.0002054220055
0.000218296782
0.0002319021524
0.0002455312022
0.0002581086236
0.0002685503403
0.0002769211859
0.0002837700824
0.0002896851189
0.0002946181599
0.0002971446557
0.0002940512182
0.0002789800308
0.0002387800366
0.000207513733
0.0001979292605
0.0002140783818
0.0002511138356
0.0001687469306
0.0001902296744
0.0001907457337
0.0001849857547
0.0001777952624
0.0001762221418
0.0001835017361
0.0001962930014
0.000211393317
0.0002275233422
0.0002438394864
0.0002594411974
0.0002728663621
0.0002840360644
0.0002933903202
0.0003014893069
0.0003086477542
0.0003143914069
0.0003170984167
0.0003140805721
0.0003006418105
0.0002611218444
0.0002191682121
0.0002037376103
0.0002246783731
0.0002664426663
0.000174477747
0.0001975733396
0.0001991681661
0.0001933083295
0.0001833216926
0.0001779298448
0.0001843486661
0.0001992845096
0.0002172770238
0.0002358250262
0.0002539109191
0.0002701103588
0.0002838250704
0.0002954300616
0.000305437024
0.0003142916052
0.0003220684806
0.0003280398276
0.0003305485389
0.0003273303422
0.0003147734258
0.00027877525
0.0002312281446
0.0002084942547
0.000230343255
0.0002726821072
0.000176563822
0.000201728923
0.0002050098848
0.000199754928
0.0001880447824
0.0001795698299
0.0001848173434
0.0002011177354
0.000220991247
0.0002409272719
0.0002598106416
0.0002760950696
0.0002898666138
0.0003016362603
0.0003118894925
0.0003209798686
0.0003288464477
0.0003346182484
0.0003366291167
0.0003328979869
0.0003202252165
0.0002869450806
0.0002400474966
0.000211603792
0.0002301576269
0.0002694745159
0.0001756453567
0.000202386541
0.0002073079811
0.0002025336346
0.0001898239768
0.0001794957034
0.0001834281563
0.0001998814561
0.0002204644216
0.0002410251463
0.0002601675584
0.0002764524981
0.0002901412703
0.0003017590846
0.0003117934739
0.0003206091289
0.000328146492
0.0003334329162
0.0003346909108
0.0003300092743
0.0003159719901
0.0002833651179
0.0002401524048
0.0002130807444
0.0002264055034
0.0002597651195
0.0001720925008
0.0001990755094
0.0002041089134
0.0001990811272
0.0001863785018
0.0001759373162
0.000178802273
0.0001939484688
0.0002138944214
0.0002343728517
0.000253792167
0.0002703389393
0.0002839693044
0.0002951433096
0.0003044245483
0.0003123396977
0.000319030469
0.0003236591399
0.0003239633901
0.0003176502977
0.0003004310686
0.0002667402044
0.0002322805483
0.0002139791759
0.0002226282057
0.0002485619655
0.0001664223702
0.0001919197796
0.0001951911489
0.0001887036841
0.0001765670843
0.0001679862346
0.0001706130495
0.0001829660615
0.000200341094
0.0002196286435
0.0002389994604
0.0002563960815
0.0002703987487
0.0002810058553
0.0002887793344
0.0002944393969
0.0002984658297
0.0003005567851
0.000299052129
0.000290864244
0.0002716942814
0.0002427630625
0.0002245567604
0.0002171870724
0.0002189425736
0.0002349105288
0.0001587556978
0.0001811939404
0.0001817827483
0.0001732005452
0.0001627696835
0.0001582744452
0.0001620546706
0.0001710182488
0.0001834122529
0.0001983758764
0.0002147375249
0.0002310777274
0.000245310137
0.0002552908138
0.0002609243073
0.0002630406701
0.000262820446
0.0002612829006
0.0002585716055
0.0002528395676
0.0002421302861
0.0002302938687
0.0002238881919
0.0002206395753
0.0002186584403
0.0002209193883
0.0001488536259
0.0001666706327
0.0001658242092
0.0001580097426
0.0001532333463
0.0001544113241
0.0001594674274
0.000165657028
0.0001734766251
0.0001835726148
0.0001948241254
0.00020595147
0.0002160817654
0.0002244166186
0.000229711731
0.0002316986327
0.000231618171
0.0002309561254
0.0002306653196
0.0002301237454
0.0002287728737
0.000226977184
0.0002251134414
0.000223549077
0.0002219130899
0.0002205557788
0.0001439030882
0.0001531503936
0.0001550741292
0.0001558799034
0.0001584116308
0.0001623979763
0.0001661097567
0.000168086095
0.0001699752428
0.0001753039197
0.0001836555401
0.0001921162982
0.0001995789726
0.0002060297376
0.0002115234448
0.0002159070677
0.0002191450667
0.0002215855175
0.0002237650912
0.000225149723
0.000225970872
0.0002261478231
0.0002257226417
0.0002250158022
0.000223987676
0.000222771797
0.0001524479661
0.0001570612821
0.0001627517137
0.0001694326266
0.0001740115334
0.0001773140078
0.0001793985873
0.0001785072711
0.0001742746131
0.0001720512812
0.000176946401
0.0001850687231
0.0001925687031
0.000199299216
0.0002056235357
0.0002112508525
0.0002161776752
0.0002212623696
0.000222198267
0.0002237367196
0.0002249612963
0.0002254857743
0.0002254183941
0.0002248485272
0.0002238433452
0.0002224671209
0.000164537834
0.0001740718404
0.0001797854571
0.000184966518
0.0001879062262
0.0001899074433
0.0001917259222
0.0001913256198
0.0001851267998
0.0001748397999
0.0001719171864
0.000179052236
0.0001876658138
0.0001954375567
0.0002026278153
0.0002095069714
0.0002194202592
0.0002491206511
0.00022084335
0.0002206127787
0.0002220314462
0.0002226415023
0.0002226394844
0.00022197981
0.0002207373088
0.000219013368
0.0001734034635
0.000186471975
0.0001914309677
0.0001951797959
0.0001970113496
0.0001980370635
0.0001999203151
0.0002018135112
0.0001978390162
0.0001840231149
0.0001703143127
0.0001720881794
0.0001815320071
0.0001906799988
0.0001999941987
0.0002151464042
0.0002659328118
0.0003901065587
0.0002320718354
0.0002165463313
0.0002167205263
0.0002167312314
0.0002162851086
0.000215191559
0.0002135600898
0.0002115009444
0.0001792301844
0.0001934372854
0.0001976349752
0.00020128827
0.0002032516742
0.000202843956
0.0002032428972
0.000207054299
0.0002071932156
0.0001952553317
0.0001742296532
0.0001641358773
0.0001715386732
0.0001817046778
0.0001975555041
0.0002438681102
0.0003692961714
0.0005487982984
0.0002486751448
0.0002087713253
0.0002058893562
0.0002050244078
0.0002038823314
0.0002023527917
0.0002001717777
0.0001975975311
0.0001833992433
0.0001975999566
0.0002000957253
0.0002037037633
0.0002060976439
0.0002044994489
0.0002026532581
0.0002042244193
0.0002076535212
0.0002000088182
0.000181002341
0.0001605763993
0.0001600612087
0.0001678146351
0.0001754883424
0.0001855776448
0.0002101613552
0.0002739999225
0.0001945235067
0.0001906708968
0.000187821919
0.0001856312471
0.0001836037763
0.0001818194409
0.0001798414922
0.0001787179242
0.0001870988075
0.0002019432437
0.0002009265096
0.0002011985424
0.000204025095
0.0002203316901
0.0002221362703
0.0001923745283
0.0001973334071
0.0001889960377
0.0001734122766
0.0001587552998
0.0001520219164
0.0001556700349
0.0001615424957
0.0001667637881
0.0001722332451
0.0001815174288
0.0001737330737
0.0001737690874
0.0001719475261
0.0001677896793
0.0001638198104
0.0001616517243
0.0001641436937
0.0001726869933
0.0001905480166
0.0002083983808
0.0002052922795
0.0001985627679
0.0001935709444
0.0001890455727
0.0002010225782
0.0001682229004
0.00017239721
0.0001605608422
0.0001429979068
0.0001368604769
0.0001395239714
0.0001450075746
0.0001513867935
0.000157804117
0.0001640645288
0.0001699988509
0.0001751893407
0.000178296818
0.0001769068207
0.0001706351111
0.0001744309372
0.0001596303491
0.0001763775542
0.0002066911809
0.0001940032031
0.0002157048274
0.0002141882858
0.0002061271642
0.0001922973759
0.0001800644352
0.0001633942941
0.0001481331708
0.0001453398385
0.0001345933666
0.0001256501487
0.0001274927606
0.0001338110528
0.0001417835039
0.0001505083784
0.0001595092427
0.0001686223404
0.0001776078434
0.0001858324783
0.0001912311149
0.0001921337003
0.0002007436984
0.0002716037113
0.000183845889
0.0002126521924
0.000255665483
0.0001973905236
0.0002230969565
0.0002228798688
0.0002165074531
0.0002059643245
0.0001931851061
0.0001771975615
0.0001514051556
0.0001355280439
0.0001267327459
0.0001252769247
0.0001296728442
0.0001368976923
0.0001456492334
0.0001552237783
0.0001650967058
0.0001749025616
0.0001843660027
0.0001931603966
0.0002013031841
0.0002119669115
0.0002371211974
0.000280118282
0.0002170486671
0.0002359439294
0.0002000642844
0.0002294156388
0.0002308912985
0.0002245113847
0.0002165229911
0.0002089370281
0.000194652921
0.0001665226145
0.0001447688198
0.0001339485298
0.0001333206073
0.0001371336651
0.0001436553238
0.0001523735115
0.0001626331928
0.0001736029853
0.000184702257
0.0001959015657
0.0002079124874
0.0002239674864
0.0002526414899
0.0003007199013
0.0003506859618
0.000266853324
0.0002615792514
0.0002015509758
0.0002342381258
0.0002367347758
0.0002306928013
0.0002273142333
0.0002304980928
0.0002201929836
0.0001869002191
0.000156426403
0.0001421990144
0.00014122663
0.0001450050299
0.000151440228
0.0001605333505
0.0001720194042
0.0001849945388
0.0001987505474
0.0002135692403
0.0002307785555
0.0002566389404
0.0003105516359
0.0003897125429
0.0004693827283
0.000343743398
0.0002823131533
0.0002015584859
0.0002372869467
0.0002401740935
0.00023665321
0.000244645517
0.0002646433672
0.0002583822348
0.0002149221405
0.0001704472934
0.0001494802558
0.0001477601331
0.0001516899693
0.0001584057323
0.0001682506425
0.000181253411
0.0001964638527
0.0002132224371
0.0002299790036
0.000241966976
0.0002423879192
0.0002553911516
0.0002840358593
0.000332753732
0.0002658962982
0.000254562961
0.0001998918476
0.000238387852
0.0002419759255
0.0002478068953
0.0002761118732
0.0003109604584
0.0003064253624
0.0002511967318
0.0001898512941
0.0001562678005
0.0001531853769
0.0001570848446
0.0001638176872
0.0001739518632
0.0001877472088
0.0002042474143
0.0002221981027
0.0002375459138
0.0002462899199
0.0002474596822
0.0002504131353
0.0002502839346
0.0002583716276
0.0002470633309
0.0002476691556
0.0002521788798
0.0001965753827
0.0002379649034
0.000246859054
0.0002748115488
0.0003212590256
0.0003585448982
0.0003553388644
0.0002894450176
0.0002138226291
0.0001627031795
0.0001580690847
0.0001618383079
0.0001679116343
0.0001768705622
0.00018940197
0.0002053802426
0.000223806434
0.0002393694533
0.0002482912211
0.0002509302599
0.0002516996074
0.0002507657979
0.0002512941617
0.0002566154306
0.0002627504021
0.0002676065095
9.521920367e-05
0.0001200133497
0.0001320800973
0.0001413785265
0.0001493453624
0.0001565238073
0.0001631513057
0.0001692401728
0.000174702012
0.0001794274075
0.0001833370839
0.0001863909968
0.0001885670644
0.000189838986
0.0001901252339
0.00018932001
0.0001874119523
0.0001846076406
0.0001812930201
0.0001778839968
0.0001746098655
0.0001718782488
0.0001700400254
0.0001694168419
0.0001697640184
0.0001684837591
9.93768168e-05
0.0002093464758
0.0002514238262
0.0002876931932
0.0003237247818
0.0003610235247
0.0004004179089
0.0004409283082
0.000480575885
0.0005173853524
0.0005500396221
0.0005777520851
0.000599709556
0.0006148496716
0.0006221143794
0.0006214900983
0.0006146565145
0.0006045217568
0.0005935121275
0.0005822188845
0.0005713622225
0.0005616748429
0.0005531683359
0.000545243805
0.0005336759624
0.0005083605442
9.856673212e-05
0.0002241199674
0.0002796294824
0.0003320281347
0.0003862867996
0.0004441256361
0.0005052362156
0.0005658967098
0.0006212885388
0.0006681553198
0.0007059082258
0.0007357654447
0.00075890456
0.0007756680478
0.0007854468122
0.0007872295543
0.0007807248645
0.000767488992
0.0007508456097
0.0007335195849
0.0007159453292
0.0006990973685
0.0006800342373
0.0006553420653
0.0006217648049
0.0005786089848
9.676300168e-05
0.000222021039
0.0002859988791
0.0003479185951
0.0004140384769
0.0004868333328
0.0005642659686
0.0006387657233
0.0007025445638
0.0007525630461
0.0007909625731
0.0008216067498
0.0008468948656
0.0008667465894
0.0008794634006
0.000883025757
0.0008766575519
0.0008622259446
0.0008435505735
0.0008216946422
0.0007936237981
0.0007667675911
0.000738186671
0.0007001975844
0.0006492312276
0.0005938946659
0.0001034836546
0.0002256633577
0.0002942310128
0.0003562811114
0.0004242651182
0.000503327629
0.0005898102751
0.0006715762905
0.0007381478511
0.0007882875556
0.0008280029194
0.0008635171056
0.0008963978017
0.000924053942
0.0009441559054
0.000954874049
0.0009553853092
0.0009466456226
0.0009303810128
0.0009038971654
0.0008603919524
0.0008128656837
0.0007710486067
0.0007231757899
0.0006596213541
0.0005970399643
0.0001222591934
0.0002478233536
0.0003169074199
0.0003687622809
0.0004259196203
0.0004994862057
0.0005862399849
0.0006702285238
0.0007389256889
0.0007929696639
0.0008408479734
0.0008874533501
0.0009302705733
0.0009623921221
0.0009890956476
0.00100996211
0.001022313143
0.001022353362
0.001007705931
0.0009785248051
0.0009353743093
0.0008661936916
0.0007983504809
0.0007378103256
0.0006639486287
0.0006027793006
0.0001422679113
0.0002903001035
0.0003583329524
0.0003934195145
0.0004285334855
0.0004843030407
0.0005624169387
0.0006458506187
0.0007202200057
0.0007859849099
0.0008486049237
0.000903391762
0.0009466617412
0.0009862628736
0.001023049874
0.001055121138
0.001078281343
0.00108704845
0.001077049887
0.0010481159
0.001004098159
0.0009431551856
0.0008378322222
0.0007579071539
0.000674843981
0.0006249967017
0.0001577225657
0.0003465175826
0.0004162893992
0.0004346249607
0.0004423539598
0.0004714527781
0.0005337396803
0.0006148730125
0.0006984200097
0.0007805928314
0.0008557672052
0.000911622209
0.0009629331835
0.001012538012
0.001059963464
0.001102185674
0.001134291111
0.00115004016
0.001144221653
0.001116696073
0.001072825585
0.00101873892
0.0009041298492
0.0008003952024
0.0007048976647
0.0006716903364
0.0001679759907
0.0004021118507
0.000478865275
0.000487727295
0.0004721054245
0.0004724835422
0.0005151987913
0.0005921144354
0.0006844326759
0.0007800657203
0.0008565944793
0.0009189112216
0.0009779378033
0.001035871397
0.001091172922
0.001140411432
0.001178481929
0.001198657674
0.001195540996
0.001170311189
0.001128526421
0.001081835083
0.001002220392
0.0008910346845
0.0007640450181
0.0007418350296
0.000173126947
0.0004414807616
0.000525876192
0.0005344805105
0.0005078125041
0.0004860732342
0.000510281741
0.0005811884808
0.0006783927703
0.0007808512361
0.0008547604982
0.0009205102545
0.0009838852677
0.001045986657
0.001104907622
0.001157397065
0.001198634051
0.001220797495
0.001218696888
0.001197006939
0.001161634522
0.001128553171
0.001085152152
0.0009838390281
0.0008542016771
0.0008306499113
0.0001736706523
0.0004584505051
0.0005419711879
0.0005536521368
0.0005280219506
0.0004971966031
0.0005095917626
0.0005739046242
0.000670823153
0.000773306418
0.0008460127092
0.0009121098404
0.0009756804993
0.001037537688
0.001096146427
0.001149077444
0.001192618215
0.001215886658
0.001213298631
0.001196244966
0.001171386931
0.001153865896
0.001129769614
0.001041932154
0.0009472327815
0.0009254714827
0.0001703603896
0.0004526641067
0.0005294437966
0.0005384449339
0.0005144295091
0.0004886557575
0.0005008687211
0.0005604559713
0.0006530410271
0.000755795533
0.0008299561021
0.0008952660956
0.000956129701
0.001014427191
0.001069839514
0.001121102587
0.001165286678
0.001193685017
0.001192529989
0.001183177553
0.001172819744
0.001174875963
0.001171436923
0.00113067219
0.001057202977
0.001027282843
0.0001633696966
0.000419918602
0.0004815954365
0.00047943796
0.0004587964276
0.0004504645847
0.0004746293396
0.0005338595408
0.0006206436391
0.0007216875037
0.0008089050222
0.0008772252689
0.0009356951747
0.0009893927976
0.001040227189
0.001088381409
0.001131044923
0.001162221455
0.001175739086
0.001178258992
0.001181667847
0.001193526677
0.001192813487
0.001169820663
0.001136677785
0.001107974787
0.0001520242379
0.0003564805094
0.0003961113782
0.0003808791014
0.0003699370481
0.0003852220709
0.0004268222758
0.0004905229814
0.0005749661785
0.0006741855065
0.0007752659709
0.0008611592406
0.0009245074282
0.0009776212765
0.00102571832
0.00107259906
0.00111674761
0.00115257681
0.001174702721
0.001184796007
0.001190748329
0.001195338013
0.001190184005
0.001177242138
0.001166321289
0.001159537705
0.0001385486146
0.0002731054626
0.0002970306058
0.0002781723037
0.0002782418694
0.000310134431
0.00036375895
0.0004328622106
0.000519222756
0.0006202855651
0.0007248732426
0.0008226614554
0.0009076009941
0.0009730512676
0.001021481692
0.001066073851
0.001108445326
0.001144171898
0.001168865193
0.001180318288
0.001183733495
0.001182170463
0.001177637696
0.001173901624
0.001175646656
0.001182938784
0.0001332227636
0.0002025516066
0.0002202333514
0.0002141887441
0.0002238229172
0.0002589484243
0.0003131400234
0.0003800973841
0.0004617812327
0.000562832582
0.0006752659919
0.0007827968827
0.0008755550618
0.0009511157288
0.001009126719
0.001053841649
0.001094717628
0.001127354747
0.00115005612
0.001158551567
0.001162679712
0.00116346086
0.001164168773
0.00116714558
0.001174541929
0.001186752662
0.0001402740096
0.0001781054922
0.000190013902
0.0002003270875
0.0002207931952
0.0002555322778
0.0003038499027
0.0003583285591
0.0004180644309
0.0004985197092
0.0006069490274
0.0007254058465
0.0008318025762
0.0009171089452
0.0009808197263
0.001033181265
0.001080590002
0.0010995349
0.001141132485
0.001137692583
0.001141596286
0.001145204976
0.001149895907
0.001155846383
0.001164173338
0.00117582477
0.0001501671445
0.0001944264945
0.0002067114964
0.0002256876164
0.0002517865047
0.0002859936015
0.0003294889573
0.0003724463267
0.0004062390814
0.0004480662442
0.0005289300361
0.0006468824793
0.0007664642677
0.0008663034258
0.0009421842818
0.001003087397
0.001080979256
0.001344563613
0.001170579454
0.001128095335
0.00112317032
0.001124146544
0.001129124148
0.00113473187
0.001141335603
0.001149770624
0.0001576527211
0.0002221029629
0.0002443781549
0.0002695288684
0.0002937561657
0.0003209413588
0.0003546911422
0.0003903988415
0.0004138816312
0.00042165981
0.0004539157925
0.0005500001912
0.0006772659174
0.0007973417287
0.0008863471185
0.0009687355641
0.001458183087
0.001667349143
0.001595651199
0.001124540786
0.001102777178
0.001089604392
0.001089873734
0.001092311369
0.001095911512
0.001100844069
0.000162764655
0.0002497081281
0.0002798222595
0.0003070574777
0.0003290621817
0.0003473980295
0.0003605500055
0.0003951852057
0.0004110417998
0.0004067221866
0.0003966509048
0.0004482949517
0.0005625968633
0.0006852067899
0.0007615654713
0.0009606568325
0.001598866248
0.002102868259
0.001423705176
0.001099187223
0.001052184527
0.001025313762
0.001013493123
0.001008568805
0.001007593116
0.001009073586
0.0001664063681
0.0002765449126
0.0003019333966
0.0003290304006
0.0003496318039
0.0003464409821
0.0003291235661
0.000375439896
0.0003795753031
0.0003732665813
0.0003513348402
0.0003575550286
0.0004324415642
0.0005391602467
0.0006570811412
0.0007801371804
0.000952574247
0.001172546704
0.00109522739
0.0009961037097
0.0009552459596
0.0009121395519
0.0008687751191
0.0008429262058
0.0008329057735
0.0008294150374
0.0001699191633
0.0003118556995
0.0003186443502
0.000332491253
0.0003418758376
0.0004844648304
0.0004536850585
0.00030116065
0.0003184335351
0.0003080437341
0.0002967454557
0.0002974937876
0.0003415044842
0.0004259083505
0.0005263723452
0.0006366221489
0.0007503828602
0.0008331701696
0.0008848124034
0.0008781235352
0.0008445249141
0.0007814832389
0.0007226244107
0.0006600202469
0.0006831404522
0.0007276357934
0.00017456391
0.0003680117303
0.0003554889079
0.0003214327046
0.0003178270716
0.0002729076885
0.0003901883366
0.0002199113769
0.0002349212143
0.0002326695436
0.0002431000559
0.000265899701
0.000307992304
0.0003788160002
0.0004755557666
0.0005878286794
0.0007046619503
0.0008109938641
0.0008876309315
0.0009142919927
0.0008909735235
0.0008717399769
0.0009842357733
0.0007159588466
0.0008148450147
0.0009726144569
0.0001801777742
0.0004351745892
0.0004401581915
0.0003580129555
0.0002975120065
0.0002730997902
0.0002289843321
0.0001911621684
0.0001839263832
0.0001939111547
0.0002213783639
0.0002591130748
0.000305847465
0.0003761414628
0.0004755407858
0.0005951791061
0.0007245263003
0.0008480503348
0.0009437154009
0.0009972664925
0.001050935749
0.001385127839
0.001791673757
0.001210541998
0.001150039753
0.001304456206
0.0001860440096
0.0004893606906
0.0005461976108
0.000457849464
0.0003534873487
0.00028993801
0.0002467865448
0.000203803348
0.0001863649302
0.0001918736594
0.0002174069981
0.0002580997858
0.0003147681838
0.0003918726902
0.0004926378824
0.0006146466186
0.0007494849152
0.0008835959047
0.001003824
0.001114657533
0.001275803881
0.001608316201
0.001979514953
0.001549271065
0.00141951313
0.0001911881391
0.0005326220106
0.0006270749652
0.0005729331757
0.0004475236755
0.0003518308275
0.0002901707924
0.0002410008595
0.0002146837216
0.0002167753383
0.0002408970273
0.000280250803
0.0003353177608
0.0004102257189
0.0005116644888
0.0006410588756
0.0007879208509
0.0009409232618
0.001097240763
0.001260140419
0.001477836068
0.001770154665
0.001863178072
0.001766588276
0.001565315563
0.0001948578604
0.0005695572018
0.0006916226333
0.0006619577262
0.0005368085055
0.0004316027786
0.0003534714153
0.0002894109257
0.0002527192284
0.0002523441053
0.0002801608084
0.000323637235
0.0003773696916
0.0004473303515
0.0005514019792
0.0006980921022
0.0008695233269
0.001042782001
0.001193525228
0.001352721362
0.001588958112
0.001852751792
0.002032222727
0.001860210248
0.001644115802
0.0001965946947
0.0006014896844
0.0007417987119
0.0007223152946
0.0006165201954
0.0005400415863
0.0004566811144
0.000359689175
0.0002997100258
0.0002944241267
0.0003267064152
0.0003758514455
0.0004312822597
0.0005022288885
0.0006163192099
0.0007842210609
0.0009641659777
0.001124707666
0.001253499799
0.00136594922
0.001547690231
0.001763702134
0.001841633008
0.001789817306
0.001569612253
0.0001960990778
0.0006288221392
0.0007814912557
0.0007638815659
0.0007106558802
0.0006938491326
0.0006262436175
0.0004793178826
0.0003611476822
0.0003411510629
0.0003724056321
0.0004191255143
0.0004724442252
0.0005492975417
0.0006765765631
0.000854544721
0.001019438452
0.001169955869
0.001278298955
0.001346321482
0.001488765006
0.001545888539
0.001576594976
0.001545589691
0.001467035564
0.001416935197
0.0001932455074
0.0006513885784
0.0008110193783
0.0008116826879
0.0008248813196
0.0008856258157
0.0008352541153
0.0006484440061
0.0004417598396
0.0003952294438
0.0004262627414
0.000469447843
0.0005159129098
0.0005891713794
0.0007108309835
0.0008759747751
0.001028664662
0.001153999033
0.001242074513
0.00130432561
0.001368995733
0.001420251789
0.001457287211
0.001455250688
0.001433190792
0.001413723225
9.952811994e-05
0.0001259300396
0.0001389462013
0.0001493959057
0.0001582767122
0.0001662220121
0.0001735562045
0.0001803522932
0.0001865487324
0.000192034331
0.000196715244
0.0002005403661
0.000203483474
0.0002055022411
0.0002065099317
0.0002064229177
0.0002052743415
0.0002032785191
0.0002007659462
0.0001980656274
0.0001954579822
0.0001932455616
0.0001917168885
0.0001910568411
0.0001908875451
0.0001893047877
0.000106751226
0.0002679443924
0.00033967744
0.0003988987628
0.0004570471913
0.0005156540891
0.0005755060073
0.0006352909496
0.0006925086282
0.0007447083906
0.0007903599333
0.0008288660303
0.0008600362979
0.0008837097415
0.000899717621
0.0009081464826
0.000909566535
0.0009051267212
0.0008963620189
0.0008847929182
0.0008720254218
0.0008591865464
0.0008465194029
0.0008330768112
0.0008149267187
0.0007856214014
0.0001068755209
0.0003019862837
0.0003964672454
0.0004851662471
0.0005754813502
0.0006683760053
0.0007631451057
0.0008554849487
0.0009398879187
0.001012545942
0.001072520672
0.001120918151
0.001159290609
0.001188685644
0.001209384471
0.001221113088
0.001223557854
0.001217238463
0.001204084807
0.001186687936
0.00116661313
0.001144442848
0.001118272194
0.001085725502
0.001043735692
0.0009911740992
0.0001039531151
0.0002970835359
0.0004053146735
0.0005129160307
0.0006240657669
0.0007396810809
0.0008575599407
0.0009697778491
0.001067762861
0.001147512301
0.001210195478
0.001259325361
0.001297970883
0.001327744708
0.001349075374
0.001361769187
0.001365329561
0.00136002621
0.001347538446
0.001329855818
0.001307365168
0.001280703591
0.00124588976
0.00119862414
0.001137262777
0.001067990367
0.0001036800458
0.0002863842273
0.0004042148952
0.0005197043151
0.0006384659073
0.0007640980059
0.0008942717955
0.001017191814
0.001120861716
0.001201339377
0.001262148513
0.001308955239
0.001345706545
0.001374376751
0.001396209977
0.001411907759
0.001420486778
0.001420860012
0.001413203821
0.001398935993
0.001378613056
0.001352282803
0.001315370783
0.001260147163
0.001184231323
0.001102058019
0.0001149436622
0.0002926533438
0.0004158970617
0.0005259801782
0.0006356796353
0.0007560469027
0.0008877503246
0.001015439665
0.00112251703
0.001203807845
0.001263844628
0.00130886461
0.001342978951
0.001369310602
0.001392139137
0.001413456634
0.001430350538
0.001438852152
0.001437039481
0.001427981008
0.001416431109
0.001396166636
0.001361577354
0.001303989957
0.001215808641
0.00112503006
0.0001334767314
0.0003263727404
0.0004508042111
0.0005449529616
0.000630525435
0.0007303535784
0.0008529671735
0.0009815271872
0.001093247592
0.001179161475
0.001241845205
0.00128575646
0.001315711474
0.001344745249
0.001375193174
0.001405853278
0.00143223152
0.00144833656
0.001450849936
0.001444026683
0.001436616826
0.001431490603
0.001406744195
0.001356052737
0.001253958075
0.001158459633
0.0001507231782
0.0003820726047
0.0005067461616
0.000582382509
0.0006380341237
0.0007070832515
0.0008105894565
0.0009355178741
0.001052637928
0.001146058078
0.00121289965
0.001254453146
0.001289375476
0.001326313258
0.001366440173
0.001406826735
0.001441703786
0.00146379606
0.001469189615
0.001463462576
0.001456692586
0.00145864516
0.001462482808
0.001453544211
0.001318004491
0.001212874347
0.0001633568724
0.0004432659592
0.0005706183481
0.0006330147509
0.0006642522235
0.0007016879954
0.0007795738173
0.0008954112211
0.001015835319
0.001115854349
0.001185109964
0.001228061448
0.00126919163
0.001313841791
0.001361500932
0.001408431902
0.001448646713
0.001473753823
0.001480237446
0.001476253635
0.001470786017
0.001478926848
0.001519081938
0.001572984527
0.001424517668
0.001285752898
0.0001705340795
0.0004913853569
0.0006226294662
0.0006787182494
0.0006964171952
0.0007105550221
0.0007638178011
0.0008673335631
0.0009876873162
0.00109100881
0.001159641827
0.001205803041
0.001250902336
0.001299356033
0.001349949612
0.001399463425
0.001443290205
0.001468262224
0.001473466692
0.001472081943
0.001470884765
0.001485892389
0.001536256331
0.001567601223
0.001478907582
0.001346740027
0.0001723535366
0.0005159530062
0.0006470351948
0.0006991720055
0.0007114460139
0.0007142435483
0.0007516222644
0.0008446601088
0.0009634276948
0.001068787141
0.001138370584
0.001185945936
0.001231299721
0.001278893713
0.001328217618
0.001378594303
0.001429962334
0.001452936611
0.001452491749
0.001452194523
0.001458298544
0.001479566158
0.001520466343
0.00153697822
0.001472325214
0.001378593817
0.0001694445658
0.0005120505252
0.0006358058828
0.0006822946426
0.0006919921507
0.0006938462345
0.0007284210585
0.0008176011138
0.0009358842873
0.001045211349
0.001121416028
0.001170519508
0.001213892568
0.001257308502
0.00130218459
0.001349501213
0.001400209049
0.001432313759
0.001429815938
0.001430662022
0.001442992066
0.001473173464
0.001517875893
0.001531904107
0.00148534463
0.001412764158
0.0001620552063
0.0004758528603
0.000585679719
0.0006230561464
0.000630454516