/*--------------------------------*- C++ -*----------------------------------*\
  =========                 |
  \\      /  F ield         | OpenFOAM: The Open Source CFD Toolbox
   \\    /   O peration     | Website:  https://openfoam.org
    \\  /    A nd           | Version:  8
     \\/     M anipulation  |
\*---------------------------------------------------------------------------*/
FoamFile
{
    version     2.0;
    format      ascii;
    class       volScalarField;
    location    "1.5";
    object      p_rgh;
}
// * * * * * * * * * * * * * * * * * * * * * * * * * * * * * * * * * * * * * //

dimensions      [1 -1 -2 0 0 0 0];

internalField   nonuniform List<scalar> 
67410
(
100004.1134
100004.0811
100004.0669
100004.0489
100004.0332
100004.0194
100004.0084
100004.0007
100003.9965
100003.9961
100003.9993
100004.006
100004.0157
100004.0277
100004.0409
100004.0536
100004.0641
100004.0703
100004.0718
100004.069
100004.0629
100004.056
100004.0504
100004.0464
100004.0449
100004.0461
100004.0919
100004.0666
100004.0527
100004.0325
100004.0136
100003.9959
100003.9809
100003.9693
100003.9618
100003.9587
100003.96
100003.9652
100003.9736
100003.9839
100003.9947
100004.005
100004.0137
100004.0206
100004.0251
100004.0265
100004.025
100004.0219
100004.019
100004.0162
100004.0141
100004.0135
100004.0766
100004.0568
100004.043
100004.0218
100004.0012
100003.9813
100003.9639
100003.9502
100003.9409
100003.9361
100003.9359
100003.9397
100003.9467
100003.9559
100003.9659
100003.9757
100003.9844
100003.9916
100003.9966
100003.9991
100003.9997
100003.9986
100003.9973
100003.9952
100003.9925
100003.9893
100004.0653
100004.0445
100004.0288
100004.0058
100003.9834
100003.9616
100003.9423
100003.9269
100003.9161
100003.9101
100003.9089
100003.912
100003.9185
100003.9273
100003.9374
100003.9474
100003.9565
100003.9641
100003.9696
100003.973
100003.976
100003.9772
100003.9778
100003.9761
100003.9712
100003.9634
100004.0526
100004.029
100004.0123
100003.9888
100003.9662
100003.9439
100003.9239
100003.9076
100003.8961
100003.8895
100003.8879
100003.8909
100003.8976
100003.9073
100003.9188
100003.9305
100003.941
100003.9493
100003.9551
100003.9585
100003.9631
100003.9673
100003.9708
100003.97
100003.9609
100003.9456
100004.0346
100004.0077
100003.9921
100003.9693
100003.9482
100003.9268
100003.9069
100003.8902
100003.8782
100003.8714
100003.8698
100003.8735
100003.8823
100003.8956
100003.9116
100003.928
100003.9423
100003.9531
100003.9594
100003.9615
100003.9641
100003.971
100003.979
100003.9813
100003.9638
100003.9389
100004.0166
100003.9855
100003.971
100003.9496
100003.9311
100003.9115
100003.8921
100003.8751
100003.8623
100003.8551
100003.8541
100003.8602
100003.8745
100003.8956
100003.9205
100003.9458
100003.968
100003.9839
100003.9916
100003.991
100003.9841
100003.9898
100004.0031
100004.0157
100003.981
100003.945
100004.0001
100003.9648
100003.9511
100003.9312
100003.9159
100003.8986
100003.8799
100003.8621
100003.8482
100003.8405
100003.841
100003.8525
100003.8753
100003.907
100003.944
100003.9818
100004.0149
100004.0369
100004.0455
100004.0407
100004.0221
100004.0205
100004.0361
100004.0781
100004.0074
100003.9615
100003.985
100003.9475
100003.9345
100003.916
100003.9035
100003.8884
100003.8704
100003.8515
100003.8363
100003.8282
100003.8313
100003.8492
100003.8808
100003.9234
100003.9733
100004.0249
100004.0699
100004.0961
100004.1029
100004.0922
100004.0625
100004.0504
100004.0629
100004.156
100004.0277
100003.9762
100003.9717
100003.9341
100003.9221
100003.9047
100003.894
100003.8806
100003.8631
100003.8434
100003.8267
100003.8182
100003.8236
100003.846
100003.8837
100003.9343
100003.9941
100004.0572
100004.1126
100004.1374
100004.1384
100004.1196
100004.0779
100004.0474
100004.0432
100004.0902
100004.0112
100003.9676
100003.9609
100003.9251
100003.9143
100003.8972
100003.8872
100003.8744
100003.8574
100003.8374
100003.8198
100003.8103
100003.8155
100003.8381
100003.8763
100003.9282
100003.9907
100004.0583
100004.1191
100004.1368
100004.1305
100004.106
100004.0619
100004.0234
100004.01
100004.0199
100003.9827
100003.9502
100003.9538
100003.921
100003.9107
100003.8941
100003.8836
100003.8703
100003.8535
100003.834
100003.8161
100003.8048
100003.8062
100003.8237
100003.8561
100003.9009
100003.9547
100004.0116
100004.0607
100004.0814
100004.0743
100004.0547
100004.0221
100003.9927
100003.9797
100003.9769
100003.9572
100003.9361
100003.9523
100003.9235
100003.914
100003.897
100003.8852
100003.8703
100003.8531
100003.834
100003.8157
100003.8018
100003.7964
100003.8039
100003.825
100003.8573
100003.8971
100003.939
100003.9754
100003.9961
100003.9994
100003.9928
100003.9779
100003.9622
100003.9523
100003.9455
100003.9349
100003.9238
100003.96
100003.9343
100003.9258
100003.9083
100003.8944
100003.8771
100003.8584
100003.8387
100003.8198
100003.804
100003.7939
100003.7928
100003.803
100003.8247
100003.8555
100003.8915
100003.9274
100003.955
100003.9572
100003.9558
100003.9486
100003.9397
100003.9317
100003.9249
100003.9183
100003.9129
100003.9757
100003.9531
100003.9451
100003.9274
100003.9108
100003.8901
100003.8691
100003.8479
100003.828
100003.8099
100003.7966
100003.7906
100003.7939
100003.8086
100003.8346
100003.87
100003.9122
100003.9617
100003.945
100003.9437
100003.9337
100003.9251
100003.9179
100003.9119
100003.9071
100003.9036
100003.9928
100003.9742
100003.9659
100003.947
100003.9278
100003.9052
100003.8816
100003.8577
100003.8374
100003.8177
100003.8015
100003.7924
100003.7938
100003.8075
100003.8347
100003.8751
100003.9258
100004.0476
100003.953
100003.9595
100003.9302
100003.9184
100003.9098
100003.9039
100003.8996
100003.8965
100004.0152
100003.9955
100003.9867
100003.9703
100003.9536
100003.9308
100003.9017
100003.8692
100003.848
100003.8265
100003.8077
100003.7945
100003.7916
100003.8052
100003.8422
100003.9071
100003.9633
100004.3439
100003.9727
100004.0289
100003.9306
100003.9174
100003.9056
100003.8989
100003.8949
100003.8914
100004.0474
100004.0253
100004.0212
100004.0171
100004.0129
100003.9925
100003.9455
100003.8869
100003.8615
100003.8352
100003.8172
100003.8038
100003.8008
100003.8146
100003.8566
100003.9395
100003.9422
100004.4545
100004.0056
100004.0697
100003.914
100003.9333
100003.9115
100003.9005
100003.8962
100003.8909
100004.0882
100004.0726
100004.0868
100004.1198
100004.1553
100004.1573
100004.046
100003.9189
100003.8841
100003.8389
100003.8239
100003.8088
100003.8069
100003.8328
100003.9313
100004.2059
100004.0345
100007.2751
100004.3406
100004.5203
100003.9288
100003.9889
100003.9242
100003.9054
100003.9002
100003.8956
100004.1298
100004.1373
100004.1904
100004.2915
100004.4543
100004.6006
100004.2323
100003.978
100003.9237
100003.8325
100003.8339
100003.8178
100003.807
100003.8027
100003.8198
100003.8588
100003.898
100004.3294
100003.9176
100004.0577
100003.8848
100003.9536
100003.9351
100003.9221
100003.9263
100003.9113
100004.1637
100004.2108
100004.3356
100004.57
100004.9743
100005.5347
100004.4543
100004.086
100003.9662
100003.8254
100003.8386
100003.8112
100003.8007
100003.7971
100003.8133
100003.8511
100003.8603
100004.1797
100003.9137
100004.0086
100003.933
100003.9399
100003.9907
100003.9508
100003.9826
100003.9474
100004.1712
100004.2619
100004.5216
100005.1305
100006.6636
100012.8367
100004.9873
100004.3102
100004.0305
100003.8284
100003.8474
100003.8151
100003.8117
100003.8077
100003.8123
100003.8269
100003.8399
100003.9768
100003.8836
100003.9664
100003.9651
100003.9902
100004.1802
100003.9941
100004.0451
100003.9536
100004.1168
100004.1687
100004.2964
100004.4585
100004.6068
100004.3497
100004.2577
100003.9274
100003.9337
100003.8213
100003.8456
100003.8179
100003.8075
100003.7995
100003.7981
100003.8076
100003.8335
100003.8958
100003.8757
100003.9143
100003.9724
100003.9603
100004.1644
100004.0632
100004.1164
100003.9714
100004.0561
100004.0755
100004.136
100004.2218
100004.3363
100004.6605
100004.139
100003.9264
100003.9232
100003.8322
100003.8428
100003.8273
100003.8195
100003.8143
100003.8129
100003.8187
100003.8363
100003.8707
100003.8903
100003.9605
100004.1471
100004.0641
100005.8275
100004.1957
100004.3414
100004.0036
100004.0103
100004.0111
100004.0301
100004.0625
100004.1227
100004.1487
100004.0388
100003.9121
100003.9276
100003.8544
100003.8477
100003.8324
100003.8212
100003.8126
100003.8074
100003.8088
100003.8206
100003.8437
100003.872
100003.9205
100004.0034
100004.022
100004.2896
100004.1268
100004.319
100003.9802
100003.9717
100003.9659
100003.9702
100003.9855
100003.9767
100003.9429
100003.8941
100003.8992
100003.8649
100003.8505
100003.8368
100003.8257
100003.8172
100003.8123
100003.8135
100003.824
100003.8444
100003.8725
100003.9172
100003.9944
100004.0701
100004.3808
100004.0976
100004.1865
100003.9642
100003.952
100003.9369
100003.9299
100003.9299
100003.9191
100003.9053
100003.891
100003.8957
100003.8754
100003.8588
100003.8439
100003.8321
100003.823
100003.8178
100003.819
100003.831
100003.8587
100003.8956
100003.946
100004.0197
100004.1346
100004.2928
100004.1435
100004.1823
100003.9574
100003.9452
100003.9302
100003.9206
100003.9115
100003.8938
100003.8762
100003.8816
100003.8925
100003.8829
100003.8679
100003.8532
100003.8411
100003.832
100003.8269
100003.8278
100003.8389
100003.8702
100003.912
100003.9482
100004.0134
100004.0491
100004.1497
100004.1053
100004.073
100003.9566
100003.9476
100003.939
100003.9312
100003.9154
100003.8977
100003.8688
100003.8735
100003.8931
100003.8907
100003.8777
100003.8641
100003.8528
100003.8453
100003.8437
100003.851
100003.8843
100004.0079
100003.9944
100004.0283
100004.2244
100004.0865
100004.1047
100004.0809
100004.0878
100004.0802
100003.9616
100003.9572
100003.9547
100003.9439
100003.9336
100003.9358
100003.8975
100003.8771
100003.8986
100003.9007
100003.8879
100003.8753
100003.8651
100003.8593
100003.8591
100003.8612
100003.8762
100003.9069
100003.9266
100003.9527
100003.9893
100004.0203
100004.0727
100004.0658
100004.0527
100004.0479
100004.1171
100004.0844
100004.0689
100004.05
100004.0333
100004.0183
100004.0057
100003.9963
100003.9903
100003.9878
100003.9886
100003.9926
100003.9997
100004.0094
100004.0209
100004.033
100004.0438
100004.0513
100004.055
100004.0554
100004.0535
100004.0503
100004.0464
100004.0421
100004.0382
100004.035
100004.0963
100004.0699
100004.055
100004.0342
100004.0143
100003.9954
100003.9789
100003.9658
100003.9567
100003.9518
100003.9511
100003.9542
100003.9604
100003.9686
100003.9777
100003.9868
100003.9953
100004.0027
100004.0082
100004.0118
100004.0139
100004.0143
100004.013
100004.0101
100004.006
100004.002
100004.0781
100004.0593
100004.0444
100004.0225
100004.0006
100003.9793
100003.9603
100003.945
100003.934
100003.9275
100003.9253
100003.9268
100003.9314
100003.9383
100003.9464
100003.9549
100003.9631
100003.9702
100003.9759
100003.9805
100003.985
100003.9884
100003.9893
100003.9878
100003.9833
100003.976
100004.0659
100004.0458
100004.0295
100004.0058
100003.9822
100003.9587
100003.9378
100003.9209
100003.9086
100003.901
100003.8977
100003.8981
100003.9017
100003.9078
100003.9156
100003.924
100003.932
100003.9387
100003.9441
100003.9495
100003.9575
100003.9654
100003.9689
100003.9684
100003.9609
100003.9473
100004.0548
100004.0297
100004.0119
100003.9876
100003.9639
100003.94
100003.9183
100003.9006
100003.8875
100003.8789
100003.8744
100003.8739
100003.8773
100003.8841
100003.8931
100003.9027
100003.9114
100003.918
100003.9229
100003.9284
100003.9383
100003.9528
100003.9607
100003.9624
100003.9479
100003.9237
100004.0327
100004.0043
100003.9882
100003.9655
100003.9441
100003.9215
100003.9001
100003.882
100003.8679
100003.8582
100003.8529
100003.8527
100003.858
100003.868
100003.881
100003.8945
100003.9061
100003.9141
100003.9191
100003.9236
100003.9318
100003.9519
100003.9672
100003.977
100003.9465
100003.9085
100004.0087
100003.9775
100003.9631
100003.9423
100003.9244
100003.9045
100003.884
100003.8651
100003.8495
100003.8385
100003.8334
100003.8353
100003.8451
100003.8607
100003.8803
100003.9005
100003.9175
100003.9278
100003.9328
100003.9362
100003.942
100003.9649
100003.9892
100004.0251
100003.9563
100003.9072
100003.988
100003.9538
100003.9397
100003.9207
100003.9066
100003.8898
100003.8701
100003.8499
100003.8324
100003.8205
100003.8169
100003.8228
100003.8378
100003.861
100003.8898
100003.92
100003.9453
100003.9576
100003.9617
100003.9631
100003.9648
100003.992
100004.026
100004.133
100003.9746
100003.9241
100003.9714
100003.9344
100003.9208
100003.9032
100003.8918
100003.8778
100003.8588
100003.8369
100003.8175
100003.8056
100003.8042
100003.8133
100003.8341
100003.8657
100003.9054
100003.948
100003.9845
100003.9958
100003.9959
100003.9938
100003.9894
100004.0204
100004.0693
100004.3297
100003.9932
100003.9508
100003.9574
100003.9198
100003.9074
100003.8908
100003.8808
100003.8686
100003.8499
100003.8268
100003.8061
100003.7944
100003.7939
100003.8052
100003.8301
100003.8683
100003.9179
100003.9734
100004.025
100004.0272
100004.0182
100004.008
100003.9886
100003.997
100004.0214
100004.1169
100003.9737
100003.9307
100003.9461
100003.9102
100003.899
100003.8834
100003.8738
100003.862
100003.8437
100003.8203
100003.7989
100003.7863
100003.785
100003.7957
100003.8207
100003.8607
100003.9148
100003.9805
100004.052
100004.0314
100004.0091
100003.9896
100003.968
100003.966
100003.9788
100004.0086
100003.9488
100003.91
100003.9388
100003.9061
100003.896
100003.8806
100003.8709
100003.8586
100003.8406
100003.8178
100003.7959
100003.7813
100003.7768
100003.7835
100003.8032
100003.8361
100003.8805
100003.9318
100003.9801
100003.9878
100003.9689
100003.9562
100003.9431
100003.9435
100003.9491
100003.9554
100003.9271
100003.8996
100003.9373
100003.908
100003.8984
100003.8836
100003.8732
100003.8592
100003.8412
100003.8196
100003.7978
100003.7804
100003.7708
100003.7712
100003.7825
100003.8048
100003.8361
100003.8723
100003.9056
100003.9206
100003.9235
100003.9234
100003.9214
100003.922
100003.9206
100003.9173
100003.9058
100003.8913
100003.9436
100003.9175
100003.9085
100003.8942
100003.8818
100003.8649
100003.8457
100003.825
100003.8045
100003.7863
100003.7736
100003.7685
100003.7735
100003.7888
100003.8133
100003.8441
100003.8754
100003.8972
100003.9046
100003.9073
100003.9052
100003.9017
100003.8978
100003.8939
100003.8892
100003.8845
100003.9594
100003.9351
100003.9258
100003.911
100003.8948
100003.8738
100003.8522
100003.8309
100003.8112
100003.7933
100003.7795
100003.772
100003.7722
100003.7816
100003.7998
100003.824
100003.8513
100003.8769
100003.8853
100003.8891
100003.8867
100003.8832
100003.8802
100003.8778
100003.8761
100003.8755
100003.9795
100003.9556
100003.9425
100003.9219
100003.9019
100003.8792
100003.8559
100003.8334
100003.8154
100003.798
100003.7829
100003.773
100003.7703
100003.7753
100003.7883
100003.807
100003.8319
100003.8688
100003.8723
100003.8765
100003.8723
100003.87
100003.8682
100003.867
100003.8666
100003.867
100003.9912
100003.9668
100003.9488
100003.926
100003.9071
100003.8853
100003.8588
100003.8315
100003.8161
100003.8005
100003.7853
100003.7724
100003.7653
100003.7651
100003.7723
100003.7852
100003.8007
100003.8603
100003.8623
100003.8705
100003.8612
100003.8615
100003.8608
100003.8605
100003.861
100003.8619
100004.0014
100003.9752
100003.9591
100003.946
100003.9369
100003.9165
100003.8753
100003.8311
100003.8153
100003.7992
100003.7878
100003.7745
100003.7652
100003.7624
100003.7653
100003.7669
100003.7437
100003.8214
100003.8658
100003.873
100003.8562
100003.8613
100003.8595
100003.8593
100003.8607
100003.8614
100004.0216
100003.9996
100003.9956
100003.9981
100004.0127
100004.0047
100003.9054
100003.8304
100003.8184
100003.79
100003.7864
100003.7727
100003.7562
100003.7413
100003.7254
100003.6893
100003.5559
100003.4075
100003.9303
100003.8603
100003.8478
100003.8603
100003.8603
100003.8625
100003.8663
100003.8656
100004.0494
100004.0418
100004.0587
100004.097
100004.1562
100004.1904
100003.8813
100003.8157
100003.8209
100003.7701
100003.7859
100003.7797
100003.7633
100003.7353
100003.6794
100003.5598
100003.4526
100003.0123
100003.6952
100003.7638
100003.8234
100003.8602
100003.8694
100003.8742
100003.8818
100003.8722
100004.0758
100004.0928
100004.1427
100004.2083
100004.2362
100003.9574
100003.5316
100003.7718
100003.7994
100003.7446
100003.7806
100003.7778
100003.7682
100003.7503
100003.7282
100003.6982
100003.6437
100003.5544
100003.7582
100003.8161
100003.8397
100003.8616
100003.8906
100003.9003
100003.9213
100003.9016
100004.0865
100004.1421
100004.3227
100004.7496
100005.7385
100005.6415
100002.4784
100003.7274
100003.7953
100003.7314
100003.7905
100003.7857
100003.7891
100003.7806
100003.7683
100003.7518
100003.7268
100003.7226
100003.7952
100003.8529
100003.8707
100003.8853
100003.9187
100003.9372
100003.9403
100003.8963
100004.0385
100004.0587
100004.1154
100004.141
100004.0732
100003.7688
100003.5872
100003.6515
100003.7784
100003.7478
100003.8091
100003.7994
100003.7961
100003.7856
100003.7753
100003.7683
100003.7683
100003.7823
100003.8024
100003.8301
100003.858
100003.8488
100003.8654
100003.9978
100003.9411
100003.8847
100003.9872
100003.9893
100004.0169
100004.0552
100004.1351
100004.2964
100003.7927
100003.7858
100003.8335
100003.7933
100003.8215
100003.8149
100003.8098
100003.8028
100003.7959
100003.7921
100003.7945
100003.8059
100003.8172
100003.8328
100003.8408
100003.7021
100003.7571
100004.1184
100003.9523
100003.8711
100003.9484
100003.9422
100003.9506
100003.9616
100003.991
100003.963
100003.8982
100003.8395
100003.8833
100003.8369
100003.839
100003.8268
100003.8159
100003.8052
100003.7959
100003.7906
100003.7922
100003.8013
100003.8155
100003.8345
100003.8537
100003.8641
100003.907
100003.9948
100003.9659
100003.9218
100003.9103
100003.9083
100003.9051
100003.9102
100003.8939
100003.8737
100003.8515
100003.8725
100003.8533
100003.8436
100003.8312
100003.8198
100003.8093
100003.8005
100003.7952
100003.7959
100003.8032
100003.8172
100003.8374
100003.8525
100003.8499
100003.8198
100003.9751
100003.9494
100003.9073
100003.8942
100003.8876
100003.8808
100003.8815
100003.8659
100003.8623
100003.8592
100003.8755
100003.865
100003.8507
100003.8363
100003.824
100003.8133
100003.8036
100003.7964
100003.7955
100003.8034
100003.8178
100003.8329
100003.8027
100003.7506
100003.627
100003.8755
100003.9446
100003.9016
100003.8888
100003.8804
100003.8713
100003.8634
100003.8433
100003.8349
100003.847
100003.8709
100003.8704
100003.8575
100003.8434
100003.8309
100003.8196
100003.8086
100003.7972
100003.7909
100003.7929
100003.8168
100003.8635
100003.8909
100003.9266
100003.8864
100004.0761
100003.9739
100003.9018
100003.8908
100003.8843
100003.8736
100003.8565
100003.8397
100003.8246
100003.8345
100003.8659
100003.8755
100003.8661
100003.854
100003.8425
100003.8328
100003.8263
100003.8149
100003.8111
100003.8106
100003.8726
100003.8968
100003.9636
100003.9678
100003.9671
100003.995
100003.9848
100003.9735
100003.904
100003.8959
100003.8912
100003.873
100003.857
100003.8436
100003.8257
100003.8316
100003.8643
100003.8817
100003.8752
100003.8655
100003.8556
100003.848
100003.8479
100003.8337
100003.8321
100003.8411
100003.8634
100003.8914
100003.9309
100003.957
100003.9879
100004.0209
100003.9791
100003.9705
100004.085
100004.0515
100004.035
100004.0156
100003.9993
100003.985
100003.9733
100003.9646
100003.9592
100003.957
100003.9578
100003.9614
100003.9676
100003.9758
100003.9854
100003.9953
100004.0043
100004.0111
100004.0154
100004.0172
100004.0171
100004.0155
100004.0127
100004.0089
100004.004
100003.9982
100004.0659
100004.038
100004.0226
100004.003
100003.9848
100003.9679
100003.9533
100003.9417
100003.9336
100003.9291
100003.9281
100003.9304
100003.9353
100003.9418
100003.9491
100003.9564
100003.9633
100003.9694
100003.9744
100003.9777
100003.9794
100003.9796
100003.9782
100003.9749
100003.9696
100003.9631
100004.0446
100004.0256
100004.012
100003.9925
100003.9732
100003.9546
100003.938
100003.9244
100003.9142
100003.9077
100003.9049
100003.9056
100003.9092
100003.9149
100003.9219
100003.9293
100003.9364
100003.9427
100003.9479
100003.9519
100003.9548
100003.9564
100003.9563
100003.9538
100003.9471
100003.9383
100004.0267
100004.011
100003.998
100003.9774
100003.957
100003.9368
100003.9187
100003.9035
100003.8919
100003.8843
100003.8806
100003.8807
100003.8841
100003.89
100003.8975
100003.9057
100003.9137
100003.9206
100003.9262
100003.9307
100003.9345
100003.9377
100003.9393
100003.9382
100003.9275
100003.9146
100004.0143
100003.9975
100003.9834
100003.9614
100003.9403
100003.9194
100003.9005
100003.8845
100003.8721
100003.8639
100003.86
100003.8603
100003.8645
100003.8719
100003.8816
100003.8921
100003.902
100003.9101
100003.9163
100003.9214
100003.9259
100003.9309
100003.935
100003.9393
100003.9176
100003.8999
100003.9973
100003.9794
100003.9651
100003.9426
100003.9219
100003.9016
100003.8828
100003.8665
100003.8539
100003.8455
100003.842
100003.8436
100003.8501
100003.8607
100003.8739
100003.8885
100003.9018
100003.9117
100003.9189
100003.9253
100003.9313
100003.9392
100003.9467
100003.9714
100003.9192
100003.8995
100003.9769
100003.9582
100003.9444
100003.9225
100003.9036
100003.8846
100003.8664
100003.8502
100003.8374
100003.8292
100003.8267
100003.8307
100003.84
100003.8551
100003.8749
100003.8969
100003.9167
100003.9285
100003.9361
100003.9437
100003.9501
100003.9642
100003.9717
100004.0508
100003.9252
100003.922
100003.9588
100003.9374
100003.924
100003.9035
100003.8868
100003.8698
100003.8525
100003.8361
100003.823
100003.815
100003.8139
100003.8199
100003.8337
100003.8562
100003.8861
100003.9199
100003.9509
100003.962
100003.968
100003.9767
100003.9823
100004.0103
100004.009
100004.2341
100003.9336
100003.9726
100003.9435
100003.9192
100003.9065
100003.888
100003.8736
100003.8583
100003.8417
100003.8249
100003.8112
100003.8033
100003.8031
100003.8115
100003.8307
100003.8621
100003.9052
100003.9561
100004.0069
100004.008
100004.007
100004.0159
100004.0177
100004.0744
100004.0884
100004.8326
100003.9514
100004.0544
100003.9303
100003.9048
100003.8934
100003.8769
100003.8641
100003.8501
100003.8339
100003.8167
100003.8022
100003.7941
100003.7941
100003.804
100003.8276
100003.8675
100003.9252
100003.9989
100004.0913
100004.0543
100004.0368
100004.0378
100004.0069
100004.0132
100003.999
100004.1556
100003.9404
100003.9709
100003.9199
100003.8952
100003.885
100003.8698
100003.8579
100003.8444
100003.8284
100003.8109
100003.7958
100003.7867
100003.7857
100003.7949
100003.8192
100003.8631
100003.9327
100004.0371
100004.236
100004.0757
100004.0248
100003.9989
100003.9703
100003.9581
100003.955
100004.0084
100003.9173
100003.905
100003.9134
100003.8907
100003.8811
100003.8661
100003.8542
100003.8406
100003.8246
100003.8071
100003.7913
100003.7805
100003.777
100003.7823
100003.8
100003.8327
100003.8818
100003.9461
100004.0231
100004.0164
100003.9701
100003.9556
100003.9331
100003.9229
100003.92
100003.9365
100003.8963
100003.8804
100003.912
100003.8917
100003.8816
100003.866
100003.8534
100003.8389
100003.8226
100003.8052
100003.7886
100003.7757
100003.769
100003.7691
100003.7778
100003.797
100003.8263
100003.8634
100003.9006
100003.9039
100003.9012
100003.9
100003.8935
100003.8885
100003.8853
100003.8849
100003.8728
100003.8638
100003.9159
100003.8982
100003.8869
100003.87
100003.856
100003.8399
100003.8228
100003.8052
100003.7883
100003.7739
100003.764
100003.7602
100003.763
100003.7739
100003.7932
100003.8192
100003.8461
100003.859
100003.8633
100003.8669
100003.8664
100003.8649
100003.8636
100003.8626
100003.8584
100003.8548
100003.9229
100003.9077
100003.8954
100003.8775
100003.8611
100003.8426
100003.8244
100003.8062
100003.7895
100003.7743
100003.7622
100003.7548
100003.7532
100003.7575
100003.7683
100003.784
100003.8012
100003.8116
100003.8298
100003.8396
100003.8445
100003.8467
100003.8478
100003.8483
100003.8482
100003.8482
100003.9279
100003.9151
100003.9028
100003.8831
100003.8641
100003.8432
100003.8241
100003.8054
100003.7902
100003.7751
100003.7617
100003.7515
100003.7458
100003.7449
100003.7486
100003.7553
100003.7668
100003.7685
100003.7991
100003.814
100003.826
100003.8327
100003.8367
100003.8394
100003.8416
100003.8437
100003.9303
100003.9181
100003.9055
100003.8844
100003.8619
100003.8359
100003.8161
100003.7975
100003.7878
100003.7742
100003.761
100003.7486
100003.7387
100003.7313
100003.7231
100003.7087
100003.6962
100003.5027
100003.7389
100003.7754
100003.8072
100003.8214
100003.8291
100003.8343
100003.8385
100003.8422
100003.9354
100003.9209
100003.9068
100003.8812
100003.8503
100003.8079
100003.7856
100003.7715
100003.7779
100003.7679
100003.7588
100003.7461
100003.7334
100003.7208
100003.7047
100003.6754
100003.678
100003.5195
100003.7325
100003.7542
100003.7938
100003.8135
100003.8251
100003.8337
100003.8404
100003.8453
100003.9458
100003.9278
100003.9072
100003.8665
100003.8142
100003.7204
100003.6883
100003.7082
100003.7528
100003.7482
100003.752
100003.7409
100003.7228
100003.6963
100003.6458
100003.4164
100003.5283
100001.2059
100003.5582
100003.552
100003.7519
100003.7982
100003.8219
100003.838
100003.8496
100003.8552
100003.9591
100003.9364
100003.9015
100003.82
100003.6971
100003.4528
100003.4191
100003.5811
100003.697
100003.7118
100003.7448
100003.74
100003.7238
100003.6944
100003.6387
100003.5154
100003.5264
100003.1558
100003.6107
100003.6813
100003.7713
100003.8086
100003.8286
100003.8537
100003.8698
100003.8689
100003.9706
100003.9439
100003.8874
100003.7048
100003.3418
100002.6611
100002.8646
100003.444
100003.6086
100003.6705
100003.739
100003.7397
100003.7344
100003.7187
100003.6935
100003.655
100003.6494
100003.5077
100003.6994
100003.7417
100003.7892
100003.817
100003.8325
100003.8898
100003.9274
100003.9223
100003.9748
100003.9509
100003.8889
100003.5492
100002.6205
99998.72711
100001.2779
100002.9962
100003.4843
100003.6186
100003.7408
100003.7433
100003.749
100003.7401
100003.7245
100003.7042
100003.6913
100003.6641
100003.7398
100003.7762
100003.8003
100003.8116
100003.7136
100003.8858
100003.8794
100003.8929
100003.9597
100003.9358
100003.8955
100003.7494
100003.4385
100003.0987
100002.8719
100003.451
100003.6053
100003.688
100003.7599
100003.7606
100003.7625
100003.7556
100003.7466
100003.7394
100003.7373
100003.74
100003.7654
100003.7874
100003.8072
100003.8564
100003.773
100004.2162
100003.9088
100003.9201
100003.9337
100003.9088
100003.8807
100003.8148
100003.7048
100003.4219
100003.3325
100003.5948
100003.7149
100003.7339
100003.7762
100003.779
100003.7781
100003.7728
100003.766
100003.761
100003.7606
100003.7652
100003.7744
100003.7679
100003.6742
100003.7305
100002.1985
100003.8086
100003.7505
100003.8538
100003.9163
100003.8978
100003.8835
100003.859
100003.8299
100003.7591
100003.7249
100003.7415
100003.7987
100003.7845
100003.7995
100003.7959
100003.7897
100003.782
100003.7743
100003.7694
100003.7702
100003.7774
100003.7894
100003.802
100003.8117
100003.8417
100003.7856
100003.9491
100003.9963
100003.9027
100003.8857
100003.8735
100003.8553
100003.8364
100003.8058
100003.7914
100003.7925
100003.8135
100003.8092
100003.8099
100003.8049
100003.7976
100003.7894
100003.7821
100003.7782
100003.7808
100003.7907
100003.8008
100003.8133
100003.8212
100003.8325
100003.7663
100003.9031
100003.8976
100003.8961
100003.8807
100003.872
100003.8616
100003.8534
100003.842
100003.8363
100003.8277
100003.8358
100003.8298
100003.8232
100003.8148
100003.8055
100003.7964
100003.7891
100003.7865
100003.7935
100003.811
100003.8165
100003.8322
100003.8437
100003.8596
100003.8716
100003.9214
100003.9564
100003.8955
100003.8816
100003.8747
100003.8682
100003.8594
100003.8494
100003.8412
100003.8383
100003.8432
100003.841
100003.834
100003.8246
100003.8144
100003.8045
100003.7968
100003.7943
100003.7998
100003.819
100003.8224
100003.8359
100003.8426
100003.8801
100003.8942
100003.9536
100003.9358
100003.9
100003.8882
100003.8838
100003.8794
100003.8713
100003.8588
100003.85
100003.847
100003.8513
100003.851
100003.8449
100003.8358
100003.8256
100003.8165
100003.812
100003.8177
100003.8472
100004.0513
100003.858
100003.8377
100003.7523
100003.8865
100003.927
100003.9438
100003.9501
100003.9585
100003.9069
100003.898
100003.8968
100003.8939
100003.8829
100003.8693
100003.8577
100003.8563
100003.8617
100003.8622
100003.8567
100003.8479
100003.8368
100003.825
100003.8155
100003.821
100003.8323
100003.854
100003.854
100003.8635
100003.8781
100003.909
100003.9374
100003.9547
100003.9478
100003.9689
100004.0506
100004.0173
100004
100003.98
100003.9637
100003.9496
100003.9381
100003.9296
100003.924
100003.9214
100003.9215
100003.9241
100003.9289
100003.9354
100003.943
100003.9508
100003.958
100003.9638
100003.9678
100003.97
100003.9705
100003.9695
100003.9671
100003.963
100003.9572
100003.9497
100004.0331
100004.0041
100003.9879
100003.9682
100003.9506
100003.9345
100003.9206
100003.9096
100003.9016
100003.8968
100003.895
100003.896
100003.8992
100003.9039
100003.9094
100003.915
100003.9204
100003.9252
100003.9291
100003.9318
100003.933
100003.9328
100003.9309
100003.9272
100003.9209
100003.9131
100004.0099
100003.9899
100003.9765
100003.9579
100003.9398
100003.9224
100003.907
100003.8942
100003.8844
100003.8777
100003.8742
100003.8737
100003.8756
100003.8795
100003.8846
100003.8903
100003.8958
100003.9008
100003.9048
100003.9077
100003.9094
100003.9098
100003.9088
100003.9058
100003.8976
100003.8878
100003.9893
100003.9743
100003.962
100003.9434
100003.9247
100003.9063
100003.8898
100003.8757
100003.8646
100003.8568
100003.8523
100003.851
100003.8526
100003.8565
100003.8621
100003.8686
100003.8749
100003.8803
100003.8847
100003.888
100003.8903
100003.8917
100003.8919
100003.8915
100003.8772
100003.8641
100003.9737
100003.9605
100003.948
100003.9283
100003.909
100003.8902
100003.873
100003.8582
100003.8463
100003.8377
100003.8327
100003.8312
100003.8333
100003.8386
100003.8462
100003.855
100003.8634
100003.87
100003.8749
100003.8788
100003.8812
100003.8841
100003.8866
100003.8986
100003.8646
100003.8482
100003.9584
100003.9439
100003.931
100003.9105
100003.8916
100003.8732
100003.8562
100003.8412
100003.8289