/*--------------------------------*- C++ -*----------------------------------*\
  =========                 |
  \\      /  F ield         | OpenFOAM: The Open Source CFD Toolbox
   \\    /   O peration     | Website:  https://openfoam.org
    \\  /    A nd           | Version:  8
     \\/     M anipulation  |
\*---------------------------------------------------------------------------*/
FoamFile
{
    version     2.0;
    format      ascii;
    class       surfaceScalarField;
    location    "1.5";
    object      phi;
}
// * * * * * * * * * * * * * * * * * * * * * * * * * * * * * * * * * * * * * //

dimensions      [1 0 -1 0 0 0 0];

internalField   nonuniform List<scalar> 
197783
(
-1.916430195e-05
6.000436429e-06
1.316362454e-05
-3.106967419e-05
-2.116917161e-06
1.402204695e-05
-3.95165318e-05
-6.037995976e-06
1.448460752e-05
-4.622279428e-05
-7.990301905e-06
1.469631283e-05
-5.162883077e-05
-9.398485591e-06
1.480426372e-05
-5.57831292e-05
-1.068897526e-05
1.48430073e-05
-5.866958056e-05
-1.190738544e-05
1.47935611e-05
-6.031082256e-05
-1.299534565e-05
1.463630128e-05
-6.07654594e-05
-1.391050833e-05
1.436484677e-05
-6.01088161e-05
-1.464723346e-05
1.399027852e-05
-5.841216322e-05
-1.524386882e-05
1.354689024e-05
-5.573941017e-05
-1.578043958e-05
1.310734664e-05
-5.218949764e-05
-1.636517108e-05
1.281490532e-05
-4.786745687e-05
-1.710659075e-05
1.278418553e-05
-4.293577721e-05
-1.804854075e-05
1.311648885e-05
-3.762787545e-05
-1.906469228e-05
1.37564153e-05
-3.22343713e-05
-1.979575385e-05
1.440187761e-05
-2.708393699e-05
-1.980681568e-05
1.465601912e-05
-2.247776727e-05
-1.901129363e-05
1.440477811e-05
-1.856054333e-05
-1.777346632e-05
1.385591817e-05
-1.578588053e-05
-1.593817972e-05
1.316321781e-05
-1.403638758e-05
-1.421801905e-05
1.246825383e-05
-1.290748245e-05
-1.303148217e-05
1.190233184e-05
-1.193777343e-05
-1.240931597e-05
1.143938787e-05
-1.035240668e-05
-1.273525258e-05
1.114969064e-05
-1.363627211e-05
1.17873327e-05
-1.374485514e-05
6.560592554e-06
1.318446441e-05
-2.414649589e-05
-5.967193858e-06
1.425168139e-05
-3.29945689e-05
-1.13830535e-05
1.419289079e-05
-4.081416703e-05
-1.391164512e-05
1.374069625e-05
-4.746969945e-05
-1.593379868e-05
1.319059392e-05
-5.278142513e-05
-1.793687589e-05
1.255936672e-05
-5.670235962e-05
-1.987140552e-05
1.188468507e-05
-5.927323177e-05
-2.165143129e-05
1.122667633e-05
-6.05566093e-05
-2.327436592e-05
1.064693983e-05
-6.059483537e-05
-2.479598871e-05
1.018667075e-05
-5.939787477e-05
-2.630416987e-05
9.863013671e-06
-5.697626979e-05
-2.788632364e-05
9.683936036e-06
-5.341532557e-05
-2.959117872e-05
9.664705112e-06
-4.891815765e-05
-3.140167191e-05
9.797541875e-06
-4.385726012e-05
-3.321321407e-05
1.010339489e-05
-3.869329999e-05
-3.479585031e-05
1.056681239e-05
-3.377866433e-05
-3.582275815e-05
1.111198509e-05
-2.91490322e-05
-3.603112715e-05
1.159430571e-05
-2.463871474e-05
-3.538971363e-05
1.18677468e-05
-2.056034336e-05
-3.380707785e-05
1.195490795e-05
-1.759961945e-05
-3.082419679e-05
1.192498775e-05
-1.569300814e-05
-2.793306034e-05
1.180815332e-05
-1.427737089e-05
-2.616283118e-05
1.171546435e-05
-1.332101146e-05
-2.508943179e-05
1.172353697e-05
-1.278265453e-05
-2.531254059e-05
1.203873776e-05
-2.698302693e-05
1.329520752e-05
-9.801251058e-06
2.206388549e-06
1.415523188e-05
-1.914050271e-05
-1.163355527e-05
1.50053889e-05
-2.841550637e-05
-1.635518394e-05
1.424690668e-05
-3.719489414e-05
-1.83317753e-05
1.319928569e-05
-4.48278234e-05
-2.040169331e-05
1.21005855e-05
-5.093224095e-05
-2.275723495e-05
1.092453012e-05
-5.545077438e-05
-2.512115856e-05
9.76802924e-06
-5.849189345e-05
-2.737446043e-05
8.763877492e-06
-6.019439418e-05
-2.958306141e-05
8.010909395e-06
-6.065449063e-05
-3.187564542e-05
7.539448065e-06
-5.990827358e-05
-3.437290052e-05
7.322188635e-06
-5.794265222e-05
-3.711240346e-05
7.260112975e-06
-5.4800731e-05
-4.002332286e-05
7.289857487e-06
-5.06450501e-05
-4.293418165e-05
7.376445518e-06
-4.577587668e-05
-4.561412453e-05
7.531339618e-06
-4.056569755e-05
-4.781010369e-05
7.803668648e-06
-3.530688629e-05
-4.930228089e-05
8.220306015e-06
-3.007543691e-05
-4.996867952e-05
8.705707823e-06
-2.487629915e-05
-4.968566962e-05
9.096443196e-06
-2.017444622e-05
-4.786552396e-05
9.356244945e-06
-1.70032119e-05
-4.371323238e-05
9.717482967e-06
-1.54972298e-05
-3.944412902e-05
1.000480035e-05
-1.459763972e-05
-3.732757158e-05
1.026489789e-05
-1.444648242e-05
-3.607842266e-05
1.083761361e-05
-1.517444059e-05
-3.656221874e-05
1.197744823e-05
-3.924952984e-05
1.372746076e-05
-6.911406144e-06
-7.056553277e-06
1.61741415e-05
-1.653206678e-05
-1.793968891e-05
1.59265886e-05
-2.622010793e-05
-2.092211756e-05
1.425476618e-05
-3.555259182e-05
-2.181150345e-05
1.28119987e-05
-4.381131407e-05
-2.34992015e-05
1.135601104e-05
-5.049587061e-05
-2.583600397e-05
9.763097734e-06
-5.552330777e-05
-2.831600932e-05
8.222048278e-06
-5.905292598e-05
-3.080150396e-05
6.956406605e-06
-6.127843947e-05
-3.344046677e-05
6.082644711e-06
-6.230494323e-05
-3.642207872e-05
5.572640714e-06
-6.210520795e-05
-3.984677002e-05
5.273813077e-06
-6.060479677e-05
-4.366641371e-05
5.053251424e-06
-5.77897375e-05
-4.767324378e-05
4.834487073e-06
-5.379117936e-05
-5.156978329e-05
4.63664338e-06
-4.887670935e-05
-5.50880113e-05
4.558995175e-06
-4.336799191e-05
-5.802204034e-05
4.702783685e-06
-3.750705954e-05
-6.022070537e-05
5.057053971e-06
-3.138145297e-05
-6.15372204e-05
5.442507056e-06
-2.509920672e-05
-6.16358854e-05
5.667565479e-06
-1.929303225e-05
-5.963426133e-05
5.962189874e-06
-1.559276756e-05
-5.453126897e-05
7.117433963e-06
-1.467056262e-05
-4.858536216e-05
8.218726575e-06
-1.47130977e-05
-4.610817544e-05
8.822877717e-06
-1.581170598e-05
-4.474266206e-05
9.762625526e-06
-1.820655009e-05
-4.567653426e-05
1.150897829e-05
-4.946347776e-05
1.356926249e-05
-7.280791911e-06
-1.84617557e-05
1.868581345e-05
-1.702222333e-05
-2.39311814e-05
1.57327438e-05
-2.634488956e-05
-2.505093603e-05
1.345130046e-05
-3.544605468e-05
-2.492453384e-05
1.221400603e-05
-4.386081223e-05
-2.598231157e-05
1.089767221e-05
-5.097581668e-05
-2.793038201e-05
9.20917851e-06
-5.655776046e-05
-3.022151501e-05
7.487232759e-06
-6.072825134e-05
-3.274025328e-05
6.109006149e-06
-6.366727388e-05
-3.570477248e-05
5.20307229e-06
-6.539668395e-05
-3.929287134e-05
4.599920412e-06
-6.578513186e-05
-4.351957127e-05
4.060936298e-06
-6.466389045e-05
-4.819115076e-05
3.403148373e-06
-6.198786776e-05
-5.297016603e-05
2.620515213e-06
-5.793133344e-05
-5.749241962e-05
1.865680474e-06
-5.27778469e-05
-6.158821649e-05
1.346264152e-06
-4.682348531e-05
-6.512946087e-05
1.1525816e-06
-4.024709128e-05
-6.795901167e-05
1.161427622e-06
-3.308902371e-05
-6.979212245e-05
1.096360698e-06
-2.54901932e-05
-7.011092023e-05
8.757571551e-07
-1.822300041e-05
-6.809333868e-05
1.191474403e-06
-1.351852572e-05
-6.277855628e-05
3.542447404e-06
-1.314339443e-05
-5.552050489e-05
6.559689484e-06
-1.458090427e-05
-5.256092417e-05
7.889985059e-06
-1.742375646e-05
-5.099369208e-05
9.093654831e-06
-2.212276817e-05
-5.226076768e-05
1.128307235e-05
-5.690620695e-05
1.327388017e-05
-1.041260863e-05
-2.757737856e-05
1.952808282e-05
-1.95370974e-05
-2.873912827e-05
1.393228339e-05
-2.761015538e-05
-2.854162423e-05
1.156358852e-05
-3.576380082e-05
-2.782264347e-05
1.105159231e-05
-4.401955899e-05
-2.819049543e-05
1.046377435e-05
-5.163780814e-05
-2.944775916e-05
9.135450881e-06
-5.803975783e-05
-3.128786851e-05
7.468114943e-06
-6.315362174e-05
-3.367765477e-05
6.051058608e-06
-6.702517082e-05
-3.683279719e-05
4.999342668e-06
-6.954324028e-05
-4.084528405e-05
4.070220395e-06
-7.044365138e-05
-4.556197423e-05
2.942514392e-06
-6.951893029e-05
-5.061484055e-05
1.498623433e-06
-6.676290401e-05
-5.561652131e-05
-1.100684646e-07
-6.247380285e-05
-6.034239199e-05
-1.439579913e-06
-5.697521202e-05
-6.465095766e-05
-2.436349725e-06
-5.053474893e-05
-6.845750791e-05
-3.11295184e-06
-4.323492356e-05
-7.156299492e-05
-3.696392649e-06
-3.502985453e-05
-7.357290064e-05
-4.424831393e-06
-2.604465379e-05
-7.395543903e-05
-5.141191562e-06
-1.712009948e-05
-7.217861504e-05
-4.839741683e-06
-1.092584838e-05
-6.734301877e-05
-1.63019188e-06
-1.069237472e-05
-5.989788023e-05
4.143555606e-06
-1.401732524e-05
-5.645595914e-05
7.219699207e-06
-1.914895643e-05
-5.464008621e-05
8.777788292e-06
-2.682258928e-05
-5.581112174e-05
1.122382719e-05
-6.062576398e-05
1.223998539e-05
-1.345262933e-05
-3.244025637e-05
1.831538851e-05
-2.178098259e-05
-3.164775244e-05
1.123685166e-05
-2.839948392e-05
-3.093671599e-05
9.013462631e-06
-3.537202769e-05
-3.01185449e-05
9.268310946e-06
-4.343973788e-05
-2.995645583e-05
9.833533915e-06
-5.184585168e-05
-3.043369359e-05
9.391906433e-06
-5.948726713e-05
-3.168535106e-05
8.038744799e-06
-6.587300368e-05
-3.381165756e-05
6.519567428e-06
-7.08223206e-05
-3.694660495e-05
5.062926399e-06
-7.40616324e-05
-4.102715478e-05
3.42094835e-06
-7.524243274e-05
-4.572851232e-05
1.347056425e-06
-7.42562913e-05
-5.059960707e-05
-1.001717747e-06
-7.132255122e-05
-5.53400795e-05
-3.210595867e-06
-6.679162801e-05
-5.978195641e-05
-5.09184713e-06
-6.099144411e-05
-6.386407547e-05
-6.58762359e-06
-5.410704236e-05
-6.749944676e-05
-7.843073292e-06
-4.61059284e-05
-7.045224009e-05
-9.112504119e-06
-3.686199338e-05
-7.231494283e-05
-1.050251775e-05
-2.651072047e-05
-7.268676677e-05
-1.162053144e-05
-1.603454582e-05
-7.132028569e-05
-1.13350322e-05
-8.090831892e-06
-6.750500173e-05
-7.782182306e-06
-7.360094319e-06
-6.085501897e-05
2.260285777e-07
-1.287745237e-05
-5.708152416e-05
6.142632959e-06
-2.05036859e-05
-5.517387538e-05
8.159766035e-06
-3.138250503e-05
-5.567885632e-05
1.074641758e-05
-5.99521089e-05
1.007541101e-05
-1.516956204e-05
-3.355370361e-05
1.628291935e-05
-2.276326718e-05
-3.258322147e-05
8.529076298e-06
-2.80334099e-05
-3.188076542e-05
6.214091828e-06
-3.383850842e-05
-3.124520321e-05
6.931654609e-06
-4.176483771e-05
-3.079032157e-05
8.760093698e-06
-5.119502011e-05
-3.060782126e-05
9.604208291e-06
-6.041226156e-05
-3.127966811e-05
8.811448734e-06
-6.826489943e-05
-3.304061127e-05
7.081463883e-06
-7.427621823e-05
-3.58756906e-05
4.940248087e-06
-7.804410822e-05
-3.957187282e-05
2.312409012e-06
-7.929238084e-05
-4.372437302e-05
-7.561259052e-07
-7.820956366e-05
-4.793362353e-05
-3.749137811e-06
-7.51474425e-05
-5.194900598e-05
-6.453621964e-06
-7.048177319e-05
-5.568622456e-05
-8.761924896e-06
-6.448539239e-05
-5.912307246e-05
-1.073800049e-05
-5.722650236e-05
-6.218103325e-05
-1.257799459e-05
-4.855285001e-05
-6.464242838e-05
-1.448419219e-05
-3.833986717e-05
-6.615148259e-05
-1.637715519e-05
-2.685006018e-05
-6.647037961e-05
-1.770685476e-05
-1.516980733e-05
-6.558034399e-05
-1.742078193e-05
-5.673946864e-06
-6.307251047e-05
-1.39288486e-05
-4.01929058e-06
-5.772200217e-05
-4.788074013e-06
-1.119700107e-05
-5.379851444e-05
3.894419584e-06
-2.06899482e-05
-5.185015992e-05
6.16892597e-06
-3.432868474e-05
-5.155133082e-05
9.511115921e-06
-5.495545746e-05
7.093688402e-06
-1.576963682e-05
-3.220400932e-05
1.441988562e-05
-2.274289883e-05
-3.178746083e-05
6.177437105e-06
-2.687247577e-05
-3.117666707e-05
3.425415052e-06
-3.158836671e-05
-3.071465065e-05
4.185275683e-06
-3.927677616e-05
-3.014841478e-05
7.046444654e-06
-4.964951607e-05
-2.954514343e-05
9.310009574e-06
-6.040103819e-05
-2.97565431e-05
9.228341549e-06
-6.962882953e-05
-3.11075058e-05
7.294613731e-06
-7.651959419e-05
-3.339880437e-05
4.413774911e-06
-8.060376101e-05
-3.633790369e-05
8.500440267e-07
-8.191831572e-05
-3.954991713e-05
-2.860126578e-06
-8.08303739e-05
-4.271512975e-05
-6.306752684e-06
-7.778494265e-05
-4.56479699e-05
-9.346891856e-06
-7.313545856e-05
-4.832493885e-05
-1.201131288e-05
-6.707486479e-05
-5.075423924e-05
-1.443008923e-05
-5.95537021e-05
-5.2903586e-05
-1.679937224e-05
-5.031959471e-05
-5.464028013e-05
-1.923707011e-05
-3.938246743e-05
-5.567609821e-05
-2.141329542e-05
-2.718839553e-05
-5.593792703e-05
-2.272723779e-05
-1.481665011e-05
-5.558569253e-05
-2.236701933e-05
-4.619005738e-06
-5.437269079e-05
-1.88979837e-05
-1.736249026e-06
-5.073250545e-05
-9.872681888e-06
-9.296805099e-06
-4.644011135e-05
2.018735001e-07
-1.935196908e-05
-4.326393537e-05
1.468501237e-06
-3.453558055e-05
-4.389888589e-05
7.531109029e-06
-4.668872452e-05
4.135487222e-06
-1.57293558e-05
-2.953434582e-05
1.30596783e-05
-2.217470797e-05
-2.971447075e-05
4.372342583e-06
-2.547753781e-05
-2.896533308e-05
1.091481319e-06
-2.936911224e-05
-2.849378535e-05
1.670699523e-06
-3.668078417e-05
-2.791599884e-05
5.07925556e-06
-4.749138347e-05
-2.713923807e-05
8.404705286e-06
-5.923412312e-05
-2.705957333e-05
9.045783642e-06
-6.941427151e-05
-2.799370674e-05
7.066348151e-06
-7.691060471e-05
-2.958816082e-05
3.685654917e-06
-8.124913166e-05
-3.153756124e-05
-4.619062275e-07
-8.270221084e-05
-3.358681453e-05
-4.510193966e-06
-8.176570806e-05
-3.546728378e-05
-8.184620027e-06
-7.889022849e-05
-3.708618776e-05
-1.143765323e-05
-7.439317482e-05
-3.845599308e-05
-1.436652775e-05
-6.840728945e-05
-3.9612876e-05
-1.712792025e-05
-6.079934629e-05
-4.060189506e-05
-1.991043329e-05
-5.121471123e-05
-4.144563031e-05
-2.278015679e-05
-3.997204522e-05
-4.197581355e-05
-2.494376439e-05
-2.770951265e-05
-4.225721688e-05
-2.594396215e-05
-1.529730393e-05
-4.261828969e-05
-2.538021889e-05
-5.073012705e-06
-4.292521668e-05
-2.167224925e-05
-1.288220029e-06
-4.157612926e-05
-1.294153291e-05
-7.729081671e-06
-3.740370793e-05
-2.595756888e-06
-1.812870686e-05
-3.408644045e-05
1.221965094e-06
-3.241904672e-05
-3.508556118e-05
5.477004432e-06
-3.728096083e-05
2.466340526e-06
-1.516797291e-05
-2.646480572e-05
1.209847911e-05
-2.114727897e-05
-2.699743661e-05
3.262315883e-06
-2.41073815e-05
-2.582474428e-05
-1.804321349e-07
-2.772676967e-05
-2.514308484e-05
2.687529001e-07
-3.465489221e-05
-2.473250808e-05
3.744712884e-06
-4.513311729e-05
-2.409714211e-05
7.436228272e-06
-5.688058803e-05
-2.387239121e-05
8.560394992e-06
-6.730600016e-05
-2.433092724e-05
6.762725673e-06
-7.50784666e-05
-2.50923048e-05
3.276668477e-06
-7.970441933e-05
-2.589271022e-05
-1.018899469e-06
-8.146582967e-05
-2.662405771e-05
-5.201431255e-06
-8.084772548e-05
-2.71262707e-05
-8.959306967e-06
-7.826260608e-05
-2.737084378e-05
-1.230077874e-05
-7.400260006e-05
-2.737661036e-05
-1.533984846e-05
-6.819797176e-05
-2.716780954e-05
-1.825030948e-05
-6.071820345e-05
-2.682376673e-05
-2.125865731e-05
-5.109712135e-05
-2.655156149e-05
-2.451600726e-05
-4.010329318e-05
-2.672115278e-05
-2.624925371e-05
-2.858907767e-05
-2.72534594e-05
-2.651862897e-05
-1.706840042e-05
-2.861355047e-05
-2.552595169e-05
-7.666939395e-06
-3.082050904e-05
-2.150658401e-05
-3.957311884e-06
-3.228691598e-05
-1.299913318e-05
-8.555214141e-06
-2.946698956e-05
-3.338980019e-06
-1.763885e-05
-2.739449195e-05
2.391595979e-06
-2.934030064e-05
-2.756241591e-05
4.178327211e-06
-2.870685082e-05
1.818076989e-06
-1.395254777e-05
-2.377113087e-05
1.125900743e-05
-1.948030392e-05
-2.441357606e-05
2.944032237e-06
-2.2735645e-05
-2.263853884e-05
6.928949332e-08
-2.691326407e-05
-2.174242764e-05
7.77137454e-07
-3.363216598e-05
-2.193690585e-05
3.923500557e-06
-4.292672067e-05
-2.191418079e-05
7.11181867e-06
-5.339666141e-05
-2.163930898e-05
8.237094139e-06
-6.315490917e-05
-2.139866224e-05
6.826205581e-06
-7.090661085e-05
-2.10433404e-05
3.702923447e-06
-7.590828225e-05
-2.047796952e-05
-4.129448532e-07
-7.823339864e-05
-1.978008992e-05
-4.518812978e-06
-7.815937734e-05
-1.893143028e-05
-8.268929377e-06
-7.599774003e-05
-1.796717489e-05
-1.156549723e-05
-7.200805637e-05
-1.689204194e-05
-1.447457927e-05
-6.636075564e-05
-1.567301965e-05
-1.714255592e-05
-5.906501203e-05
-1.43334041e-05
-1.978668937e-05
-4.999927226e-05
-1.308078204e-05
-2.253716447e-05
-3.972552841e-05
-1.243111687e-05
-2.456438632e-05
-3.000840025e-05
-1.295420562e-05
-2.401691387e-05
-2.05931984e-05
-1.529462723e-05
-2.273455935e-05
-1.315003924e-05
-1.981265192e-05
-1.845134248e-05
-1.03400607e-05
-2.418476936e-05
-1.091233295e-05
-1.243006992e-05
-2.332602547e-05
-4.051049089e-06
-1.760228169e-05
-2.201820387e-05
-2.04087843e-07
-2.55831167e-05
-2.113652897e-05
1.555015004e-06
-2.089687704e-05
2.353170821e-07
-1.190726764e-05
-2.25060376e-05
1.064243787e-05
-1.688206973e-05
-2.302811127e-05
3.589609847e-06
-2.097637661e-05
-2.067643413e-05
2.132504266e-06
-2.647259638e-05
-1.983025123e-05
3.584381039e-06
-3.324597868e-05
-2.129031647e-05
6.12717061e-06
-4.079173782e-05
-2.235832637e-05
7.990314507e-06
-4.897413457e-05
-2.198432431e-05
8.52783313e-06
-5.719110383e-05
-2.072113504e-05
7.539847511e-06
-6.451182321e-05
-1.888904579e-05
5.166787908e-06
-6.998658648e-05
-1.669748994e-05
1.694578669e-06
-7.318634521e-05
-1.436055885e-05
-2.219569626e-06
-7.410431929e-05
-1.209340823e-05
-5.919956937e-06
-7.280701809e-05
-1.015266632e-05
-9.111844209e-06
-6.943797002e-05
-8.586258822e-06
-1.167499898e-05
-6.41865659e-05
-7.294894464e-06
-1.362982911e-05
-5.726587786e-05
-6.169613422e-06
-1.5084892e-05
-4.898705566e-05
-5.220028844e-06
-1.614005665e-05
-4.008243103e-05
-4.665667733e-06
-1.667054891e-05
-3.175163132e-05
-4.909505819e-06
-1.637591619e-05
-2.421465594e-05
-7.578179355e-06
-1.525375448e-05
-1.865372865e-05
-1.319633063e-05
-1.217747899e-05
-1.632309416e-05
-1.88600798e-05
-7.655447424e-06
-1.565187097e-05
-1.933311104e-05
-4.66416421e-06
-1.627991279e-05
-1.858878739e-05
-2.801324304e-06
-1.949381149e-05
-1.674123128e-05
-1.181285004e-06
-1.47135275e-05
-1.174497083e-06
-8.86980542e-06
-2.515152437e-05
1.151574297e-05
-1.321229355e-05
-2.442790799e-05
5.742754637e-06
-1.791644774e-05
-2.192141544e-05
5.949654146e-06
-2.464498904e-05
-2.168704157e-05
8.585910304e-06
-3.177964405e-05
-2.438960691e-05
1.023458424e-05
-3.805583436e-05
-2.62960227e-05
1.021456613e-05
-4.437748941e-05
-2.536664211e-05
9.704662047e-06
-5.120564206e-05
-2.273681236e-05
8.84449379e-06
-5.813256347e-05
-1.925140708e-05
7.289888108e-06
-6.420811235e-05
-1.556756095e-05
4.946139186e-06
-6.860950796e-05
-1.197150826e-05
2.01275612e-06
-7.091351892e-05
-8.6760336e-06
-1.113077892e-06
-7.11172414e-05
-6.063426822e-06
-3.885368991e-06
-6.92942556e-05
-4.39923076e-06
-6.010011782e-06
-6.554831963e-05
-3.724814985e-06
-7.316162043e-06
-5.999432339e-05
-3.833545318e-06
-7.890348551e-06
-5.270483545e-05
-4.536885342e-06
-7.973017328e-06
-4.385368692e-05
-5.682526111e-06
-7.834714036e-06
-3.525777169e-05
-5.720283338e-06
-7.785512891e-06
-2.734082295e-05
-7.754702478e-06
-7.740712508e-06
-2.160427839e-05
-1.161366804e-05
-7.319382421e-06
-1.829893301e-05
-1.545716822e-05
-6.708325563e-06
-1.567253651e-05
-1.600209618e-05
-5.957384021e-06
-1.36086491e-05
-1.552646396e-05
-5.126108257e-06
-1.28382134e-05
-1.374198552e-05
-3.769522424e-06
-1.096684502e-05
-2.499001937e-06
-5.648993398e-06
-3.55120684e-05
1.601025683e-05
-1.025819511e-05
-3.027016683e-05
1.045221025e-05
-1.478919239e-05
-2.857871288e-05
1.118912547e-05
-2.1094088e-05
-2.973321119e-05
1.435199943e-05
-2.827163521e-05
-3.189041458e-05
1.467937611e-05
-3.430984916e-05
-3.307335616e-05
1.281661611e-05
-3.991742283e-05
-3.100535458e-05
1.124735691e-05
-4.609625687e-05
-2.668961126e-05
1.013265633e-05
-5.299436147e-05
-2.122618263e-05
8.873812812e-06
-5.966388288e-05
-1.603405595e-05
7.136826441e-06
-6.495033915e-05
-1.182571396e-05
5.141328153e-06
-6.825370774e-05
-8.448318603e-06
3.076163232e-06
-6.945666878e-05
-5.90869235e-06
1.048570113e-06
-6.862118903e-05
-4.552508175e-06
-6.820387421e-07
-6.589021386e-05
-4.590294418e-06
-1.865533297e-06
-6.136573687e-05
-5.84947102e-06
-2.50880315e-06
-5.495718511e-05
-8.153743446e-06
-2.792135741e-06
-4.560146187e-05
-1.20215806e-05
-3.017240903e-06
-3.801609391e-05
-9.133701554e-06
-4.172443126e-06
-3.055192886e-05
-9.940877256e-06
-5.27835809e-06
-2.467194775e-05
-1.105453709e-05
-6.43931633e-06
-2.037689607e-05
-1.249583453e-05
-7.256447755e-06
-1.653802595e-05
-1.256197607e-05
-7.278936163e-06
-1.324986991e-05
-1.199128152e-05
-6.823198706e-06
-1.072565806e-05
-1.043416758e-05
-5.831831048e-06
-7.943614733e-06
-4.523373641e-06
-6.255938388e-06
-5.139831225e-05
2.214326713e-05
-1.289471567e-05
-4.083827813e-05
1.720803289e-05
-1.81907699e-05
-3.942092124e-05
1.613953626e-05
-2.294495987e-05
-4.141555338e-05
1.643795784e-05
-2.781514555e-05
-4.20962261e-05
1.507754381e-05
-3.213527784e-05
-4.140318878e-05
1.265156391e-05
-3.58027766e-05
-3.821685361e-05
1.088058026e-05
-4.022635086e-05
-3.230958951e-05
1.004504569e-05
-4.620307506e-05
-2.475380209e-05
9.50569321e-06
-5.322290675e-05
-1.722769618e-05
8.214643588e-06
-5.954132116e-05
-1.177071267e-05
6.264385562e-06
-6.409422435e-05
-8.284521949e-06
4.389869516e-06
-6.663714325e-05
-6.181795719e-06
2.816566935e-06
-6.718013934e-05
-5.500764368e-06
1.491554864e-06
-6.574586978e-05
-6.421809005e-06
3.972394826e-07
-6.236734788e-05
-8.863456436e-06
-3.649341862e-07
-5.692552945e-05
-1.280371461e-05
-7.926422274e-07
-4.417395223e-05
-2.406750909e-05
-7.067775865e-07
-3.840288968e-05
-1.129510788e-05
-3.610578788e-06
-3.136193829e-05
-1.18733495e-05
-5.109143297e-06
-2.586844211e-05
-9.862715573e-06
-6.685661894e-06
-2.102961464e-05
-9.665898055e-06
-7.668882419e-06
-1.655463065e-05
-9.056237749e-06
-7.980674027e-06
-1.258951114e-05
-8.159362101e-06
-7.796880493e-06
-9.219711978e-06
-6.661534597e-06
-7.142204495e-06
-4.445928133e-06
-6.162044477e-06
-1.233165916e-05
-6.310151963e-05
2.403641454e-05
-2.096508781e-05
-5.247896862e-05
2.027578536e-05
-2.65428805e-05
-4.992950267e-05
1.60882336e-05
-2.986196761e-05
-5.059297962e-05
1.249857531e-05
-3.165012461e-05
-5.019440532e-05
9.888568236e-06
-3.277254193e-05
-4.838880702e-05
8.110309306e-06
-3.327019371e-05
-4.479750547e-05
7.080519049e-06
-3.515167848e-05
-3.767989844e-05
7.253842247e-06
-3.923601729e-05
-2.917624096e-05
8.50860633e-06
-4.614997115e-05
-1.937606018e-05
9.063900219e-06
-5.363157834e-05
-1.182174988e-05
7.533959481e-06
-5.948771516e-05
-7.656270423e-06
5.228922388e-06
-6.337030419e-05
-5.58958315e-06
3.291116745e-06
-6.547283674e-05
-5.255066978e-06
1.857223312e-06
-6.587461533e-05
-6.988695658e-06
9.685485287e-07
-6.429395048e-05
-1.113008778e-05
6.85065497e-07
-6.051077167e-05
-1.753037611e-05
9.416640101e-07
-3.864757875e-05
-5.008178566e-05
4.148518154e-06
-3.567211747e-05
-1.126732408e-05
-3.005300007e-06
-2.956553578e-05
-1.377564783e-05
-4.205594634e-06
-2.546627633e-05
-7.440711635e-06
-6.521880612e-06
-2.0784283e-05
-6.758828905e-06
-7.589306782e-06
-1.622751213e-05
-5.561272848e-06
-8.051719915e-06
-1.200577681e-05
-4.378564721e-06
-8.002371162e-06
-8.240822433e-06
-2.902074732e-06
-7.524176109e-06
-8.923253558e-07
-6.714365142e-06
-1.816240685e-05
-6.737269492e-05
2.243567954e-05
-2.8464279e-05
-5.961223376e-05
1.743742008e-05
-3.335011051e-05
-5.59520254e-05
1.091091684e-05
-3.482873699e-05
-5.483662442e-05
5.725079787e-06
-3.407107587e-05
-5.388636936e-05
2.937447005e-06
-3.232822268e-05
-5.204614137e-05
1.917597072e-06
-2.978948947e-05
-4.891723487e-05
1.583945442e-06
-2.989514653e-05
-4.00011277e-05
2.429488957e-06
-3.16542473e-05
-3.242124872e-05
5.006390402e-06
-3.802582992e-05
-2.153110984e-05
8.52861015e-06
-4.714350905e-05
-1.184108596e-05
9.138669255e-06
-5.538646714e-05
-6.221678448e-06
6.809681597e-06
-6.156443716e-05
-3.924109961e-06
4.513448486e-06
-6.607140861e-05
-3.854191902e-06
3.106598568e-06
-6.915674281e-05
-6.678822345e-06
2.775235631e-06
-6.985100851e-05
-1.365249358e-05
3.215101072e-06
-6.411430369e-05
-2.347305141e-05
2.018450495e-07
-3.067095613e-05
-7.209883718e-05
-1.143371535e-05
-2.795508568e-05
-1.159129971e-05
-2.39595941e-06
-2.480900471e-05
-1.601873222e-05
-9.050344352e-07
-2.26253163e-05
-4.622002871e-06
-5.003466739e-06
-1.894898415e-05
-4.296072391e-06
-6.139444728e-06
-1.501155513e-05
-2.562760489e-06
-6.935935821e-06
-1.104939836e-05
-1.242648866e-06
-7.097904586e-06
-7.197020478e-06
2.739327807e-09
-6.756982784e-06
1.853790089e-06
-6.0585328e-06
-1.979172926e-05
-6.717012999e-05
1.959186442e-05
-3.156453202e-05
-6.184754219e-05
1.401110539e-05
-3.66265897e-05
-5.717554643e-05
6.289003202e-06
-3.687975821e-05
-5.459065755e-05
1.059237881e-08
-3.380829588e-05
-5.377709267e-05
-3.176087325e-06
-2.914601665e-05
-5.306266817e-05
-3.641509664e-06
-2.369490289e-05
-5.109422014e-05
-3.270280459e-06
-2.38715436e-05
-3.79066534e-05
-1.914860734e-06
-2.356144092e-05
-3.292368566e-05
1.948550323e-07
-2.904111272e-05
-2.193443776e-05
5.885235854e-06
-3.891452446e-05
-1.218838057e-05
1.022262242e-05
-4.920309036e-05
-4.950112213e-06
9.018550682e-06
-5.761433435e-05
-1.532051635e-06
6.02031662e-06
-6.596468136e-05
2.065992514e-07
4.290172877e-06
-7.805474995e-05
6.667018355e-07
4.744367622e-06
-9.726201206e-05
-2.775541532e-08
5.580657049e-06
-9.392911004e-05
-4.499916042e-06
-2.231383166e-05
9.827453578e-06
5.907858703e-06
-0.0001817868515
7.915575223e-06
-4.37644615e-07
-9.249269394e-06
-1.719887802e-05
6.980536861e-07
8.395250446e-06
-1.830290247e-05
-5.12324981e-07
-3.007195993e-06
-1.768365005e-05
-9.839629908e-07
-3.931806418e-06
-1.424599067e-05
-1.031995169e-06
-4.968381409e-06
-1.043299663e-05
9.764005023e-08
-5.15306902e-06
-6.464783007e-06
8.330140971e-07
-4.798137499e-06
2.463775346e-06
-4.098783119e-06
-1.743161597e-05
-6.545009201e-05
1.571487748e-05
-3.00349363e-05
-6.172296844e-05
1.248260595e-05
-3.642496711e-05
-5.571054009e-05
4.930038298e-06
-3.71034532e-05
-5.118903168e-05
-2.716326487e-06
-3.27458643e-05
-5.090869093e-05
-7.217098776e-06
-2.31077476e-05
-5.504975823e-05
-7.643905215e-06
-1.46956341e-05
-5.32050961e-05
-6.295619373e-06
-1.678986482e-05
-3.216664484e-05
-3.643044649e-06
-1.601689135e-05
-3.037940103e-05
-3.314900097e-06
-2.017209542e-05
-1.974627857e-05
1.969221165e-06
-3.031202839e-05
-1.167915484e-05
9.632733438e-06
-4.398257641e-05
-3.487851304e-06
1.22100299e-05
-5.602980785e-05
8.544632055e-07
9.662071659e-06
-6.762042927e-05
4.306017573e-06
7.492095165e-06
-8.062082365e-05
8.09305577e-06
5.574335348e-06
-9.036394645e-05
1.328236845e-05
-3.567561551e-06
-7.177859083e-05
1.955078924e-05
-4.263901931e-05
-3.115639929e-06
4.958122335e-05
-0.0001123400943
1.816015575e-06
8.626548494e-06
-1.399776417e-05
-1.495975828e-05
1.188495607e-05
5.588034686e-06
-1.555307375e-05
5.673620549e-07
-4.869641779e-07
-1.582250935e-05
-3.429721412e-07
-3.716042783e-07
-1.230532452e-05
-3.500131307e-06
-1.048919691e-06
-9.455363044e-06
-1.41067399e-06
-1.34139949e-06
-5.647944865e-06
-1.955668069e-06
-1.018427493e-06
-9.161520512e-07
-3.396262878e-07
-1.195169757e-05
-6.376409853e-05
1.02694644e-05
-2.433961037e-05
-6.121198614e-05
1.188161337e-05
-3.317471242e-05
-5.382298989e-05
6.954509155e-06
-3.660027317e-05
-4.665263018e-05
-1.098929921e-06
-3.31646963e-05
-4.683900959e-05
-7.482080462e-06
-1.435909475e-05
-6.064866872e-05
-1.317568185e-05
-2.47961167e-06
-5.240684649e-05
-1.266656588e-05
-8.159674965e-06
-2.556164222e-05
-9.240572364e-07
-1.028553153e-05
-2.473341274e-05
-3.518806422e-06
-1.267614656e-05
-1.713374769e-05
-2.202696267e-07
-1.950048165e-05
-1.193196477e-05
7.079116615e-06
-3.234056239e-05
-3.875818026e-06
1.322986933e-05
-4.446343804e-05
6.575947146e-07
1.232120877e-05
-5.267231127e-05
2.657332801e-06
9.858607544e-06
-5.818267394e-05
5.091598267e-06
8.512400134e-06
-6.100399755e-05
8.725071832e-06
7.378591149e-06
-5.832671069e-05
1.419695658e-05
2.675841873e-06
-3.550063196e-05
3.231955094e-05
-5.565519103e-06
-3.356946918e-05
3.232013487e-06
3.462552393e-06
-2.890803063e-05
2.361534608e-06
4.861548872e-06
-2.50877726e-05
-6.735129534e-06
3.482138809e-06
-2.07590033e-05
-8.347795164e-06
3.676108544e-06
-1.408743714e-05
-1.487004606e-05
4.698444655e-06
-1.113488077e-05
-8.57597631e-06
4.212972401e-06
-6.918523485e-06
-1.09664169e-05
4.794639498e-06
-1.160097875e-05
5.386226349e-06
-4.749483994e-06
-6.206225796e-05
3.051567594e-06
-1.53309676e-05
-6.019170519e-05
9.566204169e-06
-2.838394665e-05
-5.0493452e-05
9.730878033e-06
-4.316906129e-05
-3.47423278e-05
2.887889522e-06
-5.667120349e-05
-1.859566556e-05
-1.470698906e-05
2.097362318e-06
-6.032775475e-06
-0.0001133859702
2.578390956e-05
-1.802940282e-05
-5.806308633e-05
8.089036511e-06
-1.340300554e-05
5.528241068e-06
-6.264082761e-06
-9.558701893e-06
-8.220607679e-07
-1.183462562e-05
-1.426203646e-05
2.700124149e-06
-1.874545744e-05
-1.234371403e-05
7.324523528e-06
-2.980228565e-05
-5.60519227e-06
1.278806965e-05
-4.224061159e-05
-1.486556335e-06
1.458405088e-05
-5.135171165e-05
-1.004316917e-06
1.27739828e-05
-5.68781493e-05
-8.036744485e-07
1.142259759e-05
-5.863782932e-05
-3.559120369e-07
1.084120032e-05
-5.538450267e-05
4.46194111e-07
1.04976447e-05
-3.924628758e-05
5.19023369e-06
1.099119925e-05
-3.634591036e-05
-7.259137423e-06
7.590780074e-06
-3.064503259e-05
-1.095062203e-05
7.611435765e-06
-2.711252445e-05
-1.760955963e-05
7.342073743e-06
-2.38729775e-05
-2.077412016e-05
9.186937557e-06
-1.269067229e-05
-3.940206949e-05
1.334974889e-05
-1.113402482e-05
-2.090144348e-05
1.076894861e-05
-6.112793047e-06
-2.618848846e-05
1.020107009e-05
-2.758440324e-05
7.179997143e-06
2.613313833e-06
-6.044877888e-05
-4.222882414e-06
-1.69612446e-06
-6.003061718e-05
4.153560803e-06
-9.902426879e-06
-5.26797488e-05
1.040142754e-05
-1.665255135e-05
-3.900195957e-05
1.102762376e-05
-1.924269579e-05
-1.969259645e-05
3.726554079e-06
-7.534612677e-06
-7.9540478e-06
-9.715848405e-06
1.691213062e-05
-7.214877527e-06
-3.523969337e-05
8.58807395e-06
-1.463361337e-05
9.560055444e-06
-4.44330127e-06
-4.325444988e-06
7.800892953e-06
-1.465688741e-05
-1.443212324e-05
1.038584502e-05
-2.501354383e-05
-1.454443735e-05
1.255952083e-05
-3.381989992e-05
-1.055644334e-05
1.375950163e-05
-4.117174636e-05
-7.805645052e-06
1.367250725e-05
-4.721443281e-05
-7.280137084e-06
1.231976219e-05
-5.138782239e-05
-7.329019758e-06
1.069970276e-05
-5.35404302e-05
-7.484824286e-06
9.282235474e-06
-5.338297638e-05
-7.754529518e-06
8.043792642e-06
-4.753864066e-05
-7.735634564e-06
7.081922521e-06
-4.479190157e-05
-1.467478685e-05
4.669253653e-06
-4.026911754e-05
-1.951492409e-05
4.041814613e-06
-3.594544701e-05
-2.731551961e-05
5.382489868e-06
-3.120971494e-05
-3.269873734e-05
7.188925401e-06