/*--------------------------------*- C++ -*----------------------------------*\
  =========                 |
  \\      /  F ield         | OpenFOAM: The Open Source CFD Toolbox
   \\    /   O peration     | Website:  https://openfoam.org
    \\  /    A nd           | Version:  8
     \\/     M anipulation  |
\*---------------------------------------------------------------------------*/
FoamFile
{
    version     2.0;
    format      ascii;
    class       volScalarField;
    location    "1.5";
    object      T;
}
// * * * * * * * * * * * * * * * * * * * * * * * * * * * * * * * * * * * * * //

dimensions      [0 0 0 1 0 0 0];

internalField   nonuniform List<scalar> 
67410
(
300.0023034
300.0023386
300.0023634
300.0023808
300.0023924
300.0024032
300.0024147
300.0024266
300.002438
300.0024482
300.0024566
300.0024635
300.0024692
300.0024743
300.0024786
300.0024801
300.0024753
300.0024611
300.0024396
300.0024172
300.0023944
300.0023757
300.0023619
300.0023545
300.0023558
300.002355
300.0023364
300.0024069
300.0024559
300.0024879
300.0025093
300.002528
300.002546
300.0025631
300.002578
300.0025901
300.0025994
300.0026063
300.0026113
300.0026146
300.0026156
300.0026125
300.0026026
300.0025841
300.0025589
300.0025308
300.0024997
300.0024726
300.0024513
300.0024334
300.002422
300.0024153
300.0023586
300.0024414
300.0025037
300.0025427
300.002569
300.0025912
300.0026112
300.0026282
300.0026416
300.0026515
300.0026585
300.0026635
300.0026669
300.0026687
300.0026681
300.0026633
300.0026526
300.002636
300.0026155
300.0025916
300.0025589
300.0025277
300.0025041
300.002479
300.0024579
300.0024535
300.0023634
300.0024567
300.0025257
300.0025658
300.002594
300.0026186
300.0026396
300.0026555
300.0026663
300.0026731
300.0026776
300.0026811
300.0026843
300.0026865
300.0026864
300.0026819
300.0026727
300.0026605
300.0026487
300.0026339
300.0026001
300.0025614
300.0025385
300.0025109
300.0024865
300.0024889
300.0023564
300.0024803
300.0025465
300.0025766
300.0025991
300.0026229
300.0026441
300.0026587
300.0026667
300.002671
300.0026747
300.0026795
300.0026855
300.0026911
300.0026939
300.0026922
300.002687
300.0026823
300.0026818
300.0026789
300.0026438
300.0025865
300.0025639
300.0025374
300.0025116
300.0025201
300.0023885
300.0025319
300.0025827
300.0025912
300.0025966
300.0026137
300.0026341
300.0026485
300.0026561
300.0026613
300.0026685
300.0026789
300.0026909
300.0027019
300.0027092
300.0027122
300.0027137
300.0027187
300.0027304
300.0027398
300.0027076
300.002619
300.0025894
300.0025665
300.0025373
300.0025526
300.0024564
300.0026005
300.0026324
300.0026167
300.0025962
300.0025982
300.0026159
300.0026325
300.0026436
300.0026546
300.0026695
300.0026878
300.0027065
300.0027224
300.0027346
300.0027441
300.0027541
300.002769
300.0027911
300.0028113
300.0027913
300.0026707
300.0026204
300.0026054
300.002568
300.0025904
300.0025237
300.0026632
300.0026833
300.0026514
300.0026045
300.0025847
300.0025973
300.0026183
300.0026367
300.0026565
300.0026799
300.0027049
300.0027278
300.0027481
300.0027662
300.0027836
300.0028028
300.0028261
300.0028554
300.002883
300.002877
300.0027438
300.0026584
300.0026622
300.002603
300.0026299
300.0025692
300.0027067
300.0027241
300.0026875
300.0026227
300.0025805
300.0025855
300.0026116
300.0026383
300.0026662
300.0026958
300.0027243
300.0027505
300.0027755
300.0028005
300.0028267
300.0028552
300.0028839
300.0029161
300.0029458
300.0029459
300.002816
300.0026977
300.0027299
300.0026312
300.0026583
300.0025913
300.0027288
300.0027486
300.0027153
300.002644
300.0025861
300.0025833
300.0026125
300.0026452
300.002678
300.0027111
300.0027416
300.0027707
300.0028002
300.0028316
300.002866
300.0029026
300.0029315
300.002961
300.0029864
300.0029798
300.0028471
300.0027066
300.0026889
300.0026287
300.0026577
300.0025968
300.0027339
300.0027566
300.0027274
300.0026582
300.0025958
300.0025873
300.0026159
300.0026506
300.0026858
300.0027206
300.0027527
300.0027836
300.0028153
300.0028496
300.002888
300.002929
300.0029517
300.0029742
300.002992
300.0029737
300.0028378
300.002701
300.0026554
300.0026201
300.0026442
300.0025954
300.0027287
300.0027475
300.0027184
300.0026565
300.0026028
300.0025933
300.0026165
300.0026474
300.0026815
300.0027174
300.0027514
300.002783
300.0028131
300.0028428
300.002873
300.0029031
300.0029248
300.0029418
300.0029518
300.0029169
300.0027919
300.0026929
300.002652
300.0026212
300.0026353
300.0026005
300.0027239
300.0027242
300.0026837
300.0026348
300.0026036
300.0025994
300.0026125
300.0026316
300.0026573
300.0026903
300.0027259
300.0027588
300.0027865
300.0028078
300.0028216
300.0028263
300.0028203
300.0028119
300.0028088
300.0027848
300.0027309
300.0026979
300.0026745
300.0026361
300.002626
300.0026243
300.0027326
300.0026979
300.0026261
300.002596
300.0025972
300.0026039
300.0026094
300.0026124
300.0026158
300.0026248
300.0026425
300.0026656
300.0026872
300.0027032
300.0027123
300.0027147
300.0027111
300.0026974
300.002696
300.0027048
300.002719
300.0027116
300.0026991
300.0026671
300.0026291
300.0026622
300.0027441
300.0026853
300.0025777
300.0025624
300.0025881
300.0026034
300.0026105
300.0026123
300.002609
300.0026014
300.0025952
300.0025964
300.0026079
300.0026274
300.0026519
300.0026813
300.0027183
300.00271
300.0027189
300.0027287
300.0027384
300.0027322
300.0027189
300.0026946
300.0026603
300.0027035
300.0027121
300.0026739
300.0026145
300.0026008
300.0026131
300.0026188
300.0026181
300.0026161
300.0026169
300.0026165
300.0026119
300.0026101
300.0026185
300.0026408
300.0026768
300.0027242
300.0028238
300.0027609
300.0027705
300.0027562
300.002753
300.0027449
300.0027334
300.0027157
300.0026915
300.0027602
300.0027
300.0027015
300.0027099
300.0027066
300.0026946
300.0026781
300.0026548
300.00263
300.0026141
300.0026188
300.0026243
300.0026281
300.002642
300.0026754
300.0027324
300.0027938
300.0030724
300.0028132
300.0028479
300.0027755
300.0027662
300.0027549
300.0027433
300.0027285
300.0027077
300.002839
300.0027823
300.0028132
300.0028463
300.0028464
300.0028182
300.0027724
300.0027198
300.0026741
300.0026188
300.002608
300.0026276
300.0026435
300.0026637
300.0027016
300.0027691
300.0028238
300.0031637
300.0028583
300.0028756
300.0027646
300.0027808
300.0027634
300.0027497
300.002736
300.0027155
300.0029462
300.0029003
300.0029537
300.003017
300.0030462
300.0030202
300.0029016
300.002792
300.0027418
300.002646
300.0025897
300.0026061
300.0026418
300.0026884
300.0027897
300.0029988
300.0029332
300.0036847
300.0030962
300.0032212
300.0027859
300.0028242
300.0027717
300.0027511
300.0027376
300.0027176
300.0030809
300.00303
300.0031059
300.0032357
300.003374
300.0034556
300.0030879
300.0028647
300.0028105
300.0026868
300.0025929
300.0025658
300.0026057
300.0026355
300.0026628
300.002663
300.0025448
300.001708
300.0027301
300.0028047
300.002732
300.0027727
300.0027643
300.0027505
300.0027448
300.0027159
300.0032289
300.0031734
300.0032743
300.0035294
300.0039366
300.0044632
300.0033372
300.00295
300.0028453
300.0027102
300.0026155
300.0025035
300.0025394
300.0025795
300.0026161
300.0026647
300.0027023
300.0028035
300.0027405
300.0027935
300.0027282
300.0027347
300.002781
300.0027435
300.002759
300.0027139
300.0033437
300.0033138
300.0034649
300.0040055
300.0054413
300.0102482
300.0034993
300.0030697
300.0028552
300.0026773
300.002596
300.0024699
300.0024737
300.0025226
300.00255
300.0025714
300.0025926
300.0026719
300.0026434
300.0026909
300.0027037
300.002724
300.0028716
300.0027206
300.0027633
300.002695
300.0033561
300.0033329
300.0033548
300.0034562
300.0036889
300.003683
300.0030822
300.0026842
300.002601
300.0025096
300.0024884
300.002466
300.0024784
300.0025071
300.0025374
300.0025711
300.0026122
300.0026705
300.0026717
300.0027061
300.0027462
300.0027363
300.0028906
300.0027622
300.0028326
300.0027234
300.0033138
300.0032901
300.0032925
300.0032791
300.0032555
300.0034398
300.0029881
300.0026349
300.002525
300.0024503
300.0025013
300.0025391
300.0025679
300.0025957
300.0026229
300.0026492
300.0026779
300.0027137
300.0027427
300.002801
300.0029239
300.0028806
300.0036291
300.0029242
300.0030333
300.0027239
300.0032658
300.0032268
300.003213
300.0031872
300.0031193
300.0030153
300.0028795
300.0026624
300.0025341
300.0024773
300.0025477
300.002606
300.0026465
300.0026724
300.0026906
300.0027068
300.0027248
300.002746
300.0027669
300.0027978
300.0028424
300.0028645
300.0029512
300.0029563
300.0030565
300.0032245
300.003176
300.0031441
300.0031132
300.0030492
300.0029267
300.0028326
300.0026949
300.0025578
300.0025157
300.002569
300.0026193
300.0026583
300.0026892
300.0027156
300.002739
300.0027606
300.002782
300.0028056
300.0028423
300.0028867
300.0029231
300.0028947
300.0029728
300.0030381
300.0031907
300.0031387
300.0030955
300.0030526
300.0029825
300.0028732
300.0027928
300.00271
300.002584
300.0025441
300.0025874
300.0026301
300.0026632
300.0026945
300.0027279
300.0027608
300.0027905
300.0028158
300.0028266
300.0028236
300.0027649
300.0026027
300.0017908
300.0026895
300.0028954
300.0031619
300.0031096
300.0030584
300.0029981
300.0029164
300.00283
300.002777
300.0027093
300.0026087
300.0025676
300.002606
300.0026445
300.0026739
300.0027061
300.0027445
300.0027825
300.0028134
300.0028315
300.002828
300.0029053
300.0029362
300.0029382
300.0028073
300.0030141
300.0029939
300.0031347
300.0030823
300.0030189
300.0029342
300.0028534
300.0028174
300.0028074
300.0027193
300.0026341
300.0025881
300.0026227
300.0026576
300.0026844
300.0027176
300.0027602
300.0028064
300.0028595
300.0029473
300.0029324
300.0029728
300.003098
300.0029893
300.0029227
300.0029894
300.002984
300.0030127
300.0031058
300.0030489
300.0029558
300.0028537
300.0028221
300.0028498
300.0028826
300.0027512
300.0026572
300.0026073
300.0026425
300.002676
300.0026981
300.0027244
300.0027595
300.0027978
300.0028375
300.0028738
300.0028898
300.0029121
300.0029355
300.0029558
300.0029869
300.0030108
300.0030199
300.0030447
300.0022758
300.0023028
300.0023223
300.0023367
300.002346
300.0023545
300.0023639
300.0023747
300.0023864
300.002398
300.002409
300.0024188
300.0024275
300.0024349
300.0024402
300.0024417
300.0024376
300.0024272
300.002413
300.0023987
300.0023855
300.0023747
300.0023665
300.0023617
300.0023604
300.0023524
300.0023044
300.0023616
300.0024051
300.0024354
300.0024563
300.0024741
300.0024917
300.0025094
300.0025266
300.0025422
300.0025554
300.002566
300.002574
300.0025798
300.002583
300.0025824
300.002576
300.0025627
300.0025438
300.002523
300.0025022
300.0024835
300.0024669
300.0024518
300.0024379
300.0024215
300.0023235
300.0023938
300.0024527
300.0024935
300.002522
300.0025462
300.0025689
300.0025904
300.0026101
300.0026271
300.002641
300.0026518
300.0026599
300.0026653
300.0026677
300.002666
300.0026585
300.0026449
300.0026267
300.0026066
300.002585
300.0025639
300.0025433
300.0025203
300.0024957
300.0024742
300.002329
300.0024071
300.0024783
300.0025258
300.0025597
300.0025888
300.0026155
300.0026396
300.0026601
300.0026766
300.0026894
300.0026995
300.0027075
300.0027136
300.0027168
300.0027157
300.0027089
300.002697
300.0026825
300.0026663
300.002646
300.0026243
300.002603
300.0025763
300.0025436
300.0025173
300.0023102
300.0024196
300.0024997
300.0025475
300.002581
300.0026111
300.0026395
300.0026643
300.0026837
300.0026979
300.002709
300.0027189
300.0027288
300.0027382
300.0027451
300.0027473
300.0027441
300.002737
300.0027288
300.002718
300.0026972
300.0026714
300.0026502
300.002624
300.0025828
300.00255
300.0023122
300.0024541
300.0025333
300.0025728
300.0025964
300.0026205
300.0026469
300.0026705
300.002688
300.0027007
300.0027121
300.0027253
300.002741
300.0027569
300.0027704
300.0027792
300.0027829
300.0027839
300.0027841
300.002778
300.0027536
300.0027182
300.0026937
300.0026729
300.0026174
300.0025787
300.0023672
300.0025157
300.0025843
300.0026092
300.0026136
300.0026225
300.0026419
300.0026634
300.0026804
300.0026946
300.0027109
300.0027315
300.002756
300.0027812
300.0028037
300.0028214
300.0028347
300.0028453
300.0028539
300.0028515
300.0028221
300.0027749
300.002742
300.0027396
300.0026526
300.002613
300.0024468
300.0025908
300.0026471
300.0026564
300.0026373
300.0026234
300.002631
300.0026502
300.0026693
300.0026891
300.0027138
300.0027444
300.0027792
300.0028142
300.0028463
300.0028743
300.0028985
300.0029171
300.0029316
300.0029316
300.0028979
300.0028425
300.0028023
300.0028516
300.0026916
300.002658
300.0025188
300.0026624
300.00271
300.0027067
300.0026676
300.0026299
300.0026227
300.0026392
300.0026621
300.0026892
300.0027232
300.0027631
300.0028066
300.00285
300.0028912
300.0029301
300.0029657
300.002987
300.0030023
300.0030017
300.0029638
300.0029065
300.0028712
300.0030328
300.0027306
300.002705
300.0025709
300.0027191
300.0027611
300.0027493
300.0026984
300.0026436
300.0026227
300.0026357
300.0026615
300.0026943
300.0027345
300.0027805
300.0028294
300.0028784
300.0029271
300.0029762
300.0030245
300.0030385
300.0030467
300.0030394
300.0029902
300.0029162
300.0028587
300.0028793
300.0027357
300.0027088
300.0026039
300.0027552
300.0027905
300.002773
300.0027188
300.0026583
300.0026295
300.0026385
300.0026645
300.0026988
300.0027408
300.0027878
300.0028372
300.0028874
300.0029391
300.0029953
300.0030578
300.0030504
300.0030444
300.0030275
300.0029779
300.0029034
300.0028432
300.0028206
300.0027415
300.0027121
300.0026264
300.0027724
300.0027958
300.0027709
300.002719
300.0026653
300.0026382
300.0026439
300.0026663
300.0026975
300.0027357
300.002778
300.0028222
300.0028658
300.0029079
300.0029492
300.0029876
300.0029948
300.0029878
300.0029726
300.0029329
300.0028746
300.0028285
300.0028007
300.0027526
300.0027243
300.0026471
300.0027748
300.0027768
300.0027391
300.0026933
300.0026585
300.0026434
300.002648
300.0026642
300.002688
300.0027176
300.0027506
300.0027852
300.0028183
300.0028479
300.0028728
300.0028912
300.0028953
300.0028928
300.0028868
300.0028678
300.0028386
300.0028149
300.0027945
300.0027636
300.0027364
300.0026647
300.0027631
300.0027379
300.0026792
300.002643
300.0026367
300.00264
300.0026475
300.0026584
300.0026733
300.0026919
300.0027133
300.0027361
300.0027595
300.0027814
300.0028002
300.0028147
300.0028223
300.0028245
300.0028266
300.0028251
300.0028193
300.0028098
300.0027958
300.0027724
300.0027458
300.00267
300.002733
300.0026916
300.0026133
300.0025874
300.0026078
300.0026274
300.002641
300.0026525
300.002664
300.0026756
300.0026881
300.0027023
300.0027181
300.0027357
300.0027541
300.0027725
300.0027897
300.0027997
300.0028081
300.0028132
300.0028144
300.0028092
300.0027977
300.0027788
300.002755
300.0026827
300.0026867
300.002655
300.0026001
300.002583
300.0026047
300.0026239
300.0026365
300.0026467
300.0026573
300.0026693
300.0026805
300.0026914
300.0027039
300.0027188
300.0027359
300.0027566
300.0027825
300.0027973
300.0028068
300.0028096
300.0028106
300.0028065
300.0027971
300.002782
300.0027621
300.0027361
300.0026733
300.0026637
300.0026638
300.0026647
300.0026668
300.0026632
300.0026554
300.0026498
300.0026472
300.0026567
300.0026709
300.0026835
300.0026957
300.0027087
300.0027224
300.0027342
300.0027481
300.0027915
300.0028035
300.0028019
300.0028033
300.0028003
300.0027929
300.0027809
300.002764
300.0028171
300.0027486
300.0027673
300.0027976
300.0028019
300.0027832
300.0027423
300.0027004
300.0026736
300.002642
300.0026362
300.0026521
300.0026698
300.0026835
300.0026908
300.0026836
300.0026341
300.0024428
300.0027564
300.0027817
300.002786
300.0027925
300.0027904
300.002785
300.0027761
300.0027616
300.0029136
300.0028604
300.0029093
300.002964
300.0029775
300.0029506
300.0028313
300.0027466
300.0027107
300.002645
300.0026104
300.0026156
300.0026371
300.0026531
300.002653
300.0025965
300.0022592
299.9977838
300.0025163
300.002765
300.0027703
300.0027773
300.0027754
300.0027731
300.0027682
300.0027553
300.0030235
300.0029712
300.0030383
300.0031291
300.0031757
300.0031664
300.0028281
300.0027568
300.0027287
300.0026432
300.0025912
300.0025708
300.002592
300.0025977
300.0025437
300.00237
300.0020662
300.0013903
300.002303
300.0025517
300.0027171
300.0027372
300.0027526
300.0027575
300.0027581
300.0027422
300.0031369
300.0030776
300.0031452
300.0032712
300.0033339
300.0029955
300.0023199
300.0026885
300.0026804
300.002612
300.0025658
300.0025155
300.0025341
300.002563
300.0025779
300.0025731
300.0025152
300.0023312
300.0026403
300.0027005
300.0027088
300.0027178
300.0027306
300.0027407
300.0027506
300.0027323
300.00323
300.003182
300.0033018
300.0037078
300.0044028
300.0007394
299.9995346
300.0024891
300.0025729
300.002545
300.002529
300.0024836
300.0024909
300.0025274
300.0025497
300.0025552
300.0025415
300.0024776
300.0026241
300.0026575
300.0026817
300.0026852
300.0026734
300.002711
300.0027114
300.0026896
300.0032538
300.0031786
300.0031528
300.0031358
300.00305
300.0025077
300.0013137
300.002399
300.002451
300.0024555
300.0024835
300.0024824
300.0024983
300.0025277
300.0025604
300.0025905
300.0026174
300.0026409
300.0026674
300.0026838
300.0026857
300.0026584
300.0025503
300.0027337
300.0026997
300.0027031
300.0032427
300.0031681
300.0031195
300.0030693
300.0030444
300.0031451
300.0026222
300.0024967
300.0024544
300.0024267
300.002494
300.0025376
300.0025665
300.0025936
300.0026218
300.0026469
300.0026684
300.0026871
300.0027075
300.0027112
300.0026725
300.0025144
300.0009144
300.0027557
300.0027271
300.0027852
300.0032215
300.0031462
300.0030892
300.0030269
300.0029475
300.002845
300.0026996
300.002549
300.0024732
300.0024475
300.0025189
300.0025791
300.0026225
300.0026521
300.0026748
300.0026942
300.0027114
300.0027256
300.0027343
300.002731
300.0027048
300.0026448
300.0024942
300.0027293
300.0027409
300.0031964
300.0031251
300.0030666
300.0030034
300.0029296
300.0028294
300.0027338
300.0025998
300.0025098
300.0024874
300.0025413
300.002596
300.0026395
300.0026728
300.0027006
300.0027246
300.0027435
300.0027566
300.0027632
300.00276
300.0027349
300.002677
300.0026327
300.0027432
300.0028262
300.0031705
300.0031061
300.0030477
300.002987
300.0029124
300.0028202
300.0027364
300.0026339
300.0025454
300.0025228
300.0025668
300.0026155
300.0026538
300.002685
300.0027159
300.002746
300.0027695
300.0027842
300.0027919
300.0027885
300.0027924
300.0028067
300.0032656
300.002725
300.0028766
300.0031433
300.0030868
300.0030305
300.0029701
300.0028954
300.0028194
300.0027459
300.0026565
300.0025794
300.0025562
300.0025951
300.00264
300.0026746
300.002704
300.0027368
300.0027701
300.0027977
300.0028225
300.0028552
300.0028361
300.0028188
300.0027888
300.002779
300.0028887
300.0029093
300.0031119
300.0030639
300.0030094
300.0029479
300.0028847
300.0028442
300.0027893
300.0026892
300.0026154
300.0025887
300.0026217
300.0026618
300.002694
300.002726
300.0027653
300.0028016
300.0028305
300.002828
300.0028621
300.0028841
300.0028512
300.0029085
300.0029088
300.002931
300.0029535
300.0029732
300.0030721
300.0030327
300.0029774
300.0029179
300.002883
300.0028935
300.0028635
300.0027434
300.002655
300.0026223
300.0026516
300.0026873
300.0027163
300.0027483
300.00279
300.0028215
300.0028546
300.002882
300.0029035
300.0029183
300.0029339
300.0029382
300.0029529
300.0029924
300.0029974
300.0030244
300.0021931
300.0022159
300.002232
300.002246
300.0022558
300.002265
300.0022751
300.0022868
300.0022998
300.0023136
300.0023274
300.0023407
300.0023528
300.0023628
300.0023693
300.002371
300.0023672
300.0023593
300.0023494
300.0023395
300.0023304
300.0023226
300.0023164
300.0023116
300.0023071
300.0022951
300.0022176
300.0022666
300.0023071
300.0023377
300.0023603
300.0023799
300.002399
300.0024184
300.0024377
300.0024562
300.0024729
300.0024873
300.0024992
300.0025084
300.0025146
300.0025169
300.0025141
300.0025056
300.0024924
300.0024769
300.0024609
300.0024456
300.002431
300.0024167
300.002401
300.0023816
300.0022347
300.0022971
300.002353
300.0023953
300.0024271
300.0024542
300.0024796
300.0025041
300.0025275
300.002549
300.0025682
300.0025845
300.002598
300.0026085
300.0026154
300.0026181
300.0026156
300.0026073
300.0025944
300.0025784
300.0025606
300.0025423
300.0025233
300.0025025
300.0024784
300.0024545
300.0022416
300.0023116
300.0023804
300.0024321
300.0024713
300.0025044
300.0025348
300.0025632
300.0025893
300.0026125
300.0026328
300.0026504
300.0026654
300.0026777
300.0026865
300.0026909
300.00269
300.0026837
300.002673
300.002659
300.0026417
300.0026225
300.0026022
300.0025789
300.002547
300.0025185
300.0022293
300.0023198
300.0024018
300.0024594
300.0025019
300.0025378
300.0025706
300.0026007
300.0026276
300.002651
300.0026716
300.0026903
300.0027074
300.0027226
300.002735
300.0027429
300.0027456
300.002743
300.0027365
300.002726
300.0027094
300.0026896
300.0026697
300.0026498
300.0026061
300.002572
300.0022108
300.0023405
300.0024313
300.0024892
300.0025285
300.0025609
300.0025918
300.0026211
300.0026473
300.0026704
300.0026917
300.0027126
300.0027336
300.0027537
300.0027713
300.0027847
300.0027931
300.0027961
300.0027953
300.0027889
300.0027724
300.0027511
300.0027318
300.0027292
300.002657
300.0026197
300.0022403
300.0023865
300.0024768
300.0025294
300.0025579
300.002579
300.0026025
300.0026284
300.0026534
300.0026771
300.0027009
300.0027263
300.0027529
300.0027796
300.0028051
300.0028271
300.002844
300.0028534
300.0028581
300.0028552
300.0028367
300.002814
300.0027913
300.0028349
300.0026981
300.0026731
300.0023137
300.0024544
300.0025367
300.0025803
300.0025932
300.0025963
300.0026071
300.0026277
300.0026519
300.0026776
300.0027059
300.0027376
300.0027716
300.0028075
300.0028433
300.002877
300.002906
300.0029189
300.0029267
300.0029261
300.0029041
300.0028859
300.0028579
300.003027
300.0027372
300.0027396
300.0023955
300.0025291
300.0026013
300.0026353
300.002633
300.0026164
300.0026113
300.0026248
300.0026484
300.0026771
300.0027106
300.0027489
300.0027912
300.0028367
300.0028843
300.002933
300.0029801
300.0029868
300.0029916
300.0029912
300.0029638
300.0029621
300.002962
300.0034989
300.0027881
300.002821
300.0024644
300.0025963
300.0026595
300.0026852
300.002671
300.0026386
300.0026185
300.0026243
300.0026464
300.0026771
300.0027147
300.0027577
300.0028061
300.0028596
300.0029193
300.0029872
300.003069
300.0030434
300.003035
300.0030261
300.0029716
300.0029276
300.0028834
300.0029097
300.002776
300.0027755
300.0025163
300.0026489
300.0027031
300.0027194
300.0026967
300.0026561
300.002627
300.0026263
300.0026459
300.002676
300.0027143
300.002758
300.0028074
300.002864
300.0029327
300.0030255
300.0031855
300.0030631
300.0030273
300.002996
300.0029463
300.0028967
300.002862
300.0028868
300.0027787
300.0027501
300.0025561
300.0026846
300.0027257
300.0027282
300.0026999
300.0026603
300.0026317
300.0026285
300.0026447
300.0026714
300.0027057
300.0027448
300.0027872
300.0028328
300.0028826
300.0029383
300.002998
300.0029706
300.0029621
300.0029394
300.0029024
300.002863
300.0028332
300.0028234
300.0027725
300.002743
300.002588
300.0027013
300.0027226
300.0027073
300.0026757
300.0026461
300.002628
300.0026275
300.0026408
300.0026624
300.0026895
300.0027206
300.0027524
300.0027845
300.0028166
300.0028487
300.002878
300.0028773
300.0028717
300.0028647
300.0028486
300.0028281
300.00281
300.0027956
300.0027675
300.0027422
300.0026059
300.0026941
300.0026934
300.0026589
300.0026269
300.0026148
300.002614
300.0026206
300.0026332
300.0026502
300.0026705
300.0026931
300.0027157
300.002738
300.0027599
300.002781
300.0027989
300.002805
300.0028091
300.0028119
300.0028101
300.0028042
300.0027958
300.0027842
300.0027645
300.0027427
300.002605
300.0026611
300.0026449
300.0025966
300.002568
300.0025758
300.0025921
300.0026074
300.0026221
300.0026373
300.0026533
300.0026699
300.0026864
300.002702
300.0027172
300.0027318
300.0027445
300.0027521
300.0027682
300.0027796
300.0027865
300.0027882
300.0027847
300.0027757
300.0027604
300.0027417
300.0026102
300.002617
300.0025981
300.0025585
300.0025387
300.0025537
300.002575
300.0025935
300.0026095
300.0026233
300.0026376
300.002652
300.0026656
300.0026777
300.0026881
300.0026968
300.0027051
300.0027062
300.0027353
300.0027541
300.0027675
300.0027732
300.0027725
300.0027659
300.002754
300.0027385
300.0026551
300.0026051
300.0025909
300.0025826
300.0025767
300.0025767
300.0025825
300.0025905
300.0026015
300.0026075
300.0026179
300.0026316
300.0026446
300.0026541
300.0026567
300.0026482
300.0026301
300.0025193
300.0026655
300.002713
300.0027423
300.0027542
300.0027566
300.0027529
300.0027446
300.0027326
300.0027232
300.0026595
300.002659
300.0026684
300.0026577
300.0026237
300.0026008
300.0025944
300.0026018
300.0025924
300.0025926
300.002604
300.0026176
300.0026259
300.0026226
300.0025946
300.0025525
300.0023815
300.0025885
300.0026696
300.002712
300.00273
300.0027362
300.0027366
300.0027325
300.0027246
300.0027958
300.0027382
300.0027529
300.002763
300.0027282
300.0026276
300.0025578
300.0025751
300.0025969
300.0025751
300.0025621
300.0025654
300.0025777
300.0025796
300.0025472
300.0023742
300.0022056
300.0017094
300.0021557
300.0025153
300.0026539
300.0026939
300.0027092
300.0027168
300.0027188
300.0027155
300.0028691
300.0028087
300.0028169
300.0027971
300.0026931
300.0024337
300.0022837
300.0024882
300.0025494
300.002545
300.0025301
300.0025212
300.002533
300.0025335
300.002493
300.0023816
300.0022738
300.002788
300.00205
300.0024943
300.002626
300.0026646
300.0026796
300.0026972
300.0027051
300.0027038
300.0029383
300.0028648
300.0028343
300.0027178
300.0023557
300.0014247
300.001417
300.0023269
300.0024257
300.0024901
300.0024906
300.0024747
300.0024937
300.0025178
300.002524
300.0024876
300.0023827
300.002193
300.0024694
300.0025981
300.0026335
300.0026441
300.0026437
300.0026846
300.0027067
300.0027181
300.0029963
300.0029116
300.0028338
300.0025264
300.0011146
299.9896938
299.9977763
300.0019142
300.0021542
300.0024001
300.0024414
300.0024403
300.0024623
300.0024946
300.0025171
300.0025247
300.0025176
300.002479
300.0025604
300.0025972
300.0026103
300.0026027
300.0025201
300.0026417
300.0026385
300.0026553
300.0030348
300.0029407
300.0028479
300.0026614
300.0021812
300.0008708
299.9997374
300.0019225
300.002199
300.0023551
300.0024161
300.0024409
300.0024698
300.0025036
300.0025374
300.0025656
300.0025856
300.0025957
300.0026153
300.0026197
300.0026067
300.002587
300.0024356
300.0027463
300.0026355
300.0026654
300.0030646
300.0029642
300.0028841
300.0027698
300.0026084
300.0023295
300.0020393
300.0022938
300.0023141
300.0023481
300.0024252
300.0024775
300.0025152
300.0025477
300.0025783
300.0026038
300.0026222
300.0026328
300.0026379
300.0026145
300.0025165
300.0024249
300.0018733
300.002361
300.0025454
300.0026604
300.0030717
300.0029878
300.0029121
300.002826
300.0027145
300.0025795
300.0024344
300.0023954
300.002358
300.0023703
300.0024443
300.0025076
300.0025554
300.0025906
300.0026189
300.0026422
300.0026596
300.0026694
300.002667
300.0026442
300.0025908
300.0025274
300.0024606
300.0024995
300.0026159
300.0030663
300.0029966
300.0029318
300.0028611
300.0027812
300.0026828
300.0025877
300.0024827
300.0024203
300.0024167
300.0024713
300.0025289
300.0025766
300.002614
300.0026451
300.0026714
300.0026912
300.0027023
300.0026977
300.0026763
300.0026281
300.0025613
300.0025037
300.0025636
300.0026723
300.0030524
300.0029962
300.00294
300.0028778
300.0028087
300.0027273
300.00264
300.0025419
300.0024718
300.0024614
300.0025044
300.0025549
300.0025976
300.0026328
300.0026656
300.0026967
300.0027224
300.0027389
300.0027349
300.0027214
300.0027094
300.0027328
300.0028799
300.0026633
300.0027473
300.0030315
300.0029876
300.0029372
300.0028822
300.00282
300.0027565
300.0026859
300.0025951
300.0025218
300.0025054
300.0025405
300.0025853
300.0026231
300.0026557
300.0026893
300.0027251
300.0027579
300.0027866
300.0027853
300.002751
300.0027096
300.002703
300.0027067
300.0026729
300.0027908
300.0030028
300.0029701
300.0029239
300.0028714
300.0028201
300.0027849
300.0027392
300.0026544
300.0025742
300.0025494
300.0025754
300.0026137
300.0026481
300.0026807
300.002717
300.0027609
300.0028102
300.0029052
300.0028305
300.0027621
300.002616
300.0027539
300.0027929
300.0028162
300.0028602
300.002893
300.0029649
300.0029427
300.0029002
300.0028508
300.002819
300.0028265
300.0028086
300.0027244
300.002628
300.0025942
300.0026128
300.0026454
300.0026759
300.0027054
300.0027359
300.0027762
300.0028138
300.002846
300.0028469
300.0028428
300.0028281
300.0028467
300.0028591
300.00287
300.0029088
300.0029459
300.0020965
300.0021161
300.0021299
300.0021441
300.0021549
300.0021654
300.0021767
300.0021895
300.0022038
300.0022193
300.0022353
300.0022511
300.0022658
300.0022779
300.0022856
300.0022874
300.0022838
300.0022769
300.002269
300.0022615
300.0022546
300.0022486
300.0022432
300.0022382
300.0022317
300.0022181
300.0021171
300.0021598
300.0021976
300.0022285
300.002253
300.0022747
300.0022956
300.0023165
300.0023375
300.002358
300.0023772
300.0023946
300.0024095
300.0024216
300.0024303
300.0024347
300.0024342
300.0024288
300.0024197
300.0024082
300.0023957
300.002383
300.0023704
300.002357
300.0023412
300.0023216
300.0021324
300.0021876
300.0022403
300.0022834
300.002318
300.0023479
300.0023756
300.0024022
300.0024277
300.0024518
300.0024739
300.0024936
300.0025108
300.0025249
300.0025354
300.0025416
300.0025428
300.0025388
300.0025303
300.0025184
300.0025043
300.0024888
300.0024724
300.0024544
300.002432
300.0024092
300.0021408
300.0022029
300.0022677
300.0023213
300.0023643
300.0024011
300.0024343
300.0024653
300.0024941
300.0025205
300.0025446
300.0025664
300.0025857
300.0026024
300.0026156
300.0026245
300.0026283
300.0026267
300.0026203
300.0026099
300.0025958
300.0025795
300.0025619
300.0025436
300.0025134
300.0024873
300.0021352
300.0022099
300.0022882
300.0023505
300.0023995
300.0024404
300.0024766
300.0025097
300.0025399
300.0025674
300.0025926
300.002616
300.0026378
300.0026578
300.002675
300.0026881
300.0026959
300.0026979
300.002695
300.0026873
300.0026735
300.0026571
300.0026405
300.0026326
300.0025836
300.0025546
300.0021137
300.0022204
300.0023128
300.0023811
300.0024318
300.0024722
300.0025072
300.0025393
300.0025688
300.0025962