/*--------------------------------*- C++ -*----------------------------------*\
  =========                 |
  \\      /  F ield         | OpenFOAM: The Open Source CFD Toolbox
   \\    /   O peration     | Website:  https://openfoam.org
    \\  /    A nd           | Version:  8
     \\/     M anipulation  |
\*---------------------------------------------------------------------------*/
FoamFile
{
    version     2.0;
    format      ascii;
    class       volScalarField;
    location    "1.8";
    object      alphat;
}
// * * * * * * * * * * * * * * * * * * * * * * * * * * * * * * * * * * * * * //

dimensions      [1 -1 -1 0 0 0 0];

internalField   nonuniform List<scalar> 
67451
(
0.0001822746007
0.0002308048696
0.0002761711906
0.0003046456959
0.0003059800026
0.0002872261291
0.0002625006743
0.0003025870797
0.0003457835473
0.0003668335194
0.0003339023663
0.000223410827
0.0002139214359
0.0002037921062
0.0001919388431
0.0001851380859
0.000237178033
0.0002808864958
0.0003108715227
0.0003139914638
0.0003113384556
0.0002957384711
0.0003598142216
0.000426351964
0.0004566536623
0.0003826330347
0.0003173892252
0.0003671401505
0.0004769161148
0.0004819645288
0.000444876114
0.0003853678314
0.0003277779653
0.000291354016
0.0002790401118
0.0002727209827
0.0002386424214
0.0002377962724
0.0002296582845
0.000221611541
0.0002135013462
0.0002044845259
0.0001934299217
0.0001871636115
0.0002373768863
0.0002850008114
0.0003267551748
0.0003196100077
0.000332548248
0.0003479566094
0.0004309123398
0.0005074952839
0.0005374391594
0.0004841452214
0.0003767830691
0.0003110557379
0.0003745618081
0.0003795047474
0.000344671359
0.0003000240888
0.0002742353621
0.0002641883918
0.0002631523709
0.0002593296211
0.0002276028503
0.0002296028514
0.0002242763734
0.0002181065508
0.0002113863215
0.0002037073762
0.0001940675226
0.0001887850312
0.000237401223
0.0002930262923
0.0003525679343
0.0003321285702
0.0003828058368
0.0003888139129
0.0004629893621
0.0005377528749
0.0005670833393
0.0005462130658
0.0004860441617
0.0004156842731
0.0003492706509
0.0003052167018
0.0002761910579
0.0002976634003
0.0002593873991
0.0002497762958
0.0002504064082
0.0002470044718
0.0002167101651
0.0002171627727
0.0002129374777
0.0002079911573
0.0002023034486
0.0001949522747
0.0001880998785
0.0002151513473
0.000266120186
0.0003034153989
0.0002970628685
0.000275660321
0.0002616830539
0.0003492197642
0.0004619596137
0.0005192229652
0.0004819941642
0.0004168629617
0.0003488500407
0.0002872052363
0.0002650067763
0.0003238787357
0.0004577946469
0.0003397818001
0.0002549045915
0.0002400343402
0.0002348428044
0.000205150214
0.0002114571682
0.0002096385147
0.0002076784487
0.0002046567147
0.0001994987289
0.0001922787943
0.000202895885
0.0002508683478
0.0002794857766
0.0002822525517
0.0003073878336
0.0002651108769
0.0002783845969
0.0003423499341
0.0004226121066
0.0003761178585
0.0003231438197
0.0002816316678
0.0002771120623
0.0004383995329
0.0006762847732
0.0007785861435
0.0006556966235
0.0004759190158
0.000318628582
0.0002385894509
0.0001983510102
0.0002208849526
0.0002201676338
0.0002189078036
0.0002162735105
0.0002113298791
0.0002030583577
0.0001972059247
0.0002379034053
0.0002795491372
0.0003233784373
0.0004080958251
0.0003616797598
0.0003255715087
0.0003317160686
0.0003411735121
0.0003402145616
0.0003992720411
0.0004098997695
0.0003323809695
0.0002775066671
0.0004383518958
0.0005704588272
0.0004589899994
0.0003275613289
0.0002463409832
0.0002205674973
0.0001941400098
0.0002386626053
0.0002374619921
0.0002356921554
0.0002324386485
0.0002270125659
0.0002184746557
0.0002111148208
0.000251382927
0.0003175770746
0.0004108414765
0.0005053398078
0.0004661396672
0.0004093815311
0.0003864301732
0.0003847547923
0.0004296733006
0.0005548540129
0.0005715512781
0.0004906813067
0.000374776244
0.0003035834166
0.000367961406
0.0003033700049
0.0002394313867
0.0002161137246
0.0002116291181
0.0001899560561
0.0002577481504
0.0002549113537
0.0002524307116
0.0002486936332
0.0002431619563
0.0002354197468
0.0002432749438
0.0003302163915
0.0004213457486
0.0005274657896
0.0005980016182
0.0005590082333
0.0004952184662
0.0004494187975
0.0004364717436
0.000533582134
0.0007019355539
0.0007176305661
0.0006431515855
0.0005173021866
0.0003897892452
0.0003024376169
0.0002475992523
0.0002154962131
0.0002054123584
0.0002046075516
0.0001858727944
0.0002762269926
0.0002704899558
0.0002673867856
0.000263495605
0.0002581249874
0.0002514212017
0.0003003790109
0.000450029268
0.0005566049941
0.0006402681921
0.0006774495293
0.0006417535149
0.0005796712151
0.000520249513
0.0004754046581
0.0005196618639
0.0006590013991
0.0007637733013
0.000714706163
0.0006059809944
0.0004924917364
0.0003798475567
0.0002914404527
0.0002355754255
0.0002077711781
0.0001993945822
0.0001817420566
0.0002953946196
0.0002842119568
0.0002807199013
0.0002771944699
0.0002729539071
0.0002667645277
0.0002585909003
0.0003345096154
0.0004934119725
0.0006170612478
0.0006726441096
0.0006277471054
0.0005557670378
0.000492901541
0.0004652425701
0.0004729056277
0.0005467386273
0.0006383178112
0.000597797192
0.0005161303656
0.0004328366306
0.0003600816023
0.000302506244
0.0002566659848
0.0002205262767
0.0001992292941
0.0001780560958
0.0003198808941
0.0002968219062
0.0002917355343
0.0002898106128
0.0002874148624
0.0002836327978
0.0002754201047
0.0002645881998
0.0003640923366
0.0005082962398
0.0005975439997
0.0005591759749
0.0004958841225
0.0004633855014
0.0004590655898
0.0004592545898
0.0004771159888
0.000523898961
0.0004974799929
0.0004444541257
0.0003919949868
0.0003471244311
0.0003071386015
0.0002686623807
0.000231698893
0.0002022297304
0.0001751851082
0.0003589932928
0.0003102928355
0.0003008570116
0.0003012702867
0.0003027400124
0.0003012622353
0.0002951278333
0.0002824877986
0.0002787254357
0.0003966278473
0.0005152657997
0.0004816171842
0.0004421674464
0.0004474569131
0.0004556251962
0.0004535678899
0.0004518071611
0.0004592227492
0.000438126231
0.0004052291965
0.0003721775666
0.000340166207
0.000307352396
0.0002731916841
0.0002382549896
0.0002057483067
0.0001730627113
0.0003131036659
0.000305688651
0.0003077697141
0.000313128938
0.0003188481805
0.0003204695862
0.0003150756726
0.0003030978387
0.0002852294821
0.0003014956069
0.0004317379031
0.0004140642011
0.0004107064184
0.000436099752
0.0004509736037
0.0004501794301
0.0004439453968
0.000434644677
0.0004153496239
0.0003910097174
0.0003645087345
0.0003368973725
0.0003076388339
0.000276982236
0.0002449508216
0.0002116159
0.0001726442565
0.0003054470486
0.0003086865368
0.0003157731636
0.0003269688932
0.0003369044772
0.0003396049708
0.000334327931
0.0003225126741
0.0003061423456
0.000288445174
0.0003420088263
0.0003559431308
0.0003872330101
0.0004228572325
0.0004435885822
0.0004458055441
0.0004394047521
0.0004263381611
0.0004072677003
0.0003844557698
0.0003596273663
0.0003333390788
0.0003066400784
0.0002798361035
0.0002522355102
0.0002207409921
0.0001757695553
0.0003059356162
0.0003130260416
0.000326784527
0.0003475624726
0.0003625301357
0.0003643418191
0.0003547763533
0.0003389051895
0.0003204768078
0.0002994017399
0.0002926497843
0.0003017759239
0.0003629600248
0.0004057285423
0.0004328662398
0.0004385359594
0.0004328907462
0.0004193271512
0.0004003983528
0.0003797018212
0.0003911153999
0.0003438936105
0.0003082041239
0.0002829143251
0.0002594619208
0.0002309152756
0.0001822132072
0.0003060114142
0.0003178556801
0.0003475691269
0.0003830704613
0.0004028608505
0.0004049567901
0.0003935349825
0.000371793893
0.0003453219641
0.000318101285
0.0002918684871
0.0002773020012
0.0003294187988
0.0003828228964
0.0004180032546
0.0004273073892
0.000423025871
0.0004099291532
0.0003914717993
0.0003700061934
0.0004701616509
0.0004476459917
0.000324832477
0.0002863469711
0.0002644136292
0.0002381711658
0.000188335571
0.0003061399374
0.0003283786358
0.0003808266629
0.0004264657339
0.000445053402
0.0004460757128
0.0004345645067
0.0004130908134
0.0003834044295
0.0003497410646
0.0003160245472
0.0002887384393
0.0003009977861
0.0003547082217
0.000396549562
0.0004106114034
0.0004090198067
0.0003980066366
0.0003807130542
0.0003600013503
0.0003670534528
0.0003366671757
0.0003021477121
0.0002826020709
0.0002644533036
0.0002400143565
0.000190686896
0.0003088274902
0.0003608024256
0.0004133427684
0.0004491255909
0.0004631277144
0.0004626241394
0.0004514668383
0.0004321232939
0.0004061655541
0.0003743158596
0.0003421346307
0.0003159084931
0.000303882036
0.0003287210905
0.0003669716802
0.0003868627518
0.0003892528333
0.0003846965819
0.0003683913746
0.00034890015
0.0003336173042
0.0003128851211
0.0002936023229
0.0002772705877
0.0002600341896
0.0002362503522
0.0001881300088
0.0003411073175
0.0004989618199
0.0004604849938
0.0004660954081
0.0004716786368
0.0004687188246
0.0004569109496
0.0004379512736
0.0004137040729
0.0003845123631
0.0003545310331
0.0003329180857
0.0003205436804
0.0003215227304
0.0003424082122
0.0003646761949
0.0003745370252
0.0003711773479
0.0003565129679
0.0003391933665
0.0003212593556
0.0003019492606
0.0002838207228
0.0002677116892
0.000250448556
0.0002268213344
0.0001807792034
0.0005039682077
0.0007609823347
0.0006062307165
0.0005046320665
0.0004762342207
0.0004667621754
0.0004539030344
0.0004349723421
0.0004113393874
0.0003832051387
0.0003549514201
0.0003378578892
0.0003321373334
0.0003281905396
0.0003357634611
0.000369695619
0.0003945937868
0.0003949082386
0.000377146445
0.0003525288715
0.000326299035
0.0002998104207
0.0002757491051
0.0002557723217
0.0002365865398
0.000212606728
0.0001698276371
0.0005570053649
0.0008189893955
0.000643518407
0.0005116301822
0.0004659289876
0.0004548604453
0.0004426084443
0.0004243709033
0.0004013938061
0.000373852781
0.0003472870696
0.0003337998878
0.0003348913792
0.0003347775624
0.0003396906399
0.0003861103904
0.0004191026458
0.0004202386421
0.0003995172208
0.000369471452
0.0003368891128
0.0003021757406
0.0002688970645
0.0002417970844
0.0002191640683
0.0001950546948
0.000157098002
0.0004428286365
0.0006739516851
0.0005304526753
0.0004537656402
0.0004393743644
0.0004351460894
0.0004245349449
0.0004075778891
0.0003856195781
0.0003592136866
0.0003346035835
0.0003237834067
0.0003287776648
0.0003336339664
0.0003390077345
0.0003844906303
0.0004185482635
0.0004199571672
0.0003994347029
0.000369331167
0.0003352647099
0.0002957373298
0.0002556961008
0.0002233205008
0.0001988368027
0.0001763219674
0.0001443968743
0.0003356361029
0.000513007736
0.0004195905528
0.0004049815046
0.0004108975471
0.0004102380188
0.0004012117799
0.0003858332044
0.0003652375962
0.0003410170308
0.0003191441434
0.0003104458397
0.0003163986607
0.000323288208
0.0003282724563
0.0003633792145
0.0003939982957
0.000396381298
0.0003788179953
0.0003516388883
0.0003168276536
0.0002744598677
0.0002325420147
0.0002006935041
0.0001781814844
0.0001590096089
0.0001326288072
0.00028390633
0.0003808022164
0.0003472076801
0.000366293175
0.0003795288205
0.0003809673392
0.0003736210367
0.0003599113561
0.0003414535938
0.0003207320337
0.0003028664302
0.0002959032953
0.0003007595824
0.0003074276701
0.0003114595581
0.0003330960794
0.0003571794277
0.0003606375697
0.0003464583423
0.0003201317028
0.0002833352325
0.0002412161721
0.0002043662576
0.0001789626822
0.0001607977901
0.0001447299751
0.000121607393
0.000266214918
0.0003010876595
0.0003028651503
0.0003296638004
0.0003448009834
0.0003480035205
0.0003424948033
0.0003310252268
0.0003160477671
0.0003001727553
0.0002872141337
0.0002815168583
0.0002837613718
0.0002882167333
0.0002905572635
0.0003008757571
0.0003164270178
0.0003187391772
0.0003042744487
0.0002762969332
0.0002402604452
0.0002054801403
0.0001799519487
0.0001627223144
0.0001482972812
0.0001336978527
0.000111101595
0.0002566612877
0.0002661803093
0.0002736770963
0.0002947172942
0.0003085027716
0.0003126425595
0.0003090927209
0.0003007324579
0.0002905507654
0.0002806227893
0.0002725211886
0.0002675759885
0.0002664566755
0.0002670218402
0.0002662481585
0.0002673566569
0.0002726515118
0.0002699152857
0.0002532575369
0.0002266631207
0.0001989336873
0.000177750523
0.0001636317704
0.0001521832177
0.0001401499299
0.0001262851922
0.0001025316403
0.0002476662453
0.0002494700863
0.0002529559218
0.0002643173144
0.000273565125
0.0002770265528
0.0002753593579
0.0002711342542
0.0002667031828
0.0002625541448
0.0002582757855
0.0002536678563
0.000249339116
0.000245216732
0.0002399331519
0.0002335406492
0.0002286446146
0.0002196396506
0.0002032885709
0.0001846164637
0.0001700634751
0.0001607132221
0.0001534007056
0.0001453278322
0.0001354755934
0.0001231980248
9.900654771e-05
0.0002375975689
0.0002370204607
0.0002369493215
0.0002403401898
0.0002438910476
0.0002454035963
0.0002453638469
0.0002454660146
0.0002462142181
0.0002463203297
0.0002444156691
0.0002399306809
0.0002333158832
0.0002251920329
0.000215487556
0.0002040581202
0.0001927232673
0.0001808300278
0.0001686918348
0.0001592503247
0.0001536220703
0.0001499186091
0.0001458961986
0.000140427921
0.0001331525597
0.0001232163829
0.0001000747285
0.0002254614499
0.0002242965469
0.0002227124716
0.0002218386146
0.000221283509
0.0002210512204
0.0002222492529
0.0002254165816
0.0002292061341
0.0002314175513
0.0002306146987
0.0002263360292
0.0002188877053
0.0002089404488
0.0001971393344
0.000184201092
0.0001716329151
0.0001605067898
0.0001517252643
0.0001459076311
0.0001425640368
0.0001404100556
0.0001382099266
0.0001350983042
0.000130374179
0.000122563676
0.0001005259194
0.0002025268263
0.0002022422308
0.000201282746
0.0001999057973
0.0001983425164
0.0001975794192
0.0001990350879
0.0002027157825
0.0002068561658
0.0002094536494
0.0002093544343
0.0002061722964
0.0002000265345
0.0001913962053
0.0001810347796
0.000169927225
0.0001591751169
0.0001495514425
0.0001413664116
0.0001346902904
0.0001296375595
0.0001262613612
0.0001241296832
0.0001222523972
0.000119430489
0.0001137163496
9.511525785e-05
0.0005166532497
0.0006064305355
0.001014469371
0.00127979449
0.001373849372
0.001275037427
0.000873107465
0.0007875143457
0.0009871423442
0.001099406438
0.001142994313
0.0009809713334
0.0008814149718
0.0007718218769
0.0006517727118
0.0005648891093
0.0006789737281
0.001135400443
0.00141637783
0.001513249722
0.001442510942
0.001016022027
0.0009718599817
0.001234114901
0.001268261439
0.001104882928
0.0009360619741
0.001034292633
0.001132914091
0.001132435139
0.001020478464
0.0008929241924
0.0008727716694
0.0008998196895
0.0009002618176
0.0007604338386
0.0002309273715
0.001151407356
0.001088009903
0.001009466313
0.0009175533218
0.0008095281152
0.0006865977345
0.0006054093995
0.0007418048381
0.001248352421
0.001564210183
0.00164250683
0.001616301481
0.001254930727
0.001305698075
0.001504016734
0.0015411806
0.001402861745
0.00100056311
0.0008075518143
0.0007761504246
0.000801173673
0.0008061093304
0.0008061096806
0.0008371653273
0.0008667224927
0.0008556811083
0.0007088388422
0.0002189404068
0.001076922511
0.001051255798
0.0009903987474
0.0009044193299
0.0008022498984
0.0006887873739
0.000623396014
0.0007662467414
0.001287599121
0.001664449399
0.001722887211
0.00168063373
0.001331164353
0.001336026959
0.001550379786
0.001591738885
0.001466369873
0.001107783867
0.0007356422754
0.0006120964363
0.0006878030254
0.000797964382
0.0007889633064
0.0007756092758
0.0007930151681
0.0007857932064
0.0006527417516
0.0002092837354
0.0009215163758
0.0008840151548
0.0008199653712
0.0007418154024
0.0006557662467
0.0006122576809
0.0007523169193
0.001196631566
0.001511601406
0.001564459309
0.0014528961
0.0009700258476
0.0009835535512
0.001341588592
0.001405361068
0.001265596717
0.0008097861777
0.000576360921
0.0007698955635
0.001049596941
0.00140350421
0.001400780501
0.0009684796582
0.0007757572127
0.0007374990582
0.0006088983547
0.0002003454814
0.0007281372716
0.0007206842527
0.000700748053
0.0006617738502
0.0006042424498
0.0005652224111
0.0006620269846
0.001022321866
0.001314303597
0.001335842047
0.001017904873
0.0006845579682
0.0005475341429
0.0007330347675
0.0008560926827
0.0006639212434
0.0004869342848
0.0004966867118
0.0008504495588
0.001396720721
0.001809250814
0.001967891706
0.001542925816
0.0007996693321
0.0006217469089
0.0005802073375
0.0001983408882
0.0006580704531
0.0006652557998
0.0006608149613
0.0006341937676
0.0005806578429
0.0005203997659
0.0005458750192
0.0008290632211
0.001181946576
0.001287329482
0.00105301898
0.0007177923224
0.0005691191285
0.0006363373225
0.0008284573782
0.0007979330463
0.0007387700605
0.0006305340574
0.0006208855825
0.0008528825888
0.001456853495
0.001510845229
0.0009956788527
0.0005954017768
0.0005625221867
0.0005494412752
0.0001953915483
0.0007160932028
0.0007303785235
0.0007247308996
0.000688567559
0.0006149381571
0.0005142860283
0.0004399651573
0.0005668337039
0.000909267994
0.001232507273
0.001281464347
0.001166290803
0.0009504988898
0.001026481763
0.00113231173
0.001306909393
0.001496499103
0.001419860055
0.0009314691433
0.0006551537793
0.0007054981272
0.0006309514157
0.0004970427727
0.0004542318412
0.0004923570939
0.0004913386158
0.0001907702982
0.0008497358265
0.0008669637169
0.0008539038667
0.0008020308013
0.0007043239742
0.0005715708965
0.0004392232563
0.000443861997
0.0008956802487
0.001419537849
0.001588344991
0.001564635987
0.001461797223
0.001456045115
0.001543888349
0.001730526027
0.001865178606
0.00187974491
0.001588183215
0.001062122142
0.0006890870926
0.0005044659559
0.0004231990515
0.0004064424598
0.0004340021118
0.0004325282144
0.0001851224386
0.0009978135587
0.001007790197
0.0009834681322
0.0009213359124
0.0008078752943
0.0006455972383
0.0004684328786
0.0004820729784
0.001079951212
0.001605679135
0.001756290288
0.001712643406
0.001593453936
0.001563329208
0.001661659145
0.001838768304
0.001897658953
0.001883905714
0.001712024705
0.001209873311
0.0008153516033
0.0005752153193
0.0004612202152
0.0004028230283
0.0003946965822
0.0003838010299
0.0001795951651
0.001115007272
0.001109856817
0.001071203062
0.001017193511
0.0009234147377
0.0007739255605
0.000589053037
0.0004745360389
0.0008365374036
0.001530770391
0.00173107989
0.001724812731
0.001647761481
0.001615603069
0.00163172299
0.001696623208
0.001710474852
0.001662692009
0.001487574044
0.001180057262
0.0009439902666
0.0007216430091
0.0005580486408
0.0004415313207
0.0003826131399
0.0003497368466
0.0001745905407
0.001194618891
0.001172861266
0.00113367058
0.001088088152
0.001026696733
0.000908904877
0.0007302178238
0.0005367217635
0.0004635713873
0.0008748112711
0.001306284118
0.00147942995
0.00156609567
0.001588039396
0.001574774646
0.001576902299
0.001538418703
0.001459525712
0.001331662108
0.001173111456
0.0009879026229
0.0008004151106
0.0006309237008
0.0004877405734
0.0003912054674
0.0003314915908
0.0001703144677
0.00119237446
0.001199641817
0.00117855355
0.001149380539
0.001108357479
0.001039662365
0.0009008539727
0.0006877427241
0.0004722170417
0.0004569652003
0.000757596077
0.00108863166
0.001383379774
0.001505506224
0.001516493528
0.001505985566
0.001465316514
0.001398866954
0.001294378957
0.001171100719
0.001018948752
0.0008473842427
0.0006772714562
0.0005255379338
0.0004092831427
0.0003268471827
0.0001670321574
0.001227261799
0.001222981549
0.00121868461
0.001212193489
0.001190867078
0.001141769873
0.001047499842
0.000872836744
0.0006232410529
0.000435401678
0.0004573383479
0.000739254269
0.001152203469
0.00140365339
0.001463238858
0.001464570372
0.001430355299
0.001369183768
0.001271326167
0.001161131271
0.001040514713
0.0008759509606
0.0007126660624
0.0005646323
0.0004389434441
0.0003357064084
0.0001654419963
0.0012348055
0.001243205047
0.001267885909
0.001287343323
0.001283639636
0.001244414295
0.001162822591
0.001032863848
0.0008093902221
0.0005527357765
0.0004089337092
0.0005268311376
0.0009263988712
0.001286316845
0.001406634186
0.001431753503
0.001406629426
0.001346508436
0.001253051276
0.001168529279
0.001097734888
0.0009252552013
0.000758457452
0.0006187902758
0.0004871058113
0.000359391486
0.000166448521
0.001216755907
0.001262267985
0.001316959452
0.001356272329
0.001364976397
0.001334800529
0.001262202982
0.001145030221
0.000946957052
0.0006913063236
0.0004745292784
0.0004443844945
0.0007321455612
0.00115599857
0.00133640622
0.001390140959
0.001374902611
0.001317592935
0.00123878277
0.001257932903
0.001456253761
0.001189948198
0.0008633729175
0.0006983920159
0.0005514283817
0.0003935331891
0.0001698143911
0.001212382308
0.001285232106
0.00135617521
0.001402092164
0.001414841465
0.00138927397
0.001322486202
0.001214063424
0.001026506374
0.0007870023028
0.0005725300494
0.0004597114946
0.0005991108779
0.001009770457
0.001241150585
0.001326409309
0.001323256341
0.001267844032
0.001194392392
0.001260302084
0.002024602181
0.001814255818
0.001046571244
0.0007588025407
0.0006022583996
0.0004201131858
0.0001729384028
0.001218011908
0.001320697351
0.001392733932
0.001432566059
0.001444871976
0.00142162374
0.001356585533
0.001253880119
0.00110932823
0.0008977965493
0.0007030908705
0.000568185098
0.0005719164823
0.0008430767024
0.001113624551
0.001233369436
0.001250073187
0.001212241907
0.001115997513
0.001073777066
0.001191503805
0.001078461284
0.0008342321312
0.0007282016344
0.0005993999331
0.0004208358806
0.0001730303854
0.001238872114
0.001359632053
0.001454078909
0.001472415122
0.001475707542
0.001450234593
0.001383980892
0.001282470067
0.001159098346
0.001020024846
0.000869673597
0.0007524640609
0.0006774341562
0.0007646118202
0.0009783076037
0.001124474357
0.001167380149
0.001192878788
0.00106046704
0.0009173952227
0.0008492234177
0.0007779595714
0.0007238975399
0.0006699239567
0.0005635053174
0.0003998917341
0.000169448627
0.001311810492
0.001607931005
0.001613457314
0.001538584994
0.001503787392
0.001464075888
0.001392428318
0.00128965418
0.001176588099
0.001077113286
0.0009964102182
0.0009354699792
0.000859456962
0.0008276303058
0.0009185194865
0.001060952194
0.001101628085
0.001073035683
0.0009368277992
0.0007892573486
0.0006927168709
0.0006389528185
0.0006181716008
0.000585358976
0.0004998329808
0.0003643054201
0.0001626706752
0.001522464645
0.001852472264
0.001844740722
0.001572758487
0.001488341193
0.001441570252
0.001367454342
0.001264664155
0.001154919054
0.001069874302
0.001035883817
0.001042324739
0.001014847498
0.0009620889117
0.0009859964357
0.001081175002
0.001104505343
0.001040207053
0.0008913242307
0.0007281936393
0.0006002081636
0.0005362514318
0.0005154272502
0.0004905551435
0.0004274182848
0.0003261238596
0.0001540102409
0.001530731358
0.00202766102
0.001825645585
0.001510138957
0.001423540773
0.001373585146
0.001301403461
0.001204501075
0.001098246701
0.001009929883
0.0009861689046
0.001042007415
0.001069730286
0.001048391391
0.001054121976
0.001103118729
0.001112987038
0.001037902473
0.0008751800579
0.0006879866163
0.0005402575185
0.0004584826073
0.0004298238026
0.0004090707859
0.0003661632496
0.0002942737207
0.0001447701769
0.001180418025
0.001531920635
0.001444768704
0.001304907273
0.001284161768
0.001254905164
0.001198227834
0.001117765597
0.001022436283
0.0009267168412
0.0008979327343
0.0009595059915
0.00102100084
0.001025753869
0.001025736897
0.001049120046
0.001048935067
0.0009729299837
0.0008113524422
0.0006258787763
0.0004782078215
0.0003978193694
0.0003705051291
0.000354471896
0.000324583257
0.0002703252497
0.0001355741854
0.0009576136816
0.001033416955
0.001096510428
0.001109362143
0.001122476866
0.00111010934
0.001072573274
0.001015496709
0.0009402168314
0.0008478013421
0.000811420725
0.0008498806194
0.0009063919729
0.0009237993539
0.000913641327
0.0009084448464
0.0008903541811
0.0008155240219
0.0006766924223
0.0005266794599
0.0004113926525
0.0003581234046
0.0003411328266
0.000327139945
0.0002995864781
0.000250877349
0.0001263101353
0.0009072743315
0.0008486628376
0.0009162072586
0.0009560429452
0.0009677383199
0.0009595578363
0.0009361562917
0.0009024479571
0.0008506263033
0.0007813990589
0.0007427268376
0.0007463404691
0.0007699555477
0.0007765662846
0.0007519243756
0.0007240421326
0.0006845891998
0.0006166931757
0.000517536665
0.0004216806877
0.0003651015793
0.0003461554939
0.0003377445752
0.000318192961
0.0002833708061
0.0002330125508
0.0001167258189
0.0008893379996
0.0008209084881
0.0008272718156
0.0008291133912
0.0008298451978
0.0008155309818
0.0007937745413
0.0007733659828
0.0007509322168
0.0007205306485
0.0006877732324
0.0006611920159
0.0006437944563
0.0006230178227
0.0005831883308
0.0005364965807
0.0004923350396
0.0004417099501
0.0003895341034
0.0003580326084
0.0003526345469
0.0003564576156
0.0003470020878
0.0003159240093
0.0002716123645
0.0002192328852
0.0001073632555
0.0008607410547
0.0008087977934
0.0007674649578
0.0007288015361
0.0006982830353
0.0006701131843
0.000652564233
0.0006530501822
0.0006623426394
0.0006614563339
0.0006366748718
0.0005923295249
0.0005445425261
0.0004994764859
0.0004515903982
0.0004044786184
0.0003669179416
0.000341196292
0.0003312995281
0.0003414972413
0.0003616624295
0.000370574632
0.0003538948639
0.0003147733456
0.0002668014563
0.0002161078338
0.0001002264772
0.0008128357101
0.0007700809073
0.0007138805655
0.0006555990585
0.0006060354327
0.0005705065827
0.0005583782311
0.0005717052891
0.0005963377118
0.0006083389652
0.0005886377777
0.0005389154144
0.0004784618749
0.0004228481289
0.0003756613807
0.000338584103
0.0003152865518
0.0003087318734
0.0003201675301
0.0003446167285
0.0003669314632
0.0003712996461
0.0003521279638
0.0003153381172
0.0002720220002
0.0002250657946
9.876633995e-05
0.0007390829671
0.000703562805
0.0006519045245
0.0005946525684
0.0005439763349
0.0005111635167
0.0005051651713
0.0005239432743
0.0005514597557
0.0005650583309
0.000548233572
0.0005022553297
0.0004436701526
0.0003891146741
0.0003463573726
0.0003176017654
0.0003032674236
0.0003033418361
0.0003158291177
0.0003342980717
0.0003488367436
0.0003511069461
0.0003384230573
0.0003135049138
0.000280969694
0.0002375048267
0.0001021454702
0.0006074772639
0.0005823790987
0.0005462478126
0.0005053423659
0.0004687341967
0.0004471402124
0.0004470460427
0.0004643590206
0.0004854760852
0.0004941948183
0.000480425799
0.000445606178
0.0004003499196
0.0003564571901
0.0003211920474
0.0002969933023
0.0002832858881
0.0002784717776
0.0002805613239
0.000286823101
0.0002935596231
0.0002969696663
0.0002944643472
0.0002845942179
0.0002657368917
0.0002295957409
0.0001032317093
0.000225296965
0.0002233014214
0.0002200696332
0.0002160651393
0.0002122504408
0.0002104388099
0.0002119426663
0.0002159197846
0.0002199052944
0.0002215008898
0.0002194277255
0.0002135987325
0.0002047691322
0.0001941128883
0.0001828693789
0.0001720689391
0.0001623686214
0.0001539860035
0.0001468768099
0.0001410684374
0.0001368189999
0.0001342806927
0.0001329435584
0.0001315076051
0.0001281821553
0.000120134681
9.477372659e-05
0.001045412553
0.0009596051531
0.001105772472
0.001510484735
0.001835449036
0.001977032798
0.001919849482
0.001688738503
0.00154606884
0.001603728285
0.001686513703
0.001766043045
0.00179998305
0.001773426276
0.001753299055
0.001558302897
0.001425243412
0.001274550062
0.00112660556
0.001060966001
0.001251706439
0.001697126669
0.002019404028
0.002122776111
0.002032497138
0.00182752823
0.001713183323
0.001742349213
0.00175499581
0.001711177121
0.001658071162
0.001641019937
0.001577971912
0.001515512414
0.001422416326
0.001319729734
0.001268704259
0.001243566306
0.001180463647
0.000949859835
0.0002290695855
0.001767197835
0.001689989721
0.001595072906
0.001477168747
0.001336908955
0.001195943011
0.001150189366
0.001379506022
0.001866165517
0.002178299162
0.002224279673
0.002100816419
0.001919060395
0.00185340866
0.001885574932
0.001881316021
0.001787395738
0.001575700022
0.00139271416
0.001350183796
0.001349849575
0.001326353118
0.001286460423
0.001250629987
0.001218498365
0.001146430763
0.0009071771459
0.0002190929299
0.001696344595
0.001648167159
0.001574854499
0.001472057287
0.001345537542
0.001220645216
0.00119872289
0.001450211507
0.001955155835
0.002264854713
0.002281067256
0.002133582404
0.001943989791
0.001886700706
0.001918734443
0.001909899744
0.001803261557
0.001535254086
0.001233112612
0.00117866505
0.001270091821
0.001303193164
0.001288914182
0.001200556754
0.001172551538
0.001100287751
0.0008633962408
0.000211877014
0.001525649146
0.001475307814
0.001395843377
0.001293712829
0.001194360252
0.001191160231
0.001432770888
0.001893783892
0.002214002884
0.002249231757
0.002118226405
0.001888263216
0.00178044013
0.001828620995
0.001818210771
0.001690821516
0.001368957993
0.001172095195
0.001346415459
0.001542715067
0.001828384004
0.001879785032
0.001410266734
0.001105906493
0.001057203427
0.0008291371267
0.0002062666339
0.001341899873
0.001316599208
0.001272536013
0.001204522595
0.001127768032
0.0011197477
0.00132050626
0.001735207748
0.002058185461
0.00213262647
0.001982469584
0.001671930535
0.001418090488
0.001465561916
0.001509101712
0.001353437419
0.001123041488
0.001108022485
0.001412242128
0.001774401502
0.002091051338
0.002145849718
0.001774644611
0.001061735651
0.0009084633194
0.0007827708287
0.0002073994602
0.001226686421
0.001216469094
0.001191911505
0.001140256219
0.001064595599
0.001019666431
0.001146120805
0.001512918654
0.001841210194
0.001948658104
0.001937622677
0.001767889219
0.001519193277
0.001483280005
0.001610258615
0.001566787317
0.001365741846
0.001238797137
0.001260261252
0.001536260232
0.001930612051
0.001956629397
0.001392230022
0.0008790501594
0.0008401686553
0.0007327315772
0.0002059867271
0.001239190369
0.001229667632
0.001204311576
0.001146259569
0.001047317869
0.0009347205412
0.0009292459319
0.001197376259
0.001568408617
0.00181396543
0.001938547291
0.001962090843
0.001877454589
0.001814064383
0.001823846078
0.001830469413
0.001883580546
0.00184531058
0.00150750942
0.001240609765
0.001171914231
0.001034229929
0.0007872815404
0.0007195706086
0.0007529212232
0.0006646878262
0.0001999799456
0.001336915905
0.001324747001
0.001289664642
0.001218482815
0.001097745
0.0009359158433
0.0008045983177
0.0009570277579
0.001552211078
0.001892177718
0.002010594874
0.002019298952
0.001983375124
0.001944503006
0.001901167582
0.001916859281
0.002025791211
0.002038658806
0.001800873376
0.001348549508
0.001024166858
0.0008181422996
0.0006960435897
0.0006624693763
0.0006692175166
0.0005947174737