/*--------------------------------*- C++ -*----------------------------------*\
  =========                 |
  \\      /  F ield         | OpenFOAM: The Open Source CFD Toolbox
   \\    /   O peration     | Website:  https://openfoam.org
    \\  /    A nd           | Version:  8
     \\/     M anipulation  |
\*---------------------------------------------------------------------------*/
FoamFile
{
    version     2.0;
    format      ascii;
    class       volScalarField;
    location    "1.8";
    object      nut;
}
// * * * * * * * * * * * * * * * * * * * * * * * * * * * * * * * * * * * * * //

dimensions      [0 2 -1 0 0 0 0];

internalField   nonuniform List<scalar> 
67451
(
0.0001580494293
0.0002001298045
0.0002394668802
0.0002641570155
0.0002653139755
0.0002490524708
0.0002276130749
0.0002623718455
0.0002998273359
0.0003180795523
0.0002895249831
0.0001937186414
0.0001854904048
0.000176707269
0.0001664292984
0.0001605323368
0.000205655927
0.0002435554752
0.0002695553272
0.0002722606104
0.0002699600611
0.0002564333315
0.000311993149
0.0003696877966
0.0003959621695
0.0003317790207
0.0002752064059
0.0003183452876
0.0004135315732
0.0004179088451
0.0003857495818
0.0003341501265
0.0002842142678
0.0002526312922
0.0002419539718
0.0002364746821
0.0002069252428
0.0002061921983
0.0001991357854
0.000192158479
0.0001851261431
0.0001773076639
0.0001677222128
0.0001622886645
0.0002058283547
0.0002471229798
0.0002833279238
0.0002771323851
0.0002883509257
0.0003017113735
0.0003736419798
0.0004400467649
0.0004660108458
0.0004197997876
0.0003267065092
0.0002697147356
0.0003247805501
0.0003290665324
0.0002988626502
0.0002601490505
0.0002377879032
0.0002290762736
0.0002281779257
0.0002248632124
0.0001973529934
0.0001990876784
0.0001944691245
0.0001891192961
0.0001832921989
0.0001766337902
0.0001682750659
0.0001636945842
0.0002058494364
0.0002540818189
0.000305709835
0.0002879870679
0.0003319288611
0.0003371381753
0.0004014558018
0.0004662830537
0.0004917153131
0.0004736187251
0.0004214465778
0.0003604376045
0.0003028505251
0.0002646515731
0.0002394836929
0.0002581020996
0.0002249132245
0.0002165795584
0.0002171259206
0.0002141761038
0.0001879080052
0.0001883009021
0.0001846371752
0.0001803482369
0.0001754164322
0.0001690422308
0.000163100508
0.0001865566812
0.0002307516088
0.0002630901273
0.0002575818369
0.0002390236726
0.0002269039805
0.000302806591
0.0004005628947
0.0004502157736
0.0004179346245
0.0003614596614
0.0003024858918
0.0002490340797
0.0002297858756
0.0002808334304
0.000396950497
0.0002946226373
0.0002210264021
0.0002081324847
0.0002036309044
0.0001778845487
0.0001833535516
0.000181776625
0.0001800770682
0.0001774569303
0.0001729844411
0.000166724031
0.0001759299973
0.0002175267486
0.0002423407627
0.000244739791
0.0002665342854
0.0002298761017
0.0002413857037
0.0002968498225
0.0003664447583
0.0003261297547
0.0002801962066
0.0002442010828
0.0002402820985
0.0003801332623
0.0005864013902
0.0006751026082
0.0005685467778
0.0004126656279
0.0002762806093
0.0002068793089
0.0001719888529
0.0001915283452
0.0001909063927
0.0001898140148
0.0001875298296
0.0001832432096
0.0001760709753
0.0001709962849
0.0002062848791
0.0002423957391
0.0002803998974
0.00035385792
0.00031361064
0.0002823013568
0.0002876292723
0.0002958297401
0.0002949981693
0.0003462067571
0.0003554218958
0.0002882056272
0.0002406242067
0.0003800918819
0.0004946394256
0.0003979864997
0.0002840264677
0.0002136008366
0.0001912528122
0.0001683376932
0.000206943298
0.0002059022967
0.000204367697
0.0002015465916
0.0001968416349
0.0001894384063
0.0001830566326
0.0002179728516
0.0002753695036
0.0003562387002
0.0004381778266
0.000404187345
0.0003549726024
0.0003350716744
0.0003336189226
0.0003725676403
0.0004811112516
0.0004955889207
0.0004254670168
0.0003249662267
0.0002632353993
0.0003190569859
0.0002630502779
0.0002076095207
0.0001873909099
0.0001835023801
0.0001647098277
0.0002234923269
0.0002210325956
0.0002188816591
0.000215641249
0.0002108447295
0.000204131444
0.0002109425459
0.0002863289437
0.0003653468791
0.0004573630844
0.0005185241324
0.0004847129232
0.0004294011518
0.0003896885102
0.0003784620771
0.0004626659902
0.0006086435433
0.0006222515266
0.0005576722404
0.0004485499097
0.0003379842433
0.0002622418789
0.0002146918837
0.0001868554929
0.000178111829
0.0001774140244
0.0001611692533
0.0002395152448
0.0002345407358
0.0002318500143
0.0002284759837
0.0002238191087
0.0002180061933
0.0002604570894
0.0003902181196
0.0004826297951
0.0005551734778
0.0005874126526
0.0005564602688
0.0005026291356
0.0004511048493
0.00041222015
0.0004505949169
0.0005714143253
0.0006622595461
0.0006197138182
0.0005254417462
0.0004270368921
0.0003293636725
0.0002527063582
0.0002042660566
0.0001801571171
0.0001728938491
0.0001575874772
0.0002561353671
0.0002464389956
0.0002434110883
0.0002403542109
0.0002366772187
0.0002313103814
0.0002242229132
0.0002900514332
0.00042783492
0.0005350505178
0.0005832454291
0.0005443149172
0.000481901537
0.000427391453
0.0004034087376
0.0004100531353
0.0004740726424
0.0005534791
0.0005183442145
0.0004475331376
0.0003753103793
0.0003122249803
0.000262301625
0.0002225536574
0.0001912170099
0.0001727504961
0.0001543913525
0.0002773672443
0.0002573729732
0.0002529626599
0.0002512935967
0.0002492162537
0.0002459368124
0.0002388155469
0.0002294230701
0.0003157023875
0.0004407409755
0.0005181272023
0.0004848577381
0.0004299776995
0.0004017984218
0.0003980527594
0.000398216456
0.0004137038422
0.0004542686318
0.0004313612896
0.0003853836054
0.0003398968702
0.0003009898805
0.0002663183154
0.0002329556822
0.0002009047286
0.0001753521281
0.0001519018852
0.0003112812143
0.0002690534243
0.0002608717696
0.0002612301786
0.0002625046026
0.0002612232321
0.0002559040823
0.0002449438707
0.0002416813218
0.0003439136659
0.0004467841821
0.0004176071732
0.000383400586
0.0003879870964
0.0003950697364
0.0003932856549
0.0003917588986
0.0003981888216
0.0003798964577
0.0003513719749
0.0003227132344
0.000294956376
0.00026650366
0.0002368830021
0.0002065894731
0.0001784030378
0.0001500615205
0.0002714905198
0.0002650611267
0.0002668656897
0.0002715126989
0.0002764718717
0.0002778778175
0.0002732007773
0.0002628148012
0.0002473210912
0.0002614251181
0.0003743571854
0.0003590324573
0.0003561210708
0.0003781395238
0.0003910364359
0.0003903476003
0.0003849420644
0.0003768774985
0.0003601470708
0.000339042275
0.0003160634547
0.0002921218418
0.0002667519335
0.0002401697128
0.0002123953596
0.0001834907619
0.0001496986351
0.000264851452
0.0002676604958
0.0002738053452
0.0002835131569
0.0002921283072
0.0002944699438
0.0002898942781
0.0002796493108
0.0002654545865
0.0002501092771
0.00029655361
0.0003086360098
0.0003357674417
0.0003666570728
0.000384632969
0.0003865550823
0.0003810049233
0.0003696750057
0.0003531392192
0.0003333592107
0.0003118303532
0.0002890354401
0.0002658855207
0.0002426441573
0.0002187118317
0.000191403051
0.000152408521
0.000265275051
0.0002714231822
0.0002833531474
0.0003013696267
0.0003143480615
0.0003159190176
0.0003076248871
0.0002938630735
0.0002778838616
0.0002596096623
0.0002537548324
0.0002616679418
0.0003147203753
0.0003518048821
0.0003753357195
0.0003802517227
0.000375356684
0.0003635957751
0.0003471827161
0.0003292369712
0.0003391334848
0.000298188414
0.0002672423042
0.0002453134485
0.0002249778365
0.0002002251043
0.0001579957344
0.0002653407281
0.0002756108025
0.0003013752391
0.0003321582663
0.0003493184857
0.0003511359523
0.0003412322297
0.0003223806488
0.0002994269159
0.0002758238967
0.0002530774174
0.0002404467644
0.0002856368614
0.0003319434523
0.0003624481302
0.0003705155377
0.0003668028923
0.0003554466683
0.0003394419293
0.0003208286462
0.0004076710136
0.0003881385251
0.000281658755
0.0002482889487
0.000229271098
0.0002065165544
0.0001633043491
0.0002654521274
0.0002847350532
0.000330212546
0.0003697859591
0.0003859033337
0.0003867899004
0.0003768087316
0.0003581890793
0.0003324481331
0.0003032586704
0.0002740230959
0.0002503633142
0.0002609931913
0.0003075652682
0.0003438457511
0.0003560385831
0.0003546583673
0.0003451088012
0.0003301134266
0.0003121545303
0.0003182693388
0.0002919214591
0.0002619904712
0.0002450424805
0.0002293057623
0.000208114859
0.0001653431985
0.0002677824088
0.000312849408
0.0003584070096
0.0003894340093
0.000401575298
0.0004011387868
0.0003914645452
0.0003746920273
0.0003521842615
0.0003245674591
0.0002966631169
0.0002739224332
0.0002634942219
0.000285031933
0.0003181988578
0.0003354461897
0.0003375183761
0.0003335671617
0.000319428287
0.0003025283663
0.0002892768577
0.0002713000004
0.0002545805071
0.0002404195469
0.0002254740073
0.00020485115
0.0001631261714
0.0002957720178
0.000432646062
0.00039928337
0.0004041481698
0.0004089895716
0.0004064233166
0.0003961849974
0.0003797453682
0.0003587208489
0.000333408817
0.0003074120127
0.0002886714283
0.000277941555
0.0002787903559
0.0002968999994
0.0003162083912
0.0003247585464
0.0003218451956
0.0003091296113
0.0002941120991
0.0002785616897
0.0002618180428
0.0002460990671
0.000232131119
0.0002171623777
0.0001966753213
0.0001567523637
0.0004369874016
0.0006598388469
0.0005256569316
0.0004375627359
0.0004129396181
0.0004047267075
0.0003935768429
0.0003771623427
0.0003566704373
0.0003322753309
0.0003077765319
0.0002929547289
0.0002879944172
0.0002845720707
0.0002911384015
0.0003205607516
0.0003421497997
0.000342422353
0.0003270211535
0.0003056754863
0.0002829317644
0.0002599636489
0.0002391002798
0.0002217785782
0.0002051427041
0.0001843499217
0.0001472563504
0.0004829740481
0.0007101228265
0.0005579853993
0.0004436303119
0.0004040038844
0.0003944068044
0.0003837834187
0.0003679699278
0.0003480466916
0.0003241659493
0.0003011308139
0.0002894360686
0.0002903824727
0.0002902837132
0.0002945436905
0.0003347939731
0.0003634014133
0.0003643863521
0.0003464189283
0.0003203664603
0.0002921144627
0.0002620146559
0.0002331589219
0.0002096607187
0.0001900357653
0.0001691306483
0.0001362185736
0.0003839737353
0.0005843716138
0.0004599506
0.0003934571877
0.0003809789607
0.0003773128455
0.0003681121264
0.0003534088679
0.0003343689649
0.000311472463
0.0002901330415
0.0002807508534
0.0002850813369
0.0002892921686
0.0002939516238
0.0003333895582
0.0003629207883
0.0003641423781
0.0003463474772
0.0003202448884
0.0002907059862
0.0002564319553
0.0002217124357
0.000193639765
0.0001724100946
0.0001528875974
0.0001252055043
0.0002910283655
0.0004448252121
0.0003638247098
0.0003511572699
0.0003562872313
0.0003557154066
0.0003478888622
0.0003345542215
0.0003166958557
0.0002956942322
0.0002767282595
0.0002691859484
0.0002743476008
0.000280321471
0.0002846432024
0.0003150840408
0.0003416337153
0.0003436999597
0.0003284709077
0.0003049040171
0.0002747193043
0.0002379823871
0.0002016356646
0.0001740200225
0.000154499976
0.0001378761372
0.0001150014763
0.0002461737791
0.0003301915019
0.0003010621585
0.0003176110134
0.0003290877205
0.0003303350519
0.0003239651193
0.000312077513
0.0002960728274
0.0002781051925
0.0002626139475
0.0002565762042
0.0002607870545
0.0002665689072
0.0002700648794
0.0002888257432
0.0003097082986
0.0003127068012
0.0003004120219
0.0002775842651
0.0002456781897
0.0002091569792
0.0001772046439
0.0001551773539
0.0001394266647
0.0001254943316
0.0001054448603
0.0002308336477
0.0002610714276
0.0002626129228
0.0002858498623
0.000298975343
0.0003017522517
0.0002969756577
0.0002870304184
0.0002740434964
0.0002602783108
0.0002490419143
0.0002441017999
0.000246047986
0.0002499111918
0.0002519406118
0.000260887671
0.0002743720592
0.0002763768748
0.0002638345322
0.0002395753365
0.0002083282873
0.0001781704944
0.0001560351518
0.0001410954233
0.0001285875336
0.0001159284251
9.633533358e-05
0.0002225496947
0.000230803458
0.0002373040144
0.0002555478512
0.0002675012232
0.0002710908184
0.000268012761
0.0002607636034
0.0002519350943
0.0002433265831
0.0002363017058
0.0002320137181
0.0002310431394
0.0002315331659
0.0002308622738
0.0002318233992
0.0002364144933
0.000234041882
0.00021959801
0.0001965381343
0.0001724941109
0.0001541263185
0.000141884022
0.0001319570263
0.0001215230014
0.0001095009399
8.890437271e-05
0.0002147500652
0.0002163141013
0.0002193366994
0.0002291880981
0.0002372068426
0.0002402082286
0.0002387626082
0.0002350990431
0.0002312568904
0.0002276592856
0.000223949534
0.0002199539991
0.0002162005417
0.0002126260153
0.0002080446193
0.000202501681
0.000198256322
0.000190448142
0.0001762702052
0.0001600797329
0.000147460926
0.0001393533723
0.0001330127169
0.0001260127522
0.0001174699048
0.0001068240732
8.584778623e-05
0.0002060194768
0.0002055190413
0.0002054573695
0.000208397566
0.0002114764928
0.0002127880099
0.0002127535423
0.0002128421405
0.0002134909189
0.0002135829388
0.0002119314161
0.0002080424916
0.0002023068138
0.000195262645
0.0001868479262
0.0001769375099
0.0001671091086
0.0001567965391
0.0001462715792
0.0001380848999
0.0001332046693
0.0001299934104
0.0001265055871
0.0001217640569
0.0001154556113
0.0001068399915
8.677399579e-05
0.0001954962386
0.0001944861476
0.0001931126052
0.0001923548811
0.0001918735436
0.0001916721202
0.0001927109284
0.0001954573128
0.000198743229
0.000200660749
0.0001999646026
0.0001962545845
0.0001897961714
0.0001811709484
0.0001709382593
0.0001597195772
0.000148821778
0.0001391743731
0.0001315599564
0.000126515512
0.000123616291
0.0001217485761
0.0001198408463
0.0001171427648
0.0001130464882
0.0001062740305
8.716521136e-05
0.0001756096297
0.0001753628549
0.0001745308886
0.0001733369371
0.0001719814161
0.000171319731
0.0001725819295
0.0001757734407
0.000179363549
0.0001816158178
0.0001815297929
0.0001787705821
0.0001734416315
0.0001659583305
0.0001569740087
0.0001473427233
0.00013801964
0.0001296750097
0.000122577814
0.0001167889817
0.0001124077806
0.0001094802921
0.0001076319214
0.0001060041328
0.000103557264
9.860255476e-05
8.247364552e-05
0.0004479881572
0.0005258337875
0.0008796433316
0.001109706179
0.001191260869
0.001105581154
0.0007570684123
0.0006828510799
0.0008559480548
0.0009532918591
0.000991086497
0.0008505975794
0.0007642723837
0.0006692443484
0.000565149821
0.0004898132819
0.0005887357473
0.0009845022956
0.001228137205
0.001312134394
0.001250796953
0.0008809891874
0.0008426965389
0.0010700973
0.001099705603
0.0009580402004
0.0008116559686
0.0008968318325
0.0009823467977
0.0009819312991
0.0008848538435
0.0007742516313
0.000756776969
0.0007802298971
0.0007806130316
0.0006593686884
0.000200235937
0.0009983822501
0.0009434104681
0.0008753054586
0.0007956078352
0.0007019393315
0.0005953465824
0.0005249483061
0.0006432164025
0.0010824426
0.001356322249
0.001424212489
0.001401489716
0.001088146191
0.001132166499
0.001304128742
0.001336353388
0.001216416933
0.0008675847035
0.0007002252636
0.0006729975607
0.0006946952267
0.0006989747495
0.0006989748252
0.0007259029005
0.0007515316978
0.0007419575831
0.0006146311393
0.000189842181
0.0009337964575
0.0009115409591
0.0008587719412
0.0007842193336
0.0006956283823
0.0005972452115
0.0005405444395
0.000664409927
0.001116473477
0.001443240616
0.001493910078
0.001457273258
0.001154249444
0.00115846479
0.001344330767
0.001380193195
0.00127148572
0.0009605562441
0.0006378731494
0.0005307467589
0.0005963916367
0.0006919120797
0.0006841077667
0.0006725281599
0.0006876206071
0.0006813581417
0.0005659896551
0.0001814689623
0.0007990440831
0.0007665268858
0.00071098945
0.0006432257519
0.0005686126725
0.0005308864113
0.0006523312463
0.001037595262
0.001310704727
0.001356537436
0.001259800798
0.0008411054843
0.0008528354429
0.001163287259
0.001218584355
0.001097394981
0.0007021629475
0.0004997605191
0.0006675735111
0.0009101015451
0.001216972336
0.001214612684
0.0008397653232
0.0006726563295
0.0006394826581
0.000527973369
0.0001737187073
0.0006313654314
0.0006249029888
0.0006076163754
0.0005738219218
0.0005239365402
0.0004901022877
0.000574041076
0.0008864517323
0.001139628334
0.001158304148
0.0008826217246
0.0005935774557
0.0004747645841
0.0006356117812
0.0007423153019
0.0005756838842
0.000422219006
0.000430675172
0.000737422111
0.001211092565
0.001568800013
0.001706361426
0.001337870069
0.0006933925187
0.0005391150016
0.0005030955965
0.0001719805951
0.000570610718
0.0005768411685
0.0005729905501
0.0005499073673
0.0005034864636
0.0004512367847
0.0004733261349
0.0007188777209
0.001024862043
0.001116239257
0.0009130696953
0.0006223953346
0.0004934811462
0.0005517659957
0.0007183526165
0.000691885582
0.0006405855178
0.000546734499
0.000538367823
0.000739531282
0.001263232339
0.001310050863
0.0008633505301
0.0005162712205
0.0004877609651
0.0004764184375
0.0001694232919
0.0006209221595
0.0006333090031
0.0006284119873
0.0005970548275
0.000533210914
0.0004459356649
0.0003814921342
0.0004914994025
0.0007884233547
0.00106870336
0.001111154309
0.00101128755
0.0008241748397
0.0008900593326
0.0009818240098
0.00113321708
0.001297611142
0.001231157922
0.0008076753017
0.0005680824393
0.0006117352651
0.0005470968211
0.0004309844294
0.0003938628735
0.0004269208135
0.0004260377309
0.0001654162029
0.000736803474
0.000751741798
0.0007404176507
0.0006954386147
0.0006107172115
0.0004956073019
0.0003808489466
0.0003848711878
0.000776641591
0.00123087735
0.001377249952
0.00135669137
0.001267519927
0.001262532101
0.001338700215
0.001500533572
0.001617294342
0.001629924861
0.001377111243
0.0009209642549
0.000597505754
0.0004374208883
0.0003669542991
0.0003524245279
0.0003763212853
0.0003750433488
0.0001605189168
0.0008652014144
0.0008738521939
0.0008527626096
0.0007988878798
0.000700506385
0.0005597954164
0.0004061766046
0.0004180041036
0.0009364229367
0.001392281158
0.001522875819
0.00148502861
0.001381679022
0.001355557481
0.0014408183
0.001594387795
0.001645453994
0.001633531506
0.00148449376
0.001049079683
0.0007069905735
0.0004987682558
0.0003999225469
0.0003492861556
0.0003422395713
0.0003327921129
0.0001557261806
0.0009668199511
0.0009623539935
0.0009288374389
0.000882005873
0.0008006904497
0.0006710686495
0.0005107660217
0.0004114685847
0.0007253591747
0.001327326966
0.001501014927
0.001495579463
0.001428767856
0.001400883125
0.001414860601
0.001471134698
0.001483145922
0.001441715792
0.001289871743
0.001023225174
0.0008185320692
0.0006257348879
0.0004838821181
0.0003828499864
0.0003317620589
0.0003032551342
0.000151386635
0.001035850958
0.001016984942
0.0009830028478
0.0009434784643
0.0008902460941
0.0007881089797
0.0006331697642
0.0004653896649
0.0004019611677
0.0007585462954
0.00113267516
0.001282808641
0.001357955613
0.001376982765
0.001365481041
0.001367325542
0.001333956806
0.001265550492
0.0011546808
0.001017202297
0.0008566080741
0.0006940377098
0.0005470717709
0.0004229178501
0.0003392124175
0.0002874346971
0.0001476788188
0.001033904928
0.001040206191
0.001021920645
0.0009966248734
0.0009610539353
0.0009014885647
0.000781128032
0.0005963396499
0.0004094577342
0.0003962328811
0.0006569093954
0.0009439487129
0.001199523599
0.001305418901
0.001314945921
0.001305834155
0.001270570265
0.001212952765
0.00112235198
0.001015458093
0.0008835275413
0.0007347642123
0.000587259669
0.0004556917763
0.0003548874742
0.0002834075049
0.0001448326959
0.001064154935
0.001060443665
0.001056717927
0.001051089624
0.001032597688
0.0009900257155
0.0009082843746
0.000756834263
0.0005404103193
0.0003775350749
0.000396556469
0.0006410044376
0.000999071407
0.001217102843
0.001268769108
0.001269923362
0.001240255594
0.001187214265
0.001102362527
0.001006813234
0.0009022270471
0.0007595343337
0.0006179501895
0.0004895903179
0.0003806057699
0.0002910892592
0.0001434538338
0.001070695772
0.001077979078
0.001099379885
0.001116251518
0.001113040272
0.001079028255
0.001008280348
0.0008955933283
0.0007018197107
0.0004792750921
0.0003545846264
0.0004568128428
0.0008032767598
0.001115360657
0.001219687385
0.001241468052
0.001219682977
0.001167552389
0.001086516043
0.001013227753
0.0009518421392
0.0008022850275
0.0006576552569
0.0005365503598
0.0004223671307
0.0003116264623
0.0001443265559
0.001055044629
0.001094508059
0.001141930964
0.001176019252
0.001183566803
0.001157401619
0.001094452575
0.0009928522993
0.0008211033703
0.000599429092
0.0004114621928
0.0003853235488
0.0006348401872
0.001002361967
0.00115879287
0.001205385942
0.00119217267
0.001142479705
0.001074143554
0.001090749005
0.001262710237
0.00103180028
0.000748628213
0.0006055732293
0.0004781410885
0.0003412305913
0.0001472450652
0.001051252025
0.001114419717
0.001175934396
0.0012157492
0.00122680449
0.001204635283
0.001146723901
0.001052710689
0.0008900802209
0.0006824065713
0.0004964380821
0.0003986134035
0.0005194860753
0.0008755678839
0.0010761969
0.001150124331
0.001147390113
0.001099342122
0.001035651507
0.001092803286
0.00175552058
0.001573106629
0.0009074760603
0.0006579541393
0.0005222151889
0.0003642778946
0.0001499538535
0.001056133252
0.001145171227
0.001207634188
0.001242173081
0.001252844021
0.001232685888
0.001176291574
0.001087235876
0.0009618950352
0.0007784761262
0.000609647084
0.0004926705268
0.000495905886
0.0007310281489
0.0009656194169
0.001069449704
0.001083933275
0.001051129955
0.0009676763092
0.0009310677876
0.001033147651
0.0009351287472
0.0007233597722
0.0006314207306
0.0005197369244
0.0003649046417
0.0001500336328
0.001074220908
0.001178931038
0.001260826047
0.001276726014
0.001279581405
0.001257494266
0.00120004605
0.001112026237
0.0010050507
0.0008844600919
0.0007540906367
0.0006524583701
0.0005873999952
0.0006629914088
0.0008482863902
0.0009750266211
0.001012229477
0.001034337194
0.0009195182837
0.0007954674186
0.0007363573853
0.0006745651438
0.0006276882945
0.0005808880576
0.0004886128177
0.0003467440941
0.0001469279242
0.001137465249
0.001394229865
0.001399021601
0.001334101595
0.001303929266
0.001269495983
0.001207370764
0.001118255558
0.001020216037
0.0009339613679
0.0008639836671
0.0008111423476
0.0007452315146
0.0007176345679
0.000796444235
0.0009199469468
0.0009552167073
0.0009304239213
0.0008123180278
0.0006843611268
0.0006006514881
0.0005540329653
0.0005360137236
0.0005075620602
0.0004334027792
0.0003158873627
0.0001410508047
0.001320123189
0.00160627723
0.00159956636
0.001363733457
0.001290535777
0.00124998146
0.001185715909
0.001096586773
0.001001426873
0.0009276844923
0.0008982111211
0.0009037958215
0.0008799702674
0.0008342232995
0.0008549532835
0.0009374822874
0.0009577120295
0.0009019589956
0.0007728630366
0.000631413447
0.0005204377823
0.0004649811321
0.0004469245508
0.0004253580328
0.0003706122817
0.0002827802887
0.0001335413872
0.001327295264
0.001758190922
0.001583013618
0.001309439028
0.001234348059
0.001191032086
0.001128443467
0.001044419551
0.0009522864501
0.0008757069048
0.0008551035005
0.0009035207005
0.0009275590521
0.0009090560529
0.0009140248525
0.000956509906
0.0009650669139
0.0008999612418
0.000758865074
0.0005965503605
0.0004684549661
0.000397548184
0.0003726981727
0.0003547032661
0.0003174982733
0.0002551631496
0.0001255293691
0.001023538416
0.001328330375
0.001252755988
0.001131482753
0.0011134933
0.001088125115
0.001038980198
0.0009692114516
0.0008865514614
0.0008035531862
0.0007785942644
0.0008319840658
0.000885306026
0.0008894273099
0.0008894124511
0.0009096880466
0.0009095278808
0.0008436240719
0.0007035206164
0.0005426969883
0.0004146519757
0.0003449473616
0.0003212631879
0.0003073607677
0.0002814444036
0.0002343975031
0.0001175555598
0.0008303448072
0.0008960766799
0.0009507818899
0.0009619257799
0.0009732969397
0.0009625730079
0.0009300254213
0.0008805343214
0.0008152591767
0.0007351257843
0.0007035800198
0.0007369283401
0.0007859291529
0.0008010230261
0.0007922149407
0.0007877091541
0.0007720229346
0.0007071379081
0.0005867574096
0.0004566816307
0.000356716792
0.0003105271187
0.0002957945465
0.0002836613054
0.0002597697616
0.0002175342768
0.0001095227324
0.0007866952179
0.0007358747103
0.0007944411273
0.0008289825653
0.0008391234099
0.0008320300258
0.0008117384773
0.0007825099417
0.0007375754135
0.0006775485156
0.0006440157762
0.0006471490486
0.0006676256043
0.000673357756
0.0006519907874
0.0006278142001
0.0005936047422
0.0005347322879
0.0004487539675
0.0003656375461
0.0003165779201
0.0003001497193
0.0002928565465
0.0002759033615
0.0002457091785
0.0002020437532
0.0001012122021
0.0007711422823
0.0007118075307
0.0007173249887
0.0007189218165
0.0007195563541
0.0007071444833
0.0006882794591
0.0006705831671
0.0006511308241
0.0006247696034
0.0005963656381
0.000573317081
0.0005582316968
0.0005402163422
0.0005056802946
0.0004651940253
0.0004269017174
0.0003830048619
0.0003377633382
0.0003104484411
0.0003057676949
0.0003090825552
0.0003008836287
0.0002739359104
0.000235513445
0.0001900954349
9.309395677e-05
0.0007463455874
0.0007013057584
0.000665466205
0.0006319413077
0.0006054788463
0.0005810528436
0.0005658361627
0.0005662574764
0.000574314882
0.0005735463072
0.0005520583178
0.0005136065643
0.0004721705934
0.0004330939727
0.0003915720957
0.0003507216257
0.0003181528986
0.0002958497327
0.0002872682385
0.0002961105574
0.0003135956192
0.0003213232746
0.0003068602623
0.0002729381275
0.0002313418916
0.0001873856857
8.690568536e-05
0.0007048066804
0.0006677341061
0.0006190030104
0.000568467343
0.0005254909237
0.0004946839816
0.0004841675134
0.0004957233408
0.0005170820138
0.0005274882383
0.0005104053759
0.0004672912558
0.0004148721846
0.0003666496953
0.0003257342292
0.0002935846486
0.000273383417
0.0002676998508
0.00027761561
0.000298815341
0.0003181642864
0.000321951863
0.0003053281387
0.0002734277972
0.000235868567
0.0001951530617
8.563960283e-05
0.0006408556115
0.0006100561973
0.0005652635113
0.0005156205687
0.0004716794118
0.000443227543
0.0004380263963
0.00045430882
0.0004781682655
0.0004899595425
0.0004753708479
0.0004355032711
0.0003847042757
0.0003373994269
0.0003003247352
0.0002753908547
0.0002629615882
0.0002630260796
0.0002738537032
0.0002898680017
0.0003024743709
0.000304442811
0.0002934446342
0.0002718381996
0.0002436270397
0.0002059388625
8.856961908e-05
0.0005267406064
0.0005049780928
0.0004736488088
0.0004381798656
0.0004064370724
0.0003877130144
0.0003876313607
0.0004026433845
0.0004209539259
0.0004285139216
0.0004165748665
0.0003863829104
0.0003471413888
0.0003090821824
0.0002785039231
0.0002575212888
0.0002456356361
0.000241461319
0.0002432731229
0.0002487026436
0.0002545438133
0.000257500613
0.0002553282357
0.0002467698712
0.0002304187539
0.0001990809375
8.95114782e-05
0.0001953537577
0.0001936234313
0.000190821158
0.0001873488705
0.0001840411511
0.000182470283
0.0001837742644
0.0001872228081
0.0001906786332
0.0001920621743
0.0001902645466
0.000185210253
0.0001775541461
0.0001683141673
0.000158564976
0.0001491999693
0.0001407888718
0.0001335203418
0.0001273559884
0.0001223195683
0.0001186348928
0.0001164339312
0.000115274502
0.0001140293872
0.0001111458954
0.0001041679573
8.217759756e-05
0.0009064749358
0.0008320713916
0.0009588126622
0.001309738046
0.001591514181
0.001714281163
0.00166469735
0.001464300919
0.00134059233
0.001390588679
0.00146237137
0.001531330738
0.001560760038
0.001537733009
0.001520280881
0.001351201916
0.001235826018
0.00110515982
0.0009768770865
0.0009199610388
0.001085351605
0.001471574795
0.001751021135
0.001840654729
0.001762373813
0.001584644802
0.001485496632
0.00151078645
0.00152175191
0.001483756322
0.001437707959
0.001422923065
0.001368254614
0.001314096201
0.001233372826
0.001144333553
0.001100089469
0.001078292319
0.001023576022
0.0008236201039
0.0001986253465
0.001532334477
0.001465387399
0.001383085048
0.001280850343
0.001159231077
0.001036999501
0.0009973263886
0.001196166285
0.001618147962
0.001888798799
0.001928667976
0.001821613232
0.001664011845
0.001607085765
0.001634977463
0.001631284327
0.001549845626
0.001366284223
0.001207617901
0.001170740204
0.001170450521
0.001150076846
0.001115485917
0.00108441746
0.001056556222
0.0009940665286
0.0007866103762
0.0001899747124
0.001470897514
0.001429122946
0.001365553575
0.001276418117
0.001166712845
0.001058418688
0.001039409647
0.001257474761
0.001695311168
0.001963851178
0.001977908229
0.001850025083
0.001685627818
0.001635953038
0.001663730091
0.001656069531
0.001563603304
0.001331214084
0.00106922782
0.001022016646
0.00110129245
0.001129994391
0.001117613064
0.00104099886
0.001016715784
0.0009540560704
0.0007486481685
0.0001837178566
0.001322887555
0.001279236638
0.001210333046
0.001121775649
0.001035626994
0.001032852028
0.001242351909
0.001642095373
0.001919756669
0.001950303112
0.001836708159
0.001637306814
0.001543813814
0.001585592022
0.001576565257
0.001466105962
0.001187018636
0.00101631976
0.001167472468
0.001337682621
0.001585384828
0.001629953748
0.001222836827
0.0009589277555
0.0009166977359
0.0007189422428
0.0001788531454
0.001163558654
0.001141620506
0.001103413336
0.001044438901
0.0009778849861
0.0009709303586
0.001145007412
0.001504594155
0.001784647339
0.001849194613
0.001718993261
0.001449725171
0.001229621125
0.001270783674
0.001308536666
0.001173560774
0.0009737853792
0.0009607624445
0.00122455059
0.001538577604
0.001813146044
0.001860660807
0.0015387884
0.0009206270841
0.0007877254768
0.0006787381133
0.0001798354325
0.001063657257
0.001054797851
0.001033503977
0.0009887136765
0.0009231083482
0.0008841501679
0.0009937981996
0.001311847665
0.001596508494
0.001689676145
0.00168010676
0.001532930997
0.001317287446
0.001286147265
0.001396250258
0.001358556097
0.001184230265
0.001074156974
0.00109276839
0.001332085463
0.001674027648
0.001696586185
0.001207197507
0.0007622213465
0.0007285074895
0.0006353493215
0.0001786104976
0.001074499511
0.001066242377
0.001044256158
0.0009939192783
0.000908126973
0.0008104938792
0.0008057465983
0.001038241543
0.001359962657
0.001572884371
0.001680908639
0.001701322779
0.001627934764
0.00157296941
0.001581450834
0.001587193903
0.001633247122
0.001600062965
0.001307156338
0.001075728527
0.001016162856
0.0008967770731
0.0006826490978
0.0006239372662
0.0006528555225
0.0005763487792
0.0001734020389
0.001159237242
0.001148685662
0.001118265795
0.00105654407
0.0009518523838
0.0008115304572
0.0006976650894
0.0008298359913
0.00134591768
0.001640702543
0.001743381575
0.001750928267
0.001719778396
0.001686072446
0.001648496303
0.001662103292
0.001756559381
0.001767716832
0.001561532811
0.001169323418
0.0008880518808