/*--------------------------------*- C++ -*----------------------------------*\
  =========                 |
  \\      /  F ield         | OpenFOAM: The Open Source CFD Toolbox
   \\    /   O peration     | Website:  https://openfoam.org
    \\  /    A nd           | Version:  8
     \\/     M anipulation  |
\*---------------------------------------------------------------------------*/
FoamFile
{
    version     2.0;
    format      ascii;
    class       volScalarField;
    location    "1.8";
    object      O2;
}
// * * * * * * * * * * * * * * * * * * * * * * * * * * * * * * * * * * * * * //

dimensions      [0 0 0 0 0 0 0];

internalField   nonuniform List<scalar> 
67451
(
0.2100001817
0.2099998028
0.2099997539
0.2099997802
0.2099997644
0.2099997593
0.2099997988
0.2099997884
0.2099997361
0.2099995996
0.2099998344
0.2100001125
0.2100001588
0.2100001786
0.210000155
0.2100000118
0.209999708
0.2099997138
0.2099997272
0.2099997703
0.209999661
0.20999976
0.209999609
0.2099995278
0.2099992691
0.2099994111
0.2099997757
0.2099997793
0.2099993393
0.2099994776
0.209999791
0.2100000879
0.2100002271
0.2100002245
0.2100001844
0.2100001242
0.2099999789
0.2099998555
0.2099999038
0.209999957
0.21
0.2100000131
0.2099999811
0.2099998712
0.2099996559
0.2099997085
0.209999765
0.2099998355
0.2099997874
0.2099997816
0.209999496
0.209999435
0.2099991258
0.2099990312
0.2099993953
0.2099997677
0.2099996755
0.2099998474
0.2100000298
0.2100001845
0.2100001685
0.2100001001
0.2100000771
0.2100000629
0.2100000107
0.2099997262
0.2099997675
0.2099998117
0.2099998432
0.2099998466
0.2099998123
0.2099997379
0.2099995889
0.2099996917
0.2099992955
0.2099997039
0.2099992592
0.2099993274
0.2099992776
0.2099994171
0.2099991093
0.2099988708
0.2099986656
0.2099987587
0.2099992958
0.2099997766
0.2099998785
0.209999866
0.2100000421
0.2100000541
0.210000085
0.2100001266
0.2100001355
0.2099995732
0.2099996161
0.2099996416
0.2099996423
0.2099996177
0.2099995894
0.2099995749
0.2099996137
0.209999664
0.2099997059
0.2099997602
0.2099998471
0.2099996797
0.2099994477
0.2099989952
0.2099988804
0.2099989696
0.2099993992
0.2099997353
0.2099998148
0.2099998529
0.2099994308
0.2100001976
0.2100001196
0.2100000906
0.2100001518
0.2100001918
0.2099993242
0.2099993618
0.209999386
0.209999398
0.2099994011
0.2099994137
0.2099994837
0.2099995711
0.2099995613
0.2099996487
0.2099996362
0.2099998957
0.209999892
0.2099997292
0.2099991121
0.2099993553
0.2099996896
0.209999884
0.2099996531
0.2099988577
0.2099982415
0.2099946413
0.2099969137
0.2099999074
0.2100006037
0.2100004204
0.2100003016
0.2099990755
0.2099991212
0.2099991611
0.209999196
0.2099992274
0.2099992627
0.2099993558
0.2099995285
0.2099995769
0.2099996049
0.2099993607
0.2099997345
0.2099999243
0.2099999293
0.2099997298
0.2099998615
0.2099998739
0.210000054
0.2100001506
0.2099999831
0.2099997097
0.2099987026
0.2100004652
0.2100009091
0.2100005916
0.2100004069
0.2100002948
0.2099989792
0.209999012
0.2099990519
0.2099990942
0.2099991367
0.2099991802
0.2099992761
0.2099994502
0.2099994784
0.2099994896
0.2099990993
0.2099993379
0.209999772
0.2099999178
0.2099999076
0.2099999422
0.2099994557
0.2099995796
0.2100001279
0.2100002969
0.2099999813
0.2100000893
0.2100004583
0.2100003249
0.2100003257
0.210000383
0.2100002924
0.209998932
0.2099989602
0.2099989991
0.2099990445
0.2099990949
0.2099991602
0.2099993001
0.2099994339
0.2099993621
0.2099993528
0.2099989182
0.2099989389
0.2099993714
0.2099997312
0.2099997791
0.2099997871
0.2099983209
0.2099984813
0.2099994431
0.2100004514
0.2100005369
0.2100002943
0.2100001638
0.2100000868
0.2100002124
0.2100003448
0.2100002686
0.2099989036
0.2099989227
0.2099989609
0.2099990091
0.2099990601
0.2099991179
0.2099992126
0.209999035
0.2099989117
0.2099990472
0.2099986349
0.2099983613
0.2099986365
0.2099990963
0.2099997049
0.2099996663
0.2099995469
0.209997032
0.2099975837
0.2099993784
0.2100007147
0.2100009019
0.2100004766
0.2100001393
0.2100001439
0.2100002785
0.2100002305
0.2099988862
0.2099988901
0.2099989317
0.2099989896
0.2099990542
0.2099991183
0.2099992112
0.209999408
0.2099992004
0.2099989094
0.2099983596
0.2099984039
0.2099990508
0.2099996469
0.2099998368
0.2099998097
0.2100000547
0.2099985425
0.2099994842
0.2100007773
0.210001201
0.2100008823
0.2100004354
0.2100001501
0.2100000975
0.2100002029
0.2100001917
0.2099989571
0.2099988937
0.2099989161
0.2099989803
0.209999062
0.2099991433
0.2099992077
0.2099993139
0.2099995401
0.2099992685
0.2099985754
0.2099989033
0.2099995817
0.2099998483
0.2099997899
0.2099997352
0.2099999783
0.2099998123
0.2100005356
0.2100009816
0.2100009002
0.2100006411
0.2100004092
0.2100002232
0.2100001304
0.2100001755
0.2100001745
0.2099990362
0.2099989303
0.2099989238
0.2099989893
0.2099990941
0.2099991988
0.209999283
0.2099993589
0.2099994845
0.2099996377
0.2099987955
0.2099995168
0.2099998781
0.2099999142
0.2099997892
0.2099997815
0.2099999253
0.2100001585
0.2100005825
0.2100007215
0.2100006608
0.2100005592
0.2100004268
0.210000278
0.2100001795
0.2100001925
0.2100001858
0.2099988555
0.2099988211
0.2099988855
0.2099989921
0.209999131
0.2099992616
0.2099993583
0.209999434
0.209999522
0.209999722
0.2099993807
0.2099999184
0.2099999254
0.2099998976
0.2099998244
0.2099998629
0.2099999647
0.210000183
0.2100004307
0.2100005376
0.2100005513
0.2100005412
0.210000465
0.2100003371
0.2100002401
0.2100002384
0.2100002234
0.2099987379
0.2099988045
0.2099989088
0.2099990337
0.2099991851
0.2099993207
0.20999942
0.2099994862
0.209999558
0.2099996938
0.2099998149
0.2099999294
0.2099998225
0.2099998507
0.2099998704
0.2099999596
0.2100000592
0.2100002286
0.2100004179
0.2100005486
0.2100007078
0.2100011386
0.2100007796
0.2100004715
0.2100003137
0.2100002853
0.2100002674
0.2099987377
0.2099988555
0.2099989944
0.209999134
0.2099992741
0.2099993848
0.2099994658
0.2099995364
0.209999613
0.2099997105
0.209999882
0.2099998753
0.2099997144
0.2099997997
0.2099999201
0.2100000579
0.210000172
0.2100003088
0.2100004441
0.2100005066
0.210000253
0.2100003228
0.2100002585
0.2100002966
0.2100003089
0.2100003086
0.2100003062
0.2099987773
0.2099989061
0.2099991092
0.2099992816
0.2099994322
0.2099995402
0.2099996123
0.2099996587
0.2099997115
0.2099997836
0.209999873
0.2099998633
0.2099997055
0.2099997166
0.2099999503
0.210000129
0.2100002713
0.2100004321
0.2100007281
0.2100012175
0.210000658
0.2100052152
0.2100025575
0.210001307
0.2100006909
0.21000043
0.2100003741
0.2099988661
0.2099990617
0.2099993208
0.2099995653
0.2099997144
0.209999821
0.209999904
0.2099999515
0.2099999567
0.2099999439
0.209999927
0.2099998842
0.2099997893
0.2099996453
0.2099999178
0.2100001223
0.2100002587
0.2100003779
0.2100005873
0.2100006243
0.2100008822
0.2100018401
0.2100008183
0.2100005697
0.2100004371
0.2100003655
0.2100003655
0.2099989996
0.2099991493
0.2099995178
0.2099996577
0.2099997986
0.2099998903
0.2099999716
0.2100000237
0.2100000186
0.2099999493
0.2099998793
0.2099998264
0.2099997767
0.209999618
0.2099998012
0.2100000255
0.2100001676
0.2100004578
0.2100010114
0.2100006326
0.2100006877
0.2100010055
0.2100006725
0.2100004996
0.2100003949
0.2100003495
0.2100003558
0.2099992345
0.209999048
0.2099998079
0.2099998304
0.2099998953
0.2099999485
0.2100000135
0.2100000554
0.2100000377
0.2099999424
0.2099998386
0.2099997569
0.2099996801
0.2099995609
0.2099996521
0.2099997823
0.2099998632
0.2100000547
0.2100003011
0.2100002657
0.2100003805
0.2100005551
0.2100005233
0.2100004617
0.2100003884
0.2100003458
0.2100003278
0.2099993492
0.2099972651
0.209999812
0.2099999439
0.2100000187
0.210000054
0.2100001067
0.2100001355
0.2100001
0.2099999845
0.2099998601
0.2099997422
0.2099996212
0.2099994685
0.2099994241
0.2099995308
0.2099996407
0.209999754
0.2099998821
0.2099999291
0.2100000863
0.2100003005
0.2100004278
0.2100004391
0.2100003811
0.2100003187
0.2100002509
0.2100000798
0.2099923604
0.209999997
0.2100006885
0.2100004329
0.2100002779
0.2100002512
0.2100002398
0.210000176
0.210000049
0.2099999181
0.2099997722
0.2099996316
0.2099994588
0.2099993163
0.2099994134
0.2099995
0.2099995277
0.2099996014
0.2099996858
0.2099998854
0.2100001878
0.2100004045
0.2100004348
0.21000035
0.2100002352
0.21000011
0.2100011412
0.2099990506
0.210001981
0.2100010249
0.210000588
0.2100003906
0.2100003434
0.2100003077
0.2100002256
0.21000011
0.2099999843
0.2099998267
0.2099996831
0.2099995272
0.2099993701
0.2099994309
0.2099994709
0.2099994702
0.2099995508
0.2099996804
0.2099999335
0.2100002682
0.2100004566
0.2100004135
0.2100002559
0.2100000759
0.2099999201
0.2100003978
0.2100020821
0.2100015183
0.2100007598
0.2100005152
0.2100004057
0.2100003691
0.2100003213
0.210000236
0.2100001458
0.2100000375
0.2099998897
0.2099997531
0.2099996125
0.2099994799
0.2099995205
0.2099995313
0.2099995509
0.2099996663
0.209999858
0.2100001605
0.2100004286
0.2100004695
0.2100003029
0.210000077
0.2099998598
0.2099997235
0.2099998755
0.2100015527
0.2100006936
0.2100004864
0.2100003919
0.2100003603
0.2100003331
0.2100002843
0.2100002174
0.2100001567
0.2100000682
0.2099999491
0.2099998353
0.2099997106
0.2099996069
0.2099996356
0.2099996402
0.2099997017
0.2099998746
0.2100001335
0.2100003903
0.2100004773
0.2100003386
0.2100000954
0.2099998534
0.2099996448
0.2099995648
0.2099997887
0.2100006581
0.2100002612
0.2100002996
0.2100002807
0.2100002814
0.2100002654
0.2100002296
0.2100001846
0.2100001403
0.2100000703
0.2099999929
0.209999919
0.2099998217
0.209999748
0.2099997868
0.2099998143
0.2099999284
0.2100001394
0.2100003519
0.2100004353
0.2100003247
0.2100000984
0.2099998653
0.2099996541
0.2099994882
0.2099994633
0.2099998502
0.2100002512
0.210000116
0.2100001924
0.2100002054
0.2100002144
0.210000207
0.2100001837
0.2100001458
0.2100001025
0.2100000516
0.2100000205
0.209999998
0.2099999485
0.2099999131
0.2099999629
0.2100000267
0.2100001527
0.2100002973
0.2100003514
0.2100002587
0.2100000669
0.2099998629
0.2099996822
0.2099995189
0.2099994046
0.2099993928
0.2099999691
0.2100001465
0.2100001181
0.210000168
0.2100001843
0.2100001912
0.2100001858
0.210000161
0.2100001162
0.2100000713
0.2100000426
0.2100000519
0.210000078
0.2100000846
0.2100000903
0.2100001334
0.210000181
0.2100002347
0.2100002418
0.2100001573
0.2100000048
0.209999839
0.2099996911
0.2099995603
0.2099994412
0.209999357
0.2099993066
0.2100001083
0.210000188
0.2100001909
0.2100002128
0.2100002181
0.210000217
0.2100002041
0.2100001677
0.2100001156
0.2100000759
0.2100000689
0.2100001041
0.2100001594
0.2100002023
0.2100002262
0.2100002338
0.2100002092
0.2100001507
0.21000005
0.2099999189
0.2099997859
0.2099996674
0.2099995639
0.2099994688
0.2099993776
0.2099992925
0.2099992032
0.210000228
0.210000264
0.2100002706
0.2100002754
0.2100002701
0.2100002587
0.2100002316
0.2100001832
0.2100001307
0.2100001014
0.2100001092
0.2100001523
0.210000209
0.2100002495
0.2100002521
0.2100002029
0.2100001005
0.2099999637
0.2099998178
0.2099996872
0.2099995827
0.2099995
0.2099994282
0.209999357
0.2099992778
0.2099991931
0.2099991588
0.2100002049
0.2100002196
0.2100002279
0.2100002344
0.2100002356
0.2100002232
0.2100001865
0.2100001331
0.2100000891
0.2100000765
0.2100000994
0.2100001458
0.2100001912
0.2100002061
0.2100001669
0.2100000649
0.2099999129
0.2099997405
0.209999577
0.2099994421
0.2099993437
0.209999277
0.2099992255
0.209999172
0.2099991117
0.2099990787
0.2099992298
0.2100002966
0.2100001016
0.2100000495
0.2100000038
0.2099999674
0.2099999299
0.2099998872
0.2099999232
0.2099999625
0.2100000188
0.2100000495
0.2100001249
0.2100002033
0.2100002522
0.2100002695
0.210000146
0.2099999896
0.2099999838
0.2099999609
0.2099999653
0.2099999289
0.2099998468
0.209999828
0.2099998423
0.2099999147
0.209999933
0.2099999987
0.2099999778
0.2099999438
0.2099999529
0.2099999951
0.2100000478
0.2100001324
0.2100002412
0.2100003472
0.2100004051
0.21000031
0.2099998349
0.209999916
0.2099999956
0.2100000647
0.2100001031
0.2100000929
0.2100000128
0.2099999005
0.2099999196
0.2099998951
0.2099999284
0.2099997896
0.209999788
0.20999976
0.2099997537
0.2099997568
0.2099997851
0.2099999192
0.2099999726
0.2099999495
0.2099999732
0.2099999967
0.2100000841
0.2100001226
0.2100001858
0.2100002726
0.2100003381
0.2100003011
0.2099997293
0.2099998023
0.2099998693
0.2099999274
0.2099999584
0.2099999463
0.2099998986
0.2099998343
0.2099998766
0.2099999636
0.2099998626
0.2099997047
0.2099998966
0.2099997662
0.2099998476
0.2099998376
0.2099998204
0.2099998706
0.2099998459
0.2099998143
0.2099999577
0.2099999105
0.2100000232
0.2099999816
0.2100000739
0.2100002016
0.210000307
0.2100003301
0.2099996689
0.2099997249
0.2099997712
0.2099997968
0.2099997917
0.2099997762
0.209999786
0.2099998615
0.2099998848
0.2099999437
0.2099998952
0.2099999322
0.2099998583
0.2099997598
0.2099997284
0.2099997422
0.2099998638
0.2099998511
0.2099998303
0.2099998677
0.2099997269
0.2099999204
0.2099998993
0.2100000547
0.2100001656
0.210000282
0.2100003295
0.2099994547
0.209999523
0.2099995777
0.2099996108
0.20999962
0.2099996263
0.2099996779
0.209999785
0.2099998656
0.2099999001
0.2099998966
0.2099999852
0.2100000195
0.2099999674
0.2100000776
0.2099999448
0.2099999645
0.2099999738
0.2099997368
0.2099997867
0.2099998117
0.2100009068
0.2099997038
0.2099997368
0.209999976
0.2100002787
0.2100003613
0.2099992311
0.2099993164
0.2099993876
0.2099994389
0.2099994662
0.2099994811
0.2099995425
0.2099996858
0.2099998188
0.2099998458
0.2099999196
0.2099999436
0.210000035
0.2100000921
0.2100000145
0.2100001099
0.2099998973
0.2099998916
0.2099997943
0.209999776
0.2099993079
0.2099995902
0.2099995494
0.2099998515
0.210000125
0.2100003076
0.210000352
0.2099990931
0.2099991849
0.2099992687
0.2099993349
0.2099993753
0.2099993883
0.2099994315
0.20999955
0.2099997314
0.2099998139
0.2100000048
0.2100000159
0.2100001038
0.210000133
0.2100001891
0.2100001875
0.2100000212
0.2100000447
0.2099999628
0.209999978
0.209999714
0.2099997615
0.2099996613
0.2099998591
0.210000142
0.2100003032
0.2100003223
0.2099989998
0.2099991066
0.2099992034
0.2099992833
0.2099993381
0.2099993655
0.2099994193
0.2099994745
0.2099996115
0.2099997829
0.2099999538
0.2099999812
0.2100001202
0.2100001856
0.2100001584
0.2100000795
0.2100001469
0.2099999767
0.2099998239
0.209999834
0.2099997977
0.2099997935
0.2099998068
0.209999931
0.2100001502
0.2100002944
0.2100002872
0.2099989303
0.2099990515
0.2099991603
0.2099992512
0.2099993167
0.2099993528
0.209999415
0.2099994986
0.2099997309
0.210000008
0.2100001409
0.2100000779
0.2100002158
0.2100003328
0.2100004474
0.2100003996
0.2100003083
0.2100007372
0.2100006735
0.2100005367
0.2100000159
0.2099998613
0.2099998638
0.2099999501
0.2100001223
0.210000265
0.2100002571
0.2099988557
0.2099990048
0.2099991305
0.2099992362
0.2099993201
0.209999372
0.2099994297
0.2099995058
0.2099996784
0.2099997925
0.2099999518
0.20999999
0.2100002406
0.2100004035
0.2100005303
0.2100006153
0.2100005683
0.2100008365
0.2100006627
0.2100003908
0.2100000823
0.20999998
0.2099999667
0.2099999966
0.2100000981
0.2100002245
0.2100002276
0.2099988106
0.2099989814
0.2099991274
0.2099992499
0.2099993485
0.2099994155
0.2099994605
0.2099995117
0.2099997057
0.2099998167
0.2100001825
0.2100002027
0.2100003887
0.2100004848
0.2100005628
0.2100006461
0.2100007003
0.2100008781
0.2100006714
0.2100004351
0.2100002129
0.2100001263
0.2100000913
0.2100000751
0.2100001145
0.2100002046
0.2100002071
0.2099988008
0.2099989807
0.2099991487
0.2099992936
0.209999415
0.209999505
0.2099995644
0.2099995874
0.2099996624
0.2099997506
0.2100002221
0.2100002419
0.2100003836
0.2100004781
0.2100005536
0.2100006258
0.2100006843
0.210000704
0.2100006093
0.2100004803
0.2100003426
0.2100002646
0.2100001948
0.2100001504
0.2100001579
0.2100002162
0.2100002038
0.2099988557
0.2099990359
0.2099992132
0.2099993762
0.2099995205
0.2099996313
0.2099996985
0.2099997265
0.209999748
0.2099997987
0.209999973
0.2100001198
0.210000286
0.2100004412
0.2100005561
0.2100006549
0.2100007257
0.2100007409
0.2100006856
0.2100005617
0.2100003744
0.2100002945
0.2100002575
0.2100002342
0.2100002294
0.2100002597
0.2100002242
0.2099989162
0.2099991173
0.2099993141
0.2099994937
0.2099996501
0.2099997678
0.209999841
0.2099998786
0.2099998843
0.2099999068
0.2099999996
0.2100000142
0.2100001749
0.2100004034
0.2100005627
0.2100006887
0.2100007631
0.2100007741
0.21000074
0.2100006244
0.2100003717
0.2100004767
0.2100004974
0.2100003907
0.2100003315
0.2100003189
0.2100002592
0.2099990124
0.2099992366
0.2099994499
0.2099996358
0.209999785
0.209999891
0.209999958
0.2099999963
0.2100000055
0.2100000042
0.2100000484
0.2100000102
0.2100001078
0.2100003786
0.2100005675
0.2100007073
0.2100007771
0.2100007687
0.21000069
0.2100005516
0.2099994696
0.2100003199
0.2100002957
0.2100003158
0.2100003677
0.2100003645
0.2100002967
0.2099991372
0.2099993665
0.2099996104
0.2099998207
0.209999972
0.2100000613
0.2100001053
0.2100001252
0.2100001207
0.2100001105
0.2100001297
0.2100000592
0.210000081
0.2100003485
0.2100005519
0.2100007083
0.2100007989
0.2100008313
0.210000806
0.2100006092
0.2099974682
0.2099991428
0.2100013154
0.210000906
0.2100006532
0.2100004743
0.2100003548
0.2099992895
0.2099995393
0.2099998225
0.2100000651
0.2100002244
0.2100003019
0.2100003205
0.2100002988
0.2100002448
0.2100001757
0.2100001484
0.2100001138
0.2100001026
0.210000249
0.2100004741
0.2100006457
0.2100007488
0.2100007702
0.2100008903
0.2100007852
0.2100005894
0.2100015932
0.2100010386
0.2100006805
0.2100005499
0.2100004367
0.2100003459
0.2099994696
0.2099996378
0.2100000578
0.2100002958
0.2100004526
0.2100005164
0.2100005132
0.2100004563
0.210000355
0.2100002451
0.210000195
0.210000192
0.2100001794
0.2100001867
0.2100003645
0.2100005937
0.2100008239
0.2100011147
0.2100026704
0.2100012904
0.2100009815
0.2100010175
0.2100007904
0.2100006281
0.2100004986
0.2100003914
0.210000314
0.2099997111
0.2099998842
0.2100003273
0.2100005519
0.2100006509
0.2100006747
0.2100006458
0.2100005603
0.210000425
0.2100002819
0.2100002248
0.2100002465
0.210000254
0.2100002047
0.2100002673
0.2100004673
0.2100006165
0.2100008702
0.210001189
0.2100008807
0.2100008105
0.2100007648
0.2100006505
0.2100005356
0.210000422
0.2100003231
0.2100002497
0.2099997213
0.2099998617
0.2100000756
0.2100006134
0.2100007436
0.2100007631
0.2100007224
0.2100006208
0.2100004673
0.2100003044
0.2100002445
0.2100002825
0.210000315
0.2100002681
0.2100002629
0.2100004364
0.2100005757
0.2100007291
0.2100008561
0.2100007639
0.2100006888
0.2100006116
0.2100005295
0.2100004316
0.2100003246
0.2100002255
0.2100001415
0.2099999193
0.2100023914
0.2100004111
0.2100007825
0.2100007731
0.2100007822
0.2100007347
0.2100006291
0.2100004759
0.2100003124
0.2100002504
0.2100002976
0.2100003483
0.210000326
0.2100003015
0.210000434
0.2100005567
0.2100006362
0.2100006896
0.210000686
0.2100006167
0.2100005135
0.2100004314
0.2100003279
0.2100002094
0.2100000927
0.2099999921
0.2099996449
0.210000244
0.2100003625
0.2100005132
0.2100007
0.2100007125
0.2100006755
0.2100005808
0.2100004496
0.2100003074
0.210000256
0.2100002967
0.2100003549
0.2100003495
0.2100003225
0.2100004005
0.2100004875
0.2100005267
0.210000572
0.2100006036
0.2100005312
0.2100004239
0.2100003353
0.2100002111
0.210000066
0.2099999229
0.2099998217
0.2099996823
0.2099996346
0.2100002489
0.2100003457
0.2100005473
0.2100005824
0.2100005571
0.2100004907
0.2100004057
0.2100003149
0.2100002808
0.2100003043
0.2100003495
0.210000355
0.2100003296
0.2100003477
0.2100003933
0.2100004256
0.2100004846
0.2100004941
0.2100004081
0.21000032
0.2100002162
0.2100000641
0.2099998929
0.2099997351
0.2099996616
0.2099998071
0.2099996529
0.2100001374
0.2100002478
0.2100003884
0.2100004278
0.2100004169
0.2100003911
0.2100003608
0.2100003296
0.2100003157
0.2100003183
0.2100003337
0.2100003283
0.2100002986
0.210000287
0.2100003079
0.2100003399
0.2100003713
0.2100003374
0.2100002719
0.2100001929
0.2100000639
0.2099998946
0.2099997151
0.2099995659
0.2099995385
0.2099999576
0.2099999642
0.21000013
0.2100002182
0.2100002843
0.2100003029
0.2100003011
0.2100003114
0.2100003292
0.2100003437
0.2100003422
0.210000327
0.210000311
0.2100002823
0.2100002399
0.210000207
0.2100002121
0.2100002281
0.2100002309
0.2100002012
0.2100001447
0.2100000432
0.2099998999
0.209999735
0.2099995689
0.2099994496
0.2099994591
0.2100001151
0.2100001688
0.210000209
0.2100002396
0.2100002491
0.210000243
0.2100002463
0.210000277
0.2100003201
0.2100003511
0.2100003505
0.2100003254
0.2100002938
0.2100002538
0.2100002094
0.2100001746
0.2100001608
0.2100001569
0.210000142
0.210000096
0.2100000117
0.2099998938
0.2099997562
0.2099996114
0.2099994739
0.2099993888
0.2099993937
0.2100002547
0.2100003039
0.2100003082
0.210000302
0.21000028
0.2100002601
0.2100002648
0.2100002976
0.2100003375
0.2100003604
0.2100003535
0.2100003275
0.2100002986
0.2100002667
0.2100002319
0.2100001966
0.210000159
0.2100001157
0.2100000563
0.2099999747
0.2099998736
0.2099997605
0.2099996426
0.2099995253
0.2099994181
0.2099993467
0.209999301
0.2100003628
0.2100003964
0.210000392
0.2100003723
0.2100003413
0.2100003199
0.2100003231
0.2100003448
0.210000366
0.2100003719
0.2100003581
0.2100003355
0.2100003144
0.2100002908
0.2100002549
0.2100001983
0.2100001186
0.2100000241
0.209999924
0.2099998244
0.2099997276
0.2099996333
0.2099995408
0.2099994502
0.2099993623
0.2099992821
0.2099991965
0.2100004176
0.2100004338
0.2100004257
0.2100004039
0.210000375
0.2100003558
0.2100003523
0.2100003563
0.2100003571
0.2100003487
0.2100003315
0.2100003118
0.2100002912
0.2100002601
0.2100002037
0.2100001126
0.209999992
0.2099998606
0.2099997379
0.2099996348
0.2099995514
0.2099994811
0.2099994153
0.2099993463
0.2099992689
0.209999191
0.209999175
0.2100003311
0.2100003298
0.2100003207
0.2100003061
0.2100002891
0.2100002735
0.2100002579
0.2100002415
0.2100002276
0.210000219
0.2100002158
0.2100002137
0.2100002013
0.2100001622
0.2100000827
0.2099999609
0.2099998108
0.2099996555
0.2099995151
0.2099994016
0.2099993194
0.2099992632
0.209999218
0.209999168
0.2099991099
0.209999084
0.2099992676
0.2100004606
0.2100003656
0.2100002314
0.2100001522
0.210000081
0.2100000021
0.2099999404
0.2099998916
0.2099998928
0.2099999097
0.2099999425
0.2099999946
0.2099999948
0.2099999619
0.2099999604
0.2100001505
0.2100002465
0.2100003061
0.2100003104
0.2100002409
0.2100001395
0.2100000969
0.210000042
0.2099999693
0.2099999052
0.2099998079
0.2099997734
0.2099997801
0.2099998212
0.2099999225
0.2100000429
0.2100000897
0.2100000762
0.210000078
0.2100001347
0.2100001989
0.2100002677
0.2100003603
0.2100004656
0.2100005441
0.2100005325
0.2099998156
0.2099999272
0.2100000321
0.2100001204
0.2100001748
0.2100001795
0.2100001304
0.2100000616
0.2100000367
0.2099999909
0.2099998923
0.2099998034
0.2099996778
0.2099996486
0.209999651
0.2099996844
0.2099997787
0.2099999596
0.2100000795
0.2100000936
0.2100000846
0.2100001036
0.2100001583
0.2100002144
0.2100002916
0.2100003862
0.2100004711
0.2100004944
0.2099997121
0.2099998179
0.209999915
0.2099999967
0.2100000491
0.2100000601
0.2100000354
0.2100000021
0.2100000038
0.2100000355
0.209999865
0.2099998921
0.2099995973
0.2099996277
0.209999655
0.2099997018
0.2099997811
0.2099999121
0.2100000189
0.2100000491
0.2100000889
0.2100001159
0.2100001909
0.2100001912
0.2100002525
0.2100003424
0.2100004347
0.2100004808
0.209999695
0.2099997867
0.2099998634
0.2099999154
0.209999935
0.2099999343
0.209999939
0.2099999631
0.2099999547
0.2099999154
0.2099998578
0.2099998095
0.2099997225
0.2099996914
0.2099996958
0.2099997823
0.2099999421
0.210000005
0.2099999807
0.2099997216
0.2099996969
0.20999992
0.2100001528
0.2100002614
0.2100003223
0.2100004049
0.210000457
0.2099995316
0.2099996284
0.2099997102
0.2099997684
0.2099997985
0.2099998151
0.2099998493
0.2099999111
0.2099999491
0.209999953
0.2099999458
0.2099999596
0.2099999689
0.2099999453
0.2099999735
0.2100000367
0.210000081
0.2100000796
0.2100000412
0.2099999073
0.2100002734
0.2100004132
0.2100000555
0.2100002333
0.2100002834
0.2100004025
0.2100004758
0.209999352
0.2099994619
0.2099995557
0.209999626
0.2099996669
0.2099996895
0.2099997347
0.2099998254
0.2099998994
0.2099999224
0.2099999352
0.2099999791
0.2100000288
0.2100000891
0.2100000907
0.2100001533
0.2100001085
0.2100000554
0.2099999772
0.2099999093
0.2099997977
0.2099998222
0.2099999817
0.2100001631
0.2100002761
0.2100003807
0.2100004575
0.2099992001
0.2099993272
0.2099994346
0.2099995173
0.2099995678
0.2099995861
0.2099996165
0.2099997045
0.2099998087
0.2099998621
0.2099999061
0.2099999668
0.2100000545
0.2100001365
0.2100001557
0.2100001455
0.2100001528
0.2100000914
0.2100001058
0.2100001059
0.2100000086
0.2100000358
0.2100000038
0.210000094
0.2100002342
0.2100003445
0.2100004185
0.2099991181
0.2099992448
0.2099993603
0.2099994537
0.2099995152
0.2099995402
0.2099995631
0.2099996107
0.2099997002
0.2099998492
0.2099999234
0.2099999724
0.2100000895
0.2100002077
0.2100002337
0.2100002589
0.2100004739
0.2100003635
0.2100001843
0.2100001284
0.2100000458
0.2099999983
0.2099999829
0.2100000606
0.2100001992
0.2100003101
0.2100003685
0.2099990565
0.2099991947
0.2099993203
0.2099994219
0.2099994903
0.2099995196
0.209999546
0.2099995867
0.2099997394
0.2100000123
0.2100001047
0.2100001017
0.2100001999
0.2100003302
0.2100004118
0.2100003732
0.2100004302
0.210000506
0.2100004417
0.2100003994
0.2100001919
0.210000075
0.2100000235
0.2100000606
0.2100001702
0.2100002763
0.2100003195
0.2099990256
0.2099991754
0.2099993102
0.20999942
0.209999498
0.20999954
0.2099995685
0.2099996085
0.2099996494
0.2099998869
0.2099999903
0.2100000584
0.2100002459
0.210000443
0.2100005953
0.2100006554
0.2100007084
0.2100007349
0.2100006503
0.210000499
0.2100003052
0.2100001709
0.2100000962
0.2100000891
0.2100001549
0.2100002455
0.210000276
0.2099990059
0.2099991753
0.2099993279
0.209999449
0.2099995351
0.2099995835
0.2099996088
0.2099996256
0.2099996856
0.2099997187
0.2099998831
0.2100000771
0.21000033
0.2100005402
0.2100006957
0.2100007877
0.2100008516
0.2100008719
0.2100007389
0.2100005625
0.2100003813
0.2100002498
0.2100001679
0.2100001364
0.2100001657
0.2100002289
0.2100002381
0.2099990399
0.2099992149
0.2099993843
0.2099995222
0.2099996181
0.2099996717
0.2099996935
0.2099996898
0.2099997216
0.209999744
0.2099999165
0.2100001179
0.2100003729
0.2100005865
0.210000745
0.210000845
0.2100008916
0.2100008611
0.2100007445
0.2100005934
0.2100004248
0.2100002963
0.210000218
0.2100001829
0.2100001959
0.2100002329
0.2100002122
0.2099990695
0.2099992795
0.2099994774
0.209999639
0.2099997518
0.2099998099
0.2099998241
0.2099998101
0.2099998081
0.2099998358
0.2099999688
0.2100001206
0.2100003582
0.2100005995
0.2100007845
0.2100009036
0.2100009416
0.2100008892
0.2100007645
0.2100006041
0.2100003441
0.2100002679
0.2100002461
0.2100002362
0.210000245
0.2100002584
0.2100002049
0.2099991573
0.2099993954
0.2099996135
0.2099997897
0.2099999119
0.2099999753
0.2099999858
0.2099999687
0.2099999535
0.2099999743
0.2100000825
0.2100001189
0.210000315
0.2100005963
0.2100008116
0.210000947
0.2100009769
0.2100009134
0.2100007912
0.2100006483
0.2100002922
0.2100001818
0.2100002751
0.2100002808
0.2100002906
0.2100002867
0.2100002096
0.2099992887
0.2099995533
0.2099997868
0.2099999681
0.210000086
0.2100001446
0.2100001519
0.2100001309
0.2100001101
0.2100001041
0.2100001682
0.2100001641
0.2100003021
0.2100005857
0.2100008139
0.2100009539
0.2100009685
0.2100008797
0.2100006851
0.2100003855
0.2099986691
0.2099998299
0.2100002396
0.2100002625
0.2100003007
0.2100003031
0.2100002197
0.2099994678
0.2099997493
0.2099999995
0.2100001864
0.2100002951
0.2100003395
0.210000335
0.2100003143
0.2100003067
0.2100003457
0.2100005367
0.2100003497
0.2100003525
0.2100005641
0.2100007765
0.210000925
0.2100009627
0.2100009145
0.2100010063
0.210000878
0.2099984831
0.2099968662
0.2099995286
0.2100000631
0.2100002904
0.2100003135
0.2100002345
0.2099996869
0.2099999826
0.2100002495
0.2100004398
0.2100005349
0.2100005576
0.2100005248
0.2100004639
0.2100003972
0.2100003893
0.2100004475
0.2100003753
0.2100003504
0.2100004741
0.2100006652
0.2100008092
0.2100008898
0.2100007917
0.2100008089
0.2100007786
0.2100002265
0.2100002721
0.2100003901
0.2100003271
0.2100003471
0.210000315
0.2100002313
0.209999952
0.2100002463
0.2100005278
0.2100007136
0.2100007762
0.2100007694
0.2100007049
0.2100006012
0.210000491
0.2100004608
0.2100004942
0.2100004596
0.210000411
0.2100004331
0.2100005758
0.2100007489
0.2100013577
0.2100002933
0.2100060505
0.210002498
0.2100011978
0.210000564
0.2100004778
0.2100004015
0.210000351
0.210000286
0.2100002005
0.2100001992
0.2100004039
0.2100006679
0.2100009555
0.210000978
0.2100009417
0.2100008463
0.210000705
0.2100005614
0.2100005163
0.2100005559
0.2100005471
0.2100005007
0.2100004643
0.2100005293
0.2100007044
0.2100009041
0.2100011694
0.2100022192
0.2100010489
0.2100007433
0.2100005345
0.2100004583
0.2100003777
0.2100002993
0.2100002203
0.2100001319
0.2100003889
0.2100011703
0.2100007865
0.2100011914
0.2100011074
0.21000105
0.2100009322
0.2100007681
0.2100006068
0.2100005449
0.2100006022
0.2100006244
0.210000597
0.2100005466
0.2100005677
0.2100007185
0.2100008014
0.2100009332
0.2100011849
0.2100007422
0.2100005793
0.2100004733
0.210000394
0.2100003012
0.2100002083
0.2100001178
0.2100000237
0.21000059
0.2100015852
0.2100010785
0.2100013487
0.2100011487
0.2100010722
0.2100009474
0.2100007833
0.2100006272
0.2100005543
0.2100006114
0.2100006448
0.2100006398
0.2100005952
0.2100005919
0.2100007122
0.210000761
0.210000774
0.2100007291
0.2100005512
0.2100004721
0.2100003975
0.2100003086
0.2100001994
0.2100000881
0.2099999807
0.2099998855
0.210000572
0.2100011403
0.2100011128
0.2100011378
0.2100010493
0.2100009794
0.2100008763
0.2100007449
0.2100006216
0.2100005515
0.2100005734
0.210000602
0.2100006069
0.2100005717
0.2100005498
0.2100006252
0.2100006514
0.2100006091
0.2100005026
0.2100004215
0.2100003819
0.2100003126
0.2100002081
0.2100000772
0.2099999421
0.2099998184
0.2099997383
0.2100004517
0.2100007512
0.2100008647
0.210000858
0.2100008556
0.2100008092
0.2100007422
0.2100006676
0.2100005987
0.2100005509
0.2100005436
0.2100005421
0.2100005325
0.2100004955
0.2100004541
0.2100004719
0.2100004668
0.2100004107
0.2100003442
0.2100003185
0.2100002863
0.2100002085