/*--------------------------------*- C++ -*----------------------------------*\
  =========                 |
  \\      /  F ield         | OpenFOAM: The Open Source CFD Toolbox
   \\    /   O peration     | Website:  https://openfoam.org
    \\  /    A nd           | Version:  8
     \\/     M anipulation  |
\*---------------------------------------------------------------------------*/
FoamFile
{
    version     2.0;
    format      ascii;
    class       volScalarField;
    location    "1.8";
    object      p_rgh;
}
// * * * * * * * * * * * * * * * * * * * * * * * * * * * * * * * * * * * * * //

dimensions      [1 -1 -2 0 0 0 0];

internalField   nonuniform List<scalar> 
67451
(
100003.8646
100003.8551
100003.8176
100003.8119
100003.8096
100003.8241
100003.8404
100003.8487
100003.8676
100003.9172
100003.9572
100003.809
100003.8211
100003.8392
100003.8648
100003.8732
100003.8632
100003.8245
100003.8306
100003.8355
100003.8513
100003.8719
100003.8754
100003.8947
100003.9407
100003.9732
100003.9798
100003.9424
100003.9348
100003.9537
100003.9666
100004.0231
100004.0553
100004.0828
100004.1147
100004.1357
100004.1851
100003.8162
100003.8118
100003.8147
100003.825
100003.841
100003.8621
100003.8746
100003.8633
100003.827
100003.8482
100003.856
100003.8736
100003.9086
100003.9113
100003.9411
100003.9922
100003.9857
100003.9902
100003.9703
100003.9573
100003.9597
100003.9806
100004.0847
100004.0558
100004.0458
100004.0638
100004.0802
100004.1229
100003.8284
100003.8214
100003.822
100003.8303
100003.8449
100003.8663
100003.8824
100003.8726
100003.8312
100003.8571
100003.8726
100003.8707
100003.9476
100003.9305
100003.9846
100004.0342
100004.0125
100003.9587
100003.9763
100003.9942
100004.0107
100003.9973
100004.0225
100004.0664
100004.0585
100004.0773
100004.0931
100004.1234
100003.8331
100003.8313
100003.837
100003.8486
100003.8643
100003.8777
100003.8785
100003.856
100003.8596
100003.8711
100003.8961
100003.9112
100003.9197
100003.9284
100003.9517
100003.981
100003.9628
100003.9818
100003.9615
100003.9957
100003.9849
100004.0016
100004.0264
100004.0075
100004.0282
100004.0422
100004.0679
100003.8438
100003.8394
100003.8425
100003.8524
100003.868
100003.8833
100003.8958
100003.8703
100003.8752
100003.8789
100003.912
100003.9429
100003.9493
100003.9519
100003.9754
100003.9759
100003.9676
100004.0256
100004.032
100003.9406
100004.0573
100004.2949
100004.1468
100003.9432
100004.108
100004.1825
100004.1805
100003.8484
100003.8414
100003.8428
100003.8513
100003.8655
100003.8796
100003.8955
100003.8766
100003.8624
100003.8581
100003.8558
100003.8866
100003.915
100003.955
100003.9551
100003.9825
100003.9344
100003.9514
100004.0282
100004.1136
100004.0935
100004.1388
100004.078
100003.9956
100004.0546
100004.074
100004.0797
100003.8546
100003.8414
100003.8407
100003.8489
100003.864
100003.882
100003.9051
100003.8865
100003.8678
100003.8632
100003.8816
100003.8896
100003.9102
100003.9333
100003.959
100003.9251
100003.8974
100003.9248
100003.9355
100004.0303
100004.0143
100003.9871
100003.9907
100004.0267
100004.0684
100004.0752
100004.0697
100003.8507
100003.8409
100003.84
100003.8478
100003.8634
100003.8854
100003.9095
100003.8976
100003.8622
100003.8996
100003.9964
100003.9854
100003.9719
100003.9878
100004.025
100003.9994
100004.149
100004.2411
100004.0386
100003.909
100003.9523
100004.0418
100004.0199
100004.0337
100004.0567
100004.0649
100004.0661
100003.8603
100003.8494
100003.8458
100003.8527
100003.8726
100003.9136
100003.9518
100003.914
100003.8933
100004.0221
100004.1612
100004.1678
100004.1083
100004.1028
100004.1384
100004.1598
100004.318
100004.5117
100004.4104
100003.961
100003.8404
100003.9761
100004.0297
100004.0564
100004.0762
100004.0808
100004.0838
100003.8828
100003.8682
100003.8583
100003.8584
100003.8711
100003.901
100003.967
100003.9971
100003.9562
100004.0111
100004.1619
100004.1784
100004.1485
100004.1462
100004.1584
100004.1956
100004.2716
100004.3383
100004.2596
100003.992
100003.9035
100003.9414
100003.9858
100004.03
100004.0714
100004.0935
100004.1091
100003.9154
100003.8996
100003.8797
100003.8692
100003.872
100003.8922
100003.9311
100003.9991
100004.0114
100003.9803
100004.0148
100004.0663
100004.0896
100004.1331
100004.1535
100004.1879
100004.1988
100004.1773
100004.0837
100003.9589
100003.9297
100003.9515
100003.9864
100004.0288
100004.0745
100004.1076
100004.1364
100003.9758
100003.9552
100003.9189
100003.8924
100003.8819
100003.8896
100003.9171
100003.9642
100004.0203
100004.0338
100003.9692
100004.013
100004.0342
100004.0795
100004.1159
100004.1575
100004.1588
100004.1248
100004.0529
100003.9861
100003.9683
100003.9776
100003.9974
100004.0341
100004.0812
100004.1213
100004.1623
100004.0353
100003.9858
100003.9448
100003.9166
100003.8997
100003.8971
100003.9132
100003.9493
100004.0057
100004.0518
100004.0495
100004.0239
100004.0186
100004.0431
100004.0892
100004.1382
100004.1442
100004.1173
100004.0724
100004.0342
100004.0403
100004.0346
100004.0352
100004.0588
100004.0982
100004.1391
100004.1887
100004.0707
100004.0238
100003.9835
100003.9514
100003.928
100003.9169
100003.9218
100003.9473
100003.9994
100004.063
100004.1138
100004.0693
100004.0347
100004.0302
100004.0727
100004.1244
100004.1412
100004.1278
100004.1157
100004.1191
100004.2526
100004.4926
100004.2307
100004.129
100004.127
100004.1591
100004.2147
100004.0893
100004.0548
100004.0184
100003.9904
100003.9637
100003.9438
100003.9374
100003.9542
100003.9968
100004.0597
100004.1257
100004.1199
100004.081
100004.0372
100004.0654
100004.1155
100004.147
100004.1537
100004.1756
100004.1783
100004.1573
100003.9497
100003.9275
100004.0309
100004.1208
100004.1746
100004.2409
100004.1055
100004.0954
100004.0547
100004.0387
100004.0085
100003.9773
100003.9541
100003.9551
100003.9884
100004.0489
100004.1184
100004.1424
100004.1267
100004.0633
100004.0662
100004.1151
100004.17
100004.2311
100004.4216
100004.7412
100004.8462
100007.7783
100004.838
100004.5464
100004.3303
100004.2446
100004.2796
100004.1196
100004.1471
100004.097
100004.1015
100004.0756
100004.0375
100003.9932
100003.9655
100003.9724
100004.0165
100004.0753
100004.1177
100004.1292
100004.0927
100004.0722
100004.1161
100004.1718
100004.2263
100004.321
100004.3168
100004.2685
100004.4019
100004.1159
100004.1559
100004.1792
100004.196
100004.2565
100004.1429
100004.1475
100004.1249
100004.1646
100004.1398
100004.0993
100004.0409
100003.9899
100003.9697
100003.9926
100004.041
100004.0837
100004.1094
100004.108
100004.0927
100004.1454
100004.2414
100004.4411
100004.7605
100004.4589
100004.3876
100004.4704
100004.2453
100004.1682
100004.1592
100004.1739
100004.2319
100004.138
100004.1482
100004.2195
100004.237
100004.1873
100004.132
100004.0652
100004.0053
100003.9742
100003.9831
100004.0224
100004.0577
100004.0811
100004.0921
100004.0915
100004.1205
100004.1725
100004.2553
100004.3447
100004.2615
100004.2331
100004.2377
100004.1713
100004.1429
100004.1451
100004.1601
100004.2103
100004.1081
100004.4688
100004.3951
100004.2351
100004.1745
100004.1182
100004.0557
100003.9988
100003.9677
100003.9746
100004.0123
100004.0418
100004.0565
100004.0653
100004.0709
100004.0902
100004.1225
100004.1724
100004.1959
100004.1541
100004.1355
100004.1335
100004.1238
100004.1241
100004.1368
100004.1528
100004.1935
100004.1322
100005.2032
100004.5682
100004.2087
100004.1778
100004.1029
100004.0331
100003.9805
100003.9541
100003.9647
100004.002
100004.0282
100004.038
100004.0428
100004.0466
100004.062
100004.0899
100004.1237
100004.1193
100004.0871
100004.0803
100004.0922
100004.1049
100004.1189
100004.1368
100004.1521
100004.1829
100004.0302
100004.4909
100004.2472
100004.1144
100004.0862
100004.0334
100003.9877
100003.9515
100003.937
100003.9553
100003.988
100004.0108
100004.0197
100004.0238
100004.0258
100004.0369
100004.0613
100004.0853
100004.0735
100004.0496
100004.0539
100004.0783
100004.1028
100004.1238
100004.1429
100004.1561
100004.1778
100003.9488
100003.8909
100003.9667
100004.0234
100003.9872
100003.9669
100003.9438
100003.9266
100003.9265
100003.9476
100003.9749
100003.994
100004.0023
100004.006
100004.0085
100004.0131
100004.0278
100004.0438
100004.0374
100004.0329
100004.0531
100004.0845
100004.1124
100004.134
100004.1514
100004.1619
100004.1772
100003.9512
100003.9515
100003.926
100003.975
100003.9335
100003.9295
100003.9214
100003.9202
100003.9322
100003.9516
100003.972
100003.987
100003.9948
100003.999
100004.0017
100004.0023
100004.0068
100004.0165
100004.0242
100004.0428
100004.073
100004.1031
100004.1275
100004.1455
100004.1597
100004.1684
100004.1797
100003.9555
100004.048
100003.9464
100003.9753
100003.9392
100003.9345
100003.9344
100003.94
100003.9531
100003.9685
100003.9833
100003.9951
100004.0028
100004.0079
100004.0123
100004.015
100004.0187
100004.0296
100004.0479
100004.0742
100004.1015
100004.1247
100004.1423
100004.1556
100004.1671
100004.1747
100004.1837
100003.9873
100004.067
100003.9916
100004.0034
100003.9805
100003.9746
100003.9744
100003.9795
100003.9884
100003.9987
100004.0092
100004.019
100004.0271
100004.0338
100004.0408
100004.0478
100004.0563
100004.07
100004.0887
100004.1099
100004.1288
100004.1434
100004.1547
100004.1643
100004.1738
100004.1801
100004.188
100004.0381
100004.0816
100004.0482
100004.0503
100004.0391
100004.0337
100004.0317
100004.0326
100004.0357
100004.0405
100004.047
100004.0548
100004.0628
100004.0705
100004.0789
100004.088
100004.0987
100004.1118
100004.1261
100004.1394
100004.15
100004.1581
100004.1653
100004.1723
100004.1797
100004.1845
100004.1919
100004.1023
100004.1227
100004.1119
100004.1123
100004.1078
100004.1038
100004.1
100004.0965
100004.094
100004.0938
100004.0965
100004.1016
100004.1079
100004.1146
100004.1217
100004.1293
100004.1378
100004.1467
100004.1548
100004.1611
100004.1662
100004.1708
100004.1756
100004.1806
100004.1862
100004.1894
100004.1975
100004.1639
100004.172
100004.1698
100004.1703
100004.1687
100004.1653
100004.1596
100004.1521
100004.1449
100004.1403
100004.1391
100004.1408
100004.1443
100004.1482
100004.1523
100004.1566
100004.1613
100004.166
100004.1699
100004.1732
100004.1765
100004.1799
100004.1834
100004.187
100004.1913
100004.1935
100004.2025
100004.2511
100004.2534
100004.2525
100004.2528
100004.2518
100004.2484
100004.2422
100004.234
100004.2258
100004.2194
100004.2151
100004.2122
100004.2093
100004.2054
100004.2009
100004.1966
100004.1932
100004.191
100004.1896
100004.1893
100004.1902
100004.192
100004.1943
100004.1967
100004.2
100004.2008
100004.2098
100003.8523
100003.8334
100003.7935
100003.7804
100003.7774
100003.7781
100003.8211
100003.8097
100003.8067
100003.8225
100003.8525
100003.7975
100003.8122
100003.8326
100003.8722
100003.8613
100003.8349
100003.7979
100003.7819
100003.7893
100003.7827
100003.8152
100003.8131
100003.8031
100003.8231
100003.8583
100003.8758
100003.8228
100003.7554
100003.7748
100003.7999
100003.8541
100003.9415
100004.0081
100004.0596
100004.087
100004.134
100003.7994
100003.7991
100003.8047
100003.8164
100003.8327
100003.8535
100003.8602
100003.8349
100003.8007
100003.7803
100003.8125
100003.814
100003.8098
100003.8244
100003.8099
100003.8283
100003.8511
100003.8806
100003.8814
100003.8302
100003.8251
100003.86
100003.9127
100003.9511
100003.9789
100004.014
100004.0365
100004.0793
100003.8134
100003.8095
100003.8128
100003.8227
100003.8372
100003.8546
100003.8638
100003.8331
100003.7872
100003.7219
100003.8145
100003.7574
100003.7285
100003.825
100003.7986
100003.8198
100003.8235
100003.8288
100003.8263
100003.8392
100003.8633
100003.8708
100003.8149
100003.8777
100003.9194
100003.9855
100004.013
100004.0541
100003.8218
100003.823
100003.8311
100003.8441
100003.8602
100003.8725
100003.8667
100003.8396
100003.8304
100003.8421
100003.8667
100003.8929
100003.881
100003.8298
100003.8301
100003.8269
100003.8319
100003.8561
100003.8863
100003.8782
100003.9023
100003.7415
100003.8307
100003.89
100003.9443
100003.9779
100004.0155
100003.8358
100003.8341
100003.839
100003.85
100003.8656
100003.879
100003.8847
100003.8558
100003.8408
100003.8419
100003.8346
100003.8834
100003.9025
100003.8718
100003.833
100003.8546
100003.8593
100003.8851
100003.7998
100003.7608
100003.6553
100003.5593
100003.5488
100003.5174
100003.7661
100003.9426
100003.997
100003.8311
100003.8296
100003.8346
100003.8458
100003.8617
100003.8773
100003.8927
100003.8652
100003.8321
100003.8172
100003.7715
100003.8077
100003.8577
100003.853
100003.8472
100003.7955
100003.753
100003.7316
100003.8255
100003.8675
100003.7985
100003.6104
100003.6528
100003.7331
100003.8849
100003.9502
100003.9747
100003.8256
100003.8209
100003.8254
100003.8371
100003.8544
100003.8727
100003.8944
100003.865
100003.8144
100003.7889
100003.762
100003.7586
100003.7926
100003.8172
100003.8366
100003.8184
100003.6929
100003.6597
100003.6401
100003.7041
100003.7666
100003.6142
100003.6977
100003.8155
100003.9423
100003.9716
100003.9851
100003.8105
100003.8102
100003.8158
100003.8275
100003.8445
100003.8637
100003.8844
100003.8439
100003.7904
100003.7847
100003.7762
100003.7887
100003.8078
100003.8361
100003.8601
100003.8345
100003.6908
100003.6809
100003.6524
100003.6305
100003.6951
100003.7774
100003.8622
100003.9286
100003.9836
100003.9981
100004.005
100003.8026
100003.8055
100003.8108
100003.8207
100003.8359
100003.8539
100003.8649
100003.7914
100003.7788
100003.7809
100003.8019
100003.8234
100003.8429
100003.8816
100003.9342
100003.9811
100003.8655
100003.7465
100003.7021
100003.6252
100003.5591
100003.6302
100003.8221
100003.934
100004.0006
100004.0222
100004.0322
100003.7906
100003.8047
100003.8098
100003.8162
100003.829
100003.8473
100003.8778
100003.8723
100003.8069
100003.8241
100003.8356
100003.8671
100003.9037
100003.948
100003.9697
100003.9984
100003.9368
100003.7957
100003.7494
100003.6983
100003.6869
100003.7493
100003.8559
100003.9432
100004.0086
100004.0418
100004.0596
100003.8002
100003.8197
100003.8213
100003.8214
100003.826
100003.838
100003.8594
100003.8972
100003.885
100003.8327
100003.8474
100003.8664
100003.9169
100003.9616
100003.9746
100003.9977
100003.9611
100003.8464
100003.7847
100003.7421
100003.7463
100003.8074
100003.8851
100003.9555
100004.018
100004.0592
100004.086
100003.8029
100003.8406
100003.8411
100003.8347
100003.8308
100003.8346
100003.8521
100003.8808
100003.9224
100003.8935
100003.8287
100003.8686
100003.9015
100003.9399
100003.9587
100003.9847
100003.9669
100003.9027
100003.8548
100003.8224
100003.8244
100003.8617
100003.9094
100003.9678
100004.0277
100004.0746
100004.11
100003.8945
100003.8878
100003.8732
100003.8581
100003.8461
100003.842
100003.851
100003.877
100003.9134
100003.9635
100003.8786
100003.9198
100003.9109
100003.9263
100003.9471
100003.9735
100003.9693
100003.9386
100003.9097
100003.8726
100003.8565
100003.8594
100003.916
100003.9812
100004.0396
100004.0888
100004.1318
100003.9409
100003.9262
100003.9076
100003.8871
100003.8687
100003.8586
100003.8619
100003.8838
100003.9223
100003.9859
100004.0049
100004.0075
100003.955
100003.9354
100003.9479
100003.9697
100003.9746
100003.9616
100003.9582
100003.9153
100003.8852
100003.9801
100004.0179
100004.0232
100004.0555
100004.0993
100004.1489
100003.9845
100003.9667
100003.9449
100003.9199
100003.8951
100003.8788
100003.8774
100003.8961
100003.9348
100003.9968
100004.0602
100004.0805
100004.0094
100003.9587
100003.9599
100003.9765
100003.9893
100003.9825
100003.9879
100003.9219
100003.8436
100003.7378
100003.8075
100003.9198
100004.0308
100004.1006
100004.1616
100004.0098
100004.0013
100003.9786
100003.9476
100003.9148
100003.8905
100003.8831
100003.9003
100003.9432
100004.0194
100004.1079
100004.129
100004.0739
100003.99
100003.9798
100003.9961
100004.0259
100004.0498
100004.1347
100003.9109
100003.441
100003.5273
100003.9762
100004.0831
100004.1426
100004.1425
100004.184
100004.0223
100004.0173
100003.9918
100003.9549
100003.9197
100003.8903
100003.8745
100003.8826
100003.9148
100003.9734
100004.047
100004.0937
100004.0893
100004.0192
100003.9943
100004.0108
100004.0364
100004.0424
100004.113
100004.0189
100003.8376
100003.9163
100003.9343
100004.0083
100004.0755
100004.113
100004.1671
100004.0216
100004.0009
100003.988
100003.9608
100003.935
100003.905
100003.8825
100003.88
100003.9009
100003.9433
100003.9982
100004.0436
100004.0684
100004.048
100004.0192
100004.0766
100004.1659
100004.3609
100005.2183
100004.3924
100004.1001
100004.0734
100004.0757
100004.0725
100004.0851
100004.107
100004.1553
100003.9975
100003.9598
100003.9916
100003.9453
100003.9381
100003.9083
100003.8856
100003.8792
100003.8947
100003.929
100003.9735
100004.0129
100004.0384
100004.0445
100004.0318
100004.0563
100004.0887
100004.1487
100004.2775
100004.1434
100004.0923
100004.0872
100004.0804
100004.0792
100004.0902
100004.1076
100004.1493
100003.8326
100003.6837
100003.8943
100003.8698
100003.9182
100003.8901
100003.8762
100003.8726
100003.8878
100003.9192
100003.9634
100003.9985
100004.0177
100004.0259
100004.027
100004.0344
100004.0429
100004.0809
100004.1271
100004.069
100004.0514
100004.0559
100004.0667
100004.0786
100004.0952
100004.1127
100004.1478
100003.5079
100003.5507
100003.5587
100003.6664
100003.8673
100003.8526
100003.8573
100003.8615
100003.8789
100003.9093
100003.9563
100003.9901
100004.0032
100004.0071
100004.0107
100004.0077
100004.0043
100004.0242
100004.0397
100004.0202
100004.0149
100004.029
100004.0574
100004.082
100004.1042
100004.1223
100004.1499
100003.575
100003.381
100003.592
100003.6714
100003.8279
100003.8278
100003.841
100003.8518
100003.8708
100003.8975
100003.9453
100003.9779
100003.9883
100003.9895
100003.9924
100003.9854
100003.9788
100003.9894
100003.9969
100003.9939
100003.9949
100004.018
100004.0595
100004.0926
100004.1173
100004.1341
100004.1548
100003.6806
100003.3056
100003.6684
100003.6988
100003.8011
100003.8174
100003.8337
100003.8497
100003.8707
100003.8993
100003.941
100003.9684
100003.9758
100003.9763
100003.9777
100003.9719
100003.9658
100003.973
100003.9805
100003.9833
100003.9932
100004.0299
100004.0766
100004.1093
100004.1318
100004.1461
100004.1612
100003.785
100003.5352
100003.7503
100003.7684
100003.81
100003.8272
100003.8428
100003.8605
100003.8816
100003.9121
100003.9466
100003.9678
100003.9733
100003.9728
100003.9729
100003.9677
100003.9636
100003.9703
100003.9782
100003.9864
100004.014
100004.0609
100004.1013
100004.127
100004.1455
100004.1573
100004.1684
100003.8626
100003.7997
100003.8373
100003.8437
100003.8495
100003.8574
100003.8685
100003.8866
100003.9096
100003.9377
100003.9638
100003.9798
100003.985
100003.9854
100003.9862
100003.9835
100003.9801
100003.9844
100003.9955
100004.019
100004.0583
100004.0968
100004.1242
100004.1426
100004.1572
100004.1669
100004.1756
100003.9316
100003.926
100003.9237
100003.9186
100003.9116
100003.9119
100003.9194
100003.9342
100003.9533
100003.9738
100003.9919
100004.0045
100004.0113
100004.0147
100004.0183
100004.0206
100004.0207
100004.0277
100004.0458
100004.0736
100004.1029
100004.1259
100004.1426
100004.1555
100004.167
100004.1747
100004.1819
100003.9963
100004.0032
100003.9986
100003.9939
100003.9869
100003.985
100003.9887
100003.9966
100004.0066
100004.0174
100004.0284
100004.0386
100004.0468
100004.0534
100004.0604
100004.0676
100004.0743
100004.0846
100004.1004
100004.1184
100004.1341
100004.1467
100004.1571
100004.1663
100004.175
100004.1805
100004.1871
100004.0632
100004.0697
100004.0688
100004.0679
100004.0655
100004.0645
100004.0649
100004.0655
100004.0664
100004.069
100004.0743
100004.0816
100004.0896
100004.0975
100004.1054
100004.1135
100004.1211
100004.1296
100004.1391
100004.1481
100004.156
100004.1631
100004.1698
100004.1761
100004.1825
100004.1861
100004.1936
100004.1248
100004.1281
100004.1291
100004.1302
100004.1304
100004.1297
100004.1271
100004.1219
100004.116
100004.1124
100004.1126
100004.1166
100004.1227
100004.1296
100004.1367
100004.1432
100004.1489
100004.1544
100004.1596
100004.1648
100004.1699
100004.1747
100004.1792
100004.1834
100004.188
100004.1906
100004.1995
100004.2055
100004.2052
100004.2054
100004.2062
100004.2067
100004.2059
100004.2023
100004.1956
100004.1879
100004.1815
100004.1781
100004.1774
100004.1781
100004.1789
100004.1793
100004.1793
100004.1791
100004.1792
100004.18
100004.1817
100004.1841
100004.187
100004.19
100004.193
100004.1966
100004.1978
100004.2069
100003.8126
100003.808
100003.8121
100003.7957
100003.7837
100003.7792
100003.7855
100003.8121
100003.8206
100003.8302
100003.8587
100003.8832
100003.8829
100003.871
100003.8731
100003.7818
100003.7934
100003.8074
100003.8292
100003.8287
100003.8254
100003.8087
100003.7932
100003.7922
100003.7964
100003.834
100003.8404
100003.8456
100003.876
100003.9128
100003.9435
100003.9365
100003.9153
100003.9179
100003.9394
100003.9682
100003.995
100004.0251
100004.0593
100004.0837
100004.1164
100003.7864
100003.786
100003.7911
100003.801
100003.8139
100003.8288
100003.8373
100003.8342
100003.816
100003.7981
100003.8065
100003.8063
100003.8521
100003.8517
100003.8553
100003.8798
100003.9112
100003.9537
100003.9532
100003.9378
100003.9355
100003.9449
100003.9714
100003.9863
100004.0001
100004.0201
100004.0372
100004.0629
100003.7979
100003.7965
100003.8003
100003.8094
100003.8222
100003.8369
100003.8473
100003.8461
100003.8286
100003.8047
100003.8225
100003.8098
100003.8757
100003.8809
100003.8797
100003.8978
100003.9177
100003.9435
100003.9681
100003.9569
100003.969
100003.9792
100004.0017
100003.9961
100003.9965
100004.0086
100004.0183
100004.0372
100003.8064
100003.8095
100003.8178
100003.8302
100003.8448
100003.8565
100003.8598
100003.8471
100003.8389
100003.8495
100003.8702
100003.9113
100003.9177
100003.8959
100003.908
100003.9307
100003.9686
100003.9573
100003.9359
100003.9484
100003.9524
100003.992
100004.0059
100004.0054
100004.0006
100004.0026
100004.0171
100003.8141
100003.8171
100003.8245
100003.8363
100003.8508
100003.8634
100003.8719
100003.8625
100003.8621
100003.8721
100003.9019
100003.937
100003.9563
100003.9446
100003.9656
100003.9713
100003.9697
100003.9746
100003.9378
100003.94
100003.9164
100003.9746
100003.9565
100004.0121
100003.9982
100004.0005
100004.0187
100003.8099
100003.8152
100003.8238
100003.8363
100003.8509
100003.8648
100003.8779
100003.8723
100003.8653
100003.8661
100003.8903
100003.9124
100003.9279
100003.9325
100003.9166
100003.9397
100003.9321
100003.9317
100003.9351
100003.9612
100003.8924
100003.9226
100003.9406
100003.9658
100003.9756
100003.9768
100003.9948
100003.8009
100003.8092
100003.8186
100003.8312
100003.8466
100003.8626
100003.8804
100003.8807
100003.8757
100003.8662
100003.8786
100003.8965
100003.9168
100003.9211
100003.9279
100003.9113
100003.8701
100003.8888
100003.9325
100003.9534
100003.941
100003.9577
100003.9389
100003.9438
100003.962
100003.9659
100003.9823
100003.8043
100003.8071
100003.8141
100003.8252
100003.8403
100003.8577
100003.8785
100003.887
100003.8811
100003.8587
100003.8694
100003.8814
100003.9027
100003.9128
100003.912
100003.8804
100003.8563
100003.8602
100003.8654
100003.8922
100003.917
100003.9347
100003.9378
100003.9461
100003.9604
100003.9664
100003.9795
100003.8088
100003.8088
100003.8127
100003.8212
100003.8348
100003.8537
100003.8785
100003.8971
100003.8861
100003.8696
100003.8875
100003.9019
100003.9195
100003.935
100003.9445
100003.9456
100003.9356
100003.9382
100003.9268
100003.91
100003.9192
100003.9182
100003.9271
100003.9424
100003.9616
100003.9728
100003.9854
100003.8187
100003.8154
100003.8154
100003.8198
100003.8299
100003.8479
100003.8763
100003.9048
100003.9366
100003.8905
100003.9137
100003.9269
100003.9433
100003.9531
100003.9564
100003.9627
100003.9598
100003.9516
100003.9323
100003.9079
100003.9054
100003.9024
100003.9163
100003.938
100003.9636
100003.9817
100003.9969
100003.8346
100003.8292
100003.8235
100003.8228
100003.828
100003.8407
100003.8648
100003.8995
100003.9513
100003.9626
100003.9467
100003.9423
100003.9482
100003.9519
100003.9539
100003.9619
100003.9589
100003.9469
100003.9247
100003.8971
100003.8877
100003.8854
100003.9044
100003.9329
100003.9652
100003.9899
100004.0093
100003.8727
100003.8571
100003.8418
100003.8317
100003.8301
100003.8375
100003.8548
100003.8842
100003.9281
100003.9691
100003.9818
100003.9554
100003.9436
100003.9388
100003.9419
100003.9513
100003.9486
100003.9353
100003.9127
100003.8826
100003.8615
100003.857
100003.8849
100003.923
100003.9641
100003.9957
100004.0205
100003.9096
100003.8864
100003.8641
100003.8464
100003.8373
100003.8399
100003.8538
100003.8804
100003.9162
100003.9684
100003.9976
100003.9716
100003.9489
100003.9352
100003.9352
100003.9431
100003.9406
100003.9275
100003.9078
100003.8703
100003.8284
100003.8099
100003.8609
100003.9121
100003.9618
100003.9999
100004.03
100003.9463
100003.9185
100003.8914
100003.8672
100003.8511
100003.8483
100003.8614
100003.8907
100003.9301
100003.9893
100004.0455
100004.0285
100003.9846
100003.9511
100003.9398
100003.9414
100003.9374
100003.9241
100003.9087
100003.8511
100003.7293
100003.6353
100003.8006
100003.8802
100003.9485
100003.9981
100004.0352
100003.9764
100003.9504
100003.9216
100003.8926
100003.8702
100003.8614
100003.8711
100003.9042
100003.9492
100004.0072
100004.0732
100004.0776
100004.0318
100003.9816
100003.9546
100003.9484
100003.9433
100003.9275
100003.9282
100003.8725
100003.7018
100003.7035
100003.7082
100003.8012
100003.9193
100003.9933
100004.0397
100003.998
100003.9794
100003.9507
100003.9185
100003.8908
100003.8765
100003.8842
100003.9259
100003.9974
100004.1059
100004.2853
100004.1884
100004.107
100004.0275
100003.9785
100003.9685
100003.9733
100003.9796
100004.1676
100003.8347
100003.1553
100001.2159
100003.0846
100003.5543
100003.8776
100003.9889
100004.0445
100004.0144
100004.0034
100003.9742
100003.9405
100003.9102
100003.8894
100003.8887
100003.9179
100003.9687
100004.0408
100004.1245
100004.118
100004.0904
100004.0376
100003.9903
100003.9752
100003.9927
100003.9241
100003.9845
100003.9326
100003.6707
100003.4603
100003.6631
100003.8061
100003.9358
100004.0047
100004.0497
100004.0281
100004.0245
100003.9912
100003.958
100003.929
100003.9031
100003.8955
100003.9135
100003.9514
100004.008
100004.064
100004.0718
100004.0647
100004.0451
100004.0185
100004.0644
100004.3825
100004.1108
100008.1055
100004.8916
100004.174
100003.7707
100003.8728
100003.9283
100003.9851
100004.0233
100004.057
100004.032
100004.0278
100003.996
100003.9626
100003.9401
100003.9103
100003.8999
100003.9109
100003.9409
100003.9857
100004.0293
100004.0409
100004.0402
100004.0318
100004.0105
100004.0225
100004.0818
100004.0874
100004.5266
100004.1429
100004.013
100003.9343
100003.96
100003.9854
100004.0154
100004.039
100004.0646
100003.9958
100004.0052
100003.9666
100003.9452
100003.9381
100003.9071
100003.8991
100003.9072
100003.9347
100003.9725
100004.0168
100004.0265
100004.0245
100004.0164
100004.0019
100004.0038
100004.0137
100004.0635
100004.2866
100004.095
100004.0145
100003.9873
100003.9972
100004.0141
100004.0356
100004.053
100004.0729
100003.982
100004.0988
100003.9647
100003.9518
100003.9387
100003.9025
100003.8961
100003.9026
100003.9286
100003.9627
100004.0093
100004.016
100004.0123
100004.0028
100003.991
100003.9872
100003.9849
100004.0139
100004.0717
100004.0325
100004.0109
100004.0067
100004.0174
100004.0332
100004.0521
100004.0668
100004.0828
100003.9529
100004.0059
100003.9265
100003.9185
100003.9164
100003.8897
100003.8877
100003.8958
100003.9192
100003.9498
100003.9861
100003.9962
100003.995
100003.9882
100003.9802
100003.9756
100003.9738
100003.9895
100004.0075
100004.0073
100004.012
100004.0198
100004.0336
100004.0503
100004.0683
100004.0812
100004.0944
100003.9208
100003.9223
100003.8922
100003.8887
100003.891
100003.879
100003.8813
100003.8919
100003.9122
100003.9368
100003.9637
100003.9754
100003.9781
100003.9761
100003.9733
100003.9716
100003.9734
100003.9845
100003.996
100004.0072
100004.0207
100004.034
100004.0504
100004.0678
100004.0846
100004.0963
100004.1071
100003.9105
100003.9091
100003.8887
100003.8844
100003.8838
100003.8802
100003.885
100003.8966
100003.9135
100003.9329
100003.9528
100003.9642
100003.9692
100003.9711
100003.973
100003.9764
100003.9824
100003.9928
100004.0054
100004.0205
100004.0355
100004.0514
100004.0687
100004.0856
100004.1008
100004.1113
100004.1201
100003.911
100003.9117
100003.9016
100003.8976
100003.896
100003.8954
100003.9004
100003.9106
100003.9251
100003.9413
100003.9569
100003.9676
100003.9741
100003.9789
100003.9841
100003.9903
100003.999
100004.0112
100004.0248
100004.0394
100004.0549
100004.0713
100004.0879
100004.1026
100004.1158
100004.1249
100004.1325
100003.9291
100003.9325
100003.9267
100003.9244
100003.9228
100003.9236
100003.9285
100003.9374
100003.9491
100003.9622
100003.9749
100003.9849
100003.9925
100003.9992
100004.0064
100004.0143
100004.0237
100004.0353
100004.0483
100004.0623
100004.0771
100004.092
100004.1058
100004.1179
100004.1289
100004.1366
100004.1431
100003.9639
100003.9675
100003.9654
100003.9646
100003.9641
100003.9653
100003.9691
100003.9752
100003.9832
100003.9926
100004.0023
100004.0112
100004.0191
100004.0265
100004.0342
100004.0425
100004.0516
100004.0621
100004.0739
100004.0865
100004.099
100004.1107
100004.1214
100004.131
100004.1396
100004.1455
100004.1515
100004.0128
100004.0155
100004.0157
100004.016
100004.0163
100004.0174
100004.0194
100004.0222
100004.026
100004.0313
100004.0378
100004.0449
100004.0519
100004.0588
100004.0659
100004.0733
100004.0813
100004.09
100004.0993
100004.1088
100004.1182
100004.1269
100004.135
100004.1421
100004.1487
100004.1529
100004.1598
100004.0603
100004.0613
100004.0617
100004.0624
100004.0631
100004.0636
100004.0637
100004.0633
100004.0632
100004.0644
100004.0671
100004.0714
100004.0765
100004.0821
100004.0882
100004.0947
100004.1015
100004.1088
100004.1165
100004.1243
100004.1319
100004.1388
100004.145
100004.1502
100004.1553
100004.1584
100004.1667
100004.1219
100004.1203
100004.1195
100004.1196
100004.12
100004.1202
100004.1195
100004.1176
100004.1153
100004.1133
100004.1124
100004.1126
100004.1136
100004.1152
100004.1173
100004.1201
100004.1237
100004.128
100004.1331
100004.1387