/*--------------------------------*- C++ -*----------------------------------*\
  =========                 |
  \\      /  F ield         | OpenFOAM: The Open Source CFD Toolbox
   \\    /   O peration     | Website:  https://openfoam.org
    \\  /    A nd           | Version:  8
     \\/     M anipulation  |
\*---------------------------------------------------------------------------*/
FoamFile
{
    version     2.0;
    format      ascii;
    class       volVectorField;
    location    "1.8";
    object      U;
}
// * * * * * * * * * * * * * * * * * * * * * * * * * * * * * * * * * * * * * //

dimensions      [0 1 -1 0 0 0 0];

internalField   nonuniform List<vector> 
67451
(
(0.1493810922 -0.3188490329 0.1219872489)
(-0.03174741946 -0.340771858 0.07574210257)
(-0.1154998537 -0.3246823289 -0.02312208511)
(-0.10569426 -0.3628049028 -0.05017594976)
(-0.09507652516 -0.346386855 -0.06454483543)
(-0.05922593311 -0.4016600021 -0.03844613247)
(-0.1184274793 -0.337034799 0.1437303106)
(-0.2599736819 -0.2772673494 0.1179261115)
(-0.2709156968 -0.2621491531 0.03022829372)
(-0.1916257879 -0.2508694405 0.009123638533)
(-0.1127388502 -0.0516337679 0.1113023928)
(0.4457328759 -0.1969930005 0.0244177506)
(0.3974257773 -0.2214729064 0.03394881807)
(0.3296214242 -0.2435141534 0.04743019335)
(0.2399780419 -0.2663966785 0.07251641103)
(0.1105417638 -0.2965587977 0.1179566439)
(-0.07212591825 -0.3098396474 0.07608348057)
(-0.1665614696 -0.2936557274 -0.01689291991)
(-0.1395114555 -0.3395148697 -0.05212515003)
(-0.1304283241 -0.3050930248 -0.06573509731)
(-0.07299903346 -0.330925065 -0.08110633874)
(-0.07475848542 -0.3354939972 0.1004029982)
(-0.2194640124 -0.2986795452 0.05628409774)
(-0.1869149148 -0.3164221097 -0.1039562452)
(-0.07206665041 -0.346523101 -0.1830972961)
(0.03592104034 -0.2347854252 0.02447086926)
(0.02627817917 0.07184977768 0.2095846316)
(-0.03833941985 0.2066938198 0.08204002853)
(0.08516400842 0.4222217047 -0.194494281)
(0.2272865707 0.5258909428 -0.1935685332)
(0.3451988325 0.50956571 -0.08771569031)
(0.3962132385 0.3933863897 0.05438693971)
(0.3918623539 0.3256701241 0.1188829959)
(0.3356040784 0.2850580462 0.1065559638)
(0.2789696541 0.2664340268 0.06194396125)
(0.1949447147 0.2698700089 0.04071573663)
(0.1216220659 0.3153967255 0.08850399591)
(0.4529437403 -0.1357451385 0.006741079109)
(0.443318565 -0.1699607778 0.009512618598)
(0.4191726363 -0.1939676011 0.01645426659)
(0.3759389394 -0.2118203196 0.0260754955)
(0.311747881 -0.2273257304 0.04068590362)
(0.2248639365 -0.2453309978 0.06937952477)
(0.09226695516 -0.2678334567 0.1136247413)
(-0.08317977749 -0.2865305489 0.07670090973)
(-0.1947083997 -0.2724750816 -0.04505936739)
(-0.127943396 -0.341767685 -0.1668852591)
(-0.1239791926 -0.2875155545 -0.0472756024)
(-0.1084252381 -0.3268256307 -0.05778254483)
(-0.09853814022 -0.3623850367 -0.09676796651)
(-0.1916340062 -0.2716223982 -0.08825671081)
(-0.1120642965 -0.2427467203 -0.2675394643)
(0.04920499885 -0.2456424999 -0.3596694177)
(0.1538740525 -0.222085547 -0.2239034258)
(0.1951774109 -0.1101605868 0.02476638319)
(0.09573970227 0.02982212177 0.1537330538)
(0.07191178386 0.2737043018 0.05727891682)
(0.1776446184 0.3598361568 0.05011767965)
(0.2205743816 0.3308346994 0.1030415766)
(0.2731967374 0.1752616993 0.1756202921)
(0.3204303058 0.1607689993 0.1445186669)
(0.277438158 0.1961220704 0.09593466923)
(0.2337024054 0.2351608805 0.05506072614)
(0.16472118 0.2756967047 0.04622615608)
(0.1037648763 0.3377373154 0.09900175779)
(0.4247565263 -0.1572281535 0.01443238832)
(0.4192100642 -0.1785403332 0.004671198239)
(0.4007559116 -0.1918747154 0.01080956894)
(0.3621190547 -0.2008297001 0.02425925604)
(0.3011916901 -0.2089272379 0.04161338169)
(0.2170561449 -0.2177555012 0.07140162714)
(0.07379121668 -0.2270800713 0.113101431)
(-0.1026178575 -0.2178318019 0.07889587222)
(-0.2622887662 -0.1969921149 -0.1188017592)
(-0.09241970299 -0.1532855223 -0.4281554643)
(-0.1204087604 -0.1444306225 -0.0646431306)
(-0.1315053625 -0.1283244395 -0.2639855995)
(0.04801333473 -0.1286086586 -0.5207378283)
(-0.06951258186 -0.1072782359 -0.1544050473)
(-0.05271979546 -0.06774285111 -0.3328626123)
(0.1372496629 -0.02972738025 -0.4458501773)
(0.2613493112 -0.01212677129 -0.3919725631)
(0.3477581193 0.03034381991 -0.2715707803)
(0.3374990175 0.04460268317 -0.07415851261)
(0.2115534423 0.1310925634 0.1486551222)
(0.2010691735 0.1720427224 0.2482716492)
(0.1110193127 0.1874065518 0.2423798422)
(0.2141444693 -0.1000039764 0.1917069536)
(0.3546014028 0.09216574427 0.2247318176)
(0.3425414596 0.2229918635 0.1697467867)
(0.2743803713 0.275159462 0.101482427)
(0.1823809824 0.3136183713 0.07972624611)
(0.1010581422 0.3677940098 0.1201853635)
(0.3976591931 -0.1853697862 0.01899273934)
(0.3856414023 -0.1889205314 0.02399367487)
(0.3536227328 -0.1932691008 0.03830011823)
(0.3021694787 -0.1978674784 0.05372126572)
(0.229381456 -0.2006833664 0.07506472187)
(0.1244504315 -0.1982748879 0.1046301657)
(-0.01793661772 -0.1716316843 0.09373925493)
(-0.1285505252 -0.1359748829 -0.0001347902187)
(-0.1136865391 0.06393787001 -0.05438482926)
(-0.1105104253 -0.0245905111 -0.01998240714)
(-0.05940203161 0.07275258933 0.06468204435)
(-0.03722500394 0.09916057735 0.1351259505)
(-0.1584232184 0.0945076422 0.08584397214)
(-0.1206410066 0.12772848 -0.1472272519)
(0.07489470473 0.161951907 -0.3393865245)
(0.1801395764 0.1785776174 -0.2406643976)
(0.2890813513 0.1570617181 -0.1089458111)
(0.280110398 0.08368764271 0.08903217258)
(0.169278723 0.02323740196 0.1746753239)
(0.1867330264 -0.06292160905 0.08162959334)
(0.1655572178 -0.137046319 0.02194706813)
(0.3812663708 -0.5842385397 -0.4926095623)
(0.4263352283 -0.4748605838 -0.1032587172)
(0.3089643198 -0.05809825996 0.1077226625)
(0.2177644222 0.1379422532 0.09933716257)
(0.1327792215 0.2388819727 0.08568942042)
(0.06983305914 0.3187591225 0.1177763234)
(0.3759311365 -0.2422444199 0.08126476649)
(0.3566343019 -0.2301510652 0.07182023415)
(0.327773856 -0.2225514036 0.06701110503)
(0.2865170797 -0.2173442873 0.06878794731)
(0.2268906679 -0.2117230157 0.08140337155)
(0.1316453256 -0.1978220582 0.1082498892)
(0.01268054085 -0.170632586 0.1296454924)
(-0.1387175372 -0.1287041454 0.05204838389)
(-0.1255715507 -0.07389433654 0.05227581803)
(-0.1353644628 -0.1170010849 0.06038962853)
(-0.09195568683 -0.2400996493 0.1386781269)
(-0.0116293433 -0.2277420554 0.2565842216)
(-0.1242752704 -0.1570439749 0.2831083783)
(-0.1601902532 -0.02620099025 0.1301995358)
(-0.01177917831 0.188082705 -0.1078290664)
(0.114114002 0.06627791282 0.04210702815)
(0.1126277487 -0.07029415532 0.2475800942)
(0.0112070604 -0.1333380176 0.3601395708)
(-0.186212099 -0.03186180736 0.1790033178)
(-0.1706356238 0.0510781592 -0.02408614085)
(-0.2422789748 0.149253413 -0.7022714843)
(0.6521034103 0.2461294711 -1.851759756)
(0.8879930128 0.2403717297 -1.303888478)
(1.024045625 0.2282475171 -0.481054939)
(0.6578923258 0.2552371613 0.07443590129)
(0.2676322729 0.3081716013 0.1357856176)
(0.05780399716 0.3514358761 0.05983930246)
(0.3406630945 -0.3319181839 0.08305209258)
(0.3231068036 -0.3028394501 0.06695747635)
(0.3024951458 -0.2799303679 0.05845342293)
(0.274004187 -0.2613768895 0.05889588999)
(0.2311143962 -0.243816683 0.07166645792)
(0.1592221897 -0.2233532434 0.1028942376)
(0.06876015954 -0.1851099222 0.1550210475)
(-0.08700767827 -0.1157868828 0.0907115043)
(-0.1139858324 -0.04686878208 0.03968431463)
(-0.13775728 -0.1553946106 -0.000851455321)
(-0.05342143209 -0.3600700063 -0.09503423005)
(0.008028670968 -0.3652330836 0.08114466079)
(-0.08197874884 -0.2957734466 0.1965804321)
(-0.1423655422 -0.2641975164 0.1774056952)
(-0.122609722 -0.1542292337 0.1531059904)
(0.1963143864 -0.1806580938 -0.1575937581)
(0.2578183979 -0.2826882862 0.05177197128)
(0.2748902402 -0.3568503566 0.1082412452)
(0.2605644791 -0.1586993671 0.2287498962)
(0.1954536659 0.1483046778 0.2657600856)
(0.008185875491 0.3114771685 -0.06144486563)
(0.5057073495 0.6689964302 -0.8880881793)
(0.732111763 0.7308927023 -0.468706816)
(0.6500310186 0.5947722555 -0.006517837291)
(0.3551889566 0.5183413083 0.1584620777)
(0.1027060713 0.4883020051 0.07926781889)
(-0.01163640522 0.4665823885 -0.02546031936)
(0.3286879524 -0.400877442 0.06310725713)
(0.310806757 -0.360954781 0.04232095584)
(0.2959494079 -0.3288131761 0.03382091977)
(0.2756606401 -0.3023627268 0.03733396152)
(0.2399175087 -0.2791485023 0.05530073469)
(0.1726421361 -0.259154759 0.09573989521)
(0.07841503745 -0.2270901541 0.1753483673)
(-0.1025201394 -0.1336553342 0.1603945845)
(-0.1565360947 -0.09345781148 0.05911894028)
(-0.1492983638 -0.1988800666 -0.1300003501)
(0.001335591129 -0.3703760169 -0.334007405)
(0.08689047153 -0.439464155 -0.1784200525)
(0.08330397869 -0.3907497385 0.02453650737)
(0.005998256197 -0.3678969431 0.06540434957)
(0.05171003561 -0.3610929699 0.09839328607)
(0.05122754488 -0.3092928438 0.0467766765)
(0.2093760875 -0.4108321581 -0.2674348628)
(0.3585590734 -0.5469021053 -0.3073112672)
(0.4804258999 -0.4583458728 -0.07319125909)
(0.4758444546 -0.1785234222 0.2417772024)
(0.2982558699 0.1189177383 0.3016353258)
(0.403963401 0.6123693298 -0.01615328498)
(0.5229893737 0.595655468 0.1192197209)
(0.4222060986 0.4818986242 0.2163311641)
(0.2526526991 0.466866987 0.1843244748)
(0.08557890956 0.4880703365 0.08672011048)
(-0.01053119366 0.4937969588 -0.01383006996)
(0.340803435 -0.4485154498 0.05260106675)
(0.3239567017 -0.3992488504 0.02444579329)
(0.312965679 -0.3599926583 0.01405146012)
(0.2975677337 -0.3291261759 0.01935485753)
(0.2657379416 -0.3052782212 0.0413206073)
(0.1999383289 -0.2929593664 0.08854619694)
(0.0846027747 -0.2794658765 0.1730759998)
(-0.1459464511 -0.2061207208 0.1136612783)
(-0.2278607771 -0.1546744503 -0.09887359477)
(-0.1599620173 -0.1693400431 -0.3272477325)
(0.03330912366 -0.2388559403 -0.502710579)
(0.1406954643 -0.298890169 -0.4007931749)
(0.1870959603 -0.311233537 -0.2178527119)
(0.1085734215 -0.3370422179 -0.0666110035)
(0.05333014483 -0.3394752535 0.03401252047)
(-0.1093926531 -0.3417994099 -0.106661471)
(0.237371017 -0.1233440685 -0.7125760825)
(0.5050291995 -0.2467444471 -0.7962737523)
(0.7215759283 -0.3283337567 -0.5944166581)
(0.7913611916 -0.2615158833 -0.2561146291)
(0.6363533748 -0.1138622393 0.04664842559)
(0.4940060656 0.1990930405 0.2070623158)
(0.4743265164 0.3105381534 0.2376389966)
(0.3563033324 0.354990401 0.2201776078)
(0.2220908953 0.4128019394 0.1733850007)
(0.0972155695 0.4711702258 0.1058693813)
(0.01187728521 0.4986759626 0.03523720198)
(0.3801368789 -0.4686657255 0.05278734464)
(0.3559688223 -0.4113249615 0.01621426877)
(0.343080406 -0.3669118977 0.001705529265)
(0.3261915765 -0.3323562945 0.007179749335)
(0.2866541499 -0.3013465705 0.03328119751)
(0.2047188209 -0.268683141 0.09564249643)
(-0.001974835196 -0.215255332 0.1764068047)
(-0.3150205612 -0.1303694256 -0.05206614736)
(-0.3480721635 -0.02054123185 -0.3528535721)
(-0.2134595722 0.05662992011 -0.5388518448)
(0.04419026122 0.06613430971 -0.6433474139)
(0.2172050778 0.02888082326 -0.5642823028)
(0.3082994289 -0.01046651621 -0.4273364084)
(0.3044807667 -0.07291856415 -0.2319842455)
(0.1374162216 -0.06692719039 -0.05168014641)
(-0.0209519168 -0.05482993494 -0.01546944639)
(-0.1298961019 0.1954453611 -0.5426683791)
(0.5535694047 0.2573251178 -1.199399222)
(0.8331894262 0.245500201 -1.086796695)
(1.069152324 0.2362209997 -0.8279171636)
(1.078175985 0.2017559793 -0.4217238951)
(0.8694636378 0.2064436017 0.00670678082)
(0.6556311745 0.2268705354 0.1772238953)
(0.4505580499 0.2703277544 0.1951958582)
(0.2759786891 0.3401767399 0.1716106434)
(0.1359184172 0.4218229624 0.1288329261)
(0.04079757411 0.4733768561 0.08293039585)
(0.4320426391 -0.454981215 0.05759738444)
(0.3951958323 -0.3963359832 0.01470321003)
(0.3794499008 -0.351344677 -0.005979210214)
(0.367309597 -0.3179691519 -0.004314210296)
(0.343857723 -0.2829106306 0.01366550101)
(0.2838958618 -0.230262071 0.05352201281)
(0.1813351267 -0.1459277981 0.1454796511)
(-0.09608694901 -0.006539415639 0.1695136609)
(-0.324456341 0.1385461307 -0.1674532523)
(-0.2270926613 0.2372088273 -0.448070559)
(0.01697706692 0.3294115309 -0.585562421)
(0.1826297477 0.328733179 -0.4795816072)
(0.2594981405 0.2884208339 -0.3005272448)
(0.2118387853 0.2395171133 -0.1355279824)
(0.1247824833 0.2140942152 -0.09853423798)
(0.1342844519 0.2709460213 -0.04699003502)
(0.02093259244 0.3340067528 -0.2490681543)
(0.5228324702 0.4934036621 -0.8190706897)
(0.8005333103 0.5371531872 -0.7291106902)
(1.004692124 0.4623935529 -0.4808957737)
(1.005200279 0.3820391353 -0.1892521527)
(0.859368311 0.3353344626 0.02401817711)
(0.6877733191 0.2992483926 0.1081027575)
(0.5117694273 0.2863661744 0.1370705278)
(0.3394689458 0.3114390785 0.1518539991)
(0.1790496868 0.3768223289 0.1420585507)
(0.06470460563 0.4401834078 0.1160354911)
(0.495049552 -0.4225045704 0.03949697283)
(0.4341156977 -0.3645409382 0.0116587898)
(0.4103471656 -0.3219048264 -0.01191690292)
(0.3980839377 -0.2933637474 -0.01388233232)
(0.3829220655 -0.2661246824 -0.002533876768)
(0.3498138567 -0.2242576905 0.02261037968)
(0.281021335 -0.1499063664 0.08034690554)
(0.1765217413 -0.04406867115 0.1999915427)
(-0.07993744719 0.1593494519 0.170350429)
(-0.1934160647 0.3747378256 -0.2619055295)
(-0.007345357539 0.5301018789 -0.4896231453)
(0.07932596201 0.5587549051 -0.322302939)
(0.1005425131 0.4974451395 -0.1088269151)
(0.05525481564 0.4019835454 -0.06417465799)
(0.08618413913 0.3468288313 -0.1248504716)
(0.1860087001 0.3758107243 -0.09563177172)
(0.2387244941 0.4057140403 -0.1671184728)
(0.5147818097 0.6101764976 -0.4319911343)
(0.758447521 0.6509504656 -0.3574489699)
(0.9089646225 0.5477106003 -0.1783860554)
(0.9138041715 0.4286253078 -0.02627348367)
(0.8347509883 0.3497069527 0.05422057375)
(0.7186995073 0.3065207182 0.08879386416)
(0.5719505224 0.2917268543 0.1135086863)
(0.4034391047 0.3039827038 0.1384986685)
(0.2223756027 0.3514233118 0.1482562443)
(0.083004631 0.4152560358 0.1372751738)
(0.6417470883 -0.2735106284 0.01313455565)
(0.5043326628 -0.266856218 0.02152135052)
(0.4440805354 -0.2559237081 -0.01027779067)
(0.4183021107 -0.2481278766 -0.02038833775)
(0.4041970211 -0.2320538033 -0.01811561399)
(0.3866381823 -0.2008055602 -0.007205219788)
(0.3515938519 -0.1474620086 0.02162611071)
(0.2745168866 -0.06029873755 0.08939643298)
(0.1492094179 0.06392501235 0.2422954688)
(-0.09661909307 0.3321222515 0.04601407054)
(-0.02767781754 0.6167537156 -0.3423314158)
(-0.009927216571 0.6658533036 -0.125481359)
(-0.05359840367 0.5782837984 0.02902344617)
(-0.05359062515 0.4920851826 -0.06480134086)
(0.05325219296 0.4366337976 -0.1584312236)
(0.189776136 0.4454490419 -0.1447601466)
(0.3158344197 0.4423839305 -0.1661675023)
(0.5097361876 0.5739050598 -0.2045526649)
(0.7111933382 0.5839454953 -0.1393878392)
(0.8267898446 0.5037111985 -0.05123460869)
(0.8479199784 0.4093161027 0.008998221143)
(0.8091415438 0.3477759634 0.04653072374)
(0.7242809707 0.3161159039 0.0762187333)
(0.5985815486 0.3027721969 0.1050529831)
(0.4417625008 0.3073622394 0.1341362188)
(0.2542180678 0.341217418 0.1531966532)
(0.09563440206 0.4001030948 0.1528017984)
(0.4821372196 -0.08344251109 0.01790718789)
(0.420553661 -0.1400663338 -0.02118099862)
(0.4017977418 -0.1721632018 -0.03477025312)
(0.3965758817 -0.1895712166 -0.03381222709)
(0.3981202661 -0.1858758136 -0.03343037221)
(0.3974497703 -0.1601697118 -0.03115559845)
(0.3836797857 -0.1177361765 -0.01748341611)
(0.3389302325 -0.05854538422 0.01916760566)
(0.2545605797 0.03761206267 0.1215265195)
(0.05483078321 0.1936647841 0.2119878874)
(-0.05343390349 0.5779180392 -0.03811756807)
(-0.0583237551 0.6178027067 0.05603324789)
(-0.1412523221 0.5723116055 0.06450749067)
(-0.1069550672 0.52444126 -0.08038711551)
(0.01730344193 0.4949457315 -0.1740835671)
(0.1743252836 0.4944338053 -0.1828931358)
(0.3299831925 0.4822033378 -0.188820159)
(0.49945484 0.5350112077 -0.1541097275)
(0.6590636225 0.5220706311 -0.1036058903)
(0.7460430068 0.4678922312 -0.05439801905)
(0.7837486118 0.3803219667 -0.01663880892)
(0.7894090355 0.3224912266 0.02514630017)
(0.735328719 0.314034074 0.06359060897)
(0.6242599633 0.3092937386 0.09801431125)
(0.47422269 0.3123424178 0.1288969468)
(0.2821336226 0.3386106154 0.1540763411)
(0.1065382881 0.3903447567 0.1654916298)
(0.3846804159 -0.008081310353 -0.00844909606)
(0.3678713908 -0.06682997678 -0.03808017599)
(0.3679885194 -0.1045352683 -0.04196161465)
(0.3736720039 -0.1318589366 -0.03939618113)
(0.3919627219 -0.134824763 -0.0415128404)
(0.4119074293 -0.1113253271 -0.0417964105)
(0.4177904477 -0.06873614556 -0.03548500479)
(0.3988208968 -0.01404717224 -0.01826685121)
(0.3455754396 0.05884331978 0.03155115989)
(0.2177778326 0.1504959902 0.1372201098)
(0.04288967043 0.4228140512 0.1910796141)
(-0.03272151271 0.4897041607 0.1788559917)
(-0.1500802312 0.5299332638 0.06623927671)
(-0.1177961067 0.5378871503 -0.08281361243)
(-0.007714086586 0.5389221832 -0.1712270443)
(0.1563209001 0.5394920124 -0.1993568265)
(0.3195504384 0.5269522895 -0.2018316461)
(0.4758691234 0.5340562367 -0.1635080592)
(0.6098961889 0.5012900412 -0.1191743417)
(0.6671951236 0.4544130682 -0.06695478749)
(0.7042868289 0.3368992706 -0.02475908984)
(0.7721142044 0.3249262367 0.02189491302)
(0.7571072639 0.3240776731 0.06138622816)
(0.6421292948 0.3196786867 0.09066030796)
(0.4943909008 0.3250073714 0.1127490424)
(0.3046631734 0.3484452858 0.1402363895)
(0.1196705284 0.3874103773 0.1715785631)
(0.2958068061 0.08753077673 -0.05051801805)
(0.3048177145 0.008970784588 -0.05069860737)
(0.3244043017 -0.03076390329 -0.04734323639)
(0.3503254945 -0.07288998149 -0.04974584562)
(0.3989142286 -0.08708918901 -0.05499752539)
(0.4498972498 -0.07002129909 -0.04675688016)
(0.4849437784 -0.02848224031 -0.02675917791)
(0.4942688246 0.02460439765 -0.003041337189)
(0.462214887 0.08423346464 0.027482207)
(0.3733889639 0.14889014 0.08687838478)
(0.2275985214 0.2842912289 0.205344971)
(0.08696055107 0.3491213247 0.2532785285)
(-0.1086894574 0.4863494597 0.08759975232)
(-0.09357505924 0.5452963854 -0.07038790269)
(-0.01444553676 0.5750000265 -0.1557914388)
(0.1403591963 0.5811052975 -0.1921709028)
(0.2942667615 0.5710348779 -0.1920497751)
(0.428402732 0.5558703999 -0.1577893531)
(0.5432794497 0.5001842611 -0.1177145578)
(0.5464361706 0.4455514951 -0.05512810106)
(0.6042733345 0.1568807844 -0.08162191426)
(0.7681412633 -0.07264919305 -0.005934521093)
(0.7421166676 0.2224961428 0.04254008291)
(0.6386109845 0.3112582911 0.06734894945)
(0.5069204983 0.3492449086 0.08183625569)
(0.3259408137 0.3771382495 0.1123497387)
(0.138636607 0.4004732469 0.1685812231)
(0.2055755264 0.1616968681 -0.04719524541)
(0.2357961811 0.06436814449 -0.01884455179)
(0.2773175315 0.03501544171 -0.04142035947)
(0.3207061778 -0.02266437017 -0.0854266065)
(0.4030439724 -0.04758988856 -0.1146873954)
(0.4847565436 -0.04485322235 -0.1074395996)
(0.5504066413 -0.01729173887 -0.07292162586)
(0.5866948513 0.03039931654 -0.02382522228)
(0.5767815923 0.09198883272 0.02844298007)
(0.5092775054 0.1536937785 0.08356123747)
(0.3881487446 0.2246810521 0.1708420446)
(0.2218446085 0.2749218049 0.2611882534)
(-0.02774320616 0.4425536339 0.1569419073)
(-0.05405133156 0.5470755021 -0.03966388493)
(-0.002161368975 0.6028281664 -0.1312040515)
(0.1292268886 0.6140425516 -0.1679210189)
(0.2655397787 0.6097611153 -0.1652533627)
(0.3682850275 0.5941232805 -0.1350837102)
(0.466570251 0.5743961643 -0.1058746691)
(0.3096056901 0.5635020619 -0.01008020083)
(0.07974008299 0.5389229407 -0.2557300469)
(0.8056880233 0.4939378206 -0.4224453227)
(1.127939274 0.4654900335 -0.05098397422)
(0.7660043829 0.4476753534 0.03063967997)
(0.5518221746 0.4362481069 0.05038461813)
(0.3488127985 0.4361523421 0.08542888165)
(0.1572976601 0.4382108828 0.1615592199)
(0.1195118357 0.2262416399 -0.02597472787)
(0.1449045249 0.04707403849 0.0183484623)
(0.1984892192 0.09663656365 -0.07249539908)
(0.2617816793 0.0569002003 -0.1769507034)
(0.3797986849 0.0533548021 -0.2258290619)
(0.4871744183 0.05288668471 -0.2215871913)
(0.5718957229 0.0608602649 -0.1859268705)
(0.6219543551 0.08097135615 -0.1304213307)
(0.6321218581 0.112254704 -0.05972319574)
(0.5832471608 0.1512669866 0.02195845507)
(0.4741841402 0.1912134241 0.1137181347)
(0.3161131244 0.2280013809 0.2055314733)
(0.08233187874 0.368031656 0.2107216625)
(-0.006552469519 0.5230078162 0.02786615705)
(0.02311734351 0.6142123486 -0.09048689638)
(0.1279448457 0.6280000017 -0.1312802335)
(0.250381453 0.6241754795 -0.1296746303)
(0.3662264611 0.5905339575 -0.10827994)
(0.4853406887 0.6075811545 -0.08040599577)
(0.4745071101 0.6477663921 -0.02056625436)
(0.4771446454 0.8469940169 -0.07029538523)
(0.6899715975 1.033662229 -0.04669516195)
(0.7131318229 0.7174559818 0.02114296588)
(0.5928583973 0.5896393761 0.03424704052)
(0.4789160592 0.5253768602 0.03650602721)
(0.32470198 0.4970850666 0.07011025494)
(0.1592912796 0.4844771557 0.1565998786)
(-0.04673465963 0.2958446092 0.02552728635)
(0.007094114553 0.0321220952 0.0756176695)
(0.1792231434 0.1780511001 -0.112361436)
(0.2313117759 0.1792969518 -0.2089070519)
(0.3820557805 0.195369446 -0.2649956682)
(0.4970685833 0.1986939282 -0.2639070167)
(0.5897710306 0.1996180759 -0.2343561561)
(0.6456583187 0.2050459277 -0.1901941264)
(0.6573034791 0.2164761009 -0.1326232088)
(0.6225319144 0.2284982444 -0.05623072141)
(0.5232902803 0.236220874 0.03452197864)
(0.3806095684 0.2506289897 0.1111228371)
(0.198728678 0.3255035023 0.1629561204)
(0.06889468356 0.4695860538 0.09533563756)
(0.05558068096 0.596437413 -0.02027243312)
(0.1308177129 0.6251764951 -0.08112443445)
(0.2155703357 0.6271391427 -0.08534938055)
(0.3361119475 0.6127088386 -0.1197619957)
(0.5074401397 0.6340138162 -0.1095538155)
(0.565714251 0.653760352 -0.03298486941)
(0.5719028466 0.7490090529 -0.00794715339)
(0.6326058902 0.7545508418 0.0260887943)
(0.6094414946 0.6652126788 0.04074632078)
(0.5240669733 0.6052366763 0.03373221413)
(0.4324943761 0.5612725687 0.03197240259)
(0.2989480816 0.5340241009 0.06697484355)
(0.1516631066 0.5194886118 0.1547759504)
(-0.2035699054 0.3277777281 0.05954183419)
(-0.08024478129 -0.2086853246 -0.05344842337)
(0.2000806467 0.1926308976 -0.1338814733)
(0.2515383293 0.2805880368 -0.1947252731)
(0.3950796611 0.3298336265 -0.2588456077)
(0.5069638488 0.3448031015 -0.2646070668)
(0.6008737797 0.3425888205 -0.2406344635)
(0.659946066 0.3364731076 -0.2025866358)
(0.6747306141 0.3326544548 -0.1532399671)
(0.642166136 0.3293449383 -0.0845204099)
(0.5481894583 0.3207128131 -0.001503723899)
(0.4158937505 0.3179937795 0.053373332)
(0.2806770818 0.3473835333 0.08384754295)
(0.1666519758 0.4302803666 0.09151679074)
(0.1195315776 0.5366341321 0.04266140384)
(0.1647250272 0.5770904905 -0.01925209112)
(0.2540460494 0.5707759438 -0.04233388635)
(0.3802836466 0.5869041165 -0.06113290762)
(0.5176697258 0.6130200644 -0.04341321513)
(0.5795835015 0.6263793785 -0.006295587228)
(0.5898443867 0.6854396411 0.02491988932)
(0.5854750527 0.6960160525 0.05363691747)
(0.5369091238 0.6576735705 0.05801005056)
(0.4641683378 0.6160404071 0.04381930094)
(0.3859132439 0.5788496826 0.04097865883)
(0.2666920297 0.5513072382 0.07527190992)
(0.1348117218 0.5367708171 0.1541699803)
(-0.4393918252 0.3939633882 -0.2319235476)
(-0.01602842219 -0.04741504207 -1.110904449)
(0.3846456003 0.2582018138 -0.4329649865)
(0.421857553 0.3915125699 -0.186715455)
(0.4741038099 0.4707287302 -0.2166022045)
(0.5444574376 0.4980835833 -0.2368613098)
(0.6177900071 0.4917908123 -0.225670963)
(0.6689228239 0.4744448018 -0.1951032375)
(0.6815955319 0.4582246535 -0.1504123746)
(0.6471342978 0.443767523 -0.08323911507)
(0.5495970779 0.4259972081 -0.003450281147)
(0.4207685085 0.4110080801 0.03412356196)
(0.3107581012 0.4120819274 0.03341655286)
(0.2273713242 0.4404890403 0.04776816973)
(0.1639848124 0.494814768 0.05054221679)
(0.1796945837 0.524970941 -0.02609541725)
(0.2749833807 0.5179601888 -0.09966168669)
(0.3991406629 0.5270085184 -0.1304398774)
(0.5194464285 0.5502646741 -0.1166006311)
(0.5860065802 0.5808331981 -0.0769201462)
(0.594839404 0.6256720928 -0.01724570639)
(0.5614364944 0.6420113512 0.04170104042)
(0.4952741882 0.6297054852 0.06716140588)
(0.4183945513 0.6037581595 0.06195467523)
(0.3409925777 0.5735112307 0.06118770728)
(0.2296856862 0.5463939433 0.09024330056)
(0.1121473966 0.5317245152 0.151001742)
(-0.9091872066 0.7824096033 -0.8961609625)
(0.1139493693 0.9783183362 -2.747748944)
(0.8348422595 0.8172787376 -1.107215096)
(0.7492015278 0.7373345561 -0.2544303754)
(0.5982571643 0.709868633 -0.1503430398)
(0.585326689 0.679760513 -0.1888396958)
(0.6239445058 0.6421255385 -0.197528328)
(0.6622031237 0.6046211923 -0.1760767621)
(0.671876117 0.574253137 -0.1341152697)
(0.6365847556 0.5507788389 -0.06493314738)
(0.5363209926 0.528079614 0.01281823842)
(0.4104040114 0.5086110777 0.03682340789)
(0.3125445964 0.4950209885 0.01250269367)
(0.2488825632 0.4959502709 0.01046106758)
(0.1800206565 0.517413077 0.02474146615)
(0.1689094013 0.538213992 -0.07670457866)
(0.2720240614 0.5400589624 -0.1868650838)
(0.3979500716 0.5485879907 -0.2223550833)
(0.5157096853 0.5653528296 -0.2088624851)
(0.5864261816 0.5873966052 -0.1666189608)
(0.6019516535 0.6085708049 -0.08883059581)
(0.5566401741 0.6126486257 0.009806511885)
(0.4738221897 0.6008778073 0.07185139496)
(0.3820901206 0.5781398506 0.08446514522)
(0.296824088 0.5493865423 0.08544336619)
(0.1902897238 0.5208764088 0.1041687621)
(0.08811313122 0.5047761107 0.1425161858)
(-0.7176080161 1.002967088 -0.3468425175)
(0.07724292705 1.458702992 -1.729086435)
(0.7143751269 1.199150699 -0.5238666434)
(0.5492447601 1.025635033 -0.08233149295)
(0.5150883331 0.9134531384 -0.1208268834)
(0.5373426938 0.829771947 -0.1681550411)
(0.58875055 0.7644383341 -0.1740074015)
(0.6305861125 0.7095469509 -0.1526281804)
(0.6428836253 0.6668671491 -0.1090585926)
(0.6095405721 0.6347872915 -0.03712749105)
(0.5159638949 0.6086835027 0.03480650501)
(0.3998286074 0.5911344292 0.04829335401)
(0.312077612 0.5755769117 0.01026107256)
(0.2609081805 0.5673066156 -0.008969445631)
(0.2020798313 0.5782712937 0.0008997920592)
(0.1740000321 0.5953492885 -0.09900294166)
(0.274074244 0.6042715052 -0.220206025)
(0.3956865504 0.6138168889 -0.2577079256)
(0.5086449868 0.6206650452 -0.247013252)
(0.5781982662 0.6241718057 -0.2051822634)
(0.5921732779 0.6205898892 -0.1144686863)
(0.5370916983 0.6024081176 0.008232677018)
(0.4409527184 0.5753146421 0.08828204852)
(0.3383196855 0.5439436147 0.10633205)
(0.2491660878 0.5102414212 0.1034784426)
(0.150972433 0.4781335601 0.1098484622)
(0.06630457685 0.4595701194 0.1287561147)
(-0.3239133615 0.9735103106 0.02090404827)
(0.04999461269 1.658630261 -0.6135690977)
(0.4465696693 1.22254886 -0.1081535847)
(0.3531709041 1.092824358 -0.02208887675)
(0.4300875021 0.9857681547 -0.1135446695)
(0.4825185506 0.9064138366 -0.1480209168)
(0.5444485842 0.8393586448 -0.1461657782)
(0.5871283838 0.7781762561 -0.1218653039)
(0.6011138607 0.7272969343 -0.07564693068)
(0.5713222463 0.6855682253 -0.006694931031)
(0.4943405594 0.6564467069 0.05294661774)
(0.3974666929 0.6435034969 0.05933221726)
(0.3225083489 0.6341688843 0.01827191724)
(0.2810837501 0.6269536465 -0.01252306717)
(0.2416931128 0.6364529782 -0.01002010098)
(0.2107928288 0.6524036228 -0.08545692358)
(0.2921515079 0.6659286424 -0.1984990961)
(0.3965416836 0.6769584249 -0.2399338808)
(0.4922204156 0.674192985 -0.2319079911)
(0.5505514733 0.6592199328 -0.1811428235)
(0.5479088167 0.6274124277 -0.07078996279)
(0.4824590491 0.5832922624 0.04973157566)
(0.3829597277 0.5379423154 0.1127495795)
(0.2841776277 0.4966135609 0.1175454609)
(0.2016294689 0.4576972647 0.1080585522)
(0.1159363738 0.421896821 0.1061079605)
(0.04814578107 0.4001400925 0.1132377183)
(-0.08018505436 0.8799937739 0.08424793536)
(0.07907414658 1.392123977 -0.008935693624)
(0.3154607581 1.080040999 0.04052679909)
(0.2845066087 1.05071712 -0.01020765277)
(0.3848121062 0.9827268614 -0.09079658382)
(0.4454574549 0.9272588211 -0.1135686818)
(0.5043458627 0.8694361715 -0.1065191896)
(0.5414970774 0.8087925295 -0.07965355109)
(0.5528410099 0.7506888141 -0.03479614748)
(0.5300631219 0.6999781719 0.02004208923)
(0.4755668814 0.6685647512 0.06083464149)
(0.4047365036 0.6597481491 0.06397663772)
(0.345984539 0.6574610964 0.03051313945)
(0.312084015 0.6544339469 -0.00327767519)
(0.2893991924 0.6626436661 -0.007289743136)
(0.2639345509 0.6778962918 -0.05271054526)
(0.3171712318 0.694354695 -0.1430158429)
(0.3932746562 0.7065766876 -0.1831616832)
(0.4631198061 0.695889214 -0.1669343085)
(0.4960220393 0.656304612 -0.09179039086)
(0.4731670727 0.5966952151 0.01809221995)
(0.4032334029 0.5334785547 0.1000946509)
(0.3150176085 0.4799302242 0.1228959678)
(0.2331004389 0.4366279816 0.1120027649)
(0.1627499304 0.3965248168 0.1011482074)
(0.08855538962 0.3574360202 0.09791996777)
(0.03339839806 0.3301501993 0.09972255753)
(0.05080650145 0.808326893 0.06016306287)
(0.1400653282 1.081739026 0.1199775359)
(0.280611834 0.9366513361 0.07235939526)
(0.2827777686 0.9589463901 0.01376120545)
(0.3668247309 0.9332177013 -0.04351985497)
(0.4235290766 0.9013079161 -0.05956988511)
(0.4712218735 0.8538475251 -0.0502477261)
(0.4984473672 0.7942182739 -0.02554906124)
(0.5056130015 0.7324663525 0.00671877875)
(0.492718877 0.6797130896 0.03710626164)
(0.4619188692 0.6487064354 0.0572572613)
(0.4186767882 0.6418485299 0.06063833422)
(0.3776916424 0.6429329096 0.04245040637)
(0.3496718733 0.6416721255 0.01689812609)
(0.3340115786 0.6453025265 0.01119993875)
(0.3140622812 0.6507678672 -0.006559417807)
(0.3365403046 0.6674147676 -0.0612977794)
(0.3807340129 0.6756471098 -0.08323670952)
(0.4189804198 0.6486390359 -0.04840988163)
(0.424315612 0.5896763185 0.02578934076)
(0.3886386198 0.5182508621 0.09383126462)
(0.3261484957 0.4548056743 0.119557946)
(0.2594057118 0.4082723206 0.110878008)
(0.1968303188 0.3711730718 0.09655595196)
(0.1373540034 0.3333465089 0.09055026023)
(0.07002674119 0.2902875341 0.08924299987)
(0.02217106285 0.2523083104 0.08804798695)
(0.1190281077 0.7274886674 0.04110760453)
(0.1887680425 0.8602168692 0.09334097049)