/*--------------------------------*- C++ -*----------------------------------*\
  =========                 |
  \\      /  F ield         | OpenFOAM: The Open Source CFD Toolbox
   \\    /   O peration     | Website:  https://openfoam.org
    \\  /    A nd           | Version:  8
     \\/     M anipulation  |
\*---------------------------------------------------------------------------*/
FoamFile
{
    version     2.0;
    format      ascii;
    class       volVectorField;
    location    "1.4/wallFilmRegion";
    object      contactForce:contactAngle;
}
// * * * * * * * * * * * * * * * * * * * * * * * * * * * * * * * * * * * * * //

dimensions      [1 -2 -2 0 0 0 0];

internalField   nonuniform List<vector> 
1342
(
(0 0 0)
(0 0 0)
(0 0 0)
(0 0 0)
(0 0 0)
(0 -748.3837464 -2.212907129e-12)
(0 0 0)
(0 0 0)
(0 0 0)
(0 0 0)
(0 0 0)
(0 0 0)
(0 0 0)
(0 0 0)
(0 0 0)
(0 0 0)
(0 0 0)
(0 0 0)
(0 0 0)
(832.0180674 762.6832312 2.25518949e-12)
(0 0 0)
(-496.258812 0 1.345112198e-12)
(-287.3607775 0 -1.557785888e-12)
(-343.2112835 0 9.30276043e-13)
(-257.3177505 0 -6.974611566e-13)
(0 0 0)
(0 0 0)
(0 0 0)
(0 0 0)
(0 0 0)
(0 0 0)
(-425.1697898 0 0)
(-504.6546548 0 0)
(779.6806462 -714.7072578 0)
(0 0 0)
(0 0 0)
(0 0 0)
(0 0 0)
(0 0 0)
(0 0 0)
(0 0 0)
(0 0 0)
(0 0 0)
(0 0 0)
(8.4017517e-12 1298.921588 0)
(-878.7908384 0 0)
(-326.7537999 0 0)
(-749.7919263 -687.3092646 0)
(0 0 0)
(0 0 0)
(0 0 0)
(0 0 0)
(0 780.8848252 0)
(0 0 0)
(0 0 0)
(0 0 0)
(0 0 0)
(0 0 0)
(0 -261.3687184 0)
(0 0 0)
(0 0 0)
(-2222.623112 -1.129581003e-10 0)
(0 0 0)
(0 0 0)
(0 0 0)
(0 0 0)
(1.17045542e-05 1967.002065 0)
(1074.921237 -985.3444655 0)
(0 0 0)
(0 0 0)
(0 0 0)
(0 0 0)
(0 0 0)
(0 0 0)
(0 0 0)
(0 0 0)
(0 0 0)
(0 0 0)
(0 0 0)
(0 0 0)
(0 749.6457553 0)
(0 0 0)
(0 0 0)
(0 0 0)
(0 0 0)
(0 0 0)
(-920.4717573 -843.765776 0)
(0 0 0)
(0 0 0)
(0 0 0)
(0 0 0)
(0 0 0)
(0 0 0)
(0 0 0)
(0 0 0)
(0 379.5916257 0)
(554.7081623 0 0)
(562.0983342 0 -1.523570588e-12)
(1091.676481 -1000.703444 0)
(0 0 0)
(0 0 0)
(0 0 0)
(0 0 0)
(0 0 0)
(0 0 0)
(0 0 0)
(0 0 0)
(0 0 0)
(0 310.2215055 0)
(0 0 0)
(-668.4748301 0 0)
(0 0 0)
(0 0 0)
(0 -581.957521 0)
(0 0 0)
(0 0 0)
(0 0 0)
(0 0 0)
(0 0 0)
(0 0 0)
(0 0 0)
(0 0 0)
(0 0 0)
(-966.0828053 885.5759032 0)
(0 0 0)
(0 0 0)
(0 0 0)
(-1.8460612e-11 -1387.377781 0)
(0 0 0)
(0 0 0)
(0 0 0)
(0 0 0)
(732.5822121 671.5336932 0)
(388.0827173 0 0)
(409.878266 0 0)
(435.076677 0 0)
(0 0 0)
(0 0 0)
(-714.3058618 -654.7803757 0)
(0 0 0)
(-687.2197011 629.951395 0)
(0 0 0)
(0 -700.0898374 -2.070106145e-12)
(0 0 0)
(0 0 0)
(0 0 0)
(0 0 0)
(0 0 0)
(0 0 0)
(0 0 0)
(0 0 0)
(0 0 0)
(0 0 0)
(-343.3430918 314.7311686 0)
(-540.7777526 0 0)
(-518.1919312 -475.009272 0)
(0 0 0)
(0 0 0)
(0 0 0)
(0 0 0)
(0 0 0)
(0 431.9317984 0)
(-409.9919576 0 0)
(-714.3379673 0 0)
(0 0 0)
(0 0 0)
(-630.4452677 -577.908161 0)
(0 0 0)
(0 0 0)
(0 0 0)
(0 598.6042476 0)
(0 -728.6630032 -2.154594568e-12)
(0 0 0)
(0 0 0)
(0 0 0)
(0 0 0)
(0 0 0)
(0 0 0)
(0 0 0)
(0 0 0)
(0 0 0)
(0 0 0)
(0 0 0)
(0 0 0)
(0 0 0)
(0 0 0)
(0 0 0)
(0 0 0)
(0 0 0)
(0 0 0)
(0 0 0)
(0 0 0)
(0 0 0)
(0 600.888726 0)
(0 0 0)
(0 0 0)
(0 0 0)
(0 0 0)
(0 0 0)
(0 376.833065 0)
(-588.348353 -539.3193226 -1.594721415e-12)
(0 0 0)
(0 0 0)
(0 0 0)
(0 0 0)
(0 0 0)
(0 0 0)
(0 0 0)
(0 0 0)
(0 0 0)
(0 0 0)
(0 0 0)
(0 0 0)
(0 0 0)
(0 0 0)
(0 0 0)
(0 0 0)
(577.0994173 529.0077982 0)
(516.4744542 0 0)
(0 -250.1733815 0)
(0 0 0)
(0 0 0)
(0 284.8508589 0)
(0 0 0)
(0 0 0)
(0 0 0)
(0 0 0)
(0 0 0)
(0 -634.1630294 0)
(0 0 0)
(0 0 0)
(0 0 0)
(0 0 0)
(0 0 0)
(0 0 0)
(0 0 0)
(0 0 0)
(0 0 0)
(0 0 0)
(0 0 0)
(0 0 0)
(0 0 0)
(0 0 0)
(0 0 0)
(0 0 0)
(0 0 0)
(-764.4759756 700.7696468 0)
(-510.8458857 0 0)
(-877.9109413 -804.7516991 0)
(0 0 0)
(677.140473 620.7120991 0)
(0 0 0)
(0 0 0)
(0 0 0)
(0 0 0)
(0 0 0)
(0 0 0)
(-616.8036725 565.4033655 0)
(924.469786 -847.4306402 -2.505780376e-12)
(0 0 0)
(0 0 0)
(0 0 0)
(0 0 0)
(0 0 0)
(0 0 0)
(0 0 0)
(0 0 0)
(0 0 0)
(0 0 0)
(0 0 0)
(0 0 0)
(0 0 0)
(0 0 0)
(0 0 0)
(0 0 0)
(0 0 0)
(0 0 0)
(0 0 0)
(0 0 0)
(0 385.9068104 0)
(0 0 0)
(0 0 0)
(0 0 0)
(0 0 0)
(0 0 0)
(0 0 0)
(0 0 0)
(0 -1002.40213 0)
(0 0 0)
(0 0 0)
(0 0 0)
(2005.639548 0 0)
(0 0 0)
(0 0 0)
(0 0 0)
(0 0 0)
(0 0 0)
(0 0 0)
(0 0 0)
(0 0 0)
(0 0 0)
(0 0 0)
(0 0 0)
(0 0 0)
(0 0 0)
(0 0 0)
(0 0 0)
(469.1634688 430.0665123 0)
(0 0 0)
(0 0 0)
(0 0 0)
(0 0 0)
(0 0 0)
(0 0 0)
(0 0 0)
(0 0 0)
(0 -1486.986469 -396.529725)
(0 0 0)
(0 0 0)
(0 0 0)
(0 -1281.129901 0)
(0 0 0)
(0 0 0)
(0 0 0)
(0 0 0)
(0 0 0)
(0 0 0)
(0 0 0)
(0 0 0)
(0 0 0)
(0 0 0)
(0 0 0)
(0 0 0)
(0 0 0)
(0 0 0)
(0 0 0)
(-650.3945166 596.1949757 0)
(-715.2729592 0 0)
(-532.9263601 0 0)
(0 0 0)
(738.4677702 -676.9287918 0)
(0 0 0)
(0 0 0)
(0 0 0)
(0 0 0)
(0 627.8251598 -1.856425635e-12)
(-800.2689761 0 0)
(-883.5058652 0 0)
(595.3359789 0 0)
(0 0 0)
(574.4575488 -526.5860883 0)
(0 0 0)
(0 0 0)
(0 0 0)
(0 0 0)
(0 0 0)
(0 0 0)
(0 0 0)
(0 0 0)
(0 0 0)
(0 0 0)
(0 0 0)
(0 0 0)
(0 0 0)
(0 0 0)
(0 0 0)
(0 0 0)
(0 0 0)
(0 286.2822496 0)
(0 -391.0803643 0)
(0 0 0)
(0 0 0)
(0 0 0)
(0 0 0)
(0 -921.1220023 122.816267)
(0 0 0)
(0 0 0)
(0 759.3394417 0)
(0 0 0)
(0 -753.1971586 0)
(0 0 0)
(0 0 0)
(0 0 0)
(905.4877159 830.0304047 0)
(445.0533931 -407.9656096 0)
(0 0 0)
(0 0 0)
(0 0 0)
(0 0 0)
(0 0 0)
(0 0 0)
(0 0 0)
(0 0 0)
(0 0 0)
(0 0 0)
(0 0 0)
(0 0 0)
(0 256.829051 0)
(-425.9003283 0 0)
(1436.291261 0 0)
(452.4913573 0 0)
(630.97213 0 0)
(421.8020161 0 0)
(0 0 0)
(292.4148995 0 0)
(551.4909277 0 0)
(0 0 0)
(0 0 0)
(0 0 0)
(375.3086514 0 0)
(555.642121 0 0)
(560.9846614 0 0)
(0 0 0)
(0 0 0)
(767.4701017 -703.5142587 0)
(0 0 0)
(0 0 0)
(0 0 0)
(0 0 0)
(0 0 0)
(0 0 0)
(0 0 0)
(0 0 0)
(0 0 0)
(0 0 0)
(0 0 0)
(0 591.1157148 0)
(0 0 0)
(0 0 0)
(-647.8570872 593.8689955 0)
(-338.928589 0 0)
(0 0 0)
(-474.8715074 0 -1.287141793e-12)
(-712.3195411 0 0)
(-680.7513962 0 0)
(0 0 0)
(0 0 0)
(0 0 0)
(0 0 0)
(0 0 0)
(0 0 0)
(0 0 0)
(0 0 0)
(0 -240.8729536 0)
(0 0 0)
(0 0 0)
(0 0 0)
(0 0 0)
(0 0 0)
(0 0 0)
(0 0 0)
(0 0 0)
(0 0 0)
(0 0 0)
(0 0 0)
(0 480.2963928 0)
(0 0 0)
(0 0 0)
(0 0 0)
(0 0 0)
(-1229.45335 0 0)
(0 0 0)
(0 0 0)
(0 0 0)
(-390.0523286 357.5479672 0)
(0 0 0)
(0 0 0)
(0 0 0)
(0 0 0)
(0 0 0)
(0 0 0)
(0 0 0)
(0 0 0)
(350.1601021 0 0)
(251.5284379 0 0)
(1038.355179 -951.8255794 0)
(0 0 0)
(0 0 0)
(0 0 0)
(0 0 0)
(0 0 0)
(0 0 0)
(0 0 0)
(0 0 0)
(0 529.8835923 0)
(0 0 0)
(0 0 0)
(0 0 0)
(0 0 0)
(0 0 0)
(0 0 0)
(0 0 0)
(0 0 0)
(0 0 0)
(0 397.1640988 0)
(0 0 0)
(0 0 0)
(0 0 0)
(0 0 0)
(0 0 0)
(0 0 0)
(0 0 0)
(0 0 0)
(0 0 0)
(0 -287.6574984 0)
(0 0 0)
(0 0 0)
(0 0 0)
(0 0 0)
(0 0 0)
(0 0 0)
(0 0 0)
(0 0 0)
(0 336.3124482 0)
(0 0 0)
(0 0 0)
(0 0 0)
(0 0 0)
(0 0 0)
(0 0 0)
(0 0 0)
(0 0 0)
(0 0 0)
(0 334.9570765 0)
(0 0 0)
(0 0 0)
(0 0 0)
(0 0 0)
(0 0 0)
(0 0 0)
(0 0 0)
(0 0 0)
(0 0 0)
(0 -271.0461443 0)
(0 0 0)
(0 0 0)
(1000.351067 916.988481 0)
(261.5734377 0 0)
(302.8892647 0 0)
(309.9458829 0 0)
(430.7133396 0 0)
(447.9207429 0 0)
(0 0 0)
(0 -2209.161576 0)
(0 0 0)
(0 0 0)
(0 0 0)
(0 0 0)
(0 0 0)
(0 0 0)
(0 0 0)
(0 0 0)
(0 272.1082459 0)
(0 0 0)
(-357.1684146 0 0)
(-485.6029535 0 0)
(-296.1406451 0 0)
(0 0 0)
(0 0 0)
(0 0 0)
(0 0 0)
(0 0 0)
(0 0 0)
(249.364582 0 0)
(334.3503403 0 0)
(0 0 0)
(0 0 0)
(0 0 0)
(0 0 0)
(0 0 0)
(0 0 0)
(0 0 0)
(0 0 0)
(0 0 0)
(0 0 0)
(0 0 0)
(0 0 0)
(0 0 0)
(0 0 0)
(0 0 0)
(0 0 0)
(-981.4643905 899.6756946 0)
(-995.8350412 -912.8487911 0)
(0 0 0)
(0 0 0)
(0 0 0)
(-634.9108896 582.0016509 0)
(-478.2476087 0 0)
(0 0 0)
(0 0 0)
(0 0 0)
(0 0 0)
(0 0 0)
(0 0 0)
(0 0 0)
(0 0 0)
(0 0 0)
(0 0 0)
(0 0 0)
(0 0 0)
(0 0 0)
(0 0 0)
(0 0 0)
(0 0 0)
(0 0 0)
(0 0 0)
(0 0 0)
(0 0 0)
(0 0 0)
(0 0 0)
(0 0 0)
(0 0 0)
(0 0 0)
(0 0 0)
(0 0 0)
(0 0 0)
(0 0 0)
(-434.3964635 398.1967575 0)
(0 0 0)
(0 0 0)
(0 0 0)
(0 0 0)
(0 0 0)
(0 0 0)
(0 0 0)
(0 0 0)
(0 0 0)
(0 0 0)
(0 0 0)
(0 0 0)
(0 0 0)
(0 0 0)
(0 0 0)
(0 0 0)
(0 0 0)
(930.3835818 852.8516151 -2.521809765e-12)
(685.0641619 -627.9754806 0)
(0 0 0)
(0 0 0)
(0 0 0)
(0 0 0)
(0 0 0)
(0 0 0)
(0 0 0)
(0 0 0)
(0 0 0)
(0 0 0)
(-797.2380214 730.8015183 0)
(0 0 0)
(0 0 0)
(0 0 0)
(0 0 0)
(0 0 0)
(0 0 0)
(0 0 0)
(0 0 0)
(0 0 0)
(0 0 0)
(0 0 0)
(0 0 0)
(514.5473435 471.6683974 0)
(424.9524454 0 0)
(556.6667621 0 0)
(241.1614458 0 0)
(-316.9813505 0 -8.591796721e-13)
(-648.2781421 0 0)
(563.3162854 0 0)
(628.1769104 0 0)
(612.7620134 0 0)
(362.7234936 0 0)
(618.7910021 -567.2250843 0)
(0 0 0)
(0 0 0)
(0 0 0)
(0 0 0)
(0 0 0)
(0 0 0)
(0 381.1739865 0)
(0 0 0)
(0 0 0)
(0 0 0)
(0 0 0)
(0 0 0)
(0 0 0)
(0 0 0)
(0 0 0)
(0 0 0)
(0 0 0)
(-8.319647741e-06 1398.162911 0)
(-712.2857559 0 0)
(-289.3210693 0 0)
(-703.5549947 0 0)
(-596.7648283 -547.034425 0)
(0 0 0)
(0 0 0)
(-484.7314906 444.3371989 0)
(-369.0918174 0 0)
(0 0 0)
(0 0 0)
(0 -428.8307302 0)
(0 0 0)
(0 0 0)
(0 0 0)
(0 0 0)
(0 0 0)
(0 0 0)
(0 556.0175301 0)
(0 0 0)
(0 0 0)
(0 0 0)
(0 0 0)
(0 0 0)
(0 0 0)
(0 0 0)
(0 0 0)
(0 0 0)
(0 0 0)
(0 0 0)
(0 0 0)
(0 0 0)
(0 0 0)
(0 0 0)
(0 0 0)
(0 0 0)
(0 0 0)
(0 0 0)
(-1076.525357 986.8149089 0)
(0 0 0)
(0 -378.3099543 0)
(0 0 0)
(0 0 0)
(0 0 0)
(0 0 0)
(0 0 0)
(0 0 0)
(0 359.6906106 0)
(0 0 0)
(0 0 0)
(0 0 0)
(0 0 0)
(0 0 0)
(0 0 0)
(0 0 0)
(0 0 0)
(0 0 0)
(0 0 0)
(0 0 0)
(0 0 0)
(0 0 0)
(0 0 0)
(0 0 0)
(0 0 0)
(0 0 0)
(0 0 0)
(0 0 0)
(0 0 0)
(-358.5206819 328.6439596 0)
(0 0 0)
(926.4001559 -849.2001413 0)
(0 0 0)
(0 0 0)
(0 0 0)
(0 0 0)
(1039.666775 953.0278752 0)
(0 0 0)
(0 0 0)
(0 0 0)
(0 0 0)
(0 0 0)
(0 0 0)
(0 0 0)
(0 0 0)
(0 0 0)
(0 0 0)
(0 0 0)
(0 0 0)
(0 0 0)
(0 0 0)
(0 0 0)
(0 0 0)
(0 0 0)
(0 0 0)
(0 0 0)
(0 0 0)
(0 0 0)
(0 0 0)
(-1003.974637 920.3100822 0)
(0 0 0)
(1053.48724 -965.69664 0)
(0 0 0)
(0 0 0)
(0 0 0)
(0 543.2625416 0)
(0 0 0)
(0 0 0)
(0 0 0)
(0 0 0)
(0 0 0)
(0 0 0)
(0 0 0)
(0 0 0)
(0 0 0)
(0 0 0)
(0 0 0)
(0 0 0)
(0 0 0)
(0 0 0)
(0 0 0)
(0 0 0)
(0 0 0)
(0 0 0)
(0 0 0)
(0 0 0)
(0 0 0)
(0 0 0)
(0 0 0)
(0 579.8176378 0)
(0 0 0)
(576.3094679 0 0)
(511.307183 0 0)
(463.0489417 0 0)
(0 0 0)
(0 0 0)
(0 0 0)
(0 0 0)
(0 0 0)
(0 0 0)
(0 0 0)
(0 0 0)
(0 0 0)
(0 0 0)
(0 0 0)
(0 0 0)
(384.5786108 0 0)
(308.8654645 0 0)
(575.2470978 0 0)
(430.7903758 0 0)
(698.5684403 0 0)
(238.7926787 0 -6.47248849e-13)
(562.6346319 0 0)
(381.5050889 0 0)
(366.7689687 0 0)
(622.361385 0 0)
(298.6479594 0 0)
(444.9411253 0 0)
(0 0 0)
(0 0 0)
(0 0 0)
(0 0 0)
(0 0 0)
(0 0 0)
(0 0 0)
(0 0 0)
(0 0 0)
(0 0 0)
(0 0 0)
(0 0 0)
(0 0 0)
(0 0 0)
(0 0 0)
(0 0 0)
(0 0 0)
(-994.8781297 -77.57917994 -187.5296345)
(0 0 0)
(0 0 0)
(0 0 0)
(0 0 0)
(0 0 0)
(0 0 0)
(0 0 0)
(-3446.344065 873.9983077 2288.054203)
(0 0 0)
(0 0 0)
(0 0 0)
(-412.5419726 -1.979350279 2.571963492)
(0 0 0)
(0 0 0)
(0 0 0)
(-1361.770038 40.74422562 33.18986714)
(0 0 0)
(0 0 0)
(0 0 0)
(-945.9276735 14.91045152 -3.971343119)
(734.1478826 -2.308237808 1.280125168)
(0 0 0)
(0 0 0)
(0 0 0)
(-1997.312438 -896.8576776 -164.8609152)
(0 0 0)
(0.001437097547 -3.093116388 -930.4524027)
(0 0 0)
(0 0 0)
(0 -2.774320595 -1648.141772)
(0 0 0)
(0 0 0)
(0 0 0)
(0 0 0)
(0 0 0)
(-0.7681133668 1232.564906 -1457.728302)
(0 0 0)
(0 0 0)
(1.69000804e-12 -0.9856026501 -1165.414665)
(0 0 0)
(0 0 0)
(-1.372616403e-12 -0.4990174593 -947.656022)
(0 0 0)
(0 0 0)
(7.196080092e-05 0.6931928091 -720.3013467)
(0 0 0)
(0 0 0)
(0.0131975303 3.712836643 -1141.366953)
(0 0 0)
(0 0 0)
(0 0 0)
(-0.02606655585 578.6908701 -26.13755247)
(0 0 0)
(0 0 0)
(-5166.291486 -3800.517273 -4037.593124)
(0 0 0)
(-935.9727785 -935.2499023 -55.87438611)
(0.2060672426 875.6909903 -86.09211304)
(-5549.56153 -4035.714414 -524.5926039)
(-1840.9479 1046.526486 1834.60061)
(-1973.236264 -789.1323303 -585.4900653)
(0 0 0)
(-304.4806341 -288.0579644 -119.6903578)
(121.2413279 -1002.384034 -158.0592123)
(0 0 0)
(103.9661766 75.97839842 1254.826649)
(0.01753237995 -1259.618049 1155.987604)
(0 0 0)
(0 0 0)
(-720.5523532 -603.0827687 -564.6495835)
(0 0 0)
(0 0 0)
(0 0 0)
(0 -46.42692803 859.9335961)
(0 0 0)
(0 0 0)
(0 0 0)
(-1937.778144 440.1385774 836.6554509)
(-1429.838186 42.24969785 401.4480065)
(0 35.69917047 929.8483806)
(0 0 0)
(0 0 0)
(0 0 0)
(0 0 0)
(0 0 0)
(0 0 0)
(0 0 0)
(0 0 0)
(0 0 0)
(0 0 0)
(0 0 0)
(0 0 0)
(-1433.022013 -0.9523381999 0.002448018494)
(-0.2192069039 -787.107374 1.253509325)
(0 0 0)
(0 0 0)
(0 0 0)
(440.3202652 -0.7020690364 -440.3198006)
(0 0 0)
(0.05901185236 1329.906504 -2.117878843)
(0 0 0)
(0 0 0)
(0 0 0)
(0 0 0)
(0 0 0)
(0 0 0)
(0 0 0)
(0 0 0)
(0 0 0)
(0 0 0)
(0 0 0)
(-1383.209914 -1314.355737 2.092021411)
(-823.0014705 -801.8597075 1.277088831)
(0 0 0)
(-753.2494282 0.1119446877 -0.0005172348586)
(0 0 0)
(-614.6487202 0.1902250922 -0.0005796022337)
(0 0 0)
(0 0 0)
(0 0 0)
(-1218.451495 1.102980645 -0.002000465308)
(0 0 0)
(0 0 0)
(-1494.374855 1447.897423 -2.306233214)
(0 0 0)
(0 0 0)
(0 0 0)
(0 0 0)
(0 0 0)
(0 0 0)
(0 0 0)
(0 0 0)
(0 0 0)
(0 0 0)
(0 0 0)
(0 0 0)
(0 0 0)
(0 0 0)
(0 0 0)
(0 0 0)
(0 0 0)
(0 0 0)
(0 0 0)
(0 0 0)
(0 0 0)
(0 0 0)
(0 0 0)
(0 0 0)
(0 0 0)
(0 0 0)
(0 0 0)
(0 0 0)
(0 0 0)
(0 0 0)
(0 0 0)
(0 0 0)
(0 0 0)
(0 0 0)
(0 0 0)
(0 0 0)
(0 0 0)
(0 0 0)
(0 0 0)
(0 0 0)
(0 0 0)
(0 0 0)
(0 0 0)
(0 0 0)
(0 0 0)
(0 0 0)
(0 0 0)
(0 0 0)
(0 0 0)
(0 0 0)
(0 0 0)
(0 0 0)
(0 0 0)
(0 0 0)
(0 0 0)
(0 0 0)
(0 0 0)
(0 0 0)
(0 0 0)
(0 0 0)
(0 0 0)
(0 0 0)
(0 0 0)
(0 0 0)
(0 0 0)
(-0.04468508603 564.1899503 599.3847463)
(0 0 0)
(-0.161849481 1215.274006 -2.739240244)
(0 0 0)
(-900.6732452 -3.132876005 5.104063254)
(0 0 0)
(0 0 0)
(0 0 0)
(0 0 0)
(0 0 0)
(0 0 0)
(0 0 0)
(0 0 0)
(0 0 0)
(0 0 0)
(0 0 0)
(0 0 0)
(0 0 0)
(0 0 0)
(0 0 0)
(0 0 0)
(0 0 0)
(0 0 0)
(0 0 0)
(0 0 0)
(0 0 0)
(0 0 0)
(0.0005422008544 780.2395115 734.2375078)
(-501.7174434 -2.621892081 2.381477452)
(0 0 0)
(0 0 0)
(0 0 0)
(0 0 0)
(0 0 0)
(0 0 0)
(0 0 0)
(4.170042827e-12 -1646.827358 1669.575674)
(0 0 0)
(0 0 0)
(0 0 0)
(0 0 0)
(0 0 0)
(0 0 0)
(0 0 0)
(0 0 0)
(0 0 0)
(1.69010269e-12 663.1593827 679.3553555)
(0 0 0)
(40.46374175 -1422.34861 -95.40111447)
(0 0 0)
(-1372.89357 112.8599878 -1647.689721)
(-0.2648657223 516.2073072 -517.8553343)
(0 0 0)
(-0.4305775632 835.4742411 -838.1398922)
(0 0 0)
(-0.4037775096 791.9388437 -794.4649702)
(0 0 0)
(-16.12296069 959.3981536 -1069.636642)
(0 0 0)
(0 0 0)
(0 0 0)
(0.0001420871721 -3.570485055 -1424.442488)
(0 0 0)
(-0.4791091994 -630.7439786 1.004681876)
(1.028467802 -1267.201169 -1497.852103)
(0 0 0)
(0.1715398759 1038.620197 -1.653433555)
(0 0 0)
(481.0132841 -0.7640963311 -481.013054)
(0 0 0)
(0 -0.6622707594 -767.6307786)
(0 0 0)
(0 0 0)
(0 -0.7486802464 -976.5225816)
(0 0 0)
(0 0 0)
(-2.106957543e-12 0.0289696559 -1457.061039)
(0 0 0)
(0 0 0)
(0.002187873192 2.984255037 -1414.707912)
(0 0 0)
(0 0 0)
(0 0 0)
(0 0 0)
(-2222.658921 -916.7014503 -466.2536838)
(0 0 0)
(0 0 0)
(0 0 0)
(0 0 0)
(0 0 0)
(0 0 0)
(0 0 0)
(0 0 0)
(0 0 0)
(0 0 0)
(0 0 0)
(-0.007041052283 949.6059085 -65.03689555)
(0 0 0)
(0 0 0)
(0 0 0)
(0 0 0)
(0 0 0)
(0 0 0)
(0 0 0)
(0 0 0)
(0 0 0)
(0 0 0)
(0 0 0)
(0 0 0)
(0 0 0)
(0 0 0)
(0 0 0)
(-174.216111 -281.1657843 -87.0291342)
(0 0 0)
(0 0 0)
(0 0 0)
(0 0 0)
(0 0 0)
(0 0 0)
(0 0 0)
(0.02823696982 830.3398426 768.7682025)
(-4264.850929 -3824.162408 -1891.106835)
(0 0 0)
(0 0 0)
(0 0 0)
(0 0 0)
(0 0 0)
(0 0 0)
(0 -693.7691255 688.0637792)
(0 0 0)
(0 0 0)
(0 0 0)
(0 0 0)
(0 859.3962729 775.2107025)
(0 0 0)
(-1115.557068 5.100370442 4.398636004)
(841.3773772 -359.24056 453.3402828)
(0 0 0)
(0 0 0)
(-961.9729098 -15.18898544 -3.947677544)
(-1841.545981 -1788.984402 -453.4027424)
(0 0 0)
(0 0 0)
(0 0 0)
(0 0 0)
(-2278.114834 247.2248801 789.799363)
(0 0 0)
(0 0 0)
(0 0 0)
(0 0 0)
(-1756.33638 -46.73999635 449.1571357)
(0 0 0)
(0 0 0)
(0 0 0)
(0 0 0)
(-1.969321094e-12 21.31485133 1325.552043)
(-1454.018773 -28.48363633 7.692408908)
(721.1013593 721.7399253 -145.248523)
(0 0 0)
(0 0 0)
(-0.3260327006 635.1113008 -637.1380361)
(0 0 0)
(373.9439301 -0.5939234871 -373.9411611)
(0 0 0)
(0 0 0)
(0 0 0)
(-0.2984175807 573.8674508 -575.6993196)
(0 0 0)
(0 0 0)
(0 0 0)
(0 0 0)
(0 0 0)
(-0.253264334 491.2800884 -492.8470709)
(0 0 0)
(0 0 0)
(0 0 0)
(0 0 0)
(0 0 0)
(0 0 0)
(0 0 0)
(0 0 0)
(0 0 0)
(-0.336470428 -647.2886228 -645.229576)
(0 0 0)
(-1246.050194 20.94354626 -1090.832971)
(0 0 0)
(-0.4364095082 -861.8744237 -859.1300927)
(0 0 0)
(0 0 0)
(0 0 0)
(0 0 0)
(0 0 0)
(0 0 0)
(0 0 0)
(0 0 0)
(0 0 0)
(0 0 0)
(0 0 0)
(0 0 0)
(0 0 0)
(0 0 0)
(0 0 0)
(0 0 0)
(0 0 0)
(0 0 0)
(0 0 0)
(0 0 0)
(0 0 0)
(0 0 0)
(0 0 0)
(0 0 0)
(0 0 0)
(-1014.123383 -408.1928368 523.7783576)
(0 0 0)
(0 0 0)
(0 0 0)
(-77.90334903 -1070.471192 1776.14363)
(0 0 0)
(0 0 0)
(0 0 0)
(0 0 0)
(0 0 0)
(0 0 0)
(0 0 0)
(0 0 0)
(0 0 0)
(0 0 0)
(0 0 0)
(0 0 0)
(0 0 0)
(0 0 0)
(0 0 0)
(0 0 0)
(0 0 0)
(0 0 0)
(-1086.14006 -32.21198868 25.57056906)
(0 0 0)
(-406.2428959 0.2330330159 0.08894950056)
(700.8543891 -1.003930609 1.515477085)
(947.9067657 10.29911354 -6.083729445)
(-876.0068088 0.7841283403 0.1696392412)
(-1051.49849 -1.669918469 1.717826868)
(0 0 0)
(0 0 0)
(0 0 0)
(0 0 0)
(0 0 0)
(-731.9545506 0.3420500372 0.6303783125)
(0 0 0)
(0 0 0)
(0 0 0)
(0 0 0)
(0 0 0)
(0 0 0)
(0 0 0)
(0 0 0)
(0 0 0)
(0 0 0)
(0 0 0)
(0 0 0)
(0 0 0)
(0 0 0)
(0 0 0)
(0 0 0)
(0 0 0)
(0 0 0)
(0 0 0)
(0 0 0)
(0 0 0)
(0 0 0)
(-1314.681406 1129.542261 -94.25117303)
(0 0 0)
(-68.08177196 2690.896968 0.7225600964)
(0 0 0)
(-2814.445242 468.370767 -98.57603817)
(0 0 0)
(0 0 0)
(0 0 0)
(0 0 0)
(0 0 0)
(-796.1111025 -28.02011881 11.78983438)
(0 0 0)
(-1330.865643 -4.518705802 1.39731404)
(1221.569512 12.40772537 -4.244031299)
(-1528.207049 -2.380360752 1.503475986)
(0 0 0)
(0 0 0)
(0 0 0)
(0 0 0)
(0 0 0)
)
;

boundaryField
{
    walls
    {
        type            calculated;
        value           uniform (0 0 0);
    }
    wallFilmFace_top
    {
        type            calculated;
        value           uniform (0 0 0);
    }
    region0_to_wallFilmRegion_wallFilmFace
    {
        type            calculated;
        value           uniform (0 0 0);
    }
    mirrorFace_top
    {
        type            calculated;
        value           uniform (0 0 0);
    }
    region0_to_wallFilmRegion_mirrorFace
    {
        type            calculated;
        value           uniform (0 0 0);
    }
    procBoundary2to0
    {
        type            processor;
        value           uniform (0 0 0);
    }
    procBoundary2to1
    {
        type            processor;
        value           uniform (0 0 0);
    }
    procBoundary2to3
    {
        type            processor;
        value           uniform (0 0 0);
    }
}


// ************************************************************************* //
