/*--------------------------------*- C++ -*----------------------------------*\
  =========                 |
  \\      /  F ield         | OpenFOAM: The Open Source CFD Toolbox
   \\    /   O peration     | Website:  https://openfoam.org
    \\  /    A nd           | Version:  8
     \\/     M anipulation  |
\*---------------------------------------------------------------------------*/
FoamFile
{
    version     2.0;
    format      ascii;
    class       volScalarField;
    location    "1.4/wallFilmRegion";
    object      delta;
}
// * * * * * * * * * * * * * * * * * * * * * * * * * * * * * * * * * * * * * //

dimensions      [0 1 0 0 0 0 0];

internalField   nonuniform List<scalar> 
1342
(
0.0003867009397
0.001227920517
0.001171134485
0.00287313273
0.001118568478
0.0007332773311
6.95652695e-05
5.371103365e-07
7.080882413e-06
1.887546586e-05
5.51766001e-05
7.780252197e-05
6.000878759e-05
3.402196084e-05
2.131965156e-05
1.989249078e-05
2.753375295e-05
4.778474662e-05
8.812536134e-05
0.0001589034314
0.000207287504
0.0002284432133
0.0002274023655
0.0002214604732
0.0001959795144
0.002806378241
0.0006121152685
0.001013909764
0.001196812848
0.001537822241
0.001242077939
0.0001703621048
0.0001775561797
0.000284550275
3.088621274e-06
5.759579001e-06
1.424372157e-05
5.517700956e-05
9.747058692e-05
8.830175245e-05
5.321524851e-05
3.646840117e-05
4.386026752e-05
7.307887683e-05
0.000110796133
0.0001241695529
0.0001106333433
0.0001011685258
9.316207457e-05
8.312812918e-05
8.132110472e-05
7.752796537e-05
0.003378523592
0.001595968523
0.002442981352
0.003176931454
0.001907904956
0.00292773639
0.0002378661439
4.454161727e-05
4.223567321e-05
0.0001293069274
3.698533431e-06
3.923304301e-06
1.060230281e-05
4.948353722e-05
0.0001088581209
0.0001265429864
9.002948837e-05
6.527191152e-05
7.615185957e-05
9.835388475e-05
9.477557244e-05
6.767751631e-05
5.839344022e-05
6.309140763e-05
6.450729555e-05
5.993318142e-05
5.920116158e-05
5.880524759e-05
0.003675459187
0.002092017013
0.002724467533
0.002281931578
0.003546094508
0.003369867059
0.0001186891663
2.308538479e-05
1.418109288e-05
1.000016717e-05
1.66062346e-06
2.416360448e-06
7.723756814e-06
3.818072558e-05
9.516666759e-05
0.0001506005919
0.000149050193
0.0001168054601
0.0001027234664
8.711969512e-05
5.75820333e-05
3.073965902e-05
3.661640218e-05
5.458896379e-05
6.426098408e-05
6.188085408e-05
5.82378574e-05
5.690532888e-05
0.002850467699
0.001143948597
0.0008055473572
0.0007495389302
0.0009941634007
0.0002529652698
4.361580104e-05
1.440712063e-05
7.725250204e-06
4.590851381e-06
7.779433463e-07
1.63097512e-06
5.459236208e-06
2.707554181e-05
6.600069031e-05
0.0001338061708
0.0002089400918
0.0002220689922
0.0001661796915
0.0001006893667
5.34070622e-05
2.149099708e-05
5.035626569e-05
9.549267219e-05
0.0001205365665
0.0001216842676
0.0001108472368
0.0001228737122
0.002546335628
0.0008765300638
0.0005823294683
4.622846846e-05
0.0001511191692
0.000394306202
0.0001098823978
3.542991763e-05
1.453604536e-05
6.433670756e-06
3.120534653e-06
6.419483776e-07
1.070490378e-06
3.449207006e-06
1.934352906e-05
4.039953221e-05
7.515912028e-05
0.0001313726372
0.0001724268437
0.0001541122285
9.748838405e-05
4.805245731e-05
2.197937426e-05
5.031453382e-05
9.003330046e-05
0.0001104894994
0.0001102749919
0.0001029062035
0.0001180222233
0.002280578882
0.0002162235291
4.923542455e-05
5.936022376e-06
8.514028074e-05
0.0002384384021
0.0001164347291
4.81154619e-05
1.795996858e-05
9.564612982e-06
5.424198864e-06
2.018188002e-06
1.473802599e-06
4.797625073e-06
1.486050857e-05
2.45834268e-05
3.387974303e-05
4.46662565e-05
5.372597545e-05
5.792920795e-05
5.725516735e-05
5.268486352e-05
5.02336626e-05
7.066748764e-05
9.614929278e-05
0.0001043933443
9.646314052e-05
9.385460314e-05
0.0001067958774
0.00255816099
1.744922856e-05
7.487800912e-06
7.243900987e-06
8.345022781e-05
0.0001562557845
0.0001194391923
8.632194578e-05
5.440472084e-05
5.091902069e-05
4.951581319e-05
4.352491693e-05
3.224772157e-05
1.749757107e-05
1.368247588e-05
2.471506362e-05
3.177972998e-05
3.710476893e-05
4.336207595e-05
5.227015442e-05
6.33678149e-05
7.287892201e-05
8.26012815e-05
0.0001030693572
0.0001182093042
0.0001110945639
9.229945874e-05
9.053683859e-05
0.0001181298609
0.004011209336
4.759578403e-06
4.720379174e-06
6.60471209e-06
6.210245664e-05
0.0001400272439
9.244097957e-05
8.658637436e-05
6.063709295e-05
5.709959713e-05
5.962059131e-05
4.892820525e-05
3.579750262e-05
1.763806218e-05
1.814038109e-05
3.537211651e-05
4.626423912e-05
5.333205234e-05
6.021896164e-05
6.855441897e-05
7.732854621e-05
8.321027052e-05
8.806563275e-05
0.0001022545407
0.0001149340943
0.0001073001484
9.106652489e-05
0.0001021200148
0.0001788752927
0.004047217991
3.811227814e-06
3.679502303e-06
3.255361392e-06
1.665206458e-05
0.0002131581516
0.0001065653558
8.784473503e-05
5.201299317e-05
5.325153071e-05
9.990793061e-05
4.0439917e-05
3.044290383e-05
1.59789476e-05
2.294770057e-05
4.24680021e-05
5.459540173e-05
6.196200459e-05
6.777508762e-05
7.285174497e-05
7.660419077e-05
7.724063487e-05
7.624139163e-05
8.323367442e-05
9.575060485e-05
9.796838673e-05
9.935399053e-05
0.0001332217708
0.000216731388
0.003688561393
4.260100895e-06
1.871533925e-06
1.095848508e-06
4.237261761e-06
6.568500938e-05
0.0002621778539
8.203408532e-05
4.146838938e-05
4.478826501e-05
0.0002629815053
3.26997228e-05
2.46181496e-05
1.700018805e-05
2.97038849e-05
5.002416542e-05
6.253201142e-05
6.941923106e-05
7.262616889e-05
7.360432164e-05
7.235024278e-05
6.785430016e-05
6.107623735e-05
6.384037609e-05
7.905571808e-05
9.488047926e-05
0.0001183491609
0.0001739878483
0.0002331746921
0.003700862205
4.459006478e-05
2.033883166e-05
3.856179402e-05
2.459811461e-05
8.601306709e-05
0.0001170576323
7.305898718e-05
5.043405306e-05
3.397455307e-05
0.0003449457825
3.526731782e-05
2.075145985e-05
2.142433736e-05
3.893407436e-05
6.004772701e-05
7.245128227e-05
7.733825965e-05
7.668880781e-05
7.316338644e-05
6.708016018e-05
5.795350819e-05
4.701026987e-05
4.771234372e-05
6.574325994e-05
8.971149004e-05
0.000108796148
0.0001382968213
0.0001090670386
0.003810428798
0.0001472530016
3.555542468e-05
5.817175092e-06
1.032291905e-05
4.169638833e-05
0.0001646226134
0.0001731445219
0.0002137576966
0.0002929603364
0.0003280661913
0.0001729936072
3.335518537e-05
3.140245386e-05
5.239705874e-05
7.422775073e-05
8.470423059e-05
8.477667807e-05
7.927708739e-05
7.122380837e-05
6.105322761e-05
4.910568392e-05
3.764280859e-05
3.79745121e-05
5.214258504e-05
6.352698119e-05
5.52863832e-05
5.715123882e-05
6.014807263e-05
0.003808608165
0.0002006335332
6.985631342e-05
2.347176902e-05
2.983949571e-05
4.747525411e-05
0.0001654204547
8.32708596e-05
4.849926094e-05
0.0001093733979
0.0002308228426
0.0002020308019
9.985992116e-05
7.306987305e-05
8.803061482e-05
0.0001020582837
0.0001030761618
9.35616702e-05
8.152036679e-05
6.884109872e-05
5.667543563e-05
4.535546033e-05
3.664622132e-05
3.619785615e-05
4.055759652e-05
3.762194637e-05
2.540504197e-05
2.709019673e-05
4.82740524e-05
0.003609725579
0.00031191814
0.000252629425
0.0001745334416
0.0001463604983
0.0001664769331
0.0002993547368
0.0002550645909
0.0002349288582
0.0002103482209
0.000165556177
0.0002941954112
0.0004448084698
0.0004547885184
0.0003129317039
0.0001985915652
0.0001464778641
0.0001119908433
8.686200829e-05
7.091007223e-05
6.19830714e-05
5.104021641e-05
4.059656019e-05
3.471042333e-05
2.973582477e-05
2.2031797e-05
1.424478288e-05
2.134463703e-05
3.962049679e-05
0.003292407526
3.909735694e-05
6.227610058e-05
0.0001268080201
0.0001397852483
0.0002781714434
0.0002260812741
0.0001570490095
0.0002070548181
0.0002141450959
0.0002768151287
0.0004156326325
0.0005760477404
0.0005849892573
0.0004335273716
0.000303058254
0.000217430294
0.0001454205975
9.855660044e-05
9.672893044e-05
8.892614605e-05
5.815647439e-05
3.723139484e-05
2.605154489e-05
1.878486571e-05
1.326209411e-05
9.472086477e-06
1.815421395e-05
2.904561057e-05
0.003021046999
2.729631362e-05
1.018269845e-05
8.17175252e-06
2.252485267e-05
0.0001768735049
9.531263712e-05
4.993656375e-05
9.297724157e-05
0.0001558873807
0.0004053501642
0.000484494777
0.0006040983052
0.000591130029
0.0004786971528
0.0003769260323
0.0002827791254
0.0001838957997
0.0001250185167
0.0001623015425
0.000122320815
5.164694647e-05
2.52435058e-05
1.598038619e-05
1.178122728e-05
9.153385376e-06
7.265554322e-06
1.538325038e-05
2.142021494e-05
0.002925944826
4.821794134e-05
1.035272115e-05
5.257034232e-06
1.027045789e-05
7.34010189e-05
3.691569519e-05
1.95371146e-05
4.625800187e-05
9.591631517e-05
0.000471442307
0.0004370228068
0.0005014070066
0.0005038129286
0.0004271547995
0.0003403567884
0.0002618975909
0.0001841955135
0.0001474437317
0.0002335047359
0.0001436103451
3.833117838e-05
1.600923254e-05
1.346692135e-05
1.264774614e-05
1.253233899e-05
1.264742717e-05
2.815883043e-05
3.581075978e-05
0.003394864159
9.162817325e-05
1.605357419e-05
5.418174131e-06
7.257855102e-06
2.793869331e-05
1.692244618e-05
1.017408023e-05
2.950924935e-05
6.677536354e-05
0.0004065092936
0.0003141794042
0.0003439493849
0.0003475465336
0.0002825423113
0.0002216150136
0.000171075546
0.0001372851245
0.0001439160242
0.0002713640151
0.0001584199956
4.290171373e-05
2.789110266e-05
0.001039741539
0.001476350133
0.001434243457
0.001006589135
0.0008120999112
0.0003322876558
0.005346086078
0.0001249885264
2.199056196e-05
5.228163046e-06
5.067751797e-06
1.075554515e-05
8.384114997e-06
6.751907469e-06
2.184102728e-05
5.407044224e-05
0.0002404053847
0.0001910499564
0.0001962441286
0.0001817128829
0.000135489644
0.0001505510235
0.0001450744691
0.0001144176497
0.0001353072517
0.0002688118144
0.0001782279856
0.0001321856092
0.00200559571
0.003444286679
0.003795567468
0.003451958182
0.002942023145
0.003275082075
0.002342014126
0.009614345436
7.318292384e-05
2.499188715e-05
5.007666282e-06
3.91531456e-06
5.508759858e-06
4.693090041e-06
5.379494277e-06
1.833655678e-05
4.651215573e-05
0.0001142387911
0.0001061918456
9.990274227e-05
8.363131193e-05
5.914420778e-05
0.0001016742226
0.0001771083939
0.0001596299119
0.0001518492696
0.0002533243554
0.0003383401128
0.003869883048
0.003809195088
0.004769329371
0.005220668546
0.00452044363
0.002673823248
0.00340258584
0.0009514933327
0.008628892955
4.783669678e-05
2.281800628e-05
5.255336762e-06
4.542833428e-06
5.566459089e-06
6.112069862e-06
8.244201819e-06
2.124525446e-05
4.341046706e-05
6.694313488e-05
6.512982101e-05
5.563505729e-05
4.387237821e-05
3.221479985e-05
4.821628381e-05
8.841600018e-05
0.0001337856481
0.0001630517939
0.0002683279765
0.003355001666
0.003849935714
0.004293049346
0.005091856855
0.004738148974
0.003604991481
0.00242633451
0.002673886778
0.0007622570103
0.007682018341
3.746137635e-05
2.618422222e-05
1.378482924e-05
4.536756145e-05
4.923097998e-05
0.0004396275979
0.0002029486044
8.887529029e-05
8.041490046e-05
7.588314732e-05
5.939385617e-05
4.321718033e-05
3.232320314e-05
2.522922209e-05
2.972194957e-05
3.777793189e-05
5.636160514e-05
0.0001183683238
0.0003268219632
0.004850390887
0.004161948905
0.005116238009
0.005262959472
0.003997924165
0.003106331722
0.002284400463
0.00214589398
0.000741631073
0.006940538057
4.602967078e-05
0.0001430383481
0.0003112968171
0.0006212391629
0.0009461844456
0.0008721751234
0.001565981283
0.002090666363
0.001686389287
0.0009374543451
0.0003984469507
0.0001226769695
4.740966732e-05
2.906601085e-05
1.839004913e-05
1.380682243e-05
1.54901805e-05
6.165899428e-05
0.001918008948
0.003615331835
0.004456269146
0.005130423031
0.004578904328
0.004042216719
0.003638861612
0.003389640661
0.002629848046
0.000915203963
0.006485147405
0.0004289266527
0.0006931250675
0.0007224126389
0.0005922364447
0.0003118273268
9.263359742e-05
5.264151087e-05
0.0001386407406
0.0006495370521
0.0008940329425
0.0008712590343
0.0001689483944
4.627973598e-05
2.285257477e-05
1.54491315e-05
1.627638353e-05
1.962697407e-05
6.333732648e-05
0.001637892542
0.004252661705
0.004248287447
0.004683174236
0.004412183595
0.004265929756
0.004200690141
0.004177105235
0.004057421011
0.001511209984
0.006403372558
2.481368954e-08
1.503951688e-08
1.014764258e-08
5.743419155e-09
4.78856833e-09
3.596565579e-07
5.739899168e-07
1.762145801e-06
1.851370544e-05
0.0001276709133
0.0004538057367
0.0003325638981
8.182194795e-05
2.532412188e-05
2.160853321e-05
3.415858367e-05
4.100204145e-05
9.880125558e-05
0.001596925448
0.003965426818
0.003958206718
0.004503520152
0.004595122143
0.004822583128
0.004907142721
0.005017487393
0.005116962269
0.003877912327
0.00699771249
5.048422341e-07
1.750711455e-07
1.390170024e-07
1.1659969e-07
9.028308527e-08
1.737818852e-07
2.628633623e-07
5.026883954e-07
3.31521269e-06
2.700006162e-05
0.0001433338946
0.0004160342153
0.0002344899105
5.099323949e-05
3.340637618e-05
5.402618428e-05
6.306932661e-05
0.0001371900025
0.001151992874
0.002683559722
0.002456871756
0.003057135382
0.004178906562
0.005011724842
0.005188834534
0.005289569264
0.005640758974
0.005600700799
0.007485536819
2.36015938e-06
8.947018391e-07
7.418417042e-07
6.147785321e-07
4.508374993e-07
9.432927273e-07
1.500273257e-06
2.080814817e-06
4.801676715e-06
1.760869405e-05
6.605455658e-05
0.0002594674027
0.0003746519473
0.0001753874043
8.557008759e-05
8.997177348e-05
9.776801077e-05
0.000200179781
0.0011203461
0.00498154591
0.003911004061
0.005286958343
0.006978628138
0.007707774338
0.007378650735
0.007231797283
0.007619924082
0.007821510258
0.00887014215
4.28919601e-06
1.754516413e-06
1.458233741e-06
1.187216591e-06
8.290887216e-07
1.30622298e-06
2.192798984e-06
2.89915142e-06
4.647623842e-06
1.005440474e-05
2.752873234e-05
9.914310977e-05
0.0002118227653
0.0001838853098
0.0001565801137
0.0001629052838
0.0001724843924
0.000275085159
0.0005933089388
0.000519352275
0.001077645459
0.0008451808669
0.001489109362
0.003700406527
0.004475979806
0.005157452979
0.007491215011
0.008928680385
0.009959572148
0.0006551476865
0.0004448474357
0.0004011037095
0.0003779171698
0.0002749978254
0.0005234271215
0.0007711252405
0.0008946524274
0.001012898667
0.001186761695
0.001452660494
0.001827209035
0.002239495908
0.002500001434
0.002849011024
0.003113301525
0.003225111141
0.003385608345
0.003710566825
0.004500059895
0.006333083549
0.007108659414
0.007707382521
0.008424787213
0.009322066371
0.01030030756
0.01148556811
0.01215505545
0.01233895806
0.01282128253
1.292023192e-05
8.054577501e-06
3.834025087e-06
9.86320508e-06
2.153282891e-05
2.421712532e-06
3.962750195e-06
0.0001181269054
5.675082554e-05
3.75251432e-05
3.818509715e-05
0.0001366146145
6.334645977e-05
3.98936398e-05
4.612585571e-05
0.0001452647883
6.007994449e-05
3.895611309e-05
4.975116653e-05
0.0001440276182
0.0001348389226
2.444781311e-10
2.746970432e-11
8.027929618e-05
0.0002307401456
1.085364996e-05
0.001192213852
1.65446683e-06
6.786829092e-07
0.0006010045724
5.190270522e-07
4.190424457e-07
6.220871523e-05
3.383863577e-07
3.186008758e-07
0.0006358088925
3.295384713e-07
4.232034105e-07
0.0006177692752
4.897791354e-07
4.856513944e-07
0.0008913168537
4.764011777e-07
4.489626812e-07
0.001632953561
4.746743462e-07
8.345288517e-07
0.0008136949536
3.798148979e-06
3.082353955e-05
0.009934969389
0.0002529156837
0.001618205942
2.125247774e-05
0.0001413311158
6.07006987e-05
0.000886859854
0.0003979798333
0.0006105318587
0.000132435231
0.000147421801
1.863726475e-05
0.0005427561793
0.0001703902383
3.739548783e-05
0.0001777320986
0.0001279786131
0.0002887717815
0.000254620843
0.0003708483249
0.00021252296
7.392661911e-05
0.0002174362898
0.0002081574613
0.0002467193109
0.0002058663635
0.0002306937402
0.0002295067047
0.0001712014498
0.0002121311934
0.0002199184263
0.000232254376
0.003060481491
0.000744676198
0.0001674840897
0.0006803225521
0.0003087257574
0.0004181569075
0.0001360547919
0.0006721620454
0.0009582125882
0.002990444442
0.0006355914022
0.0001766148462
4.383511633e-05
3.405839561e-06
0.0008827612529
0.002170510963
0.00124203982
0.000227785202
0.0004864198489
0.0009593651824
0.001733643476
0.004289526209
0.003628684222
0.0009707742184
0.002842310184
0.001271906824
0.0004973227108
0.003585127617
0.0004698575923
0.000141806047
0.0001089548099
1.413532047e-05
0.0002817782978
0.004778792797
0.0004319865842
8.586339732e-06
1.626677857e-05
4.773650161e-06
0.0006607065972
0.007125805937
0.0008771697314
0.0001626769048
0.001076649484
0.005796318736
0.001533023916
0.001087258126
1.312821511e-05
2.706476821e-05
2.336629344e-05
2.138827778e-05
3.236316229e-05
3.589720668e-05
1.192243797e-06
8.388709238e-06
4.032085097e-06
1.998092126e-06
6.774106916e-07
5.029869549e-06
2.025203609e-06
2.55421708e-07
8.680015842e-07
4.468129041e-07
2.208527551e-07
3.238399586e-07
3.6669714e-07
3.465579782e-07
4.425518503e-07
5.950637902e-07
4.050257844e-07
7.983477996e-07
9.139919656e-07
3.721512933e-07
9.17757997e-07
9.767789521e-07
9.290718848e-07
1.32229415e-06
3.868880636e-06
3.788382072e-05
1.705884675e-05
7.250734272e-05
3.275666495e-05
4.582648743e-05
1.230355957e-05
6.723144764e-05
2.566310527e-05
1.856711541e-05
4.499705345e-06
2.894326907e-05
1.145030521e-05
1.031113631e-06
5.109190754e-06
2.474482817e-06
4.669675924e-07
1.163376477e-06
6.978063024e-07
8.664480133e-07
8.490889874e-07
1.353478872e-06
1.344917224e-06
1.877631556e-06
2.23624291e-06
1.704751758e-06
2.20424565e-06
3.825417303e-06
9.802706367e-06
8.392880553e-06
2.381890068e-05
0.0001157880865
7.044631645e-05
0.0001786269142
4.898469038e-05
0.0001200794987
5.237828429e-05
5.270168691e-05
5.965639471e-05
5.307300003e-05
3.938321165e-05
6.783163749e-06
5.376659149e-05
2.151794717e-05
1.592605837e-06
1.217267882e-05
6.087930789e-06
2.369088907e-06
4.381823275e-06
5.047369502e-06
4.351878479e-06
7.734386948e-06
1.015035223e-05
9.958886595e-06
1.047691251e-05
2.500432441e-05
5.481702852e-05
5.28916688e-05
0.00012031186
0.0001425849744
5.877477168e-05
5.323851646e-05
6.327316785e-05
5.089250864e-05
4.287174045e-05
3.975395995e-05
1.866258521e-05
0.0001726919837
5.103433162e-05
1.488900408e-05
3.31965291e-05
3.291770567e-05
2.44980078e-05
3.824030328e-05
4.936026848e-05
6.200244848e-05
6.022485137e-05
0.00016789011
5.128483401e-05
0.0009677979561
0.01159453526
0.007799338922
0.0002872065268
4.778279399e-06
0.0001688717829
3.796662767e-07
0.0001885519391
6.34107602e-08
0.0008283606782
0.002729076994
0.0001837824478
0.0002744489123
0.001097011159
0.003412117149
0.0004810162786
0.0002029166256
0.00241422239
0.0001941444976
6.188525447e-05
0.00243926289
0.001006044507
0.001559748662
0.005563503264
0.000951707941
0.0006376513578
0.003682883037
5.312878481e-05
0.001205973263
0.006258221876
4.047414456e-05
0.002183014815
0.006738324893
0.0006306458495
0.006500590421
0.0009286297398
0.0001484383163
1.124942316e-05
1.966314445e-05
2.811280027e-06
1.939355047e-06
3.861248097e-07
2.064869e-07
2.673462179e-07
4.018255924e-07
3.96810268e-07
4.071458944e-07
4.582121269e-06
0.000281722024
6.5375199e-05
4.335085179e-05
4.21378791e-05
4.869310631e-05
1.946599923e-05
2.972602172e-05
6.905173353e-06
1.087351833e-05
2.002465783e-06
5.324554533e-07
5.8847858e-07
1.172386145e-06
1.338007396e-06
3.236030221e-06
3.563873992e-05
0.000525696208
9.869829032e-05
1.483409961e-05
3.398779642e-06
1.519204179e-06
3.494656452e-06
4.626873326e-06
2.191712937e-05
0.0001352159731
0.0004994483935
8.062007438e-05
9.378990809e-05
7.364002284e-05
1.251302371e-09
7.607854142e-10
4.798019159e-10
0.0001633523365
4.688593753e-05
1.628435254e-05
1.880881986e-05
2.285384706e-05
0.0001179673852
0.0003189707503
0.000134334441
0.0001168976672
2.60041239e-10
0.0002671378993
0.0001389469443
0.0001061831653
3.940649709e-05
3.153836725e-05
5.00394996e-05
5.421655669e-05
0.0001569711048
6.850679691e-05
3.548227571e-05
3.570962101e-09
7.267875744e-10
0.0001919323315
9.405728857e-05
7.219018747e-05
4.152931015e-10
5.03180097e-13
0.0002209236915
0.0001242372932
0.0001073597886
4.723497048e-10
1.310820018e-11
0.0005489920093
3.489268936e-06
0.003051429259
0.0001981772166
5.207915341e-06
6.041242075e-06
0.0001585146981
4.207531305e-06
0.0001407539959
0.0001490821489
9.273446473e-06
9.441552163e-06
0.0001775650804
1.486047164e-07
0.0001796473512
0.0002176968229
9.258026769e-07
3.736372399e-07
0.000270786285
1.662870178e-07
0.001471288023
0.007145724178
0.001298433864
7.013816096e-05
0.001634210907
4.687680237e-06
0.0007539906601
3.646360828e-06
2.91251736e-06
4.910099532e-06
4.497057471e-06
7.368561053e-06
8.402242845e-06
3.506141725e-06
4.259917352e-06
5.869007155e-06
4.001434282e-05
5.007108546e-05
3.156367003e-05
2.88073215e-05
1.264467682e-05
4.953491617e-05
2.445619561e-05
4.327186255e-05
1.410017293e-06
2.838817745e-06
1.547812231e-06
2.114652379e-06
3.839641813e-05
4.09823436e-05
4.262889564e-05
5.761442173e-05
0.0001207689717
6.131143237e-05
7.900480592e-05
9.016536615e-05
0.0001151373541
3.819545707e-10
1.096667482e-10
1.626194755e-10
6.977217294e-11
5.069889302e-05
8.95759529e-05
6.022769938e-10
2.66557706e-10
4.329007189e-05
4.728007703e-05
5.663618594e-05
4.609090587e-05
5.393687517e-05
4.007155695e-05
4.415882069e-05
3.635346805e-05
4.301894793e-05
8.984056822e-05
0.0001452349991
9.236288246e-05
0.0002000908443
0.0001341107635
0.0001389002165
0.0001898671303
0.0002043379321
2.365957367e-10
4.152150918e-11
3.984609573e-11
3.053317657e-11
8.984040248e-05
0.000157821189
5.862826769e-11
3.894418178e-05
7.821920017e-05
2.659610805e-05
2.637536368e-05
2.616229932e-05
1.509183406e-05
4.272407503e-05
3.088339004e-05
4.818536477e-05
6.50255595e-05
2.916704939e-05
7.984525152e-05
3.980477843e-05
3.811437778e-05
5.344201316e-05
6.813680429e-05
9.240579255e-10
5.497707073e-10
1.626413435e-12
1.197476987e-12
5.100981308e-05
0.0001086313669
6.22394855e-05
9.985246835e-05
9.072152336e-05
0.0001315422937
7.028561744e-13
4.250920379e-10
2.123208368e-12
1.476162134e-12
7.237389149e-05
0.0001323400233
8.036151542e-05
0.0001598920486
0.0001203540993
0.0001810049412
1.819634094e-11
2.620154375e-10
2.467037575e-11
3.606486233e-11
2.032559316e-11
)
;

boundaryField
{
    walls
    {
        type            zeroGradient;
    }
    wallFilmFace_top
    {
        type            zeroGradient;
    }
    region0_to_wallFilmRegion_wallFilmFace
    {
        type            zeroGradient;
    }
    mirrorFace_top
    {
        type            zeroGradient;
    }
    region0_to_wallFilmRegion_mirrorFace
    {
        type            zeroGradient;
    }
    procBoundary2to0
    {
        type            processor;
        value           nonuniform List<scalar> 
26
(
0.0002143552999
0.0004976885977
0.0008713494027
0.001525790027
0.001142893431
0.0002141647366
4.963555575e-05
2.382452614e-05
1.586319854e-05
3.113400159e-05
5.766046622e-05
6.294875557e-05
4.247610205e-05
2.311661055e-05
1.370506947e-05
1.058142916e-05
1.078502074e-05
1.503167802e-05
3.019692631e-05
9.485832144e-05
0.0002069152733
0.0002972413558
0.0003225699919
0.0002950103265
0.0002244335938
0.00211481913
)
;
    }
    procBoundary2to1
    {
        type            processor;
        value           nonuniform List<scalar> 
33
(
0.000222246504
0.000222246504
0.0004196491121
0.0004196491121
0.0009213132042
0.002096357914
0.001437120295
0.001437120295
0.001459167483
0.0005072597217
0.000106940902
2.990267292e-05
1.285500513e-05
1.058737056e-05
4.586680099e-05
0.0001505805575
0.0002150816822
0.0003940151068
0.0003502681256
0.0004716427066
0.0004323795614
0.0003384951207
0.0003384556591
0.0001028812767
5.374622716e-05
3.769876546e-05
3.357277875e-05
4.184543766e-05
0.0003473509676
0.0006443406352
0.0002935166367
5.928126079e-05
0.001357804261
)
;
    }
    procBoundary2to3
    {
        type            processor;
        value           nonuniform List<scalar> 
64
(
9.404727304e-06
4.527279757e-06
4.515122607e-06
6.9761298e-06
6.99290726e-06
3.370533648e-05
4.939755666e-05
5.578628965e-05
2.147036329e-11
0.0005648268125
0.0003817284872
0.0002704991817
0.0005857002028
0.0003817284872
0.000382386175
0.0006997005885
0.001019859977
0.0006298378097
0.0001337302169
8.420460887e-06
6.642591859e-06
5.08272484e-06
4.175062263e-06
1.011118598e-05
1.011118598e-05
3.781372967e-05
0.0007373643724
0.0007373643724
0.0007162996769
0.0007373643724
5.570337555e-07
9.972767123e-07
5.570337555e-07
3.687280571e-06
1.170174449e-05
0.0002018127739
2.734150633e-08
0.0005648268125
0.0007234473141
5.570337555e-07
4.219617618e-10
5.754029199e-05
6.643501416e-05
5.935947885e-10
3.557112649e-13
9.357717248e-12
0.0003414034127
7.465342971e-08
0.0005445792621
4.442138049e-06
4.527279757e-06
5.339165947e-06
1.030653407e-05
3.537389644e-06
4.268849432e-05
9.9827097e-11
4.517671086e-11
5.172186559e-05
2.780343748e-11
2.30748129e-11
8.230325489e-05
8.712320134e-13
1.015576748e-12
1.701649604e-11
)
;
    }
}


// ************************************************************************* //
