/*--------------------------------*- C++ -*----------------------------------*\
  =========                 |
  \\      /  F ield         | OpenFOAM: The Open Source CFD Toolbox
   \\    /   O peration     | Website:  https://openfoam.org
    \\  /    A nd           | Version:  8
     \\/     M anipulation  |
\*---------------------------------------------------------------------------*/
FoamFile
{
    version     2.0;
    format      ascii;
    class       volScalarField;
    location    "1.4/wallFilmRegion";
    object      kappa;
}
// * * * * * * * * * * * * * * * * * * * * * * * * * * * * * * * * * * * * * //

dimensions      [1 1 -3 -1 0 0 0];

internalField   nonuniform List<scalar> 
1342
(
0.6088099911
0.6088099878
0.6088099937
0.6088099956
0.6088099944
0.6088099957
0.6088100009
0.6088100574
0.6088100044
0.6088100025
0.6088100015
0.6088100016
0.6088100021
0.6088100031
0.608810004
0.6088100041
0.6088100034
0.6088100026
0.6088100023
0.608810002
0.6088100018
0.6088100018
0.6088100019
0.6088100023
0.6088100029
0.608810002
0.6088099916
0.6088099921
0.6088099917
0.6088099949
0.6088099972
0.6088099929
0.6088099965
0.6088099997
0.6088100134
0.6088100056
0.6088100027
0.6088100012
0.6088100012
0.6088100015
0.6088100022
0.6088100028
0.6088100027
0.6088100022
0.6088100021
0.6088100023
0.6088100021
0.6088100016
0.6088100013
0.6088100014
0.6088100018
0.6088100027
0.6088100023
0.6088099928
0.6088099945
0.6088099961
0.6088099946
0.6088099958
0.6088099998
0.6088100011
0.6088100015
0.6088100004
0.6088100149
0.6088100068
0.608810003
0.6088100011
0.608810001
0.6088100012
0.6088100016
0.6088100021
0.6088100022
0.6088100022
0.6088100024
0.608810003
0.6088100025
0.6088100015
0.6088100011
0.608810001
0.6088100014
0.6088100023
0.6088100029
0.608809997
0.6088099976
0.6088099977
0.608809997
0.6088099972
0.6088100007
0.6088100057
0.6088100061
0.608810008
0.6088100255
0.6088100088
0.6088100039
0.6088100012
0.6088100009
0.608810001
0.6088100013
0.6088100017
0.608810002
0.6088100024
0.608810003
0.6088100044
0.6088100025
0.6088100012
0.6088100008
0.6088100008
0.608810001
0.6088100018
0.6088100036
0.6088099971
0.6088099978
0.6088099979
0.6088099988
0.6088100003
0.608810004
0.6088100096
0.608810012
0.6088100155
0.6088100447
0.6088100122
0.6088100055
0.6088100015
0.6088100009
0.6088100009
0.6088100011
0.6088100015
0.6088100019
0.6088100025
0.6088100033
0.6088100049
0.6088100012
0.6088100005
0.6088100003
0.6088100003
0.6088100004
0.6088100005
0.608810003
0.6088099961
0.6088099965
0.6088100008
0.6088099988
0.6088099996
0.6088100019
0.6088100053
0.6088100126
0.6088100197
0.6088100284
0.6088100717
0.608810018
0.6088100082
0.608810002
0.6088100011
0.6088100009
0.608810001
0.6088100013
0.6088100017
0.6088100024
0.6088100036
0.6088100058
0.6088100018
0.6088100007
0.6088100005
0.6088100005
0.6088100006
0.608810001
0.608810003
0.6088099969
0.6088099985
0.6088100174
0.6088099994
0.6088100001
0.6088100021
0.608810004
0.608810008
0.6088100113
0.6088100154
0.608810025
0.6088100148
0.6088100077
0.6088100027
0.6088100016
0.6088100012
0.6088100011
0.6088100011
0.6088100013
0.6088100015
0.6088100019
0.6088100025
0.6088100019
0.6088100011
0.6088100008
0.6088100007
0.6088100011
0.6088100029
0.6088100032
0.6088100045
0.6088100136
0.6088100139
0.6088099988
0.6088099999
0.6088100018
0.6088100023
0.6088100022
0.6088100017
0.6088100014
0.6088100012
0.6088100013
0.6088100019
0.6088100017
0.6088100012
0.608810001
0.6088100009
0.6088100009
0.6088100008
0.6088100009
0.608810001
0.6088100013
0.6088100015
0.6088100013
0.608810001
0.608810001
0.6088100017
0.6088100037
0.608810003
0.6088100178
0.6088100241
0.6088100151
0.6088099975
0.6088099982
0.6088100015
0.6088100025
0.608810002
0.6088100015
0.6088100012
0.6088100011
0.6088100012
0.6088100018
0.6088100014
0.608810001
0.6088100008
0.6088100008
0.6088100008
0.6088100008
0.6088100009
0.6088100011
0.6088100014
0.6088100016
0.6088100015
0.6088100014
0.6088100015
0.6088100023
0.6088100029
0.6088100026
0.6088100205
0.6088100303
0.6088100252
0.6088099963
0.6088099957
0.6088099993
0.608810003
0.6088100027
0.6088100018
0.6088100009
0.6088100015
0.6088100015
0.6088100021
0.6088100013
0.6088100009
0.6088100008
0.6088100008
0.6088100008
0.6088100009
0.608810001
0.6088100013
0.6088100017
0.608810002
0.608810002
0.6088100019
0.6088100021
0.6088100026
0.6088100025
0.6088100024
0.6088100112
0.6088100412
0.6088100494
0.6088100004
0.6088099925
0.608809995
0.6088100031
0.6088100037
0.608810002
0.6088099998
0.608810002
0.6088100019
0.6088100022
0.6088100012
0.6088100009
0.6088100008
0.6088100008
0.6088100009
0.6088100011
0.6088100013
0.6088100017
0.6088100023
0.6088100028
0.6088100027
0.6088100026
0.6088100028
0.6088100028
0.6088100024
0.6088100024
0.6088099939
0.6088099956
0.6088099977
0.6088099965
0.6088099976
0.6088100004
0.6088100051
0.6088100057
0.6088100033
0.6088099993
0.6088100029
0.6088100023
0.6088100021
0.6088100012
0.6088100009
0.6088100008
0.6088100009
0.608810001
0.6088100013
0.6088100017
0.6088100024
0.6088100033
0.608810004
0.6088100037
0.6088100035
0.6088100034
0.6088100032
0.608810003
0.6088100022
0.6088099922
0.6088099958
0.6088100104
0.6088099977
0.6088099951
0.6088099943
0.6088099957
0.608809998
0.6088099965
0.608809999
0.6088099995
0.6088100017
0.6088100019
0.6088100012
0.6088100009
0.6088100009
0.608810001
0.6088100013
0.6088100017
0.6088100024
0.6088100033
0.6088100045
0.608810005
0.6088100046
0.6088100042
0.6088100042
0.6088100052
0.6088100033
0.6088100022
0.608809994
0.608809996
0.6088099978
0.6088099961
0.6088099963
0.6088099945
0.6088099951
0.6088099963
0.6088099957
0.6088099991
0.6088099984
0.6088099998
0.6088100012
0.6088100011
0.608810001
0.608810001
0.6088100012
0.6088100016
0.6088100022
0.6088100031
0.608810004
0.6088100047
0.608810005
0.6088100048
0.6088100048
0.6088100053
0.6088100071
0.6088100039
0.6088100021
0.6088099983
0.6088099984
0.6088099979
0.6088099965
0.6088099959
0.6088099966
0.6088099985
0.608809999
0.6088099991
0.6088099998
0.6088099993
0.608809999
0.6088099991
0.6088099997
0.6088100005
0.6088100009
0.6088100013
0.6088100019
0.6088100025
0.6088100031
0.6088100037
0.6088100042
0.6088100047
0.608810005
0.6088100056
0.6088100068
0.6088100091
0.6088100048
0.6088100021
0.6088100006
0.6088100007
0.6088099994
0.6088099977
0.6088099964
0.6088099965
0.6088099972
0.6088099972
0.6088099975
0.6088099995
0.6088099984
0.608809998
0.6088099982
0.6088099989
0.6088099995
0.6088099999
0.6088100004
0.608810001
0.6088100018
0.6088100025
0.6088100033
0.6088100042
0.608810005
0.6088100059
0.6088100071
0.6088100089
0.6088100109
0.608810006
0.6088100021
0.6088099969
0.608810004
0.608810007
0.6088100003
0.6088099969
0.6088099972
0.6088099969
0.6088099957
0.6088099954
0.6088099988
0.6088099973
0.608809997
0.6088099974
0.6088099978
0.6088099981
0.6088099983
0.6088099986
0.6088099994
0.6088100011
0.6088100022
0.6088100034
0.6088100048
0.6088100062
0.6088100077
0.6088100095
0.6088100117
0.6088100124
0.6088100074
0.608810002
0.6088099929
0.60881
0.6088100065
0.6088100016
0.6088099977
0.6088099989
0.6088099978
0.6088099955
0.6088099948
0.6088099979
0.6088099963
0.6088099961
0.6088099965
0.6088099968
0.6088099969
0.6088099972
0.6088099977
0.6088099987
0.6088100009
0.6088100022
0.608810004
0.6088100065
0.608810009
0.608810011
0.6088100123
0.6088100128
0.6088100108
0.6088100073
0.608810002
0.6088099904
0.6088099952
0.6088100079
0.6088100032
0.6088099995
0.6088100015
0.6088099995
0.608809996
0.6088099948
0.6088099969
0.6088099954
0.6088099954
0.6088099959
0.6088099961
0.6088099964
0.6088099969
0.6088099976
0.6088099988
0.6088100009
0.6088100022
0.6088100044
0.6088100082
0.6088100027
0.6088100026
0.6088100026
0.6088100026
0.6088100026
0.6088100026
0.608810002
0.6088099896
0.6088099929
0.6088100106
0.6088100062
0.6088100026
0.6088100047
0.6088100016
0.6088099967
0.608809995
0.6088099958
0.6088099948
0.608809995
0.6088099955
0.6088099959
0.6088099971
0.6088099977
0.6088099983
0.6088099993
0.6088100011
0.6088100022
0.608810004
0.6088100026
0.6088100025
0.6088100025
0.6088100025
0.6088100025
0.6088100024
0.6088100024
0.6088100021
0.608809989
0.6088099928
0.6088100137
0.6088100101
0.6088100068
0.6088100084
0.6088100033
0.6088099973
0.6088099953
0.608809995
0.6088099947
0.6088099951
0.6088099956
0.6088099963
0.60881
0.6088100009
0.6088100005
0.6088100004
0.6088100014
0.6088100026
0.6088100026
0.6088100025
0.6088100027
0.6088100026
0.6088100025
0.6088100025
0.6088100025
0.6088100025
0.6088100022
0.6088099896
0.6088099935
0.6088100161
0.6088100138
0.6088100109
0.6088100109
0.6088100033
0.6088099979
0.6088099958
0.6088099951
0.6088099951
0.6088099956
0.6088099964
0.6088099975
0.6088100006
0.6088100014
0.6088100019
0.6088100016
0.6088100019
0.6088100028
0.6088100026
0.6088100026
0.6088100025
0.6088100023
0.6088100023
0.6088100023
0.6088100025
0.6088100025
0.6088100023
0.6088099913
0.6088099944
0.6088100083
0.6088100043
0.6088100053
0.6088100012
0.608810001
0.6088099991
0.608809997
0.6088099961
0.608809996
0.6088099966
0.6088099977
0.6088099992
0.6088100011
0.6088100016
0.6088100025
0.6088100027
0.608810003
0.6088100027
0.6088100025
0.6088100024
0.6088100023
0.6088100022
0.6088100021
0.6088100022
0.6088100025
0.6088100024
0.6088100023
0.6088099954
0.6088099995
0.608810001
0.6088100014
0.6088100014
0.608810001
0.6088100004
0.6088100001
0.6088099998
0.6088099995
0.6088099993
0.6088099992
0.6088099995
0.6088100007
0.6088100018
0.6088100024
0.6088100033
0.6088100039
0.6088100029
0.6088100026
0.6088100025
0.6088100023
0.6088100021
0.608810002
0.608810002
0.608810002
0.6088100023
0.6088100023
0.6088100022
0.608809999
0.6088099998
0.6088100005
0.6088100012
0.6088100015
0.608810002
0.6088100022
0.6088100013
0.6088100005
0.6088100002
0.6088100001
0.6088100003
0.6088100006
0.6088100015
0.6088100017
0.6088100015
0.6088100015
0.6088100022
0.6088100027
0.6088100026
0.6088100024
0.6088100022
0.608810002
0.608810002
0.6088100019
0.6088100019
0.6088100019
0.6088100021
0.6088100021
0.6088122094
0.6088129636
0.6088126986
0.6088130202
0.6088133486
0.6088100718
0.608810044
0.6088100174
0.6088100039
0.6088100013
0.6088100007
0.6088100009
0.608810001
0.6088100015
0.6088100012
0.6088100009
0.6088100009
0.6088100013
0.6088100026
0.6088100025
0.6088100023
0.6088100021
0.608810002
0.6088100019
0.6088100019
0.6088100018
0.6088100018
0.6088100018
0.6088100019
0.608810049
0.6088100881
0.6088101014
0.6088101161
0.6088101383
0.6088100779
0.6088100588
0.6088100379
0.6088100101
0.6088100026
0.6088100012
0.6088100011
0.6088100012
0.6088100014
0.6088100009
0.6088100007
0.6088100008
0.608810001
0.6088100025
0.6088100026
0.6088100023
0.6088100021
0.608810002
0.6088100018
0.6088100018
0.6088100017
0.6088100017
0.6088100017
0.6088100017
0.608810019
0.6088100309
0.6088100349
0.6088100398
0.6088100475
0.6088100258
0.6088100195
0.6088100159
0.6088100089
0.6088100036
0.6088100017
0.6088100012
0.6088100012
0.6088100013
0.6088100009
0.6088100007
0.6088100007
0.6088100011
0.608810003
0.6088100028
0.6088100024
0.6088100022
0.608810002
0.6088100018
0.6088100017
0.6088100016
0.6088100016
0.6088100016
0.6088100017
0.608810012
0.6088100183
0.6088100206
0.6088100235
0.6088100282
0.6088100177
0.6088100131
0.6088100111
0.6088100079
0.6088100044
0.6088100023
0.6088100014
0.6088100012
0.6088100012
0.6088100008
0.6088100007
0.6088100008
0.6088100013
0.6088100028
0.6088100035
0.6088100027
0.6088100022
0.6088100021
0.6088100018
0.6088100015
0.6088100014
0.6088100013
0.6088100013
0.6088100013
0.6088100018
0.6088100016
0.6088100013
0.6088100012
0.6088100011
0.6088100005
0.6088100005
0.6088100006
0.6088100006
0.6088100006
0.6088100006
0.6088100006
0.6088100006
0.6088100005
0.6088100006
0.6088100007
0.6088100008
0.6088100011
0.6088100013
0.6088100014
0.6088100016
0.6088100016
0.6088100016
0.6088100016
0.6088100016
0.6088100016
0.6088100015
0.6088100012
0.6088100011
0.6088099984
0.6088099964
0.6088099891
0.6088099906
0.6088099602
0.6088099647
0.6088099969
0.6088099985
0.6088099998
0.6088099999
0.6088099996
0.6088099915
0.6088099999
0.6088099999
0.6088099999
0.6088099948
0.60881
0.60881
0.6088099999
0.608809997
0.6088099806
0.6088099871
0.6088086963
0.6088087171
0.6088099976
0.6088099985
0.6088099984
0.608809997
0.608809998
0.6088099971
0.6088099961
0.6088099958
0.6088099935
0.6088099942
0.6088099915
0.6088099925
0.6088099872
0.6088099929
0.6088099935
0.6088099947
0.6088099945
0.608809995
0.6088099954
0.6088099951
0.6088099952
0.6088099961
0.6088099955
0.6088099971
0.6088099977
0.6088099989
0.6088099993
0.608809999
0.6088099994
0.6088099993
0.6088099985
0.6088099985
0.6088099985
0.6088099993
0.6088099992
0.6088099992
0.6088099986
0.6088099987
0.6088099579
0.6088099988
0.6088099988
0.6088099989
0.6088099991
0.6088099991
0.6088099986
0.6088099978
0.6088099957
0.6088099994
0.6088099994
0.6088099997
0.6088099997
0.6088099948
0.6088099888
0.608809986
0.6088099999
0.608809998
0.608809992
0.6088099854
0.6088099972
0.6088099972
0.6088099963
0.6088099963
0.6088099959
0.6088099951
0.6088099958
0.6088099938
0.6088099942
0.6088099959
0.6088099956
0.6088099955
0.6088099923
0.6088099945
0.6088099907
0.6088099945
0.6088099937
0.6088099935
0.6088099888
0.6088099931
0.608809989
0.6088099925
0.6088099898
0.60880999
0.6088099894
0.6088099901
0.6088099895
0.6088099901
0.6088099941
0.6088099933
0.6088099894
0.6088099927
0.6088099938
0.6088099958
0.6088099968
0.6088099969
0.6088099963
0.6088099984
0.6088099981
0.6088099973
0.6088099975
0.6088099974
0.6088099966
0.6088099969
0.6088099976
0.6088099963
0.6088099955
0.6088099995
0.6088099994
0.6088099996
0.6088099994
0.6088099997
0.6088099995
0.608809987
0.6088099967
0.6088099898
0.6088099815
0.6088099976
0.6088099985
0.6088099981
0.6088099945
0.6088099973
0.6088099959
0.6088099943
0.6088099952
0.6088099957
0.6088099952
0.6088099959
0.6088099965
0.6088099961
0.6088099969
0.608809997
0.608809996
0.6088099968
0.6088099968
0.608809998
0.6088099974
0.6088099986
0.6088099993
0.6088099991
0.6088099993
0.6088099997
0.6088099997
0.608809992
0.6088099997
0.6088099942
0.6088099879
0.6088099985
0.6088099987
0.6088099987
0.6088099974
0.6088099986
0.6088099983
0.6088099969
0.6088099979
0.6088099978
0.6088099975
0.6088099979
0.6088099982
0.6088099977
0.6088099983
0.6088099983
0.6088099977
0.6088099982
0.6088099985
0.6088099989
0.6088099989
0.6088099991
0.6088099993
0.6088099992
0.6088099992
0.6088099999
0.6088099998
0.6088099999
0.6088099999
0.6088099999
0.6088099999
0.6088099964
0.6088099988
0.6088099991
0.6088099991
0.6088099985
0.608809999
0.6088099989
0.6088099987
0.6088099989
0.608809999
0.6088099988
0.6088099991
0.6088099991
0.6088099989
0.6088099989
0.6088099986
0.6088099991
0.6088099989
0.6088099986
0.6088099999
0.60881
0.60881
0.60881
0.60881
0.6088099981
0.6088099999
0.6088099991
0.6088099997
0.6088099994
0.6088099992
0.6088099992
0.6088099991
0.6088099989
0.6088099984
0.6088099965
0.6088099946
0.6088099929
0.6088099863
0.60881
0.6088099985
0.608809998
0.6088099977
0.6088099979
0.6088099986
0.6088099979
0.6088099868
0.6088099979
0.6088099418
0.6088099975
0.6088099977
0.6088099967
0.608809996
0.6088099964
0.6088099965
0.6088099948
0.6088099955
0.6088099947
0.6088099931
0.6088099914
0.6088099923
0.6088099924
0.6088099894
0.60880999
0.6088099893
0.6088099951
0.6088099959
0.6088099954
0.6088099956
0.6088099973
0.6088099975
0.6088099969
0.6088099976
0.608809999
0.6088099978
0.6088099963
0.6088099985
0.608809999
0.6088099995
0.6088099953
0.6088099983
0.6088099966
0.6088099931
0.6088099946
0.6088099959
0.6088099961
0.6088099965
0.608809999
0.6088099993
0.6088099995
0.6088099996
0.6088099997
0.6088099998
0.608809998
0.6088099989
0.6088099848
0.6088099986
0.6088099981
0.6088099968
0.6088099971
0.6088099977
0.6088099975
0.6088099984
0.6088099992
0.6088099988
0.6088099988
0.6088099989
0.6088099986
0.6088099985
0.6088099988
0.6088099987
0.6088099991
0.6088099991
0.608809998
0.6088099587
0.6088099607
0.6088099661
0.6088082617
0.6088082833
0.6088080831
0.6088099994
0.6088099994
0.6088099991
0.6088099992
0.608809998
0.6088099967
0.6088099927
0.6088099708
0.608809973
0.6088084469
0.6088099999
0.60881
0.60881
0.6088099999
0.6088099999
0.6088099975
0.6088099986
0.6088099998
0.60881
0.6088099999
0.6088093095
0.6088090756
0.6088099951
0.608809997
0.6088099987
0.6088090503
0.6088089152
0.608809989
0.6088099905
0.6088099949
0.6088089846
0.6088087982
0.608809998
0.6088099979
0.6088099979
0.608809998
0.608809997
0.6088099992
0.6088099978
0.6088099985
0.6088099978
0.6088099978
0.6088099993
0.6088099992
0.6088099979
0.6088099683
0.6088099977
0.6088099976
0.6088099933
0.6088099825
0.6088099975
0.608809969
0.6088099965
0.6088099986
0.6088099986
0.6088099979
0.6088099984
0.6088099936
0.6088099987
0.6088099959
0.6088099893
0.6088099761
0.6088099739
0.6088099735
0.6088099769
0.6088099977
0.6088099984
0.6088099989
0.6088099998
0.6088099998
0.6088099577
0.6088099613
0.6088099629
0.6088099679
0.6088099683
0.6088099641
0.6088099956
0.6088099979
0.6088099971
0.608809998
0.6088099997
0.6088099972
0.6088099931
0.6088099999
0.6088099651
0.6088099651
0.6088099696
0.6088099686
0.6088099728
0.6088083216
0.608808296
0.6088081553
0.6088083211
0.6088099628
0.6088099702
0.6088081503
0.6088081957
0.6088099986
0.608809996
0.60881
0.6088099999
0.6088099999
0.6088099999
0.608809999
0.6088099999
0.6088099992
0.6088099846
0.6088099772
0.6088099812
0.6088099898
0.6088099782
0.608809984
0.6088099819
0.608809987
0.6088085551
0.608808539
0.6088085036
0.6088085532
0.6088099751
0.608809977
0.6088084548
0.6088099999
0.6088099999
0.6088099998
0.6088099998
0.6088099997
0.6088099996
0.6088099996
0.6088099999
0.6088099999
0.6088099993
0.6088099999
0.608809999
0.6088099994
0.6088099999
0.6088099996
0.6088099999
0.6088091311
0.6088089061
0.6088088723
0.6088088946
0.6088099981
0.608809994
0.608809996
0.6088099995
0.6088099971
0.6088099983
0.6088089594
0.6088090773
0.6088089095
0.6088088658
0.6088099934
0.6088099874
0.6088099906
0.6088099966
0.6088099925
0.6088099945
0.6088088196
0.6088087987
0.6088087337
0.608808689
0.6088087216
)
;

boundaryField
{
    walls
    {
        type            zeroGradient;
    }
    wallFilmFace_top
    {
        type            zeroGradient;
    }
    region0_to_wallFilmRegion_wallFilmFace
    {
        type            zeroGradient;
    }
    mirrorFace_top
    {
        type            zeroGradient;
    }
    region0_to_wallFilmRegion_mirrorFace
    {
        type            zeroGradient;
    }
    procBoundary2to0
    {
        type            processor;
        value           nonuniform List<scalar> 
26
(
0.6088099915
0.608809992
0.6088099936
0.6088099953
0.6088099967
0.6088100005
0.608810002
0.6088100029
0.608810003
0.6088100023
0.6088100018
0.6088100021
0.6088100029
0.6088100041
0.6088100056
0.6088100063
0.608810006
0.6088100047
0.6088100031
0.6088100021
0.6088100019
0.6088100019
0.608810002
0.6088100023
0.6088100027
0.6088100019
)
;
    }
    procBoundary2to1
    {
        type            processor;
        value           nonuniform List<scalar> 
33
(
0.6088099914
0.6088099914
0.6088099913
0.6088099913
0.6088099924
0.6088099964
0.6088099968
0.6088099968
0.6088099959
0.6088099954
0.6088099947
0.6088099953
0.6088100028
0.608810001
0.6088099941
0.6088099922
0.608809994
0.6088099973
0.6088099936
0.6088099927
0.6088099925
0.6088099918
0.6088099946
0.6088099907
0.6088099904
0.6088099916
0.6088099946
0.6088099968
0.6088099967
0.6088099971
0.608809998
0.6088099994
0.6088100016
)
;
    }
    procBoundary2to3
    {
        type            processor;
        value           nonuniform List<scalar> 
64
(
0.6088099976
0.6088099929
0.6088099981
0.608809999
0.608809999
0.6088099852
0.6088099903
0.6088099938
0.6088087589
0.6088099956
0.6088099898
0.6088099947
0.608809989
0.6088099898
0.6088099882
0.6088099883
0.6088099885
0.6088099887
0.6088099892
0.6088099951
0.6088099972
0.6088099986
0.6088099986
0.6088099968
0.6088099968
0.6088099957
0.6088099959
0.6088099959
0.6088099952
0.6088099959
0.608809977
0.6088099721
0.608809977
0.6088099766
0.6088099804
0.608809998
0.6088099003
0.6088099956
0.6088099961
0.608809977
0.6088080224
0.6088099947
0.6088099965
0.608809025
0.6088088625
0.6088087797
0.6088099974
0.6088099508
0.6088099988
0.6088099972
0.6088099929
0.6088099986
0.6088099992
0.6088099987
0.6088099876
0.6088081081
0.6088083375
0.6088099922
0.6088085486
0.6088085508
0.6088099977
0.6088088597
0.6088088205
0.6088087119
)
;
    }
}


// ************************************************************************* //
