/*--------------------------------*- C++ -*----------------------------------*\
  =========                 |
  \\      /  F ield         | OpenFOAM: The Open Source CFD Toolbox
   \\    /   O peration     | Website:  https://openfoam.org
    \\  /    A nd           | Version:  8
     \\/     M anipulation  |
\*---------------------------------------------------------------------------*/
FoamFile
{
    version     2.0;
    format      ascii;
    class       volScalarField;
    location    "1.4/wallFilmRegion";
    object      mu;
}
// * * * * * * * * * * * * * * * * * * * * * * * * * * * * * * * * * * * * * //

dimensions      [1 -1 -1 0 0 0 0];

internalField   nonuniform List<scalar> 
1342
(
0.000886147534
0.0008861475805
0.0008861474982
0.0008861474716
0.0008861474883
0.000886147471
0.000886147398
0.0008861466096
0.0008861473492
0.0008861473757
0.0008861473895
0.0008861473886
0.000886147381
0.0008861473675
0.0008861473543
0.0008861473533
0.0008861473635
0.0008861473734
0.0008861473782
0.0008861473822
0.0008861473854
0.0008861473858
0.0008861473832
0.0008861473778
0.0008861473702
0.0008861473822
0.0008861475283
0.00088614752
0.0008861475267
0.0008861474817
0.0008861474489
0.0008861475092
0.0008861474596
0.0008861474143
0.0008861472239
0.0008861473321
0.0008861473733
0.0008861473931
0.0008861473939
0.0008861473891
0.0008861473795
0.0008861473707
0.0008861473731
0.0008861473789
0.0008861473808
0.0008861473788
0.0008861473812
0.000886147388
0.0008861473919
0.0008861473912
0.0008861473852
0.0008861473723
0.0008861473778
0.0008861475106
0.0008861474872
0.0008861474653
0.0008861474852
0.0008861474687
0.000886147413
0.0008861473943
0.00088614739
0.0008861474047
0.0008861472019
0.0008861473148
0.000886147369
0.0008861473945
0.0008861473971
0.0008861473942
0.0008861473878
0.0008861473811
0.0008861473802
0.00088614738
0.0008861473765
0.0008861473678
0.0008861473761
0.0008861473897
0.0008861473953
0.0008861473958
0.0008861473914
0.0008861473779
0.0008861473696
0.0008861474521
0.0008861474437
0.000886147443
0.0008861474527
0.0008861474498
0.0008861474009
0.0008861473305
0.0008861473248
0.0008861472981
0.0008861470546
0.0008861472873
0.0008861473559
0.0008861473932
0.0008861473983
0.0008861473969
0.0008861473925
0.0008861473867
0.000886147382
0.0008861473769
0.0008861473678
0.0008861473491
0.0008861473754
0.0008861473936
0.0008861473987
0.0008861473993
0.0008861473965
0.0008861473856
0.0008861473604
0.0008861474506
0.0008861474408
0.0008861474399
0.0008861474274
0.0008861474062
0.0008861473542
0.0008861472758
0.0008861472433
0.0008861471943
0.0008861467862
0.0008861472401
0.0008861473336
0.000886147389
0.0008861473978
0.0008861473982
0.0008861473949
0.0008861473899
0.0008861473839
0.0008861473757
0.0008861473642
0.0008861473423
0.0008861473939
0.0008861474037
0.0008861474055
0.0008861474056
0.000886147405
0.0008861474032
0.0008861473679
0.0008861474642
0.0008861474595
0.0008861473994
0.0008861474265
0.0008861474164
0.000886147384
0.0008861473364
0.0008861472338
0.0008861471358
0.0008861470134
0.0008861464097
0.0008861471589
0.0008861472963
0.0008861473823
0.0008861473947
0.0008861473978
0.0008861473965
0.0008861473925
0.0008861473865
0.0008861473769
0.0008861473607
0.0008861473296
0.0008861473856
0.0008861474002
0.0008861474033
0.0008861474037
0.0008861474021
0.0008861473961
0.000886147368
0.0008861474531
0.0008861474319
0.0008861471673
0.0008861474187
0.0008861474088
0.0008861473805
0.000886147355
0.0008861472992
0.000886147253
0.0008861471954
0.0008861470617
0.0008861472035
0.0008861473025
0.0008861473728
0.0008861473886
0.0008861473939
0.0008861473955
0.0008861473948
0.0008861473926
0.0008861473892
0.000886147384
0.0008861473752
0.0008861473838
0.0008861473951
0.0008861473998
0.0008861474005
0.0008861473945
0.0008861473703
0.0008861473652
0.0008861473472
0.0008861472201
0.0008861472161
0.0008861474273
0.0008861474119
0.0008861473847
0.0008861473783
0.000886147379
0.0008861473861
0.0008861473908
0.0008861473934
0.0008861473928
0.0008861473838
0.0008861473865
0.0008861473936
0.0008861473963
0.0008861473976
0.0008861473984
0.0008861473986
0.0008861473978
0.0008861473959
0.000886147392
0.0008861473897
0.0008861473927
0.0008861473959
0.0008861473962
0.0008861473865
0.0008861473585
0.0008861473683
0.0008861471617
0.0008861470738
0.0008861471994
0.0008861474451
0.0008861474355
0.0008861473888
0.0008861473757
0.0008861473818
0.0008861473893
0.0008861473932
0.0008861473945
0.000886147393
0.0008861473855
0.0008861473904
0.0008861473965
0.0008861473985
0.0008861473992
0.0008861473993
0.0008861473989
0.0008861473978
0.0008861473955
0.0008861473914
0.000886147388
0.0008861473892
0.0008861473914
0.00088614739
0.0008861473788
0.0008861473694
0.0008861473745
0.0008861471236
0.0008861469869
0.0008861470586
0.0008861474622
0.0008861474699
0.0008861474199
0.0008861473687
0.0008861473732
0.0008861473849
0.0008861473983
0.0008861473899
0.0008861473888
0.0008861473815
0.0008861473926
0.0008861473976
0.0008861473991
0.0008861473994
0.000886147399
0.0008861473978
0.0008861473957
0.0008861473922
0.0008861473864
0.0008861473818
0.000886147383
0.0008861473845
0.000886147381
0.0008861473736
0.0008861473751
0.0008861473763
0.0008861472546
0.0008861468354
0.0008861467206
0.0008861474042
0.0008861475148
0.0008861474805
0.0008861473668
0.0008861473586
0.0008861473829
0.0008861474128
0.0008861473825
0.0008861473836
0.0008861473794
0.0008861473937
0.000886147398
0.0008861473991
0.0008861473989
0.0008861473978
0.0008861473956
0.000886147392
0.0008861473864
0.0008861473776
0.000886147371
0.0008861473727
0.0008861473738
0.0008861473713
0.0008861473718
0.0008861473766
0.0008861473771
0.0008861474953
0.0008861474714
0.000886147443
0.0008861474586
0.000886147444
0.0008861474046
0.0008861473388
0.0008861473314
0.0008861473639
0.0008861474195
0.0008861473704
0.0008861473787
0.0008861473805
0.0008861473941
0.0008861473979
0.0008861473987
0.0008861473979
0.0008861473958
0.0008861473921
0.0008861473861
0.0008861473772
0.000886147364
0.0008861473547
0.0008861473582
0.0008861473616
0.0008861473634
0.0008861473652
0.0008861473679
0.000886147379
0.0008861475196
0.0008861474691
0.0008861472656
0.0008861474426
0.0008861474785
0.0008861474895
0.0008861474704
0.0008861474386
0.000886147459
0.0008861474238
0.0008861474175
0.0008861473871
0.0008861473838
0.0008861473942
0.0008861473974
0.0008861473976
0.000886147396
0.0008861473925
0.0008861473866
0.0008861473774
0.0008861473644
0.0008861473482
0.00088614734
0.000886147346
0.0008861473514
0.0008861473518
0.000886147338
0.0008861473646
0.0008861473803
0.0008861474934
0.0008861474659
0.0008861474412
0.000886147465
0.0008861474615
0.0008861474869
0.0008861474787
0.0008861474621
0.0008861474698
0.0008861474227
0.0008861474324
0.0008861474128
0.000886147394
0.0008861473949
0.0008861473964
0.0008861473957
0.0008861473929
0.0008861473875
0.000886147379
0.0008861473675
0.0008861473549
0.0008861473442
0.0008861473405
0.0008861473428
0.0008861473432
0.0008861473368
0.0008861473106
0.0008861473557
0.0008861473808
0.0008861474342
0.0008861474328
0.0008861474395
0.0008861474594
0.0008861474677
0.0008861474571
0.0008861474316
0.0008861474243
0.0008861474222
0.000886147413
0.00088614742
0.0008861474241
0.0008861474226
0.0008861474144
0.000886147404
0.0008861473974
0.0008861473918
0.0008861473842
0.0008861473749
0.0008861473666
0.0008861473588
0.000886147351
0.0008861473449
0.0008861473399
0.0008861473319
0.0008861473159
0.0008861472827
0.0008861473436
0.0008861473811
0.0008861474013
0.0008861474004
0.0008861474186
0.0008861474422
0.0008861474601
0.0008861474596
0.0008861474489
0.0008861474492
0.000886147445
0.0008861474179
0.0008861474326
0.0008861474383
0.0008861474349
0.0008861474259
0.0008861474175
0.0008861474117
0.0008861474052
0.0008861473963
0.0008861473852
0.0008861473754
0.0008861473642
0.0008861473523
0.0008861473407
0.0008861473284
0.0008861473115
0.0008861472864
0.0008861472579
0.0008861473264
0.0008861473815
0.0008861474531
0.0008861473545
0.0008861473126
0.0008861474056
0.0008861474541
0.0008861474493
0.0008861474535
0.00088614747
0.0008861474741
0.0008861474277
0.0008861474478
0.0008861474529
0.0008861474472
0.000886147441
0.0008861474374
0.0008861474347
0.0008861474293
0.0008861474188
0.0008861473956
0.0008861473797
0.0008861473622
0.0008861473431
0.0008861473242
0.0008861473034
0.000886147278
0.0008861472475
0.0008861472368
0.0008861473071
0.0008861473819
0.0008861475092
0.0008861474103
0.0008861473197
0.0008861473879
0.0008861474419
0.0008861474259
0.0008861474408
0.0008861474737
0.0008861474831
0.0008861474393
0.0008861474616
0.0008861474647
0.0008861474589
0.0008861474553
0.0008861474533
0.0008861474497
0.0008861474426
0.0008861474286
0.0008861473979
0.0008861473803
0.0008861473539
0.0008861473197
0.0008861472845
0.000886147257
0.0008861472385
0.000886147232
0.000886147259
0.0008861473082
0.0008861473821
0.000886147545
0.0008861474775
0.0008861472994
0.0008861473655
0.0008861474177
0.0008861473897
0.0008861474166
0.0008861474668
0.0008861474823
0.0008861474531
0.0008861474741
0.0008861474741
0.0008861474682
0.0008861474645
0.0008861474609
0.000886147454
0.0008861474434
0.0008861474268
0.0008861473973
0.0008861473803
0.0008861473495
0.0008861472962
0.0008861473721
0.0008861473741
0.0008861473746
0.0008861473745
0.0008861473744
0.0008861473741
0.000886147383
0.0008861475549
0.0008861475095
0.0008861472625
0.0008861473237
0.0008861473747
0.0008861473449
0.0008861473881
0.0008861474569
0.0008861474798
0.0008861474689
0.000886147483
0.0008861474797
0.000886147473
0.0008861474674
0.0008861474504
0.0008861474427
0.0008861474347
0.0008861474195
0.0008861473952
0.0008861473797
0.0008861473545
0.0008861473737
0.0008861473751
0.0008861473758
0.0008861473759
0.0008861473761
0.0008861473765
0.000886147377
0.0008861473805
0.0008861475645
0.0008861475106
0.0008861472189
0.0008861472687
0.000886147316
0.0008861472935
0.000886147364
0.0008861474474
0.0008861474758
0.0008861474799
0.0008861474842
0.0008861474791
0.0008861474711
0.0008861474616
0.0008861474105
0.0008861473982
0.0008861474029
0.0008861474052
0.0008861473913
0.0008861473739
0.000886147374
0.0008861473753
0.0008861473729
0.0008861473746
0.0008861473752
0.0008861473753
0.0008861473756
0.000886147376
0.0008861473794
0.0008861475551
0.0008861475009
0.000886147185
0.0008861472175
0.0008861472579
0.0008861472584
0.0008861473642
0.0008861474398
0.0008861474693
0.0008861474783
0.0008861474783
0.0008861474717
0.0008861474604
0.000886147445
0.0008861474023
0.0008861473905
0.0008861473833
0.0008861473883
0.0008861473832
0.0008861473713
0.0008861473735
0.0008861473742
0.0008861473757
0.0008861473779
0.0008861473787
0.0008861473778
0.0008861473752
0.000886147376
0.0008861473788
0.0008861475311
0.0008861474883
0.000886147294
0.0008861473499
0.0008861473358
0.0008861473939
0.0008861473967
0.0008861474229
0.0008861474528
0.0008861474653
0.0008861474659
0.0008861474575
0.000886147442
0.0008861474215
0.0008861473955
0.0008861473874
0.0008861473757
0.0008861473732
0.0008861473686
0.0008861473729
0.0008861473748
0.0008861473761
0.0008861473787
0.0008861473803
0.0008861473807
0.0008861473795
0.000886147376
0.0008861473767
0.0008861473787
0.0008861474749
0.0008861474169
0.0008861473968
0.0008861473914
0.0008861473909
0.0008861473968
0.0008861474046
0.0008861474095
0.0008861474135
0.0008861474169
0.0008861474199
0.0008861474218
0.0008861474174
0.0008861474011
0.0008861473848
0.0008861473768
0.0008861473649
0.0008861473558
0.0008861473694
0.0008861473739
0.0008861473757
0.0008861473778
0.0008861473805
0.0008861473818
0.0008861473823
0.000886147382
0.0008861473789
0.0008861473783
0.0008861473794
0.000886147424
0.0008861474136
0.0008861474031
0.0008861473942
0.0008861473888
0.0008861473821
0.0008861473801
0.0008861473918
0.0008861474036
0.0008861474076
0.0008861474084
0.0008861474062
0.0008861474017
0.0008861473892
0.0008861473867
0.0008861473899
0.00088614739
0.0008861473795
0.0008861473722
0.0008861473746
0.0008861473769
0.0008861473795
0.0008861473818
0.0008861473828
0.0008861473836
0.0008861473841
0.0008861473839
0.000886147381
0.0008861473809
0.0008861165674
0.0008861060378
0.0008861097369
0.0008861052486
0.0008861006642
0.0008861464075
0.0008861467966
0.0008861471674
0.0008861473564
0.0008861473928
0.0008861474008
0.000886147398
0.0008861473962
0.0008861473898
0.0008861473936
0.0008861473973
0.0008861473972
0.0008861473921
0.0008861473743
0.0008861473751
0.0008861473778
0.0008861473806
0.0008861473826
0.0008861473837
0.0008861473844
0.0008861473852
0.0008861473858
0.0008861473852
0.0008861473833
0.0008861467262
0.0008861461805
0.0008861459947
0.0008861457902
0.0008861454797
0.0008861463225
0.00088614659
0.0008861468817
0.0008861472697
0.0008861473745
0.0008861473937
0.0008861473949
0.0008861473932
0.000886147391
0.0008861473982
0.0008861474002
0.0008861473998
0.0008861473962
0.0008861473754
0.0008861473746
0.0008861473778
0.0008861473812
0.0008861473831
0.0008861473846
0.0008861473854
0.0008861473861
0.0008861473868
0.0008861473871
0.0008861473861
0.0008861471448
0.0008861469783
0.0008861469226
0.0008861468541
0.0008861467466
0.0008861470506
0.0008861471375
0.000886147189
0.0008861472865
0.0008861473601
0.0008861473862
0.0008861473935
0.0008861473937
0.0008861473929
0.0008861473983
0.0008861474007
0.0008861474
0.0008861473947
0.0008861473686
0.0008861473716
0.0008861473767
0.0008861473793
0.0008861473825
0.0008861473854
0.000886147387
0.0008861473876
0.0008861473883
0.0008861473882
0.0008861473871
0.0008861472425
0.0008861471543
0.0008861471227
0.0008861470827
0.0008861470163
0.0008861471632
0.0008861472271
0.0008861472558
0.0008861472998
0.0008861473486
0.0008861473781
0.0008861473913
0.0008861473939
0.0008861473942
0.0008861473986
0.0008861474005
0.0008861473992
0.0008861473926
0.0008861473706
0.0008861473612
0.0008861473723
0.0008861473789
0.0008861473816
0.0008861473853
0.0008861473893
0.0008861473902
0.0008861473917
0.0008861473928
0.0008861473924
0.0008861473847
0.0008861473883
0.0008861473918
0.0008861473941
0.0008861473952
0.0008861474028
0.0008861474028
0.0008861474024
0.0008861474018
0.0008861474015
0.0008861474016
0.0008861474021
0.0008861474026
0.0008861474029
0.0008861474026
0.0008861474011
0.0008861473985
0.0008861473951
0.0008861473916
0.0008861473905
0.0008861473887
0.0008861473886
0.0008861473884
0.0008861473881
0.0008861473877
0.0008861473878
0.0008861473894
0.0008861473931
0.0008861473951
0.0008861474324
0.00088614746
0.0008861475622
0.0008861475415
0.0008861479653
0.0008861479025
0.0008861474534
0.0008861474306
0.0008861474133
0.0008861474119
0.0008861474161
0.000886147529
0.0008861474117
0.0008861474111
0.0008861474123
0.0008861474825
0.0008861474109
0.0008861474109
0.0008861474112
0.0008861474527
0.0008861476815
0.0008861475911
0.0008861656107
0.0008861653204
0.0008861474434
0.0008861474308
0.0008861474323
0.0008861474527
0.0008861474388
0.0008861474515
0.0008861474651
0.0008861474687
0.0008861475017
0.0008861474908
0.0008861475289
0.0008861475152
0.0008861475895
0.0008861475096
0.0008861475009
0.0008861474837
0.0008861474876
0.0008861474794
0.0008861474748
0.0008861474781
0.0008861474779
0.0008861474653
0.0008861474733
0.0008861474505
0.0008861474429
0.0008861474263
0.0008861474203
0.0008861474246
0.0008861474193
0.0008861474199
0.0008861474318
0.0008861474315
0.0008861474313
0.0008861474207
0.0008861474217
0.0008861474215
0.0008861474293
0.0008861474279
0.0008861479986
0.0008861474272
0.0008861474266
0.000886147426
0.0008861474228
0.0008861474229
0.0008861474296
0.000886147441
0.000886147471
0.0008861474189
0.0008861474192
0.0008861474148
0.000886147415
0.0008861474836
0.000886147566
0.0008861476061
0.000886147412
0.0008861474385
0.0008861475224
0.0008861476148
0.0008861474496
0.0008861474497
0.0008861474614
0.0008861474617
0.0008861474679
0.0008861474783
0.000886147469
0.0008861474974
0.0008861474911
0.0008861474677
0.0008861474713
0.0008861474727
0.0008861475177
0.0008861474868
0.0008861475405
0.0008861474874
0.0008861474989
0.0008861475008
0.0008861475673
0.0008861475073
0.0008861475635
0.000886147515
0.0008861475524
0.0008861475502
0.000886147558
0.0008861475481
0.0008861475565
0.000886147549
0.0008861474929
0.0008861475044
0.0008861475579
0.0008861475121
0.0008861474974
0.0008861474692
0.0008861474548
0.0008861474542
0.000886147462
0.0008861474329
0.0008861474366
0.0008861474479
0.0008861474446
0.0008861474473
0.0008861474582
0.0008861474537
0.0008861474438
0.0008861474624
0.0008861474726
0.0008861474178
0.0008861474188
0.0008861474157
0.0008861474189
0.0008861474152
0.0008861474169
0.0008861475923
0.000886147456
0.0008861475532
0.0008861476685
0.0008861474435
0.0008861474312
0.0008861474364
0.0008861474864
0.0008861474481
0.0008861474671
0.0008861474903
0.0008861474779
0.0008861474703
0.0008861474772
0.0008861474671
0.0008861474597
0.0008861474641
0.0008861474538
0.0008861474525
0.0008861474656
0.0008861474549
0.000886147455
0.000886147438
0.0008861474469
0.0008861474305
0.00088614742
0.0008861474224
0.0008861474201
0.0008861474143
0.0008861474148
0.0008861475218
0.0008861474147
0.000886147491
0.0008861475796
0.0008861474313
0.0008861474282
0.0008861474282
0.0008861474468
0.00088614743
0.000886147434
0.0008861474536
0.0008861474391
0.0008861474407
0.0008861474459
0.0008861474395
0.000886147436
0.0008861474423
0.0008861474339
0.0008861474344
0.0008861474418
0.0008861474361
0.000886147431
0.0008861474251
0.0008861474262
0.0008861474227
0.0008861474204
0.0008861474213
0.0008861474217
0.0008861474123
0.0008861474126
0.0008861474118
0.0008861474117
0.0008861474115
0.0008861474114
0.0008861474603
0.0008861474275
0.0008861474225
0.0008861474235
0.0008861474314
0.0008861474242
0.0008861474257
0.0008861474291
0.0008861474254
0.0008861474243
0.0008861474278
0.0008861474227
0.0008861474235
0.0008861474258
0.0008861474255
0.00088614743
0.0008861474225
0.0008861474262
0.0008861474299
0.0008861474112
0.0008861474109
0.000886147411
0.0008861474109
0.0008861474109
0.0008861474374
0.0008861474115
0.0008861474225
0.0008861474143
0.0008861474183
0.0008861474221
0.0008861474221
0.0008861474235
0.0008861474257
0.0008861474329
0.0008861474593
0.0008861474852
0.0008861475089
0.0008861476017
0.000886147411
0.0008861474312
0.0008861474387
0.000886147442
0.0008861474403
0.0008861474295
0.0008861474402
0.000886147594
0.0008861474393
0.0008861482235
0.0008861474451
0.0008861474425
0.0008861474561
0.0008861474656
0.00088614746
0.0008861474599
0.0008861474825
0.0008861474727
0.0008861474838
0.000886147507
0.0008861475308
0.0008861475176
0.0008861475167
0.0008861475581
0.0008861475506
0.0008861475596
0.0008861474783
0.0008861474681
0.000886147474
0.0008861474712
0.000886147448
0.0008861474451
0.000886147454
0.0008861474433
0.0008861474239
0.000886147441
0.000886147462
0.0008861474312
0.0008861474246
0.000886147417
0.0008861474753
0.0008861474343
0.0008861474585
0.0008861475061
0.000886147486
0.0008861474681
0.0008861474652
0.0008861474595
0.0008861474236
0.0008861474202
0.0008861474168
0.0008861474159
0.0008861474139
0.0008861474129
0.0008861474389
0.000886147425
0.0008861476227
0.0008861474292
0.0008861474373
0.0008861474553
0.0008861474515
0.0008861474423
0.000886147445
0.0008861474333
0.0008861474214
0.0008861474273
0.0008861474265
0.0008861474261
0.0008861474295
0.0008861474308
0.0008861474275
0.0008861474287
0.0008861474236
0.0008861474236
0.0008861474385
0.0008861479874
0.0008861479594
0.000886147884
0.0008861716774
0.0008861713763
0.000886174172
0.0008861474184
0.0008861474192
0.0008861474225
0.0008861474218
0.0008861474376
0.0008861474562
0.0008861475121
0.0008861478178
0.0008861477876
0.0008861690921
0.0008861474119
0.0008861474109
0.0008861474109
0.0008861474122
0.0008861474117
0.0008861474456
0.0008861474304
0.0008861474126
0.000886147411
0.0008861474117
0.0008861570497
0.0008861603161
0.0008861474788
0.0008861474528
0.0008861474281
0.0008861606683
0.0008861625547
0.0008861475633
0.0008861475425
0.0008861474811
0.0008861615856
0.0008861641874
0.0008861474388
0.0008861474401
0.0008861474397
0.0008861474389
0.0008861474516
0.0008861474214
0.0008861474405
0.0008861474308
0.0008861474404
0.0008861474414
0.0008861474197
0.0008861474216
0.0008861474398
0.0008861478532
0.0008861474425
0.0008861474437
0.0008861475036
0.0008861476542
0.0008861474451
0.0008861478435
0.0008861474585
0.0008861474295
0.00088614743
0.00088614744
0.0008861474327
0.0008861475003
0.0008861474291
0.0008861474674
0.0008861475595
0.0008861477434
0.0008861477744
0.0008861477809
0.0008861477324
0.0008861474426
0.0008861474332
0.0008861474263
0.0008861474133
0.0008861474131
0.0008861480003
0.0008861479504
0.0008861479284
0.0008861478585
0.0008861478524
0.0008861479118
0.0008861474719
0.0008861474399
0.0008861474511
0.000886147438
0.0008861474141
0.0008861474488
0.0008861475063
0.0008861474112
0.0008861478971
0.0008861478972
0.0008861478351
0.000886147849
0.0008861477903
0.0008861708411
0.0008861711989
0.0008861731631
0.0008861708483
0.00088614793
0.0008861478267
0.0008861732339
0.0008861725991
0.0008861474304
0.0008861474663
0.0008861474109
0.0008861474111
0.0008861474111
0.0008861474115
0.0008861474247
0.0008861474113
0.0008861474219
0.0008861476253
0.0008861477287
0.0008861476726
0.0008861475525
0.0008861477143
0.0008861476344
0.0008861476634
0.0008861475912
0.0008861675814
0.0008861678067
0.0008861683013
0.0008861676088
0.0008861477581
0.0008861477312
0.0008861689824
0.0008861474116
0.0008861474113
0.0008861474129
0.0008861474133
0.0008861474141
0.0008861474161
0.0008861474156
0.0008861474121
0.0008861474113
0.0008861474198
0.0008861474115
0.0008861474245
0.000886147419
0.0008861474121
0.0008861474155
0.0008861474112
0.00088615954
0.0008861626816
0.0008861631535
0.0008861628427
0.0008861474369
0.000886147494
0.0008861474659
0.0008861474178
0.0008861474507
0.0008861474339
0.0008861619379
0.000886160291
0.0008861626346
0.0008861632439
0.0008861475024
0.0008861475864
0.0008861475422
0.0008861474579
0.0008861475155
0.0008861474865
0.00088616389
0.0008861641808
0.0008861650886
0.0008861657122
0.0008861652577
)
;

boundaryField
{
    walls
    {
        type            zeroGradient;
    }
    wallFilmFace_top
    {
        type            zeroGradient;
    }
    region0_to_wallFilmRegion_wallFilmFace
    {
        type            zeroGradient;
    }
    mirrorFace_top
    {
        type            zeroGradient;
    }
    region0_to_wallFilmRegion_mirrorFace
    {
        type            zeroGradient;
    }
    procBoundary2to0
    {
        type            processor;
        value           nonuniform List<scalar> 
26
(
0.0008861475291
0.0008861475218
0.0008861475002
0.0008861474758
0.0008861474569
0.0008861474039
0.0008861473819
0.0008861473699
0.000886147369
0.0008861473789
0.0008861473848
0.0008861473812
0.0008861473704
0.0008861473527
0.0008861473328
0.0008861473218
0.0008861473259
0.0008861473448
0.0008861473671
0.0008861473809
0.0008861473842
0.0008861473839
0.0008861473818
0.000886147378
0.0008861473727
0.0008861473844
)
;
    }
    procBoundary2to1
    {
        type            processor;
        value           nonuniform List<scalar> 
33
(
0.0008861475308
0.0008861475308
0.0008861475318
0.0008861475318
0.000886147516
0.0008861474601
0.0008861474551
0.0008861474551
0.0008861474673
0.0008861474739
0.0008861474844
0.0008861474764
0.0008861473717
0.0008861473963
0.0008861474932
0.0008861475192
0.0008861474938
0.0008861474487
0.0008861475002
0.0008861475119
0.0008861475145
0.0008861475253
0.0008861474861
0.0008861475396
0.000886147544
0.0008861475278
0.0008861474852
0.0008861474544
0.0008861474566
0.0008861474512
0.0008861474379
0.0008861474188
0.0008861473884
)
;
    }
    procBoundary2to3
    {
        type            processor;
        value           nonuniform List<scalar> 
64
(
0.0008861474437
0.0008861475094
0.0008861474368
0.0008861474239
0.0008861474237
0.0008861476176
0.0008861475462
0.0008861474968
0.0008861647373
0.000886147472
0.0008861475531
0.000886147484
0.0008861475635
0.0008861475531
0.0008861475747
0.0008861475731
0.0008861475707
0.0008861475675
0.0008861475609
0.0008861474785
0.0008861474496
0.0008861474294
0.0008861474303
0.0008861474553
0.0008861474553
0.00088614747
0.0008861474673
0.0008861474673
0.0008861474774
0.0008861474673
0.000886147732
0.0008861477999
0.000886147732
0.0008861477369
0.0008861476843
0.0008861474387
0.0008861488028
0.000886147472
0.0008861474653
0.000886147732
0.0008861750191
0.0008861474847
0.0008861474597
0.0008861610221
0.0008861632906
0.0008861644463
0.0008861474468
0.0008861480974
0.000886147427
0.00088614745
0.0008861475094
0.0008861474294
0.000886147421
0.0008861474285
0.0008861475828
0.0008861738226
0.0008861706201
0.0008861475197
0.0008861676726
0.0008861676423
0.000886147442
0.0008861633291
0.0008861638772
0.0008861653928
)
;
    }
}


// ************************************************************************* //
