/*--------------------------------*- C++ -*----------------------------------*\
  =========                 |
  \\      /  F ield         | OpenFOAM: The Open Source CFD Toolbox
   \\    /   O peration     | Website:  https://openfoam.org
    \\  /    A nd           | Version:  8
     \\/     M anipulation  |
\*---------------------------------------------------------------------------*/
FoamFile
{
    version     2.0;
    format      ascii;
    class       surfaceScalarField;
    location    "1.4/wallFilmRegion";
    object      phi;
}
// * * * * * * * * * * * * * * * * * * * * * * * * * * * * * * * * * * * * * //

dimensions      [1 0 -1 0 0 0 0];

internalField   nonuniform List<scalar> 
2598
(
-0.0002284548984
0.0003462097854
0.001135068879
0.00263551248
0.0007416854646
0.0008960381429
0.001949408325
-0.002940452091
0.000512049534
-0.0001856445347
-0.0001224145493
-3.218546703e-05
-2.200754762e-06
0.0001531061956
-8.281443066e-07
4.469348849e-08
3.503560488e-05
-6.687873505e-05
0.0001060784884
-0.0001592184124
0.0003357541958
-0.0006059223053
0.000481837086
-0.0008777526455
0.0003882777832
-0.0005599518422
0.0002479965161
-0.000164643363
0.00018267348
5.344380241e-06
0.0001948681545
4.070208266e-05
0.0002929804383
6.099891453e-05
0.0005335350194
7.553743867e-05
0.000966286478
5.037215133e-05
0.001651925378
-0.0003341743335
0.00214340568
-0.0006232256048
0.002437598941
-0.0006995515843
0.002532446646
-0.0006264180141
0.002423467167
-0.0005526683754
0.00203122107
-0.0004291380131
0.005797139515
0.0004585264407
0.0002353540684
0.0006007481332
-0.0005823410595
0.0007036948318
0.001683179565
0.0002979924891
0.001181453218
-1.368198644e-05
-0.001032997782
-1.639775166e-05
-4.230278389e-05
-0.0002797540853
-2.728514683e-05
-1.429399181e-06
5.401837927e-05
8.266564823e-06
5.117175257e-06
2.869092801e-05
-4.152608712e-05
8.417851576e-05
-0.0001067061966
0.0003585113209
-0.0005457728075
0.0006392845388
-0.001002733694
0.0005900433532
-0.0008152597275
0.0003913442739
-0.0002792764412
0.0003088739858
2.361574651e-05
0.0004121541265
0.0001065233146
0.0007185146999
0.0001754430659
0.001067451565
0.0001415106354
0.001141416503
4.899434309e-06
0.001012508673
-0.0001957047824
0.0009686981469
-0.0003796200184
0.000969367517
-0.0004512839346
0.0009532510801
-0.0004259598427
0.0008892149922
-0.0003982327927
0.0007624753435
-0.0003385762301
0.006153377783
-0.0009166211501
-0.0003423796367
-0.0005905088559
-0.0009369960372
0.0008708478371
-0.002011918805
0.001056098888
0.0007121765075
0.0006174931291
0.001014955729
-7.365182799e-05
-0.0005402634682
-9.365505382e-05
1.675452676e-05
-0.0001430222245
1.243422854e-05
-4.9039876e-06
-4.135347066e-06
5.650301315e-06
6.932036557e-06
2.052319728e-05
-2.375113854e-05
6.538402463e-05
-6.785927682e-05
0.0003416396298
-0.0004135012716
0.0007566931744
-0.0009131472138
0.0008686449606
-0.001007921709
0.0006641384199
-0.0004676501708
0.0005374541525
4.869522337e-05
0.0006585972504
0.0001972677375
0.0008316596197
0.000238007941
0.0007835287573
0.0001319120749
0.0005687932175
2.427709754e-05
0.0005243348425
-9.993433615e-05
0.0006197986097
-0.0002229378644
0.0006989436984
-0.0002799512363
0.0007209676979
-0.0002704178092
0.0006800595046
-0.0002490391906
0.0005980265227
-0.0002234311192
0.003652998474
-0.001784072302
0.0008990753521
-0.00085741574
-3.877458591e-05
-0.0003212632307
-0.001158217225
0.001404368401
-0.001004578661
0.001549378585
-0.000402408886
-3.996519025e-05
-0.00014357065
-4.387938415e-05
3.174434948e-05
-2.151160844e-05
2.142877588e-05
-4.773528841e-06
1.697314689e-05
1.109639799e-06
5.773409521e-06
1.351337019e-05
-1.350723643e-05
4.893562538e-05
-3.932465699e-05
0.0002687431227
-0.0002673083062
0.000700107143
-0.0006274164092
0.001100903372
-0.0009365879523
0.001097408663
-0.0007053725456
0.0008722992336
1.779869612e-05
0.0007814377288
0.0002227845503
0.00067211171
0.000200920385
0.0004542482652
0.0001063407209
0.0002589155832
3.525147067e-05
0.0003387362118
-1.197190919e-05
0.0005546787851
-4.925754269e-05
0.0007166665651
-6.382510344e-05
0.0007668974727
-6.237878797e-05
0.0007426846255
-5.144063072e-05
0.0006470288498
-4.510819828e-05
0.001185692717
-0.0004058784661
0.0008451629011
-0.0002061858012
-3.477860549e-05
-0.0006323108342
-0.0004752941933
-0.0004613498072
-0.001137777051
-0.0001527968467
-0.0003408070732
-6.540054778e-05
-6.610789633e-05
-3.345545808e-05
3.049179963e-05
-1.705342186e-05
1.914617275e-05
-3.062099566e-06
1.43635057e-05
3.341011316e-07
4.355342403e-06
9.375188396e-06
-6.268943861e-06
3.507026689e-05
-1.785149128e-05
0.0001913585949
-0.0001533158992
0.0005067293009
-0.0003318418729
0.001037799125
-0.0005261446796
0.001561457913
-0.0005940430462
0.001584587606
-0.0003597795671
0.001163239543
-6.016066616e-05
0.0007159394842
6.383162544e-05
0.0003722217319
6.091483905e-05
0.0001663783535
3.402170364e-05
0.0004714670813
0.0001415079429
0.001001089074
0.0002869290811
0.001399392663
0.0003613111364
0.001587075539
0.0003564408329
0.0016230398
0.0003212738511
0.001655615947
0.0003525564762
0.001530284308
-0.0005737674271
-0.0002309166536
-4.326815806e-06
-4.630574036e-05
3.578802571e-05
-1.504946839e-05
-0.0001804434219
-0.0003068577332
-0.0003696232269
-0.0007453860898
-0.0001849801411
-0.0002530583673
-7.221459629e-05
1.288610499e-06
-2.959461374e-05
3.545656874e-05
-1.385140848e-05
1.796878671e-05
-2.781745764e-06
1.045407734e-05
2.887160619e-07
2.93313174e-06
6.238790732e-06
-1.251172036e-06
2.236092409e-05
-2.986669195e-06
0.0001366128021
-7.368071481e-05
0.0003229841047
-0.0001408403073
0.0006453683214
-0.0001911766166
0.001123997511
-0.0002156378305
0.001410557896
-0.0002018564861
0.001220612902
-0.0001573472822
0.0007697631395
-8.451845663e-05
0.0003963736319
-1.655828391e-05
0.0001933244344
1.981908802e-05
0.0004757743287
0.0001949940103
0.0009366567784
0.0004437862448
0.001268846404
0.0005680167059
0.001413897145
0.0005533328238
0.001452635913
0.0004992644956
0.001423112366
0.000534597682
0.001744174654
-0.0001230887468
-5.448393503e-05
-6.09471246e-06
-2.092365773e-05
-1.231187636e-05
-2.123165331e-05
-0.0004267129422
-0.0002130309845
-0.0005634607864
-0.0003705750258
-0.0003776931635
-0.0001245846317
-0.0001495722663
6.454617736e-05
-7.381480642e-05
5.186384378e-05
-3.797664863e-05
2.843167964e-05
-1.221438233e-05
1.613789108e-05
-1.685744747e-07
5.880060737e-06
8.745002112e-06
4.221783792e-06
3.149798655e-05
1.374668791e-05
0.0001045922366
-6.442402174e-07
0.0002006852817
-1.283360647e-05
0.0003170441961
-1.935233221e-05
0.0004622327547
-1.984473144e-05
0.0005997356072
-1.350078727e-05
0.0006906554763
2.84164074e-06
0.0007247198118
3.086220673e-05
0.00070310769
5.768145197e-05
0.0006380380022
8.623114585e-05
0.0007972009483
0.0003060692711
0.001047835962
0.0005983890858
0.001189495336
0.0007306341019
0.001207266761
0.000687771663
0.001216232783
0.0006490226395
0.001135682443
0.0006192928312
0.001609271116
-1.130520619e-05
-1.549966045e-05
-3.047766507e-06
-1.317044289e-05
-3.786049323e-05
-1.59319557e-05
-0.0003563269147
-0.0001143987645
-0.0006212446034
-0.0002183811766
-0.0007355027368
-1.189517719e-05
-0.0005633733235
0.000187036665
-0.0005459978812
0.0001993327345
-0.0005112389815
0.0001847003665
-0.0004152425041
0.0001747593733
-0.0002698236381
0.0001496561189
-0.0001143238951
0.0001092534096
5.273929522e-06
5.938760811e-05
9.356624547e-05
6.039147695e-05
0.0002113004455
0.0001084587382
0.0003301569168
0.000138186077
0.0004578994756
0.00015910458
0.0006151350392
0.0001833615553
0.000818252538
0.0002142036759
0.001049620905
0.0002488597804
0.001238962993
0.0002746699077
0.001353287489
0.0003022807474
0.001482301699
0.0005030105736
0.001470939433
0.0008179056113
0.001315422366
0.0009211576072
0.00114901774
0.0008221154642
0.001080821605
0.0007560329825
0.001191081037
0.0006050236837
0.002158618188
-2.506815528e-06
-1.03630541e-05
-4.045360985e-07
-8.840565833e-06
-2.472531915e-05
-6.33752338e-06
-0.0002575489782
-2.020476692e-05
-0.0003518488978
-0.0002779813507
-0.0005810107609
4.387242856e-05
-0.0005739239423
0.0002483992345
-0.0005874766788
0.0002629226964
-0.0005915788731
0.0002090979487
-0.0004502167752
2.201205008e-05
-0.0002941959912
0.0002157761335
-0.0001226380675
0.0001600841646
2.090594505e-07
8.105683571e-05
0.0001263737394
0.0001261571515
0.0002995681246
0.0002421299134
0.0004694901558
0.0003099400475
0.0006370367358
0.0003462336137
0.0008245029312
0.0003731628737
0.001037005571
0.0003997249379
0.001244969201
0.0004217915162
0.001387219307
0.0004249615264
0.001454266442
0.0004230803
0.001536686491
0.000574774106
0.00149866572
0.0008999999
0.001298895818
0.00102436909
0.00114041235
0.0009243047243
0.001207783639
0.0008266679939
0.001715188719
0.0005935237998
0.002719928199
-8.926316379e-07
-7.994486924e-06
-4.870580877e-07
-3.927681052e-06
1.236266442e-06
-1.387040406e-06
7.17726564e-06
-1.193998662e-06
-0.0001290774806
-9.789176595e-05
-0.0003806776652
5.117577095e-05
-0.0004090143673
0.0002532832955
-0.0004639266939
0.0002359987068
-0.0006088725999
4.657165029e-05
-0.0002347057542
-0.002120100383
-0.0002147167442
0.0002306157302
-9.191920406e-05
0.0001829476754
6.377299819e-06
0.0001029590525
0.0001526278437
0.0002130352254
0.000349401627
0.0003898380463
0.0005361924606
0.0004887642404
0.0007088170217
0.0005332320375
0.00087879437
0.0005492833985
0.001038593205
0.0005494797947
0.001163651198
0.0005344256957
0.001216863584
0.0004973425211
0.001192596498
0.0004517199186
0.001204054167
0.0005610617473
0.001238561826
0.0008650576214
0.001202797466
0.001026865765
0.001235806359
0.0009638336114
0.001529359024
0.0007773533941
0.001970208648
0.0003475331885
0.003186827852
8.10424219e-07
3.290951828e-06
-8.273066054e-07
9.426956787e-07
1.104677402e-06
9.312014761e-08
1.443452856e-05
1.973391416e-06
0.0001086526471
-9.373352314e-05
-0.000179974895
3.199010057e-05
-0.000244127227
0.0002602650351
-0.0002563507578
0.0001986383217
-0.0003305834432
-3.911186919e-05
-7.29191709e-05
-0.004734224675
-0.0001300301504
0.0002377006016
-5.904276046e-05
0.0001965090238
2.442546965e-05
0.0001469450364
0.0001859028958
0.0003365504264
0.000396342139
0.0005670395779
0.0005880275764
0.0006916421003
0.0007517396594
0.0007306852781
0.0008832810229
0.0007146296067
0.0009782174956
0.000669385797
0.001020195904
0.0006025876978
0.0009874254418
0.0005138787493
0.0008819948011
0.0004174312507
0.0008653315675
0.000478701204
0.0009892191183
0.0007459746067
0.001162033585
0.0009177372636
0.001450821634
0.0008440288275
0.001886374844
0.0004971713146
0.001967777238
-1.096199835e-05
0.004230145608
5.397863203e-05
0.0001361831209
1.09910346e-05
6.170816353e-05
2.422259037e-05
-3.350941778e-07
6.83556649e-06
2.306936956e-05
-0.000250377024
1.845406521e-05
-0.0002712862431
6.144647065e-05
-0.0002339124844
0.0001484596514
-0.0001456204977
0.0001468312778
-4.451228559e-05
1.450532632e-05
-2.99336382e-05
-0.004393148665
-6.918616291e-05
3.868367029e-05
-2.286415516e-05
0.0001844025713
5.544269427e-05
0.0002296723393
0.0002341904855
0.0005082188313
0.0004565427764
0.0007920340193
0.0006453610004
0.000932535017
0.0007839049305
0.0009367184758
0.000865908636
0.0008614274971
0.0008950841208
0.0007521289368
0.0008616430911
0.0006220175025
0.000758204187
0.0004790509074
0.0006084555693
0.0003438113217
0.0005929039716
0.0003579516136
0.0007794756315
0.0005518666158
0.001041526165
0.0006679738773
0.001209551021
0.000518597543
0.001034439736
0.0001586037047
0.0006375582242
-1.937298926e-05
0.006339839093
-4.046562871e-06
0.0004527152142
-7.082621784e-06
0.0001211009259
-1.070596482e-06
4.238181513e-06
1.646855604e-05
2.264498935e-05
7.201559964e-05
4.162183108e-05
0.0003109001189
0.0002710062026
0.0002615923694
0.0001628913557
0.0001935030596
0.0001213786763
0.0005415953047
0.0003834673676
0.0008441089078
-0.002453973106
0.0002175998947
-0.001207890441
4.129520848e-05
0.0002486327281
0.0001080659338
0.000374855429
0.0003074131333
0.0007505152333
0.0005365763424
0.00108454565
0.0007055309217
0.00120533563
0.000798031279
0.001123470229
0.0008230104663
0.0009640322345
0.0007878157858
0.0007777023691
0.0006909259742
0.0005844991648
0.0005467237056
0.0004086909271
0.0004084197885
0.0002744636024
0.0004078721195
0.0002627537819
0.0005549376236
0.0003516591382
0.0006622173922
0.0003548933671
0.0005545127623
0.0002187437763
5.582935738e-05
0.0001106510667
-0.0001630211216
7.147384421e-05
0.008224186361
-0.0001607166898
0.0003153238899
-5.018568255e-05
0.0001725422528
-2.351714044e-05
5.239466602e-05
1.081974889e-05
8.148524116e-05
2.634216786e-05
6.235195582e-05
0.0001613004062
0.0003984289491
0.0001337894005
0.0002515339403
8.922704503e-05
0.0001318743821
0.0003146529846
0.0003271945943
0.0008146134749
-0.0002834041227
0.0005478911639
-0.000122496066
0.0002482525383
0.0005998762243
0.000278180414
0.0007172744028
0.0004899031005
0.001113089467
0.0006765098861
0.001455851835
0.0007795335253
0.001485052341
0.0008039092855
0.001272389008
0.0007601395825
0.0009987328463
0.0006561372622
0.000735232412
0.0005173147536
0.0005160997725
0.0003843693719
0.0003587687586
0.000302155215
0.0002584814185
0.0003100830825
0.0002330553334
0.0003615129841
0.0002360094008
0.000343508701
0.0001880488866
0.0002481733156
0.0001107498592
3.104569813e-05
0.0001043221978
-0.0001591483437
0.0001303207161
0.009259798568
-0.0007298354478
8.40109507e-05
-0.0004097990477
0.0001659327202
-0.0002008330643
0.00012502386
-0.0001161735053
0.0001873912927
-0.001045412285
0.0002898192262
-0.002424211911
0.0006456852282
-0.002825568608
0.001027881097
-0.001993565776
0.001043008089
-0.0002687592366
0.001017090633
0.00127539309
0.00144240077
0.003533695017
0.002084181527
0.005373592845
0.002984104514
0.004368744985
0.003487661932
0.002200227767
0.003124288395
0.001227089342
0.002408025191
0.0009658890854
0.001840735892
0.0008245280035
0.001353739626
0.0006722685795
0.0009403288453
0.0005087943022
0.0006871556503
0.0003894424068
0.0005227348801
0.0003016179545
0.0003844956212
0.0002528947937
0.0002798709105
0.0002405820853
0.000219803018
0.0002281590199
0.0001733607825
0.0001896273758
0.0001219064771
0.0001428490516
7.946496376e-05
2.892316911e-05
0.0001139598934
-0.0001234868968
0.0001506879971
0.009662356768
-0.0001350008258
4.550977856e-05
-0.0002042422707
3.692426656e-05
-0.0001683969749
-9.44594842e-06
-2.805033963e-05
5.79490922e-05
7.172186949e-05
0.0003523936486
-0.000585987892
0.0003241940766
-0.00143277209
0.0004605396931
-0.001336604148
0.0007237604732
-0.0001968093604
0.0008489422807
0.001772682692
0.003749124164
0.003742009531
0.004027272415
0.004884802841
0.004402485085
0.003829780926
0.004462966744
0.002248615756
0.003752223439
0.00150849107
0.002847864761
0.001149348354
0.002020587912
0.0008425740918
0.001300876241
0.0005689511799
0.0008430188435
0.0004524844044
0.0008309348877
0.0003449141685
0.0007183248005
0.000242329838
0.0004252378916
0.000187998413
0.0002564938818
0.0001613958819
0.0001740567704
0.000140937849
0.0001249989522
0.0001194766931
9.039074053e-05
9.930940062e-05
6.641123789e-05
2.574549223e-05
0.0001188819143
-9.863587375e-05
0.0001478917218
0.009944398276
-1.616872078e-05
7.618609129e-05
-1.398140775e-05
2.542781668e-05
-3.617036779e-05
9.121637295e-06
-1.371941969e-05
3.344626759e-05
0.0001440074363
0.0002404095645
-1.459765263e-05
0.0001715640084
-0.0001133932346
0.0001289339155
-0.0001078074785
0.0002883144656
0.0002908823817
0.000466324859
0.00208528132
0.006294835749
0.002977414479
0.004912959956
0.003234112084
0.004334655425
0.00262303609
0.004036033599
0.001998452731
0.003336263464
0.001643317866
0.002549175639
0.001303819074
0.001797024569
0.0009096678854
0.001152530172
0.0005661446321
0.0008635288946
0.0005031698026
0.001282961941
0.0002958173538
0.0009514326579
0.000161726962
0.000367645856
0.0001163050032
0.0001809361903
0.0001019593462
0.0001169064206
9.521785227e-05
8.349271685e-05
8.705447091e-05
6.586676125e-05
7.719304669e-05
5.594098166e-05
2.068553142e-05
0.0001166080433
-9.397717083e-05
0.0001451395577
0.01039703117
-2.521327572e-05
0.0001900850465
-2.28307131e-05
4.394573526e-05
-3.857491924e-05
2.612263739e-05
-3.126815388e-05
3.253577343e-05
2.223085645e-05
0.0001658811091
1.763101356e-05
8.827891206e-05
2.386172348e-05
6.351365317e-05
9.683607637e-05
0.0001585674155
0.0003153269209
0.0002989988056
0.0020605562
0.007008337944
0.00199786159
0.003853063671
0.002033502202
0.003025206941
0.001934796698
0.002880224041
0.001712089205
0.002322557467
0.001462406202
0.001681095325
0.001187325787
0.001211960157
0.0008876601649
0.0008925514945
0.0006118845716
0.0009170322178
0.0005912733636
0.001804415794
0.0002488179522
0.001097505728
9.795135065e-05
0.0002748358979
7.357142022e-05
9.911972198e-05
8.904868934e-05
4.169226262e-05
0.000101620385
3.345518855e-05
0.0001134249569
3.28380655e-05
0.0001259042584
4.020272231e-05
9.392985809e-05
9.726442035e-05
7.881568973e-05
0.0001373962177
0.01079792783
-4.877763158e-05
0.0003228217395
-2.708373551e-05
7.642543681e-05
-3.522478044e-05
3.497945455e-05
-4.02822661e-05
3.718884584e-05
-7.907268171e-06
9.110885959e-05
5.456653945e-06
5.343722989e-05
1.834055826e-05
4.667311907e-05
7.892568911e-05
0.0001216075066
0.0002377739358
0.0002482285712
0.001614269831
0.004766478818
0.001237586627
0.001993629915
0.001287173462
0.001606060431
0.001315254305
0.001571082887
0.00113931514
0.001193929819
0.0009644239055
0.0007080988567
0.0007949026321
0.0005964668072
0.0006813757002
0.0005910680945
0.0006018290778
0.0008911231391
0.0006720763248
0.002108745437
0.0002563759489
0.001235276324
8.710049107e-05
0.0002331169633
4.358641477e-05
4.898957008e-05
0.0008841574997
-0.004326700078
0.002172649799
-0.00454895791
0.003128283044
-0.003920046076
0.003100174301
-0.002580488068
0.002321054972
-0.002350853951
0.001599658348
1.791191187e-05
0.01254488586
-5.346900016e-05
0.0003529754394
-2.699598224e-05
0.0001066451302
-2.865750425e-05
3.645306434e-05
-2.927596258e-05
3.542107006e-05
-1.030508063e-05
5.544491735e-05
2.002219516e-06
3.776106181e-05
1.374775655e-05
4.159559174e-05
6.264904315e-05
0.0001078971814
0.0001988141687
0.0002290083874
0.0009243703768
0.001807439637
0.0006946888751
0.0008266697158
0.0006932938522
0.0007416936702
0.0006678634636
0.0006829174203
0.0005694206398
0.0004942393917
0.0006981396951
-0.0001423830032
0.0006996320513
-0.0001693265738
0.0005949422031
0.0002414625006
0.0006032264414
0.0007732324139
0.0007712296249
0.00208252172
0.0003644091233
0.001315051761
7.547994466e-05
0.0001854019075
-0.001049107252
-0.004279294135
0.001351477466
-0.00509691503
0.004085425184
-0.003795806559
0.005927381982
-0.001649792752
0.007004743444
0.0004060239706
0.006795620486
0.001154310632
0.00716669383
0.001791007009
0.02265897082
-7.6728575e-05
0.000230439789
-2.534337899e-05
0.0001197231222
-2.247942602e-05
3.377601867e-05
-1.941622088e-05
3.056339118e-05
-8.527386494e-06
3.949340051e-05
1.1874621e-06
2.910899626e-05
1.171284876e-05
4.108195429e-05
5.368606489e-05
0.0001074719573
0.0001646146417
0.000223078964
0.0004038460978
0.0005724027243
0.0003538734845
0.0004125866436
0.0003412733329
0.0003754393949
0.0003066198868
0.0003158819338
0.0002812479289
0.0002267963928
0.0005576576892
-0.0002497398972
0.0009313444947
-0.0005661827591
0.000860110128
-0.0003162820674
0.0007190622608
0.0005759871788
0.0007231762241
0.00186292434
6.865296076e-05
0.001153408691
-0.004012991715
-0.002540605847
-0.002389734642
-0.002914864374
2.526602312e-05
-0.00351180356
0.002480226356
-0.003439427266
0.004063003178
-0.001415859101
0.003620999809
1.264366902e-05
-0.0007235905566
0.003955159899
0.0003652196486
0.001616310448
0.02532847667
-6.458395577e-05
0.0001748589752
-1.771628384e-05
0.000108550219
-1.468097962e-05
3.325123545e-05
-1.509427968e-05
3.214278256e-05
-1.249925191e-05
3.572332049e-05
1.298794032e-06
1.723904167e-05
1.83843188e-05
3.461895416e-05
6.022537749e-05
9.548013138e-05
0.0001376781876
0.0002049338551
0.0002128581571
0.0003129314232
0.0002070462585
0.0002867359064
0.0001880879555
0.0002395044897
0.0001644289584
0.0001912310655
0.0001462420379
0.0001462616205
0.0002536320764
-0.0001325174416
0.0004741599056
-0.0002886019208
0.0007260512119
-0.0002913424942
0.0007495153075
0.0002498663494
0.0002936667691
0.00176983112
-0.005697248872
1.809215437e-06
-0.005427234673
-0.002025612585
-0.004423523267
-0.003439219477
-0.003713616657
-0.003871893751
-0.002527137644
-0.004309171317
-0.001338172258
-0.003263714703
-0.0004005534238
-0.001378200516
-0.001326481749
0.00372201304
-0.001513457058
0.001744296758
0.02461282426
-6.270968792e-05
0.0001411736271
-1.701884943e-05
9.138044107e-05
3.70453312e-06
5.290270202e-05
-2.832538947e-05
0.0001719637327
7.057635631e-06
0.0001253323955
0.0008490023881
-0.00127711001
0.0003925589042
-0.0008413757771
0.0002026744659
0.0001221997716
0.0002087395
0.0002215547714
0.0002108758854
0.0002589210629
0.0001785245891
0.0002280810169
0.0001462972305
0.0001877419855
0.0001250806347
0.0001525978501
0.000113526105
0.0001311311139
0.0001468478903
-3.621784371e-05
0.0001907330853
-8.871346697e-05
0.0003083963937
-8.670310541e-05
0.0004791371238
0.0001164378629
5.011212164e-05
0.001217966215
-0.007178147144
0.001096596401
-0.00744816645
-0.0008258393762
-0.006727059092
-0.00356790573
-0.004883609582
-0.005313943386
-0.003844874886
-0.005695284665
-0.002471458898
-0.004847882414
-0.00175586021
-0.002259742899
-0.001474566935
0.002496560434
-0.001749091866
0.001876034778
0.02229981736
3.241307408e-06
0.0001333118518
0.0001944043283
0.000258134149
0.0004834064941
0.0004094414699
0.001051398097
0.0006222117528
0.00175728247
0.0002874098065
0.001906707608
-0.0001002494489
0.003980210225
-7.985731475e-05
0.005849989949
-0.0002257566296
0.004967055455
0.0003968915423
0.002758549452
0.001264705034
0.001104921035
0.0009464302183
0.0003614783505
0.0006104869998
0.0001704693256
0.0002696124234
0.0001228798681
0.0001765297464
8.654640156e-05
5.197619411e-05
6.924531963e-05
1.253803701e-05
7.312205778e-05
1.3036654e-05
8.58529315e-05
0.000231891574
-0.006160024338
0.003298726523
-0.007702931948
0.001964746212
-0.007691800711
0.0001718064419
-0.0071000113
-0.002956658261
-0.006929360358
-0.005601412961
-0.006078675193
-0.006441040777
-0.004791007157
-0.005879577003
-0.002960301047
-0.004088878275
-0.001686903073
0.0004579999897
-0.001793968915
0.001874063836
0.01904049421
0.0006212903985
-5.721390934e-08
0.000979277194
-7.074020586e-09
0.00113357857
1.270510422e-08
0.0009032623516
1.243683135e-08
0.0004982549712
-1.099194262e-08
0.0002186805426
-1.894826841e-06
0.0001774775802
-3.397454209e-06
0.000479641995
-9.815336274e-06
0.001996490678
-3.027262948e-05
0.002643246633
0.0001093094178
0.000379800934
0.00155884868
-9.027734362e-05
0.001058062945
-1.770095727e-05
0.0003450593332
5.178861735e-05
0.0001692888339
8.142020705e-05
0.0001150049081
0.0001166882916
0.0001356168183
0.0001608326271
0.0001616857767
0.0002694094359
0.0004751005645
-0.003801933739
0.004234716622
-0.007655593859
0.003775525617
-0.008446279638
0.0009094509687
-0.008655590918
-0.002881375647
-0.008605543083
-0.005991997918
-0.008067999553
-0.006921591504
-0.007020374717
-0.006436787996
-0.005270580041
-0.005247807226
-0.002255702082
-0.00268609539
-0.001792529271
0.001465486461
0.01557664622
-2.299067371e-08
1.707228587e-08
-1.545618626e-08
3.611591049e-09
-6.697653964e-10
3.077389746e-10
1.465718737e-08
2.288246684e-10
1.447566671e-08
1.420860758e-09
1.399586493e-06
1.934098757e-08
2.815342572e-06
1.498259783e-08
8.106481996e-06
5.185895945e-07
7.566360491e-05
1.113572591e-05
0.0004489258403
8.067982367e-05
-6.218292493e-05
0.0008136402648
-0.0003724362168
0.001992808319
-0.0001154919514
0.0006393592091
1.827432212e-05
0.0002101405412
0.0001247791744
0.0002118488903
0.0002522459333
0.0003460764007
0.0003720462102
0.0004102375299
0.0005429292345
0.0009388216321
-0.001872915079
0.005764485268
-0.007446612734
0.00448582734
-0.008828705836
0.001131517817
-0.009651539064
-0.002712546754
-0.01030679476
-0.005947825106
-0.01020995933
-0.007325741056
-0.009590102475
-0.006739760642
-0.008165778534
-0.005841875951
-0.005438159698
-0.004577600633
-0.002766331791
-0.0009685061747
0.01203231228
-2.021994826e-06
5.095772058e-06
-1.453154306e-06
1.79291431e-06
-9.401212658e-07
1.436351935e-06
-4.731794802e-07
1.215514704e-06
-8.707279973e-08
9.501476837e-07
6.684405893e-07
1.83259559e-06
1.615835954e-06
2.748293249e-06
3.712876186e-06
4.649233948e-06
2.157875012e-05
1.880673267e-05
0.0001419261647
8.485192793e-05
0.0003447476441
0.0003893303676
-0.0004402812695
0.002136575
-0.0002090160078
0.001583738321
1.130452455e-05
0.0003955768198
0.000194116287
0.0003589945808
0.0003957231191
0.0006223448215
0.0005774855566
0.0007264222603
0.0008477141148
0.001471367339
0.0002610006987
0.005660579416
-0.003922576607
0.004892299449
-0.005434484449
0.002279582585
-0.008329643264
-0.001862440986
-0.01014913806
-0.005541530343
-0.0107092515
-0.007911021064
-0.01077097669
-0.007107925502
-0.01047101455
-0.006022786891
-0.008742823621
-0.006001287224
-0.004909861151
-0.003881424678
0.007551198974
-9.414645823e-06
2.385609724e-05
-6.738077463e-06
9.531379973e-06
-4.336382742e-06
8.043944318e-06
-2.122299608e-06
6.754520536e-06
-3.257249815e-07
5.053780063e-06
3.421840592e-06
1.010111408e-05
8.232645321e-06
1.534323261e-05
1.503463152e-05
1.955611936e-05
3.713895061e-05
3.430081019e-05
0.0001279075588
7.85188673e-05
0.0003536594829
0.0002291242451
0.0006319760474
0.001161739339
0.0002427782516
0.002058690501
0.0003300999125
0.001041032756
0.0004135240324
0.0008504002205
0.0006145724647
0.001055804431
0.0008458809543
0.001164049361
0.00122765268
0.002188854804
0.0008457436271
0.006281368498
-0.004004784364
0.005068213452
-0.00557678449
-0.0002826151379
-0.008172512252
-0.001344600319
-0.01001906631
-0.002140947306
-0.01155696128
-0.005207403968
-0.01255815433
-0.005875301361
-0.01293633327
-0.005958746039
-0.01182061779
-0.007863194146
-0.008984648432
-0.007036587418
-0.001241911379
-1.737366586e-05
5.21229257e-05
-1.226468915e-05
2.337301483e-05
-7.814901091e-06
2.00094373e-05
-3.72679159e-06
1.662163302e-05
-3.944513212e-07
1.193917663e-05
4.676208365e-06
2.088426534e-05
1.159092999e-05
3.275280861e-05
2.050221602e-05
4.002546071e-05
3.84060404e-05
5.628427611e-05
8.587815519e-05
0.0001016199195
0.0002058197155
0.0002404311127
0.0005229016922
0.0008135348097
0.0007663796884
0.001658321729
0.0006757827119
0.001339759496
0.0007784022367
0.001463471565
0.001043759379
0.001689865298
0.001364811018
0.001755423531
0.00181397077
0.002558062896
0.002165505983
0.003726603575
0.0008464935948
0.001439816595
0.001122819271
0.001225977439
0.00154536352
-0.0005875173298
0.001670590669
-0.0007027950401
-0.000855921938
-0.001175807153
-0.00258779952
-0.003163665545
-0.004325236168
-0.005883873355
-0.007037030991
-0.008192641839
-0.006793500732
-0.009735096628
-0.01094763034
-0.001809439803
-0.001544631548
-0.001211463836
-0.0006842203588
-4.326522379e-05
0.001262503628
0.002558932504
0.003783438897
0.005128734977
0.006801946717
0.00891634261
0.01132710578
0.01346765486
0.01444990068
0.01612774839
0.01764743847
0.01830657329
0.01828475918
0.01772458795
0.01795536015
0.02222341838
0.02480500578
0.02725342249
0.02954647401
0.03111420482
0.03072542797
0.02703507952
0.01705424361
0.01297633851
0.01534763491
-9.797954052e-07
0.005875148186
0.0001856120638
0.0001368038502
-8.649644045e-05
9.961674761e-05
9.690659392e-05
-0.0001136407399
-0.0001113010682
8.769078596e-05
0.0001488322319
-0.0001834707668
0.0001799138303
0.0002706722446
-0.000886341772
-0.0004084546308
0.0008739150305
0.0005875279546
-0.0005131142498
-0.002571939193
5.384019809e-05
6.476161503e-05
-3.060973736e-05
-9.595689234e-05
7.863724224e-05
0.0001148942546
-4.336342379e-05
0.0003642251792
0.006438912857
-0.00109311351
-0.006786274623
0.0008227371324
-0.000423785126
-0.003721604025
0.003634411315
-0.0001279523974
0.0004581911008
0.001993017236
-0.002091196815
0.001575258226
-0.0006688478335
-0.001875301581
0.0004501707034
0.001579493384
0.007805540501
-0.007522474187
-0.002327896304
0.003663757884
-0.0007105768698
-0.003246700652
0.001617559726
-0.0003644767517
0.00110827502
-0.001856683801
0.002080247692
-0.001817916351
0.002044021982
-0.00192894334
0.0005783639098
0.006149185909
-0.00432838518
-0.001293333049
0.002512463835
0.00089840658
-0.0003527334619
-0.001940789043
0.001465254967
-0.0002353404322
0.000721217989
-0.001166835003
-0.001387388945
0.001634275426
-0.001247333376
0.0009646713656
0.001220108261
-0.003100780264
0.01088797334
-0.009616052088
0.002688015256
-0.002095688231
0.01059913737
-0.008708517423
7.199887752e-09
2.346577536e-09
-1.577449885e-09
-3.283501344e-09
2.707005637e-10
2.4572727e-09
-1.213789643e-10
-5.482910694e-05
0.0003907294033
-0.0002856590349
9.775262121e-06
-0.0001183932261
0.001308741335
-0.001166266012
-3.483555239e-05
-1.624884304e-05
-0.0001468991305
-6.545775701e-06
-0.001098917941
-0.00125225327
0.001553990494
-4.235905523e-06
1.087113484e-05
-2.057250436e-05
-8.856949608e-07
-9.225419683e-06
-4.444867691e-06
5.309009773e-05
-0.001312879382
0.000610628188
3.949526573e-07
5.925468647e-06
-6.894247951e-06
7.175440241e-07
-4.683005349e-06
-4.767922482e-06
6.811277946e-05
-0.0002018623566
8.460662493e-05
5.080085041e-07
3.694572737e-06
-3.541898715e-06
4.633329773e-07
-4.935465712e-06
-4.463638637e-06
0.0003981621992
-6.928449809e-05
7.937672745e-05
9.946382261e-07
4.56434574e-06
-5.344338207e-06
2.107651981e-06
-5.92493864e-06
-8.587652656e-06
0.0007865421538
0.0005919864645
-0.0009368121689
3.041589667e-06
6.69455721e-06
-8.070560989e-06
3.422514511e-06
-9.487707053e-06
-7.946403043e-06
0.0006387789996
0.001163195948
-0.001350537677
3.706873949e-06
8.240744522e-06
-9.127546324e-06
3.762224875e-06
-8.674902613e-06
-9.378725419e-06
-0.0006678849108
0.001632831012
-0.002406748243
3.730267633e-06
7.337841268e-06
-8.113703554e-06
6.156114848e-06
-1.301503366e-05
-0.0001359951537
-0.004940978249
0.00113863482
0.0009355247168
3.094548896e-05
4.131264658e-05
-6.737224435e-05
0.0002476589594
-0.0003255251565
-0.01422920417
-0.001699309935
0.01652249375