/*--------------------------------*- C++ -*----------------------------------*\
  =========                 |
  \\      /  F ield         | OpenFOAM: The Open Source CFD Toolbox
   \\    /   O peration     | Website:  https://openfoam.org
    \\  /    A nd           | Version:  8
     \\/     M anipulation  |
\*---------------------------------------------------------------------------*/
FoamFile
{
    version     2.0;
    format      ascii;
    class       volScalarField;
    location    "2";
    object      alphat;
}
// * * * * * * * * * * * * * * * * * * * * * * * * * * * * * * * * * * * * * //

dimensions      [1 -1 -1 0 0 0 0];

internalField   nonuniform List<scalar> 
67410
(
9.476993041e-05
0.000116229187
0.0001287260963
0.0001396119376
0.0001497805313
0.0001592460344
0.0001678020024
0.00017524311
0.0001814686562
0.000186456952
0.0001902187748
0.0001927727298
0.0001941517204
0.0001944528691
0.0001939712995
0.0001934600813
0.0001943978645
0.0001986683905
0.0002069924327
0.0002175351632
0.0002273023947
0.0002352242133
0.0002435506412
0.000256690867
0.0002401574762
0.0002224019543
9.406732629e-05
0.0001168595281
0.0001344023682
0.0001503377112
0.0001642385006
0.000176004938
0.0001858873607
0.000194185232
0.0002011041262
0.0002067388936
0.0002111195143
0.0002142492558
0.0002161342331
0.0002168426604
0.0002166554417
0.0002163762213
0.0002176914404
0.0002229214128
0.0002333057679
0.0002472610465
0.0002615700464
0.0002739349604
0.000283401393
0.0002879749177
0.0002700856629
0.0002487452886
0.0001052932641
0.0001220946532
0.0001404722956
0.0001591722803
0.0001749556321
0.000187665562
0.0001979738665
0.0002064558298
0.0002134341457
0.0002190571604
0.0002233900421
0.0002264592215
0.0002282699396
0.0002288426247
0.0002283238123
0.0002272493489
0.0002269701745
0.0002297957885
0.0002379155284
0.0002512271148
0.0002669761549
0.0002818746952
0.0002933984656
0.000295242776
0.0002771828927
0.0002546372232
0.0001173520982
0.0001328765935
0.0001498355533
0.0001689385841
0.0001851569114
0.0001979939776
0.0002082337971
0.0002165427691
0.0002233009279
0.0002287023874
0.0002328482709
0.0002357840091
0.0002374992852
0.0002379433667
0.0002371145658
0.0002352022392
0.0002329703633
0.0002320898147
0.0002351722503
0.0002442201725
0.0002583108039
0.0002738547918
0.0002857548214
0.0002869947327
0.0002732725836
0.0002545404127
0.0001284196152
0.0001435010789
0.0001595738726
0.0001785208457
0.0001946665233
0.0002072685823
0.000217168173
0.0002251082619
0.0002315339523
0.0002366884049
0.0002407053592
0.0002436376714
0.0002454351929
0.0002459234837
0.0002450116711
0.0002426406286
0.0002390460648
0.0002349518647
0.0002323041612
0.0002341473283
0.0002421558379
0.0002544237037
0.0002653915904
0.0002683013833
0.0002620390751
0.0002535404997
0.0001393027357
0.0001528840698
0.0001682109765
0.0001870729555
0.0002030301597
0.0002152719193
0.0002247685612
0.0002323565114
0.0002385403053
0.0002436025659
0.0002476978218
0.0002508792064
0.0002530690974
0.0002538339341
0.0002530358042
0.000250541161
0.0002462205552
0.0002402046263
0.0002334825249
0.0002285766389
0.0002277356245
0.000233033983
0.0002405814655
0.0002460237851
0.0002488639607
0.0002517491524
0.0001496045485
0.000161341483
0.0001756021844
0.0001943003456
0.0002100682576
0.0002220423512
0.0002313306127
0.0002388399257
0.0002451061108
0.0002504189445
0.0002549160723
0.0002586229974
0.0002610477591
0.0002619944153
0.0002613239472
0.0002588745649
0.0002544227308
0.0002476438741
0.0002387092004
0.000230879138
0.0002240502796
0.0002225118416
0.0002216812594
0.0002281707489
0.0002371941049
0.0002470549193
0.0001584917726
0.000168885062
0.0001817753949
0.0002001814176
0.0002159222511
0.0002279841676
0.0002375309743
0.0002454909591
0.0002523800011
0.0002584435527
0.000263752307
0.0002680734481
0.000270938038
0.0002721897526
0.000271656355
0.0002691445036
0.0002643883033
0.0002569292784
0.0002462106956
0.000239130001
0.0002330258393
0.0002324014947
0.0002166231117
0.0002176458055
0.0002276892419
0.0002396002318
0.0001655532239
0.0001753237083
0.0001867778271
0.0002049591102
0.0002210201028
0.0002338336852
0.000244343237
0.0002534507293
0.0002615725025
0.000268867908
0.0002753318562
0.0002804239554
0.0002838778718
0.0002855292266
0.0002852019283
0.0002827436176
0.0002780169227
0.0002703841872
0.0002561197494
0.0002526513201
0.000253080728
0.0002617984051
0.000229368817
0.0002159680751
0.0002195118156
0.0002303944475
0.0001707629557
0.0001805121218
0.0001907094787
0.0002089562624
0.0002258338454
0.000240454721
0.0002527509191
0.0002636170824
0.0002733619283
0.000282114558
0.0002896586472
0.0002954820781
0.0002994965719
0.0003015850255
0.0003017231025
0.0003002459248
0.0002978768653
0.0002933032123
0.0002710229707
0.0002746157959
0.0002850765909
0.000302428366
0.0002598055737
0.0002285543364
0.0002157657404
0.0002213554977
0.0001741665452
0.0001844422509
0.0001939235046
0.0002131560834
0.0002324097279
0.0002490051545
0.0002633917145
0.0002760613244
0.0002873072926
0.000297277611
0.0003054615365
0.0003117770186
0.0003162274556
0.000318887702
0.000320435626
0.0003229074396
0.000328779991
0.0003330242309
0.0002936169583
0.0003066197789
0.0003269588821
0.0003451193193
0.0003001902173
0.0002568099195
0.0002245998675
0.0002160002198
0.0001760753436
0.0001883846083
0.0001976609294
0.0002182745454
0.0002402529865
0.000259379568
0.0002756961089
0.0002897559067
0.0003020610216
0.00031260221
0.0003210956231
0.0003277235187
0.0003326469152
0.0003366097167
0.0003423075148
0.0003549583397
0.0003767775915
0.0003933825372
0.0003247759727
0.0003434859179
0.00037034749
0.0003834460385
0.0003409358598
0.0002919113868
0.0002474109485
0.0002215668068
0.0001774545538
0.0001921015709
0.0002019516754
0.0002245691804
0.0002494077
0.0002707413615
0.0002883850126
0.000303286982
0.0003161081136
0.0003268220978
0.0003355255513
0.0003425056663
0.0003483982201
0.0003556980795
0.0003708054803
0.0004008709088
0.0004417363854
0.0004700122131
0.0003646551827
0.0003768789268
0.0004075598674
0.0004158407024
0.0003755600215
0.0003230115653
0.0002741299172
0.0002403573748
0.0001787565766
0.0001958240514
0.0002068187954
0.000231401084
0.000258654107
0.0002815890851
0.0003001352968
0.0003155982365
0.0003285007977
0.0003393449919
0.0003482798716
0.0003558302828
0.0003637453869
0.0003775519113
0.000407188577
0.0004567807196
0.0005140695957
0.0005526231544
0.0004141446557
0.0004025584877
0.0004353005509
0.0004406391998
0.000401062433
0.0003426044917
0.0002954709809
0.0002644144507
0.0001804411765
0.0002004688463
0.0002119636351
0.0002371930989
0.0002659617222
0.0002901007922
0.0003093360849
0.0003252444182
0.0003386313675
0.0003495710801
0.0003586379159
0.0003668541247
0.0003773887287
0.0003985240945
0.000441110984
0.000504397718
0.0005703199316
0.000607478461
0.0004592502693
0.0004203316051
0.0004509353951
0.0004547401856
0.0004132878872
0.0003468231944
0.0003096281276
0.0002882647393
0.0001845841873
0.0002073249848
0.0002172917742
0.0002406700376
0.0002699921681
0.0002952972273
0.0003154126682
0.0003318563022
0.0003452975155
0.0003560383121
0.0003648280904
0.0003728035877
0.0003827307827
0.0004018237228
0.0004402246805
0.0004982778023
0.000553202081
0.0005658046055
0.0004551490923
0.0004263305328
0.0004507052272
0.0004551193967
0.0004078253088
0.00033505578
0.0003182192697
0.0003075918227
0.0001932037299
0.00021749625
0.0002231196167
0.0002403045701
0.0002682656122
0.000294889257
0.0003163029894
0.0003331859899
0.0003463418706
0.0003564268905
0.0003644412685
0.0003708190799
0.0003751487839
0.0003787026085
0.0003846885031
0.0003985482136
0.0004220920652
0.000431625518
0.0003875463967
0.0003991828539
0.0004290874101
0.0004403459838
0.0003855207825
0.0003153283575
0.0003215407665
0.0003157881136
0.0002060434914
0.0002309659247
0.0002311750739
0.0002367537613
0.000258693954
0.000286164423
0.0003095404909
0.0003270172111
0.0003397492401
0.0003503257053
0.0003592611027
0.0003630784932
0.0003664914521
0.000366731965
0.0003638990476
0.0003596765662
0.0003569641795
0.000352733483
0.0003474993081
0.0003736957306
0.0004057726669
0.0004238295838
0.0003744014265
0.0003139512822
0.0003147327197
0.0003078307934
0.000219813074
0.0002459531614
0.0002432804776
0.0002347987288
0.0002418528962
0.0002665028179
0.0002921472836
0.0003123093207
0.0003325333113
0.000364587665
0.000387563015
0.0003415726004
0.0003438232663
0.0003443542275
0.0003418823023
0.0003380130897
0.0003369185277
0.0003439612797
0.0003626027265
0.00038739057
0.0004088630363
0.0004256323033
0.000383330257
0.0003277572741
0.0002970921287
0.0002794679111
0.0002310058574
0.0002594109491
0.0002576692527
0.0002407925551
0.000229118246
0.0002426324767
0.0002688451593
0.0003080636289
0.0003794295136
0.0004865365195
0.0005441861098
0.0003225264586
0.0003185461366
0.0003190742526
0.0003157629183
0.0003105540528
0.0003067930358
0.00030923056
0.0003208445496
0.0003388586855
0.000353856312
0.0003538813424
0.0002768689643
0.0002510706765
0.0002583629668
0.000272077191
0.0002376248961
0.0002676968298
0.0002680727393
0.0002523781019
0.0002398791849
0.0002470063989
0.0002788286211
0.0003753356223
0.0005273720501
0.0007081184924
0.0007833120329
0.0003498718444
0.0002907267421
0.0002897194216
0.000286618909
0.0002807467105
0.0002751379217
0.0002738304153
0.0002804711287
0.0002937264586
0.0003064339957
0.0003070947288
0.0002611480064
0.0002417015808
0.000258608163
0.0003068778404
0.0002374882888
0.0002660766487
0.0002691726197
0.0002674756995
0.0002792529956
0.0002924695286
0.000280184349
0.000248388844
0.0002796593563
0.000364513165
0.0004123162554
0.0002730516426
0.0002559206092
0.0002549426726
0.0002549494545
0.0002522270181
0.0002493235918
0.0002485678399
0.0002516357091
0.0002590736391
0.0002689895077
0.0002714144672
0.0002432646871
0.0002583480641
0.0003037681887
0.0003414903554
0.0002235593945
0.0002511600427
0.0002690848119
0.0002989685448
0.000338713685
0.000364834133
0.0003583744916
0.0003001264591
0.0002338499558
0.0002468203716
0.0002684289798
0.0002406912825
0.000234863771
0.0002210167902
0.000221224911
0.0002246647125
0.0002268222213
0.0002288420616
0.0002312870915
0.0002346278579
0.0002382610645
0.0002393584333
0.0002335729854
0.0002484835674
0.0002889687058
0.0003443366428
0.0001758619873
0.0002303380559
0.0002875093407
0.0003481361307
0.0003985338906
0.0004375595127
0.0004502955547
0.0004057029728
0.0002856540565
0.0002459095703
0.00026861215
0.0002938170502
0.0002851989065
0.0002318042301
0.0002162617333
0.000216602016
0.0002178597684
0.0002173403921
0.0002170999168
0.0002193522582
0.0002240971867
0.0002316809113
0.0002420102462
0.0002595633457
0.0002856910846
0.0003252248937
0.0001699551968
0.0002353761239
0.000316959727
0.0003887246849
0.0004448173568
0.0004913124465
0.000511921167
0.00048906072
0.0003763533427
0.0002407041666
0.00022423247
0.0002295600913
0.0002297757969
0.0002331598988
0.0002361228261
0.0002322560707
0.0002357574308
0.0002324591163
0.0002269248265
0.000227099959
0.0002396605389
0.0002626098424
0.0002817871943
0.0002987705457
0.0002973421062
0.0001715709317
0.0001917823616
0.000205359585
0.0002524828958
0.0003303973008
0.000384871184
0.0003913130944
0.0003367654122
0.0002307943647
0.000216409259
0.0002203464826
0.0002242995268
0.0002278031246
0.000233294962
0.0002324269214
0.0002375666302
0.0002469404342
0.0002577650343
0.0002722782185
0.0002373835956
0.0002660742823
0.0003160875596
0.0003072362629
0.0003152827005
0.0003030520227
0.0001815195941
0.0002095169792
0.000225258566
0.0002399201758
0.0002611759302
0.000302685921
0.0003046042753
0.0002564647061
0.000217109629
0.0002203290262
0.0002252975889
0.000230160089
0.0002346839687
0.0002388341077
0.0002429888201
0.0002475371966
0.0002533194848
0.0002613029738
0.0002680985886
0.000248453303
0.00023988118
0.0002672395089
0.000285245294
0.0002966355375
0.0002950598318
0.0001936146038
0.0002346928321
0.0002597604891
0.0002693004334
0.0002556785212
0.0002409453926
0.0002394317081
0.000236974716
0.0002384869057
0.0002368118621
0.0002361471802
0.0002388017867
0.0002439044314
0.0002495806027
0.0002547757012
0.0002599428435
0.0002650851633
0.0002702405912
0.0002743807264
0.0002764271517
0.0002689791294
0.0002511978051
0.0002565365124
0.0002672956994
0.0002764323353
0.0002137232398
0.0002658599768
0.0002938894612
0.0003055720844
0.0002966376261
0.0002774781566
0.0002722257692
0.0002788928774
0.000278943123
0.000270558829
0.0002598876029
0.000253334183
0.0002539310697
0.000258305592
0.0002637639202
0.0002698922709
0.0002762136506
0.000283355516
0.0002906636056
0.000298281631
0.0003031103972
0.0002897321586
0.0002649314851
0.00025417442
0.0002573592925
0.0002649706216
0.0002409685222
0.0002977746895
0.000326421748
0.0003435818006
0.0003396831524
0.0003199361207
0.0003130963092
0.0003233625904
0.000330321908
0.0003270358696
0.0003147413841
0.0002917405256
0.0002718593852
0.000267746227
0.000272252602
0.0002774368111
0.0002807521678
0.0002863389587
0.0002935307731
0.0003029142767
0.0003158059305
0.0003075899104
0.0002799931768
0.0002567003959
0.0002470575244
0.000246357301
9.341594562e-05
0.0001176734196
0.0001298905897
0.0001398034977
0.0001488716224
0.0001576862577
0.0001664558578
0.0001749941473
0.0001829451067
0.0001899573324
0.0001957690695
0.000200214417
0.0002032021697
0.0002047340766
0.0002049980037
0.0002045617016
0.0002046094144
0.0002068939318
0.0002129315628
0.0002226915885
0.000234228731
0.0002448437343
0.0002538446181
0.0002621824817
0.0002469649594
0.000225873432
9.042077933e-05
0.0001681611879
0.000197382276
0.0002194317521
0.0002425254091
0.0002689343402
0.0002996053957
0.0003338971516
0.0003701595614
0.000406301383
0.000440056722
0.000469163616
0.0004914168128
0.0005047471982
0.0005077325613
0.0005008895306
0.000488685382
0.0004809851609
0.0004918165296
0.0005333673382
0.0006064099012
0.0006898034324
0.000743770719
0.0007352297282
0.0006522350359
0.0005398420372
9.988837948e-05
0.0001721256021
0.0002029308888
0.0002326792465
0.0002686725801
0.0003121978007
0.0003627993343
0.0004181066057
0.0004748937356
0.0005296014171
0.0005787956886
0.0006194244173
0.0006488278143
0.0006646168511
0.0006649145424
0.0006497265859
0.0006238049038
0.0005998402189
0.0005973620581
0.0006336891477
0.0007090662787
0.0007917148035
0.0008311094683
0.0008316877989
0.0007861884402
0.0006711699295
0.0001113781533
0.0001831777782
0.0002114915091
0.0002466177499
0.0002927082566
0.0003493706708
0.0004153533587
0.0004872343762
0.000560135898
0.0006286128878
0.0006878061004
0.0007341728989
0.0007657521443
0.0007814489441
0.000779956013
0.0007606464392
0.0007254144729
0.0006846263574
0.0006577146408
0.0006651269921
0.000713333288
0.0007754040908
0.0008146550857
0.0008254615083
0.0008021487822
0.0007411500418
0.0001213806348
0.0001966125974
0.0002258516047
0.0002655728893
0.0003198869792
0.0003868892765
0.0004645555718
0.0005483026038
0.0006314357585
0.0007068816501
0.0007687994974
0.0008139660844
0.0008423316278
0.0008559443758
0.0008541083038
0.0008359593684
0.0007998754748
0.0007504565078
0.0006999300552
0.0006691166876
0.000675716686
0.0007132738583
0.0007526043242
0.0007737252041
0.0007784491671
0.0007656832373
0.0001312557584
0.0002090567144
0.0002403844255
0.000284751375
0.0003467103086
0.0004227629694
0.0005092940327
0.0005998708893
0.0006863828775
0.0007610677121
0.000818266404
0.0008557616218
0.0008749815782
0.0008839136047
0.0008820363003
0.0008676679968
0.0008398400422
0.0007964400238
0.0007356361033
0.0006735236594
0.0006353514954
0.0006313590468
0.0006548760438
0.0006862403186
0.0007266944721
0.000751390804
0.0001411028558
0.0002213096989
0.0002528857497
0.0003013600748
0.0003710370585
0.0004555564043
0.0005483914986
0.0006413245964
0.0007256718
0.0007943970399
0.0008432382188
0.0008711379584
0.0008890255281
0.0008970557559
0.0008946415974
0.0008812692204
0.0008567862943
0.0008205286056
0.0007653208953
0.0006892231024
0.0006188279073
0.0005722561378
0.0005636492449
0.0005850353356
0.0006552531869
0.0007205079537
0.0001501559834
0.0002345531296
0.0002629122277
0.000313556752
0.0003909156752
0.0004831300538
0.00057958291
0.0006718744552
0.0007514050032
0.000812586895
0.000852597847
0.0008761821563
0.0008909864248
0.0008969527356
0.0008937959622
0.0008813439607
0.000859856344
0.0008290517809
0.0007811447334
0.000706124612
0.0006255950366
0.000550808046
0.0005122725988
0.0005075881774
0.0005737709204
0.0006756282849
0.0001577773612
0.0002494833826
0.0002705229265
0.0003193589907
0.0004067081419
0.0005047294071
0.0006011867457
0.0006922538701
0.0007677131822
0.0008225594132
0.0008536895796
0.0008729185369
0.0008842030355
0.0008880688806
0.0008843941674
0.0008731787556
0.000854616961
0.00082728252
0.0007800784108
0.0007110517281
0.0006407753613
0.0005577654417
0.0004953640636
0.0004600431104
0.0004997250985
0.0006104387331
0.0001637919192
0.0002668830418
0.0002760657938
0.0003183383151
0.0004242924318
0.0005243790547
0.0006136634651
0.0007049532429
0.0007785090337
0.0008268855525
0.0008507451226
0.0008658538358
0.0008745114436
0.0008771330623
0.000873559943
0.0008636020322
0.0008465565225
0.0008187612239
0.0007696274268
0.000710905788
0.0006629607828
0.000589034301
0.0005038542046
0.0004378993873
0.0004448571982
0.0005341256354
0.0001686560516
0.0002897204976
0.000284743398
0.0003273410909
0.0004150841716
0.0005146321981
0.0006189555908
0.0007137461983
0.0007870032818
0.0008267530611
0.0008482046229
0.0008619805016
0.0008703960911
0.0008734766739
0.000870755331
0.0008612034589
0.0008429067348
0.000818063896
0.0007723825797
0.0007301210295
0.0007005401757
0.0006317430336
0.0005443011652
0.0004454892347
0.0004219144536
0.0004748385327
0.0001719083951
0.000293642757
0.0002929619441
0.0003266789283
0.0004086840387
0.0005135807982
0.000624626427
0.0007254743025
0.0007952256054
0.000830784166
0.0008538061886
0.0008702295122
0.0008814357022
0.0008869808269
0.0008860275325
0.0008769945398
0.0008593211618
0.0008429798062
0.0008221773119
0.0007899545077
0.0007548566707
0.0006938816004
0.0006187872817
0.0004972669692
0.0004488826624
0.0004572230466
0.0001734664761
0.000307251628
0.0003004635468
0.0003272270567
0.0004071759552
0.0005175020987
0.000641060194
0.0007457711939
0.0008080977534
0.000846439737
0.0008751391529
0.0008972121566
0.0009132673697
0.0009230282968
0.0009269072298
0.0009299977504
0.0009435153637
0.0009572914164
0.0009456722506
0.0008927416398
0.0008398666206
0.0007837355323
0.0007163296535
0.0006066874862
0.0005489050033
0.0005075285065
0.0001743920405
0.0003158833996
0.0003076141136
0.0003301507757
0.0004107267256
0.0005317816788
0.0006704838883
0.0007699204866
0.0008340709089
0.0008781009587
0.000913319315
0.0009406488742
0.0009611518925
0.000976485279
0.0009948839868
0.001045166013
0.001145302625
0.001195021098
0.001125218995
0.001013063919
0.0009384014697
0.0008820274932
0.0008250656379
0.0007579884007
0.000731365171
0.0006492613856
0.0001739921681
0.0003199608603
0.0003156681037
0.0003362717688
0.0004182426483
0.0005438641713
0.0006839225628
0.0007972273141
0.0008674707674
0.0009195988956
0.0009576487618
0.0009857820377
0.001007140381
0.001027693852
0.001070042755
0.001180156727
0.001333781961
0.001367955882
0.001283949509
0.001126348426
0.001018830019
0.0009609554149
0.0009187277991
0.0008933230474
0.0009080801094
0.000833743453
0.0001736316188
0.0003232271411
0.0003271235681
0.0003451559329
0.0004269385355
0.0005619222672
0.0007123931106
0.0008278171746
0.0009018108012
0.0009535345941
0.0009873247794
0.001010319361
0.00102673906
0.001045388288
0.001093982454
0.001206013316
0.001334720043
0.001363038509
0.001311582839
0.001172788943
0.001064757946
0.001011085942
0.0009885093462
0.0009922432542
0.001001852937
0.000945082269
0.0001755227767
0.0003320131458
0.0003471286962
0.0003571735314
0.0004268896795
0.000559774292
0.0007146162798
0.000834122224
0.0009085968529
0.0009551777958
0.000981301269
0.0009988759331
0.001011125212
0.001025294212
0.00105556124
0.001122191055
0.001219932509
0.001270867567
0.001239861046
0.001165608171
0.001091792822
0.001041914947
0.001041987036
0.001064935458
0.001047107323
0.001010482115
0.0001815793473
0.0003543577816
0.0003831120197
0.0003766297118
0.0004138662228
0.0005219705758
0.0006666279329
0.0007867022451
0.000859632171
0.0008998422164
0.0009268314862
0.0009460661713
0.0009555968088
0.000962290259
0.0009743844728
0.0009989400982
0.001041645467
0.001092272145
0.001121530236
0.00112588701
0.001085067137
0.001049318249
0.001076141109
0.001110388576
0.001094544358
0.001080980829
0.0001912837589
0.0003952475627
0.0004379590134
0.000407698232
0.0003948587894
0.0004567686685
0.000570622127
0.0006772914947
0.0007543210139
0.0008301419021
0.0008824763097
0.000860073337
0.0008762568548
0.0008872163501
0.0009011528548
0.0009176868394
0.00093999079
0.0009660387301
0.0009886678152
0.001007736508
0.001006078574
0.001009682072
0.001045765625
0.001091420872
0.001139603823
0.001164817134
0.0002014244204
0.0004431417005
0.0004952899945
0.0004428981879
0.0003800255976
0.0003925452963
0.0004644060629
0.0005643757088
0.0007384248901
0.001063689094
0.001234822729
0.0008588911953
0.0007564818691
0.0007928145062
0.0008271386501
0.0008546632294
0.0008799666075
0.0009076762984
0.0009381984888
0.0009669762591
0.0009810096687
0.0009958567173
0.001061267405
0.001077606498
0.001166794433
0.001215761696
0.0002068206873
0.0004596976675
0.0005200760028
0.0004619467283
0.0003742363385
0.0003567936245
0.0003922206285
0.0004854059552
0.000811897664
0.001610016721
0.001692883171
0.001132708749
0.0006422835345
0.0006480321576
0.0007079843517
0.0007742113843
0.0008269446432
0.0008703048186
0.0009035799922
0.0009406651417
0.0009667094333
0.0009846999058
0.001038848889
0.001065421098
0.001205205391
0.001236469556
0.0002004286516
0.0004144749872
0.0004900257214
0.0004457438205
0.0003726336409
0.0003600603481
0.0003860319645
0.000435643725
0.0005432864096
0.0008252938586
0.001136478498
0.0009774089186
0.0006475163646
0.0005822108232
0.000615508839
0.0006853111658
0.0007534627978
0.0008097477309
0.000862636916
0.0009215286632
0.0009635694851
0.0009958594922
0.001026527705
0.001076926091
0.001247515353
0.001249727877
0.0001788016928
0.0003123709342
0.0004031352577
0.0003987720771
0.000383501739
0.0004345214203
0.0004941536526
0.0005168249332
0.0005706760913
0.0007022686548
0.0008051790717
0.0008205481421
0.000785623172
0.000667862274
0.0006454748939
0.000699475286
0.0007558671362
0.0007939440288
0.0008180759636
0.0008482990422
0.0008948124163
0.000948806676
0.000976562435
0.001089132128
0.00133829544
0.001385612048
0.0001502476743
0.0002395268317
0.0003166964624
0.0003603406482
0.0004345068805
0.0006503484354
0.0008208599012
0.0008154413426
0.0006924381048
0.0007650235658
0.001017202543
0.00109944174
0.001025724507
0.0008828243657
0.0007743045722
0.0008070368436
0.0008514388773
0.0008587585059
0.0008520823707
0.0008868858145
0.0009559952356
0.001037222923
0.001099412426
0.001207963166
0.001352590956
0.001412362669
0.0001485543036
0.000251885471
0.0002774770635
0.0003144794785
0.0004279936427
0.0006919922793
0.0008847686057
0.0008733737673
0.0006849511834
0.0006068520431
0.0008386200645
0.0009780230819
0.0009757443601
0.000999446987
0.0009963514768
0.0009970506209
0.001029337171
0.001056835155
0.001103591219
0.001178504674
0.001311123378
0.001312650651
0.001271790314
0.001312857316
0.001357677013
0.0001559562706
0.0003073031916
0.0002952353233
0.0002666423695
0.0002985382066
0.0004420503843
0.0005770333558
0.0005885133418
0.0005587664388
0.0006300196802
0.0007472441683
0.0008333108795
0.0009121877035
0.0009962733677
0.001008500997
0.001059380591
0.001113466853
0.001166900829
0.001240882974
0.001285675262
0.001355544182
0.001418635166
0.001362402673
0.001385157548
0.001384778164
0.0001666965217
0.0003529431477
0.0003355217629
0.0002871613717
0.0002789553552
0.0003122341759
0.000364474149
0.0004163387829
0.0005051166112
0.0006192241205
0.0007456742487
0.0008571264668
0.0009420840901
0.001000681666
0.001032578004
0.001064607587
0.001104812507
0.0011569033
0.001222707263
0.001283981846
0.001312666002
0.001412466534
0.001387213287
0.001386424258
0.001361588327
0.0001727200685
0.000378259114
0.0003705858108
0.0003403477331
0.0003102631372
0.0003054610981
0.0003436406736
0.0004209368587
0.0005309313908
0.0006560650869
0.0007837840571
0.0009001035962
0.0009895882624
0.001040821905
0.001073813171
0.001100739424
0.0011260443
0.001162337716
0.001213787336
0.001264900999
0.001311377766
0.001380072336
0.001360013375
0.00133074586
0.001301903093
0.0001768790191
0.0004063505005
0.0004559998901
0.0004599439862
0.000423153724
0.0003908303746
0.0004159779676
0.000510406753
0.0006391432829
0.0007637624825
0.000873245981
0.0009496022566
0.001005787462
0.001062730766
0.00110603775
0.001133224974
0.001138768523
0.001157060839
0.001196264231
0.00125227397
0.001323217051
0.00139387665
0.00133566458
0.001226078755
0.001162598378
0.001150732971
0.0001853994199
0.0004753666367
0.000584294438
0.0006728719104
0.0006822398808
0.000626493346
0.0006101765957
0.0007299455059
0.000888631593
0.001011178127
0.001107734509
0.001095032334
0.001052911815
0.001077115528
0.001198300554
0.001220394742
0.001171625697
0.001156277693
0.001194557437
0.001285527276
0.001421920777
0.001469614565
0.001315392813
0.001142679368
0.001023636014
0.0009692367968
9.68384745e-05
0.0001216858262
0.0001338088377
0.0001431174055
0.0001511511229
0.0001587777712
0.0001666577375
0.0001749454721
0.0001833657276
0.0001914315659
0.0001986650614
0.0002047039984
0.0002093230825
0.0002124429895
0.0002141809462
0.0002149675916
0.0002156965092
0.0002177430613
0.0002225468947
0.0002306018307
0.0002403773246
0.0002485950805
0.000255306439
0.0002624168539
0.0002515187373
0.0002320605218
9.335935764e-05
0.0001964267206
0.000237687892
0.0002651112173
0.0002910574198
0.0003196297048
0.000353784261
0.0003946628409
0.0004416898826
0.0004925970532
0.0005439648014
0.0005919679972
0.0006329020099
0.000663504531
0.000681410464
0.0006861848816
0.0006811823695
0.00067551143
0.000683779352
0.0007196773639
0.0007829517684
0.0008511484088
0.0008901775775
0.0008791957693
0.0008160704771
0.0007161199464
0.0001014983594
0.0001983469491
0.0002432436608
0.0002783562502
0.0003192074951
0.0003696164946
0.0004305726952
0.0005005466913
0.0005764682696
0.0006541261839
0.0007287318132
0.00079550803
0.0008501158762
0.0008887167982
0.0009081137862
0.0009068699853
0.0008882999699
0.0008641125699
0.0008544476769
0.0008779812743
0.0009349211644
0.000998865376
0.001036160987
0.001031974015
0.0009781593553
0.0008847591784
0.0001126350304
0.0002122303849
0.0002492169248
0.0002878154058
0.0003400642538
0.0004073408397
0.0004889236183
0.0005812121599
0.0006784711735
0.0007739354843
0.00086115767
0.0009350347584
0.0009921515373
0.001030075318
0.001046513165
0.001039571684
0.001010830501
0.0009701752106
0.0009374914955
0.0009342576006
0.0009660572462
0.001011924071
0.001041207202
0.001041229497
0.001008328227
0.0009463388387
0.0001220001029
0.0002278169004
0.0002646013251
0.000306724187
0.0003683103022
0.0004485085818
0.0005450728067
0.0006524781195
0.0007624712711
0.000866125521
0.0009559714693
0.001027538791
0.001079319889
0.001111115141
0.001122421199
0.001111761828
0.00107911098
0.001030372589
0.0009804201225
0.00095005249
0.000951911313
0.0009766900949
0.001000256305
0.001006106795
0.0009890083536
0.0009544522955
0.0001311191813
0.000241445393
0.0002812086405
0.0003278151953
0.0003981488526
0.0004896327135
0.000597718643
0.0007142871578
0.000828931874
0.0009317353497
0.001015803799
0.001078461533
0.001120393344
0.001143456147
0.001148762394
0.001136369602
0.001105855576
0.001058789259
0.001003352458
0.0009552517079
0.0009301643809
0.0009312385565
0.0009466119022
0.0009581409072
0.0009568470043
0.0009387807374
0.0001406308365
0.0002549694735
0.0002953879204
0.0003455777372
0.0004246756445
0.0005270632505
0.0006444248767
0.0007655284891
0.000878407844
0.0009737244365
0.001046705525
0.001097119417
0.001127538066
0.001144075183
0.001146024385
0.001132425272
0.00110352261
0.001061757106
0.001011664439
0.0009589414792
0.0009164518818
0.0008944927901
0.0008948953042
0.0009061755819
0.0009218535912
0.0009181163268
0.000149922729
0.0002713193458
0.0003069735466
0.0003577177666
0.0004453360729
0.0005576137524
0.0006820362463
0.0008043210177
0.0009113722936
0.0009955907217
0.00105496816
0.001091826493
0.001114778195
0.001125486712
0.001123379564
0.001108236777
0.00108099854
0.001044242858
0.001001268752
0.0009530362224
0.0009055967294
0.000870286317
0.0008561160008
0.0008583008533
0.0008813853386
0.0008949963415
0.0001581782554
0.0002920734563
0.0003170299073
0.0003642819168
0.0004620313411
0.0005793823184
0.0007078831591
0.0008296491907
0.0009294269357
0.001001561823
0.001046420659
0.001072159303
0.001086767763
0.001090767029
0.001084097365
0.001066932102
0.001040298709
0.001006622795
0.0009683395005
0.0009251051733
0.0008801138437
0.0008458231692
0.0008267702074
0.0008182376188
0.0008373893806
0.0008682519983
0.000165123011
0.0003176570962
0.000328111885
0.0003656649268
0.000480565571
0.0005919489543
0.0007210565162
0.0008419986027
0.0009349925073
0.0009958094811
0.001026954755
0.001043249093
0.001049698288
0.001047200587
0.00103575878
0.001015210565
0.0009859756644
0.0009513637586
0.0009149369727
0.0008757901446
0.000834685544
0.0008116784863
0.0007997630404
0.0007893659549
0.0007985509042
0.0008370029444
0.0001712330256
0.000348164738
0.0003474391188
0.0003707235371
0.0004610540955
0.0005886450763
0.0007244368323
0.0008441779827
0.0009316755282
0.0009829490861
0.001005014896
0.001014689082
0.00101564524
0.001008321608
0.0009920001032
0.0009654595583
0.0009293093219
0.0008921631259
0.0008594266722
0.0008282928166
0.000788495515
0.0007751964686
0.0007790624876
0.0007811996606
0.0007809121573
0.0008131041707
0.0001753629163
0.000371179581
0.0003667665206
0.0003740127243
0.0004544408745
0.0005823495184
0.0007215469578
0.0008429723997
0.0009262882568
0.0009718702206
0.0009925224494
0.001001434358
0.001001385351
0.0009918231793
0.0009714529188
0.000940148838
0.000904149038
0.0008756305617
0.0008482267802
0.0008210030938
0.0007801886773
0.0007652785635
0.0007779071114