/*--------------------------------*- C++ -*----------------------------------*\
  =========                 |
  \\      /  F ield         | OpenFOAM: The Open Source CFD Toolbox
   \\    /   O peration     | Website:  https://openfoam.org
    \\  /    A nd           | Version:  8
     \\/     M anipulation  |
\*---------------------------------------------------------------------------*/
FoamFile
{
    version     2.0;
    format      ascii;
    class       volScalarField;
    location    "2";
    object      htcConv;
}
// * * * * * * * * * * * * * * * * * * * * * * * * * * * * * * * * * * * * * //

dimensions      [1 0 -1 1 0 0 0];

internalField   uniform 0;

boundaryField
{
    walls
    {
        type            calculated;
        value           uniform 0;
    }
    region0_to_wallFilmRegion_wallFilmFace
    {
        type            convectiveHeatTransfer;
        L               1;
        value           nonuniform List<scalar> 
776
(
1.374678634
1.336573345
1.835351638
2.147609171
2.390754462
2.586266742
2.743242795
2.859392098
2.943236104
2.970950834
2.872978944
2.777350278
2.548227693
2.6270624
2.605520173
2.614943294
2.645791955
2.666316267
2.630085675
2.507398445
2.298089619
2.03580271
1.739965388
1.976342591
2.095819131
1.976573094
2.191405658
2.182533205
2.167014041
2.020616886
1.63922417
1.53483828
1.758066768
2.043940645
2.288606569
2.471239573
2.614153478
2.727509601
2.817798836
2.851759418
2.758979637
2.670955924
2.74444878
2.753922169
2.745229243
2.726354767
2.695436289
2.657486971
2.611811084
2.535480054
2.406118917
2.264506493
2.184491104
2.308082446
2.305732952
1.964287513
2.165374329
2.121693531
2.144413891
2.2379603
1.926395317
1.856286358
2.017233632
2.232407817
2.445969132
2.617900082
2.755806038
2.865603089
2.950574309
2.996935345
2.956804409
2.96572029
3.006525607
3.021495192
3.004329346
2.956191519
2.867021552
2.758065816
2.667874012
2.604008977
2.53882697
2.510691594
2.627327312
2.799829466
2.773154933
2.037805033
2.274218719
2.298801969
2.467657729
2.537042418
2.112838067
2.119956308
2.301877638
2.499280252
2.697777991
2.868032177
3.008301645
3.122010579
3.216783832
3.275816339
3.250782353
3.296858371
3.344904941
3.367914799
3.341586354
3.274675382
3.139105347
2.952101202
2.774759688
2.688127128
2.69394455
2.768895857
3.031042294
3.335198024
3.396760901
2.149710808
2.423083372
2.428330195
2.577047994
2.56933056
2.273700975
2.328641182
2.533187178
2.73293998
2.930304275
3.100918082
3.24268068
3.363427164
3.460327743
3.301857661
3.500344753
3.595163396
3.662616623
3.69344216
3.655007075
3.583608981
3.438090293
3.237442447
3.050457921
2.99962771
3.06655473
3.056988442
3.37642552
3.586026664
3.673441454
2.798385277
2.522354993
2.495643213
2.552891986
2.496488135
2.410310601
2.490862509
2.71139917
2.915568087
3.11250292
3.28036069
3.417429275
3.527776585
3.609969488
3.623692973
3.729165144
3.828195489
3.902983873
3.930805201
3.878695484
3.80410567
3.660429475
3.475846584
3.328178458
3.355337793
3.499608115
3.162508162
3.479861743
3.546711559
3.631437099
3.228818515
2.735162427
2.680534004
2.654092158
2.509319932
2.527852242
2.621713629
2.851662595
3.056968241
3.250794967
3.414026843
3.547449246
3.655578369
3.740549402
3.800864017
3.903526391
3.992897761
4.053051431
4.067821093
4.02042353
3.943312802
3.809728986
3.659628483
3.582315299
3.734525843
4.083101458
3.047925999
3.31120639
3.291365208
3.435027582
3.11424245
2.699939078
2.769590493
2.873560293
2.798086919
2.624817706
2.726687822
2.961403627
3.163895018
3.351378274
3.508333362
3.638490101
3.747907466
3.842710811
3.928962002
4.020184379
4.094017146
4.126726266
4.109945671
4.09747777
4.018324298
3.905197832
3.815328949
3.856627248
4.264610462
4.921034662
3.199111818
3.15208887
2.690980536
3.092375401
2.697573678
2.638297954
2.901565134
3.051180472
3.07590065
2.698932811
2.807634454
3.044331947
3.240812556
3.419698245
3.56951975
3.69666037
3.808145597
3.910166183
4.005387379
4.092143387
4.155799017
4.181183082
4.16786834
4.131777148
4.051461486
3.960094933
3.933965698
4.120056058
4.812317846
6.074745863
3.832146765
3.385692929
2.170577414
1.522596207
2.566418576
2.879339563
3.019915917
3.13729918
3.168907219
2.748468316
2.864619637
3.102005398
3.290835989
3.460168605
3.602567887
3.726765379
3.839971169
3.946681814
4.04518865
4.128098417
4.185617337
4.20747945
4.190813493
4.138974069
4.048880287
3.953916673
3.94084972
4.224653909
5.235697298
7.302990207
4.488663663
3.317478928
2.628828248
2.427411515
2.959388203
2.978813003
3.070365859
3.140352347
3.15682198
2.772856441
2.897513593
3.135608274
3.316635485
3.476518516
3.611647312
3.732871432
3.847059421
3.956717251
4.057856842
4.141368164
4.19680178
4.216078568
4.1948214
4.128910829
4.012744978
3.865950219
3.725207757
3.759667986
4.816456951
7.109889119
4.268991815
2.89994025
2.527967871
2.604833011
3.055501604
3.003275984
3.05478305
3.056106859
3.035056353
2.773111154
2.907174513
3.146824208
3.320941843
3.472328987
3.600691064
3.718906407
3.83508816
3.949092276
4.054521671
4.14123022
4.199369298
4.22156249
4.200654349
4.123658751
3.972273846
3.778467553
3.578605325
3.241670357
2.310063189
3.379683896
3.167522624
2.605806638
2.458464402
2.700091958
3.0785024
2.988764122
2.990346768
2.920161853
2.77668101
2.752318854
2.896087857
3.138226661
3.306969698
3.451530535
3.57396746
3.691428259
3.809820984
3.928657999
4.041003559
4.136589802
4.206476546
4.243344049
4.235117471
4.154430119
3.956503051
3.739054156
3.640901857
3.502865577
3.347748394
3.355260691
3.343428866
2.713250096
2.333562754
2.865386885
3.025672805
2.93567265
2.906296758
2.818629972
2.633387958
2.716290832
2.868755172
3.113581955
3.27847534
3.418332495
3.536980715
3.653929419
3.77500058
3.900772023
4.025079916
4.138929536
4.235173762
4.306049484
4.330951163
4.254298624
3.9625131
3.666748604
3.613771236
3.529972169
3.417820782
2.837775561
3.16051238
2.733814754
2.207360136
2.870113676
2.879701703
2.858375694
2.815328173
2.752755097
2.62258993
2.67398535
2.832210384
3.078161488
3.239646661
3.376304597
3.493077082
3.610122982
3.735148879
3.87118124
4.014764394
4.160180863
4.303805616
4.434529733
4.50964613
4.437017342
3.993651102
3.56917639
3.554278106
3.580974002
3.496946793
3.330143373
3.186391158
2.891045425
2.582234632
2.768714273
2.753278986
2.780759179
2.719907006
2.639520873
2.632547331
2.636739719
2.795896561
3.038771345
3.195028903
3.328895625
3.44515426
3.563159394
3.693609934
3.843657282
4.015268159
4.209283629
4.424183288
4.622070502
4.719531734
4.635363811
4.006602324
3.445758848
3.439739723
3.570048818
3.492355606
3.338483336
3.153807164
2.903796651
2.692106346
2.709403807
2.828553986
2.685971398
2.600121282
2.483464726
2.421709163
2.613540025
2.769024783
3.002730466
3.148343822
3.277109899
3.39358741
3.513302356
3.650212343
3.817939675
4.02752212
4.285374146
4.571927401
4.801772607
4.886174892
4.810033569
3.995228837
3.282784152
3.24079815
3.508024357
3.444050684
3.320413163
3.109350847
2.857282942
2.688192343
2.596964447
2.7391466
2.554111003
2.43800378
2.343813765
2.308816356
2.600793364
2.753110384
2.973892944
3.101360346
3.219193716
3.33431186
3.456098472
3.598424619
3.782363706
4.024308527
4.318632883
4.617540945
4.866839019
5.041521589
5.027407466
3.894169511
2.911110687
2.948683278
3.401982902
3.356239578
3.25775991
3.047992488
2.776126094
2.600628178
2.493062564
2.742813504
2.377070287
2.20593807
2.178560024
2.189502184
2.575708073
2.733852035
2.945600137
3.051539994
3.15249604
3.261688027
3.381993346
3.512076113
3.66021667
3.830499237
4.006086042
4.134696087
4.13010828
3.95861432
3.571716841
2.722729528
2.621700048
2.864535419
3.332804897
3.238479952
3.167444308
2.978554483
2.683982318
2.482477219
2.498804225
2.887774617
2.173399121
1.815707533
1.946139874
2.016228413
2.506560599
2.685236087
2.900006882
2.989522997
3.077317634
3.191722612
3.339403118
3.512889884
3.716024345
3.950361751
4.190432983
4.369485663
4.371988796
4.083173477
3.492826927
2.910226775
2.657464548
2.857465349
3.252783077
3.091352304
3.033966231
2.891963579
2.592813368
2.385061628
2.219348848
1.70931131
1.375401819
1.370781914
1.788418157
1.924493806
2.37060471
2.585250255
2.821111314
2.900320283
2.971809329
3.079483443
3.235938808
3.425687371
3.643855887
3.880429827
4.089420992
4.200378976
4.174743515
3.992720623
3.662756787
3.239098973
2.715456768
2.819154916
3.232622082
2.910700058
2.803136376
2.728244592
2.458965702
2.286708123
2.002679363
2.411859866
1.708064539
0.828801618
1.560110042
1.745448366
2.165486527
2.43183061
2.714450131
2.797763404
2.865732565
2.9776323
3.165944366
3.408927101
3.675907292
3.92409603
4.10496707
4.18941389
4.162087813
4.010020705
3.742091122
3.377988507
2.957268373
3.057098256
3.350837744
2.647545445
2.423532655
2.392489232
2.17816084
1.999200128
1.932886808
2.993523993
2.27259259
1.62899944
1.848950235
2.193513504
1.941731022
2.273521343
2.615312079
2.716848779
2.785459063
2.869135101
3.00188135
3.17109846
3.372728173
3.606288773
3.833256938
3.998354308
4.044154844
3.958073261
3.718094232
3.322263873
2.85454572
2.697630766
2.790156018
1.095343739
1.05157182
1.931413159
1.996540335
1.823306698
1.733237554
2.156119535
2.244715051
2.1633786
2.207509748
2.376852563
1.938037859
2.286957609
2.629780305
2.734248454
2.813316675
2.892829333
2.992651498
3.109602644
3.254090126
3.448514091
3.666298362
3.854775321
3.954315563
3.903657718
3.658292067
3.229873946
2.671871377
2.161872115
2.024092749
1.576256378
1.653691012
2.285180617
2.109298725
1.825662378
2.121492345
2.48478107
2.636366817
2.556965621
2.517446314
2.543908583
2.021888895
2.348932216
2.725421326
2.841762172
2.918059571
2.976934029
3.030913147
3.081644604
3.150603258
3.274735784
3.470869016
3.672790561
3.803735286
3.795593033
3.598739225
3.261723673
2.847024894
2.304083599
1.506523668
1.342563461
1.745069827
2.593508431
2.239139959
1.904529577
1.698892357
2.249519541
2.585859555
2.686837969
2.683049033
2.652254083
2.140396216
2.439495348
2.824986007
2.958064394
3.020767141
3.054596813
3.078516199
3.092788599
3.113560415
3.1629423
3.257138751
3.402044809
3.534949061
3.577841025
3.468733782
3.243524314
2.943746697
2.506021536
2.038442709
2.140030459
2.469173849
3.387969848
2.489084864
2.157257696
2.808066352
2.737734252
)
;
    }
    region0_to_wallFilmRegion_mirrorFace
    {
        type            convectiveHeatTransfer;
        L               1;
        value           nonuniform List<scalar> 
703
(
4.101012184
4.200972541
4.352225779
4.512709191
4.713117327
4.98679327
5.474318257
5.319794919
5.269311627
5.080022139
4.182171932
4.212306213
4.378029668
4.450008299
4.568710255
5.236512147
10.38227008
5.045739413
4.900666046
4.787732572
4.235298459
4.35183187
5.548791865
4.157001764
4.108767363
4.286838459
4.54512515
4.206438094
4.192586459
4.364495236
3.194125928
3.404093824
2.614266078
2.319064237
1.86920176
1.963993223
2.754843586
2.260732662
2.422770478
2.852212192
2.540449451
2.591733057
2.727954824
2.587974776
2.539401859
2.652238234
2.449464566
2.476907575
2.663439037
3.675111632
2.936608158
3.272404608
3.586270797
3.883311225
2.531837658
3.765005848
3.183049698
3.857514752
2.712242332
4.041904921
3.662540152
4.125142675
4.060880204
4.077735805
1.85608348
1.374884513
2.239807188
2.388599954
2.372753028
2.23207505
2.425935837
2.568082371
2.628742591
2.322306636
2.559825379
2.478958775
2.207026053
2.405314399
2.338913134
2.126726117
2.280446411
2.231124794
1.990504767
2.188995332
2.136445974
1.708575742
2.183458443
2.319200624
2.281791394
2.403226171
2.372165005
2.30975567
2.372762835
2.379266756
2.315414903
2.37924685
2.376130539
1.276975826
2.197569713
1.544026282
1.554256962
1.9213686
1.459939171
2.499626144
2.278032121
2.551573275
2.454080106
2.445271999
2.423372706
2.31594402
2.358291219
2.281270778
2.183162195
2.201120816
2.127249941
2.086077218
2.067950547
2.034588501
2.109363822
2.031156461
2.082172655
2.26022399
2.138976604
2.18527226
2.333952794
2.236286316
2.292099878
1.919560603
2.185943707
2.534295731
2.468531852
2.426401232
2.014052052
2.33389252
1.865549655
2.157154595
2.335613037
2.246066519
2.250681186
2.208130225
2.198910152
2.115681105
2.036216432
2.01702725
1.918352261
1.928679518
1.836272482
1.788897453
1.95552367
1.781282533
1.813448864
2.073581928
1.86993906
2.270519458
1.742056334
2.062301012
2.14838862
2.156623938
2.217020847
2.23704856
2.220809459
2.217476872
2.186229725
2.185409974
2.121739324
2.013018107
2.02800796
1.908281926
1.77794487
1.769312059
1.622767182
1.61624096
1.490853328
1.411869471
1.652207322
1.412836286
1.482608
1.94696973
1.464983686
1.87613744
2.192954214
2.017066424
2.164327489
2.198266757
2.195429304
2.172001386
2.064627886
2.113971696
2.024509633
1.815240244
1.905759067
1.758297854
1.473409443
1.582964977
1.382954061
1.189114025
1.176099408
1.039568619
4.06063549
4.072449844
4.112128695
4.132275962
4.164448002
4.213323357
4.209602872
4.264357981
4.321058182
4.335992509
4.389203194
4.472173815
4.535277993
4.571028327
4.686735631
4.822627433
4.820880773
4.965526133
5.151943024
5.113215881
5.246907096
5.321464355
5.356924268
5.404815519
5.18535586
5.43757947
5.289318688
4.820093054
5.132440055
4.971944814
4.641522787
4.859635075
4.766656887
1.882032327
2.203532089
1.831454418
2.198411054
1.918815229
2.011381896
2.382848895
2.122982329
2.189640798
2.366619106
2.223302019
2.190904357
2.326699739
2.114894911
2.196440918
4.106640358
4.218172398
4.341676268
4.504079657
4.728131217
5.001764518
5.249391006
5.38112812
5.279306362
4.998770897
4.047022026
4.31138567
4.393368558
4.489180952
4.604928847
5.250769353
5.265312576
5.280327125
5.254805434
1.794624573
2.686235626
1.988547306
1.869113352
1.792101131
1.787467157
2.009942317
1.837457009
1.861586388
2.011833756
1.879177706
1.851610783
2.088266743
1.822072028
2.025299304
4.1256486
4.1287554
4.102009473
4.275788986
4.172103606
4.244212436
4.429787316
4.60591453
4.832619491
5.18764167
5.028866349
5.513100837
5.347646532
6.587624923
5.309796112
5.187779651
5.100434942
5.020937671
4.957362955
4.926128254
4.819973883
1.760607722
2.594207471
2.0709481
1.786892776
1.871424603
1.821200518
1.753726722
1.706880368
1.741976603
2.056603511
2.073335937
2.296636593
4.218890709
4.152831658
4.29448696
4.255243975
4.392256699
4.442983971
4.562832589
4.496948609
5.222449084
6.255192583
5.939858311
4.572325625
4.578909255
4.719616978
4.590148591
4.596049956
2.347870967
3.389427385
3.165371501
2.203413125
2.908506509
2.875267251
2.644908504
3.038140635
3.165260569
3.362390925
4.139688036
3.859055902
3.842547476
3.873696507
3.040410016
3.537087954
3.891483049
2.51922728
3.921071616
2.321181108
3.885592175
2.556116824
3.908600986
2.394513233
4.00572586
2.225372004
4.201321961
2.376897801
4.58459304
2.949224368
4.965679547
2.468655356
5.16494172
1.660275524
4.458122552
1.90017146
4.216958957
2.487712066
1.110615851
2.133902874
2.457600443
2.381556587
2.261385313
2.161728638
2.094436537
1.644203512
2.196759379
2.286151683
2.312723662
2.613813599
2.086148514
1.38327002
2.274648659
2.517081475
2.387908571
2.24591341
2.129164505
2.059555804
2.215606103
2.298227542
2.845463856
2.18497447
2.097928977
2.024199244
2.33611295
2.284289802
2.120822772
1.96748591
1.922154787
2.012253946
2.784852789
2.220290589
1.866435037
2.228491867
2.22659941
2.112905052
1.896725342
1.676083592
1.609783316
2.63722901
1.586169156
2.054870596
2.220168784
2.146503471
1.953598904
1.652761325
1.298996315
3.524229375
4.027624733
4.099134474
4.167436617
4.264385896
4.425870624
4.66901364
4.987444564
5.284144471
5.395983415
4.992592358
4.718456779
2.030673876
2.05397577
2.317757852
2.405503441
2.280140488
3.955164186
4.077269948
4.162281059
4.104226171
4.277379711
4.238230934
4.416011693
4.607879812
4.862299265
4.891173991
5.139750959
5.237435276
5.33356007
5.391139695
5.144794387
5.05154081
2.388992707
1.83018009
1.956902045
2.041826289
1.954029837
3.204990415
1.996795237
1.776868087
1.78060005
1.779632503
3.33277048
2.406776043
2.155086604
2.498860938
2.815070973
4.222063749
4.290176541
4.116299115
4.089471631
5.210843574
5.518528938
3.949741755
3.217139404
3.321766637
3.257970229
3.552378256
3.168209305
3.757850689
3.189668357
3.312086328
4.057913514
4.047573399
3.460981893
3.123557139
2.4435133
2.54679564
2.623839588
2.503623491
2.155413764
1.801049014
4.090954683
3.918886125
3.191170807
2.99171726
2.948136323
3.018323664
3.026558515
2.887865322
2.587898787
2.331350808
4.07222849
3.851278249
3.240317723
3.911968374
2.044937455
2.522401211
3.952898768
3.969547484
2.488656096
3.891873836
2.829684186
2.672206971
3.987913054
3.996718547
2.614689264
3.887022741
2.587707039
2.585366724
4.010441399
4.032527987
2.468359212
3.94653984
2.547490006
2.47607878
4.069304918
4.124546206
2.29154763
4.088463913
2.399802751
2.347969797
4.20085866
4.299837902
2.211656772
4.369891087
2.313026472
2.296703572
4.426731055
4.588971892
2.634913014
4.859197858
2.280893295
2.246558788
4.775489127
4.98359034
2.623904402
4.985944973
1.945005639
1.560983974
5.114868903
5.106928938
2.15418623
4.75276039
2.014405652
2.373153069
5.265337693
4.961435871
1.658334597
4.285553704
2.38864712
2.424579629
4.726546801
4.552139859
2.136908078
4.199283567
2.426810033
2.447317893
4.464418211
4.414305895
4.044624998
4.168416073
4.746441719
5.050536138
5.166570728
4.920699869
4.318643998
4.389491736
4.456961896
4.53945281
4.646334267
4.796976618
5.484500862
5.261310583
5.17207923
4.137202782
4.707284111
6.804389109
4.943783607
4.848066819
4.694796433
4.392305657
4.399051757
4.402893667
4.502454654
4.805106082
5.22540937
4.772264869
4.588991815
4.180164978
4.738663629
4.429765198
5.317845407
6.635120799
6.599599753
9.142404425
4.193166275
3.750150414
4.173702019
3.76741149
4.410631806
3.89160799
4.365753253
3.658503972
3.468671525
4.149574228
3.636519593
4.252664719
4.454768534
4.083323902
4.221721301
3.971771223
4.096691366
3.757170544
4.419298551
3.626825313
3.513679896
6.661198244
3.429934482
3.387190554
3.23312363
2.658126659
2.616622914
3.290526779
2.736205237
2.822582043
3.314524638
2.864893228
2.850739776
3.183959946
2.769682187
2.653589594
3.172447633
2.56301958
2.503917002
3.232987057
2.442732284
2.364410497
3.992409707
2.226502011
2.286242526
3.625061387
3.980855563
3.47804551
3.325480167
3.254401816
3.089739211
2.782725822
2.984415693
2.855302363
2.502034933
2.713013902
2.712858617
2.597401676
2.73256732
2.752100363
2.598796171
2.751354315
2.711391861
2.345840446
2.617368829
2.466946644
1.973835386
2.272235026
2.07780334
1.700931917
1.930874324
1.973235816
3.397575134
3.87844862
3.420886893
3.054722849
3.267565331
3.183837779
2.963480989
3.166391766
3.185165045
2.98126092
3.223150765
3.27857721
3.037133592
3.32474278
3.342994444
2.978928214
3.327227343
3.27656886
2.753805397
3.190406473
3.073333681
2.429155234
2.939278263
2.818381649
2.386378268
2.753639521
2.789540805
3.506048621
)
;
    }
    procBoundary2to0
    {
        type            processor;
        value           uniform 0;
    }
    procBoundary2to1
    {
        type            processor;
        value           uniform 0;
    }
    procBoundary2to3
    {
        type            processor;
        value           uniform 0;
    }
}


// ************************************************************************* //
