/*--------------------------------*- C++ -*----------------------------------*\
  =========                 |
  \\      /  F ield         | OpenFOAM: The Open Source CFD Toolbox
   \\    /   O peration     | Website:  https://openfoam.org
    \\  /    A nd           | Version:  8
     \\/     M anipulation  |
\*---------------------------------------------------------------------------*/
FoamFile
{
    version     2.0;
    format      ascii;
    class       volScalarField;
    location    "2";
    object      p;
}
// * * * * * * * * * * * * * * * * * * * * * * * * * * * * * * * * * * * * * //

dimensions      [1 -1 -2 0 0 0 0];

internalField   nonuniform List<scalar> 
67410
(
100004.0813
100004.0656
100004.0581
100004.047
100004.0341
100004.0192
100004.004
100003.9898
100003.9781
100003.9697
100003.9649
100003.9636
100003.9654
100003.9696
100003.9755
100003.9824
100003.9897
100003.9966
100004.0015
100004.0034
100004.0038
100004.0074
100004.0174
100004.0366
100004.0537
100004.0694
100004.0682
100004.0571
100004.0456
100004.0286
100004.0084
100003.9859
100003.9628
100003.9406
100003.9208
100003.9043
100003.8921
100003.8843
100003.8808
100003.8809
100003.884
100003.8893
100003.8955
100003.9014
100003.9055
100003.9079
100003.9098
100003.9132
100003.9179
100003.9191
100003.9313
100003.9424
100004.0612
100004.0495
100004.0371
100004.0163
100003.9912
100003.9634
100003.9353
100003.9085
100003.8844
100003.8642
100003.8486
100003.8376
100003.8312
100003.8286
100003.8293
100003.8325
100003.8375
100003.8429
100003.8476
100003.8509
100003.8533
100003.8569
100003.862
100003.8646
100003.8699
100003.8744
100004.0498
100004.0373
100004.0228
100003.9982
100003.968
100003.9347
100003.9014
100003.8703
100003.843
100003.8203
100003.8028
100003.7904
100003.7825
100003.7785
100003.7775
100003.779
100003.7825
100003.7876
100003.7929
100003.7979
100003.8009
100003.8048
100003.8071
100003.8104
100003.8142
100003.8154
100004.0403
100004.0248
100004.0079
100003.9794
100003.9447
100003.9068
100003.8696
100003.8357
100003.8068
100003.7836
100003.766
100003.7537
100003.7458
100003.7414
100003.7397
100003.7398
100003.7418
100003.7455
100003.7505
100003.7574
100003.7612
100003.7648
100003.7662
100003.7678
100003.7704
100003.7709
100004.0313
100004.0124
100003.9926
100003.9601
100003.9219
100003.88
100003.8397
100003.8041
100003.7748
100003.752
100003.7355
100003.7245
100003.7178
100003.7143
100003.7129
100003.7125
100003.7131
100003.7149
100003.7176
100003.7257
100003.7305
100003.7369
100003.735
100003.7355
100003.7369
100003.7383
100004.0228
100004.0009
100003.9777
100003.9413
100003.9014
100003.8564
100003.8136
100003.7768
100003.7474
100003.7255
100003.7105
100003.7013
100003.6966
100003.6951
100003.6949
100003.695
100003.6947
100003.6956
100003.6934
100003.7021
100003.7055
100003.7176
100003.7153
100003.7152
100003.7139
100003.7157
100004.0138
100003.9905
100003.9631
100003.9216
100003.886
100003.8388
100003.7934
100003.7547
100003.7246
100003.7032
100003.6896
100003.6825
100003.6805
100003.6816
100003.6839
100003.6854
100003.6849
100003.6852
100003.677
100003.6867
100003.6845
100003.6997
100003.7019
100003.7051
100003.7027
100003.7029
100004.0021
100003.9819
100003.9478
100003.8935
100003.8973
100003.8441
100003.7847
100003.7389
100003.7057
100003.6839
100003.6716
100003.6673
100003.6686
100003.6732
100003.6786
100003.6823
100003.6814
100003.6797
100003.6664
100003.6785
100003.6661
100003.6769
100003.6881
100003.7019
100003.7025
100003.7001
100003.9942
100003.9855
100003.9399
100003.8466
100003.9914
100003.9084
100003.7869
100003.725
100003.6881
100003.6664
100003.6567
100003.6562
100003.6618
100003.6706
100003.6799
100003.6854
100003.6807
100003.6731
100003.6594
100003.6746
100003.6486
100003.6537
100003.6693
100003.6954
100003.7098
100003.7089
100004.0016
100004.0149
100003.9683
100003.8895
100003.8513
100003.8071
100003.7481
100003.7011
100003.6695
100003.6513
100003.6467
100003.6516
100003.6628
100003.6771
100003.6908
100003.6943
100003.6775
100003.6514
100003.6567
100003.6798
100003.6411
100003.6364
100003.6467
100003.6861
100003.7155
100003.7264
100004.029
100003.9906
100003.9553
100003.8968
100003.8391
100003.7781
100003.7232
100003.6814
100003.6542
100003.6425
100003.6444
100003.6562
100003.6748
100003.6973
100003.7164
100003.7191
100003.7057
100003.6612
100003.6816
100003.7265
100003.6845
100003.6841
100003.6437
100003.6836
100003.7198
100003.7416
100003.9956
100003.9814
100003.9522
100003.8957
100003.8288
100003.7634
100003.7101
100003.6715
100003.6488
100003.6427
100003.651
100003.6706
100003.6992
100003.7328
100003.7645
100003.8076
100003.8806
100003.8264
100003.7887
100003.8614
100003.8109
100003.8087
100003.6953
100003.7062
100003.7363
100003.7543
100004.0187
100003.9862
100003.9553
100003.8974
100003.827
100003.7603
100003.7074
100003.6713
100003.6521
100003.6506
100003.6647
100003.6916
100003.7304
100003.7763
100003.8412
100003.9966
100004.2621
100004.202
100003.9962
100004.0674
100003.9989
100003.9781
100003.8019
100003.7697
100003.7821
100003.778
100004.022
100003.9888
100003.9578
100003.9004
100003.8298
100003.762
100003.7094
100003.6748
100003.6605
100003.6646
100003.6823
100003.712
100003.7551
100003.8097
100003.9101
100004.1604
100004.5506
100004.5076
100004.2096
100004.226
100004.1737
100004.1275
100003.9272
100003.8733
100003.8747
100003.8296
100004.0259
100003.991
100003.9621
100003.909
100003.8434
100003.7787
100003.7268
100003.6935
100003.6817
100003.6892
100003.7059
100003.7265
100003.7634
100003.8131
100003.8992
100004.0694
100004.292
100004.3489
100004.245
100004.261
100004.2599
100004.2068
100004.0218
100003.9734
100003.9815
100003.9077
100004.0304
100003.9931
100003.9688
100003.9232
100003.8656
100003.8057
100003.7562
100003.7265
100003.7201
100003.7382
100003.7549
100003.7451
100003.7671
100003.7996
100003.8506
100003.9195
100004.0061
100004.0936
100004.1691
100004.2373
100004.2715
100004.2274
100004.0748
100004.0399
100004.0533
100003.9748
100004.0386
100003.9978
100003.9797
100003.9451
100003.8999
100003.8477
100003.8011
100003.7751
100003.7848
100003.8176
100003.8516
100003.7662
100003.7623
100003.7752
100003.8135
100003.8732
100003.9506
100004.0349
100004.1083
100004.2004
100004.2669
100004.2403
100004.0894
100004.0636
100004.0712
100004.0141
100004.054
100004.009
100003.9962
100003.9734
100003.9437
100003.9054
100003.8733
100003.8583
100003.8502
100003.8488
100003.9591
100003.7969
100003.8266
100003.7685
100003.7754
100003.8106
100003.8739
100003.9529
100004.0425
100004.1471
100004.2347
100004.1975
100004.0481
100004.0565
100004.0905
100004.0693
100004.0764
100004.0284
100004.0202
100004.0072
100003.9886
100003.95
100003.8867
100003.8431
100003.9373
100004.1555
100004.2699
100003.8548
100003.878
100003.7825
100003.7722
100003.7815
100003.8134
100003.8627
100003.9306
100004.0095
100004.0721
100004.064
100004.0167
100004.0486
100004.087
100004.1002
100004.0996
100004.0514
100004.0498
100004.0493
100004.0674
100004.1166
100004.0938
100003.8651
100003.7639
100004.4255
100004.0485
100003.6534
100004.2041
100003.8189
100003.8394
100003.8008
100003.8078
100003.8362
100003.8804
100003.9382
100003.9975
100004.027
100004.0199
100004.0597
100004.0975
100004.146
100004.1156
100004.0712
100004.068
100004.0449
100004.0053
100003.9581
100003.895
100003.8019
100003.7123
100003.714
100003.6617
100003.7701
100003.8272
100003.8173
100003.8181
100003.8184
100003.8318
100003.8572
100003.8904
100003.9275
100003.9645
100004.0025
100004.0182
100004.0566
100004.082
100004.2018
100004.129
100004.0888
100004.079
100004.0411
100003.9875
100003.9641
100003.9841
100004.013
100004.022
100003.9706
100003.8306
100003.8226
100003.9104
100003.863
100003.8529
100003.8477
100003.8625
100003.8947
100003.9316
100003.971
100003.9911
100004.0119
100004.0183
100004.0398
100004.0454
100004.112
100004.1177
100004.0945
100004.0661
100004.0123
100003.9752
100003.9893
100003.9907
100003.9337
100003.9109
100003.926
100003.8874
100003.8364
100003.8484
100003.8519
100003.8508
100003.8562
100003.8779
100003.9308
100003.9845
100004.0333
100004.068
100004.1003
100004.0558
100004.0972
100004.0537
100004.071
100004.1345
100004.1172
100004.0733
100003.9885
100003.946
100004
100004.052
100003.9734
100003.9599
100003.9623
100003.9221
100003.8895
100003.8752
100003.8563
100003.846
100003.8451
100003.8747
100004.0219
100004.1082
100004.3847
100004.1623
100004.141
100004.0678
100004.1894
100004.0441
100004.0699
100004.066
100004.0509
100004.0233
100003.9838
100003.9464
100003.9445
100003.9486
100003.9471
100003.9389
100003.9192
100003.8993
100003.8878
100003.887
100003.8705
100003.874
100003.9002
100003.9539
100004.0124
100004.0332
100004.0552
100004.1277
100004.0391
100004.0819
100003.9949
100004.0659
100004.0605
100004.0559
100004.0482
100004.04
100004.0223
100004.0151
100004.0191
100004.023
100004.021
100004.004
100003.9693
100003.9346
100003.9097
100003.8963
100003.8957
100003.9126
100003.9457
100003.9808
100004.0154
100004.0211
100004.0201
100003.9779
100003.9529
100003.9185
100004.0642
100004.0534
100004.0497
100004.0453
100004.0523
100004.0605
100004.0713
100004.0828
100004.1011
100004.1239
100004.1263
100004.0773
100004.0207
100003.974
100003.9499
100003.9356
100003.9393
100003.9538
100003.9726
100003.98
100003.9954
100004.0092
100003.955
100003.9248
100003.8753
100004.0839
100004.0565
100004.0493
100004.0469
100004.061
100004.0874
100004.1176
100004.1599
100004.2316
100004.3264
100004.3852
100004.2781
100004.1628
100004.0962
100004.0864
100004.0146
100003.979
100003.9692
100003.9782
100003.9853
100004.0249
100004.0171
100003.9473
100003.9026
100003.8547
100003.8176
100004.1017
100004.0483
100004.0485
100004.059
100004.078
100004.1111
100004.1633
100004.2462
100004.3787
100004.5706
100004.7434
100004.4835
100004.2578
100004.1144
100004.0757
100004.0023
100003.9731
100003.9691
100003.9751
100003.9799
100004.0028
100004.017
100003.9249
100003.882
100003.8462
100003.818
100003.9573
100003.9424
100003.9346
100003.9218
100003.9064
100003.8883
100003.8691
100003.8506
100003.8346
100003.8222
100003.8142
100003.8108
100003.8116
100003.8163
100003.8242
100003.8346
100003.8458
100003.8548
100003.8581
100003.8546
100003.8469
100003.8408
100003.8433
100003.8564
100003.8791
100003.8994
100003.9448
100003.9344
100003.9224
100003.9041
100003.882
100003.8567
100003.8304
100003.8049
100003.782
100003.7628
100003.7482
100003.7386
100003.7341
100003.7344
100003.7387
100003.746
100003.7544
100003.761
100003.7633
100003.7615
100003.7578
100003.7563
100003.757
100003.7554
100003.7694
100003.7838
100003.9372
100003.9258
100003.9128
100003.8903
100003.863
100003.8328
100003.8022
100003.7732
100003.747
100003.7247
100003.7071
100003.6945
100003.687
100003.6841
100003.6852
100003.6895
100003.6956
100003.7015
100003.7049
100003.7048
100003.703
100003.7029
100003.7048
100003.7067
100003.7135
100003.72
100003.9238
100003.9122
100003.8968
100003.8704
100003.8379
100003.8025
100003.7674
100003.7349
100003.7061
100003.6819
100003.6628
100003.6489
100003.6399
100003.6351
100003.634
100003.6358
100003.6399
100003.6455
100003.6507
100003.6539
100003.6543
100003.6537
100003.6548
100003.6575
100003.6618
100003.6639
100003.9118
100003.8977
100003.88
100003.8495
100003.8126
100003.7729
100003.7345
100003.6997
100003.6699
100003.6455
100003.6266
100003.6129
100003.6036
100003.5979
100003.5952
100003.595
100003.597
100003.6015
100003.6078
100003.6144
100003.6179
100003.6187
100003.6174
100003.619
100003.6211
100003.6212
100003.8989
100003.8825
100003.8622
100003.8275
100003.7869
100003.7441
100003.7032
100003.6671
100003.637
100003.6133
100003.5954
100003.5825
100003.5736
100003.5678
100003.5647
100003.5632
100003.5627
100003.5664
100003.5724
100003.5812
100003.588
100003.5924
100003.592
100003.5915
100003.5901
100003.5909
100003.8848
100003.8667
100003.8437
100003.8048
100003.7619
100003.7176
100003.6748
100003.638
100003.608
100003.585
100003.5681
100003.556
100003.5484
100003.5439
100003.5413
100003.5396
100003.5384
100003.5388
100003.5441
100003.5529
100003.5597
100003.5679
100003.5725
100003.5724
100003.5695
100003.5694
100003.8689
100003.8501
100003.824
100003.7803
100003.7367
100003.6942
100003.6499
100003.6126
100003.5822
100003.5594
100003.543
100003.5326
100003.5267
100003.5237
100003.5219
100003.5201
100003.5181
100003.5172
100003.5223
100003.5302
100003.5312
100003.5362
100003.5522
100003.56
100003.5576
100003.5558
100003.8498
100003.8318
100003.8017
100003.7479
100003.702
100003.6785
100003.6294
100003.5903
100003.5585
100003.5353
100003.5201
100003.5114
100003.5073
100003.5055
100003.504
100003.5011
100003.4969
100003.4957
100003.506
100003.5117
100003.5008
100003.4909
100003.5222
100003.548
100003.5554
100003.5536
100003.8229
100003.8064
100003.7786
100003.7019
100003.6291
100003.6755
100003.6109
100003.568
100003.5351
100003.5126
100003.4992
100003.4924
100003.49
100003.4889
100003.4861
100003.4788
100003.4671
100003.4578
100003.4894
100003.4919
100003.4697
100003.4421
100003.479
100003.5266
100003.5563
100003.56
100003.7924
100003.7814
100003.7848
100003.7294
100003.6734
100003.6324
100003.5827
100003.5421
100003.5117
100003.4925
100003.4813
100003.4769
100003.4762
100003.4749
100003.4677
100003.4503
100003.4252
100003.3989
100003.4735
100003.4749
100003.4544
100003.4292
100003.4414
100003.4945
100003.5499
100003.5714
100003.7861
100003.7967
100003.7868
100003.7343
100003.6734
100003.6123
100003.559
100003.5209
100003.4937
100003.4765
100003.468
100003.4665
100003.4676
100003.4651
100003.4494
100003.4183
100003.3838
100003.3425
100003.4741
100003.4782
100003.4646
100003.4391
100003.4346
100003.4698
100003.5348
100003.5754
100003.8336
100003.8173
100003.7934
100003.7354
100003.6634
100003.5926
100003.5407
100003.5078
100003.4818
100003.4654
100003.4599
100003.4617
100003.4651
100003.4605
100003.4366
100003.4046
100003.3909
100003.3487
100003.5239
100003.5385
100003.5201
100003.4851
100003.4622
100003.4764
100003.5296
100003.5709
100003.8536
100003.8275
100003.7982
100003.7354
100003.6561
100003.5819
100003.5343
100003.5008
100003.4734
100003.4584
100003.4558
100003.4609
100003.4665
100003.4609
100003.4394
100003.4354
100003.4742
100003.4373
100003.6306
100003.6552
100003.6207
100003.5689
100003.5269
100003.5331
100003.5671
100003.581
100003.8624
100003.8327
100003.802
100003.7399
100003.6622
100003.5893
100003.5345
100003.4941
100003.4662
100003.4524
100003.4523
100003.4605
100003.4687
100003.4668
100003.4597
100003.4897
100003.5638
100003.5573
100003.7576
100003.7826
100003.7366
100003.6695
100003.6167
100003.6189
100003.636
100003.6253
100003.8678
100003.8348
100003.8051
100003.7463
100003.6711
100003.5983
100003.5394
100003.4926
100003.4593
100003.4438
100003.4464
100003.4595
100003.4745
100003.4873
100003.502
100003.5397
100003.6032
100003.6615
100003.8402
100003.858
100003.8239
100003.7527
100003.7085
100003.7153
100003.7118
100003.6843
100003.871
100003.8356
100003.8106
100003.7595
100003.6899
100003.616
100003.5488
100003.4895
100003.4465
100003.4295
100003.4373
100003.4564
100003.4764
100003.5046
100003.5444
100003.6026
100003.6757
100003.7631
100003.8635
100003.8907
100003.8711
100003.7981
100003.7716
100003.7887
100003.7716
100003.742
100003.8755
100003.8384
100003.8206
100003.7813
100003.7203
100003.6415
100003.5577
100003.4781
100003.4258
100003.4158
100003.4271
100003.4536
100003.4662
100003.4949
100003.5363
100003.5929
100003.6657
100003.7511
100003.8267
100003.8619
100003.8563
100003.7933
100003.7806
100003.8115
100003.809
100003.7976
100003.885
100003.8481
100003.836
100003.8088
100003.7586
100003.6723
100003.5538
100003.3983
100003.2297
100003.1521
100003.2384
100003.4511
100003.4691
100003.4927
100003.5239
100003.5649
100003.615
100003.6673
100003.7135
100003.7526
100003.7712
100003.7363
100003.735
100003.784
100003.8308
100003.8495
100003.9007
100003.8657
100003.8562
100003.8353
100003.7927
100003.6979
100003.5433
100003.3249
100003.0188
100003.0034
100003.1523
100003.5808
100003.5176
100003.5184
100003.5337
100003.5611
100003.5966
100003.6369
100003.6782
100003.7178
100003.7468
100003.7538
100003.8124
100003.8473
100003.8574
100003.8613
100003.9163
100003.8858
100003.878
100003.8525
100003.7935
100003.6629
100003.3487
100002.7317
100002.5634
100002.9685
100002.9751
100003.617
100003.6073
100003.5779
100003.5827
100003.5895
100003.6081
100003.6344
100003.6667
100003.7027
100003.7346
100003.7546
100003.804
100003.8545
100003.8624
100003.8306
100003.9248
100003.8997
100003.8888
100003.8469
100003.7686
100003.6747
100003.5762
100003.4872
100003.3323
100003.2513
100003.3787
100003.6837
100003.689
100003.6556
100003.6421
100003.6413
100003.6517
100003.6694
100003.693
100003.7218
100003.7505
100003.7737
100003.8193
100003.8162
100003.7907
100003.77
100003.9296
100003.9041
100003.8727
100003.8138
100003.7537
100003.6947
100003.618
100003.5599
100003.4961
100003.4294
100003.4777
100003.6046
100003.6594
100003.6737
100003.6782
100003.678
100003.6865
100003.7056
100003.734
100003.7691
100003.8083
100003.8347
100003.8471
100003.8437
100003.8264
100003.82
100003.9361
100003.8938
100003.8225
100003.7916
100003.7773
100003.7363
100003.6858
100003.6505
100003.649
100003.6249
100003.6171
100003.6313
100003.636
100003.6575
100003.6823
100003.6897
100003.6993
100003.7187
100003.7639
100003.8378
100003.9621
100003.9621
100003.8843
100003.8359
100003.8168
100003.7953
100003.9296
100003.8865
100003.7707
100003.7375
100003.7542
100003.74
100003.7104
100003.6791
100003.6916
100003.7109
100003.693
100003.6874
100003.6804
100003.6669
100003.6648
100003.6658
100003.6556
100003.6403
100003.7208
100003.7496
100003.8957
100004.0401
100003.8365
100003.6961
100003.79
100003.9105
100003.9004
100003.8789
100003.8185
100003.7522
100003.7296
100003.7247
100003.7294
100003.755
100003.7557
100003.7397
100003.7189
100003.6914
100003.678
100003.6921
100003.6872
100003.6959
100003.6992
100003.6885
100003.7913
100003.7949
100003.812
100003.7842
100003.7198
100003.7565
100003.9095
100003.9005
100003.8887
100003.8698
100003.8302
100003.7777
100003.7754
100003.8056
100003.8277
100003.8282
100003.8137
100003.7823
100003.7511
100003.7301
100003.7163
100003.7129
100003.7187
100003.7299
100003.7464
100003.7938
100003.8075
100003.7929
100003.7605
100003.7169
100003.7155
100003.9048
100003.891
100003.8842
100003.8775
100003.8805
100003.8797
100003.8825
100003.8919
100003.9063
100003.9228
100003.923
100003.8635
100003.8036
100003.7624
100003.7389
100003.7331
100003.7366
100003.7467
100003.7588
100003.7776
100003.7833
100003.8257
100003.7623
100003.7212
100003.6904
100003.8988
100003.874
100003.8754
100003.875
100003.8817
100003.9009
100003.927
100003.9614
100004.0252
100004.1206
100004.196
100004.0326
100003.9131
100003.8393
100003.7975
100003.7769
100003.7589
100003.7527
100003.7534
100003.7669
100003.7394
100003.871
100003.7492
100003.7182
100003.6811
100003.6463
100003.8849
100003.8652
100003.8769
100003.8784
100003.8906
100003.9139
100003.9496
100004.0045
100004.1218
100004.3529
100004.7063
100004.1987
100003.975
100003.8395
100003.7606
100003.7623
100003.75
100003.7471
100003.7405
100003.7699
100003.7673
100003.991
100003.7278
100003.7094
100003.6805
100003.6562
100003.7914
100003.777
100003.768
100003.7534
100003.7362
100003.7163
100003.6953
100003.6746
100003.6558
100003.6404
100003.6294
100003.6233
100003.6219
100003.6248
100003.6312
100003.6402
100003.6505
100003.6606
100003.6685
100003.6728
100003.6736
100003.6754
100003.6799
100003.6852
100003.6902
100003.6955
100003.7802
100003.77
100003.758
100003.7401
100003.7193
100003.6958
100003.6709
100003.6462
100003.6231
100003.6031
100003.5872
100003.5761
100003.57
100003.5685
100003.571
100003.5765
100003.5838
100003.5911
100003.597
100003.6009
100003.6043
100003.6084
100003.6116
100003.6105
100003.6134
100003.6161
100003.7722
100003.7609
100003.7483
100003.7277
100003.7038
100003.677
100003.6494
100003.6224
100003.5973
100003.5752
100003.5569
100003.5432
100003.5342
100003.5297
100003.5291
100003.5316
100003.5363
100003.5419
100003.547
100003.5512
100003.5551
100003.5593
100003.5629
100003.5643
100003.5654
100003.5654
100003.756
100003.7459
100003.7318
100003.7088
100003.6813
100003.6507
100003.6198
100003.5901
100003.5631
100003.5396
100003.5203
100003.5053
100003.4949
100003.4887
100003.4862
100003.4867
100003.4895
100003.494
100003.4992
100003.5045
100003.5095
100003.5144
100003.5189
100003.5207
100003.521
100003.5199
100003.7407
100003.7296
100003.714
100003.6882
100003.6575
100003.6238
100003.5902
100003.5588
100003.531
100003.5073
100003.4881
100003.4733
100003.4629
100003.4563
100003.4529
100003.4521
100003.4535
100003.4567
100003.4614
100003.4674
100003.4732
100003.4785
100003.4824
100003.4864
100003.4879
100003.4865
100003.7244
100003.7119
100003.6947
100003.6663
100003.6327
100003.5965
100003.5608
100003.5283
100003.5003
100003.4771
100003.4589
100003.4455
100003.4363
100003.4304
100003.4269
100003.4258
100003.427
100003.4283
100003.4318
100003.4376
100003.4439
100003.4503
100003.4548
100003.459
100003.4607
100003.4602
100003.7073
100003.6942
100003.6751
100003.6443
100003.6085
100003.571
100003.5335
100003.5004
100003.4724
100003.4501
100003.4334
100003.4218
100003.4137
100003.4084
100003.4056
100003.4047
100003.4055
100003.4074
100003.4094
100003.414
100003.4198
100003.4276
100003.4337
100003.4383
100003.4407
100003.4409
100003.6906
100003.677
100003.6557
100003.6229
100003.5855
100003.5481
100003.5088
100003.4754
100003.4476
100003.4264
100003.4114
100003.4009
100003.3937
100003.3898
100003.3884
100003.3884
100003.3894
100003.3912
100003.3936
100003.3964
100003.4
100003.4079
100003.4169
100003.4245
100003.4278
100003.4296
100003.6758
100003.661
100003.6355
100003.6012
100003.5627
100003.5304
100003.4871
100003.4535
100003.4259
100003.4057
100003.3918
100003.3821
100003.3768
100003.375
100003.3753
100003.3765
100003.378
100003.3797
100003.3822
100003.3851
100003.3854
100003.3917
100003.4029
100003.4156
100003.4226
100003.4254
100003.6638
100003.6482
100003.6167
100003.5787
100003.5383
100003.5182
100003.468
100003.4338
100003.4069
100003.3879
100003.3745
100003.3662
100003.3631
100003.3636
100003.3657
100003.368
100003.3695
100003.3709
100003.3753
100003.3795
100003.3766
100003.3806
100003.3927
100003.4103
100003.4235
100003.429
100003.6638
100003.6475
100003.6184
100003.5802
100003.5357
100003.4932
100003.4501
100003.4162
100003.3906
100003.3726
100003.36
100003.3538
100003.3532
100003.356
100003.3597
100003.3622
100003.363
100003.3637
100003.3725
100003.3794
100003.3704
100003.3722
100003.3877
100003.4092
100003.4286
100003.4396
100003.6758
100003.6457
100003.6177
100003.5753
100003.5266
100003.4791
100003.4362
100003.403
100003.3791
100003.3621
100003.3495
100003.3457
100003.3479
100003.3531
100003.3581
100003.361
100003.3628
100003.3645
100003.3795
100003.3924
100003.379
100003.3767
100003.3895
100003.417
100003.4385
100003.4549
100003.669
100003.6467
100003.6196
100003.5752
100003.522
100003.4708
100003.4276
100003.3954
100003.3714
100003.3534
100003.3436
100003.3424
100003.3474
100003.3551
100003.3626
100003.3708
100003.3825
100003.3911
100003.4125
100003.4322
100003.4139
100003.4043
100003.4077
100003.4384
100003.4575
100003.4743
100003.6725
100003.6496
100003.6232
100003.5773
100003.5222
100003.4691
100003.4253
100003.394
100003.3695
100003.3515
100003.3431
100003.3437
100003.3502
100003.3599
100003.3721
100003.3943
100003.4297
100003.4542
100003.4814
100003.5025
100003.4776
100003.4581
100003.4503
100003.4762
100003.4888
100003.4989
100003.678
100003.6554
100003.6295
100003.5844
100003.5298
100003.4759
100003.4302
100003.3973
100003.3742
100003.3573
100003.3492
100003.3489
100003.3535
100003.362
100003.3778
100003.4146
100003.4756
100003.5236
100003.5623
100003.5811
100003.5537
100003.5267
100003.5124
100003.53
100003.5322
100003.5325
100003.6856
100003.6638
100003.639
100003.5961
100003.5436
100003.4903
100003.4445
100003.412
100003.3913
100003.3761
100003.3668
100003.3624
100003.361
100003.3651
100003.3792
100003.4162
100003.4807
100003.5496
100003.6077
100003.6313
100003.6142
100003.588
100003.5772
100003.5898
100003.5841
100003.5767
100003.6966
100003.6759
100003.6536
100003.6151
100003.5663
100003.5144
100003.4691
100003.4378
100003.4229
100003.4141
100003.4062
100003.3955
100003.3844
100003.3842
100003.3983
100003.4326
100003.4887
100003.5574
100003.619
100003.6505
100003.6486
100003.6298
100003.6279
100003.6401
100003.6323
100003.6243
100003.713
100003.6943
100003.6756
100003.6424
100003.5978
100003.5466
100003.5008
100003.47
100003.4603
100003.4664
100003.4691
100003.4525
100003.4242
100003.4083
100003.4124
100003.4399
100003.4882
100003.5483
100003.6041
100003.6417
100003.6542
100003.6484
100003.6558
100003.6711
100003.6693
100003.6685
100003.7368
100003.7197
100003.7053
100003.6777
100003.6362
100003.5835
100003.5332
100003.4993
100003.498
100003.5248
100003.5532
100003.5392
100003.4934
100003.4508
100003.4309
100003.4377
100003.4661
100003.5083
100003.5545
100003.5968
100003.6266
100003.642
100003.6612
100003.6856
100003.6964
100003.7048
100003.7667
100003.751
100003.7418
100003.7195
100003.6793
100003.6236
100003.5677
100003.5342
100003.5472
100003.5841
100003.6515
100003.6542
100003.5903
100003.5138
100003.4709
100003.4573
100003.4683
100003.496
100003.5333
100003.5744
100003.6127
100003.6442
100003.6748
100003.701
100003.7122
100003.7198
100003.7987
100003.7861
100003.7826
100003.7657
100003.7223
100003.664
100003.6033
100003.5673
100003.5308
100003.5639
100003.6761
100003.7032
100003.687
100003.5629
100003.5106
100003.4903
100003.4918
100003.5092
100003.5369
100003.572
100003.6107
100003.6491
100003.6812
100003.7071
100003.7153
100003.7141
100003.8273
100003.821
100003.8232
100003.8147
100003.7595
100003.7005
100003.6455
100003.6029
100003.5562
100003.5325
100003.5673
100003.6194
100003.6388
100003.5725
100003.5336
100003.5173
100003.5189
100003.5332
100003.5552
100003.5839
100003.6235
100003.6697
100003.6903
100003.6991
100003.6923
100003.6863
100003.8417
100003.8442
100003.8549
100003.8693
100003.7917
100003.735
100003.6988
100003.6788
100003.6725
100003.656
100003.6321
100003.6221
100003.6066
100003.5719
100003.5483
100003.5387
100003.5432
100003.5581
100003.5769
100003.5994
100003.6495
100003.7078
100003.7024
100003.6968
100003.681
100003.6643
100003.827
100003.8259
100003.825
100003.8276
100003.7668
100003.6998
100003.6624
100003.6478
100003.6548
100003.6484
100003.6208
100003.6044
100003.5874
100003.5692
100003.556
100003.552
100003.5599
100003.5794
100003.6098
100003.6507
100003.7361
100003.9648
100003.7549
100003.7059
100003.6686
100003.6359
100003.8078
100003.8019
100003.7969
100003.8008
100003.7522
100003.6939
100003.6618
100003.6469
100003.6531
100003.6505
100003.6106
100003.5894
100003.5709
100003.5563
100003.5474
100003.5446
100003.5461
100003.5548
100003.5307
100003.3658
100003.564
100003.7062
100003.6702
100003.6498
100003.6363
100003.7833
100003.776
100003.7718
100003.7619
100003.7398
100003.7029
100003.6772
100003.6717
100003.6532
100003.6303
100003.6038
100003.5807
100003.5625
100003.5525
100003.5452
100003.5408
100003.5433
100003.5656
100003.5856
100003.6133
100003.626
100003.6159
100003.6339
100003.6003
100003.5997
100003.7733
100003.7646
100003.7612
100003.7534
100003.7376
100003.7139
100003.693
100003.6765
100003.661
100003.6437
100003.6226
100003.593
100003.5718
100003.5586
100003.5509
100003.5523
100003.559
100003.572
100003.5849
100003.6002
100003.6168
100003.6196
100003.6086
100003.5785
100003.564
100003.767
100003.7589
100003.7609
100003.7569
100003.7489
100003.7346
100003.7186
100003.7044
100003.6908
100003.6776
100003.6593
100003.6056
100003.5798
100003.5628
100003.5453
100003.5543
100003.5646
100003.5793
100003.5935
100003.6127
100003.6229
100003.6608
100003.6095
100003.5759
100003.5446
100003.7705
100003.7611
100003.765
100003.7644
100003.7613
100003.7579
100003.7554
100003.7586
100003.7724
100003.7937
100003.7856
100003.6258
100003.5993
100003.5718
100003.5195
100003.5593
100003.5671
100003.5804
100003.5909
100003.6224
100003.6319
100003.9738
100003.6132
100003.5806
100003.5368
100003.5036
100003.7711
100003.7616
100003.7595
100003.7578
100003.7646
100003.7786
100003.7864
100003.7911
100003.792
100003.7816
100003.5659
100003.3814
100003.5225
100003.5392
100003.5093
100003.5599
100003.5694
100003.5851
100003.5794
100003.5988
100003.6
100003.6035
100003.5581
100003.5509
100003.5254
100003.5026
100003.6208
100003.6075
100003.5986
100003.5836
100003.5662
100003.5461
100003.5245
100003.5028
100003.4823
100003.4644
100003.4504
100003.441
100003.4364
100003.4363
100003.4401
100003.4466
100003.4546
100003.4629
100003.47
100003.4747
100003.4768
100003.4786
100003.481
100003.4836
100003.4852
100003.4854
100003.6108
100003.6014
100003.5901
100003.5728
100003.5533
100003.5311
100003.5074
100003.4833
100003.4601
100003.439
100003.4214
100003.408
100003.3993
100003.3951
100003.3949
100003.3977
100003.4025
100003.4078
100003.4127
100003.4165
100003.4197
100003.4234
100003.4253
100003.4246
100003.4258
100003.4261
100003.6035
100003.5931
100003.5811
100003.5618
100003.5401
100003.5156
100003.4901
100003.4646
100003.4403
100003.418
100003.3987
100003.3832
100003.372
100003.3649
100003.3617
100003.3616
100003.3637
100003.367
100003.3706
100003.374
100003.3774
100003.3813
100003.3843
100003.3853
100003.3851
100003.3841
100003.5867
100003.5777
100003.565
100003.5442
100003.52
100003.4928
100003.4649
100003.4376
100003.4119
100003.3887
100003.3687
100003.3523
100003.3398
100003.3312
100003.3263
100003.3243
100003.3248
100003.327
100003.3303
100003.3341
100003.3383
100003.3428
100003.3462
100003.3474
100003.3467
100003.3455
100003.5703
100003.5611
100003.5474
100003.5247
100003.4982
100003.4685
100003.4386
100003.4099
100003.3837
100003.3604
100003.3404
100003.3241
100003.3116
100003.3027
100003.297
100003.294
100003.2934
100003.2948
100003.2977
100003.3019
100003.3066
100003.3115
100003.315
100003.3158
100003.3152
100003.3157
100003.5526
100003.5427
100003.528
100003.5036
100003.475
100003.4432
100003.4115