/*--------------------------------*- C++ -*----------------------------------*\
  =========                 |
  \\      /  F ield         | OpenFOAM: The Open Source CFD Toolbox
   \\    /   O peration     | Website:  https://openfoam.org
    \\  /    A nd           | Version:  8
     \\/     M anipulation  |
\*---------------------------------------------------------------------------*/
FoamFile
{
    version     2.0;
    format      ascii;
    class       volVectorField;
    location    "2";
    object      U;
}
// * * * * * * * * * * * * * * * * * * * * * * * * * * * * * * * * * * * * * //

dimensions      [0 1 -1 0 0 0 0];

internalField   nonuniform List<vector> 
67410
(
(-0.07298685008 0.002012470449 0.09501142203)
(-0.132987635 -0.04315036676 0.09739701116)
(-0.2027858519 -0.05958446021 0.1034636987)
(-0.2488774461 -0.07306010337 0.11338915)
(-0.2912912087 -0.08532390371 0.1238453843)
(-0.3296117367 -0.09723966699 0.1327246776)
(-0.3645255202 -0.1092004496 0.1392138515)
(-0.3944120076 -0.1210343117 0.1436858659)
(-0.4174474653 -0.1324764158 0.1466946522)
(-0.4322291265 -0.1432446152 0.14857399)
(-0.4380744584 -0.1529265554 0.1495147153)
(-0.4351474621 -0.1609840268 0.1498475656)
(-0.4245602099 -0.1669132022 0.1501840802)
(-0.4084742666 -0.1703853563 0.151476258)
(-0.3900369091 -0.171489605 0.1548748295)
(-0.3729856493 -0.1710972806 0.1610394401)
(-0.360464993 -0.1708683691 0.1686522704)
(-0.352831406 -0.1722024516 0.1724832443)
(-0.3459283572 -0.1739842988 0.1639243201)
(-0.332142933 -0.1717603898 0.1365927495)
(-0.3030014417 -0.1625061933 0.09236079492)
(-0.250884008 -0.1537770614 0.04097345846)
(-0.1717729299 -0.1660269131 0.004296408381)
(-0.05082703235 -0.2290614675 0.0389250543)
(0.03851827806 -0.2248443443 0.122379432)
(0.07157756012 -0.2188871893 0.1765232597)
(-0.004371938613 -0.06259062564 0.09443506502)
(-0.06910782654 -0.08803173666 0.09904847311)
(-0.1550907758 -0.1155365064 0.101861573)
(-0.2230223298 -0.1441448804 0.1036434153)
(-0.2832572159 -0.1665070541 0.1015743203)
(-0.3337753398 -0.1844435099 0.09695671471)
(-0.3755964985 -0.2012344075 0.09183709125)
(-0.4084837686 -0.218639023 0.08737750803)
(-0.4321620611 -0.2368777683 0.08366052184)
(-0.4463267239 -0.2551268181 0.08040162042)
(-0.4508996976 -0.2721781477 0.07741884779)
(-0.4463589312 -0.2868972774 0.07488795844)
(-0.433944952 -0.2984499899 0.07344107231)
(-0.4157623827 -0.3064079178 0.07407593419)
(-0.3948567773 -0.3108628519 0.07787294895)
(-0.3750107048 -0.3125919221 0.08511247943)
(-0.3600436445 -0.3129214053 0.09330885458)
(-0.3519558702 -0.31275664 0.09549895162)
(-0.3474961307 -0.31093412 0.08297105197)
(-0.3363477691 -0.3044128014 0.05366325794)
(-0.3061463493 -0.2919718194 0.01576499528)
(-0.2481341763 -0.2798515031 -0.0205776351)
(-0.1607223658 -0.281098653 -0.04870172959)
(-0.07480747919 -0.3173349151 -0.05822094316)
(0.007331145019 -0.3493103039 0.006950815908)
(0.03442032499 -0.3682663653 0.07298290454)
(-0.01255313673 -0.1895500897 0.09793834144)
(-0.0636874615 -0.1546769725 0.1024188292)
(-0.1537392943 -0.1790128665 0.1048422622)
(-0.2353869586 -0.2176728482 0.1010674844)
(-0.3093245679 -0.2483213329 0.09136591069)
(-0.3695843675 -0.2728286519 0.08003360341)
(-0.4164117717 -0.296247436 0.06957072697)
(-0.4501890805 -0.3209223116 0.06060072743)
(-0.4716085955 -0.3467171242 0.05287467867)
(-0.4812607228 -0.3722530114 0.04606507013)
(-0.4798545898 -0.3959634223 0.04010350679)
(-0.4684164232 -0.4165878491 0.03526073507)
(-0.4484585514 -0.4332785376 0.03208859998)
(-0.4221648845 -0.4455716014 0.03139734529)
(-0.3926233736 -0.4533269113 0.0341268629)
(-0.3638963104 -0.456725015 0.04079111226)
(-0.3407029682 -0.4561857191 0.04987981245)
(-0.3269131859 -0.4519350391 0.05574527746)
(-0.3217245409 -0.4431462017 0.04933956715)
(-0.3155598742 -0.4285558332 0.02588368276)
(-0.2949726631 -0.4087497044 -0.008598746846)
(-0.2491059393 -0.3925285604 -0.04119496859)
(-0.1771871339 -0.3903542016 -0.06304750492)
(-0.1023451012 -0.4200586506 -0.07076081704)
(-0.02036321076 -0.4691632217 -0.02979198211)
(-0.00136235176 -0.5047495225 0.02967058161)
(-0.03984847267 -0.2698116177 0.1059652392)
(-0.09329447608 -0.2242556141 0.1061836755)
(-0.1823912075 -0.2349053089 0.1075542644)
(-0.2721567622 -0.2700824018 0.1002994141)
(-0.3545947924 -0.3021146343 0.08657906943)
(-0.4206728058 -0.3296053966 0.07160732889)
(-0.4698922003 -0.3566118442 0.05770280485)
(-0.5028574647 -0.3848264948 0.04545493221)
(-0.5207934334 -0.4137241643 0.03477776814)
(-0.5249738138 -0.4419543627 0.02553793176)
(-0.516728757 -0.4681464778 0.01774788724)
(-0.4975207421 -0.4912372142 0.01156549478)
(-0.4691120025 -0.5105368778 0.007296186979)
(-0.433689008 -0.5256186527 0.005468761819)
(-0.3941465311 -0.5360666919 0.006841461126)
(-0.3543923798 -0.5413983491 0.01229346032)
(-0.3193067683 -0.5407720718 0.02196966483)
(-0.2941544024 -0.5330292592 0.03331562312)
(-0.2821027878 -0.5169402675 0.03905742327)
(-0.277257988 -0.4929267793 0.03025749601)
(-0.2671917576 -0.4611540877 0.004312490517)
(-0.2366381746 -0.4350034475 -0.0271290903)
(-0.1845158091 -0.4266485204 -0.05175232173)
(-0.1244473932 -0.4533729705 -0.05839918939)
(-0.06167032601 -0.5068257985 -0.0343319334)
(-0.04580318621 -0.5525158026 0.00376687892)
(-0.05267434997 -0.340178616 0.1138965773)
(-0.1188636394 -0.2901437133 0.110030506)
(-0.2201255106 -0.2889757457 0.1102785598)
(-0.3195787534 -0.3178277139 0.1005359724)
(-0.4086424655 -0.3503802242 0.0836071622)
(-0.4779391046 -0.3806542684 0.06545110195)
(-0.5275506494 -0.4105140932 0.0488363928)
(-0.5585079143 -0.4407158819 0.03454632953)
(-0.5725311384 -0.4707816167 0.02248952673)
(-0.5713660318 -0.4997597056 0.01244168517)
(-0.5566939872 -0.5266675586 0.004240103838)
(-0.5302399119 -0.5507245162 -0.002192093077)
(-0.4939409833 -0.5714438932 -0.006830641088)
(-0.4499733049 -0.5885387829 -0.009401630868)
(-0.4008547092 -0.6014009671 -0.009337629271)
(-0.3500963489 -0.6092061199 -0.005665721403)
(-0.3021392277 -0.6102583004 0.002851186348)
(-0.2624581909 -0.6021579315 0.0166053708)
(-0.2378482338 -0.5825357628 0.03294919199)
(-0.2271289308 -0.5539833917 0.04412889007)
(-0.2240810284 -0.5117143131 0.03702886634)
(-0.2105951242 -0.4759188348 0.01386736633)
(-0.1814038277 -0.4569732278 -0.01344400264)
(-0.1434608222 -0.4799789182 -0.02825342622)
(-0.1031987443 -0.5289590698 -0.029264101)
(-0.08586173604 -0.5715077543 -0.02054622483)
(-0.06114076305 -0.4021716046 0.1205055007)
(-0.1401068895 -0.3425993056 0.1143753301)
(-0.257543937 -0.3314222833 0.1137829592)
(-0.367180856 -0.3569878048 0.1007078693)
(-0.461137448 -0.3912647488 0.07996434305)
(-0.5319943826 -0.423528409 0.05894827917)
(-0.5813919821 -0.4546807165 0.04098623277)
(-0.6107128502 -0.4853752246 0.02635903766)
(-0.6219247817 -0.5155669466 0.01455691367)
(-0.6168767329 -0.5447219876 0.005010960529)
(-0.5973263497 -0.5721155735 -0.002668022761)
(-0.5650799889 -0.5970568605 -0.00872676854)
(-0.5221402457 -0.6190714176 -0.01329300931)
(-0.4708744729 -0.6382572758 -0.01625549103)
(-0.4134653025 -0.6538325307 -0.01710344072)
(-0.3529024496 -0.6647139628 -0.01495642687)
(-0.2930138238 -0.6689852634 -0.008632798747)
(-0.2386442387 -0.6634805472 0.003330387013)
(-0.199431638 -0.6441485891 0.02264351604)
(-0.1760168802 -0.6197617145 0.04886490868)
(-0.1715185019 -0.5728495552 0.06494062323)
(-0.1670270296 -0.5333508067 0.06322952276)
(-0.1611712497 -0.4950785345 0.03910324834)
(-0.1523859604 -0.5082527166 0.01130586391)
(-0.1354786574 -0.5449538659 -0.0190875871)
(-0.1144871855 -0.5789151287 -0.03933303542)
(-0.07050538408 -0.4555315705 0.1236187122)
(-0.1598500473 -0.3852963213 0.1179144748)
(-0.2911451878 -0.3657054705 0.1171013129)
(-0.4094026909 -0.3900401204 0.09997711521)
(-0.5067380197 -0.4272127272 0.07565351475)
(-0.5785089982 -0.4596488181 0.05282997735)
(-0.6286126524 -0.4904988064 0.03509309694)
(-0.6579369817 -0.521045665 0.02135646452)
(-0.6682713606 -0.5515783296 0.01053168246)
(-0.6612868021 -0.5816987603 0.001742093523)
(-0.6386535822 -0.6106331643 -0.00545141169)
(-0.6021862516 -0.6375323646 -0.01125767548)
(-0.5543963935 -0.6627037547 -0.01576257259)
(-0.4969566803 -0.6853295881 -0.01859022783)
(-0.4320566809 -0.704479024 -0.01927420528)
(-0.3626051612 -0.7188893399 -0.01737917583)
(-0.2923681825 -0.7263014105 -0.01230985241)
(-0.2245075595 -0.7237634217 -0.002519720286)
(-0.1721920298 -0.7047304502 0.01382409787)
(-0.1349795478 -0.6931933179 0.04422811213)
(-0.1211971562 -0.6494218859 0.07135979927)
(-0.1089424233 -0.6197602044 0.09369597624)
(-0.1168468931 -0.5531477734 0.08548861846)
(-0.1390238643 -0.5483440723 0.05265369657)
(-0.1485298479 -0.5632851549 -6.580696347e-05)
(-0.1334435502 -0.5844098223 -0.04085215206)
(-0.07854119867 -0.4976274945 0.1222895573)
(-0.1758288906 -0.4212457551 0.1195789452)
(-0.3181180097 -0.3948310734 0.1199164558)
(-0.4451114841 -0.4177340969 0.09937894431)
(-0.5445618536 -0.461913191 0.07287804689)
(-0.6169100427 -0.490094467 0.04921637013)
(-0.6700072268 -0.5179978565 0.03256239878)
(-0.7018181534 -0.5482984381 0.01950152144)
(-0.7134407747 -0.5802548879 0.008835676973)
(-0.706243562 -0.6128663336 -0.0003000412475)
(-0.6818304382 -0.6449192214 -0.00804765059)
(-0.6425834194 -0.675945476 -0.01431071319)
(-0.590755528 -0.7057525434 -0.01863566431)
(-0.5280122176 -0.7333609899 -0.02049121278)
(-0.4566117737 -0.7579081094 -0.01944507654)
(-0.3793554745 -0.7779013734 -0.0153859602)
(-0.2998604861 -0.7905318582 -0.008373769668)
(-0.2174474722 -0.7925156659 0.002595384693)
(-0.1546336058 -0.7671311068 0.01641608779)
(-0.1094992195 -0.7743521548 0.04515272154)
(-0.08366317839 -0.7377596941 0.06094321711)
(-0.0469849755 -0.731119442 0.08740270535)
(-0.0500916145 -0.6267536897 0.1097815947)
(-0.09743098853 -0.5986831008 0.09253213836)
(-0.1337124684 -0.5863819543 0.03341722858)
(-0.1387289889 -0.5901245533 -0.02052720397)
(-0.07854564442 -0.5309477869 0.1160242707)
(-0.1816170269 -0.4544262828 0.1187030616)
(-0.3355719654 -0.4207831952 0.1240245558)
(-0.4789151183 -0.4375721704 0.1012955347)
(-0.5709755475 -0.4961314661 0.06786677159)
(-0.6454960271 -0.5140541357 0.04955750802)
(-0.7064409804 -0.5359370099 0.03319805076)
(-0.7448489017 -0.5672952563 0.01868446939)
(-0.7597677906 -0.6023855502 0.005835857292)
(-0.753305676 -0.6389281545 -0.005721969274)
(-0.7276329698 -0.6752889039 -0.01544472075)
(-0.686323177 -0.711798888 -0.02254576616)
(-0.6312602017 -0.7477285966 -0.02640303109)
(-0.5645306288 -0.7824709522 -0.02627162789)
(-0.4883701078 -0.8155498284 -0.02154541448)
(-0.4051850908 -0.8454637099 -0.01237752065)
(-0.3177905186 -0.8691273355 -6.787365217e-05)
(-0.215919301 -0.8822166587 0.01577932393)
(-0.1431740936 -0.8376150441 0.03396326828)
(-0.1038510936 -0.8687044794 0.0594571563)
(-0.06398599045 -0.8396472512 0.04144934765)
(0.004144518727 -0.8571337455 0.03496196939)
(0.0267399338 -0.7140962596 0.1048081781)
(-0.03134054244 -0.6591998326 0.1276669417)
(-0.08960925141 -0.6181016878 0.08185914141)
(-0.1265827849 -0.6014139243 0.02063334048)
(-0.05859671812 -0.5483461909 0.09303179898)
(-0.1590352013 -0.4805050611 0.09752126923)
(-0.3365252731 -0.4399199211 0.1330909426)
(-0.507226885 -0.442669126 0.09932743269)
(-0.5011288249 -0.4708284165 -0.06005535733)
(-0.6630393695 -0.5006993913 0.05426823434)
(-0.7399797186 -0.5388385058 0.03405333685)
(-0.7902287373 -0.5776215326 0.0146082371)
(-0.8086616429 -0.6173547573 -0.003139781098)
(-0.8023205943 -0.6577816693 -0.01875230347)
(-0.7754996502 -0.698537038 -0.03085398363)
(-0.7326960115 -0.7406088044 -0.03858345333)
(-0.6760174054 -0.7835649376 -0.04124273061)
(-0.6079999441 -0.8277970657 -0.03766115319)
(-0.5306518147 -0.8740177349 -0.0270058376)
(-0.4452163016 -0.921568708 -0.01145436256)
(-0.3515240209 -0.9684086345 0.001800266273)
(-0.2220860895 -1.004215893 0.01308571185)
(-0.1366645841 -0.9196084057 0.05989453142)
(-0.1259770879 -0.9803247256 0.07374514824)
(-0.06446429788 -0.9538048891 -0.002659520458)
(0.03281803325 -0.9738593339 -0.07206769693)
(0.09786466178 -0.8179975862 0.05573793819)
(0.04832525977 -0.7406597152 0.1388554628)
(-0.01930591858 -0.6675755489 0.1326286776)
(-0.09111946631 -0.6236756581 0.07597533466)
(-0.01551332191 -0.5228880593 0.005445176159)
(-0.05385353995 -0.4735943146 -0.07121597556)
(-0.3243733688 -0.4259441504 0.1450441819)
(-0.4956970251 -0.4364154126 0.1170977528)
(-0.6371342015 -0.4367370491 0.08671581701)
(-0.7328616847 -0.4877297842 0.05584513924)
(-0.8015714649 -0.5390936828 0.02830312278)
(-0.8433325327 -0.5824597196 0.002522486541)
(-0.8591898889 -0.6236260436 -0.02056516653)
(-0.8507401905 -0.6649730002 -0.03978049924)
(-0.8233557636 -0.7084335111 -0.0532013777)
(-0.7806163861 -0.7547282702 -0.06050956722)
(-0.7256243965 -0.8047214108 -0.06053496326)
(-0.6614892883 -0.8608009023 -0.05149167064)
(-0.5896924563 -0.9261993514 -0.03442463107)
(-0.5089038689 -1.003312278 -0.02221788135)
(-0.4089629475 -1.091740416 -0.04036926443)
(-0.2432272196 -1.156074865 -0.07641817917)
(-0.1310939119 -1.00765594 0.0762198193)
(-0.1811353338 -1.098229572 0.06378083856)
(-0.08298923486 -1.0538326 -0.09088878542)
(0.03420672602 -1.045955256 -0.2144271495)
(0.161648339 -0.9172451366 -0.04605551971)
(0.1254722266 -0.837894991 0.1019505755)
(0.0678788505 -0.7463323246 0.1538558432)
(-0.02712377407 -0.6605342856 0.1287072555)
(-0.01229711682 -0.4690027612 -0.134492458)
(-0.1510990144 -0.4078253631 0.1252644614)
(-0.353727381 -0.4079361161 0.141735267)
(-0.5239527461 -0.4319711663 0.1221047853)
(-0.6736242479 -0.4598821344 0.08677467096)
(-0.7824230081 -0.4997718057 0.04853957279)
(-0.852870855 -0.5429756485 0.01080678378)
(-0.8898908107 -0.5807080789 -0.01929291068)
(-0.9035669905 -0.6169455647 -0.04381609054)
(-0.8944919647 -0.6552629675 -0.06435610221)
(-0.8682145103 -0.6979139148 -0.07762576295)
(-0.8289956356 -0.7457256646 -0.08315745366)
(-0.7815590109 -0.8014722597 -0.07889560951)
(-0.7304152242 -0.8704558718 -0.06394448153)
(-0.6772438688 -0.9600418732 -0.05012541905)
(-0.6138613579 -1.077939211 -0.07939346857)
(-0.4986553592 -1.213121834 -0.1986768834)
(-0.2873928796 -1.275885945 -0.3392320164)
(-0.09737222202 -1.079077695 0.05848364184)
(-0.2565639771 -1.183231484 0.02615413701)
(-0.1091195633 -1.094115585 -0.20448184)
(0.02591170793 -1.05788097 -0.3412084854)
(0.2202301772 -0.9745003539 -0.171757638)
(0.2009196368 -0.9209620752 0.02090623682)
(0.1452173436 -0.8357210487 0.117092777)
(0.06375792104 -0.7173392803 0.1460308441)
(-0.08978363136 -0.3897525695 0.09895718577)
(-0.199317129 -0.4187457507 0.1153345424)
(-0.3733962911 -0.4122754726 0.140797971)
(-0.5534282463 -0.4272311709 0.1247974611)
(-0.7136759531 -0.4568977567 0.08059960526)
(-0.8290286322 -0.4955808561 0.02475488552)
(-0.8946689254 -0.5324114388 -0.02935067436)
(-0.9214466696 -0.5604557539 -0.04964376013)
(-0.9353704499 -0.5906368028 -0.06652020369)
(-0.9290196881 -0.6234019675 -0.08679277005)
(-0.9069840405 -0.6611969279 -0.0992974699)
(-0.8762842834 -0.7059281595 -0.1025638723)
(-0.8447687885 -0.762681785 -0.09435204509)
(-0.8207857626 -0.8391754084 -0.08110608895)
(-0.8078931054 -0.9461636549 -0.1022247984)
(-0.7720271815 -1.088871615 -0.2352734334)
(-0.6105889051 -1.227001514 -0.5041295176)
(-0.3472105118 -1.246588191 -0.7528770312)
(0.0227568251 -1.081472059 -0.01072078098)
(-0.3163860247 -1.168457133 -0.01276914445)
(-0.1233925234 -1.053543484 -0.3059264111)
(0.02554731774 -1.008551877 -0.4300465265)
(0.2676429829 -0.9642917778 -0.2691627969)
(0.2667303337 -0.9524123553 -0.06908874878)
(0.1985491451 -0.895252705 0.03726364741)
(0.1464070688 -0.7734834668 0.09526224571)
(-0.09346723839 -0.4155560727 0.1012416162)
(-0.2061167328 -0.4193809528 0.1147131081)
(-0.3857585923 -0.4088593489 0.1407570261)
(-0.5753802056 -0.4150635916 0.1222394836)
(-0.7434122322 -0.4385001641 0.06321435371)
(-0.8607331897 -0.4675216666 -0.01893935589)
(-0.9205225552 -0.4941401505 -0.09053755769)
(-0.936231444 -0.5137579318 -0.07972625394)
(-0.9543577592 -0.5426278226 -0.08470908039)
(-0.9515299071 -0.568208926 -0.104058816)
(-0.9356994449 -0.5957139247 -0.1163505871)
(-0.9175277311 -0.628781229 -0.1190959975)
(-0.9092280502 -0.6742502625 -0.1127634939)
(-0.9252223403 -0.7386729423 -0.1213438279)
(-0.9638337104 -0.8289526874 -0.218964099)
(-0.9370768901 -0.9373844122 -0.4827506202)
(-0.7008479314 -1.02036877 -0.8618234726)
(-0.4051443494 -1.018053847 -1.167282356)
(0.2101882874 -0.9603002159 -0.1359919141)
(-0.3307768538 -1.000723952 -0.04030841323)
(-0.1224936854 -0.9279426942 -0.3775911021)
(0.03316449598 -0.8926517591 -0.4874083748)
(0.3001737635 -0.8907972109 -0.3171220214)
(0.2943029798 -0.911453909 -0.1218485179)
(0.2099203828 -0.8872549489 -0.05090423947)
(0.1914059646 -0.7887826368 -0.008532154592)
(-0.09858465147 -0.4038502046 0.1123356393)
(-0.2124133555 -0.4128958329 0.113827993)
(-0.3875093593 -0.3994865727 0.1354962404)
(-0.5735901205 -0.399310166 0.1167064305)
(-0.735591626 -0.4160217272 0.06223609713)
(-0.849767348 -0.4334318516 0.005139041863)
(-0.92013269 -0.4490618583 -0.04083745728)
(-0.9536216797 -0.4666193867 -0.07261258019)
(-0.9633969545 -0.4830180226 -0.09549329058)
(-0.959088819 -0.4956872808 -0.1141127201)
(-0.9464645696 -0.5049015092 -0.1283592467)
(-0.9384071684 -0.5124842454 -0.1358151543)
(-0.9486630447 -0.5270854254 -0.1406954713)
(-0.9913699054 -0.548756791 -0.1828020078)
(-1.048992001 -0.5781059251 -0.3483048438)
(-1.002722263 -0.6099454429 -0.6838139463)
(-0.7291191806 -0.6373488118 -1.089744824)
(-0.439008234 -0.6827622917 -1.36213269)
(0.2317495437 -0.7254706805 -0.262471697)
(-0.3138200619 -0.7007400324 -0.08242604484)
(-0.1344596616 -0.7284964864 -0.4151751546)
(0.03904595051 -0.7192380423 -0.5158672031)
(0.3086000121 -0.7574350557 -0.3110873525)
(0.2590175735 -0.7989633579 -0.1139727776)
(0.1600775935 -0.795081792 -0.1238781475)
(0.1830413709 -0.7291921097 -0.1268426553)
(-0.1038692725 -0.4018141421 0.126096318)
(-0.2137946836 -0.4070344332 0.1042663704)
(-0.3758885014 -0.3893091224 0.1208265279)
(-0.5516695876 -0.3840206295 0.1052337635)
(-0.7086835052 -0.3983254224 0.04933549605)
(-0.8197339009 -0.4119352803 -0.008235751742)
(-0.8913638441 -0.4177798797 -0.04925110579)
(-0.9304602907 -0.4196532609 -0.0743318632)
(-0.946849834 -0.4208275933 -0.09268138829)
(-0.9439078584 -0.4193974569 -0.1107711729)
(-0.9267882386 -0.4058987777 -0.1308224604)
(-0.9147716646 -0.3746198095 -0.1497870692)
(-0.9146289103 -0.3487348481 -0.1612988575)
(-0.9258880093 -0.314514056 -0.1851942156)
(-0.9372765376 -0.2647604986 -0.2701278754)
(-0.8811730129 -0.1986251882 -0.466597855)
(-0.6831574383 -0.1443281896 -0.729261672)
(-0.4165549897 -0.2013890099 -0.8368651768)
(-0.1329814397 -0.4107099237 -0.1863207446)
(-0.3468593531 -0.3805832501 -0.1523510282)
(-0.1916075446 -0.494029771 -0.4004705669)
(0.03195528629 -0.5214610014 -0.4983964901)
(0.2992608721 -0.581493141 -0.2459375402)
(0.1755397787 -0.6342132424 -0.05961351708)
(0.08291940223 -0.6426119436 -0.1847710969)
(0.1490508213 -0.6105830935 -0.221740143)
(-0.1117091859 -0.4096761721 0.1296202828)
(-0.2088769669 -0.4032212382 0.07764673455)
(-0.3450270693 -0.379596256 0.09343934232)
(-0.4979870716 -0.3659167582 0.09417716012)
(-0.6489545582 -0.3722511435 0.04682747599)
(-0.7616391994 -0.3761358495 -0.008363806161)
(-0.8409479911 -0.3710331717 -0.04335960472)
(-0.8934949316 -0.3652105279 -0.05802905859)
(-0.9225915822 -0.364961714 -0.06556627355)
(-0.9181296152 -0.3642774532 -0.07765486109)
(-0.8788251605 -0.3359352759 -0.1051945276)
(-0.8563555552 -0.2509687656 -0.1472081679)
(-0.845867082 -0.2035209161 -0.1664348314)
(-0.8219716125 -0.1488454179 -0.1675188222)
(-0.7901085523 -0.0670412087 -0.1521188494)
(-0.7374898494 0.06269355003 -0.1369849414)
(-0.6386637327 0.1901541257 -0.1499818634)
(-0.4887905018 0.1619468423 -0.153417961)
(-0.4190018044 -0.1211160964 -0.02595333935)
(-0.4091766928 -0.1666948068 -0.07449690455)
(-0.2519765782 -0.2768386678 -0.2806530028)
(0.02233634138 -0.347408689 -0.4311764497)
(0.2979234035 -0.3923305688 -0.1539390741)
(0.1058542646 -0.4398425844 -0.002959553542)
(0.03562583707 -0.4611713654 -0.2219326335)
(0.1275952971 -0.4736145972 -0.2461279037)
(-0.1236027394 -0.4187095946 0.1121720599)
(-0.2007308045 -0.3988656564 0.03292582607)
(-0.301846394 -0.3726878839 0.05249856543)
(-0.4177609753 -0.3518118431 0.08608819476)
(-0.5621305149 -0.3486577835 0.06692328363)
(-0.6856694619 -0.3416959143 0.01923835973)
(-0.7846491565 -0.326011476 -0.01093368272)
(-0.8664094089 -0.320840381 -0.01031492411)
(-0.9210963344 -0.341085523 0.007824835007)
(-0.9101179967 -0.3759830872 0.01193714395)
(-0.8046976498 -0.3520807675 -0.02865988826)
(-0.7889137277 -0.150663181 -0.1154173455)
(-0.8190059295 -0.1032498841 -0.1554421374)
(-0.8086655531 -0.04557020112 -0.170052279)
(-0.7854144361 -0.00412348829 -0.155568713)
(-0.7402703843 0.03741222372 -0.1144168004)
(-0.6587604952 0.07736280067 -0.05964700012)
(-0.548738985 0.05843063914 -0.01609100571)
(-0.5136794952 -0.08486716311 -0.02001512723)
(-0.4796481453 -0.146836035 -0.1270801068)
(-0.2999911149 -0.2141875194 -0.3427759606)
(-0.007564304745 -0.2567474758 -0.5318707879)
(0.2884032222 -0.2569317486 -0.2501887317)
(0.1406291552 -0.2578540723 -0.03934189595)
(0.04776356042 -0.2877964701 -0.1666205618)
(0.125936169 -0.3478312825 -0.1464869464)
(-0.138036752 -0.4089812652 0.07702081985)
(-0.1947794218 -0.3856358188 -0.01855437272)
(-0.2628838189 -0.36693366 0.004114072519)
(-0.332647379 -0.3497349446 0.07671601834)
(-0.4682582953 -0.3412910388 0.1154441315)
(-0.6186605944 -0.321611662 0.09311100269)
(-0.760232873 -0.286353677 0.07232584263)
(-0.8973886579 -0.2837070665 0.09635223688)
(-0.998606522 -0.3905113097 0.1270401543)
(-0.965732692 -0.5916454804 0.0315012506)
(-0.6719851415 -0.5842568473 -0.08825228307)
(-0.6663200646 -0.02359477334 -0.004777817458)
(-0.7743941817 0.0405158199 -0.05910510636)
(-0.7749884596 0.107759931 -0.107375266)
(-0.7907654211 0.1455943158 -0.1197249086)
(-0.7806047146 0.1727039223 -0.1168999249)
(-0.7489746995 0.1810156335 -0.1215110584)
(-0.697040628 0.1546795541 -0.1683596289)
(-0.6366559347 0.09225403118 -0.2852048448)
(-0.514262467 0.03653086246 -0.427214391)
(-0.3024997269 -0.03406597743 -0.5858065433)
(-0.05961145654 -0.1092813384 -0.6968127882)
(0.2109860544 -0.09977673993 -0.4321257196)
(0.2133181636 -0.05020460749 -0.137654457)
(0.09252324935 -0.09791163828 -0.04992196465)
(0.1086067363 -0.2391273396 0.02246065811)
(-0.1524961172 -0.3658979865 0.04038154023)
(-0.195936749 -0.3528194564 -0.05645278967)
(-0.2458701741 -0.3514140754 -0.03226790462)
(-0.2837520828 -0.3552191039 0.06327849436)
(-0.4116171349 -0.3602347971 0.1673642513)
(-0.5929180907 -0.3493008422 0.1983188272)
(-0.7995184356 -0.3334453599 0.198782189)
(-1.076125933 -0.4025311233 0.1549034564)
(-1.315240094 -0.6424494402 -0.1562816503)
(-1.176325357 -0.8898889208 -0.9125712025)
(-0.5674822567 -0.7446189461 -1.120991631)
(-0.3289375584 0.03860540834 0.07294571171)
(-0.7070673325 -0.05225664242 0.04114580895)
(-0.7220692595 0.1612408245 -0.02627009168)
(-0.7483029796 0.1968998242 -0.04729018501)
(-0.7359625749 0.2311872649 -0.05377254611)
(-0.7058857863 0.2520297825 -0.06248119492)
(-0.659293435 0.2581218695 -0.09426152751)
(-0.5948978945 0.2491041453 -0.1616351625)
(-0.4925072173 0.2413226562 -0.2563848727)
(-0.3345276375 0.22329693 -0.3543525205)
(-0.145356526 0.177567036 -0.378576463)
(0.004779578408 0.0729294762 -0.02005881078)
(-0.1120961415 0.05562527366 0.09584790994)
(-0.098336239 -0.05164093897 0.02977782636)
(-0.08412699021 -0.2782898916 0.001388380313)
(-0.1643303452 -0.291026543 0.01824446415)
(-0.2031827769 -0.2986082977 -0.06535542524)
(-0.2531531481 -0.3191011665 -0.03707657883)
(-0.2944259912 -0.350478688 0.05696009663)
(-0.4400118013 -0.371310742 0.161883563)
(-0.6700771049 -0.3265673466 0.2278718016)
(-1.012724011 -0.1901017462 0.2558324058)
(-1.526220654 -0.094299281 -0.1832033832)
(-1.718991195 -0.2129114112 -1.564255518)
(-1.268471999 -0.4481164275 -3.024794851)
(-0.738136532 -0.4432381053 -3.022821019)
(0.7054492766 0.1219450978 0.011175082)
(-0.5952719443 0.1854111412 0.3454381672)
(-0.4666360361 0.1875846045 0.09041860502)
(-0.6713457015 0.2036882162 0.04762711909)
(-0.6713741257 0.2187163966 0.02564208338)
(-0.6594287606 0.2316124312 0.01749959751)
(-0.6269289842 0.2450130387 0.00226717004)
(-0.5814393992 0.2557502948 -0.03584392452)
(-0.512475566 0.2579457217 -0.1054486629)
(-0.3938404798 0.2267280867 -0.2023053505)
(-0.2016571598 0.1413748827 -0.2778577952)
(-0.04589248693 0.02100510664 -0.04867118645)
(-0.1292185898 -0.003325208579 0.1163585343)
(-0.1675114283 -0.09179214336 0.03241957133)
(-0.1397952448 -0.2761519352 -0.2314728083)
(-0.1679574036 -0.2009876208 0.02062927423)
(-0.2135913269 -0.2417482124 -0.04153663615)
(-0.2809163649 -0.2848746559 -0.009136689803)
(-0.340245543 -0.3460088288 0.0386138643)
(-0.4451838681 -0.3905396969 0.01818332631)
(-0.5173112547 -0.3645587673 -0.009362313562)
(-0.5391314913 -0.2188706907 0.0860989029)
(-0.6061947409 0.06744005298 0.224816359)
(-0.801476544 0.4687708546 0.09146295449)
(-0.8792039814 0.8521118822 -0.3496195468)
(-0.7571726664 0.7143631261 -0.4755414448)
(-0.6050815394 0.1327557356 0.1389484299)
(-0.6227044239 0.2790481389 0.1911280741)
(-0.604638714 0.1227191189 0.14185414)
(-0.6194153648 0.1361873325 0.1108669502)
(-0.6093790807 0.1397822883 0.08362335541)
(-0.590469902 0.1520525565 0.0653793131)
(-0.5605195549 0.174861871 0.05072195723)
(-0.5224755121 0.2068916206 0.03063499009)
(-0.4736212821 0.2380929277 -0.01165375658)
(-0.3939037712 0.2410560894 -0.09435950772)
(-0.2424530756 0.2010162301 -0.178315298)
(-0.1927135887 0.1253967403 0.05725428188)
(-0.3219570865 0.06107642753 0.04902221161)
(-0.3667229445 -0.001857488801 -0.2172071131)
(-0.1612360551 -0.07806836919 -0.7013220253)
(-0.1416098476 -0.1044759256 0.07742735805)
(-0.2230645028 -0.2022168877 0.0350998219)
(-0.3513854461 -0.2610760489 0.02406130642)
(-0.46758451 -0.3421780865 -0.0646118895)
(-0.5566530217 -0.397517246 -0.232504536)
(-0.5734754869 -0.4140511518 -0.2948537231)
(-0.5544028375 -0.3780726514 -0.1765194691)
(-0.5621391129 -0.2679234484 0.09810472849)
(-0.6470977116 -0.1412220992 0.2981273701)
(-0.6433688535 0.007086904685 0.2650610997)
(-0.5019600594 0.1033340821 0.1448372461)
(-0.4145639183 -0.089788978 0.07914097505)
(-0.447571194 -0.1049192813 0.0829153975)
(-0.4471872149 -0.09627502258 0.1238852477)
(-0.5086266848 -0.03671222831 0.1442983098)
(-0.5229127892 0.006540368953 0.111486267)
(-0.5088874319 0.03407608318 0.08992789995)
(-0.4784442516 0.06542629816 0.07742449523)
(-0.440488509 0.100499435 0.07006419868)
(-0.3981918075 0.1408469198 0.05900412031)
(-0.3440328784 0.1644625495 0.03752058401)
(-0.2531496405 0.1602533686 0.02187553541)
(-0.2162731237 0.07912983193 0.1047575779)
(-0.2505008312 0.0759645216 0.1058134334)
(-0.2881446117 0.1338660073 -0.01388416251)
(-0.2045375253 0.2050913988 -0.2650260203)
(-0.05016540616 -0.1339916908 0.2026044493)
(-0.227662967 -0.2023464649 0.1471122911)
(-0.4407818692 -0.2301062325 -0.01802393711)
(-0.5931953196 -0.2602287607 -0.2778731354)
(-0.6244683424 -0.2573462196 -0.4528750082)
(-0.57811911 -0.2606492007 -0.4789164998)
(-0.4686213002 -0.2528774332 -0.4291126114)
(-0.3393373622 -0.1791898952 -0.2486547331)
(-0.2768059446 -0.09161434969 0.06722755889)
(-0.4288728455 -0.01305289908 0.08703301802)
(-0.3994486434 0.01496057848 -0.06020948822)
(-0.3191294432 -0.06402443324 -0.2009331422)
(-0.2752983905 -0.05571096158 -0.199769749)
(-0.2933705212 -0.08921537181 -0.04349842872)
(-0.398419219 -0.1022727853 0.09942978657)
(-0.4448519607 -0.08587395048 0.07840015463)
(-0.4461209503 -0.08596399756 0.06145032951)
(-0.4179537703 -0.05963309357 0.07824551014)
(-0.3768305101 -0.02656996698 0.1026846651)
(-0.3465661002 -0.008288202702 0.1016196293)
(-0.3173568421 0.01567206326 0.09453023447)
(-0.2340596823 0.01051593364 0.09562745417)
(-0.19383763 -0.008198064865 0.08250119583)
(-0.2003857604 -0.01312069299 0.06606747647)
(-0.2053445796 0.1025756246 0.0131047859)
(-0.1649369176 0.2102668725 -0.1254543261)
(-0.0297851858 -0.2131479348 0.1764567378)
(-0.2468195845 -0.1317714486 0.1874004054)
(-0.4771563071 -0.08300839748 -0.05301126765)
(-0.6003889326 -0.1174981254 -0.3981656819)
(-0.6238201162 -0.1276274772 -0.566929251)
(-0.5722320736 -0.07661839734 -0.5999949066)
(-0.4287552652 -0.05178481149 -0.6065934373)
(-0.2921380484 -0.05695577387 -0.5241948718)
(-0.0370089058 -0.07281100482 -0.1209270195)
(-0.3266781966 -0.03880408899 0.17759399)
(-0.4252076342 0.01190544873 0.06332857404)
(-0.4605675072 0.04069621056 -0.002413311501)
(-0.5191403443 0.0333768981 -0.001900688649)
(-0.5145469901 -0.03363858112 -0.07909500694)
(-0.4683246324 -0.06809126768 -0.1091104856)
(-0.4537295052 -0.09971094546 -0.0280457569)
(-0.3905098148 -0.1290197844 -0.1199382619)
(-0.352836808 -0.1486395471 -0.09198107329)
(-0.3562675626 -0.1758964945 0.01050237035)
(-0.305235993 -0.06418553905 0.0004756380951)
(-0.240557493 -0.06997673441 0.03151628719)
(-0.18005177 -0.1421607547 -0.05532677866)
(-0.1611905872 -0.02758973831 -0.0973030889)
(-0.0991882165 -0.02418709784 -0.2737392314)
(-0.06517485607 0.1630484567 -0.05104482762)
(0.01634457294 -0.2394973126 0.06063533561)
(-0.04050912405 -0.2011791181 0.1331988922)
(-0.1117768259 -0.1280004377 0.2011166837)
(-0.2506073804 0.006587554411 0.1515239801)
(-0.4402965746 0.1709211475 -0.1531701582)
(-0.4976662609 0.2272733006 -0.3675593189)
(-0.4630394152 0.2095222253 -0.3423368562)
(-0.4044650223 0.126220203 -0.1801748354)
(-0.4135137971 0.05134716178 0.03877356365)
(-0.5413364193 0.02953713961 0.1206883277)
(-0.585453933 -0.006762466972 0.08590204508)
(-0.5970994774 -0.01833211835 0.06055289862)
(-0.5786173011 -0.03568276254 0.007132338791)
(-0.5080681435 -0.04983624611 -0.1225977715)
(-0.4767834686 -0.05674264205 0.02614835419)
(-0.5010973167 -0.07749201203 0.01059736864)
(-0.4689061822 -0.06143120785 -0.05149021863)
(-0.4325964663 -0.04839867038 -0.194151157)
(-0.2865114937 -0.0147993625 -0.4400022667)
(-0.1655032662 0.07543798189 0.04388333277)