/*--------------------------------*- C++ -*----------------------------------*\
  =========                 |
  \\      /  F ield         | OpenFOAM: The Open Source CFD Toolbox
   \\    /   O peration     | Website:  https://openfoam.org
    \\  /    A nd           | Version:  8
     \\/     M anipulation  |
\*---------------------------------------------------------------------------*/
FoamFile
{
    version     2.0;
    format      ascii;
    class       volScalarField;
    location    "1.1/wallFilmRegion";
    object      delta;
}
// * * * * * * * * * * * * * * * * * * * * * * * * * * * * * * * * * * * * * //

dimensions      [0 1 0 0 0 0 0];

internalField   nonuniform List<scalar> 
1369
(
0.009815032994
0.00946694424
0.009517858708
0.007204009975
0.004644999252
0.003460731826
0.003229153898
0.00354249764
0.003575328312
0.002536189799
0.001986434453
0.001741580827
0.001499341788
0.001309950239
0.001231579506
0.001340115998
0.001737967922
0.002473955764
0.003304266609
0.003660916673
0.003205164752
0.003448931991
0.003688056316
0.003548423654
0.002687752044
0.001361739631
0.0006931309541
0.0003404118242
0.0001722812388
0.000164726317
0.0004469140003
0.001079240171
0.0009441216043
0.0007607922744
0.001098674259
0.001944177468
0.001779112777
0.001943001189
0.002498847773
0.003156615409
0.003766113151
0.004176929138
0.004191160484
0.003735719517
0.003004305097
0.002336884441
0.001901055488
0.001773221425
0.001658062996
0.001553157807
0.001532321109
0.001667681617
0.002390588494
0.005726520335
0.005389298567
0.005916417519
0.008655352872
0.01181340943
0.01274631888
0.01615681911
0.009101017416
0.005942981494
0.00334607386
0.0013473755
0.000135879547
5.414573517e-05
5.593732545e-05
0.0003911061816
0.0008323243363
0.0001704121252
3.208629507e-05
1.807924193e-05
1.458043735e-05
1.256194864e-05
1.0636648e-05
8.154628069e-06
5.084927262e-06
2.296417353e-06
1.491982637e-05
0.0001494129814
5.751429229e-05
4.742268154e-05
5.995264997e-05
8.099479508e-05
7.150959186e-05
9.022273079e-06
1.338342593e-06
2.46543774e-06
7.20739864e-06
4.816921333e-05
0.0005631771045
0.0007913075139
0.0001793810941
7.596333799e-05
8.36757709e-05
8.859978533e-05
8.161721001e-05
7.507115309e-05
9.252235506e-05
0.0001150389943
0.0001202580536
0.0001369205051
0.0001891174765
0.0002278554384
0.000183475757
6.572787154e-05
1.741447539e-05
0.0001430506755
0.0001921438128
0.0001659901747
7.536193015e-05
1.402674952e-05
0.000335994804
0.002512342317
0.0005544995719
0.0001337308988
0.0005852075123
0.002982120681
0.005250126911
0.01041605369
0.01152052981
0.005411884036
0.004758301124
0.003223034566
0.001897687431
0.0006525711376
0.0007958118446
0.001403038685
0.002103385644
0.0003142693802
5.513896703e-05
2.463814166e-05
1.747588482e-05
1.381509951e-05
1.071650914e-05
7.26531996e-06
3.667798378e-06
9.979436836e-07
4.037131775e-06
5.757417301e-05
4.391918899e-05
4.493933512e-05
6.969499374e-05
0.0001256280919
0.0002535336251
5.945535392e-05
7.764912831e-06
5.689815427e-06
7.778454022e-06
0.0002313000261
0.001786749675
0.001160098963
0.0001415213023
5.942508622e-05
6.643447196e-05
0.0001262076274
5.545187149e-05
5.611129247e-05
8.879962458e-05
0.000130670479
0.0001373888971
0.000128150878
0.0001651441526
0.0002512646237
0.0003290108164
0.0003188751231
0.0001638046353
0.000188293923
0.000243673823
0.0003199637575
0.0004267498815
0.0006714752576
0.001756263738
0.005491674111
0.004057076465
0.003391173487
0.004025234123
0.005834018818
0.006494480062
0.0124918633
0.0109822775
0.003018790492
0.004363248606
0.003927647847
0.002992580654
0.001932251122
0.001336402444
0.001043533469
0.00316262991
0.0004311694426
7.251702491e-05
2.629664022e-05
1.655174538e-05
1.220960539e-05
8.861423771e-06
5.438640263e-06
2.281780175e-06
4.093534766e-07
8.302128312e-07
1.952879968e-05
2.276041055e-05
2.144836504e-05
3.952465652e-05
8.238227895e-05
0.0003935341834
0.001451700413
0.0008105695571
0.0003201368973
0.0001820703772
0.0001834649624
0.001615344182
0.0008921120221
9.060653606e-05
4.037896021e-05
3.461079284e-05
4.912087696e-05
4.637613639e-05
5.170160713e-05
0.0001001593721
0.0001522035479
0.0001472243527
0.0001086885473
0.0001008415233
0.0001463757144
0.0002168184091
0.000270358161
0.0002004424998
0.0001567837184
0.0001726092376
0.0002085876165
0.0002661686384
0.0004855532625
0.002014185603
0.005160305648
0.003932541778
0.004566079183
0.005309721817
0.00594425429
0.004079430607
0.009764281975
0.01104602001
0.001834404527
0.003891153536
0.004147108316
0.003736876022
0.003147210118
0.002737855595
0.002858993018
0.005069198595
0.0005364519212
0.0001141215505
3.768080843e-05
2.024891487e-05
1.297546049e-05
8.341899195e-06
4.53522319e-06
1.623380327e-06
2.221857079e-07
3.561378087e-07
5.958749527e-06
1.313032829e-05
1.629353899e-05
4.031546356e-05
5.960232263e-06
8.910761631e-06
0.0004599150381
0.0001187866038
7.568238585e-05
4.359307143e-05
5.829471015e-05
0.001584282329
0.0004596989556
5.78722487e-05
3.296206795e-05
2.625480965e-05
3.83643583e-05
4.010639324e-05
4.878224644e-05
0.0001203927116
0.0001817249262
0.000164879744
0.0001075064304
7.479569862e-05
8.898218421e-05
0.0001610560471
0.0003324627577
0.0001657621802
0.0001061196704
0.0001285835472
0.0001519998297
0.0001848158481
0.0002928591522
0.001311857663
0.00605787039
0.004761429964
0.00478844518
0.005279411566
0.004935708206
0.001286290141
0.008835305881
0.009146113171
0.000788576096
0.003502560173
0.003120321402
0.003488050812
0.003598768338
0.003809787298
0.004050020992
0.00760559532
0.0005126218212
0.0001602733397
5.840117567e-05
2.755974138e-05
1.49449905e-05
8.168043249e-06
3.787734734e-06
1.132377035e-06
1.22206614e-07
1.939699743e-07
1.475255183e-06
5.320047682e-06
9.884549232e-06
4.10182584e-05
5.767980675e-06
4.444296725e-08
3.819676192e-06
4.934276966e-06
4.436816981e-06
6.488800857e-06
1.873876857e-05
0.001421181582
0.0002632108608
4.317035043e-05
3.408561888e-05
2.274067534e-05
3.057358428e-05
3.230465909e-05
4.256812221e-05
0.0001397431319
0.0002008309432
0.0001638183946
9.625865588e-05
5.92372033e-05
6.236246818e-05
0.000170796468
0.0006399148175
0.0001787951588
6.257013236e-05
9.72709627e-05
0.000119028746
0.0001413507019
0.0001802054229
0.0003931547359
0.003727916423
0.003173552323
0.003472124544
0.003093108698
0.002156541539
0.0005342961722
0.007371000584
0.006135261282
0.0005260230221
0.002764005551
0.002403185002
0.003342629581
0.004085636641
0.004295664779
0.00773812869
0.001540788882
0.0003658646891
0.0001843776523
8.866122391e-05
3.951590151e-05
1.843746393e-05
8.453401435e-06
3.225834857e-06
7.900911001e-07
7.454031935e-08
1.506678265e-07
5.384121124e-07
1.824136209e-06
4.970741448e-06
3.2108872e-05
9.288013636e-06
1.44869184e-08
2.576991123e-07
3.892166592e-07
6.375270776e-07
3.930401362e-06
1.088150834e-05
0.0007851029136
0.0001398700303
3.994959459e-05
4.911754318e-05
1.997534566e-05
1.896122704e-05
2.406368967e-05
3.277437521e-05
0.0001495182901
0.0002001644699
0.0001470280881
8.409271281e-05
5.924449546e-05
7.575589227e-05
0.0003203960768
0.001035834876
0.0001880116895
3.915378544e-05
6.718336171e-05
8.642900602e-05
0.0001046102032
0.0001279561754
0.0001990901569
0.001347097916
0.002777277085
0.003235104814
0.003262312704
0.00347565226
0.0004108243954
0.00620871837
0.003601971535
0.0001298651692
0.0008665021361
0.001122214543
0.002380877505
0.00283585625
0.002444165891
0.001452435768
0.0004581233386
0.0002852289639
0.0001915265858
0.0001084968578
5.095573675e-05
2.169792674e-05
8.731254481e-06
2.756259235e-06
5.559965856e-07
5.692792023e-08
1.573447743e-07
3.776060225e-07
9.69001432e-07
2.929379624e-06
1.723034163e-05
1.601509088e-05
8.954251668e-09
3.112735012e-07
4.071974432e-07
6.954388723e-07
7.127477112e-06
9.422111259e-06
0.0001873414404
8.530322697e-05
4.884161987e-05
0.0001011775848
2.83555064e-05
8.558706338e-05
3.728150691e-05
2.280085259e-05
0.0001352088826
0.0001801248372
0.0001345729455
9.539128709e-05
0.0001017446206
0.0001764457683
0.0006445027104
0.001090289592
0.0002111556303
2.571919108e-05
3.434462091e-05
4.877875103e-05
6.40871129e-05
7.851592659e-05
9.533677061e-05
0.0001930254276
0.00188464375
0.002288610148
0.001845003774
0.001645573063
0.0006766613849
0.004587658159
0.003006136215
0.0001112798746
0.0001656549388
7.762442268e-05
0.0001137634255
0.0001669029554
0.0002246296957
0.0002449690869
0.0002074981734
0.0001842966828
0.0001379701941
8.761981772e-05
4.609279927e-05
1.943052014e-05
7.365324121e-06
2.080522236e-06
3.804080818e-07
5.795208077e-08
2.08121393e-07
4.061243137e-07
9.722847962e-07
2.86358678e-06
9.441874378e-06
2.672146989e-05
1.130377429e-06
8.02142051e-07
8.610877524e-07
1.179824076e-06
1.555370796e-05
8.314082135e-06
2.572726765e-05
6.137238217e-05
6.645234657e-05
0.0001910922912
2.017878243e-05
0.0001225344957
9.552071584e-05
1.063515599e-05
9.665044818e-05
0.0001553307147
0.0001517399914
0.0001665186168
0.000227981699
0.0003356584048
0.0005409960425
0.0009818410905
0.0003725493035
4.64646371e-05
2.673451413e-05
4.465426309e-05
3.991828062e-05
4.165504751e-05
4.932263395e-05
6.375093013e-05
0.0001128636087
0.000154460163
0.0001662067825
0.0001701054916
0.0001204165853
0.002524117751
0.002990313623
0.0001115090556
8.36927085e-05
3.454300145e-05
4.250366559e-05
5.479643474e-05
7.220798893e-05
8.995727088e-05
9.862190251e-05
9.153982581e-05
7.324330237e-05
5.011652839e-05
2.693749078e-05
1.004855899e-05
3.663293903e-06
1.028926089e-06
2.331722418e-07
7.639208641e-08
3.28757267e-07
5.406264657e-07
1.412597861e-06
4.153323027e-06
9.49123454e-06
4.095407208e-05
3.768844868e-06
2.557881463e-06
1.861843314e-06
1.743787544e-06
1.810477351e-05
1.088937522e-05
2.175808781e-05
3.687949167e-05
6.421001728e-05
0.0001474428481
6.402704729e-05
0.0002500371257
0.0008333586929
4.253416845e-05
6.314423697e-05
0.000134000228
0.0001901180044
0.000284342485
0.0003656139798
0.000390434918
0.0004323187562
0.0006639913859
0.0005036496324
0.0001447543292
9.981063632e-05
0.0002543976242
0.0001030626612
5.051019764e-05
4.211456006e-05
4.946037525e-05
6.460304963e-05
8.127909553e-05
9.156441849e-05
9.889356818e-05
8.000529555e-05
0.001862153476
0.003122717433
0.0001293019047
7.630962636e-05
3.30732601e-05
3.685538653e-05
4.240418845e-05
4.863183625e-05
5.379068445e-05
5.614541795e-05
5.353026387e-05
4.503727115e-05
3.10972084e-05
1.478216461e-05
2.985776298e-06
9.031026267e-07
2.658113099e-07
1.366025554e-07
1.218982316e-07
5.69976152e-07
7.438749095e-07
2.379082718e-06
7.93835745e-06
1.261675426e-05
4.526253815e-05
5.573026717e-06
5.262597374e-06
2.661621152e-06
9.419515573e-07
1.44650106e-05
1.133985877e-05
1.54911209e-05
1.289344763e-05
4.013367153e-06
9.821473532e-06
1.241654705e-05
0.0001957836065
8.278150501e-05
1.688817617e-05
3.811047181e-05
0.0001033231837
0.0002014766629
0.0003338104539
0.0003994590205
0.0003842984295
0.000352045149
0.0004154508346
0.0004627763658
0.0005138966456
0.0003467219047
0.0005569896974
0.0002290846045
8.497458495e-05
4.407740847e-05
4.258664558e-05
5.405837513e-05
6.926264559e-05
8.299971984e-05
9.493809696e-05
8.183239441e-05
0.001873979863
0.003314020192
0.0001450261344
7.23150871e-05
3.542298557e-05
3.702235128e-05
3.968744308e-05
4.27184466e-05
4.536129163e-05
4.657135093e-05
4.460042658e-05
3.801647539e-05
2.63298403e-05
1.230927426e-05
1.949513009e-06
5.765873174e-07
1.654035673e-07
1.084244458e-07
2.105771962e-07
1.142304758e-06
1.080566952e-06
4.535522316e-06
2.21287551e-05
2.096182387e-05
3.423040818e-05
1.127285776e-05
1.224987176e-05
5.290459526e-06
3.603319491e-07
1.179551435e-05
1.29400857e-05
2.05607849e-05
3.218180879e-05
3.407221706e-05
1.76933411e-05
1.350009083e-05
0.0001720785479
7.23835111e-05
3.875513482e-05
2.320366345e-05
6.592809045e-05
0.000168085456
0.0002615031805
0.0002865987646
0.0002629428776
0.0002296428988
0.0002313740829
0.0002789214239
0.0005080427325
0.0004378215877
0.0008173822449
0.0004167083907
0.0001889958468
7.834850041e-05
4.87463809e-05
5.505939952e-05
7.262895468e-05
9.612047231e-05
0.0001254551714
0.0001158787167
0.002325158771
4.426807677e-05
4.576755681e-05
4.340732618e-05
3.753007731e-05
2.692089734e-05
1.358242428e-05
2.216748221e-06
7.15383173e-07
3.763198492e-07
5.473651821e-07
1.275881995e-06
3.804865164e-06
4.996582434e-06
1.380962039e-05
9.491330692e-05
8.37937679e-05
0.0001146423109
6.714034981e-05
2.712523591e-05
1.174684851e-05
1.395731313e-05
1.034681772e-05
1.862296432e-05
3.926331852e-05
0.0001046273899
0.0005494637591
0.000199240778
0.0002132785971
0.001016846137
0.001245994025
0.0003912949111
4.777220475e-06
3.16136109e-05
9.405394883e-05
0.0001256397974
0.0001262436356
0.000115086496
0.0001040503484
0.0001022537003
0.0001384269575
0.0003504622229
0.0005573311592
0.00113985314
0.0007350545707
0.0004220019821
0.000206133629
0.0001022914031
8.686448575e-05
0.0001102314971
0.0001505468129
0.0002158273527
0.0002207321093
0.003257320462
2.971242621e-05
1.818945235e-05
4.373947982e-06
1.602335461e-06
1.177509031e-06
1.468667564e-06
2.538575181e-06
3.342007289e-06
0.0002568575311
0.0005041999405
0.001230699923
0.001268769217
0.0007011435227
0.0002757024379
1.783661145e-05
1.047912175e-05
1.178555334e-05
1.772533196e-05
3.957698946e-05
0.000139111088
0.0004090408374
0.0006423895367
0.000963645516
0.001171024914
0.001093392448
0.0002098192938
1.37569697e-05
7.324920755e-07
2.927763099e-05
4.639544717e-05
4.320788564e-05
4.792619623e-05
4.979254567e-05
5.055588555e-05
5.310992429e-05
6.179215479e-05
8.830217928e-05
0.000161146158
0.0006587082546
0.0003778269277
0.0002698204096
0.0002257596136
0.000222607569
0.0002145966068
0.000231690689
0.0002720409256
0.0003872024561
0.0004370289987
0.004580862122
2.717662338e-05
3.646120446e-06
2.089700585e-06
1.955673767e-06
1.987773501e-06
1.274363412e-06
1.828290251e-06
0.0006337156177
0.0001575622017
0.001345317227
0.0002276886514
3.78356813e-05
1.15546984e-05
1.744468278e-05
2.741422566e-05
6.249649797e-05
0.0002457673604
0.0006402869362
0.0007114255419
0.0006366796627
0.0008219866048
0.001025311409
0.001190478062
0.0002942897857
4.192973779e-06
2.974092517e-05
0.0002386800249
2.474350157e-05
1.830227906e-05
2.879784831e-05
3.492807394e-05
3.861673807e-05
4.246874553e-05
4.912745161e-05
6.780654423e-05
0.000120311102
0.0005810608318
0.0008565538859
0.001189735475
0.001150627431
0.0008049918234
0.0005296051527
0.0004156308775
0.000409041777
0.000550139474
0.0006456689173
0.005751460276
1.915235752e-06
1.333132137e-06
9.562341821e-07
8.515703195e-06
4.908491962e-05
0.001208083467
0.0003476745002
1.98032196e-05
1.807488673e-05
2.880987436e-05
5.623172537e-05
0.0001673785174
0.0005273602027
0.0006361812658
0.0005210958987
0.0004566396776
0.0005401088366
0.0008317890323
0.0007478956687
2.096210538e-05
7.061037688e-05
0.0001581760231
6.055614557e-05
9.156900286e-06
1.238985018e-05
2.3658592e-05
3.063894809e-05
3.530414623e-05
3.987171171e-05
4.643491135e-05
7.278762943e-05
9.508274653e-05
0.0002221299889
0.0005840982768
0.00106615101
0.001113719607
0.0008096414746
0.0005362881202
0.0004057499999
0.0003747684716
0.0005114794773
0.0006341179816
0.006068844996
2.006139402e-06
1.112381986e-05
9.623057733e-05
0.001403743183
0.0002626458043
1.346238602e-05
1.879903761e-05
3.31809221e-05
6.829909578e-05
0.0001018756766
0.0005528471299
0.0006327459759
0.0004847517132
0.0004581981837
0.0003990515039
0.0004644106455
0.0001194060993
1.930207479e-05
6.714498495e-05
0.0001530227647
3.108664473e-05
9.123052233e-06
9.386017666e-06
1.77014029e-05
2.332313812e-05
2.93660895e-05
3.580172113e-05
4.365164038e-05
0.0001033639645
0.000102879647
0.0001190514566
0.0003143217708
0.0007101814964
0.0008229841116
0.0006039418237
0.0003744497076
0.0002494479126
0.0002031661399
0.0002879904625
0.0003824857917
0.005315667491
9.485946128e-05
1.345252971e-05
1.683228977e-05
3.139754015e-05
7.847551376e-05
5.817539877e-05
0.0006922299537
0.001212667649
0.0006661358522
0.0008953070357
0.0006254260201
0.000341578721
7.579504346e-05
7.157337532e-05
0.0001227113844
0.0001330157342
3.346743971e-05
1.372510098e-05
4.95173413e-06
8.495563824e-06
1.154041268e-05
2.647615743e-05
3.871605256e-05
4.415300336e-05
0.0001512335848
0.0001383166885
0.0001206638919
0.0002630362299
0.0006457230848
0.0007701332482
0.0005201886993
0.000242550612
0.0001038299739
5.740183477e-05
8.188582945e-05
0.0001265590291
0.004096913034
1.325889423e-05
2.473172728e-05
0.0001874472507
4.771806002e-05
0.0002561260377
0.0007491813135
0.0006794651181
0.001246257442
0.0009164604526
0.0004759065596
0.0002218638286
0.0001907002024
0.0002048032683
0.0001540143097
5.371568344e-05
1.945197754e-05
2.017521032e-05
3.615608178e-05
4.545884669e-05
0.0001064485729
0.0001010839562
6.640812888e-05
0.000194823944
0.0001801482463
0.0001528512423
0.0002318948036
0.0005159570976
0.000655515793
0.0004749418203
0.0002123369675
6.947821778e-05
2.551041405e-05
3.039935039e-05
5.153567766e-05
0.003376673553
1.655765329e-05
0.0002973559346
2.689093546e-05
1.869445272e-05
7.512992203e-05
0.0002967872005
0.001340954499
0.0008675264286
0.0003731728886
0.0002167586274
0.0002046420188
0.0003280166447
0.000353026962
9.308210504e-05
1.810366197e-05
0.0003565133995
0.0006398911541
0.0006248849177
0.0003989264123
0.0002304634447
0.0001059540834
0.0002345722149
0.0002249561061
0.0002035295087
0.0002273681198
0.0003540223193
0.000489518106
0.0004668503124
0.0002913006272
0.0001195596597
4.16736174e-05
3.489937887e-05
4.270982453e-05
0.003123210539
1.692015463e-05
0.0002178720629
3.305323307e-05
5.636217409e-06
1.209835846e-05
7.404054292e-05
0.0007240682461
0.0007958097689
0.0003398114107
0.0002545931002
0.0001010539512
0.0001903448451
0.0003209254476
8.610387672e-05
1.237992957e-05
1.880402067e-05
4.177265469e-05
5.720981923e-05
9.412836683e-05
0.0001564199888
9.978297493e-05
0.0002623701849
0.0002745352015
0.0002670291952
0.0002711257436
0.0002869911595
0.0003437907953
0.0004089151824
0.0003646700753
0.0002084292678
7.899496788e-05
4.621196129e-05
4.273484895e-05
0.003207638168
6.52921449e-05
0.000259411414
0.000247381597
0.0001982377973
5.393657233e-05
0.0003981465913
0.000387286361
0.0003613182767
0.000584538852
0.000187415152
0.0001287351067
0.0001078101051
4.1883885e-05
8.860591164e-06
4.506070304e-06
1.069740043e-05
2.008927049e-05
9.150314421e-05
0.0002018777656
0.0001630169824
0.00029237194
0.0003253440617
0.0003553669013
0.0003614450757
0.0003099244363
0.0002636716829
0.000307437732
0.0003640581133
0.0003108788048
0.000186892278
0.0001618032375
9.243060049e-05
0.003650118598
0.0002000710541
0.000291017319
0.0002349131912
0.0002150629734
0.000277498261
0.000981722087
0.0003681811494
0.0004083966602
0.0008369410067
0.0004846533852
0.0001849610254
9.52525001e-05
3.315055257e-05
8.285275072e-06
4.031919129e-06
9.852714605e-06
1.507427736e-05
2.031333362e-05
3.187986124e-05
7.731895924e-05
0.0002890704675
0.0003266545663
0.000299646395
0.0002325825298
0.0001613116667
0.0001318155589
0.0001866979108
0.000310742337
0.0003549643453
0.0002902928731
0.0003103294475
0.0002257892141
0.004377364705
0.0003488672316
0.000247517715
0.0001276813303
9.50940726e-05
9.867570922e-05
0.0002733190477
0.0001575543506
0.0002844568545
0.0007879077588
0.0006963375543
0.0004012647702
0.0002043298911
5.17558172e-05
6.582357828e-06
2.166427556e-06
5.480764859e-06
8.516055605e-06
1.20537558e-05
3.598525237e-05
0.0001228594372
0.0004847997862
0.0005317048759
0.0003500839884
0.0001901829133
0.0001111657332
8.148578814e-05
0.0001032887447
0.000242586363
0.0004608131894
0.0005380204982
0.0006028713321
0.0005305291519
0.005230418907
0.0003333378865
0.0002078491896
0.0001619688232
0.0001272951299
0.0002211079522
0.0001687675304
0.0002809137041
0.0009849709019
0.0004597584658
0.0002769924231
0.0002759531191
8.920161779e-05
1.230453147e-05
3.208330211e-06
6.56960328e-06
9.11745069e-06
1.41629345e-05
9.858136047e-05
0.0001946778289
0.0003406410126
0.0002283539252
0.0001319331581
8.504653842e-05
6.454830556e-05
5.581415745e-05
6.019480813e-05
0.0001156800631
0.0003273732115
0.0006716433423
0.001031958189
0.001101067948
0.005764646505
0.0004743914275
0.0003813385333
0.0002675255865
0.0002270817128
0.000194442678
0.0003713613719
0.0008295178485
0.0002857260741
0.0001641627359
4.752764154e-05
1.886906155e-05
3.077118934e-05
1.500172969e-05
2.452623751e-05
3.567698715e-05
5.950280905e-05
0.0001816209145
0.0001565936352
0.0001085735132
7.86028493e-05
6.488522241e-05
5.763861486e-05
5.280548437e-05
5.02058675e-05
5.198079108e-05
6.720351713e-05
0.0001159636703
0.0002142821096
0.000418669049
0.0006412743117
0.005138851668
0.001081410638
0.0007438541003
0.0003375599344
0.0004423596939
0.0007555113074
0.0005650814262
0.0006335269042
0.0002334678434
0.0004243640745
0.0001977112352
0.0003316341038
0.0004154283017
0.0002154092086
0.0005253638406
0.0008095420654
0.0006784263256
0.0002531065529
8.140196147e-05
4.807952885e-05
4.509670535e-05
4.765640378e-05
4.925157396e-05
4.900391419e-05
4.879658266e-05
5.198493797e-05
6.39846529e-05
9.261310765e-05
0.0001406700927
0.000249204957
0.0003306255362
0.004168616181
0.001856717534
0.0009682073385
0.0002567477318
0.0004761872185
0.0005653635325
0.0008929542035
0.000657837218
0.0008146025518
0.000876293782
0.0001140293396
5.468088225e-05
0.0001928388198
0.001253637661
0.0008987415461
0.0001584426104
1.366913166e-05
8.762190075e-06
1.700321996e-05
2.404587237e-05
3.163380891e-05
3.890045758e-05
4.393183604e-05
4.611215911e-05
4.722335437e-05
5.087735394e-05
6.068313389e-05
7.826170489e-05
0.0001032796134
0.0001665297153
0.000186960872
0.003386435939
0.001035291241
0.001099159673
0.001407759396
0.0002739415721
5.383293633e-05
2.060789113e-05
9.467739299e-05
0.001284784597
0.0002370370619
6.358179747e-05
1.432178994e-05
5.411924969e-06
9.886648208e-06
1.638039719e-05
2.358072344e-05
3.08719994e-05
3.70051004e-05
4.054146306e-05
4.140085663e-05
4.233035536e-05
4.787516629e-05
6.111552369e-05
8.321639548e-05
0.0001234173848
0.0001413830435
0.002803169375
0.001230280129
0.001700838667
0.0005406231478
6.371352648e-05
0.0002679993774
7.816044071e-05
2.161293612e-05
0.0001605888066
0.0001558791145
0.0001161958677
5.968639309e-05
2.293769681e-05
1.286134116e-05
1.425739332e-05
1.820769448e-05
2.315323736e-05
2.930991732e-05
3.723289351e-05
4.791523824e-05
6.335012809e-05
8.65614807e-05
0.000116258833
0.0001396444775
0.0001531338895
0.0001132825929
0.002187659408
)
;

boundaryField
{
    walls
    {
        type            zeroGradient;
    }
    wallFilmFace_top
    {
        type            zeroGradient;
    }
    region0_to_wallFilmRegion_wallFilmFace
    {
        type            zeroGradient;
    }
    mirrorFace_top
    {
        type            zeroGradient;
    }
    region0_to_wallFilmRegion_mirrorFace
    {
        type            zeroGradient;
    }
    procBoundary0to1
    {
        type            processor;
        value           nonuniform List<scalar> 
52
(
0.003564816562
0.0001608475966
7.283628682e-05
3.914996714e-05
3.862399919e-05
3.977790617e-05
4.186637993e-05
4.186637993e-05
4.731092053e-05
5.096088264e-05
4.413100105e-05
3.880165965e-05
3.880165965e-05
3.285228612e-05
2.809109706e-05
2.809109706e-05
8.731326729e-05
2.440771918e-05
3.440941855e-06
2.451276618e-06
2.451276618e-06
2.73561331e-06
2.706440211e-06
2.706440211e-06
7.048737557e-06
4.538971659e-05
0.0002284302409
0.001249695594
0.001249695594
2.225089199e-05
3.208558585e-05
3.208558585e-05
8.15548522e-06
8.15548522e-06
2.725059286e-06
0.0001391760549
0.0001391760549
0.0003991750621
0.0004301238381
0.0005400078123
0.0005400078123
0.0004681404727
0.0004681404727
0.0009142861233
0.000892440227
0.0008277470345
0.0009092153809
0.0003145018527
0.0003656078414
0.0004657514215
0.0004657514215
0.00043672315
)
;
    }
    procBoundary0to2
    {
        type            processor;
        value           nonuniform List<scalar> 
26
(
0.001950718167
0.00138927526
0.0002059148166
0.0002350322067
0.0007515748753
7.625750245e-05
2.202193842e-06
6.878037612e-05
8.728864242e-05
8.622039524e-05
7.819949909e-05
6.182140507e-05
3.474891416e-05
2.22693747e-05
2.143228049e-05
2.474705969e-05
3.019039096e-05
3.831486798e-05
5.186446224e-05
7.672238219e-05
0.0001153815138
0.0001501378461
0.0001486642406
0.0001227999534
6.092478719e-05
0.001715653818
)
;
    }
}


// ************************************************************************* //
