/*--------------------------------*- C++ -*----------------------------------*\
  =========                 |
  \\      /  F ield         | OpenFOAM: The Open Source CFD Toolbox
   \\    /   O peration     | Website:  https://openfoam.org
    \\  /    A nd           | Version:  8
     \\/     M anipulation  |
\*---------------------------------------------------------------------------*/
FoamFile
{
    version     2.0;
    format      ascii;
    class       volScalarField;
    location    "1.1/wallFilmRegion";
    object      kappa;
}
// * * * * * * * * * * * * * * * * * * * * * * * * * * * * * * * * * * * * * //

dimensions      [1 1 -3 -1 0 0 0];

internalField   nonuniform List<scalar> 
1369
(
0.6088100031
0.6088100031
0.608810003
0.6088100029
0.6088100029
0.608810003
0.6088100032
0.6088100034
0.6088100033
0.6088100029
0.6088100029
0.6088100028
0.6088100028
0.6088100029
0.6088100029
0.6088100029
0.6088100028
0.6088100027
0.6088100026
0.6088100027
0.6088100027
0.6088100025
0.6088100023
0.608810002
0.6088100017
0.6088100013
0.6088100012
0.6088100012
0.6088100007
0.6088099988
0.608809997
0.6088099963
0.6088099982
0.6088099991
0.6088099992
0.6088099992
0.608809999
0.6088099992
0.6088099994
0.6088099994
0.6088099995
0.6088099995
0.6088099996
0.6088099996
0.6088099996
0.6088099996
0.6088099997
0.60881
0.6088100001
0.6088100001
0.6088100001
0.6088100001
0.6088100003
0.6088100008
0.6088100005
0.6088100003
0.6088100001
0.6088099997
0.6088099995
0.6088100004
0.608810003
0.608810003
0.608810003
0.6088100031
0.6088100036
0.6088100043
0.6088100054
0.6088100047
0.6088100042
0.6088100027
0.6088100035
0.6088100045
0.6088100055
0.6088100065
0.6088100079
0.6088100103
0.6088100155
0.608810032
0.6088100112
0.6088100034
0.6088100051
0.6088100058
0.6088100052
0.6088100044
0.6088100044
0.6088100073
0.6088100278
0.6088100112
0.6088100028
0.6088100018
0.6088099972
0.6088099954
0.6088099996
0.6088100009
0.6088100002
0.6088100003
0.6088100008
0.608810001
0.6088100001
0.6088099991
0.608809999
0.6088099997
0.6088100004
0.6088100007
0.6088100011
0.6088100014
0.6088100025
0.6088100023
0.6088100024
0.6088100029
0.6088100035
0.608810005
0.6088100032
0.6088100015
0.60881
0.6088100003
0.6088100003
0.608810001
0.6088100012
0.6088100015
0.6088100034
0.6088100032
0.6088100031
0.6088100031
0.6088100033
0.6088100041
0.6088100043
0.6088100045
0.6088100041
0.6088100025
0.6088100031
0.6088100042
0.6088100054
0.6088100067
0.6088100085
0.6088100118
0.6088100203
0.6088100594
0.6088100278
0.6088100048
0.6088100058
0.6088100068
0.6088100067
0.608810005
0.6088100042
0.6088100071
0.6088100195
0.6088100214
0.6088100118
0.6088100051
0.6088099975
0.6088099952
0.6088100003
0.6088100011
0.6088100005
0.6088099994
0.6088100008
0.608810001
0.6088099994
0.6088099982
0.6088099979
0.6088099986
0.6088099999
0.6088100006
0.6088100011
0.6088100018
0.6088100029
0.608810002
0.6088100019
0.6088100025
0.6088100031
0.6088100037
0.6088100032
0.6088100014
0.6088100002
0.6088100009
0.6088100017
0.6088100019
0.6088100022
0.6088100025
0.6088100032
0.6088100032
0.6088100032
0.6088100032
0.6088100032
0.6088100034
0.6088100035
0.6088100036
0.6088100036
0.6088100024
0.6088100027
0.6088100038
0.6088100052
0.6088100068
0.6088100092
0.6088100139
0.6088100274
0.6088101089
0.6088100697
0.6088100078
0.6088100068
0.6088100074
0.6088100074
0.6088100044
0.6088100011
0.6088099988
0.6088100048
0.608810005
0.6088100052
0.6088100053
0.6088099961
0.6088099954
0.6088100008
0.6088100014
0.6088100014
0.6088100008
0.6088100009
0.608810001
0.6088099986
0.6088099973
0.608809997
0.6088099974
0.608809999
0.6088100003
0.6088100009
0.6088100014
0.6088100027
0.6088100014
0.608810001
0.6088100011
0.6088100015
0.6088100021
0.608810002
0.6088100016
0.6088100016
0.6088100017
0.608810002
0.6088100022
0.6088100024
0.6088100016
0.6088100031
0.6088100032
0.6088100032
0.6088100032
0.6088100032
0.6088100033
0.6088100034
0.6088100034
0.6088100035
0.6088100022
0.6088100024
0.6088100032
0.6088100047
0.6088100066
0.6088100097
0.608810016
0.608810036
0.6088101783
0.6088101265
0.6088100165
0.6088100092
0.6088100082
0.6088100076
0.6088100267
0.6088099943
0.6088099867
0.6088100015
0.6088100049
0.6088100064
0.6088100069
0.6088099947
0.6088099959
0.608810001
0.6088100013
0.6088100015
0.6088100008
0.6088100009
0.608810001
0.6088099976
0.6088099964
0.6088099962
0.6088099965
0.608809998
0.6088099999
0.6088100007
0.6088100008
0.6088100014
0.6088100007
0.6088100006
0.6088100006
0.6088100008
0.6088100011
0.6088100017
0.6088100017
0.6088100021
0.6088100022
0.6088100022
0.6088100022
0.6088100014
0.6088100009
0.608810003
0.6088100032
0.6088100031
0.6088100032
0.6088100032
0.6088100033
0.6088100033
0.6088100034
0.6088100035
0.6088100021
0.6088100022
0.6088100028
0.608810004
0.6088100061
0.6088100099
0.6088100183
0.6088100476
0.6088102868
0.6088101836
0.6088100456
0.608810017
0.608810011
0.6088100074
0.6088100201
0.6088107417
0.6088100274
0.6088100216
0.6088100256
0.6088100214
0.6088100132
0.6088099941
0.6088099961
0.608810001
0.6088100009
0.6088100015
0.6088100008
0.6088100009
0.608810001
0.6088099963
0.6088099953
0.6088099953
0.6088099958
0.6088099972
0.6088099995
0.6088100006
0.6088100004
0.6088100009
0.6088100005
0.6088100004
0.6088100005
0.6088100006
0.6088100007
0.6088100011
0.6088100008
0.6088100014
0.6088100021
0.6088100019
0.6088100012
0.6088100003
0.6088100003
0.6088100029
0.6088100037
0.6088100033
0.6088100032
0.6088100033
0.6088100034
0.6088100035
0.6088100037
0.6088100026
0.6088100021
0.6088100022
0.6088100025
0.6088100035
0.6088100055
0.6088100098
0.6088100207
0.6088100629
0.608810415
0.6088101983
0.6088100934
0.608810038
0.6088100178
0.608810008
0.6088100135
0.6088115267
0.6088101815
0.6088101236
0.6088101132
0.608810027
0.6088100163
0.6088099938
0.6088099959
0.6088100007
0.6088100001
0.6088100012
0.6088100008
0.6088100008
0.608810001
0.6088099948
0.6088099942
0.6088099946
0.6088099953
0.6088099967
0.6088099989
0.6088100001
0.6088099999
0.6088100004
0.6088100006
0.6088100005
0.6088100005
0.6088100005
0.6088100007
0.6088100008
0.6088100005
0.60881
0.6088100008
0.6088100011
0.6088100009
0.60881
0.6088100001
0.6088100027
0.6088100058
0.6088100045
0.6088100036
0.6088100035
0.6088100036
0.6088100036
0.6088100031
0.6088100024
0.6088100023
0.6088100023
0.6088100026
0.6088100034
0.6088100054
0.6088100101
0.6088100239
0.6088100832
0.6088104784
0.6088101737
0.6088101117
0.6088100588
0.6088100257
0.6088100097
0.60881001
0.6088114519
0.6088101189
0.6088100848
0.6088100932
0.6088100159
0.6088100132
0.6088099941
0.608809995
0.6088100001
0.6088099993
0.6088100003
0.608809999
0.60881
0.6088100008
0.6088099935
0.6088099934
0.608809994
0.6088099949
0.608809996
0.6088099978
0.6088099993
0.6088099992
0.6088099998
0.6088100007
0.6088100006
0.6088100006
0.6088100008
0.6088100009
0.608810001
0.608810001
0.6088100002
0.6088100002
0.6088100002
0.6088100001
0.6088100002
0.6088100002
0.6088100027
0.6088100063
0.6088100066
0.6088100059
0.6088100049
0.608810004
0.6088100034
0.6088100029
0.6088100027
0.6088100026
0.6088100027
0.6088100031
0.6088100041
0.6088100064
0.6088100125
0.6088100317
0.6088101156
0.6088104162
0.6088101295
0.6088101009
0.6088100547
0.608810023
0.608810011
0.6088100084
0.6088100302
0.6088100678
0.6088100514
0.6088100741
0.6088100096
0.6088100096
0.6088099983
0.6088099942
0.6088099997
0.6088099989
0.6088100034
0.6088099992
0.6088100001
0.6088100032
0.6088099928
0.608809993
0.6088099938
0.6088099947
0.6088099954
0.6088099964
0.6088099975
0.608809998
0.608809999
0.6088100001
0.6088100009
0.6088100011
0.6088100015
0.6088100016
0.6088100014
0.6088100012
0.608810001
0.6088100011
0.6088100014
0.608810002
0.6088100028
0.6088100006
0.6088100027
0.6088100059
0.6088100064
0.6088100064
0.6088100055
0.6088100045
0.6088100037
0.6088100032
0.6088100029
0.6088100029
0.6088100032
0.608810004
0.6088100061
0.6088100113
0.6088100231
0.60881006
0.6088101754
0.608810285
0.608810086
0.6088100769
0.6088100377
0.6088100145
0.6088100083
0.6088100067
0.6088100199
0.6088100307
0.608810032
0.6088100585
0.6088100091
0.6088100075
0.6088099991
0.6088099968
0.6088099995
0.6088099988
0.6088099998
0.6088099892
0.6088099997
0.6088100004
0.6088099934
0.608809993
0.6088099937
0.6088099944
0.608809995
0.6088099954
0.6088099959
0.608809997
0.6088099984
0.6088099997
0.6088100006
0.6088100004
0.6088100008
0.6088100013
0.6088100014
0.6088100011
0.6088100009
0.6088100007
0.6088100008
0.608810001
0.6088100015
0.6088100007
0.6088100027
0.6088100056
0.608810006
0.608810006
0.608810005
0.6088100041
0.6088100034
0.6088100029
0.6088100027
0.6088100027
0.6088100032
0.6088100044
0.6088100081
0.6088100279
0.6088100664
0.6088101592
0.6088102173
0.6088101628
0.6088100528
0.6088100508
0.608810021
0.6088100069
0.6088100045
0.6088100051
0.6088100196
0.6088100123
0.6088100197
0.6088100545
0.6088100097
0.6088100056
0.6088099993
0.6088099971
0.6088100128
0.608810006
0.6088100038
0.6088099875
0.6088099982
0.6088100028
0.6088099942
0.608809993
0.6088099935
0.6088099943
0.608809995
0.6088099956
0.6088099961
0.608809997
0.6088099982
0.6088099995
0.60881
0.60881
0.6088100001
0.6088100006
0.6088100011
0.6088100009
0.6088100006
0.6088100004
0.6088100003
0.6088100005
0.6088100008
0.6088100008
0.6088100027
0.6088100051
0.6088100055
0.6088100051
0.6088100042
0.6088100034
0.6088100028
0.6088100025
0.6088100023
0.6088100024
0.6088100029
0.6088100041
0.6088100078
0.6088100344
0.6088100819
0.6088101775
0.6088101684
0.6088100819
0.6088100315
0.6088100275
0.608810009
0.6088100019
0.6088100012
0.6088100044
0.6088100137
0.6088100043
0.6088100126
0.6088102722
0.6088100084
0.6088100019
0.6088099971
0.6088099941
0.6088099953
0.6088100096
0.6088100058
0.6088099913
0.6088099998
0.6088100042
0.6088099961
0.608809993
0.6088099933
0.6088099945
0.6088099956
0.6088099964
0.608809997
0.6088099977
0.6088099986
0.6088099993
0.6088099996
0.60881
0.60881
0.6088100001
0.6088100003
0.6088100003
0.6088099999
0.6088099998
0.6088099998
0.6088099999
0.6088100001
0.6088100008
0.6088100021
0.6088100021
0.6088100022
0.6088100027
0.6088100038
0.6088100069
0.6088100302
0.6088100676
0.6088100946
0.6088100552
0.608810031
0.6088100199
0.6088100064
0.6088100009
0.608809999
0.6088099989
0.6088100005
0.6088100011
0.6088100016
0.6088100104
0.6088100105
0.6088100027
0.6088099983
0.6088099951
0.6088099931
0.6088099908
0.6088099975
0.6088099973
0.6088099955
0.6088099947
0.608809995
0.6088099971
0.6088099934
0.6088099936
0.6088099956
0.6088099972
0.6088099982
0.6088099989
0.6088099994
0.6088099998
0.6088099999
0.6088099999
0.60881
0.60881
0.6088099999
0.6088099998
0.6088099993
0.6088099988
0.6088099988
0.6088099991
0.6088099994
0.6088099996
0.6088100007
0.6088100034
0.6088100059
0.6088100199
0.6088100403
0.6088100505
0.6088100418
0.608810031
0.6088100302
0.6088100046
0.6088100019
0.6088099976
0.6088099959
0.608809996
0.6088099967
0.6088100045
0.6088100087
0.608810004
0.6088099987
0.6088099957
0.6088099939
0.6088099931
0.6088099931
0.6088099939
0.6088099938
0.6088099933
0.6088099924
0.608809994
0.6088100193
0.6088099952
0.6088099967
0.608809999
0.6088100002
0.6088100008
0.608810001
0.6088100012
0.6088100012
0.608810001
0.6088100005
0.6088099999
0.6088099994
0.6088099987
0.6088099981
0.6088099976
0.6088099977
0.6088099982
0.6088099987
0.6088099991
0.6088099994
0.6088100006
0.6088100076
0.6088100268
0.6088100386
0.6088100395
0.608810036
0.6088100362
0.6088100509
0.6088100028
0.6088100016
0.6088100007
0.6088099988
0.6088100028
0.6088100089
0.6088100056
0.6088100006
0.6088099959
0.6088099942
0.6088099937
0.6088099934
0.6088099934
0.6088099937
0.6088099939
0.6088099933
0.6088099929
0.6088100153
0.6088099936
0.6088099962
0.6088100016
0.6088100023
0.6088100018
0.6088100017
0.6088100016
0.6088100015
0.6088100015
0.6088100014
0.6088100009
0.6088099997
0.6088099987
0.6088099978
0.6088099973
0.6088099971
0.6088099973
0.6088099979
0.6088099985
0.608809999
0.6088099993
0.6088100006
0.608810036
0.6088100237
0.6088100409
0.6088100161
0.6088100036
0.6088100001
0.6088099997
0.6088100074
0.6088100059
0.6088100024
0.6088099989
0.6088099957
0.6088099947
0.6088099944
0.608809994
0.6088099936
0.6088099936
0.6088099939
0.6088099934
0.6088100028
0.6088099976
0.6088099978
0.6088100018
0.6088100048
0.6088100029
0.6088100021
0.6088100018
0.6088100016
0.6088100016
0.6088100016
0.6088100015
0.6088100014
0.6088100004
0.6088099987
0.6088099977
0.6088099973
0.6088099971
0.6088099973
0.6088099979
0.6088099985
0.608809999
0.6088099994
0.6088100007
0.6088100223
0.6088100063
0.60881
0.6088099985
0.6088099988
0.6088100078
0.6088100036
0.60881
0.6088099977
0.6088099982
0.6088099964
0.6088099959
0.6088099953
0.608809995
0.6088099943
0.6088099942
0.6088099948
0.6088099992
0.608809996
0.608809996
0.6088100021
0.6088100047
0.6088100034
0.6088100024
0.608810002
0.6088100018
0.6088100018
0.6088100019
0.6088100014
0.6088100016
0.6088100015
0.6088099996
0.6088099982
0.6088099977
0.6088099975
0.6088099976
0.6088099981
0.6088099987
0.6088099993
0.6088099997
0.608810001
0.6088099996
0.6088100046
0.6088100018
0.608809997
0.6088099939
0.6088099971
0.6088099966
0.608809997
0.6088099955
0.6088099956
0.6088099952
0.6088099952
0.608809997
0.6088099963
0.6088099957
0.6088099964
0.6088100015
0.6088100037
0.6088100047
0.6088100034
0.6088100028
0.608810002
0.608810002
0.6088100023
0.6088100009
0.6088100012
0.6088100016
0.60881
0.6088099986
0.6088099981
0.608809998
0.6088099982
0.6088099988
0.6088099998
0.6088100006
0.6088100008
0.6088100015
0.608810002
0.6088099962
0.6088099914
0.6088099963
0.6088099955
0.6088099955
0.6088099951
0.6088099956
0.6088099956
0.6088099959
0.6088099964
0.6088099958
0.6088099953
0.608809996
0.6088100003
0.6088100027
0.6088100018
0.6088100015
0.6088100016
0.6088100012
0.6088100015
0.6088100021
0.6088100005
0.6088100007
0.6088100012
0.6088100006
0.6088099993
0.6088099988
0.6088099988
0.608809999
0.6088099997
0.6088100013
0.6088100032
0.6088100024
0.6088100018
0.6088099969
0.608809991
0.6088099946
0.608809998
0.6088099956
0.6088099941
0.6088099951
0.6088099959
0.6088099963
0.6088099967
0.6088099964
0.608809996
0.6088099964
0.6088099997
0.6088100022
0.6088100003
0.6088100004
0.6088100005
0.6088100007
0.6088100009
0.6088100013
0.6088100003
0.6088100004
0.6088100007
0.608810001
0.6088100004
0.6088099998
0.6088099994
0.6088099994
0.6088099996
0.6088100004
0.6088100025
0.6088100027
0.608810002
0.6088099956
0.6088099911
0.6088099905
0.6088100037
0.6088100069
0.6088099958
0.6088099925
0.6088099956
0.6088099961
0.6088099966
0.6088099974
0.6088099978
0.6088099978
0.6088099996
0.6088100024
0.6088100017
0.6088100011
0.608810001
0.6088100009
0.6088100007
0.6088100007
0.6088100001
0.6088100002
0.6088100004
0.6088100008
0.6088100011
0.6088100007
0.6088100001
0.6088099998
0.6088099996
0.6088099999
0.6088100013
0.6088100023
0.6088100021
0.6088099931
0.6088099912
0.6088099909
0.6088099927
0.6088099949
0.6088099891
0.6088099925
0.6088099949
0.6088099961
0.608809997
0.6088099988
0.6088099992
0.6088100004
0.6088100028
0.6088100049
0.6088100028
0.608810002
0.6088100008
0.6088100003
0.6088100002
0.60881
0.6088100001
0.6088100002
0.6088100005
0.6088100009
0.6088100012
0.6088100008
0.6088100002
0.6088099998
0.6088099996
0.60881
0.6088100009
0.608810002
0.6088099919
0.6088099911
0.6088099902
0.6088099893
0.608809989
0.608809989
0.6088099888
0.6088099897
0.6088099939
0.6088099969
0.6088099987
0.6088099994
0.6088100007
0.6088100029
0.6088100058
0.6088100032
0.6088100023
0.6088100018
0.6088100014
0.6088100011
0.6088100002
0.6088100003
0.6088100007
0.6088100011
0.6088100014
0.6088100017
0.6088100014
0.6088100008
0.6088100003
0.6088100001
0.6088100002
0.6088100005
0.608810002
0.6088099922
0.6088099919
0.6088099916
0.6088099906
0.6088099898
0.6088099888
0.6088099893
0.6088099921
0.6088099956
0.6088099972
0.6088099977
0.6088099978
0.6088099993
0.6088100034
0.6088100094
0.6088100049
0.6088100033
0.6088100023
0.6088100014
0.608810001
0.6088100004
0.6088100006
0.6088100009
0.6088100012
0.6088100015
0.6088100018
0.6088100019
0.6088100013
0.6088100007
0.6088100003
0.6088100002
0.6088100003
0.6088100019
0.6088099928
0.6088099934
0.6088099935
0.6088099937
0.608809989
0.6088099904
0.6088099934
0.6088099967
0.6088099966
0.6088099956
0.6088099955
0.608809997
0.6088100007
0.6088100053
0.608810003
0.6088100023
0.6088100018
0.6088100011
0.6088100011
0.608810001
0.6088100011
0.6088100013
0.6088100015
0.6088100017
0.608810002
0.6088100022
0.608810002
0.6088100014
0.608810001
0.6088100008
0.6088100009
0.608810002
0.6088099931
0.6088099913
0.6088099923
0.6088099911
0.608809993
0.6088099948
0.6088099972
0.6088099969
0.6088099966
0.608809998
0.608810003
0.6088099996
0.608810001
0.608810001
0.6088100009
0.6088100009
0.608810001
0.6088100012
0.6088100012
0.6088100013
0.6088100014
0.6088100016
0.6088100017
0.6088100019
0.6088100021
0.6088100023
0.6088100024
0.6088100024
0.6088100024
0.6088100026
0.6088100023
0.6088099921
0.6088099885
0.6088099917
0.6088099932
0.608809989
0.6088099935
0.6088099952
0.608809996
0.6088099955
0.6088099961
0.6088099954
0.6088099962
0.6088099976
0.6088099997
0.6088100007
0.6088100011
0.6088100014
0.6088100016
0.6088100017
0.6088100016
0.6088100016
0.6088100016
0.6088100017
0.6088100019
0.608810002
0.6088100022
0.6088100025
0.6088100027
0.6088100031
0.6088100038
0.6088100024
0.6088099943
0.6088099922
0.6088099919
0.6088099918
0.6088099935
0.6088099934
0.6088099955
0.6088099963
0.608809996
0.608809997
0.6088099967
0.6088099964
0.6088099977
0.6088100004
0.6088100017
0.6088100049
0.6088100047
0.6088100031
0.6088100024
0.6088100019
0.6088100017
0.6088100016
0.6088100017
0.6088100018
0.6088100019
0.6088100021
0.6088100023
0.6088100026
0.6088100033
0.6088100045
0.6088100023
0.608809995
0.6088099976
0.6088099959
0.6088099965
0.6088099998
0.6088100004
0.608809999
0.6088099989
0.6088100005
0.6088100016
0.6088100036
0.6088100059
0.6088100042
0.6088100029
0.6088100022
0.6088100019
0.6088100017
0.6088100017
0.6088100017
0.6088100017
0.6088100017
0.6088100018
0.6088100019
0.6088100025
0.6088100037
0.6088100023
0.6088099958
0.6088099985
0.6088099962
0.6088099978
0.6088099977
0.6088100007
0.6088100019
0.6088100001
0.6088100003
0.6088100006
0.6088100013
0.6088100027
0.6088100039
0.6088100034
0.6088100027
0.6088100022
0.6088100018
0.6088100015
0.6088100013
0.6088100012
0.6088100012
0.6088100014
0.6088100017
0.6088100025
0.608810004
0.6088100023
)
;

boundaryField
{
    walls
    {
        type            zeroGradient;
    }
    wallFilmFace_top
    {
        type            zeroGradient;
    }
    region0_to_wallFilmRegion_wallFilmFace
    {
        type            zeroGradient;
    }
    mirrorFace_top
    {
        type            zeroGradient;
    }
    region0_to_wallFilmRegion_mirrorFace
    {
        type            zeroGradient;
    }
    procBoundary0to1
    {
        type            processor;
        value           nonuniform List<scalar> 
52
(
0.6088100027
0.6088100046
0.6088100048
0.6088100042
0.6088100034
0.6088100028
0.6088100024
0.6088100024
0.6088100019
0.6088100018
0.608810002
0.6088100024
0.6088100024
0.608810003
0.6088100047
0.6088100047
0.6088100043
0.6088100116
0.6088100296
0.6088100362
0.6088100362
0.6088100285
0.6088100128
0.6088100128
0.6088100078
0.6088100001
0.6088099988
0.6088099979
0.6088099979
0.6088100016
0.6088099925
0.6088099925
0.6088100051
0.6088100051
0.6088100254
0.6088099918
0.6088099918
0.6088099893
0.6088099917
0.6088099928
0.6088099928
0.6088099924
0.6088099924
0.6088099919
0.6088099936
0.6088099898
0.6088099917
0.608809989
0.60880999
0.608809992
0.608809992
0.6088099915
)
;
    }
    procBoundary0to2
    {
        type            processor;
        value           nonuniform List<scalar> 
26
(
0.6088099974
0.6088099983
0.6088099952
0.6088099956
0.6088099961
0.6088099988
0.608810012
0.6088100002
0.6088100001
0.6088100002
0.6088100004
0.6088100011
0.6088100022
0.6088100029
0.6088100027
0.6088100023
0.6088100019
0.6088100016
0.6088100014
0.6088100013
0.6088100014
0.6088100017
0.6088100022
0.6088100032
0.6088100052
0.6088100023
)
;
    }
}


// ************************************************************************* //
