/*--------------------------------*- C++ -*----------------------------------*\
  =========                 |
  \\      /  F ield         | OpenFOAM: The Open Source CFD Toolbox
   \\    /   O peration     | Website:  https://openfoam.org
    \\  /    A nd           | Version:  8
     \\/     M anipulation  |
\*---------------------------------------------------------------------------*/
FoamFile
{
    version     2.0;
    format      ascii;
    class       volScalarField;
    location    "1.1/wallFilmRegion";
    object      mu;
}
// * * * * * * * * * * * * * * * * * * * * * * * * * * * * * * * * * * * * * //

dimensions      [1 -1 -1 0 0 0 0];

internalField   nonuniform List<scalar> 
1369
(
0.0008861473677
0.0008861473671
0.0008861473689
0.0008861473696
0.0008861473693
0.000886147368
0.0008861473652
0.0008861473624
0.0008861473637
0.0008861473699
0.0008861473705
0.0008861473708
0.0008861473708
0.0008861473705
0.0008861473702
0.0008861473705
0.0008861473716
0.0008861473729
0.0008861473734
0.0008861473732
0.0008861473729
0.0008861473756
0.0008861473786
0.0008861473818
0.0008861473859
0.0008861473921
0.0008861473931
0.0008861473937
0.0008861474009
0.0008861474277
0.0008861474524
0.0008861474621
0.000886147435
0.0008861474227
0.0008861474213
0.0008861474216
0.0008861474239
0.0008861474209
0.0008861474193
0.0008861474185
0.0008861474179
0.0008861474172
0.0008861474166
0.0008861474161
0.0008861474158
0.0008861474156
0.0008861474147
0.0008861474107
0.0008861474088
0.0008861474087
0.000886147409
0.0008861474086
0.0008861474063
0.0008861473989
0.0008861474033
0.0008861474061
0.0008861474091
0.0008861474145
0.0008861474168
0.000886147405
0.0008861473682
0.0008861473678
0.0008861473679
0.0008861473675
0.0008861473607
0.0008861473501
0.0008861473354
0.0008861473451
0.0008861473512
0.0008861473726
0.0008861473619
0.0008861473469
0.0008861473337
0.0008861473195
0.0008861473002
0.0008861472668
0.0008861471945
0.0008861469631
0.0008861472541
0.0008861473625
0.0008861473387
0.00088614733
0.0008861473379
0.0008861473482
0.0008861473485
0.0008861473084
0.0008861470222
0.0008861472539
0.0008861473709
0.0008861473854
0.000886147449
0.0008861474748
0.0008861474156
0.0008861473981
0.000886147408
0.0008861474062
0.0008861473996
0.0008861473965
0.0008861474093
0.0008861474223
0.0008861474245
0.0008861474143
0.0008861474049
0.0008861474003
0.0008861473956
0.0008861473902
0.000886147375
0.0008861473781
0.0008861473766
0.0008861473703
0.000886147362
0.0008861473401
0.0008861473659
0.0008861473899
0.0008861474107
0.0008861474068
0.0008861474058
0.0008861473958
0.000886147394
0.0008861473893
0.0008861473633
0.0008861473653
0.0008861473664
0.0008861473665
0.0008861473648
0.0008861473531
0.0008861473508
0.0008861473481
0.0008861473537
0.0008861473752
0.0008861473677
0.0008861473516
0.0008861473354
0.0008861473175
0.0008861472923
0.0008861472455
0.0008861471272
0.0008861465816
0.0008861470224
0.000886147344
0.0008861473293
0.0008861473153
0.0008861473174
0.0008861473408
0.0008861473523
0.0008861473114
0.0008861471387
0.0008861471117
0.0008861472461
0.0008861473394
0.0008861474448
0.0008861474774
0.0008861474062
0.0008861473955
0.0008861474035
0.0008861474191
0.0008861473996
0.0008861473964
0.0008861474183
0.0008861474349
0.0008861474398
0.0008861474301
0.0008861474113
0.0008861474016
0.0008861473951
0.0008861473859
0.0008861473698
0.0008861473824
0.0008861473835
0.0008861473759
0.0008861473672
0.0008861473587
0.0008861473656
0.0008861473904
0.000886147408
0.0008861473972
0.0008861473872
0.0008861473845
0.0008861473801
0.0008861473761
0.0008861473652
0.000886147365
0.0008861473657
0.0008861473659
0.0008861473652
0.0008861473626
0.0008861473612
0.0008861473596
0.0008861473595
0.0008861473774
0.0008861473729
0.0008861473573
0.0008861473378
0.0008861473148
0.0008861472814
0.0008861472157
0.0008861470274
0.0008861458907
0.0008861464378
0.0008861473021
0.0008861473149
0.0008861473067
0.0008861473073
0.0008861473491
0.0008861473954
0.0008861474266
0.0008861473438
0.0008861473406
0.0008861473379
0.0008861473364
0.0008861474644
0.0008861474743
0.0008861473989
0.0008861473909
0.0008861473911
0.0008861473989
0.0008861473973
0.0008861473967
0.0008861474296
0.0008861474474
0.0008861474526
0.0008861474466
0.000886147424
0.0008861474055
0.0008861473976
0.0008861473905
0.000886147372
0.0008861473905
0.0008861473967
0.0008861473945
0.0008861473893
0.0008861473816
0.000886147383
0.0008861473884
0.0008861473874
0.0008861473865
0.0008861473817
0.0008861473794
0.0008861473768
0.0008861473873
0.0008861473671
0.0008861473658
0.0008861473656
0.0008861473656
0.0008861473652
0.0008861473643
0.0008861473635
0.0008861473626
0.0008861473608
0.0008861473791
0.0008861473771
0.0008861473652
0.0008861473453
0.0008861473179
0.0008861472751
0.0008861471864
0.0008861469075
0.0008861449205
0.0008861456438
0.0008861471795
0.0008861472813
0.0008861472957
0.000886147304
0.0008861470377
0.0008861474899
0.0008861475964
0.0008861473899
0.0008861473414
0.0008861473209
0.0008861473138
0.0008861474845
0.0008861474674
0.0008861473961
0.0008861473925
0.0008861473898
0.000886147399
0.0008861473973
0.000886147397
0.0008861474443
0.0008861474608
0.0008861474639
0.0008861474588
0.0008861474383
0.0008861474115
0.0008861474004
0.0008861473997
0.000886147391
0.0008861474004
0.0008861474026
0.0008861474019
0.0008861473997
0.0008861473956
0.000886147387
0.0008861473862
0.0008861473815
0.0008861473803
0.0008861473791
0.0008861473797
0.000886147391
0.0008861473984
0.0008861473686
0.0008861473652
0.0008861473665
0.0008861473658
0.0008861473652
0.0008861473645
0.0008861473638
0.0008861473627
0.0008861473611
0.0008861473804
0.0008861473796
0.0008861473718
0.0008861473544
0.0008861473249
0.0008861472725
0.0008861471549
0.0008861467452
0.0008861434063
0.0008861448473
0.0008861467735
0.0008861471726
0.0008861472567
0.0008861473076
0.0008861471294
0.0008861370558
0.0008861470281
0.0008861471085
0.0008861470526
0.0008861471117
0.0008861472261
0.0008861474928
0.0008861474653
0.0008861473962
0.0008861473984
0.00088614739
0.0008861473992
0.0008861473974
0.0008861473969
0.0008861474625
0.0008861474756
0.0008861474753
0.0008861474688
0.0008861474497
0.0008861474179
0.0008861474024
0.0008861474049
0.0008861473983
0.0008861474032
0.0008861474041
0.0008861474037
0.0008861474024
0.0008861474002
0.0008861473954
0.0008861473985
0.0008861473902
0.0008861473806
0.0008861473832
0.0008861473934
0.0008861474063
0.0008861474065
0.0008861473702
0.0008861473584
0.0008861473645
0.000886147365
0.0008861473642
0.000886147363
0.0008861473615
0.0008861473589
0.0008861473747
0.0008861473806
0.0008861473801
0.0008861473752
0.0008861473616
0.0008861473329
0.0008861472732
0.0008861471214
0.0008861465324
0.0008861416171
0.0008861446414
0.000886146107
0.0008861468797
0.0008861471615
0.0008861472994
0.0008861472219
0.0008861260975
0.0008861448772
0.0008861456847
0.0008861458301
0.0008861470333
0.0008861471825
0.0008861474964
0.0008861474671
0.000886147401
0.0008861474094
0.0008861473929
0.0008861473986
0.0008861473985
0.0008861473968
0.0008861474826
0.0008861474906
0.0008861474861
0.0008861474764
0.0008861474571
0.0008861474258
0.0008861474089
0.0008861474116
0.0008861474054
0.0008861474022
0.0008861474038
0.0008861474038
0.0008861474027
0.000886147401
0.0008861473986
0.000886147403
0.0008861474105
0.0008861473997
0.0008861473944
0.0008861473977
0.0008861474097
0.0008861474095
0.0008861473721
0.0008861473288
0.0008861473471
0.0008861473607
0.0008861473618
0.0008861473602
0.0008861473602
0.0008861473672
0.000886147377
0.0008861473786
0.0008861473782
0.000886147374
0.0008861473628
0.0008861473354
0.0008861472694
0.0008861470762
0.0008861462483
0.0008861407312
0.0008861449849
0.0008861458516
0.0008861465896
0.0008861470519
0.0008861472749
0.0008861472707
0.0008861271419
0.0008861457511
0.0008861462262
0.0008861461092
0.0008861471889
0.0008861472265
0.0008861474928
0.0008861474797
0.0008861474087
0.0008861474201
0.0008861474065
0.0008861474242
0.000886147411
0.000886147399
0.0008861475006
0.0008861475027
0.0008861474936
0.0008861474812
0.0008861474656
0.0008861474405
0.0008861474198
0.0008861474222
0.0008861474133
0.0008861474005
0.0008861474014
0.0008861474014
0.0008861473997
0.0008861473979
0.0008861473969
0.0008861473957
0.0008861474073
0.0008861474069
0.0008861474071
0.0008861474088
0.0008861474072
0.000886147408
0.0008861473727
0.0008861473221
0.0008861473178
0.0008861473278
0.0008861473414
0.0008861473541
0.0008861473633
0.0008861473693
0.000886147373
0.0008861473744
0.0008861473729
0.0008861473667
0.0008861473528
0.0008861473207
0.0008861472365
0.0008861469677
0.000886145797
0.0008861416002
0.0008861456029
0.0008861460021
0.0008861466468
0.0008861470896
0.0008861472561
0.0008861472931
0.0008861469882
0.0008861464634
0.0008861466934
0.0008861463764
0.0008861472763
0.0008861472768
0.0008861474347
0.000886147492
0.0008861474146
0.0008861474257
0.0008861473622
0.0008861474218
0.0008861474094
0.000886147366
0.0008861475103
0.0008861475082
0.0008861474969
0.0008861474849
0.000886147475
0.0008861474604
0.0008861474454
0.0008861474386
0.0008861474248
0.0008861474094
0.0008861473975
0.000886147395
0.0008861473891
0.000886147388
0.0008861473905
0.0008861473939
0.0008861473961
0.000886147395
0.0008861473908
0.0008861473818
0.000886147371
0.0008861474023
0.0008861473727
0.0008861473273
0.0008861473209
0.0008861473211
0.0008861473338
0.0008861473475
0.0008861473584
0.0008861473656
0.0008861473695
0.0008861473702
0.0008861473662
0.0008861473541
0.0008861473245
0.0008861472521
0.0008861470872
0.0008861465728
0.0008861449615
0.0008861434315
0.0008861462102
0.000886146337
0.0008861468834
0.0008861472081
0.0008861472947
0.0008861473166
0.000886147133
0.0008861469823
0.0008861469634
0.000886146593
0.0008861472833
0.0008861473058
0.0008861474233
0.0008861474548
0.0008861474173
0.000886147427
0.0008861474131
0.0008861475611
0.0008861474152
0.000886147405
0.000886147502
0.0008861475084
0.0008861474987
0.0008861474879
0.0008861474808
0.0008861474751
0.0008861474682
0.0008861474524
0.0008861474332
0.0008861474152
0.0008861474019
0.0008861474053
0.0008861473994
0.0008861473919
0.0008861473905
0.0008861473943
0.0008861473981
0.0008861474
0.0008861473995
0.0008861473959
0.0008861473888
0.0008861473999
0.0008861473724
0.0008861473326
0.0008861473264
0.0008861473272
0.0008861473399
0.0008861473528
0.0008861473628
0.0008861473692
0.0008861473723
0.000886147372
0.0008861473663
0.0008861473494
0.000886147297
0.0008861470208
0.0008861464835
0.0008861451873
0.0008861443774
0.0008861451374
0.0008861466734
0.0008861467013
0.0008861471178
0.0008861473147
0.0008861473472
0.000886147339
0.0008861471371
0.000886147238
0.000886147136
0.0008861466495
0.0008861472744
0.0008861473323
0.0008861474199
0.0008861474512
0.0008861472322
0.0008861473272
0.0008861473571
0.0008861475848
0.0008861474356
0.0008861473706
0.0008861474917
0.0008861475086
0.0008861475013
0.0008861474893
0.0008861474799
0.0008861474723
0.0008861474648
0.0008861474527
0.0008861474352
0.0008861474171
0.0008861474101
0.0008861474102
0.0008861474083
0.0008861474026
0.0008861473955
0.0008861473971
0.0008861474019
0.0008861474048
0.0008861474055
0.0008861474039
0.0008861473997
0.0008861473988
0.0008861473721
0.000886147339
0.0008861473342
0.0008861473393
0.0008861473518
0.0008861473631
0.000886147371
0.0008861473758
0.0008861473776
0.0008861473763
0.00088614737
0.0008861473535
0.0008861473021
0.0008861469298
0.0008861462672
0.0008861449318
0.0008861450593
0.0008861462675
0.0008861469706
0.0008861470261
0.0008861472846
0.0008861473836
0.0008861473934
0.0008861473496
0.0008861472189
0.0008861473499
0.0008861472347
0.0008861436099
0.0008861472935
0.0008861473845
0.0008861474508
0.0008861474929
0.0008861474764
0.0008861472761
0.0008861473292
0.0008861475323
0.0008861474135
0.0008861473514
0.0008861474652
0.0008861475074
0.0008861475038
0.0008861474866
0.0008861474721
0.0008861474612
0.0008861474521
0.0008861474426
0.0008861474306
0.0008861474208
0.0008861474162
0.0008861474109
0.0008861474106
0.0008861474094
0.0008861474059
0.000886147406
0.0008861474111
0.0008861474136
0.0008861474136
0.0008861474118
0.0008861474086
0.000886147399
0.0008861473806
0.0008861473816
0.0008861473795
0.0008861473733
0.0008861473579
0.0008861473138
0.0008861469881
0.0008861464673
0.0008861460901
0.0008861466398
0.000886146978
0.0008861471318
0.0008861473217
0.0008861473971
0.000886147424
0.0008861474257
0.0008861474029
0.0008861473952
0.000886147388
0.0008861472646
0.0008861472635
0.0008861473721
0.0008861474343
0.0008861474783
0.0008861475071
0.0008861475394
0.000886147445
0.0008861474474
0.0008861474725
0.0008861474844
0.0008861474796
0.0008861474512
0.0008861475028
0.0008861475001
0.0008861474717
0.0008861474494
0.0008861474351
0.0008861474258
0.0008861474182
0.0008861474138
0.0008861474114
0.0008861474121
0.0008861474106
0.0008861474108
0.0008861474115
0.0008861474129
0.0008861474198
0.0008861474273
0.0008861474264
0.000886147423
0.0008861474192
0.0008861474158
0.0008861474004
0.0008861473627
0.0008861473281
0.0008861471331
0.0008861468471
0.0008861467051
0.0008861468272
0.0008861469773
0.0008861469892
0.0008861473467
0.0008861473839
0.0008861474443
0.000886147468
0.0008861474665
0.0008861474562
0.0008861473478
0.0008861472889
0.0008861473552
0.000886147429
0.00088614747
0.000886147496
0.0008861475071
0.0008861475064
0.000886147495
0.0008861474971
0.0008861475034
0.0008861475168
0.0008861474942
0.0008861471413
0.0008861474775
0.0008861474568
0.0008861474238
0.0008861474069
0.0008861473998
0.0008861473968
0.0008861473929
0.0008861473937
0.0008861473963
0.0008861474039
0.0008861474116
0.0008861474189
0.0008861474283
0.0008861474374
0.0008861474441
0.0008861474427
0.0008861474361
0.0008861474291
0.0008861474233
0.0008861474191
0.0008861474019
0.0008861473044
0.0008861470365
0.0008861468714
0.0008861468587
0.0008861469073
0.0008861469057
0.0008861466999
0.0008861473707
0.0008861473883
0.0008861474
0.0008861474266
0.0008861473715
0.0008861472858
0.0008861473327
0.0008861474013
0.0008861474676
0.0008861474918
0.000886147498
0.0008861475018
0.0008861475027
0.0008861474981
0.000886147495
0.0008861475039
0.0008861475095
0.000886147197
0.0008861474992
0.0008861474635
0.0008861473883
0.0008861473784
0.0008861473847
0.0008861473872
0.0008861473885
0.0008861473889
0.0008861473888
0.0008861473908
0.0008861473977
0.0008861474139
0.000886147429
0.0008861474406
0.0008861474475
0.0008861474503
0.0008861474477
0.0008861474402
0.0008861474319
0.0008861474248
0.0008861474199
0.0008861474021
0.0008861469073
0.0008861470797
0.0008861468397
0.0008861471854
0.0008861473603
0.0008861474095
0.000886147415
0.0008861473071
0.0008861473284
0.0008861473771
0.0008861474258
0.000886147471
0.0008861474838
0.0008861474881
0.0008861474946
0.0008861475003
0.0008861474997
0.0008861474953
0.0008861475027
0.0008861473718
0.0008861474445
0.000886147441
0.0008861473848
0.0008861473437
0.0008861473696
0.0008861473815
0.0008861473856
0.0008861473874
0.0008861473879
0.0008861473878
0.0008861473894
0.0008861473909
0.0008861474051
0.0008861474283
0.0008861474419
0.0008861474484
0.0008861474505
0.0008861474475
0.0008861474403
0.0008861474318
0.000886147424
0.0008861474185
0.0008861474003
0.0008861470984
0.0008861473231
0.0008861474098
0.0008861474313
0.0008861474265
0.0008861473012
0.0008861473595
0.0008861474105
0.0008861474431
0.0008861474351
0.0008861474602
0.0008861474676
0.0008861474759
0.0008861474798
0.0008861474902
0.0008861474918
0.0008861474832
0.0008861474219
0.0008861474659
0.0008861474657
0.0008861473814
0.0008861473452
0.0008861473629
0.000886147377
0.0008861473822
0.000886147385
0.0008861473853
0.0008861473843
0.0008861473915
0.0008861473887
0.0008861473892
0.0008861474165
0.0008861474353
0.0008861474427
0.0008861474452
0.0008861474433
0.0008861474369
0.0008861474284
0.0008861474196
0.0008861474139
0.0008861473958
0.0008861474162
0.0008861473466
0.0008861473846
0.0008861474516
0.0008861474961
0.0008861474506
0.0008861474582
0.0008861474521
0.0008861474727
0.0008861474724
0.0008861474768
0.000886147478
0.0008861474522
0.0008861474625
0.0008861474698
0.0008861474607
0.0008861473897
0.0008861473592
0.0008861473446
0.0008861473631
0.0008861473713
0.0008861473825
0.0008861473823
0.0008861473782
0.0008861473971
0.0008861473938
0.0008861473875
0.0008861474105
0.0008861474299
0.0008861474362
0.0008861474376
0.0008861474352
0.0008861474271
0.0008861474138
0.0008861474018
0.000886147399
0.0008861473892
0.0008861473822
0.0008861474628
0.0008861475301
0.0008861474623
0.0008861474732
0.0008861474735
0.0008861474794
0.0008861474722
0.0008861474715
0.000886147467
0.0008861474609
0.0008861474696
0.0008861474758
0.0008861474667
0.0008861474056
0.0008861473726
0.0008861473854
0.00088614739
0.0008861473883
0.0008861473932
0.0008861473889
0.0008861473805
0.0008861474027
0.0008861474006
0.0008861473936
0.0008861474018
0.0008861474202
0.0008861474267
0.0008861474275
0.0008861474244
0.0008861474146
0.000886147392
0.0008861473652
0.0008861473762
0.0008861473848
0.0008861474533
0.000886147536
0.0008861474855
0.0008861474379
0.000886147472
0.0008861474927
0.0008861474789
0.000886147468
0.0008861474624
0.0008861474566
0.000886147461
0.0008861474667
0.00088614746
0.0008861474149
0.0008861473803
0.0008861474055
0.000886147405
0.0008861474035
0.0008861474011
0.0008861473975
0.0008861473922
0.0008861474066
0.0008861474053
0.0008861474003
0.0008861473961
0.0008861474047
0.0008861474138
0.0008861474181
0.0008861474189
0.0008861474157
0.0008861474042
0.000886147375
0.0008861473731
0.0008861473826
0.0008861474713
0.0008861475344
0.0008861475426
0.0008861473584
0.0008861473146
0.0008861474684
0.0008861475148
0.0008861474714
0.0008861474642
0.0008861474584
0.0008861474464
0.0008861474413
0.000886147441
0.0008861474159
0.0008861473775
0.0008861473868
0.0008861473943
0.0008861473958
0.0008861473973
0.0008861474003
0.0008861474011
0.0008861474093
0.000886147408
0.0008861474048
0.0008861473994
0.0008861473955
0.0008861473999
0.0008861474083
0.0008861474138
0.0008861474155
0.000886147412
0.0008861473923
0.0008861473789
0.0008861473817
0.000886147507
0.0008861475336
0.0008861475373
0.0008861475116
0.0008861474818
0.0008861475621
0.0008861475153
0.000886147481
0.0008861474651
0.0008861474521
0.0008861474276
0.0008861474215
0.000886147405
0.0008861473717
0.0008861473424
0.0008861473712
0.0008861473825
0.0008861473995
0.0008861474061
0.0008861474069
0.0008861474102
0.0008861474095
0.0008861474072
0.0008861474029
0.0008861473974
0.0008861473933
0.0008861473986
0.0008861474073
0.0008861474133
0.0008861474155
0.0008861474099
0.0008861473984
0.0008861473821
0.0008861475228
0.000886147535
0.0008861475466
0.0008861475595
0.0008861475645
0.0008861475636
0.0008861475665
0.0008861475535
0.0008861474956
0.0008861474529
0.0008861474282
0.0008861474186
0.0008861474007
0.00088614737
0.0008861473293
0.0008861473654
0.0008861473779
0.0008861473847
0.0008861473911
0.0008861473952
0.000886147407
0.0008861474055
0.0008861474003
0.0008861473951
0.0008861473906
0.0008861473873
0.0008861473909
0.0008861473995
0.0008861474063
0.0008861474096
0.000886147408
0.0008861474033
0.0008861473829
0.0008861475196
0.0008861475232
0.0008861475283
0.0008861475413
0.0008861475528
0.0008861475662
0.0008861475603
0.0008861475208
0.0008861474725
0.0008861474493
0.000886147443
0.0008861474411
0.0008861474198
0.0008861473629
0.0008861472791
0.0008861473421
0.0008861473642
0.0008861473777
0.0008861473912
0.0008861473959
0.0008861474041
0.0008861474016
0.0008861473977
0.0008861473938
0.0008861473894
0.0008861473851
0.0008861473843
0.0008861473927
0.0008861474011
0.0008861474062
0.0008861474076
0.0008861474059
0.0008861473833
0.0008861475102
0.0008861475029
0.0008861475017
0.0008861474984
0.0008861475639
0.0008861475439
0.0008861475027
0.0008861474558
0.0008861474577
0.0008861474722
0.0008861474725
0.0008861474526
0.0008861474001
0.0008861473363
0.0008861473688
0.0008861473784
0.0008861473847
0.0008861473948
0.0008861473954
0.000886147397
0.000886147395
0.0008861473927
0.0008861473897
0.0008861473863
0.0008861473828
0.0008861473801
0.0008861473823
0.0008861473903
0.0008861473964
0.0008861473996
0.0008861473979
0.000886147382
0.0008861475066
0.0008861475324
0.0008861475174
0.0008861475339
0.0008861475074
0.0008861474836
0.0008861474491
0.000886147453
0.0008861474582
0.0008861474382
0.0008861473682
0.0008861474157
0.0008861473971
0.0008861473963
0.0008861473981
0.0008861473982
0.0008861473962
0.0008861473943
0.000886147393
0.0008861473918
0.0008861473904
0.0008861473884
0.0008861473859
0.0008861473832
0.0008861473803
0.0008861473781
0.0008861473772
0.0008861473774
0.0008861473766
0.000886147374
0.0008861473779
0.0008861475206
0.0008861475708
0.0008861475267
0.0008861475056
0.0008861475641
0.0008861475016
0.0008861474768
0.0008861474668
0.0008861474732
0.0008861474652
0.0008861474751
0.0008861474638
0.0008861474431
0.0008861474143
0.0008861474007
0.0008861473943
0.0008861473908
0.0008861473877
0.0008861473867
0.0008861473878
0.0008861473884
0.0008861473879
0.0008861473864
0.0008861473843
0.0008861473818
0.000886147379
0.000886147376
0.0008861473729
0.0008861473666
0.0008861473578
0.0008861473769
0.0008861474903
0.0008861475195
0.0008861475233
0.0008861475253
0.0008861475013
0.0008861475026
0.0008861474734
0.0008861474613
0.0008861474668
0.000886147452
0.0008861474558
0.0008861474604
0.000886147442
0.0008861474052
0.0008861473872
0.0008861473416
0.0008861473449
0.0008861473666
0.0008861473775
0.0008861473836
0.0008861473866
0.0008861473875
0.000886147387
0.0008861473857
0.0008861473839
0.0008861473814
0.0008861473782
0.0008861473742
0.0008861473637
0.0008861473478
0.0008861473779
0.0008861474795
0.0008861474433
0.0008861474683
0.0008861474597
0.0008861474126
0.0008861474041
0.0008861474238
0.0008861474259
0.0008861474033
0.000886147388
0.0008861473598
0.0008861473281
0.0008861473523
0.0008861473697
0.0008861473789
0.000886147384
0.0008861473864
0.0008861473872
0.0008861473869
0.0008861473863
0.0008861473861
0.0008861473855
0.0008861473834
0.0008861473753
0.0008861473591
0.0008861473783
0.0008861474685
0.000886147432
0.0008861474635
0.0008861474417
0.0008861474428
0.0008861474003
0.0008861473842
0.0008861474083
0.0008861474068
0.0008861474016
0.0008861473921
0.0008861473731
0.000886147356
0.0008861473635
0.0008861473728
0.0008861473796
0.0008861473848
0.000886147389
0.0008861473921
0.0008861473938
0.0008861473935
0.0008861473909
0.0008861473862
0.0008861473753
0.0008861473548
0.0008861473784
)
;

boundaryField
{
    walls
    {
        type            zeroGradient;
    }
    wallFilmFace_top
    {
        type            zeroGradient;
    }
    region0_to_wallFilmRegion_wallFilmFace
    {
        type            zeroGradient;
    }
    mirrorFace_top
    {
        type            zeroGradient;
    }
    region0_to_wallFilmRegion_mirrorFace
    {
        type            zeroGradient;
    }
    procBoundary0to1
    {
        type            processor;
        value           nonuniform List<scalar> 
52
(
0.000886147372
0.0008861473461
0.0008861473436
0.0008861473516
0.0008861473627
0.0008861473716
0.0008861473774
0.0008861473774
0.0008861473844
0.0008861473855
0.0008861473822
0.0008861473763
0.0008861473763
0.0008861473681
0.0008861473453
0.0008861473453
0.0008861473501
0.0008861472485
0.0008861469978
0.0008861469049
0.0008861469049
0.000886147013
0.0008861472313
0.0008861472313
0.0008861473015
0.0008861474091
0.0008861474269
0.0008861474394
0.0008861474394
0.0008861473875
0.0008861475148
0.0008861475148
0.0008861473389
0.0008861473389
0.0008861470561
0.0008861475246
0.0008861475246
0.0008861475593
0.0008861475255
0.0008861475102
0.0008861475102
0.0008861475159
0.0008861475159
0.0008861475237
0.0008861474997
0.0008861475532
0.000886147526
0.0008861475645
0.0008861475496
0.0008861475215
0.0008861475215
0.0008861475287
)
;
    }
    procBoundary0to2
    {
        type            processor;
        value           nonuniform List<scalar> 
26
(
0.0008861474469
0.0008861474347
0.000886147478
0.0008861474711
0.0008861474644
0.0008861474273
0.0008861472423
0.0008861474069
0.0008861474087
0.0008861474079
0.0008861474047
0.0008861473947
0.0008861473791
0.0008861473701
0.000886147373
0.0008861473786
0.0008861473838
0.0008861473881
0.0008861473913
0.0008861473923
0.0008861473906
0.0008861473865
0.0008861473801
0.0008861473661
0.0008861473379
0.0008861473788
)
;
    }
}


// ************************************************************************* //
