/*--------------------------------*- C++ -*----------------------------------*\
  =========                 |
  \\      /  F ield         | OpenFOAM: The Open Source CFD Toolbox
   \\    /   O peration     | Website:  https://openfoam.org
    \\  /    A nd           | Version:  8
     \\/     M anipulation  |
\*---------------------------------------------------------------------------*/
FoamFile
{
    version     2.0;
    format      ascii;
    class       volScalarField;
    location    "1.1/wallFilmRegion";
    object      sigma;
}
// * * * * * * * * * * * * * * * * * * * * * * * * * * * * * * * * * * * * * //

dimensions      [1 0 -2 0 0 0 0];

internalField   nonuniform List<scalar> 
1369
(
0.07244713438
0.07244713437
0.07244713439
0.0724471344
0.0724471344
0.07244713438
0.07244713435
0.07244713433
0.07244713434
0.0724471344
0.07244713441
0.07244713441
0.07244713441
0.07244713441
0.07244713441
0.07244713441
0.07244713442
0.07244713443
0.07244713444
0.07244713444
0.07244713443
0.07244713446
0.07244713449
0.07244713453
0.07244713457
0.07244713463
0.07244713464
0.07244713465
0.07244713473
0.072447135
0.07244713526
0.07244713536
0.07244713508
0.07244713495
0.07244713494
0.07244713494
0.07244713496
0.07244713493
0.07244713492
0.07244713491
0.0724471349
0.0724471349
0.07244713489
0.07244713488
0.07244713488
0.07244713488
0.07244713487
0.07244713483
0.07244713481
0.07244713481
0.07244713481
0.07244713481
0.07244713478
0.0724471347
0.07244713475
0.07244713478
0.07244713481
0.07244713487
0.07244713489
0.07244713477
0.07244713439
0.07244713438
0.07244713438
0.07244713438
0.07244713431
0.0724471342
0.07244713405
0.07244713415
0.07244713421
0.07244713443
0.07244713432
0.07244713416
0.07244713403
0.07244713388
0.07244713368
0.07244713333
0.07244713258
0.07244713018
0.0724471332
0.07244713433
0.07244713408
0.07244713399
0.07244713407
0.07244713418
0.07244713418
0.07244713376
0.07244713079
0.0724471332
0.07244713441
0.07244713456
0.07244713523
0.07244713549
0.07244713488
0.0724471347
0.0724471348
0.07244713478
0.07244713471
0.07244713468
0.07244713481
0.07244713495
0.07244713497
0.07244713486
0.07244713477
0.07244713472
0.07244713467
0.07244713461
0.07244713446
0.07244713449
0.07244713447
0.07244713441
0.07244713432
0.07244713409
0.07244713436
0.07244713461
0.07244713483
0.07244713479
0.07244713478
0.07244713467
0.07244713465
0.07244713461
0.07244713434
0.07244713436
0.07244713437
0.07244713437
0.07244713435
0.07244713423
0.07244713421
0.07244713418
0.07244713424
0.07244713446
0.07244713438
0.07244713421
0.07244713405
0.07244713386
0.0724471336
0.07244713311
0.07244713188
0.07244712622
0.0724471308
0.07244713413
0.07244713398
0.07244713384
0.07244713386
0.0724471341
0.07244713422
0.0724471338
0.072447132
0.07244713172
0.07244713312
0.07244713409
0.07244713518
0.07244713552
0.07244713478
0.07244713467
0.07244713475
0.07244713491
0.07244713471
0.07244713468
0.07244713491
0.07244713508
0.07244713513
0.07244713503
0.07244713483
0.07244713473
0.07244713467
0.07244713457
0.0724471344
0.07244713453
0.07244713455
0.07244713447
0.07244713438
0.07244713429
0.07244713436
0.07244713462
0.0724471348
0.07244713469
0.07244713458
0.07244713455
0.07244713451
0.07244713447
0.07244713435
0.07244713435
0.07244713436
0.07244713436
0.07244713435
0.07244713433
0.07244713431
0.0724471343
0.0724471343
0.07244713448
0.07244713443
0.07244713427
0.07244713407
0.07244713383
0.07244713348
0.0724471328
0.07244713085
0.07244711904
0.07244712473
0.0724471337
0.07244713383
0.07244713375
0.07244713375
0.07244713419
0.07244713467
0.07244713499
0.07244713413
0.0724471341
0.07244713407
0.07244713406
0.07244713538
0.07244713549
0.07244713471
0.07244713462
0.07244713462
0.0724471347
0.07244713469
0.07244713468
0.07244713502
0.07244713521
0.07244713526
0.0724471352
0.07244713497
0.07244713477
0.07244713469
0.07244713462
0.07244713443
0.07244713462
0.07244713468
0.07244713466
0.0724471346
0.07244713452
0.07244713454
0.0724471346
0.07244713458
0.07244713458
0.07244713453
0.0724471345
0.07244713447
0.07244713458
0.07244713437
0.07244713436
0.07244713436
0.07244713436
0.07244713436
0.07244713435
0.07244713434
0.07244713433
0.07244713431
0.0724471345
0.07244713448
0.07244713435
0.07244713415
0.07244713386
0.07244713342
0.0724471325
0.0724471296
0.07244710897
0.07244711648
0.07244713243
0.07244713348
0.07244713363
0.07244713372
0.07244713095
0.07244713565
0.07244713676
0.07244713461
0.07244713411
0.0724471339
0.07244713382
0.07244713559
0.07244713542
0.07244713468
0.07244713464
0.07244713461
0.07244713471
0.07244713469
0.07244713468
0.07244713518
0.07244713535
0.07244713538
0.07244713533
0.07244713511
0.07244713484
0.07244713472
0.07244713471
0.07244713462
0.07244713472
0.07244713474
0.07244713474
0.07244713471
0.07244713467
0.07244713458
0.07244713457
0.07244713452
0.07244713451
0.0724471345
0.07244713451
0.07244713462
0.0724471347
0.07244713439
0.07244713436
0.07244713437
0.07244713436
0.07244713435
0.07244713435
0.07244713434
0.07244713433
0.07244713431
0.07244713451
0.0724471345
0.07244713442
0.07244713424
0.07244713394
0.07244713339
0.07244713217
0.07244712792
0.07244709325
0.07244710821
0.07244712821
0.07244713235
0.07244713323
0.07244713376
0.07244713191
0.07244702731
0.07244713085
0.07244713169
0.07244713111
0.07244713172
0.07244713291
0.07244713568
0.07244713539
0.07244713468
0.0724471347
0.07244713461
0.07244713471
0.07244713469
0.07244713468
0.07244713537
0.0724471355
0.0724471355
0.07244713543
0.07244713523
0.0724471349
0.07244713474
0.07244713477
0.0724471347
0.07244713475
0.07244713476
0.07244713475
0.07244713474
0.07244713472
0.07244713467
0.0724471347
0.07244713461
0.07244713451
0.07244713454
0.07244713465
0.07244713478
0.07244713478
0.07244713441
0.07244713428
0.07244713435
0.07244713435
0.07244713434
0.07244713433
0.07244713432
0.07244713429
0.07244713445
0.07244713451
0.07244713451
0.07244713446
0.07244713432
0.07244713402
0.0724471334
0.07244713182
0.07244712571
0.07244707467
0.07244710607
0.07244712129
0.07244712931
0.07244713224
0.07244713367
0.07244713287
0.07244691352
0.07244710852
0.07244711691
0.07244711842
0.07244713091
0.07244713246
0.07244713572
0.07244713541
0.07244713473
0.07244713481
0.07244713464
0.0724471347
0.0724471347
0.07244713468
0.07244713557
0.07244713566
0.07244713561
0.07244713551
0.07244713531
0.07244713498
0.07244713481
0.07244713484
0.07244713477
0.07244713474
0.07244713476
0.07244713476
0.07244713474
0.07244713473
0.0724471347
0.07244713475
0.07244713483
0.07244713471
0.07244713466
0.07244713469
0.07244713482
0.07244713481
0.07244713443
0.07244713398
0.07244713417
0.07244713431
0.07244713432
0.0724471343
0.0724471343
0.07244713438
0.07244713448
0.07244713449
0.07244713449
0.07244713445
0.07244713433
0.07244713405
0.07244713336
0.07244713135
0.07244712276
0.07244706547
0.07244710964
0.07244711864
0.0724471263
0.0724471311
0.07244713342
0.07244713337
0.07244692436
0.07244711759
0.07244712253
0.07244712131
0.07244713252
0.07244713291
0.07244713568
0.07244713554
0.07244713481
0.07244713492
0.07244713478
0.07244713497
0.07244713483
0.07244713471
0.07244713576
0.07244713578
0.07244713569
0.07244713556
0.0724471354
0.07244713514
0.07244713492
0.07244713495
0.07244713485
0.07244713472
0.07244713473
0.07244713473
0.07244713471
0.07244713469
0.07244713468
0.07244713467
0.07244713479
0.07244713479
0.07244713479
0.07244713481
0.07244713479
0.0724471348
0.07244713443
0.07244713391
0.07244713386
0.07244713397
0.07244713411
0.07244713424
0.07244713434
0.0724471344
0.07244713444
0.07244713445
0.07244713443
0.07244713437
0.07244713423
0.07244713389
0.07244713302
0.07244713023
0.07244711807
0.07244707449
0.07244711606
0.0724471202
0.0724471269
0.07244713149
0.07244713322
0.07244713361
0.07244713044
0.07244712499
0.07244712738
0.07244712409
0.07244713343
0.07244713344
0.07244713508
0.07244713567
0.07244713487
0.07244713498
0.07244713432
0.07244713494
0.07244713481
0.07244713436
0.07244713586
0.07244713584
0.07244713572
0.0724471356
0.07244713549
0.07244713534
0.07244713519
0.07244713512
0.07244713497
0.07244713481
0.07244713469
0.07244713466
0.0724471346
0.07244713459
0.07244713462
0.07244713465
0.07244713468
0.07244713466
0.07244713462
0.07244713453
0.07244713442
0.07244713474
0.07244713443
0.07244713396
0.0724471339
0.0724471339
0.07244713403
0.07244713417
0.07244713428
0.07244713436
0.0724471344
0.07244713441
0.07244713437
0.07244713424
0.07244713393
0.07244713318
0.07244713147
0.07244712613
0.0724471094
0.07244709351
0.07244712236
0.07244712368
0.07244712935
0.07244713272
0.07244713362
0.07244713385
0.07244713194
0.07244713038
0.07244713018
0.07244712634
0.0724471335
0.07244713374
0.07244713496
0.07244713529
0.0724471349
0.072447135
0.07244713485
0.07244713639
0.07244713487
0.07244713477
0.07244713578
0.07244713584
0.07244713574
0.07244713563
0.07244713556
0.0724471355
0.07244713542
0.07244713526
0.07244713506
0.07244713487
0.07244713474
0.07244713477
0.07244713471
0.07244713463
0.07244713462
0.07244713466
0.0724471347
0.07244713472
0.07244713471
0.07244713467
0.0724471346
0.07244713472
0.07244713443
0.07244713402
0.07244713395
0.07244713396
0.07244713409
0.07244713423
0.07244713433
0.0724471344
0.07244713443
0.07244713443
0.07244713437
0.07244713419
0.07244713365
0.07244713078
0.0724471252
0.07244711174
0.07244710333
0.07244711122
0.07244712717
0.07244712746
0.07244713179
0.07244713383
0.07244713417
0.07244713408
0.07244713199
0.07244713303
0.07244713197
0.07244712692
0.07244713341
0.07244713401
0.07244713492
0.07244713525
0.07244713297
0.07244713396
0.07244713427
0.07244713664
0.07244713509
0.07244713441
0.07244713567
0.07244713584
0.07244713577
0.07244713564
0.07244713555
0.07244713547
0.07244713539
0.07244713526
0.07244713508
0.07244713489
0.07244713482
0.07244713482
0.0724471348
0.07244713474
0.07244713467
0.07244713469
0.07244713474
0.07244713477
0.07244713477
0.07244713476
0.07244713471
0.0724471347
0.07244713443
0.07244713408
0.07244713403
0.07244713409
0.07244713422
0.07244713433
0.07244713442
0.07244713446
0.07244713448
0.07244713447
0.07244713441
0.07244713423
0.0724471337
0.07244712983
0.07244712295
0.07244710909
0.07244711041
0.07244712296
0.07244713026
0.07244713083
0.07244713352
0.07244713455
0.07244713465
0.07244713419
0.07244713284
0.0724471342
0.072447133
0.07244709536
0.07244713361
0.07244713456
0.07244713524
0.07244713568
0.07244713551
0.07244713343
0.07244713398
0.07244713609
0.07244713486
0.07244713421
0.07244713539
0.07244713583
0.07244713579
0.07244713562
0.07244713546
0.07244713535
0.07244713526
0.07244713516
0.07244713503
0.07244713493
0.07244713488
0.07244713483
0.07244713483
0.07244713481
0.07244713478
0.07244713478
0.07244713483
0.07244713486
0.07244713486
0.07244713484
0.07244713481
0.07244713471
0.07244713452
0.07244713453
0.0724471345
0.07244713444
0.07244713428
0.07244713382
0.07244713044
0.07244712503
0.07244712111
0.07244712682
0.07244713033
0.07244713193
0.0724471339
0.07244713469
0.07244713497
0.07244713498
0.07244713475
0.07244713467
0.07244713459
0.07244713331
0.0724471333
0.07244713443
0.07244713507
0.07244713553
0.07244713583
0.07244713616
0.07244713518
0.07244713521
0.07244713547
0.07244713559
0.07244713554
0.07244713525
0.07244713578
0.07244713576
0.07244713546
0.07244713523
0.07244713508
0.07244713498
0.0724471349
0.07244713486
0.07244713483
0.07244713484
0.07244713483
0.07244713483
0.07244713484
0.07244713485
0.07244713492
0.072447135
0.07244713499
0.07244713495
0.07244713492
0.07244713488
0.07244713472
0.07244713433
0.07244713397
0.07244713194
0.07244712898
0.0724471275
0.07244712877
0.07244713033
0.07244713045
0.07244713416
0.07244713455
0.07244713518
0.07244713542
0.07244713541
0.0724471353
0.07244713417
0.07244713356
0.07244713425
0.07244713502
0.07244713544
0.07244713571
0.07244713583
0.07244713582
0.0724471357
0.07244713572
0.07244713579
0.07244713593
0.07244713569
0.07244713203
0.07244713552
0.07244713531
0.07244713496
0.07244713479
0.07244713471
0.07244713468
0.07244713464
0.07244713465
0.07244713468
0.07244713476
0.07244713484
0.07244713491
0.07244713501
0.0724471351
0.07244713517
0.07244713516
0.07244713509
0.07244713502
0.07244713496
0.07244713491
0.07244713474
0.07244713372
0.07244713094
0.07244712923
0.0724471291
0.0724471296
0.07244712958
0.07244712745
0.07244713441
0.07244713459
0.07244713472
0.07244713499
0.07244713442
0.07244713353
0.07244713402
0.07244713473
0.07244713542
0.07244713567
0.07244713573
0.07244713577
0.07244713578
0.07244713574
0.0724471357
0.07244713579
0.07244713585
0.07244713261
0.07244713575
0.07244713538
0.07244713459
0.07244713449
0.07244713456
0.07244713458
0.0724471346
0.0724471346
0.0724471346
0.07244713462
0.07244713469
0.07244713486
0.07244713502
0.07244713514
0.07244713521
0.07244713524
0.07244713521
0.07244713513
0.07244713505
0.07244713497
0.07244713492
0.07244713474
0.0724471296
0.07244713139
0.0724471289
0.07244713249
0.0724471343
0.07244713481
0.07244713487
0.07244713375
0.07244713397
0.07244713448
0.07244713498
0.07244713545
0.07244713559
0.07244713563
0.0724471357
0.07244713576
0.07244713575
0.07244713571
0.07244713578
0.07244713442
0.07244713518
0.07244713514
0.07244713456
0.07244713413
0.0724471344
0.07244713452
0.07244713457
0.07244713459
0.07244713459
0.07244713459
0.07244713461
0.07244713462
0.07244713477
0.07244713501
0.07244713515
0.07244713522
0.07244713524
0.07244713521
0.07244713513
0.07244713505
0.07244713497
0.07244713491
0.07244713472
0.07244713158
0.07244713392
0.07244713482
0.07244713504
0.07244713499
0.07244713369
0.0724471343
0.07244713482
0.07244713516
0.07244713508
0.07244713534
0.07244713542
0.0724471355
0.07244713554
0.07244713565
0.07244713567
0.07244713558
0.07244713494
0.0724471354
0.0724471354
0.07244713452
0.07244713415
0.07244713433
0.07244713448
0.07244713453
0.07244713456
0.07244713456
0.07244713455
0.07244713463
0.0724471346
0.0724471346
0.07244713489
0.07244713508
0.07244713516
0.07244713519
0.07244713517
0.0724471351
0.07244713501
0.07244713492
0.07244713486
0.07244713467
0.07244713488
0.07244713416
0.07244713456
0.07244713525
0.07244713571
0.07244713524
0.07244713532
0.07244713526
0.07244713547
0.07244713547
0.07244713551
0.07244713553
0.07244713526
0.07244713537
0.07244713544
0.07244713535
0.07244713461
0.07244713429
0.07244713414
0.07244713433
0.07244713442
0.07244713453
0.07244713453
0.07244713449
0.07244713469
0.07244713465
0.07244713459
0.07244713482
0.07244713503
0.07244713509
0.07244713511
0.07244713508
0.072447135
0.07244713486
0.07244713474
0.07244713471
0.0724471346
0.07244713453
0.07244713537
0.07244713607
0.07244713536
0.07244713548
0.07244713548
0.07244713554
0.07244713547
0.07244713546
0.07244713541
0.07244713535
0.07244713544
0.0724471355
0.07244713541
0.07244713477
0.07244713443
0.07244713456
0.07244713461
0.07244713459
0.07244713465
0.0724471346
0.07244713451
0.07244713474
0.07244713472
0.07244713465
0.07244713473
0.07244713493
0.07244713499
0.072447135
0.07244713497
0.07244713487
0.07244713463
0.07244713435
0.07244713447
0.07244713456
0.07244713527
0.07244713613
0.0724471356
0.07244713511
0.07244713546
0.07244713568
0.07244713554
0.07244713542
0.07244713536
0.0724471353
0.07244713535
0.07244713541
0.07244713534
0.07244713487
0.07244713451
0.07244713477
0.07244713477
0.07244713475
0.07244713473
0.07244713469
0.07244713464
0.07244713478
0.07244713477
0.07244713472
0.07244713468
0.07244713476
0.07244713486
0.0724471349
0.07244713491
0.07244713488
0.07244713476
0.07244713446
0.07244713444
0.07244713454
0.07244713546
0.07244713611
0.0724471362
0.07244713428
0.07244713383
0.07244713543
0.07244713591
0.07244713546
0.07244713538
0.07244713532
0.0724471352
0.07244713515
0.07244713514
0.07244713488
0.07244713448
0.07244713458
0.07244713466
0.07244713467
0.07244713469
0.07244713472
0.07244713473
0.07244713481
0.0724471348
0.07244713477
0.07244713471
0.07244713467
0.07244713472
0.0724471348
0.07244713486
0.07244713488
0.07244713484
0.07244713464
0.0724471345
0.07244713453
0.07244713583
0.0724471361
0.07244713614
0.07244713588
0.07244713557
0.0724471364
0.07244713591
0.07244713556
0.07244713539
0.07244713526
0.072447135
0.07244713494
0.07244713477
0.07244713442
0.07244713412
0.07244713442
0.07244713453
0.07244713471
0.07244713478
0.07244713479
0.07244713482
0.07244713481
0.07244713479
0.07244713475
0.07244713469
0.07244713465
0.0724471347
0.07244713479
0.07244713485
0.07244713488
0.07244713482
0.0724471347
0.07244713453
0.07244713599
0.07244713612
0.07244713624
0.07244713637
0.07244713642
0.07244713642
0.07244713645
0.07244713631
0.07244713571
0.07244713527
0.07244713501
0.07244713491
0.07244713472
0.0724471344
0.07244713398
0.07244713436
0.07244713449
0.07244713456
0.07244713462
0.07244713467
0.07244713479
0.07244713477
0.07244713472
0.07244713467
0.07244713462
0.07244713458
0.07244713462
0.07244713471
0.07244713478
0.07244713482
0.0724471348
0.07244713475
0.07244713454
0.07244713596
0.072447136
0.07244713605
0.07244713618
0.0724471363
0.07244713644
0.07244713638
0.07244713597
0.07244713547
0.07244713523
0.07244713516
0.07244713514
0.07244713492
0.07244713433
0.07244713346
0.07244713411
0.07244713434
0.07244713448
0.07244713463
0.07244713467
0.07244713476
0.07244713473
0.07244713469
0.07244713465
0.07244713461
0.07244713456
0.07244713455
0.07244713464
0.07244713473
0.07244713478
0.07244713479
0.07244713478
0.07244713454
0.07244713586
0.07244713578
0.07244713577
0.07244713574
0.07244713642
0.07244713621
0.07244713578
0.0724471353
0.07244713532
0.07244713547
0.07244713547
0.07244713526
0.07244713472
0.07244713406
0.07244713439
0.07244713449
0.07244713456
0.07244713466
0.07244713467
0.07244713468
0.07244713466
0.07244713464
0.07244713461
0.07244713457
0.07244713454
0.07244713451
0.07244713453
0.07244713462
0.07244713468
0.07244713471
0.07244713469
0.07244713453
0.07244713582
0.07244713609
0.07244713594
0.07244713611
0.07244713583
0.07244713558
0.07244713523
0.07244713527
0.07244713532
0.07244713511
0.07244713439
0.07244713488
0.07244713469
0.07244713468
0.0724471347
0.0724471347
0.07244713468
0.07244713466
0.07244713464
0.07244713463
0.07244713462
0.0724471346
0.07244713457
0.07244713454
0.07244713451
0.07244713449
0.07244713448
0.07244713448
0.07244713447
0.07244713445
0.07244713449
0.07244713597
0.07244713649
0.07244713603
0.07244713581
0.07244713642
0.07244713577
0.07244713551
0.07244713541
0.07244713548
0.07244713539
0.0724471355
0.07244713538
0.07244713516
0.07244713487
0.07244713472
0.07244713466
0.07244713462
0.07244713459
0.07244713458
0.07244713459
0.0724471346
0.07244713459
0.07244713458
0.07244713455
0.07244713453
0.0724471345
0.07244713447
0.07244713444
0.07244713437
0.07244713428
0.07244713448
0.07244713565
0.07244713596
0.072447136
0.07244713602
0.07244713577
0.07244713578
0.07244713548
0.07244713535
0.07244713541
0.07244713526
0.0724471353
0.07244713534
0.07244713515
0.07244713477
0.07244713458
0.07244713411
0.07244713414
0.07244713437
0.07244713448
0.07244713455
0.07244713458
0.07244713459
0.07244713458
0.07244713457
0.07244713455
0.07244713452
0.07244713449
0.07244713445
0.07244713434
0.07244713417
0.07244713449
0.07244713554
0.07244713517
0.07244713542
0.07244713534
0.07244713485
0.07244713476
0.07244713496
0.07244713498
0.07244713475
0.07244713459
0.0724471343
0.07244713397
0.07244713422
0.0724471344
0.0724471345
0.07244713455
0.07244713458
0.07244713458
0.07244713458
0.07244713457
0.07244713457
0.07244713457
0.07244713454
0.07244713446
0.07244713429
0.07244713449
0.07244713543
0.07244713505
0.07244713538
0.07244713515
0.07244713516
0.07244713472
0.07244713455
0.0724471348
0.07244713479
0.07244713473
0.07244713463
0.07244713444
0.07244713426
0.07244713434
0.07244713443
0.0724471345
0.07244713456
0.0724471346
0.07244713463
0.07244713465
0.07244713465
0.07244713462
0.07244713457
0.07244713446
0.07244713425
0.07244713449
)
;

boundaryField
{
    walls
    {
        type            zeroGradient;
    }
    wallFilmFace_top
    {
        type            zeroGradient;
    }
    region0_to_wallFilmRegion_wallFilmFace
    {
        type            zeroGradient;
    }
    mirrorFace_top
    {
        type            zeroGradient;
    }
    region0_to_wallFilmRegion_mirrorFace
    {
        type            zeroGradient;
    }
    procBoundary0to1
    {
        type            processor;
        value           nonuniform List<scalar> 
52
(
0.07244713443
0.07244713416
0.07244713413
0.07244713421
0.07244713433
0.07244713442
0.07244713448
0.07244713448
0.07244713455
0.07244713457
0.07244713453
0.07244713447
0.07244713447
0.07244713439
0.07244713415
0.07244713415
0.0724471342
0.07244713314
0.07244713054
0.07244712958
0.07244712958
0.0724471307
0.07244713296
0.07244713296
0.07244713369
0.07244713481
0.072447135
0.07244713512
0.07244713512
0.07244713459
0.07244713591
0.07244713591
0.07244713408
0.07244713408
0.07244713115
0.07244713601
0.07244713601
0.07244713637
0.07244713602
0.07244713586
0.07244713586
0.07244713592
0.07244713592
0.072447136
0.07244713575
0.07244713631
0.07244713602
0.07244713642
0.07244713627
0.07244713598
0.07244713598
0.07244713605
)
;
    }
    procBoundary0to2
    {
        type            processor;
        value           nonuniform List<scalar> 
26
(
0.0724471352
0.07244713508
0.07244713553
0.07244713545
0.07244713539
0.072447135
0.07244713308
0.07244713479
0.07244713481
0.0724471348
0.07244713477
0.07244713466
0.0724471345
0.07244713441
0.07244713444
0.07244713449
0.07244713455
0.07244713459
0.07244713463
0.07244713464
0.07244713462
0.07244713458
0.07244713451
0.07244713436
0.07244713407
0.0724471345
)
;
    }
}


// ************************************************************************* //
