/*--------------------------------*- C++ -*----------------------------------*\
  =========                 |
  \\      /  F ield         | OpenFOAM: The Open Source CFD Toolbox
   \\    /   O peration     | Website:  https://openfoam.org
    \\  /    A nd           | Version:  8
     \\/     M anipulation  |
\*---------------------------------------------------------------------------*/
FoamFile
{
    version     2.0;
    format      ascii;
    class       scalarField;
    location    "2/lagrangian/reactingCloud1";
    object      age;
}
// * * * * * * * * * * * * * * * * * * * * * * * * * * * * * * * * * * * * * //


152
(
0.2812731891
0.2751205209
0.2616162634
0.25285082
0.249443091
0.2425682555
0.2493959799
0.2398503218
0.2381002016
0.2629525588
0.224846787
0.2238489241
0.2143692262
0.2018414204
0.2080624351
0.1974051896
0.2203065107
0.2131717907
0.1873752495
0.1827345309
0.17999002
0.1772954092
0.1755489022
0.1739021956
0.1728542914
0.1724051896
0.1717065868
0.2273414443
0.1694610778
0.1693113772
0.1675149701
0.1670159681
0.1661177645
0.1643712575
0.1635229541
0.1631736527
0.1625748503
0.1614770459
0.1610778443
0.1559381238
0.1551397206
0.1620758483
0.1533433134
0.1600798403
0.1508483034
0.1474051896
0.1458582834
0.145259481
0.2413404344
0.1395741754
0.1640718563
0.1378590828
0.1331584584
0.1301729267
0.1226248239
0.1214644702
0.1151486861
0.124058144
0.1116506682
0.1100959099
0.1092069618
0.1059051548
0.1015782491
0.1010333774
0.1007578101
0.1
0.09961315121
0.0987257624
0.09864286923
0.09721119445
0.09628266751
0.09434012246
0.0929043283
0.09248203589
0.09129961717
0.09037065267
0.08871318734
0.08857397449
0.08440879919
0.08081892589
0.07821717702
0.07752466557
0.07611505444
0.07491913556
0.07203222081
0.06955946927
0.06180363326
0.05934952624
0.05825702081
0.05711353011
0.1160994404
0.05461740457
0.05429123194
0.2464519714
0.05364096144
0.05326974372
0.06017860793
0.08209703904
0.04902329888
0.04885202006
0.1100959099
0.04687383331
0.04522540638
0.03916502372
0.03851830885
0.0461047905
0.03768942224
0.03587189282
0.03547979852
0.03462802355
0.03444590845
0.03420006128
0.03420006128
0.02904829054
0.09611375055
0.0267257995
0.02628526434
0.02584472919
0.08703107083
0.02466996877
0.08407600773
0.02319786992
0.01887488357
0.08631141626
0.01644610195
0.01613869817
0.01613869817
0.08775893668
0.01552974593
0.01523109697
0.01478605146
0.06620137446
0.0139062814
0.01231285332
0.01123275319
0.07210610002
0.01112970041
0.07411363409
0.009399458141
0.0182708873
0.008012807698
0.006518894398
0.006383084098
0.0480937643
0.005568222299
0.004889170799
0.004621322707
0.004489284916
0.004357247124
0.002059789549
0.001922470246
0.08480570869
)


// ************************************************************************* //
