/*--------------------------------*- C++ -*----------------------------------*\
  =========                 |
  \\      /  F ield         | OpenFOAM: The Open Source CFD Toolbox
   \\    /   O peration     | Website:  https://openfoam.org
    \\  /    A nd           | Version:  8
     \\/     M anipulation  |
\*---------------------------------------------------------------------------*/
FoamFile
{
    version     2.0;
    format      ascii;
    class       scalarField;
    location    "2/lagrangian/reactingCloud1";
    object      d;
}
// * * * * * * * * * * * * * * * * * * * * * * * * * * * * * * * * * * * * * //


152
(
0.000511020463
0.0006044417529
0.0005730531786
0.0007950805931
0.0005904805016
0.0007380092045
0.0007198317345
0.0005415312962
0.0006438850473
0.0006119931943
0.0008404807904
0.0006390650976
0.0008454303415
0.0007798457812
0.0006963106418
0.00074295505
0.0007959481728
0.0005735753434
0.001020174673
0.0007679899748
0.0005152252702
0.00053200974
0.0007555906739
0.001038935975
0.001026681883
0.0006381193364
0.0007016856016
0.0009068670067
0.0005331210055
0.001060201769
0.0005013681573
0.0006782609458
0.001022269702
0.0008392779277
0.0006679170894
0.0006088530777
0.0006898733781
0.0007313749466
0.0005258571132
0.0009520558414
0.0006006217517
0.0005918211815
0.00071262422
0.0005082605733
0.0006788084861
0.0007540963997
0.0007471769172
0.000846393237
0.0007550400969
0.0007212526426
0.0005745818761
0.0006246258127
0.0005738276944
0.0005008167691
0.0007541588107
0.0006880455897
0.00114821645
0.0006263553798
0.0007015414347
0.001128812676
0.0006842959714
0.0005597514148
0.001174543936
0.0006144773608
0.0009762013359
0.0005733767496
0.0006854323469
0.0005527969513
0.0006039352735
0.0005834926565
0.0007862448327
0.0009688251891
0.0007110831754
0.0008695499603
0.000746372763
0.0006932718168
0.0007531481036
0.0006027156121
0.0008447919147
0.0008883715962
0.0006095619536
0.000740656935
0.0006867806527
0.0009864149174
0.0007964055791
0.0006442509228
0.0008679902371
0.0006406262183
0.0005102139482
0.0005525220775
0.0006695939286
0.0008253021823
0.000768546501
0.0009014753975
0.0009962355149
0.0005112041648
0.0009687893896
0.0009526602068
0.000574389795
0.0007462818669
0.0005590249841
0.000838508798
0.000822069654
0.000978705155
0.0007855131263
0.000645342251
0.001112143147
0.0008569428601
0.0007548143858
0.001016599054
0.0007600729263
0.0005788131917
0.0006715598573
0.0009325595332
0.001028688421
0.0006427676579
0.001111419328
0.0005152928487
0.000601218831
0.0007108663906
0.0007240437945
0.0006298574271
0.0008444018383
0.0005713848018
0.001186696599
0.001141638627
0.0006972418204
0.001112618711
0.0005117107364
0.0005082525549
0.0005648964887
0.0009771906428
0.0005211753405
0.0006783508475
0.001131524521
0.0007853799423
0.0005266957624
0.0005167278333
0.0009100641606
0.0005715541717
0.0008398887403
0.00103258224
0.001088317646
0.001008565864
0.0008831841713
0.001093323996
0.0005970862577
0.0006257763822
0.0005943471814
0.0007380426494
0.0007781239626
0.0006770671118
)


// ************************************************************************* //
