/*--------------------------------*- C++ -*----------------------------------*\
  =========                 |
  \\      /  F ield         | OpenFOAM: The Open Source CFD Toolbox
   \\    /   O peration     | Website:  https://openfoam.org
    \\  /    A nd           | Version:  8
     \\/     M anipulation  |
\*---------------------------------------------------------------------------*/
FoamFile
{
    version     2.0;
    format      ascii;
    class       scalarField;
    location    "2/lagrangian/reactingCloud1";
    object      mass0;
}
// * * * * * * * * * * * * * * * * * * * * * * * * * * * * * * * * * * * * * //


152
(
6.94901568e-08
1.149931019e-07
9.799258081e-08
2.617229926e-07
1.072074836e-07
2.093118198e-07
1.942233254e-07
8.269497109e-08
1.390059653e-07
1.19357083e-07
3.091660483e-07
1.359075916e-07
3.146602695e-07
2.469645399e-07
1.767696573e-07
2.13548259e-07
2.625806922e-07
9.826069688e-08
5.528814652e-07
2.358712846e-07
7.121965849e-08
7.840922658e-08
2.246302214e-07
5.83948804e-07
5.635287986e-07
1.353050896e-07
1.799020511e-07
3.883642312e-07
7.890159875e-08
6.205460156e-07
6.562641234e-08
1.624796043e-07
5.562946535e-07
3.07840548e-07
1.551586831e-07
1.175292423e-07
1.70968687e-07
2.037176495e-07
7.572018687e-08
4.493613175e-07
1.128266223e-07
1.085350814e-07
1.884474025e-07
6.874765491e-08
1.628734171e-07
2.233001528e-07
2.172094716e-07
3.157366322e-07
2.241395345e-07
1.953757562e-07
9.932404346e-08
1.269019224e-07
9.839044672e-08
6.541012889e-08
2.233556008e-07
1.696133628e-07
7.882785578e-07
1.286651878e-07
1.797911867e-07
7.489866071e-07
1.668554395e-07
9.132591225e-08
8.437547291e-07
1.208164526e-07
4.844250714e-07
9.815866749e-08
1.676880853e-07
8.796407432e-08
1.147042756e-07
1.034462146e-07
2.530939895e-07
4.735269311e-07
1.872274955e-07
3.423671108e-07
2.165089063e-07
1.735078207e-07
2.224587943e-07
1.140107342e-07
3.139479597e-07
3.650836736e-07
1.179402313e-07
2.115727349e-07
1.68679605e-07
4.997897123e-07
2.63033643e-07
1.392430625e-07
3.405280878e-07
1.369060197e-07
6.916165862e-08
8.783292113e-08
1.571929787e-07
2.927166318e-07
2.3638443e-07
3.814784898e-07
5.14866314e-07
6.95651248e-08
4.760874609e-07
4.527022957e-07
9.867986913e-08
2.164298142e-07
9.147286382e-08
3.069949912e-07
2.892905644e-07
4.88162086e-07
2.523880325e-07
1.40724243e-07
7.162926385e-07
3.276906216e-07
2.239385824e-07
5.470884193e-07
2.286515807e-07
1.009772827e-07
1.577112241e-07
4.223165652e-07
5.699676109e-07
1.382835331e-07
7.148949905e-07
7.124768604e-08
1.131634409e-07
1.870563101e-07
1.987435896e-07
1.301173418e-07
3.135132705e-07
9.713918897e-08
8.702168979e-07
7.748085101e-07
1.765056868e-07
7.172119172e-07
6.977213396e-08
6.836709544e-08
9.386745524e-08
4.885809407e-07
7.371570014e-08
1.625442211e-07
7.543976511e-07
2.53651853e-07
7.608304589e-08
7.224107301e-08
3.924862561e-07
9.776216693e-08
3.085131613e-07
5.733005677e-07
6.712362937e-07
5.371695879e-07
3.587254996e-07
6.805421961e-07
1.10845903e-07
1.276044803e-07
1.093274052e-07
2.093402777e-07
2.453323322e-07
1.616231533e-07
)


// ************************************************************************* //
