/*--------------------------------*- C++ -*----------------------------------*\
  =========                 |
  \\      /  F ield         | OpenFOAM: The Open Source CFD Toolbox
   \\    /   O peration     | Website:  https://openfoam.org
    \\  /    A nd           | Version:  8
     \\/     M anipulation  |
\*---------------------------------------------------------------------------*/
FoamFile
{
    version     2.0;
    format      ascii;
    class       labelField;
    location    "2/lagrangian/reactingCloud1";
    object      origId;
}
// * * * * * * * * * * * * * * * * * * * * * * * * * * * * * * * * * * * * * //


152
(
863
947
874
877
878
880
564
881
882
562
889
891
895
897
983
898
569
570
903
907
910
911
912
913
914
915
916
568
917
918
919
920
921
923
924
925
926
927
928
931
933
1006
934
1007
935
936
937
938
567
939
1005
940
941
942
943
944
945
1025
946
947
948
950
952
954
955
956
957
958
959
960
961
962
963
964
965
966
967
968
970
971
972
973
974
975
976
977
978
979
980
981
1029
982
983
565
984
985
1062
1051
986
987
1032
988
989
990
991
1069
992
993
994
995
996
997
998
1003
1043
1005
1006
1007
1342
1008
1050
1009
1010
1346
1011
1012
1013
1341
1014
1015
1016
1059
1017
1018
1019
1056
1020
1055
1021
1083
1022
1023
1024
1068
1025
1026
1027
1028
1029
1030
1031
1349
)


// ************************************************************************* //
