/*--------------------------------*- C++ -*----------------------------------*\
  =========                 |
  \\      /  F ield         | OpenFOAM: The Open Source CFD Toolbox
   \\    /   O peration     | Website:  https://openfoam.org
    \\  /    A nd           | Version:  8
     \\/     M anipulation  |
\*---------------------------------------------------------------------------*/
FoamFile
{
    version     2.0;
    format      ascii;
    class       Cloud<basicReactingMultiphaseParcel>;
    location    "2/lagrangian/reactingCloud1";
    object      positions;
}
// * * * * * * * * * * * * * * * * * * * * * * * * * * * * * * * * * * * * * //

152
(
(0.05350074548 0.5687646554 0.294552127 0.08318247205) 641 1899 1
(0.02212655894 0.4430466743 0.272281678 0.2625450887) 238 705 2
(0.5367469817 0.01168938341 0.4377836053 0.01378002957) 643 1906 2
(0.07615453453 0.748067122 0.01478159675 0.1609967467) 1419 4175 1
(0.1285487905 0.1101802742 0.3711297757 0.3901411596) 2170 6373 1
(0.2449988839 0.5013283473 0.06290324964 0.1907695192) 2947 6378 2
(0.07323514493 0.1198427603 0.002515148501 0.8044069462) 2197 6453 2
(0.02261526828 0.7945269792 0.1301834722 0.0526742804) 3728 10931 1
(0.366958887 0.3058216654 0.3076200111 0.01959943654) 3753 11009 2
(0.07647204054 0.6665166007 0.1530003756 0.1040109831) 647 1917 1
(0.4377183326 0.3957617531 0.05347827124 0.1130416431) 5285 15485 2
(0.3717294089 0.09606426221 0.4192044507 0.1130018783) 6126 17861 1
(0.1619647699 0.006851540888 0.3569166336 0.4742670556) 6882 20155 2
(0.1564808952 0.09187619623 0.5934898015 0.1581531071) 8439 24626 2
(0.06259159953 0.7673989825 0.0506620224 0.1193473956) 6023 17558 2
(0.1701565641 0.2032748064 0.2286447806 0.3979238489) 9267 27127 2
(0.1246301656 0.2378401114 0.4854423464 0.1520873765) 6153 18023 2
(0.002373097715 0.03494759733 0.4382051629 0.524474142) 7725 20310 1
(0.1102173278 0.0651108454 0.7411761967 0.08349563015) 9903 28905 1
(0.02892622389 0.3284335443 0.442092271 0.2005479608) 11842 34664 2
(0.2085815606 0.1074877232 0.3824731019 0.3014576142) 12702 37185 1
(0.01057286079 0.1319306327 0.5388891686 0.318607338) 12702 37186 2
(0.192387225 0.1645663917 0.2551486549 0.3878977284) 11688 34207 2
(0.07474971089 0.5262468725 0.03486542787 0.3641379887) 12540 36700 1
(0.3186679763 0.4013318588 0.226137132 0.05386303297) 12761 37354 1
(0.007967227571 0.07199269256 0.2371246095 0.6829154704) 12545 36719 2
(0.3371589174 0.07496404487 0.4978921181 0.08998491954) 13568 39718 1
(0.2587374385 0.1823122005 0.345840531 0.2131098301) 5394 13524 1
(0.177183272 0.1219063723 0.3594668293 0.3414435265) 13568 39720 1
(0.2371376168 0.009628396185 0.7368377597 0.01639622734) 12554 36745 1
(0.4017147339 0.2755019753 0.2460269442 0.07675634657) 14435 42161 2
(0.2793676533 0.02925816651 0.02023517212 0.6711390081) 14523 42497 1
(0.1013531407 0.4714974502 0.3756775911 0.05147181797) 13418 39273 2
(0.07910711445 0.1863970193 0.2309246836 0.5035711827) 13448 39273 1
(0.06597910702 0.4606002074 0.3326412827 0.1407794029) 13448 39363 1
(0.1698980092 0.2111429189 0.06236531357 0.5565937584) 14523 42497 1
(0.1163612767 0.659439715 0.07227176454 0.1519272438) 14315 198323 2
(0.7094084588 0.1185335751 0.06150469385 0.1105532722) 14315 39363 1
(0.8009609596 0.1334664762 0.04512670721 0.02044585704) 14315 41899 1
(0.03235363347 0.2293813035 0.08365768457 0.6546073784) 14316 41898 2
(0.4105101552 0.03912516964 0.04236143856 0.5080032366) 14318 41907 1
(0.02919315947 0.6349061474 0.118456789 0.2174439042) 15162 44378 1
(0.157984004 0.1414488034 0.4198509575 0.2807162351) 15274 44706 2
(0.07270690044 0.04631609741 0.4475154985 0.4334615037) 15050 41503 2
(0.02941690915 0.5678603715 0.2892980115 0.1134247078) 16081 44521 1
(0.1111511259 0.1587048122 0.09114334022 0.6390007217) 15192 44466 1
(0.5002273389 0.1468276497 0.3334590627 0.01948594869) 16112 47066 1
(0.2939867374 0.2486644874 0.01314803804 0.4442007372) 16021 46891 2
(0.5261017193 0.1763164394 0.192581893 0.1049999483) 3077 9033 2
(0.4174542113 0.1400196477 0.318460821 0.1240653201) 17091 50025 1
(0.07541984173 0.02348735567 0.4060862119 0.4950065907) 12374 36212 1
(0.246783856 0.4663743869 0.0672432203 0.2195985368) 16928 49543 1
(0.4960619619 0.2200615951 0.0690857946 0.2147906484) 16927 49545 1
(0.2091190498 0.3092008188 0.258891542 0.2227885894) 17809 49545 2
(0.3118064698 0.07414240683 0.1919803026 0.4220708208) 18862 55644 3
(0.2122948881 0.5755417038 0.09902657712 0.1131368309) 18730 54901 3
(0.2592512674 0.07082015406 0.330457599 0.3394709796) 18889 55759 2
(0.0923479724 0.2364773022 0.6446062904 0.02656843508) 23887 73334 2
(0.1885538848 0.4347998828 0.2754665463 0.1011796861) 52727 162050 2
(0.2084071405 0.6101158336 0.1757827983 0.005694227617) 19611 58113 2
(0.05295474344 0.3350923705 0.113083685 0.4988692011) 53079 162938 2
(0.1357217359 0.1351791104 0.09194927442 0.6371498792) 20582 61606 2
(0.1038927962 0.5576534476 0.03227526621 0.3061784901) 53818 164760 1
(0.2661769315 0.02631224847 0.07692939387 0.6305814262) 20614 61755 2
(0.08828930783 0.05982099503 0.6494576168 0.2024320803) 54077 61745 1
(0.07600986095 0.1285510972 0.110489876 0.6849491659) 54484 205488 2
(0.4494060818 0.2082998578 0.2760704943 0.06622356607) 53833 164813 2
(0.004381591699 0.07741162812 0.7027650412 0.215441739) 54494 166454 2
(0.1737007503 0.04733974056 0.1997338637 0.5792256454) 54095 165477 2
(0.3110724722 0.1900439127 0.2403839873 0.2584996278) 54494 166454 2
(0.4280292253 0.3003814473 0.07918472858 0.1924045988) 53848 164852 2
(0.3583535274 0.0611814998 0.4533039025 0.1271610703) 53823 164788 1
(0.08035731064 0.2492785465 0.07935775111 0.5910063917) 53806 164745 2
(0.08389293272 0.4758136256 0.0470792269 0.3932142148) 55729 65365 1
(0.2293548227 0.01057618223 0.7523284753 0.007740519787) 55035 164730 1
(0.4609312732 0.02402185259 0.06884875001 0.4461981242) 55183 168183 2
(0.6449383784 0.03494560414 0.1243832165 0.195732801) 55300 168498 2
(0.099425606 0.2051451096 0.6089746256 0.08645465883) 55324 168557 2
(0.5712123724 0.1213047962 0.2112440289 0.09623880252) 55437 168843 1
(0.04306005271 0.1182351476 0.4148627338 0.4238420658) 56534 168495 1
(0.1297389323 0.4192752818 0.1380920444 0.3128937415) 56528 171571 2
(0.1415337517 0.1324314453 0.3783870797 0.3476477233) 56673 68207 2
(0.3720469015 0.1765937723 0.2236582158 0.2277011104) 22398 68200 2
(0.543561545 0.2593138425 0.05613677851 0.140987834) 56374 171179 1
(0.1471425231 0.1452402424 0.3771104593 0.3305067752) 56550 171611 1
(0.3594983714 0.3068474355 0.105175694 0.228478499) 56676 171650 2
(0.7043618811 0.06364517117 0.0308840594 0.2011088884) 57534 174077 1
(0.2224974345 0.2514253088 0.345783825 0.1802934317) 23194 70988 2
(0.2317095807 0.04122147226 0.6472264381 0.07984250889) 23194 70986 2
(0.1755223366 0.4732890659 0.2427794444 0.1084091531) 57561 174148 1
(0.5382944409 0.2855142337 0.1548064028 0.02138492263) 54986 164607 1
(0.1050589576 0.0870842184 0.06805248052 0.7398043435) 57916 174966 2
(0.03649347815 0.1134841824 0.7659670576 0.08405528185) 57558 174139 2
(0.2340848868 0.6886732752 0.05950990915 0.01773192887) 2323 6802 1
(0.1363110733 0.0397885431 0.1426765173 0.6812238663) 57916 174961 2
(0.8086809644 0.06641241495 0.1050907873 0.01981583337) 57552 174114 2
(0.5421968911 0.02857177597 0.1852892944 0.2439420385) 35352 112689 2
(0.1123537637 0.04133519472 0.07878242015 0.7675286214) 51773 203388 1
(0.6382427595 0.06131299884 0.04865457359 0.2517896681) 58020 175210 2
(0.1314597783 0.5187514584 0.1299073298 0.2198814335) 58026 175222 2
(0.6979242578 0.002292787751 0.2881451537 0.01163780073) 56242 170828 2
(0.04015404701 0.3404716722 0.01542113673 0.603953144) 57770 174646 2
(0.05090741276 0.2222189699 0.3315628641 0.3953107533) 24123 74387 2
(0.161215778 0.3868925693 0.243613612 0.2082780407) 24216 74806 1
(0.07562400543 0.3348404761 0.2151994397 0.3743360788) 51020 74536 2
(0.6590053751 0.06756597402 0.02984469492 0.2435839559) 37001 117598 1
(0.3467657798 0.3295609969 0.2756775248 0.04799569853) 24124 74390 2
(0.0992038498 0.1605603506 0.4938585909 0.2463772087) 58758 176974 2
(0.03729038523 0.2656214652 0.1327500508 0.5643380988) 24216 74806 1
(0.1968744065 0.1051347643 0.4793504916 0.2186403376) 24125 74395 1
(0.1606999492 0.006593125041 0.03503927464 0.7976676511) 58827 74388 2
(0.07389386098 0.5997316438 0.1199886536 0.2063858416) 58827 177109 2
(0.1412067005 0.3472216305 0.2818205733 0.2297510956) 50901 157362 2
(0.04444065665 0.897562362 0.01405183563 0.04394514568) 51132 157985 1
(0.03886794541 0.2365227583 0.05309753482 0.6715117614) 27324 85361 3
(0.1696059441 0.2664358807 0.140512874 0.4234453013) 58878 177197 1
(0.4823773326 0.005289391494 0.02346604186 0.488867234) 50918 157400 1
(0.6573023567 0.09103604224 0.2046694472 0.04699215387) 58878 176981 2
(0.4975768315 0.04191853194 0.2293080565 0.23119658) 54650 63952 1
(0.06306573445 0.1717262244 0.6847390509 0.08046899026) 51073 157836 2
(0.1054896484 0.1402610359 0.6368122203 0.1174370954) 28387 202802 2
(0.2590982759 0.3469304222 0.328662924 0.06530837793) 50904 157373 2
(0.2089301957 0.4636738396 0.1447214659 0.1826744987) 50912 157401 2
(0.2178044887 0.3813487027 0.3106810033 0.09016580528) 21282 63956 2
(0.2218065466 0.3341430723 0.1342538699 0.3097965112) 51136 157997 2
(0.475063112 0.1842865498 0.2826460342 0.05800430387) 51137 157983 1
(0.6372630769 0.07707231703 0.2241477269 0.06151687925) 50904 203130 2
(0.06079169571 0.1468654496 0.3395658603 0.4527769944) 21414 64563 2
(0.3158734067 0.472420651 0.07075325332 0.140952689) 51074 157837 1
(0.3122434499 0.2653878413 0.3158171733 0.1065515355) 50904 157376 1
(0.311458143 0.4938398458 0.130020429 0.06468158218) 51137 158000 2
(0.1955807901 0.4277035158 0.2262392074 0.1504764867) 34584 110497 1
(0.2447733085 0.5625984137 0.1323720785 0.06025619939) 51137 158000 2
(0.4648230144 0.1722179343 0.1855679885 0.1773910628) 50904 203130 2
(0.07077380221 0.5821149411 0.04677930925 0.3003319475) 51135 157996 1
(0.5642509809 0.01410279974 0.0451785546 0.3764676647) 65598 98508 2
(0.3703346948 0.2325161479 0.1080930025 0.2890561547) 50904 203130 2
(0.1194706182 0.214944986 0.1606426842 0.5049417116) 65489 193537 1
(0.02226532594 0.6965273419 0.2284820704 0.05272526176) 51131 157983 2
(0.0297250054 0.2138453195 0.4127077314 0.3437219437) 41244 129991 2
(0.4458070884 0.3825647673 0.1560210952 0.01560704917) 50984 157611 1
(0.5687004726 0.3079359935 0.03928590179 0.08407763207) 51136 202916 1
(0.4969466633 0.4614351812 0.01515318893 0.02646496656) 51135 157995 2
(0.1924973467 0.1934958128 0.2266959412 0.3873108992) 35330 112707 1
(0.397333252 0.4621576992 0.1204608691 0.02004817973) 51131 157983 1
(0.1939553385 0.41374595 0.2359636343 0.1563350772) 50793 157014 2
(0.323593175 0.2432425053 0.4194246583 0.01373966136) 51074 202890 2
(0.3261119536 0.1280860648 0.5008651986 0.04493678303) 51135 203177 2
(0.2893424438 0.4895506469 0.1091485871 0.1119583222) 51131 202915 2
(0.34544101 0.242465015 0.08597031087 0.3261236642) 51137 202917 1
(0.3309005827 0.296012288 0.2907266444 0.08236048498) 50788 202816 1
(0.02860527124 0.09966366015 0.5948529432 0.2768781254) 54659 208671 1
)


// ************************************************************************* //
