/*--------------------------------*- C++ -*----------------------------------*\
  =========                 |
  \\      /  F ield         | OpenFOAM: The Open Source CFD Toolbox
   \\    /   O peration     | Website:  https://openfoam.org
    \\  /    A nd           | Version:  8
     \\/     M anipulation  |
\*---------------------------------------------------------------------------*/
FoamFile
{
    version     2.0;
    format      ascii;
    class       vectorField;
    location    "2/lagrangian/reactingCloud1";
    object      U;
}
// * * * * * * * * * * * * * * * * * * * * * * * * * * * * * * * * * * * * * //


152
(
(0.6677085836 -0.05742857129 -1.782452166)
(0.7757675148 -0.4579892409 -1.68330133)
(-0.1776604862 -0.04908867316 -2.022704313)
(-0.1894666242 -0.0731288273 -2.176581834)
(-0.1490841269 -0.08614749321 -2.047713125)
(-0.1491695792 -0.1101771923 -2.128986831)
(-0.00916663258 -0.2110235123 -2.144997273)
(-0.11682478 -0.1150157175 -2.010185583)
(-0.023413839 -0.2083230136 -2.052969982)
(0.02661720974 -0.192741228 -2.076636679)
(-0.01433737031 -0.1828190827 -2.075029473)
(0.05531714171 -0.2095232661 -1.88887946)
(0.03150317979 -0.1054642529 -1.982182834)
(-0.00584366514 -0.1023000571 -1.921413412)
(-1.049154174 -0.3557860625 -3.01952428)
(0.007316422303 -0.2828906445 -1.811087453)
(0.03104320795 -0.2109006968 -1.957480433)
(-0.1003028987 -0.1940532699 -1.832170006)
(-0.02242129013 -0.5036764564 -1.803747625)
(0.1254145667 -0.03677466985 -1.584421134)
(0.1327665148 -0.005746929251 -1.420117815)
(0.1438896154 -0.006334549192 -1.429260836)
(-0.01317271727 -0.1732681287 -1.70437314)
(-0.2662006628 -0.1559064834 -1.687576514)
(0.007793438702 0.09114016974 -1.651487139)
(-0.0007582119535 -0.1226873562 -1.675048748)
(0.1737384346 -0.007487311821 -1.49332675)
(0.02045385327 -0.190978313 -2.043741715)
(0.1683026757 -0.0275946378 -1.411538281)
(-1.025797356 -0.0856160491 -1.581863398)
(0.1588827481 -0.03835772589 -1.381816651)
(0.0169359346 0.2715310354 -1.50245778)
(-1.127438106 -0.08285684138 -1.539043879)
(-1.120744755 -0.07826838391 -1.496866043)
(-1.075041108 -0.07090655972 -1.461214287)
(0.02272450006 0.2636856558 -1.500001284)
(-1.10296788 -0.06250885884 -1.449749026)
(1.125073516 -0.05395809661 -1.424525631)
(-1.018641276 -0.04176630716 -1.38832994)
(-1.234198491 -0.03990677888 -1.480308866)
(-1.011168927 -0.04718992027 -1.461070343)
(-1.074357358 -0.3764540753 -2.776488182)
(0.1319933829 -0.0564081911 -1.36266195)
(-0.8649372779 -0.5702322642 -2.838791768)
(0.1144137032 -0.1497241522 -1.387881277)
(-0.8963638256 -0.02223505943 -1.440511083)
(0.1079945477 -0.1591971029 -1.333805982)
(0.07618746493 -0.1886738255 -1.435269382)
(-0.0155352169 -0.1454837945 -2.117577883)
(0.1492543163 0.08060318094 -1.229205919)
(-0.5822859727 -0.7069023716 -2.920724228)
(-0.01849853345 -0.1566120544 -1.358794879)
(-0.0583949391 -0.1565797453 -1.320584333)
(-0.07489327418 -0.1478912936 -1.295483708)
(0.1424342743 0.1142190075 -1.113347071)
(-0.07590637737 -0.1249838649 -1.191632967)
(-0.04928165912 0.1240099087 -1.121289123)
(-0.7519985278 -0.8846754403 -2.446372038)
(0.110844243 -0.1666661257 -1.033627714)
(-0.8058577387 -0.02681186241 -1.090439774)
(0.1400500607 0.0816828848 -1.003726493)
(0.1382751749 -0.1248225272 -0.9555211097)
(-0.1549022588 -0.02824833223 -0.997124439)
(0.1437803453 0.009973973709 -0.933516863)
(0.1107845534 -0.07644226174 -0.9658792295)
(-0.1047093994 0.262182676 -0.9772038702)
(0.08168544637 -0.04577800433 -0.9852637674)
(-0.09960697982 0.2568610467 -0.9633115577)
(0.1548279422 -0.1211599343 -0.9084476079)
(-0.09518974202 0.2524622178 -0.9481589709)
(0.0519041864 -0.1872601942 -0.940072271)
(-0.08279186885 -0.06510593694 -0.9319688256)
(-0.3457117405 -0.07564640824 -0.9299007628)
(-0.08522069556 0.2406215599 -0.9036454522)
(-0.406558786 -0.08046843143 -0.9168443765)
(-0.2629471775 -0.06527803428 -0.854205434)
(-0.0007722351009 0.09883991194 -0.8430980839)
(0.1538343844 -0.1216276059 -0.8233973976)
(0.1160199015 -0.04898148534 -0.8110005047)
(-0.395392737 0.03968556333 -0.7795243004)
(-0.4321840886 0.08741223141 -0.7490998791)
(0.1389148247 0.01343476356 -0.7407055931)
(0.1153094178 -0.08834817072 -0.7291778406)
(0.117003606 -0.06566940019 -0.7371223859)
(-0.2209689778 -0.07345490338 -0.6878443681)
(0.1248891281 -0.0978110615 -0.6663745217)
(-0.2208518531 -0.09080741138 -0.6123570347)
(0.5164432482 -0.1357889821 -0.6109743758)
(0.4859875594 -0.1402265918 -0.6077017435)
(0.4609228932 -0.1485330228 -0.5890930753)
(-0.09618056768 -0.5692555913 -2.956209016)
(0.1445334934 -0.03711492978 -0.5285910277)
(0.3663741344 -0.1545391481 -0.5485037516)
(-0.03142971018 -0.1411745173 -2.1920398)
(0.1367038965 -0.1179250067 -0.5210101265)
(0.07634010471 -0.1002577407 -0.5369400422)
(-1.229537248 -0.1177633023 -2.040512456)
(-0.5886695522 -0.236470148 -2.599462875)
(0.1106201181 0.1057408908 -0.4692765941)
(0.2283174264 0.02700737188 -0.4712269591)
(0.01115898313 -0.594960851 -2.899976523)
(-0.5069600549 0.1564727132 -0.462581028)
(-0.1747492723 -0.02810342926 -0.4460345971)
(0.2365410794 0.05178123761 -0.3819918434)
(-0.4125334567 0.1395372002 -0.3710569973)
(-1.048873486 -0.2793848021 -2.035402458)
(-0.08198360837 -0.01709362466 -0.3699760991)
(-0.7886708231 -0.08296378355 -0.3576176282)
(0.2368388242 0.06540534717 -0.3453196418)
(-0.05340139082 -0.04668118749 -0.3396348147)
(-0.6030931213 -0.1069820645 -0.3443925451)
(-0.7304827132 -0.1454956109 -0.3537642178)
(-0.003084915758 -0.03562241712 -0.3332665848)
(0.2354981558 0.08075315862 -0.283723946)
(0.00456054542 -1.038872886 -2.51471447)
(-1.443202998 -0.05512379311 -0.2705748709)
(0.4735106139 -0.07243745598 -0.2586330138)
(-1.437981444 -0.03767275255 -0.2631325476)
(-0.4897535038 -0.7448489241 -0.9521627071)
(0.0965920175 -0.1258536854 -0.2391312748)
(-0.1652498177 -0.4175867957 -2.691233567)
(-1.122603836 -0.006963102895 -0.2286189262)
(0.5445330323 -0.1268957784 -0.1850079523)
(-0.4529297876 -0.7506120111 -0.9453609966)
(0.2187656296 0.117701188 -0.1610533811)
(0.2181780351 -0.02448836703 -0.1577549476)
(-0.3326792755 0.01726996983 -0.1584480674)
(-0.4647374506 -0.3588600885 -0.8628802641)
(0.07895121317 -0.1110958935 -0.1511435258)
(-0.4942145016 0.02081883842 -0.1493518242)
(0.253223438 0.1140492266 -0.1439908849)
(-1.190639464 0.2160042185 -2.08840283)
(0.2583600035 0.1330693373 -0.1353447136)
(-0.4908163795 0.02770647089 -0.1210992662)
(0.06900635331 -0.2380354931 -0.1096397461)
(-0.08244152147 -0.5654258086 -2.587836919)
(-0.6028895657 0.0312704104 -0.1094515728)
(0.0002734474437 -0.7381530076 -2.471368579)
(0.2471458214 0.1380668145 -0.09222233044)
(-0.9773263552 0.7321920917 -1.709288222)
(-0.4481846939 0.06772086737 -0.07837771164)
(0.09387717026 -0.07082576933 -0.0640630406)
(0.1898189413 0.1849765465 -0.06283516518)
(-0.422584443 -0.3079185989 -2.351942501)
(0.2496114493 0.1443290494 -0.05482422872)
(-8.085414421e-05 0.5743718785 -0.07329054424)
(0.09394267813 -0.08856702863 -0.045280578)
(0.1760605402 0.2320683534 -0.044312349)
(0.2617941387 0.1537162897 -0.04294266738)
(-0.01155403051 -0.205536092 -0.02001040789)
(-3.545789357e-05 0.5738154301 0.0002188308574)
(-0.3809275631 -0.7132140322 -0.9039378306)
)


// ************************************************************************* //
