/*--------------------------------*- C++ -*----------------------------------*\
  =========                 |
  \\      /  F ield         | OpenFOAM: The Open Source CFD Toolbox
   \\    /   O peration     | Website:  https://openfoam.org
    \\  /    A nd           | Version:  8
     \\/     M anipulation  |
\*---------------------------------------------------------------------------*/
FoamFile
{
    version     2.0;
    format      ascii;
    class       volScalarField;
    location    "1.8";
    object      epsilon;
}
// * * * * * * * * * * * * * * * * * * * * * * * * * * * * * * * * * * * * * //

dimensions      [0 2 -3 0 0 0 0];

internalField   nonuniform List<scalar> 
67193
(
0.2414670184
0.1770887098
0.1349952243
0.110825854
0.09929662005
0.09898860351
0.1145299066
0.1518717353
0.217897744
0.2355631615
0.2256087884
0.1997359941
0.1659528577
0.1330089332
0.1092068393
0.09808713184
0.09810064651
0.1102627338
0.1275628356
0.1380210783
0.1375976152
0.128117356
0.1136938069
0.09934932921
0.08903282295
0.08415296753
0.08332795343
0.08319353476
0.0803458032
0.07315782103
0.06221769372
0.04999230969
0.03919326057
0.03351757785
0.4370130742
0.3340116623
0.2475137541
0.181712369
0.1408017378
0.1328741074
0.1646495391
0.2266247399
0.2950612472
0.3173057844
0.3032526303
0.2678534404
0.223573221
0.1802300113
0.1478264299
0.1341407768
0.1420922824
0.1693256859
0.1974614742
0.2116961797
0.2094209247
0.1938591629
0.1707309896
0.1475150756
0.1315646525
0.1264939139
0.1294191786
0.1334245645
0.1327356678
0.1248421742
0.109769434
0.08960060722
0.0690413086
0.05890826854
0.6308624662
0.5031551213
0.3878104982
0.2855123774
0.2039218702
0.1671663788
0.1961661838
0.2724030502
0.3518974351
0.3810038381
0.3629663428
0.3192111231
0.2676595928
0.2175605852
0.179018113
0.1654130671
0.1874548406
0.2315156865
0.2682425708
0.2844910203
0.2798419231
0.258672541
0.228014688
0.1963227588
0.1738011961
0.1677765473
0.1744701773
0.1822809142
0.1827261745
0.1737120863
0.1565063212
0.1330309304
0.1060272993
0.09038038646
0.785965424
0.6362017377
0.5054577413
0.3879124081
0.2818199373
0.2083601437
0.2060983493
0.273493883
0.3593761243
0.3979068226
0.3851949248
0.3379142941
0.2850557719
0.2352872746
0.19745905
0.1895569736
0.2298914403
0.2876978762
0.3310850478
0.3492958125
0.3419250023
0.31388827
0.2758252182
0.2364285175
0.2074786136
0.2004573509
0.2119254648
0.2246909803
0.2258034295
0.2138133101
0.1929544459
0.1663776026
0.1353870154
0.1144779492
0.8958178192
0.7265121814
0.5831501391
0.4604994836
0.3487838023
0.2543284605
0.2125742195
0.2462781442
0.3190671713
0.3645692962
0.3618307464
0.3253417893
0.2814564053
0.2402323116
0.2091425126
0.2100264422
0.268505697
0.3355039104
0.3791849509
0.3973408205
0.3903085796
0.3605708287
0.3140794317
0.2669583048
0.232006329
0.2237629052
0.2406204421
0.2604648228
0.2625697264
0.2456356008
0.2196157073
0.1888861331
0.1542797064
0.1299137924
0.9388452496
0.7692236428
0.6211991884
0.496925516
0.3880420746
0.2906748443
0.224277263
0.2172902034
0.2603639242
0.300380371
0.3077988713
0.2910898416
0.2666697781
0.2404250462
0.2187777079
0.2274217939
0.3036485201
0.3656392161
0.4008035213
0.4168817395
0.41162874
0.3843280265
0.3379009026
0.2851009167
0.2455705432
0.2360220079
0.2580014513
0.2844535576
0.2878630758
0.2687469314
0.2371645923
0.2026917671
0.1650389153
0.1383453458
0.9241972934
0.7649339674
0.624670895
0.502495934
0.3995454466
0.3082109492
0.2360505627
0.2026134563
0.2148487018
0.2448418781
0.2565267191
0.2571779754
0.2528732511
0.2416744762
0.2284481919
0.2431847866
0.3494793027
0.3936844085
0.4059648283
0.4108967957
0.4044285234
0.3804296126
0.3377983282
0.2864591312
0.2458294791
0.2359363659
0.2610685935
0.2926311848
0.2993284514
0.2810665564
0.2470114987
0.2103238142
0.1705512228
0.142251562
0.8756634377
0.7284607981
0.600120753
0.4854127757
0.3906553559
0.308700313
0.2423728555
0.203368995
0.2060833714
0.2441625084
0.2483862526
0.2452993917
0.246743739
0.2437438556
0.2389005522
0.2673669448
0.438109006
0.4649826314
0.4321347234
0.4013188851
0.3782221904
0.3515099513
0.3130046662
0.2687806766
0.2310617617
0.2238423558
0.2534261487
0.2905515588
0.302526844
0.2867560353
0.2520225219
0.2137543931
0.1724965342
0.143274184
0.8200717781
0.675920464
0.5579996714
0.4545288422
0.3703113159
0.2995561825
0.245201379
0.221834379
0.2651687524
0.3654328085
0.3467116396
0.289913244
0.2572967708
0.2462477411
0.2577885034
0.3308564598
0.601148806
0.6228253273
0.5352704478
0.4389771609
0.3669906738
0.3163705683
0.2743144079
0.2338520735
0.2021797088
0.2041745864
0.2440239803
0.2869993341
0.3028009685
0.2879652987
0.2524996895
0.2124927559
0.1704385073
0.1415878695
0.7581197792
0.6162419542
0.5065236958
0.4190294904
0.3488159032
0.2901164384
0.2527658323
0.2774778082
0.4541024848
0.6695183655
0.6201471429
0.4539234173
0.3176627223
0.2614367851
0.3104378224
0.490395461
0.8501075804
0.8629640523
0.7293765661
0.564790804
0.4175901567
0.3078859414
0.2356698781
0.1886717754
0.1665381435
0.1874957545
0.2404124556
0.2846797452
0.2986929403
0.2810873939
0.2441483056
0.2037114639
0.1626154564
0.1369552206
0.6548065388
0.5500756158
0.4553087771
0.3938342372
0.3419201411
0.2922333795
0.2783409315
0.4161724913
0.8397320665
1.13418549
1.052285085
0.7798568914
0.4839623528
0.3198614987
0.4360272066
0.7868143713
1.174361438
1.151647895
0.9628979125
0.7453400763
0.5303721429
0.3418791801
0.212705381
0.1476431623
0.1409929145
0.1846889293
0.2405272339
0.2771716803
0.2840413963
0.2621270902
0.2260065149
0.1873401799
0.1502108696
0.1333525414
0.6097706667
0.509708612
0.4252761608
0.4045171728
0.3741958746
0.3220130398
0.3381963893
0.693170776
1.398079466
1.697273695
1.551951406
1.206579418
0.7764969479
0.4536499942
0.6374385372
1.112691529
1.488086525
1.421283351
1.164751316
0.8958720737
0.64033024
0.3914821308
0.2080308734
0.1281539955
0.141115848
0.1971542917
0.242383644
0.2659785469
0.2646058143
0.2413691555
0.207711261
0.1731142916
0.1433366413
0.1445102251
0.5986354123
0.4895137077
0.4258919498
0.4824751567
0.4776703794
0.4015576191
0.441235265
1.086264433
2.022753469
2.327304854
2.097203405
1.635405629
1.132152853
0.662207987
0.7762811683
1.295457844
1.635885473
1.537840897
1.231168003
0.9260933225
0.6466755466
0.3811159923
0.1972298029
0.1380793872
0.1742322649
0.2365174852
0.2681048585
0.2763448045
0.2690657163
0.2456000526
0.2135909796
0.1826647464
0.160528126
0.1861983537
0.5339733052
0.4609456298
0.480516959
0.663854795
0.6824003915
0.5600080733
0.5687343766
1.372537885
2.482015104
2.838680411
2.56206799
1.97919097
1.425434142
0.8810460947
0.7531387313
1.16744273
1.498424707
1.387416429
1.066578761
0.763736901
0.491462404
0.2832209544
0.1820687149
0.1903955335
0.2554623473
0.327066644
0.352479987
0.3478245622
0.3346203526
0.308080782
0.2727348908
0.2389561505
0.2163982896
0.2573450826
0.4968674433
0.4815215681
0.6728676482
0.9650069853
0.9923456656
0.8250829117
0.6840488744
1.2119756
2.410229001
2.869235977
2.62402692
2.006737589
1.42104863
0.8911523939
0.5608773272
0.7280475029
1.098378682
0.969947136
0.6791572846
0.4428371506
0.2892739711
0.2158662171
0.224410578
0.3019015951
0.3878816975
0.4708685904
0.5037221992
0.4965074052
0.4761328794
0.4403718147
0.3936191827
0.3464298686
0.3087049769
0.3445848111
0.4823063792
0.5968912725
1.121668012
1.367128298
1.381703758
1.195927819
0.9010775852
0.7465703612
1.403161367
1.963093598
1.867995249
1.387161146
0.7594093468
0.2737846694
0.1769396261
0.2902233673
0.5838220074
0.4351168205
0.3233939997
0.273450019
0.2594602069
0.2634479651
0.3343056879
0.4517828645
0.5507367651
0.6446426415
0.6940354412
0.6945664445
0.6683412241
0.6181670418
0.5523522855
0.4831582262
0.4195837748
0.4366689068
0.5821353655
0.8834136716
1.855744384
1.833448692
1.823323821
1.619493683
1.283670547
0.9306174474
0.7700674747
0.9367252671
1.034329313
0.8105086365
0.4008827634
0.1653338582
0.1686899869
0.2333258901
0.3034716534
0.314677682
0.3184690291
0.3262834458
0.3442675746
0.359534576
0.4754540856
0.6115359827
0.723817165
0.8298071682
0.8985169457
0.9112618356
0.8813553486
0.8129729075
0.7188793444
0.6213251928
0.5283826827
0.5234005017
0.6466999628
1.112322325
1.707933717
2.138563415
2.213416108
2.013676695
1.64136123
1.231822231
0.8616057767
0.6473191181
0.5390828896
0.3630542779
0.1813010286
0.1360378911
0.2012295214
0.2667065007
0.3249371454
0.3789202997
0.3981917611
0.4336482128
0.477226296
0.481329788
0.6234058043
0.7697806685
0.899127194
1.020305832
1.100106762
1.118841147
1.084960958
0.9994272715
0.8749701577
0.7437503027
0.6221196012
0.597017838
0.5949674467
1.032451831
1.732760922
2.232545318
2.363215391
2.182795606
1.805518256
1.38608483
1.001863462
0.6621972724
0.4042817838
0.2239071094
0.1237999855
0.1449113151
0.2235302267
0.300656811
0.3765057084
0.4438278503
0.4931659756
0.595686865
0.6699502538
0.6234741495
0.7640031466
0.9236753692
1.073719766
1.19941384
1.274933066
1.291600225
1.251632105
1.151578564
1.00182573
0.8402520155
0.6955553683
0.6547197173
0.2835966892
0.3562667609
0.8553916664
1.543914391
1.792672424
1.648460678
1.287183251
0.8913014731
0.5708985349
0.3526622952
0.2187839018
0.1361185053
0.09826974319
0.1369127862
0.2193671491
0.3071547579
0.3984388977
0.486465506
0.6104947732
0.8178421573
0.9220946648
0.7775471825
0.9007704917
1.078485985
1.233552645
1.350572737
1.409452614
1.416258742
1.367470995
1.255840231
1.088419308
0.9063254026
0.7485804278
0.6976782689
0.3562528434
0.3485193667
0.3800134348
0.7258853675
0.9818087239
0.9555568898
0.7616680746
0.5279215108
0.3460068319
0.2341090529
0.1643076819
0.1148896625
0.09005977571
0.1109906732
0.1927415188
0.2920663515
0.3990026212
0.527280753
0.7391486279
1.033124084
1.154160856
0.94659786
1.045862933
1.231928849
1.369728116
1.465824178
1.503137601
1.493221265
1.432336958
1.311505245
1.135232534
0.9448313157
0.7855201968
0.7293141856
0.4904562093
0.4847253355
0.4432983678
0.429550491
0.4635099564
0.4393996748
0.3607248214
0.2933211247
0.2393720046
0.1949238373
0.1555536676
0.1199355635
0.09489463768
0.09562323105
0.1600746124
0.2709267768
0.3927609509
0.5586134055
0.8103637393
1.122325162
1.251941555
1.115121057
1.214541846
1.371708749
1.478264933
1.54902754
1.57064233
1.535556846
1.455141095
1.325016038
1.148925374
0.9635022217
0.813288122
0.7535782842
0.6794000192
0.6995623386
0.631746139
0.5239513661
0.4416810617
0.3850489393
0.363640827
0.3185283268
0.2707702511
0.2251819945
0.1834405924
0.1453383871
0.1135636828
0.09789784121
0.1420954744
0.2562612267
0.3792714419
0.5463309345
0.7662666038
1.031602049
1.197828672
1.240900178
1.366208505
1.484716146
1.56078719
1.622007643
1.656234399
1.580739738
1.45792415
1.308025684
1.137904744
0.971142704
0.8384077162
0.7733687741
0.8111318876
0.8688995859
0.8024319646
0.6788960602
0.549427637
0.4633217478
0.5177330415
0.4308203667
0.3396060545
0.2680616025
0.2140049768
0.1698871568
0.1325860272
0.1093819197
0.1483966497
0.2611691774
0.3712240459
0.5199021082
0.7049539835
0.9210749718
1.149524073
1.332834498
1.469375408
1.564818676
1.633873837
1.750016403
1.869557694
1.729600487
1.504523532
1.290567457
1.114669276
0.9758063461
0.8646984589
0.7897467321
0.6839395101
0.8242214573
0.8775040569
0.827349367
0.7260868742
0.6206105847
0.5480589529
0.516391891
0.4397501068
0.4261888948
0.3122567417
0.2374202113
0.1854874527
0.144602488
0.1237693425
0.1806099034
0.299166952
0.3959315787
0.5413464285
0.7362868787
0.9683477686
1.207876172
1.394656182
1.523755559
1.629328512
1.75952083
2.089403305
2.399401261
2.174821767
1.74867303
1.35908012
1.112014581
0.9869094736
0.8923244362
0.8019772086
0.91585779
0.8374015338
0.9091226304
0.8674228942
0.7614730927
0.6368333214
0.5209285451
0.4336729971
0.3681372138
0.4258528217
0.3310053787
0.2452432425
0.1898428734
0.1493147631
0.1427153457
0.2387628981
0.3647740003
0.4231047652
0.5322079672
0.7292558597
0.9794960559
1.2231858
1.404695927
1.548899306
1.734220091
2.095499601
2.881648556
3.402409741
3.083922432
2.389152634
1.679293902
1.210851049
1.016390855
0.9178431545
0.8076545748
0.8307154952
0.9272209563
0.992365597
0.915532326
0.7571728222
0.5993652634
0.483115152
0.4059122024
0.3514319399
0.3095657743
0.2679246521
0.2244959451
0.1839710961
0.1506725423
0.1732412202
0.3261154315
0.4645309195
0.471401951
0.4984611881
0.6621482403
0.9087232675
1.158408416
1.356970922
1.577202542
2.004007148
2.892639346
4.183477667
4.844426684
4.430868721
3.450011049
2.37033857
1.526750617
1.105485027
0.941717438
0.803130247
0.7493793129
0.8702467816
1.02242017
0.9530429111
0.7699764899
0.583905683
0.4653321913
0.3943628676
0.3464051135
0.3058969509
0.2672176892
0.226580807
0.1854459149
0.1553393398
0.2237196798
0.4377665337
0.5949234275
0.5658527067
0.4820860725
0.5586197359
0.783310787
1.03414421
1.279984535
1.692978814
2.608003474
4.125614936
5.58000732
6.313637774
5.964276799
4.77221527
3.35646595
2.114944086
1.31132458
0.9664743393
0.7871692667
0.6098482792
0.6515763254
0.6585094588
0.5511585257
0.4594876851
0.4144163072
0.3799125599
0.3455635243
0.3086277089
0.2698303885
0.2297033574
0.1892003167
0.1635680729
0.2912094911
0.5370086559
0.7278409801
0.7019552877
0.5360959804
0.4860994841
0.6907878461
0.9411445938
1.233458966
1.859324667
3.202334763
4.826524456
6.151089371
6.438761532
5.871525597
4.564018337
3.014429976
1.727659777
1.054931783
0.8173663962
0.686918065
0.4719683879
0.5479074331
0.6093225682
0.5791879223
0.5128859661
0.4538199952
0.4037693567
0.3585757455
0.3161096312
0.275653299
0.2358064127
0.1954055744
1.686139168
3.098221688
5.05473098
5.185908026
4.326960091
3.046881499
1.849874069
1.083834707
0.7824886443
0.6805803694
0.6060571631
0.8044768498
0.7189565048
0.5852923426
0.4822161394
0.4137392725
0.3617538043
0.2127301412
0.172857593
0.1559500179
0.1482128125
0.1442268357
0.1449272442
0.1575573684
0.1926880204
0.2551414625
0.2816056771
0.2651906853
0.2251145265
0.1833321853
0.1529574178
0.1372108022
0.1328939211
0.1350702242
0.1439497631
0.1559913756
0.162399397
0.1585332295
0.1461556397
0.1302099306
0.1153746912
0.1038540643
0.09541132456
0.08884591049
0.08297785122
0.07691647607
0.06986482478
0.06134042688
0.05203299614
0.04238089895
0.03477283537
0.3037859461
0.2409970723
0.1927614528
0.1583241847
0.1386558442
0.1392446898
0.1656013016
0.2105431297
0.253160535
0.270756531
0.2601797663
0.2294238416
0.1924295183
0.1611250605
0.141774922
0.1353424166
0.1403470865
0.1540539727
0.1680836294
0.1748210112
0.1715365514
0.1597686658
0.1438062174
0.1289618026
0.1190874957
0.1147954726
0.1137043049
0.1125286412
0.1087542195
0.1008932488
0.08850098629
0.07360615548
0.05970620819
0.0597672132
0.4191026402
0.338367422
0.2670578814
0.2067189948
0.163803507
0.1534222361
0.1834038699
0.2336589524
0.2762798572
0.2949774395
0.2862379498
0.2568041343
0.2186651889
0.1835370354
0.1604332831
0.1544750421
0.1657940157
0.1856005874
0.2026026921
0.2102399697
0.2067061218
0.1938028023
0.1760180986
0.1592502749
0.1491170587
0.1474089206
0.1503050351
0.1522071669
0.1493262843
0.1400168684
0.1241670324
0.1044717656
0.08484378794
0.09166211367
0.4929426502
0.4039680382
0.327884265
0.2584444764
0.1992630373
0.1693816848
0.1853209707
0.2287900016
0.2695189322
0.2900558574
0.2847808145
0.2584488569
0.2244402098
0.1922028691
0.1707435707
0.168227693
0.1846700687
0.2067006581
0.22514449
0.2336350632
0.2299360213
0.2160094719
0.1976485575
0.1803869814
0.1704161029
0.1708536258
0.1771068697
0.1817549143
0.1797985408
0.1696056515
0.1517366831
0.129143505
0.1055906048
0.1174553795
0.5389786339
0.4401830045
0.3617801784
0.2950589652
0.2329702146
0.1883593613
0.1828697831
0.211607079
0.2459422282
0.2670281761
0.2664643783
0.2474545083
0.2210316172
0.195568895
0.1791122484
0.1809645387
0.2001170037
0.2233708072
0.2421862373
0.2506770161
0.2474965978
0.2337885243
0.2133435547
0.1953414895
0.1855346458
0.1874277411
0.196041951
0.2027134944
0.200799525
0.1886604279
0.1689147813
0.1446588316
0.119111683
0.1357990615
0.5526338123
0.4527004561
0.3729214569
0.3093833339
0.2527239876
0.2039318425
0.1809779432
0.1907058357
0.2153346943
0.2346681212
0.2390638323
0.2296171382
0.2132528752
0.1964893806
0.1864983847
0.1925568051
0.2133929873
0.2353954206
0.2511832655
0.2579146112
0.2548262235
0.2422416113
0.2226152271
0.2035760517
0.1938100324
0.1968217001
0.2074490705
0.2157248803
0.2135290333
0.1996943158
0.1776381664
0.1525111591
0.1264821745
0.1473502736
0.5436979097
0.4460976064
0.3703164255
0.3083104662
0.2581352393
0.2120920844
0.1808251852
0.1744622155
0.1882162548
0.2054454204
0.2134764647
0.2122058277
0.205160156
0.1965138689
0.1932301324
0.2045139667
0.2290593797
0.2474722335
0.2562503647
0.2576636122
0.252288406
0.2398938027
0.2215521769
0.2033363149
0.1939935507
0.1985314619
0.2115077896
0.2213885971
0.2195730207
0.2050241457
0.1814614868
0.1557762681
0.12983233
0.1535533697
0.5224946659
0.4290369224
0.3578540098
0.3002211676
0.2552048367
0.2139795477
0.1823213884
0.169033909
0.1772901397
0.1927790395
0.2000996908
0.2018260162
0.1999459497
0.1968475822
0.2012200018
0.223100221
0.2576109356
0.2720339059
0.2670256
0.256532422
0.2437616821
0.2281551724
0.2097720228
0.1935164214
0.185130831
0.1926448442
0.2095430306
0.2216483808
0.2210371837
0.2066661736
0.1823050379
0.1560049369
0.1301363335
0.1552089653
0.4984700543
0.409819685
0.3436266411
0.2916795117
0.2503222204
0.2136026463
0.1868565494
0.1794484114
0.1996370433
0.2192045885
0.2174431503
0.2090754311
0.2024795079
0.2005655112
0.2169367603
0.2638779143
0.3235920635
0.3323153988
0.2992965126
0.2651126207
0.2373501956
0.2124480644
0.1911218304
0.174346251
0.1677205703
0.1813165677
0.2045033465
0.2190967337
0.2195148058
0.2052280895
0.1802495247
0.153097324
0.1272572719
0.1522233173
0.4714643802
0.3940200763
0.3323970398
0.2862569926
0.247847305
0.2150783746
0.1978866581
0.2146364298
0.2766414127
0.3084620297
0.287485662
0.2496902052
0.2211962768
0.2132117551
0.253050624
0.3555824432
0.4616588097
0.4605277903
0.3762537481
0.2943019334
0.241451103
0.1991544969
0.1674077964
0.1474202072
0.1454619422
0.1696174837
0.1993105281
0.2147088296
0.2147024564
0.1995389052
0.173769979
0.1462560097
0.1211716312
0.1455745656
0.446421352
0.3833239036
0.3272383238
0.2870658241
0.2517250687
0.2228174275
0.2216091051
0.2921844549
0.4338827941
0.5046702399
0.4398421787
0.3386670213
0.2680774179
0.2429766323
0.3267195585
0.5289402962
0.6782759022
0.6594259116
0.5086210334
0.3497635473
0.2569373048
0.1910248617
0.1426660463
0.1191759066
0.127515094
0.1631085253
0.1944624011
0.2075797937
0.2053654158
0.1886168257
0.1627356169
0.1361512862
0.1146694613
0.1425963262
0.4167692457
0.3813201535
0.3318879017
0.2976669392
0.2665652595
0.2423194783
0.2667362784
0.4340282211
0.728189454
0.8681683345
0.7525542385
0.5030457985
0.3509792182
0.2980272812
0.4412728042
0.7423244441
0.8912227613
0.848694916
0.6420965158
0.4115195429
0.2718435531
0.1870520843
0.1250705882
0.1027699233
0.1236107935
0.1633233291
0.1907181966
0.1996656475
0.1942466528
0.1763024222
0.1508320715
0.1279330047
0.1155555148
0.1580840395
0.3850931608
0.3804843821
0.3489674141
0.3230468575
0.2978823765
0.2796348896
0.3397476013
0.6515866782
1.132244844
1.334285071
1.178836023
0.7857244741
0.4629854314
0.3730490459
0.5460986045
0.8610315333
0.9772589748
0.9124783767
0.6708718258
0.4086326093
0.2585917981
0.1742712956
0.1178678788
0.1085237976
0.1375086145
0.1754062331
0.1976510223
0.2010244029
0.1919305657
0.1729983829
0.149572424
0.1337640808
0.1328963434
0.2044574126
0.3799506498
0.3859554123
0.4019302161
0.3793783518
0.3554915297
0.3396008902
0.4312582432
0.905261278
1.46753368
1.694630151
1.526294234
1.038091207
0.5472321709
0.4203966805
0.5431660511
0.7867062367
0.8782742436
0.7963190689
0.5449094381
0.3161032376
0.2131334551
0.1518052954
0.1263295527
0.1416041527
0.1752870046
0.2125502414
0.2324829725
0.2297955098
0.2160871143
0.196914451
0.1764683758
0.1664073426
0.1722160537
0.2815657916
0.3864677663
0.4262237551
0.6568652555
0.523147644
0.4797810139
0.4307651429
0.5015599414
0.9982267222
1.526748364
1.72846512
1.536323478
1.004668183
0.4772626147
0.337430403
0.3850727599
0.5405196986
0.6226569411
0.5405335906
0.3434070867
0.2327963116
0.1722681153
0.1515004885
0.1661749747
0.2045179014
0.2412762657
0.280244781
0.3038690625
0.2999105986
0.2829265621
0.2626868419
0.2421373171
0.2308213809
0.2318692362
0.3769095024
0.4560292618
0.5664706297
2.038689235
0.886359352
0.7116996178
0.5989652035
0.5400777405
0.8250861507
1.245069726
1.380166713
1.167465104
0.7090661178
0.3279734646
0.1564291349
0.1684614073
0.2752818954
0.3485379632
0.3091913602
0.2392080821
0.199772443
0.1830614995
0.1956165924
0.2374866064
0.2892790899
0.3282945773
0.3696322698
0.4013159352
0.4044577732
0.3899415038
0.3659719036
0.338984473
0.3188408384
0.3074016472
0.4799907257
0.5695126882
0.7490512682
3.975929609
1.489983415
1.030288536
0.8531463772
0.6541432351
0.5647049523
0.6579963588
0.7014882713
0.6174625422
0.4390423346
0.2280239465
0.1233363158
0.1396776438
0.1936206664
0.244225226
0.2519166808
0.2477380724
0.2427851561
0.2391399828
0.2661053716
0.3279205105
0.3840272258
0.4244189691
0.4703302401
0.5112929818
0.5261640575
0.5176648317
0.4882759765
0.4468188957
0.4139502147
0.3892156359
0.5871067216
0.5093026025
0.6474334201
1.227137174
1.192583924
1.202556803
1.092622504
0.8496024746
0.5994812739
0.4500753356
0.3787966532
0.31645909
0.2269525158
0.1365326618
0.1144272396
0.1489608041
0.2004237473
0.2527916637
0.2835329151
0.3013571298
0.3180661058
0.3227537891
0.3564247574
0.4282341553
0.480090377
0.5230327549
0.5733630121
0.615656613
0.6363484508
0.6310413697
0.5984412217
0.5480524256
0.5022585189
0.4688760835
0.6941005807
0.4149672547
0.6194603916
1.027186187
1.182277997
1.264579644
1.16915217
0.9235340319
0.6471315291
0.4300017533
0.3102296852
0.2246365283
0.1541586478
0.1051247311
0.1146070089
0.1535135119
0.2125043681
0.2755815915
0.3247936551
0.3693687358
0.4191536595
0.4377467675
0.4640924238
0.5303427826
0.572182058
0.6181766882
0.6633266135
0.7025042418
0.7233402672
0.7185295772
0.6839361091
0.6287389729
0.5763718419
0.5407706565
0.7959473016
0.3328726603
0.5080090217
0.8683365446
1.06556877
1.117504353
0.9982848602
0.7639569629
0.5191118097
0.3453918766
0.2354611056
0.1659478298
0.1164447884
0.09000158825
0.1055807444
0.1442031431
0.2072800919
0.2859809934
0.3568359454
0.440228256
0.5355968902
0.5804168439
0.5812235325
0.6286921529
0.660081181
0.7015426001
0.7375968723
0.7690427858
0.7852392842
0.7787489592
0.7439401289
0.6875834467
0.6350065571
0.6028457493
0.8894255597
0.3161826906
0.3656805192
0.5175062134
0.6612310462
0.6886228377
0.6020100822
0.4776766148
0.3531666359
0.2546736823
0.1883323865
0.1417887591
0.1046820746
0.08442307491
0.09319144304
0.1291640215
0.192326781
0.2843872066
0.3777022082
0.4986433226
0.6373829616
0.7055216516
0.6902554144
0.7165042048
0.7419921528
0.7734548686
0.7978610466
0.8201218038
0.8287340372
0.8183060215
0.7834093124
0.7293619635
0.6807423118
0.6564436737
0.9743734004
0.3292567117
0.3236694099
0.3377079966
0.3598588593
0.3609933868
0.3305716674
0.2856902031
0.2394116969
0.1999760595
0.1676828477
0.1380426314
0.110016088
0.09048094019
0.08892202114
0.1185275046
0.1806890559
0.278434913
0.385035501
0.5251652462
0.6874775032
0.7669167473
0.7655261683
0.7891948503
0.8104202668
0.8350454337
0.8516107422
0.8667766929
0.8663234546
0.8487231584
0.8111477721
0.7597331185
0.7173975088
0.704305041
1.051803825
0.3705917624
0.3465685268
0.3270110888
0.307188415
0.2914312686
0.2764662602
0.2636173964
0.2364780556
0.2076936056
0.1807261181
0.1546978445
0.1285917138
0.1063481289
0.09488005657
0.1180603471
0.1808552893
0.2734668387
0.3752253331
0.5083296865
0.6704465336
0.7608774776
0.7927677014
0.8304176553
0.8604957599
0.8928981216
0.9126067047
0.9237822213
0.9137399221
0.8844407546
0.8380334583
0.7852215399
0.7483791255
0.7479929448
1.120371992
0.4242664637
0.3742770191
0.3497480982
0.3224760811
0.2994433871
0.2975602709
0.2982200638
0.2634763129
0.2323478276
0.1990330388
0.1719364184
0.1461419
0.1217335798
0.1055661592
0.1298872078
0.1965744185
0.2732591162
0.3582044
0.4746820658
0.6185893639
0.7294882222
0.7934703391
0.8481133735
0.9015114874
0.9666205778
1.004035338
1.007583134
0.9860877922
0.9394463453
0.8749971195
0.8115029953
0.774636774
0.7856450796
1.173655349
0.4965328613
0.4504455608
0.4129114404
0.3810974823
0.3483468687
0.3223827931
0.2997481499
0.2964898266
0.3030852013
0.2742734856
0.2184000466
0.1843935445
0.1571538052
0.1314581968
0.1174368049
0.1546535453
0.2295273268
0.2865640961
0.3529224588
0.4523055017
0.5885624386
0.7110792455
0.7914933571
0.8635522128
0.9612017467
1.096094267
1.162957432
1.146004612
1.099816623
1.020202181
0.9265965671
0.8407074318
0.7950989222
0.8115167415
1.200197567
0.557232133
0.5100638375
0.4800483594
0.402891207
0.3484792885
0.3139040682
0.2906670519
0.274960844
0.2754611094
0.2826182289
0.2288397435
0.1895265098
0.161728069
0.1360698232
0.1321755074
0.1930402379
0.2784112054
0.3152714344
0.3538740159
0.4346716918
0.5700433181
0.6972404044
0.7896039996
0.8936528112
1.081706906
1.340095631
1.449875189
1.43600491
1.333401227
1.149660919
0.9893973569
0.8687486647
0.8053445538
0.8176402479
1.188719201
0.6652471949
0.5532815097
0.4723613106
0.4277440063
0.3632394012
0.316209095
0.284845586
0.2624102915
0.2464825313
0.2343655655
0.2126186376
0.1903688968
0.1673295799
0.1416834989
0.1551593666
0.2457425038
0.3420384662
0.3613897707
0.3655540715
0.4169998823
0.537753814
0.6756011415
0.7876550975
0.9519899945
1.30367901
1.745390519
1.945892884
2.039568836
1.883682502
1.444984824
1.078488194
0.8808920008
0.7934222967
0.7953371772
1.135044539
0.619007859
0.5393475412
0.4792092424
0.4245463626
0.3706750633
0.323043982
0.2899330013
0.2641185293
0.2433803432
0.2267203161
0.2100421466
0.1911358088
0.166675865
0.1485719392
0.1882874964
0.3062013602
0.4087375263
0.4155662095
0.3926468407
0.4068889003
0.5116184541
0.6644426
0.7921966071
1.02304627
1.578329552
2.210457966
2.506833431
2.730396455
2.650185406
2.039074569
1.337054736
0.9259709723
0.769414648
0.7471830783
1.04465275
0.4553266395
0.4304912308
0.4106892396
0.3554914264
0.3102951754
0.2807843215
0.2592817351
0.2415045591
0.225731348
0.210156839
0.1929458244
0.1714995801
0.159384041
0.2250565061
0.3590854771
0.4660443714
0.4682711721
0.4406399489
0.4290123887
0.5449900178
0.7307624112
0.832577952
1.026777649
1.620023804
2.31342586
2.698485833
2.915688669
2.774771143
2.169232474
1.437244667
0.9498944693
0.7382499697
0.6907749895
0.9298835959
0.3951696083
0.3764778431
0.3614270182
0.3367611808
0.3050657274
0.2789897597
0.2576775023
0.2394033493
0.2233960945
0.2088672953
0.193953316
0.1777695645
1.144455576
1.759711802
2.371451279
2.505207204
2.023298407
1.32655669
0.8800987995
0.660677647
0.572860631
0.5627114875
0.7618298402
0.3757820639
0.3395572162
0.303997551
0.2744122193
0.2520691885
0.2339400439
0.2106330426
0.192988731
0.1922023024
0.1935582835
0.1948253961
0.1990207595
0.214224662
0.2487020135
0.2977577012
0.3155697785
0.2924571051
0.2483630122
0.2076779418
0.1831334915
0.1743306051
0.1749760744
0.178975221
0.1851625759
0.191193627
0.1915358935
0.1831818047
0.1679313868
0.1500896345
0.1332561727
0.1184557914
0.1050075745
0.09265694653
0.08236394376
0.07510069675
0.06982947308
0.06391374481
0.0561028257
0.04598793526
0.0357905168
0.243531945
0.2003254105
0.1718904755
0.1545951841
0.1481150587
0.1576255036
0.1893220897
0.235237038
0.2722778265
0.2835179196
0.2668335774
0.2314969409
0.1940906775
0.1668440811
0.1530054467
0.1503145449
0.155647624
0.1655440631
0.1740715752
0.1761204975
0.1697637303
0.1567723702
0.1414466326
0.1282432856
0.1192037985
0.1134162726
0.1086095071
0.1031118095
0.09625304417
0.08757486478
0.0765080194
0.06447173386
0.05454322501
0.05944384399
0.3425541823
0.2691404845
0.2126850038
0.1736482299
0.1544558346
0.1642665411
0.2063509388
0.2600062418
0.2983141408
0.3107286964
0.296342027
0.2611843979
0.2201885321
0.187397531
0.169561
0.1676721013
0.1785948809
0.1946689123
0.2071824368
0.2109319681
0.2042792339
0.1894079593
0.1716939298
0.1574393854
0.1503859347
0.149362646
0.1495442139
0.1463633665
0.137752719
0.1239732446
0.106459221
0.08862604402
0.07419069692
0.08989451136
0.4246038451
0.3304526554
0.2564742427
0.2014054378
0.1686443972
0.1693393772
0.2069467053
0.2566915417
0.2913201707
0.3038839482
0.2942937042
0.2651987995
0.2283832264
0.197185615
0.1800578357
0.180923047
0.1959903929
0.2149670787
0.2291157516
0.2340315826
0.2280887715
0.2129349355
0.1940828144
0.1792001771
0.173879938
0.1774062554
0.1830737133
0.1837122467
0.1753609058
0.1581116687
0.1351739413
0.1117640995
0.09244483605
0.1157413719
0.4747072338
0.3713369802
0.2896932179
0.2272028871
0.1855145616
0.1736681966
0.1970962959
0.2360071675
0.2649185469
0.2769956319
0.2722580461
0.2522485697
0.2247773183
0.2004052018
0.1875951095
0.191810998
0.2082323666
0.2263098873
0.2392058717
0.2442871331
0.2399919854
0.2265726527
0.2082448364
0.1933577132
0.1891487446
0.1957523676
0.2054705913
0.2094944273
0.2024515967
0.1836845913
0.1571071161
0.1293306262
0.106419309
0.1356519935
0.4888857609
0.3870057801
0.305141995
0.2421705331
0.1976910519
0.1762622846
0.1835048317
0.2087887793
0.2322621551
0.2444253354
0.243929005
0.2324048593
0.215059179
0.1993265382
0.1929068478
0.2014608271
0.2179199455
0.2320185817
0.2407336036
0.2439071867
0.2405159364
0.2295010643
0.2130362203
0.1989670599
0.1955693527
0.2039989197
0.2161137592
0.2222541281
0.216745778
0.1984376985
0.1706604385
0.1406104548
0.1158903875
0.1498540429
0.478104341
0.3811186353
0.3048035457
0.2458352898
0.203029727
0.1770022163
0.1719351969
0.1845830526
0.2031700373
0.2155173344
0.218348847
0.2133065714
0.2040745975
0.1963834747
0.1984398125
0.2157094496
0.2341563497
0.2416836501
0.2411271223
0.2378315794
0.2324568845
0.2226684791
0.208265075
0.1956140443
0.1933108341
0.2035969389
0.2177918428
0.2255754751
0.2216558095
0.2049154045
0.1777970691
0.1471279969
0.1217928279
0.1588903241
0.4552872261
0.3638287643
0.29412767
0.2415487479
0.2030491578
0.1766472742
0.1657439413
0.1717558443
0.1890693575
0.2000604855
0.2023034875
0.1996503712
0.1952457264
0.1948957219
0.2107525235