/*--------------------------------*- C++ -*----------------------------------*\
  =========                 |
  \\      /  F ield         | OpenFOAM: The Open Source CFD Toolbox
   \\    /   O peration     | Website:  https://openfoam.org
    \\  /    A nd           | Version:  8
     \\/     M anipulation  |
\*---------------------------------------------------------------------------*/
FoamFile
{
    version     2.0;
    format      ascii;
    class       volScalarField;
    location    "1.8";
    object      k;
}
// * * * * * * * * * * * * * * * * * * * * * * * * * * * * * * * * * * * * * //

dimensions      [0 2 -2 0 0 0 0];

internalField   nonuniform List<scalar> 
67193
(
0.02131283677
0.0173332085
0.01446251262
0.01267762484
0.0117803338
0.01175487442
0.01295487812
0.01563630878
0.01988842167
0.02095004676
0.02035688823
0.01877065931
0.01659087149
0.01431606797
0.01255244007
0.01168440091
0.01168500729
0.01263165382
0.01392072849
0.01467206418
0.01464273144
0.0139628807
0.01289464899
0.01178585619
0.010954707
0.01055016871
0.01048085975
0.01046970311
0.01022976116
0.009610602991
0.008627243535
0.007456631455
0.006339864275
0.005448620898
0.03234264461
0.02703995685
0.0221444591
0.01802110685
0.01520061095
0.01462076061
0.0168647016
0.02086664641
0.02487888563
0.0261150646
0.02533965383
0.02332874338
0.02068257546
0.01791581108
0.01569851204
0.01471341279
0.01528884295
0.017184222
0.01903853357
0.01994328518
0.01980091642
0.0188083474
0.01728174897
0.01567749372
0.01452543376
0.01414888291
0.0143656166
0.014660466
0.01461028952
0.01402573963
0.01287355788
0.01124477853
0.009451623523
0.008068303734
0.04130277505
0.03552466656
0.02986680449
0.02435434988
0.01946043368
0.0170410925
0.01895199253
0.02358631212
0.02797567138
0.02949973253
0.02856315926
0.02622070493
0.02331726035
0.02030973219
0.01783462426
0.0169188125
0.01838965772
0.02116789576
0.02335099878
0.0242851758
0.02402072988
0.02279446815
0.02095672848
0.01896731812
0.01748701585
0.01707939224
0.01752992199
0.01804924685
0.01807897115
0.01747989056
0.01630635338
0.01463284196
0.01257957686
0.01073178496
0.04781525786
0.04153242436
0.03562985944
0.02986953109
0.024142346
0.01973881177
0.01958754514
0.02364687913
0.02836732733
0.0303628595
0.0297151722
0.02723312516
0.02431544266
0.02139732608
0.01903850124
0.01852680808
0.02106860093
0.02446558885
0.02686711897
0.02784417813
0.02745214004
0.02593122493
0.02379098377
0.02146851643
0.01967780952
0.01922996999
0.01995559048
0.02074917252
0.02081812195
0.0200750073
0.01874767016
0.01698460262
0.01480459238
0.01256229779
0.05216739253
0.04537053201
0.03918822891
0.03348280568
0.02782449626
0.02254388308
0.01999889992
0.02205154908
0.02620234328
0.0286394588
0.02849865234
0.02655168512
0.024109379
0.02169545637
0.01978179053
0.01983699838
0.02336537425
0.02710427988
0.02940828354
0.0303402839
0.02998234861
0.0284407697
0.02594148986
0.02327785841
0.02119872263
0.02069202657
0.02171733166
0.02289561239
0.02301968075
0.02201971983
0.0204364044
0.0184830262
0.01615074304
0.01366680505
0.05382093475
0.04712815906
0.04087161372
0.03522241929
0.0298710648
0.02464090605
0.0207283913
0.020288894
0.02288241664
0.02517034447
0.02558517536
0.0246535396
0.02325707955
0.02170672408
0.02038443305
0.02091734954
0.02536241459
0.02870402147
0.03051466811
0.03132519579
0.03106230761
0.02967454102
0.0272352933
0.02431957411
0.02201614963
0.02144009621
0.0227495844
0.02427953934
0.02447435471
0.02337943905
0.02151056057
0.01937252628
0.01689263303
0.01425143923
0.05325852245
0.04695078719
0.04102162183
0.0354830505
0.03045608183
0.02561975596
0.0214475637
0.01936863206
0.02013620594
0.02196863031
0.0226624087
0.02270113447
0.02244797541
0.02178142975
0.02098049342
0.02187363949
0.0278565768
0.03015745383
0.03077808958
0.03102437633
0.03069736264
0.02947138872
0.02722766837
0.02439520931
0.02203050185
0.02143399458
0.02292873167
0.02474187976
0.0251193725
0.02408809948
0.02210152247
0.01985546026
0.0172663536
0.01451815921
0.05137969442
0.04544596355
0.03993855938
0.03467320131
0.0300015023
0.0256454912
0.02182819648
0.01941976208
0.01959372374
0.02194147247
0.02219265928
0.02200288328
0.02208521072
0.02190525864
0.02161595751
0.02330345602
0.03238899177
0.03370287079
0.0320943293
0.03054492928
0.02935762885
0.02795724067
0.0258769327
0.02337942849
0.02113795833
0.02069436252
0.02247892789
0.0246242379
0.02529764658
0.02441161263
0.0223988817
0.02007026543
0.01739692291
0.01458735412
0.04918625012
0.0432348748
0.0380469578
0.03318644074
0.02895079958
0.02513639142
0.0219977906
0.02058180671
0.02319051437
0.02872053414
0.02773525672
0.02461103934
0.0227176657
0.02205670226
0.02274284455
0.02686507316
0.03999201234
0.04095290169
0.03702295559
0.03243680974
0.02878143547
0.02606532271
0.02369869027
0.02130655606
0.01933668407
0.01946334714
0.02191979098
0.02442303589
0.02531236287
0.02447926114
0.02242604354
0.01999027539
0.01725748222
0.01447226816
0.04667730291
0.04065219125
0.03567013044
0.03143665129
0.02782124712
0.02460692991
0.02244946484
0.02389892074
0.03319536183
0.04298998004
0.04086211695
0.03319698005
0.02616075472
0.02296171866
0.02574596906
0.03492481422
0.05037877348
0.05088969402
0.04549918173
0.03837325718
0.0313786119
0.02560577837
0.02142119947
0.01846612822
0.01699155427
0.0183889421
0.02170332084
0.02429065117
0.02508165871
0.02408637091
0.0219275165
0.01943454263
0.01672445513
0.01415479224
0.04233190569
0.03768836544
0.03322567418
0.03016713218
0.02745794753
0.02473018358
0.02394206618
0.03131493211
0.04998890671
0.06106176448
0.05810006806
0.04760380271
0.03464726213
0.02627832272
0.03228774517
0.04785208306
0.06247756692
0.06167349869
0.05474253651
0.0461577523
0.03679883401
0.027464028
0.02001298103
0.01568454447
0.01520797784
0.01820651275
0.02171061678
0.02386135218
0.02425355125
0.02298984511
0.02082703218
0.01837874423
0.01586319965
0.01390743984
0.04037144181
0.03582493763
0.03175251693
0.030715694
0.02916676671
0.02638929726
0.0272630584
0.04398440036
0.07018526393
0.07986093017
0.07524864839
0.06364542435
0.04746930148
0.03317774353
0.04157420669
0.06026763739
0.07314417634
0.0709434955
0.06213393569
0.05216591219
0.04171180332
0.03005626103
0.01972212907
0.01427642789
0.0152205633
0.01902061472
0.02182535021
0.02321713202
0.0231367434
0.02176240253
0.01969021193
0.01743940229
0.01537937905
0.01467822412
0.03987549381
0.03487255681
0.03178906256
0.03454808947
0.03432679525
0.03058046164
0.03254710168
0.0593046987
0.08974677826
0.09854108349
0.09195087177
0.07792070615
0.06100606369
0.04268496489
0.04739669409
0.06667756475
0.07789371043
0.07475476572
0.06445955543
0.05331959937
0.04197428033
0.02951437202
0.01903131453
0.01500802254
0.01752335282
0.02148184584
0.02335135413
0.02382450859
0.02340385699
0.02202374024
0.0200677617
0.0180826123
0.01659278878
0.01738523188
0.03694603856
0.03350227347
0.03446764638
0.04273439804
0.04353699702
0.03817342013
0.03854121986
0.06927078218
0.1028286106
0.1124630939
0.1050531359
0.08846649565
0.07110096132
0.05161596389
0.04645415405
0.06219219186
0.07345391214
0.06978496261
0.05856804064
0.04688176919
0.03495031265
0.02421246911
0.01804452144
0.01859600491
0.02262010768
0.02666757664
0.02803090718
0.02778225437
0.02707423576
0.02562426233
0.02362686876
0.02163534452
0.02025250189
0.02157083947
0.03521474295
0.03449769595
0.04318082838
0.05482716158
0.05586588522
0.04941591653
0.04360223534
0.06374301683
0.100798443
0.113245067
0.1067211712
0.08927166105
0.07093914978
0.0519896583
0.03817725906
0.04539351015
0.05970896862
0.05496470549
0.04334824197
0.03260365329
0.02455568382
0.02021086934
0.02074791382
0.02528476287
0.02987841662
0.03399709228
0.03556115054
0.03522114007
0.03425097325
0.03251486148
0.03017272564
0.02771211205
0.02566254343
0.0262016652
0.03453917039
0.03982605061
0.06088682327
0.06915789399
0.06963964167
0.06326724932
0.05240699651
0.04621951368
0.07027655767
0.08792496348
0.08509683654
0.06981679485
0.04675705338
0.02369730479
0.01769823363
0.02460340565
0.03918507911
0.03222418952
0.02645005475
0.0236571701
0.02284774376
0.02308420552
0.0270605809
0.03307252967
0.03773659741
0.04190900458
0.04402373472
0.04404706814
0.04293208768
0.04075670333
0.03781162115
0.0345856807
0.03148209435
0.03067835697
0.03918746154
0.05172022148
0.08518600755
0.08412034035
0.08376464266
0.07741488989
0.0663263532
0.05354520691
0.04717792162
0.05371149776
0.05738726055
0.0488073662
0.03054919603
0.01692553163
0.01714226536
0.02127902422
0.02535111321
0.02597544679
0.02618577651
0.02661631893
0.02759035898
0.02840103772
0.03421622469
0.04046123593
0.04526990952
0.04958511816
0.05228578553
0.05277956641
0.05161947554
0.04891522676
0.0450654259
0.04089173469
0.03670601004
0.0346116069
0.04198384134
0.06025520402
0.08020467417
0.09313258393
0.09529423527
0.08949163207
0.07811221572
0.06452897455
0.0508642729
0.04202862112
0.03719669893
0.02859107815
0.01800039203
0.01485277765
0.0192786267
0.02326183288
0.02653516783
0.02939813747
0.03039053937
0.03217616947
0.03430190115
0.03449629734
0.040981806
0.04716342408
0.0523061421
0.05690334122
0.05983169767
0.06050895044
0.05928228217
0.05612615397
0.05136615551
0.04609441024
0.04092241314
0.03778065205
0.03969786996
0.05731665462
0.08095255937
0.09582615219
0.09953688156
0.09442313062
0.08322367401
0.06979314812
0.05622768794
0.04268022308
0.03072319323
0.02072143651
0.01395410154
0.01548609707
0.02067511917
0.02519296708
0.02926954395
0.0326631954
0.03504949138
0.03976116164
0.04300278313
0.04098662896
0.04692677051
0.05325165364
0.05886968725
0.06337533527
0.06600627982
0.06657982535
0.06520019686
0.06167990233
0.05621217421
0.0499950307
0.04407826182
0.04017344224
0.02423982703
0.02821534425
0.05057058754
0.07494214413
0.08280188796
0.07832156297
0.06643790206
0.05201987385
0.03866518444
0.02804715587
0.02039932549
0.01486461536
0.01195825006
0.01490808829
0.02041505781
0.0255526234
0.03039393186
0.03472429306
0.04040983489
0.04910881333
0.0531968151
0.04748306581
0.05236917731
0.05904410213
0.06457103758
0.06858875123
0.07056587419
0.07079211283
0.06915783946
0.065343628
0.05940216886
0.05257928654
0.0462878457
0.04190888452
0.02822345656
0.02781264835
0.02945882303
0.04531567193
0.05543139388
0.05445992762
0.04683803348
0.03669559232
0.02769118961
0.02134007666
0.01685154644
0.01327514078
0.01128351243
0.01296261504
0.01872572572
0.02470884507
0.03042389682
0.03664285713
0.04589935709
0.05737143043
0.06176528304
0.05413415325
0.05785158249
0.06451692597
0.06923645004
0.07243424943
0.07365701339
0.07333149877
0.07132479356
0.06725742551
0.06109093941
0.05405604191
0.04779618118
0.04316377689
0.03492551805
0.03465358725
0.03265158298
0.03196479477
0.03362225219
0.03245349229
0.02846052224
0.02479657093
0.02165478924
0.01888323226
0.01624639275
0.01366113459
0.01168574988
0.01174079618
0.01654575724
0.02350357495
0.03010778998
0.03807939144
0.04879291401
0.06061359724
0.06519280141
0.06037616791
0.06391360515
0.06930667501
0.07284573097
0.07515047596
0.07584903727
0.07471342271
0.07208027674
0.06771761794
0.0615798881
0.05476443046
0.04891420441
0.04411358055
0.04339560211
0.04425189439
0.04134904432
0.03650338762
0.03257300314
0.02972394199
0.02861182133
0.02619750046
0.0235097146
0.02079011963
0.01813396174
0.01552715306
0.01317248551
0.0119295403
0.01528594373
0.02265075633
0.02941652083
0.03751856763
0.04700499432
0.05730204308
0.06330514373
0.06483004891
0.06912314488
0.07306032172
0.07553320404
0.07749915189
0.0785912154
0.07618378685
0.07218016312
0.06714068228
0.061185495
0.05505226965
0.04991420594
0.04488033015
0.04883023294
0.05112297571
0.04848876756
0.04338156202
0.03767672045
0.0336272996
0.03620055262
0.03204307374
0.02734892347
0.02335538069
0.02009688122
0.01722912084
0.0146044144
0.01284597491
0.01573834451
0.02294253445
0.02900208829
0.03630231408
0.0444707212
0.05314742406
0.06160489065
0.06798929673
0.07255513603
0.07566482791
0.07787953671
0.08153981879
0.08521834625
0.0809179092
0.0737329997
0.06655553887
0.06035363917
0.05522729438
0.05094963844
0.04550949891
0.04360025631
0.04935710728
0.05146487743
0.04948902786
0.04536792502
0.04086129186
0.03760707271
0.03613987029
0.03247642632
0.03182174483
0.02586388351
0.02153944144
0.01826831353
0.0154733258
0.01394868319
0.01794170667
0.02511813308
0.03027421032
0.037290134
0.0457740388
0.05494551178
0.06366680512
0.07007052048
0.07433280589
0.0777354432
0.08183728162
0.09178347357
0.1006368747
0.09427833053
0.08153899401
0.06892146507
0.06027211525
0.05564672685
0.05202608311
0.04597595297
0.05299546928
0.04990879993
0.05270697041
0.05108258191
0.0468292328
0.0415702315
0.03635929546
0.03217573042
0.02884590028
0.03177906379
0.0268789932
0.02200760392
0.01855199504
0.01580688617
0.0153370477
0.02161038052
0.02866665704
0.03164319824
0.03686688362
0.04547782272
0.05536032557
0.06419809423
0.07040405409
0.07515198027
0.08105029312
0.09196580744
0.1136989272
0.126968912
0.1189515461
0.100387842
0.07938815263
0.06382046013
0.05675868089
0.05301148485
0.04619083693
0.04964261763
0.05339295885
0.05586710083
0.05295790068
0.04666131273
0.03993047861
0.03458109646
0.03078773287
0.02796510007
0.02569702851
0.02333825242
0.02074336807
0.01816520564
0.0159015309
0.01745090735
0.02660101214
0.03367712483
0.03400752463
0.03529259842
0.04264199979
0.05265794914
0.06190955261
0.06880283735
0.07607613505
0.0892682727
0.1139938052
0.1456947152
0.1606024115
0.1513691188
0.128181512
0.09986732643
0.07450601901
0.06004831672
0.05393068008
0.04601781993
0.04637096052
0.05116638347
0.05696929143
0.05437745617
0.04718318975
0.03924146135
0.033727236
0.03020016058
0.02769688547
0.02549276242
0.02329629129
0.02087101676
0.01826222185
0.01622796566
0.02069155871
0.03236740093
0.03971092896
0.03840846287
0.03451996055
0.0380769081
0.04769826762
0.05740284628
0.06618398622
0.07976766763
0.106389037
0.1443509468
0.1764484777
0.1915294649
0.1844317491
0.1590347756
0.1258537225
0.09255914001
0.06730672817
0.05488340902
0.04540826069
0.04039013011
0.04220452234
0.04251460682
0.03777947966
0.03344465479
0.03121339296
0.02945388153
0.02765047228
0.025643818
0.02344765215
0.02106180959
0.01850725612
0.01679542035
0.0246639172
0.03708865069
0.04541893387
0.04433888807
0.03705529364
0.03471680758
0.04387962255
0.05392589549
0.064582464
0.08489609138
0.1219290862
0.1602021302
0.188263636
0.1940852351
0.1825566604
0.1544122819
0.1171934831
0.0809133123
0.05821966473
0.04907940099
0.04146709278
0.03403836552
0.03758595495
0.0403484292
0.03901314521
0.03597862788
0.03316024621
0.03067460137
0.02834073657
0.02605676153
0.02378357208
0.02143281083
0.0189092603
0.07954715762
0.1192839831
0.1652137563
0.1680797283
0.1490300655
0.118031016
0.08468856681
0.05930394829
0.04769199201
0.04343483643
0.03814666557
0.04855293556
0.04506552004
0.03929496632
0.03453148184
0.03117771369
0.02850763621
0.01917649072
0.01669530974
0.01558435887
0.01506216236
0.01478992599
0.01483788459
0.01568886603
0.01794290125
0.02163536545
0.0231074817
0.02220221496
0.01990631632
0.01736038492
0.01538497303
0.01430890673
0.0140062858
0.01415863091
0.01477287725
0.0155862591
0.01601099304
0.01575654579
0.01492576885
0.01381945966
0.01274855437
0.01188482435
0.01123155541
0.01071032742
0.01023359196
0.009729125803
0.009125059589
0.008366782734
0.007497338925
0.00653883214
0.005407779496
0.03471530133
0.02881269874
0.02478067194
0.02225152962
0.02103153639
0.0216640995
0.02518761354
0.03123797477
0.03671485762
0.03872632831
0.03708294484
0.03276912706
0.02782922366
0.0241641781
0.02235924761
0.02214770218
0.02321758086
0.02515724832
0.02689252496
0.02748913463
0.02663977037
0.02465634751
0.0222709382
0.02025647966
0.01902147401
0.01846786759
0.01817026616
0.01770805148
0.0168500906
0.01551336128
0.01371651858
0.01174685256
0.00980613137
0.007759986315
0.05052228419
0.04065408821
0.03254284139
0.02667866215
0.02332067629
0.02356827414
0.02863762348
0.03654734413
0.04262003626
0.04495475816
0.04390967448
0.03980531767
0.03411001274
0.02926250007
0.02661807469
0.02652420663
0.02887453464
0.03235784416
0.0350327931
0.03596246434
0.03496547578
0.03238758712
0.0290882879
0.02629361204
0.02489767234
0.02487987676
0.02535506967
0.02533451854
0.02429091893
0.02214138863
0.01909951547
0.01584746242
0.01287435094
0.0103191714
0.06364361031
0.05199713838
0.04120421765
0.03233587873
0.02645864538
0.02494448272
0.02914972503
0.03680806689
0.0428429679
0.04559083613
0.0452032225
0.04225928359
0.03730009845
0.0325113207
0.02964168455
0.02990907144
0.03333106831
0.03762597334
0.04048141952
0.04148802993
0.04068766773
0.03827147907
0.03470114908
0.03135378606
0.02975565672
0.03024189307
0.03154683839
0.03209246074
0.03113605832
0.02857299049
0.02456200428
0.01996348456
0.01566507924
0.01217329291
0.07139343375
0.059775535
0.04864954408
0.03839125548
0.03057947237
0.02689711634
0.02869208351
0.03460870191
0.04038565036
0.04352510735
0.04393883294
0.04214265703
0.03862218586
0.03483234042
0.03232548702
0.03302422326
0.03688531229
0.04093902737
0.04366305462
0.04472257143
0.04405307393
0.04181022743
0.03860327498
0.03513933847
0.03334137853
0.03411014131
0.03595128652
0.03676430156
0.03589340107
0.03332226058
0.02891239469
0.02339393732
0.01789500615
0.01340926794
0.07497102379
0.06332960936
0.05285689172
0.04293902248
0.03445674078
0.02920932168
0.02843100184
0.03168984635
0.03629255045
0.03963918646
0.04097481271
0.04054665383
0.03877262726
0.03644111059
0.03461005407
0.03564159779
0.03941265954
0.04296872229
0.04523707599
0.04609209101
0.04549115995
0.04347194335
0.04036559491
0.03706233103
0.03513240022
0.03604421328
0.03825429051
0.03931793859
0.03859927497
0.03604018845
0.03168512573
0.0257629575
0.01947292156
0.01415882398
0.07543886725
0.0640633338
0.05417642739
0.04533051434
0.03723047957
0.03138200107
0.02881168842
0.02948308566
0.0321849802
0.0350648691
0.03709115377
0.03814249017
0.03814595333
0.03727113686
0.03618169376
0.03754515332
0.04120925822
0.04408231707
0.04555841199
0.04585563403
0.04502790981
0.04304645535
0.04007168136
0.03679939093
0.03480582878
0.03594819305
0.03877534241
0.04040534771
0.04000126723
0.03753528225
0.03330137271
0.02723396957
0.02047436383
0.01455305655
0.07404089581
0.06300610101
0.05384304241
0.04601122548
0.03875167432
0.03306560241
0.02971698813
0.02873987949
0.02985331582
0.03197829401
0.03400782584
0.03585002168
0.03698076634
0.03713333952
0.0368371725
0.03903249437
0.04318906834
0.04530330808
0.04548615978
0.04462882896
0.04302294637
0.040657168
0.03763107731
0.03421037882
0.03232073622
0.03401678481
0.03786646649
0.04036658575
0.04043162893
0.03815403445
0.03403159817
0.02793083509
0.02090432204
0.01465701184
0.07182159637
0.06119101859
0.05275051902
0.04570101602
0.03935869653
0.03422319061
0.03090561021
0.02958478439
0.03061852149
0.03258845977
0.0337392631
0.03479921603
0.0356830843
0.03613176794
0.03698570012
0.04148405241
0.047147671
0.04843326118
0.04620599896
0.04305762347
0.03982800494
0.0365090391
0.03298942403
0.02956539111
0.0281569263
0.03096611144
0.03621349416
0.03965465695
0.04010530535
0.03797548123
0.03383705632
0.02772311328
0.02061722082
0.0144679238
0.06875327314
0.05933492219
0.05154678834
0.04506044828
0.0395393703
0.03504296862
0.0323062694
0.03218155042
0.03550128232
0.0382669647
0.03784355505
0.03622901806
0.03502768275
0.03487092404
0.03792560109
0.04770249092
0.05622403853
0.05627367759
0.04967815394
0.0422825274
0.03624945835
0.03125602053
0.02702269468
0.02384066998
0.02352424841
0.02803457186
0.03457230095
0.03850311641
0.03900893319
0.0368014635
0.03248206305
0.02632986437
0.01945928421
0.01404362209
0.06541036502
0.05777577148
0.05055817798
0.04461003989
0.03983293354
0.03591208603
0.03421162333
0.03749717356
0.04613485352
0.05094642349
0.04778943815
0.04126407096
0.03604839626
0.03436141304
0.04155415699
0.05967575027
0.07125267787
0.06962949832
0.05746519234
0.04379599625
0.03378338624
0.02666351429
0.0215142145
0.01876248189
0.02013072278
0.02622279629
0.03301373294
0.03670734945
0.03692270375
0.03436698601
0.02968484875
0.02371590507
0.01768066977
0.01385396541
0.06156155115
0.05697284761
0.05018458713
0.04499003604
0.04092220172
0.03743515961
0.03730122583
0.04732789315
0.06588520348
0.07428227706
0.06705545763
0.05140824002
0.0394793028
0.03555327977
0.0486585894
0.07438409118
0.08609432336
0.08255438763
0.06573651358
0.04608994265
0.03212056157
0.02358182285
0.01796657724
0.01598905801
0.01903504468
0.02544986298
0.03121484931
0.03411950119
0.03383865242
0.03075320234
0.02589561967
0.02072964274
0.0164195952
0.01484496415
0.05777166265
0.05610777419
0.05121321356
0.04705346491
0.04362898765
0.04033322118
0.04224277636
0.06293338657
0.09238865901
0.1038338863
0.09332784019
0.06788408443
0.0453153396
0.03830870043
0.0551270988
0.08182719659
0.0914612082
0.08615960059
0.06635213976
0.04391596798
0.02911320396
0.02123701474
0.01661196787
0.01617170966
0.02013730594
0.02580894776
0.03006433087
0.03184570542
0.03091465096
0.02751071199
0.02307983304
0.01938948894
0.01695670883
0.01762657402
0.05652579546
0.05507099158
0.05515113666
0.05178745274
0.04886107015
0.04531513557
0.04865633322
0.07945599578
0.1134428604
0.1255969372
0.1135100178
0.0816309045
0.05016571082
0.0397787539
0.05251312475
0.07485962226
0.08305709244
0.076455354
0.05569804767
0.03564924861
0.02477879382
0.0194721635
0.01744320144
0.01922793681
0.02361577127
0.02872376443
0.03192810267
0.0326594782
0.03113939208
0.02777152148
0.02398949364
0.02134489235
0.01986215971
0.02181850975
0.05661791529
0.05764526051
0.07138844929
0.06199782208
0.05805467299
0.05338891408
0.05449499591
0.08522693038
0.116559111
0.1266787467
0.1123829269
0.07744040399
0.04425026808
0.0330189507
0.0387054391
0.05546606601
0.06344203346
0.05687145295
0.04034683956
0.02891830847
0.02260553622
0.02024731159
0.02119866252
0.02503088871
0.03008232774
0.03553583023
0.03886147355
0.03936287804
0.03756285038
0.03416592339
0.0303112003
0.02720492975
0.02490214457
0.02649824613
0.06269614967
0.06914733662
0.1352696672
0.08460092822
0.07408650826
0.06638112187
0.0601816628
0.07508311535
0.09889357796
0.1048395641
0.08911874965
0.05816499893
0.03185401733
0.02043066876
0.0228746544
0.03520020231
0.04354039461
0.04010838028
0.03360136024
0.02917113003
0.02558415819
0.02483211902
0.02760990137
0.03323322458
0.03969615383
0.04631565642
0.05072723718
0.05196572494
0.0503223356
0.04654658552
0.04159611277
0.03641817563
0.03160940507
0.03112902377
0.07244293887
0.08087617565
0.2018484507
0.1153498537
0.09489530857
0.08405054641
0.06977956937
0.06085034751
0.06287983499
0.06280937787
0.054132101
0.03951466619
0.02454267133
0.01720441377
0.02036142062
0.02978698746
0.0372014699
0.03885843181
0.03846711254
0.03674308776
0.0330034343
0.03190083311
0.03604002249
0.04363706203
0.05189016381
0.05948721428
0.06474487885
0.06674000291
0.06546692833
0.06131369966
0.05512503868
0.04738359997
0.03935294387
0.03559954985
0.06509666178
0.07492271046
0.107326802
0.1068300759
0.1076863406
0.1003996584
0.0830865798
0.06394986797
0.04975263198
0.04089494545
0.03391410499
0.02611884254
0.01843034619
0.01642314957
0.02146468523
0.03162667159
0.04039446416
0.0452634167
0.0473297594
0.04752182397
0.04382058677
0.04156729
0.04653591266
0.05592299487
0.0650363166
0.07229799054
0.07762257081
0.08003568976
0.07907628181
0.07463591702
0.06750823379
0.05804400754
0.04733624857
0.03979902698
0.05422322029
0.07240448029
0.09806236994
0.1077117972
0.1126619956
0.1058301777
0.08789133188
0.06671254021
0.04876242861
0.03614403479
0.02726686192
0.02035609389
0.01538448691
0.01607330907
0.0217132734
0.03262040594
0.043004911
0.05033555288
0.05609350055
0.06014235788
0.05844218953
0.05460132062
0.05915296698
0.06908317032
0.07716549872
0.08340276256
0.08811161878
0.09040290278
0.08954946628
0.08506260994
0.07739030134
0.06710826706
0.05481300272
0.0435987011
0.0484546942
0.06447105847
0.08970672763
0.1018132634
0.1043600772
0.09524705434
0.07715726229
0.05740941199
0.04147416254
0.03047861616
0.02284716592
0.0170980819
0.01385460185
0.01511131668
0.02034328995
0.0311902314
0.04304368211
0.05317269854
0.06379173006
0.07308501331
0.07506532716
0.0705937282
0.0734992519
0.08163077172
0.08774812023
0.092371284
0.09595417357
0.09766929558
0.09672319522
0.09239043587
0.08476916489
0.07438545908
0.06149264438
0.04694482216
0.04963358019
0.05392796885
0.06588471807
0.07640101325
0.07715658895
0.06852011302
0.05560510747
0.04309477654
0.03321220373
0.02607811477
0.0205736825
0.0160359531
0.01348772038
0.01409404312
0.01835072467
0.0281025021
0.04057467645
0.05328556349
0.06886275297
0.08333141701
0.08893574408
0.0863486703
0.08805148369
0.09260118658
0.09653715774
0.0993520806
0.1016592887
0.1025429387
0.1013158494
0.09718580046
0.09004132077
0.08022443849
0.06751943923
0.04988460123
0.05883324521
0.05722312939
0.05604908448
0.0545321161
0.05150235308
0.04664135448
0.04124867516
0.03558404666
0.03033012314
0.02569985859
0.02145313745
0.01760612596
0.01490974023
0.01421074361
0.01726241
0.02556688175
0.03712374529
0.05075828222
0.06943588134
0.08749491875
0.09577624018
0.09651666774
0.09872397298
0.1012346327
0.1035514874
0.1049890131
0.1062392598
0.1062236116
0.1044848096
0.1003815321
0.09383861597
0.08509779435
0.07316014887
0.05248999196
0.06885354828
0.06546176922
0.06203496631
0.05748363406
0.05203490692
0.04810189325
0.04646634268
0.04128615842
0.03523673703
0.0299194906
0.02539449311
0.02125620156
0.01772766269
0.0155041882
0.01758076355
0.02488995993
0.03430647228
0.04641696241
0.06507999826
0.085050755
0.09597236065
0.1006246496
0.1044170241
0.1070572091
0.1093060774
0.1103739539
0.11090551
0.1100806023
0.1075640146
0.1030349408
0.09681676055
0.08932884257
0.07848233277
0.05474339376
0.07788090948
0.07187282294
0.06830779108
0.06377010092
0.05941649801
0.05758875626
0.05791559738
0.05128040538
0.0437437721
0.03558139844
0.02972704172
0.02487575065
0.02040266144
0.01717452196
0.01927916565
0.02648891253
0.03336113697
0.04282736237
0.05929281833
0.07982554117
0.0936633457
0.1014619984
0.1069330936
0.1112120728
0.1153921501
0.1171248718
0.1167022177
0.1151377543
0.1116391908
0.1060715173
0.09945897275
0.09285163905
0.08313726628
0.0564616213
0.08755060617
0.08308852677
0.07868899204
0.07417238479
0.06913570786
0.06474853326
0.0608511537
0.05881121688
0.05730384778
0.0531459459
0.04179266068
0.03325157654
0.02731827466
0.02207680235
0.01878960803
0.0224585052
0.03078222304
0.0357533444
0.04278455485
0.05757369858
0.07708296825
0.09221943637
0.1016849338
0.1087854237
0.1162398303
0.124562917
0.1272747504
0.1248090497
0.1218157102
0.1167079163
0.1096098427
0.1018104244
0.09507509715
0.08637737813
0.05730591844
0.09614277168
0.09226748344
0.08962340446
0.07899829425
0.07024396888
0.06400350982
0.05860527824
0.05321622745
0.05122099637
0.05335922875
0.04381785398
0.03448391618
0.02847515366
0.02289845703
0.02069059588
0.02762877058
0.03849299723
0.04226884736
0.04549103106
0.05714185911
0.07564924591
0.09120006915
0.1018708521
0.1116776016
0.1251092226
0.1398033523
0.1434393362
0.139920264
0.1335785317
0.1230448802
0.1126537139
0.1032812335
0.09584818032
0.08755244869
0.05693716407
0.1069749421
0.09731955027
0.08866619304
0.08305471372
0.07276318713
0.06437971025
0.05714189408
0.05127262136
0.046974387
0.04374473064
0.03860668776
0.0333206675
0.02941064135
0.02386019952
0.02375032916
0.03546029863
0.04972480942
0.0523861401
0.05018223686
0.05565394031
0.07219699132
0.08891958255
0.1016816573
0.1162755677
0.1393153268
0.1618675132
0.1687443256
0.1691945223
0.1594363376
0.1358969281
0.1150493052
0.1024110887
0.09428294903
0.08587625145
0.05520823551
0.09185559075
0.0918489336
0.08739914853
0.08124308509
0.07317337228
0.0644577609
0.05678044185
0.05110917066
0.04657810271
0.04235855161
0.03811606567
0.03356195992
0.0286103192
0.0246200265
0.0282581415
0.04535238872
0.06191961438
0.06383934102
0.05714106741
0.05466208474
0.06715918326
0.08568155778
0.1005771147
0.1201136274
0.1533584191
0.1831163778
0.1942839345
0.1995572162
0.1923565619
0.1613579575
0.1247722681
0.1017721268
0.0907838762
0.08184955977
0.05223654812
0.07611793544
0.0798237289
0.08035108964
0.0720354557
0.06263584457
0.05630814618
0.05175633529
0.04770123889
0.04362829131
0.03941438344
0.03494911072
0.03039974835
0.02681120209
0.03371212663
0.05484277782
0.07149760978
0.07377670099
0.06684570604
0.05707203673
0.06479199756
0.08478461893
0.09867127131
0.1160943237
0.1508378058
0.1852157439
0.2029757595
0.2101533662
0.1993734549
0.1661071172
0.1265454675
0.09978284661
0.08647653131
0.0773455662
0.04834020982
0.06686367373
0.07110799633
0.07195154185
0.06854357328
0.06295791602
0.05755538882
0.05294981207
0.0487584096
0.04469616811
0.04068001652
0.03647941685
0.03209249294
0.1202615254
0.1562443657
0.1855994771
0.1905708597
0.1636561686
0.122470718
0.09246052207
0.07818662996
0.07245725195
0.06640338128
0.04232825713
0.07376426768
0.06914356767
0.06316194876
0.05777670392
0.05323349377
0.04923710137
0.01904589104
0.01796291003
0.01791114726
0.01799396289
0.018072213
0.01833137023
0.01925480236
0.02127024427
0.0239831189
0.02493145384
0.02370043413
0.02125501331
0.01886505388
0.01734646804
0.01678469928
0.01682541616
0.01708089374
0.01747287036
0.017851015
0.01787309849
0.01735013569
0.0163735532
0.01519220275
0.01403373001
0.01297430001
0.01197288516
0.01101485249
0.01018328604
0.009575305879
0.009121579601
0.008598635922
0.007882869636
0.0069044484
0.005512735815
0.03540599252
0.03072210854
0.02806849974
0.02691684809
0.02696373488
0.02870847145
0.03305502659
0.03908675346
0.04375024454
0.04507693501
0.04288520684
0.03824410893
0.03337280168
0.03013676371
0.02893231971
0.02921332794
0.03042445708
0.03198906679
0.03306319371
0.03300331938
0.03160838251
0.02920082405
0.02649864164
0.0242223352
0.02262553088
0.02144811965
0.02028052524
0.01892871637
0.01741645987
0.01575345205
0.01387157028
0.01191404441
0.009923537293
0.007731898356
0.0514775713
0.04175825644
0.03440748742
0.03011654175
0.02891955873
0.03141197597
0.03787167656
0.04558158518
0.05096794953
0.05281215498
0.05112368513
0.04658385024
0.04110154322
0.03689726283