/*--------------------------------*- C++ -*----------------------------------*\
  =========                 |
  \\      /  F ield         | OpenFOAM: The Open Source CFD Toolbox
   \\    /   O peration     | Website:  https://openfoam.org
    \\  /    A nd           | Version:  8
     \\/     M anipulation  |
\*---------------------------------------------------------------------------*/
FoamFile
{
    version     2.0;
    format      ascii;
    class       volScalarField;
    location    "1.8";
    object      N2;
}
// * * * * * * * * * * * * * * * * * * * * * * * * * * * * * * * * * * * * * //

dimensions      [0 0 0 0 0 0 0];

internalField   nonuniform List<scalar> 
67193
(
0.7900000963
0.7900000606
0.7900000065
0.7899999655
0.7899999487
0.7899999562
0.790000005
0.7900000809
0.7900001802
0.7900002398
0.7900002805
0.7900003042
0.7900003047
0.7900002874
0.790000271
0.7900002642
0.7900002637
0.7900002469
0.7900002172
0.7900001987
0.7900001977
0.7900002144
0.7900002527
0.7900003207
0.7900004182
0.7900005226
0.7900005968
0.7900006154
0.7900005785
0.7900005028
0.7900004012
0.7900002779
0.7900001393
0.7900001633
0.789999975
0.7899999587
0.7899998918
0.7899997829
0.7899996977
0.7899997176
0.7899998488
0.78999996
0.7900000221
0.7900001051
0.7900001816
0.7900002382
0.7900002385
0.7900001578
0.7900000224
0.7899999067
0.7899998587
0.7899998536
0.7899998588
0.7899998716
0.7899998926
0.7899999172
0.7899999404
0.7899999698
0.7900000275
0.7900001169
0.7900002073
0.7900002657
0.7900002821
0.7900002592
0.7900001885
0.7900000453
0.7899998048
0.7899995644
0.7899998476
0.789999895
0.7899999199
0.7899998685
0.7899997487
0.7899997026
0.7899998097
0.7899998875
0.7899999143
0.789999993
0.7900000838
0.7900001637
0.7900001833
0.7900000992
0.789999919
0.7899997428
0.7899996533
0.7899996344
0.7899996437
0.7899996688
0.7899997078
0.789999754
0.7899997927
0.7899998172
0.7899998481
0.7899999112
0.7899999938
0.7900000611
0.7900000984
0.7900001095
0.7900000883
0.7900000003
0.7899997873
0.7899994688
0.7899996945
0.7899997781
0.7899998758
0.7899999321
0.789999884
0.7899997862
0.7899997871
0.7899998159
0.789999828
0.7899999022
0.7899999951
0.7900000842
0.790000112
0.7900000382
0.7899998612
0.7899996711
0.7899995337
0.7899994768
0.7899994748
0.7899995034
0.7899995568
0.7899996275
0.7899996971
0.7899997447
0.7899997733
0.7899998134
0.7899998764
0.7899999348
0.7899999723
0.7899999939
0.7899999993
0.7899999619
0.7899998189
0.789999541
0.7899995321
0.7899996368
0.7899997719
0.7899998992
0.7899999476
0.7899998792
0.7899997985
0.7899997724
0.7899997797
0.7899998497
0.7899999405
0.7900000158
0.7900000294
0.7899999593
0.789999809
0.7899996319
0.7899994334
0.789999333
0.7899993227
0.7899993553
0.7899994204
0.7899995102
0.7899996118
0.7899996935
0.7899997368
0.789999762
0.7899998017
0.7899998447
0.789999876
0.7899998996
0.7899999159
0.7899999056
0.7899998156
0.7899996013
0.7899993864
0.789999503
0.7899996573
0.7899998189
0.7899999286
0.7899999208
0.7899998287
0.7899997648
0.7899997678
0.7899998357
0.7899999154
0.7899999554
0.7899999337
0.7899998631
0.7899997531
0.7899996009
0.7899993447
0.7899992079
0.7899991917
0.7899992291
0.7899993054
0.7899994102
0.7899995336
0.7899996476
0.7899997121
0.7899997297
0.7899997478
0.7899997752
0.7899998008
0.7899998229
0.7899998442
0.7899998458
0.7899997866
0.7899996269
0.7899992652
0.789999395
0.7899995597
0.7899997353
0.7899998709
0.7899999068
0.7899998398
0.7899997693
0.7899997772
0.7899998406
0.7899998917
0.7899998799
0.7899998204
0.7899997541
0.7899996885
0.7899995674
0.7899993019
0.7899991337
0.7899990952
0.7899991274
0.7899992116
0.7899993299
0.78999947
0.7899996059
0.7899996891
0.7899997046
0.7899997097
0.7899997256
0.7899997451
0.7899997639
0.7899997846
0.7899997893
0.7899997466
0.789999628
0.7899991688
0.7899993195
0.7899994899
0.7899996664
0.7899998047
0.7899998596
0.7899998178
0.7899997535
0.7899997677
0.7899998285
0.7899998324
0.7899997749
0.7899996974
0.7899996391
0.7899996061
0.7899995217
0.7899993313
0.789999159
0.7899990742
0.7899990668
0.7899991378
0.7899992636
0.7899994177
0.7899995657
0.7899996624
0.7899996812
0.7899996851
0.7899996925
0.789999703
0.7899997151
0.7899997307
0.7899997334
0.7899996993
0.7899996129
0.7899991005
0.789999287
0.7899994478
0.7899996122
0.7899997373
0.7899997939
0.7899997665
0.7899997062
0.7899997189
0.7899998041
0.7899997558
0.7899996616
0.7899995824
0.7899995259
0.7899995049
0.7899994626
0.7899993907
0.7899992803
0.7899991744
0.7899990987
0.7899991041
0.7899992057
0.7899993625
0.7899995204
0.7899996283
0.7899996592
0.7899996676
0.7899996631
0.7899996625
0.7899996666
0.7899996738
0.789999671
0.789999641
0.7899995826
0.7899991089
0.7899993048
0.7899994286
0.7899995659
0.7899996649
0.789999713
0.7899996911
0.7899996454
0.789999706
0.7899998774
0.7899998062
0.7899996409
0.789999514
0.7899994318
0.7899994151
0.7899994169
0.7899994186
0.7899994041
0.7899993486
0.7899992605
0.7899991725
0.7899991884
0.7899993152
0.7899994751
0.7899995955
0.7899996424
0.7899996366
0.7899996173
0.7899996116
0.789999611
0.7899996097
0.7899995966
0.7899995674
0.7899995368
0.7899992038
0.7899993253
0.7899994052
0.7899995165
0.7899995831
0.7899996193
0.7899996061
0.7899996293
0.7899998265
0.7900000431
0.790000021
0.7899998189
0.7899995805
0.7899994078
0.7899993954
0.7899994069
0.7899994214
0.7899994786
0.7899994909
0.7899994719
0.7899993629
0.7899992751
0.7899993229
0.7899994631
0.7899995861
0.7899996195
0.7899995723
0.7899995528
0.7899995525
0.7899995515
0.78999954
0.7899995149
0.7899994879
0.7899994885
0.7899991929
0.7899993219
0.789999309
0.7899994574
0.7899995012
0.7899995276
0.7899995501
0.7899997369
0.7900000004
0.7900001564
0.790000203
0.7900000998
0.7899998259
0.78999952
0.7899994714
0.7899994249
0.7899994375
0.7899995338
0.7899995874
0.7899996346
0.7899995685
0.7899994285
0.7899993946
0.7899995005
0.7899995931
0.789999584
0.7899995134
0.7899995012
0.7899995106
0.7899995107
0.7899994919
0.7899994576
0.7899994393
0.7899994608
0.7899992172
0.789999294
0.7899990684
0.7899994169
0.7899994499
0.7899994728
0.7899995701
0.7899999711
0.7900000996
0.790000213
0.7900002978
0.7900002962
0.7900001425
0.7899997651
0.7899995926
0.7899994516
0.7899994678
0.7899995909
0.789999673
0.789999743
0.7899996925
0.7899995441
0.7899994774
0.7899995546
0.7899996054
0.789999589
0.7899995275
0.7899995167
0.7899995317
0.7899995378
0.7899995183
0.7899994781
0.7899994579
0.7899994452
0.7899989612
0.7899992496
0.7899985438
0.7899994174
0.789999431
0.7899994883
0.7899996569
0.7900001423
0.7900001277
0.7900002632
0.7900003747
0.7900004103
0.790000389
0.7900000457
0.7899997015
0.789999469
0.7899994856
0.7899996327
0.7899997379
0.789999786
0.789999709
0.7899995997
0.7899995576
0.7899996059
0.7899996316
0.7899996323
0.7899996021
0.7899996071
0.7899996277
0.7899996443
0.7899996321
0.7899995865
0.7899995352
0.7899994283
0.7899985969
0.789999234
0.7899975563
0.7899994298
0.7899993912
0.7899995636
0.789999716
0.7900000693
0.7900000792
0.7900002027
0.7900002902
0.7900003075
0.7900003249
0.7900001218
0.789999717
0.7899994677
0.7899995037
0.7899996637
0.7899997536
0.7899997222
0.7899996844
0.7899996727
0.7899996446
0.7899996482
0.7899996465
0.7899996469
0.7899996438
0.7899996772
0.7899997071
0.7899997385
0.789999747
0.7899997131
0.7899996338
0.7899994445
0.7899983515
0.7899991863
0.7899956797
0.789999357
0.7899993655
0.7899996609
0.7899997196
0.7899997152
0.789999901
0.7900000556
0.790000147
0.7900001487
0.7899999877
0.7899995775
0.7899992346
0.7899993298
0.7899998266
0.7899997174
0.7899996309
0.7899996688
0.7899997551
0.7899997925
0.7899997236
0.7899996684
0.7899996258
0.7899996072
0.7899996112
0.7899996553
0.7899996955
0.7899997428
0.78999978
0.7899997803
0.7899997113
0.7899995039
0.7899987743
0.7899994664
0.7899972522
0.7899996147
0.7899997107
0.7899999067
0.7899999018
0.7899998263
0.7899998603
0.7900000674
0.7900001931
0.7900001111
0.7899998314
0.789999386
0.7899993025
0.7899994673
0.7899996422
0.789999637
0.7899996757
0.7899997632
0.789999854
0.7899998709
0.7899997508
0.7899996493
0.7899995715
0.7899995387
0.7899995429
0.7899995809
0.789999627
0.7899996838
0.7899997417
0.7899997765
0.7899997426
0.7899995751
0.7899995368
0.7899999377
0.7899995223
0.7900003085
0.7900003215
0.7900002806
0.7900001595
0.790000017
0.7899998904
0.7899998712
0.7899998888
0.7899998188
0.7899995897
0.7899992821
0.7899994575
0.789999604
0.7899996645
0.7899996966
0.7899997578
0.7899998465
0.7899999196
0.7899998904
0.7899997246
0.7899996013
0.7899995073
0.7899994754
0.7899994842
0.7899995157
0.7899995608
0.7899996174
0.7899996812
0.789999737
0.7899997366
0.7899996351
0.7899994136
0.7899999672
0.7899996429
0.7900003233
0.7900003522
0.7900003347
0.7900002219
0.7900000882
0.7899999711
0.7899998588
0.789999786
0.7899997312
0.7899994462
0.7899992878
0.7899995863
0.789999725
0.7899997592
0.7899997826
0.7899998438
0.7899999122
0.7899999639
0.7899998774
0.7899996899
0.789999559
0.7899994624
0.7899994382
0.7899994498
0.7899994752
0.7899995137
0.7899995644
0.7899996272
0.7899996921
0.7899997144
0.7899996819
0.7899994679
0.7899994687
0.7899996089
0.7900000544
0.7900001909
0.7900001317
0.7899999797
0.7899998199
0.7899997073
0.7899996686
0.7899996845
0.7899996236
0.789999273
0.7899991927
0.7899996362
0.7899998292
0.7899998594
0.7899998954
0.7899999484
0.789999976
0.7900000066
0.7899998805
0.7899996886
0.7899995504
0.7899994539
0.7899994297
0.789999436
0.7899994539
0.7899994837
0.7899995261
0.789999585
0.7899996521
0.7899996883
0.7899997202
0.7899998048
0.7899997553
0.7899995997
0.7899998338
0.7899999563
0.789999908
0.7899997557
0.78999959
0.7899994813
0.7899994382
0.7899994185
0.7899993301
0.7899990577
0.7899989607
0.7899996203
0.7899999383
0.7899999837
0.790000034
0.7900000715
0.7900000629
0.7900000842
0.7899999165
0.7899997264
0.7899995824
0.7899994839
0.7899994479
0.7899994368
0.7899994426
0.789999464
0.7899994989
0.7899995518
0.7899996155
0.789999659
0.7899997507
0.7900000714
0.7900000257
0.7899999103
0.7899998706
0.7899998054
0.7899996988
0.7899995868
0.7899994583
0.7899993693
0.7899992798
0.7899991591
0.7899989976
0.789998781
0.7899987161
0.789999537
0.7900000634
0.7900001289
0.7900001803
0.7900001923
0.790000155
0.7900001581
0.7899999536
0.7899997771
0.7899996485
0.7899995462
0.7899994879
0.7899994448
0.7899994282
0.7899994418
0.7899994728
0.7899995189
0.7899995735
0.7899996198
0.7899997685
0.790000335
0.7900002892
0.7900001238
0.7900000046
0.7899999027
0.7899997925
0.7899997097
0.789999533
0.7899994141
0.7899992698
0.7899990803
0.7899988449
0.7899986101
0.7899985841
0.7899994754
0.7900001962
0.790000268
0.7900002809
0.7900002436
0.790000174
0.7900001295
0.7899999573
0.7899998326
0.7899997348
0.7899996295
0.7899995401
0.789999458
0.7899993987
0.7899993993
0.7899994317
0.7899994732
0.7899995143
0.789999562
0.7899997679
0.7900005957
0.7900006061
0.7900003648
0.7900001683
0.7900000501
0.7899999672
0.7900001457
0.789999659
0.7899994516
0.7899992638
0.7899990686
0.7899988178
0.7899985882
0.7899986288
0.7899995448
0.7900003059
0.7900003429
0.7900002723
0.7900001697
0.7900000861
0.7900000267
0.7899999627
0.7899999093
0.7899998309
0.7899997191
0.789999594
0.7899995053
0.789999376
0.7899993326
0.7899993611
0.7899994035
0.7899994298
0.789999484
0.7899997491
0.790000436
0.7900005945
0.7900005133
0.790000324
0.7900001831
0.7900000801
0.7899999962
0.7900000168
0.7899998946
0.7899996564
0.7899991863
0.7899990493
0.7899988419
0.7899986754
0.7899988326
0.7899997479
0.7900003628
0.7900003707
0.7900002721
0.7900001769
0.7900001224
0.7900000911
0.790000056
0.7900000137
0.7899999204
0.7899998006
0.7899996625
0.7899996764
0.7899994765
0.7899993071
0.7899992757
0.7899993108
0.7899993267
0.789999399
0.7899997248
0.7900006315
0.790000476
0.7900004583
0.7900002275
0.790000203
0.7900001225
0.7900000371
0.7899999623
0.7899997844
0.7899999421
0.7899993397
0.7899991162
0.7899989419
0.7899988469
0.7899991373
0.7899999732
0.7900003468
0.7900003466
0.7900002503
0.7900001764
0.7900001476
0.7900001422
0.7900001345
0.7900000935
0.7899999824
0.789999884
0.7899998262
0.7900000681
0.7899998663
0.7899994972
0.7899992694
0.7899992261
0.7899992315
0.7899993341
0.7899997191
0.7900003776
0.7900005268
0.7900004755
0.7900001908
0.7900000749
0.7899999939
0.7899999186
0.7899998212
0.7899996909
0.7899995364
0.7899993528
0.7899991992
0.7899991381
0.789999092
0.7899994823
0.790000144
0.7900003024
0.7900003261
0.7900002496
0.7900001908
0.7900001761
0.7900001833
0.7900001874
0.7900001484
0.7900000502
0.7900000569
0.7900001814
0.7900006577
0.7900005359
0.7900000283
0.7899995168
0.789999236
0.7899991886
0.789999318
0.7899997513
0.7900001011
0.7900004346
0.7900005427
0.7900003526
0.790000127
0.7899999488
0.7899998204
0.7899997247
0.789999632
0.789999541
0.7899993969
0.7899992956
0.7899992315
0.7899993453
0.7899998023
0.7900002234
0.7900002504
0.7900003036
0.7900002524
0.7900001847
0.7900001487
0.7900001517
0.7900001654
0.7900001396
0.7900001369
0.7900003624
0.7900006227
0.7900011482
0.790001122
0.7900006641
0.7900000739
0.7899995426
0.7899992864
0.7899993541
0.7899998043
0.7899999742
0.7900000143
0.7899999368
0.7899994417
0.7899996007
0.7899996736
0.7899996823
0.7899996473
0.7899995831
0.7899995047
0.7899994492
0.7899993897
0.7899995825
0.7900000352
0.7900002288
0.7900002165
0.7900002699
0.7900002548
0.7900002014
0.7900001562
0.7900001724
0.7900002503
0.7900003178
0.7900005212
0.790000687
0.790001033
0.7900012415
0.7900009774
0.7900004651
0.7899999338
0.7899995868
0.7899995038
0.7899995932
0.7899999083
0.7899997461
0.7899999503
0.7900000063
0.789999952
0.7899999027
0.789999866
0.7899998273
0.7899997801
0.7899997249
0.7899996709
0.7899996443
0.7899996626
0.7900001873
0.790000373
0.7900008534
0.7900008876
0.7900005589
0.7900001227
0.7899997848
0.7899996612
0.789999682
0.7899997697
0.7900000017
0.790000467
0.7900001756
0.790000073
0.7900000281
0.789999988
0.7899999408
0.7900001813
0.7900001177
0.7900000424
0.78999999
0.7899999632
0.7899999655
0.7900000008
0.7900000532
0.7900001089
0.7900001592
0.7900002119
0.7900002601
0.7900002902
0.7900003028
0.7900003091
0.7900003161
0.7900003267
0.7900003273
0.7900003142
0.7900003035
0.7900003054
0.7900003248
0.7900003679
0.7900004409
0.7900005416
0.7900006486
0.7900007237
0.7900007321
0.7900006675
0.7900005574
0.7900004297
0.7900002933
0.7900001579
0.7900002367
0.7899999957
0.7899999328
0.7899998342
0.7899997351
0.7899996777
0.7899996951
0.7899997677
0.7899998256
0.7899998654
0.7899999304
0.7900000092
0.7900000788
0.7900001016
0.7900000578
0.7899999773
0.7899999131
0.7899998912
0.7899998949
0.7899999056
0.7899999226
0.7899999471
0.7899999769
0.7900000113
0.7900000595
0.7900001354
0.7900002345
0.7900003255
0.7900003706
0.7900003503
0.7900002719
0.7900001465
0.7899999694
0.7899997282
0.7899995498
0.7899997954
0.7899998232
0.789999807
0.7899997306
0.7899996395
0.7899996189
0.7899996601
0.7899996808
0.7899997024
0.7899997611
0.7899998386
0.7899999099
0.7899999394
0.789999892
0.7899997829
0.7899996795
0.7899996227
0.7899996026
0.7899996066
0.789999632
0.7899996762
0.7899997303
0.7899997828
0.7899998303
0.7899998873
0.7899999643
0.7900000455
0.7900000994
0.7900001055
0.7900000649
0.7899999852
0.7899998512
0.7899996257
0.7899993574
0.7899995513
0.7899996567
0.7899997483
0.7899997685
0.7899997067
0.7899996381
0.7899996122
0.7899995908
0.789999592
0.7899996384
0.7899997102
0.7899997715
0.7899997985
0.7899997594
0.7899996549
0.7899995351
0.7899994374
0.7899993773
0.7899993599
0.7899993838
0.7899994424
0.7899995213
0.7899996023
0.7899996695
0.7899997226
0.7899997778
0.7899998389
0.7899998873
0.7899999046
0.7899998887
0.7899998487
0.7899997757
0.789999623
0.7899993918
0.7899993087
0.7899994611
0.7899996252
0.7899997391
0.7899997534
0.7899996861
0.7899996132
0.7899995587
0.7899995386
0.7899995698
0.7899996263
0.7899996701
0.7899996807
0.789999643
0.7899995549
0.7899994315
0.7899992966
0.7899991989
0.7899991566
0.7899991733
0.7899992422
0.7899993442
0.7899994503
0.7899995409
0.7899996
0.7899996384
0.7899996795
0.7899997211
0.7899997462
0.7899997475
0.7899997329
0.7899997018
0.7899996133
0.7899994444
0.7899990933
0.7899992787
0.7899994861
0.7899996569
0.7899997382
0.7899997107
0.7899996348
0.7899995711
0.7899995449
0.7899995617
0.7899995921
0.7899996023
0.7899995822
0.7899995356
0.7899994646
0.7899993463
0.7899991895
0.789999061
0.7899989983
0.7899990081
0.789999082
0.7899991996
0.78999933
0.7899994398
0.7899995081
0.7899995349
0.7899995599
0.7899995961
0.789999627
0.7899996423
0.7899996428
0.7899996353
0.7899995882
0.7899994751
0.789998933
0.7899991355
0.789999367
0.7899995652
0.7899996847
0.7899996976
0.7899996454
0.789999597
0.7899995868
0.7899996027
0.7899996029
0.7899995645
0.7899995023
0.7899994394
0.789999382
0.789999277
0.7899991177
0.7899989738
0.7899988991
0.7899989032
0.7899989777
0.7899991024
0.7899992454
0.7899993705
0.7899994477
0.7899994671
0.7899994786
0.7899995083
0.7899995411
0.7899995643
0.789999573
0.7899995771
0.7899995546
0.789999485
0.7899988401
0.7899990499
0.7899992827
0.789999488
0.7899996215
0.7899996593
0.7899996324
0.7899996055
0.7899996232
0.789999652
0.7899996288
0.7899995449
0.7899994437
0.7899993625
0.789999313
0.7899992254
0.7899990747
0.7899989375
0.7899988622
0.7899988647
0.7899989363
0.7899990598
0.7899992031
0.7899993377
0.7899994208
0.7899994355
0.7899994348
0.7899994536
0.7899994817
0.7899995047
0.7899995143
0.7899995207
0.7899995122
0.7899994777
0.7899988124
0.7899990235
0.7899992383
0.7899994336
0.7899995631
0.7899996108
0.7899996009
0.7899995871
0.7899996256
0.7899996658
0.789999641
0.7899995391
0.7899994141
0.7899993137
0.7899992632
0.7899991857
0.7899990413
0.7899989314
0.7899988735
0.7899988877
0.7899989563
0.789999069
0.7899992069
0.7899993404
0.7899994252
0.7899994362
0.7899994204
0.7899994207
0.7899994365
0.7899994522
0.7899994568
0.7899994587
0.7899994583
0.7899994542
0.7899988159
0.7899990317
0.7899992203
0.789999398
0.7899995132
0.7899995608
0.7899995593
0.7899995506
0.7899995955
0.7899996184
0.7899996195
0.7899995466
0.7899994216
0.789999297
0.789999232
0.7899991389
0.7899989939
0.7899989239
0.7899989005
0.7899989434
0.7899990237
0.7899991244
0.7899992477
0.7899993721
0.7899994539
0.7899994563
0.7899994153
0.7899993927
0.789999394
0.7899993987
0.7899993949
0.7899993908
0.7899993959
0.7899994195
0.7899988824
0.7899990693
0.7899992048
0.7899993728
0.7899994718
0.7899995148
0.7899995164
0.789999509
0.7899995317
0.7899995161
0.7899995395
0.7899995411
0.7899994648
0.7899993131
0.7899992154
0.7899990816
0.789998934
0.7899989038
0.7899989185
0.7899989938
0.7899991102
0.7899992109
0.7899993141
0.7899994258
0.7899994961
0.7899994752
0.7899994044
0.7899993639
0.7899993544
0.7899993503
0.7899993409
0.789999333
0.7899993456
0.7899993945
0.7899989664
0.7899991361
0.7899991461
0.7899993456
0.7899994352
0.7899994787
0.7899994857
0.7899994734
0.7899994238
0.7899993879
0.7899994336
0.7899994822
0.789999515
0.7899993671
0.7899992021
0.7899990192
0.7899988797
0.7899988877
0.789998937
0.7899990351
0.7899991873
0.7899993074
0.7899993934
0.7899994935
0.7899995362
0.7899994877
0.7899994037
0.7899993567
0.7899993416
0.7899993353
0.7899993233
0.7899993174
0.7899993435
0.7899993998
0.7899989183
0.7899991845
0.7899989158
0.7899992918
0.7899993813
0.7899994551
0.7899994818
0.7899994423
0.7899993038
0.789999258
0.7899993221
0.7899993718
0.7899994939
0.789999435
0.7899991856
0.7899989688
0.7899988521
0.7899988976
0.7899989829
0.7899991022
0.7899992677
0.7899993893
0.7899994636
0.7899995517
0.7899995682
0.7899995223
0.7899994489
0.789999405
0.7899993906
0.7899993871
0.7899993756
0.7899993724
0.7899994018
0.7899994181
0.7899988001
0.7899991824
0.7899982692
0.789999187
0.789999267
0.7899994346
0.7899995122
0.7899994513
0.7899992409
0.7899992224
0.7899993288
0.7899993964
0.7899994603
0.7899994786
0.7899991984
0.7899989569
0.7899988754
0.7899989539
0.789999073
0.7899992282
0.7899993863
0.7899994751
0.7899995269
0.7899995911
0.7899996022
0.7899995839
0.7899995422
0.7899995132
0.7899995033
0.7899995053
0.789999494
0.7899994848
0.7899994872
0.7899994127
0.7899985271
0.7899991608
0.7899966684
0.7899990377
0.789999074
0.7899993977
0.7899995544
0.7899995016
0.7899992597
0.7899992513
0.7899993749
0.7899994563
0.7899994496
0.7899994179
0.7899992113
0.7899990106
0.7899989824
0.7899990912
0.7899992197
0.7899994057
0.7899995144
0.7899995725
0.789999588
0.7899996189
0.7899996247
0.789999624
0.7899996163
0.7899996111
0.7899996111
0.7899996192
0.7899996092
0.7899995937
0.7899995552
0.7899993945
0.7899982942
0.7899987797
0.7899909017
0.7899984957
0.7899988051
0.7899993656
0.7899995701
0.7899996132
0.7899994262
0.7899994074
0.7899995328
0.7899996618
0.7899996385
0.7899993186
0.7899990854
0.7899991176
0.7899991667
0.7899993016
0.7899993841
0.7899994974
0.7899996014
0.7899996597
0.7899996445
0.7899996324
0.7899996103
0.7899995991
0.7899996011
0.7899996094
0.7899996247
0.789999643
0.7899996415
0.7899996317
0.7899995806
0.7899993931
0.7899991803
0.7899991077
0.7899982259
0.7899988557
0.7899992769
0.7899995288
0.7899996117
0.7899996632
0.7899996899
0.7899996798
0.7899997095
0.7899997399
0.7899995785
0.7899992028
0.789999101
0.7899991901
0.7899992717
0.7899993787
0.7899994508
0.7899995551
0.7899996585
0.7899997246
0.7899996791
0.7899996142
0.7899995516
0.7899995178
0.7899995077
0.7899995148
0.7899995414
0.7899995736
0.789999585
0.789999591
0.7899995591
0.7899994102
0.7899993502
0.7899995001
0.7899989523
0.7899997031
0.7899997995
0.7899998227
0.789999785
0.7899997468
0.7899997498
0.7899997514
0.7899997498
0.7899997019
0.7899994468
0.789999132
0.7899991525
0.7899992632
0.7899993437
0.7899994276
0.7899994943
0.7899995944
0.7899996865
0.7899997538
0.7899996681
0.7899995578
0.7899994659
0.7899994134
0.7899993894
0.7899993895
0.7899994174
0.7899994586
0.7899994862
0.7899995102
0.7899995099
0.789999432
0.7899993538
0.7899996076
0.7899995876
0.7899998906
0.7899999135
0.7899998987
0.7899998273
0.7899997437
0.7899997029
0.7899997103
0.7899997096
0.7899996393
0.7899993171
0.7899990888
0.7899991721
0.7899993245
0.7899994201
0.7899994917
0.7899995491
0.7899996332
0.7899996898
0.7899997361
0.7899996176
0.7899994841
0.7899993801
0.7899993161
0.7899992831
0.7899992774
0.7899993019
0.7899993453
0.7899993845
0.7899994249
0.7899994535
0.7899994495
0.7899995762
0.7899996792
0.7899998439
0.7899999852
0.7899999959
0.7899999293
0.789999827
0.7899997229
0.7899996493
0.7899996076
0.7899995913
0.7899994969
0.7899991728
0.7899989818
0.7899991278
0.7899993631
0.7899995056
0.789999579
0.7899996245
0.7899996704
0.7899996765
0.7899996902
0.789999563
0.7899994286
0.7899993242
0.7899992537
0.7899992136
0.7899992015
0.7899992198
0.7899992598
0.7899993029
0.789999351
0.7899993973
0.7899994568
0.7899998198
0.7899997843
0.7899997568
0.7899998166
0.7899998193
0.7899997572
0.7899996703
0.7899995721
0.7899994841
0.7899994133
0.7899993518
0.7899992361
0.7899989757
0.7899988042
0.7899990596
0.7899994191
0.7899996336
0.7899997087
0.789999722
0.7899997079
0.7899996731
0.7899996611
0.7899995393
0.7899994238
0.7899993192
0.7899992412
0.7899991911
0.7899991692
0.789999177
0.7899992072
0.7899992437
0.789999287
0.7899993368
0.7899994465
0.7900001206
0.7900000485
0.7899999641
0.7899998884
0.7899998003
0.7899997001
0.7899995986
0.789999496
0.7899993902
0.7899992591
0.7899991039
0.7899989264
0.7899987117
0.7899986092
0.7899990034
0.7899995121
0.7899998079
0.7899998701
0.7899998318
0.7899997606
0.7899997062
0.7899996876
0.789999578
0.7899994735
0.7899993658
0.7899992776
0.7899992138
0.7899991777
0.7899991693
0.7899991813
0.789999199
0.7899992219
0.7899992627
0.78999941
0.7900003991
0.7900002952
0.7900001784
0.7900000494
0.7899999165
0.7899997848
0.7899996607
0.789999543
0.7899994134
0.7899992149
0.7899989809
0.7899987389
0.7899985279
0.7899985028
0.789999013
0.7899996501
0.7900000051
0.7900000348
0.7899999489
0.7899998533
0.7899997846
0.7899997487
0.7899996548
0.7899995581
0.7899994475
0.78999935
0.7899992709
0.7899992192
0.7899991897
0.7899991744
0.7899991595
0.7899991443
0.7899991689
0.7899993434
0.7900006297
0.790000468
0.7900003379
0.7900001901
0.7900000364
0.7899999266
0.7899996726
0.7899995346
0.7899994247
0.7899992171
0.7899989671
0.7899987034
0.7899985113
0.789998563
0.7899991346
0.7899998213
0.7900001719
0.7900001613
0.7900000627
0.7899999644
0.7899998813
0.7899998207
0.7899997434
0.7899996542
0.7899995431
0.78999944
0.7899993424
0.7899992809
0.7899992324
0.7899991844
0.7899991234
0.7899990511
0.7899990598
0.7899992529
0.7900007212
0.7900006561
0.7900005343
0.7900004055
0.7900002674
0.7900001165
0.7899999637
0.7899997973
0.7899996218
0.7899995269
0.7899992716
0.7899990225
0.7899987714
0.7899986331
0.789998771
0.7899993471
0.7899999698
0.7900002486
0.7900002056
0.7900000905
0.7899999987
0.7899999301
0.7899998836
0.7899998252
0.7899997427
0.7899996357
0.7899995276
0.7899993917
0.7899993315
0.7899992803
0.7899992111
0.7899991007
0.7899989516
0.789998956
0.7899991622
0.7900007709
0.7900006607
0.790000398
0.7900002918
0.7900002346
0.79000012
0.7899999882
0.7899998274
0.7899996594
0.7899993811
0.7899992322
0.7899990674
0.7899988797
0.7899988329
0.7899990552
0.7899995671
0.7900000239
0.7900002233
0.7900001837
0.7900000836
0.7900000076
0.789999958
0.7899999287
0.7899998868
0.7899998178
0.7899997267
0.7899996012
0.7899993977
0.7899993309
0.7899992907
0.789999242
0.7899991132
0.7899988849
0.7899989048
0.7899991174
0.7900006848
0.7900005876
0.7900003907
0.7900000409
0.7900001719
0.7900000973
0.7899999624
0.7899998068
0.7899996441
0.7899994962
0.7899993082
0.7899991445
0.7899989789
0.789999049
0.7899993379
0.7899997297
0.7900000074
0.7900001569
0.7900001512
0.7900000707
0.7900000004
0.7899999644
0.7899999482
0.7899999298
0.7899999048
0.789999862
0.789999723
0.7899995239
0.7899994183
0.7899993317
0.7899993019
0.789999194
0.7899989909
0.7899989777
0.7899991649
0.7900004214
0.7900003846
0.7900003273
0.7900002611
0.7900002139
0.7900001019
0.7899999582
0.7899998107
0.7899996666
0.7899995232
0.7899993779
0.7899992657
0.7899991265
0.7899992789
0.789999568
0.7899998254
0.7899999823
0.7900000921
0.7900001271
0.7900000695
0.7899999888
0.7899999545
0.7899999437
0.7899999583
0.7900000173
0.7900000487
0.789999917
0.7899997574
0.7899996118
0.7899994156
0.7899993642
0.7899993216
0.78999921
0.7899991712
0.7899993207
0.7900002001
0.7900002748
0.7900003699
0.7900005249
0.7900001596
0.7899999683
0.7899998396
0.7899997233
0.7899996035
0.7899994659
0.7899993808
0.7899987839
0.7899994283
0.7899997169
0.7899998821
0.7899999765
0.7900000513
0.7900001046
0.7900000902
0.7900000163
0.7899999755
0.7899999595
0.7899999892
0.790000083
0.7900000886
0.7899999732
0.7899999861
0.7899999551
0.7899998319
0.7899997014
0.7899995553
0.7899994012
0.7899993408
0.789999472
0.7900000289
0.7900001271
0.790000192
0.7900001848
0.7900001206
0.7900000345
0.7899999373
0.789999837
0.7899997378
0.7899996479
0.7899995936
0.7899995739
0.7899999859
0.7900000661
0.7900000658
0.790000065
0.7899999226
0.789999793
0.7899997531
0.7899996698
0.7899995626
0.7899995144
0.7899996492
0.7900002914
0.7900003527
0.790000274
0.7900001662
0.790000063
0.7899999663
0.7900002707
0.7900001783
0.7900000867
0.7900000231
0.7899999861
0.789999981
0.7900000061
0.7900000493
0.7900000976
0.790000145
0.7900001978
0.7900002489
0.7900002864
0.7900003093
0.7900003242
0.7900003359
0.7900003488
0.7900003562
0.7900003554
0.7900003556
0.7900003656
0.7900003925
0.790000444
0.7900005256
0.7900006326
0.7900007414
0.7900008111
0.7900008034
0.7900007141
0.7900005816
0.790000441
0.7900003007
0.7900001785
0.7900003174
0.7900000327
0.789999929
0.7899998165
0.7899997287
0.7899996846
0.7899996957
0.7899997422
0.7899997865
0.7899998274
0.7899998859
0.789999955
0.7900000104
0.790000024
0.7899999914
0.7899999397
0.7899999016
0.7899998908
0.7899998986
0.7899999151
0.7899999392
0.789999971
0.7900000105
0.7900000603
0.7900001291
0.7900002235
0.7900003312
0.790000417
0.7900004407
0.7900003846
0.7900002655
0.7900001069
0.7899999112
0.7899996873
0.7899995632
0.7899998259
0.7899997962
0.7899997327
0.7899996475
0.7899995816
0.7899995734
0.7899995955
0.7899996061
0.7899996202
0.7899996662
0.7899997345
0.7899997925
0.7899998055
0.7899997613
0.7899996842
0.7899996155
0.7899995761
0.7899995634
0.7899995735
0.7899996057
0.7899996569
0.789999719
0.7899997845
0.7899998543
0.7899999363
0.7900000296
0.7900001116
0.7900001503
0.7900001258
0.7900000429
0.7899999168
0.7899997462
0.7899995155
0.7899992889
0.7899995662
0.7899996337
0.7899996698
0.7899996428
0.7899995787
0.7899995342
0.7899995099
0.7899994796
0.7899994625
0.7899994883
0.789999546
0.7899995996
0.7899996131
0.7899995722
0.7899994919
0.7899994044
0.789999332
0.7899992866
0.7899992772
0.7899993079
0.789999374
0.7899994607
0.7899995507
0.7899996335
0.7899997111
0.7899997893
0.7899998612
0.7899999063
0.7899999075
0.789999863
0.7899997817
0.789999664
0.7899994908
0.7899992861
0.7899992746
0.7899994246
0.7899995601
0.7899996187
0.7899995931
0.7899995337
0.7899994745
0.7899994152
0.7899993757
0.7899993799
0.7899994151
0.7899994487
0.7899994511
0.7899994112
0.7899993359
0.7899992382
0.7899991378
0.7899990612
0.7899990309
0.7899990554
0.7899991303
0.7899992367
0.7899993491
0.7899994479
0.7899995254
0.7899995904
0.7899996511
0.7899997001
0.7899997236
0.7899997138
0.7899996721
0.7899996004
0.7899994838
0.7899993287
0.789999001
0.7899992083
0.7899994174
0.7899995508
0.7899995784
0.7899995341
0.7899994684
0.7899994028
0.7899993569
0.7899993432
0.7899993477
0.7899993463
0.7899993231
0.7899992753
0.7899992047
0.789999104
0.7899989882
0.7899988924
0.7899988435
0.78999886
0.7899989401
0.7899990621
0.78999919
0.7899993019
0.7899993805
0.7899994339
0.7899994833
0.7899995333
0.7899995735
0.7899995913
0.7899995806
0.7899995425
0.7899994679
0.7899993601
0.7899987857
0.7899990215
0.789999277
0.7899994603
0.7899995326
0.7899995171
0.7899994666
0.7899994155
0.7899993804
0.789999359
0.7899993325
0.7899992894
0.7899992326
0.7899991698
0.7899991003
0.7899990016
0.7899988834
0.7899987796
0.7899987249
0.789998739
0.7899988206
0.7899989492
0.7899990869
0.7899992073
0.7899992861
0.789999329
0.7899993663
0.7899994124
0.7899994599
0.789999494
0.7899995039