/*--------------------------------*- C++ -*----------------------------------*\
  =========                 |
  \\      /  F ield         | OpenFOAM: The Open Source CFD Toolbox
   \\    /   O peration     | Website:  https://openfoam.org
    \\  /    A nd           | Version:  8
     \\/     M anipulation  |
\*---------------------------------------------------------------------------*/
FoamFile
{
    version     2.0;
    format      ascii;
    class       volScalarField;
    location    "1.8";
    object      O2;
}
// * * * * * * * * * * * * * * * * * * * * * * * * * * * * * * * * * * * * * //

dimensions      [0 0 0 0 0 0 0];

internalField   nonuniform List<scalar> 
67193
(
0.2099999037
0.2099999394
0.2099999935
0.2100000345
0.2100000513
0.2100000438
0.209999995
0.2099999191
0.2099998198
0.2099997602
0.2099997195
0.2099996958
0.2099996953
0.2099997126
0.209999729
0.2099997358
0.2099997363
0.2099997531
0.2099997828
0.2099998013
0.2099998023
0.2099997856
0.2099997473
0.2099996793
0.2099995818
0.2099994774
0.2099994032
0.2099993846
0.2099994215
0.2099994972
0.2099995988
0.2099997221
0.2099998607
0.2099998367
0.210000025
0.2100000413
0.2100001082
0.2100002171
0.2100003023
0.2100002824
0.2100001512
0.21000004
0.2099999779
0.2099998949
0.2099998184
0.2099997618
0.2099997615
0.2099998422
0.2099999776
0.2100000933
0.2100001413
0.2100001464
0.2100001412
0.2100001284
0.2100001074
0.2100000828
0.2100000596
0.2100000302
0.2099999725
0.2099998831
0.2099997927
0.2099997343
0.2099997179
0.2099997408
0.2099998115
0.2099999547
0.2100001952
0.2100004356
0.2100001524
0.210000105
0.2100000801
0.2100001315
0.2100002513
0.2100002974
0.2100001903
0.2100001125
0.2100000857
0.210000007
0.2099999162
0.2099998363
0.2099998167
0.2099999008
0.210000081
0.2100002572
0.2100003467
0.2100003656
0.2100003563
0.2100003312
0.2100002922
0.210000246
0.2100002073
0.2100001828
0.2100001519
0.2100000888
0.2100000062
0.2099999389
0.2099999016
0.2099998905
0.2099999117
0.2099999997
0.2100002127
0.2100005312
0.2100003055
0.2100002219
0.2100001242
0.2100000679
0.210000116
0.2100002138
0.2100002129
0.2100001841
0.210000172
0.2100000978
0.2100000049
0.2099999158
0.209999888
0.2099999618
0.2100001388
0.2100003289
0.2100004663
0.2100005232
0.2100005252
0.2100004966
0.2100004432
0.2100003725
0.2100003029
0.2100002553
0.2100002267
0.2100001866
0.2100001236
0.2100000652
0.2100000277
0.2100000061
0.2100000007
0.2100000381
0.2100001811
0.210000459
0.2100004679
0.2100003632
0.2100002281
0.2100001008
0.2100000524
0.2100001208
0.2100002015
0.2100002276
0.2100002203
0.2100001503
0.2100000595
0.2099999842
0.2099999706
0.2100000407
0.210000191
0.2100003681
0.2100005666
0.210000667
0.2100006773
0.2100006447
0.2100005796
0.2100004898
0.2100003882
0.2100003065
0.2100002632
0.210000238
0.2100001983
0.2100001553
0.210000124
0.2100001004
0.2100000841
0.2100000944
0.2100001844
0.2100003987
0.2100006136
0.210000497
0.2100003427
0.2100001811
0.2100000714
0.2100000792
0.2100001713
0.2100002352
0.2100002322
0.2100001643
0.2100000846
0.2100000446
0.2100000663
0.2100001369
0.2100002469
0.2100003991
0.2100006553
0.2100007921
0.2100008083
0.2100007709
0.2100006946
0.2100005898
0.2100004664
0.2100003524
0.2100002879
0.2100002703
0.2100002522
0.2100002248
0.2100001992
0.2100001771
0.2100001558
0.2100001542
0.2100002134
0.2100003731
0.2100007348
0.210000605
0.2100004403
0.2100002647
0.2100001291
0.2100000932
0.2100001602
0.2100002307
0.2100002228
0.2100001594
0.2100001083
0.2100001201
0.2100001796
0.2100002459
0.2100003115
0.2100004326
0.2100006981
0.2100008663
0.2100009048
0.2100008726
0.2100007884
0.2100006701
0.21000053
0.2100003941
0.2100003109
0.2100002954
0.2100002903
0.2100002744
0.2100002549
0.2100002361
0.2100002154
0.2100002107
0.2100002534
0.210000372
0.2100008312
0.2100006805
0.2100005101
0.2100003336
0.2100001953
0.2100001404
0.2100001822
0.2100002465
0.2100002323
0.2100001715
0.2100001676
0.2100002251
0.2100003026
0.2100003609
0.2100003939
0.2100004783
0.2100006687
0.210000841
0.2100009258
0.2100009332
0.2100008622
0.2100007364
0.2100005823
0.2100004343
0.2100003376
0.2100003188
0.2100003149
0.2100003075
0.210000297
0.2100002849
0.2100002693
0.2100002666
0.2100003007
0.2100003871
0.2100008995
0.210000713
0.2100005522
0.2100003878
0.2100002627
0.2100002061
0.2100002335
0.2100002938
0.2100002811
0.2100001959
0.2100002442
0.2100003384
0.2100004176
0.2100004741
0.2100004951
0.2100005374
0.2100006093
0.2100007197
0.2100008256
0.2100009013
0.2100008959
0.2100007943
0.2100006375
0.2100004796
0.2100003717
0.2100003408
0.2100003324
0.2100003369
0.2100003375
0.2100003334
0.2100003262
0.210000329
0.210000359
0.2100004174
0.2100008911
0.2100006952
0.2100005714
0.2100004341
0.2100003351
0.210000287
0.2100003089
0.2100003546
0.210000294
0.2100001226
0.2100001938
0.2100003591
0.210000486
0.2100005682
0.2100005849
0.2100005831
0.2100005814
0.2100005959
0.2100006514
0.2100007395
0.2100008275
0.2100008116
0.2100006848
0.2100005249
0.2100004045
0.2100003576
0.2100003634
0.2100003827
0.2100003884
0.210000389
0.2100003903
0.2100004034
0.2100004326
0.2100004632
0.2100007962
0.2100006747
0.2100005948
0.2100004835
0.2100004169
0.2100003807
0.2100003939
0.2100003707
0.2100001735
0.2099999569
0.209999979
0.2100001811
0.2100004195
0.2100005922
0.2100006046
0.2100005931
0.2100005786
0.2100005214
0.2100005091
0.2100005281
0.2100006371
0.2100007249
0.2100006771
0.2100005369
0.2100004139
0.2100003805
0.2100004277
0.2100004472
0.2100004475
0.2100004485
0.21000046
0.2100004851
0.2100005121
0.2100005115
0.2100008071
0.2100006781
0.210000691
0.2100005426
0.2100004988
0.2100004724
0.2100004499
0.2100002631
0.2099999996
0.2099998436
0.209999797
0.2099999002
0.2100001741
0.21000048
0.2100005286
0.2100005751
0.2100005625
0.2100004662
0.2100004126
0.2100003654
0.2100004315
0.2100005715
0.2100006054
0.2100004995
0.2100004069
0.210000416
0.2100004866
0.2100004988
0.2100004894
0.2100004893
0.2100005081
0.2100005424
0.2100005607
0.2100005392
0.2100007828
0.210000706
0.2100009316
0.2100005831
0.2100005501
0.2100005272
0.2100004299
0.2100000289
0.2099999004
0.209999787
0.2099997022
0.2099997038
0.2099998575
0.2100002349
0.2100004074
0.2100005484
0.2100005322
0.2100004091
0.210000327
0.210000257
0.2100003075
0.2100004559
0.2100005226
0.2100004454
0.2100003946
0.210000411
0.2100004725
0.2100004833
0.2100004683
0.2100004622
0.2100004817
0.2100005219
0.2100005421
0.2100005548
0.2100010388
0.2100007504
0.2100014562
0.2100005826
0.210000569
0.2100005117
0.2100003431
0.2099998577
0.2099998723
0.2099997368
0.2099996253
0.2099995897
0.209999611
0.2099999543
0.2100002985
0.210000531
0.2100005144
0.2100003673
0.2100002621
0.210000214
0.210000291
0.2100004003
0.2100004424
0.2100003941
0.2100003684
0.2100003677
0.2100003979
0.2100003929
0.2100003723
0.2100003557
0.2100003679
0.2100004135
0.2100004648
0.2100005717
0.2100014031
0.210000766
0.2100024437
0.2100005702
0.2100006088
0.2100004364
0.210000284
0.2099999307
0.2099999208
0.2099997973
0.2099997098
0.2099996925
0.2099996751
0.2099998782
0.210000283
0.2100005323
0.2100004963
0.2100003363
0.2100002464
0.2100002778
0.2100003156
0.2100003273
0.2100003554
0.2100003518
0.2100003535
0.2100003531
0.2100003562
0.2100003228
0.2100002929
0.2100002615
0.210000253
0.2100002869
0.2100003662
0.2100005555
0.2100016485
0.2100008137
0.2100043203
0.210000643
0.2100006345
0.2100003391
0.2100002804
0.2100002848
0.210000099
0.2099999444
0.209999853
0.2099998513
0.2100000123
0.2100004225
0.2100007654
0.2100006702
0.2100001734
0.2100002826
0.2100003691
0.2100003312
0.2100002449
0.2100002075
0.2100002764
0.2100003316
0.2100003742
0.2100003928
0.2100003888
0.2100003447
0.2100003045
0.2100002572
0.21000022
0.2100002197
0.2100002887
0.2100004961
0.2100012257
0.2100005336
0.2100027478
0.2100003853
0.2100002893
0.2100000933
0.2100000982
0.2100001737
0.2100001397
0.2099999326
0.2099998069
0.2099998889
0.2100001686
0.210000614
0.2100006975
0.2100005327
0.2100003578
0.210000363
0.2100003243
0.2100002368
0.210000146
0.2100001291
0.2100002492
0.2100003507
0.2100004285
0.2100004613
0.2100004571
0.2100004191
0.210000373
0.2100003162
0.2100002583
0.2100002235
0.2100002574
0.2100004249
0.2100004632
0.2100000623
0.2100004777
0.2099996915
0.2099996785
0.2099997194
0.2099998405
0.209999983
0.2100001096
0.2100001288
0.2100001112
0.2100001812
0.2100004103
0.2100007179
0.2100005425
0.210000396
0.2100003355
0.2100003034
0.2100002422
0.2100001535
0.2100000804
0.2100001096
0.2100002754
0.2100003987
0.2100004927
0.2100005246
0.2100005158
0.2100004843
0.2100004392
0.2100003826
0.2100003188
0.210000263
0.2100002634
0.2100003649
0.2100005864
0.2100000328
0.2100003571
0.2099996767
0.2099996478
0.2099996653
0.2099997781
0.2099999118
0.2100000289
0.2100001412
0.210000214
0.2100002688
0.2100005538
0.2100007122
0.2100004137
0.210000275
0.2100002408
0.2100002174
0.2100001562
0.2100000878
0.2100000361
0.2100001226
0.2100003101
0.210000441
0.2100005376
0.2100005618
0.2100005502
0.2100005248
0.2100004863
0.2100004356
0.2100003728
0.2100003079
0.2100002856
0.2100003181
0.2100005321
0.2100005313
0.2100003911
0.2099999456
0.2099998091
0.2099998683
0.2100000203
0.2100001801
0.2100002927
0.2100003314
0.2100003155
0.2100003764
0.210000727
0.2100008073
0.2100003638
0.2100001708
0.2100001406
0.2100001046
0.2100000516
0.210000024
0.2099999934
0.2100001195
0.2100003114
0.2100004496
0.2100005461
0.2100005703
0.210000564
0.2100005461
0.2100005163
0.2100004739
0.210000415
0.2100003479
0.2100003117
0.2100002798
0.2100001952
0.2100002447
0.2100004003
0.2100001662
0.2100000437
0.210000092
0.2100002443
0.21000041
0.2100005187
0.2100005618
0.2100005815
0.2100006699
0.2100009423
0.2100010393
0.2100003797
0.2100000617
0.2100000163
0.209999966
0.2099999285
0.2099999371
0.2099999158
0.2100000835
0.2100002736
0.2100004176
0.2100005161
0.2100005521
0.2100005632
0.2100005574
0.210000536
0.2100005011
0.2100004482
0.2100003845
0.210000341
0.2100002493
0.2099999286
0.2099999743
0.2100000897
0.2100001294
0.2100001946
0.2100003012
0.2100004132
0.2100005417
0.2100006307
0.2100007202
0.2100008409
0.2100010024
0.210001219
0.2100012839
0.210000463
0.2099999366
0.2099998711
0.2099998197
0.2099998077
0.209999845
0.2099998419
0.2100000464
0.2100002229
0.2100003515
0.2100004538
0.2100005121
0.2100005552
0.2100005718
0.2100005582
0.2100005272
0.2100004811
0.2100004265
0.2100003802
0.2100002315
0.209999665
0.2099997108
0.2099998762
0.2099999954
0.2100000973
0.2100002075
0.2100002903
0.210000467
0.2100005859
0.2100007302
0.2100009197
0.2100011551
0.2100013899
0.2100014159
0.2100005246
0.2099998038
0.209999732
0.2099997191
0.2099997564
0.209999826
0.2099998705
0.2100000427
0.2100001674
0.2100002652
0.2100003705
0.2100004599
0.210000542
0.2100006013
0.2100006007
0.2100005683
0.2100005268
0.2100004857
0.210000438
0.2100002321
0.2099994043
0.2099993939
0.2099996352
0.2099998317
0.2099999499
0.2100000328
0.2099998543
0.210000341
0.2100005484
0.2100007362
0.2100009314
0.2100011822
0.2100014118
0.2100013712
0.2100004552
0.2099996941
0.2099996571
0.2099997277
0.2099998303
0.2099999139
0.2099999733
0.2100000373
0.2100000907
0.2100001691
0.2100002809
0.210000406
0.2100004947
0.210000624
0.2100006674
0.2100006389
0.2100005965
0.2100005702
0.210000516
0.2100002509
0.209999564
0.2099994055
0.2099994867
0.209999676
0.2099998169
0.2099999199
0.2100000038
0.2099999832
0.2100001054
0.2100003436
0.2100008137
0.2100009507
0.2100011581
0.2100013246
0.2100011674
0.2100002521
0.2099996372
0.2099996293
0.2099997279
0.2099998231
0.2099998776
0.2099999089
0.209999944
0.2099999863
0.2100000796
0.2100001994
0.2100003375
0.2100003236
0.2100005235
0.2100006929
0.2100007243
0.2100006892
0.2100006733
0.210000601
0.2100002752
0.2099993685
0.209999524
0.2099995417
0.2099997725
0.209999797
0.2099998775
0.2099999629
0.2100000377
0.2100002156
0.2100000579
0.2100006603
0.2100008838
0.2100010581
0.2100011531
0.2100008627
0.2100000268
0.2099996532
0.2099996534
0.2099997497
0.2099998236
0.2099998524
0.2099998578
0.2099998655
0.2099999065
0.2100000176
0.210000116
0.2100001738
0.2099999319
0.2100001337
0.2100005028
0.2100007306
0.2100007739
0.2100007685
0.2100006659
0.2100002809
0.2099996224
0.2099994732
0.2099995245
0.2099998092
0.2099999251
0.2100000061
0.2100000814
0.2100001788
0.2100003091
0.2100004636
0.2100006472
0.2100008008
0.2100008619
0.210000908
0.2100005177
0.209999856
0.2099996976
0.2099996739
0.2099997504
0.2099998092
0.2099998239
0.2099998167
0.2099998126
0.2099998516
0.2099999498
0.2099999431
0.2099998186
0.2099993423
0.2099994641
0.2099999717
0.2100004832
0.210000764
0.2100008114
0.210000682
0.2100002487
0.2099998989
0.2099995654
0.2099994573
0.2099996474
0.209999873
0.2100000512
0.2100001796
0.2100002753
0.210000368
0.210000459
0.2100006031
0.2100007044
0.2100007685
0.2100006547
0.2100001977
0.2099997766
0.2099997496
0.2099996964
0.2099997476
0.2099998153
0.2099998513
0.2099998483
0.2099998346
0.2099998604
0.2099998631
0.2099996376
0.2099993773
0.2099988518
0.209998878
0.2099993359
0.2099999261
0.2100004574
0.2100007136
0.2100006459
0.2100001957
0.2100000258
0.2099999857
0.2100000632
0.2100005583
0.2100003993
0.2100003264
0.2100003177
0.2100003527
0.2100004169
0.2100004953
0.2100005508
0.2100006103
0.2100004175
0.2099999648
0.2099997712
0.2099997835
0.2099997301
0.2099997452
0.2099997986
0.2099998438
0.2099998276
0.2099997497
0.2099996822
0.2099994788
0.209999313
0.209998967
0.2099987585
0.2099990226
0.2099995349
0.2100000662
0.2100004132
0.2100004962
0.2100004068
0.2100000917
0.2100002539
0.2100000497
0.2099999937
0.210000048
0.2100000973
0.210000134
0.2100001727
0.2100002199
0.2100002751
0.2100003291
0.2100003557
0.2100003374
0.2099998127
0.209999627
0.2099991466
0.2099991124
0.2099994411
0.2099998773
0.2100002152
0.2100003388
0.210000318
0.2100002303
0.2099999983
0.209999533
0.2099998244
0.209999927
0.2099999719
0.210000012
0.2100000592
0.2099998187
0.2099998823
0.2099999576
0.21000001
0.2100000368
0.2100000345
0.2099999992
0.2099999468
0.2099998911
0.2099998408
0.2099997881
0.2099997399
0.2099997098
0.2099996972
0.2099996909
0.2099996839
0.2099996733
0.2099996727
0.2099996858
0.2099996965
0.2099996946
0.2099996752
0.2099996321
0.2099995591
0.2099994584
0.2099993514
0.2099992763
0.2099992679
0.2099993325
0.2099994426
0.2099995703
0.2099997067
0.2099998421
0.2099997633
0.2100000043
0.2100000672
0.2100001658
0.2100002649
0.2100003223
0.2100003049
0.2100002323
0.2100001744
0.2100001346
0.2100000696
0.2099999908
0.2099999212
0.2099998984
0.2099999422
0.2100000227
0.2100000869
0.2100001088
0.2100001051
0.2100000944
0.2100000774
0.2100000529
0.2100000231
0.2099999887
0.2099999405
0.2099998646
0.2099997655
0.2099996745
0.2099996294
0.2099996497
0.2099997281
0.2099998535
0.2100000306
0.2100002718
0.2100004502
0.2100002046
0.2100001768
0.210000193
0.2100002694
0.2100003605
0.2100003811
0.2100003399
0.2100003192
0.2100002976
0.2100002389
0.2100001614
0.2100000901
0.2100000606
0.210000108
0.2100002171
0.2100003205
0.2100003773
0.2100003974
0.2100003934
0.210000368
0.2100003238
0.2100002697
0.2100002172
0.2100001697
0.2100001127
0.2100000357
0.2099999545
0.2099999006
0.2099998945
0.2099999351
0.2100000148
0.2100001488
0.2100003743
0.2100006426
0.2100004487
0.2100003433
0.2100002517
0.2100002315
0.2100002933
0.2100003619
0.2100003878
0.2100004092
0.210000408
0.2100003616
0.2100002898
0.2100002285
0.2100002015
0.2100002406
0.2100003451
0.2100004649
0.2100005626
0.2100006227
0.2100006401
0.2100006162
0.2100005576
0.2100004787
0.2100003977
0.2100003305
0.2100002774
0.2100002222
0.2100001611
0.2100001127
0.2100000954
0.2100001113
0.2100001513
0.2100002243
0.210000377
0.2100006082
0.2100006913
0.2100005389
0.2100003748
0.2100002609
0.2100002466
0.2100003139
0.2100003868
0.2100004413
0.2100004614
0.2100004302
0.2100003737
0.2100003299
0.2100003193
0.210000357
0.2100004451
0.2100005685
0.2100007034
0.2100008011
0.2100008434
0.2100008267
0.2100007578
0.2100006558
0.2100005497
0.2100004591
0.2100004
0.2100003616
0.2100003205
0.2100002789
0.2100002538
0.2100002525
0.2100002671
0.2100002982
0.2100003867
0.2100005556
0.2100009067
0.2100007213
0.2100005139
0.2100003431
0.2100002618
0.2100002893
0.2100003652
0.2100004289
0.2100004551
0.2100004383
0.2100004079
0.2100003977
0.2100004178
0.2100004644
0.2100005354
0.2100006537
0.2100008105
0.210000939
0.2100010017
0.2100009919
0.210000918
0.2100008004
0.21000067
0.2100005602
0.2100004919
0.2100004651
0.2100004401
0.2100004039
0.210000373
0.2100003577
0.2100003572
0.2100003647
0.2100004118
0.2100005249
0.210001067
0.2100008645
0.210000633
0.2100004348
0.2100003153
0.2100003024
0.2100003546
0.210000403
0.2100004132
0.2100003973
0.2100003971
0.2100004355
0.2100004977
0.2100005606
0.210000618
0.210000723
0.2100008823
0.2100010262
0.2100011009
0.2100010968
0.2100010223
0.2100008976
0.2100007546
0.2100006295
0.2100005523
0.2100005329
0.2100005214
0.2100004917
0.2100004589
0.2100004357
0.210000427
0.2100004229
0.2100004454
0.210000515
0.2100011599
0.2100009501
0.2100007173
0.210000512
0.2100003785
0.2100003407
0.2100003676
0.2100003945
0.2100003768
0.210000348
0.2100003712
0.2100004551
0.2100005563
0.2100006375
0.210000687
0.2100007746
0.2100009253
0.2100010625
0.2100011378
0.2100011353
0.2100010637
0.2100009402
0.2100007969
0.2100006623
0.2100005792
0.2100005645
0.2100005652
0.2100005464
0.2100005183
0.2100004953
0.2100004857
0.2100004793
0.2100004878
0.2100005223
0.2100011876
0.2100009765
0.2100007617
0.2100005664
0.2100004369
0.2100003892
0.2100003991
0.2100004129
0.2100003744
0.2100003342
0.210000359
0.2100004609
0.2100005859
0.2100006863
0.2100007368
0.2100008143
0.2100009587
0.2100010686
0.2100011265
0.2100011123
0.2100010437
0.210000931
0.2100007931
0.2100006596
0.2100005748
0.2100005638
0.2100005796
0.2100005793
0.2100005635
0.2100005478
0.2100005432
0.2100005413
0.2100005417
0.2100005458
0.2100011841
0.2100009683
0.2100007797
0.210000602
0.2100004868
0.2100004392
0.2100004407
0.2100004494
0.2100004045
0.2100003816
0.2100003805
0.2100004534
0.2100005784
0.210000703
0.210000768
0.2100008611
0.2100010061
0.2100010761
0.2100010995
0.2100010566
0.2100009763
0.2100008756
0.2100007523
0.2100006279
0.2100005461
0.2100005437
0.2100005847
0.2100006073
0.210000606
0.2100006013
0.2100006051
0.2100006092
0.2100006041
0.2100005805
0.2100011176
0.2100009307
0.2100007952
0.2100006272
0.2100005282
0.2100004852
0.2100004836
0.210000491
0.2100004683
0.2100004839
0.2100004605
0.2100004589
0.2100005352
0.2100006869
0.2100007846
0.2100009184
0.210001066
0.2100010962
0.2100010815
0.2100010062
0.2100008898
0.2100007891
0.2100006859
0.2100005742
0.2100005039
0.2100005248
0.2100005956
0.2100006361
0.2100006456
0.2100006497
0.2100006591
0.210000667
0.2100006544
0.2100006055
0.2100010336
0.2100008639
0.2100008539
0.2100006544
0.2100005648
0.2100005213
0.2100005143
0.2100005266
0.2100005762
0.2100006121
0.2100005664
0.2100005178
0.210000485
0.2100006329
0.2100007979
0.2100009808
0.2100011203
0.2100011123
0.210001063
0.2100009649
0.2100008127
0.2100006926
0.2100006066
0.2100005065
0.2100004638
0.2100005123
0.2100005963
0.2100006433
0.2100006584
0.2100006647
0.2100006767
0.2100006826
0.2100006565
0.2100006002
0.2100010817
0.2100008155
0.2100010842
0.2100007082
0.2100006187
0.2100005449
0.2100005182
0.2100005577
0.2100006962
0.210000742
0.2100006779
0.2100006282
0.2100005061
0.210000565
0.2100008144
0.2100010312
0.2100011479
0.2100011024
0.2100010171
0.2100008978
0.2100007323
0.2100006107
0.2100005364
0.2100004483
0.2100004318
0.2100004777
0.2100005511
0.210000595
0.2100006094
0.2100006129
0.2100006244
0.2100006276
0.2100005982
0.2100005819
0.2100011999
0.2100008176
0.2100017308
0.210000813
0.210000733
0.2100005654
0.2100004878
0.2100005487
0.2100007591
0.2100007776
0.2100006712
0.2100006036
0.2100005397
0.2100005214
0.2100008016
0.2100010431
0.2100011246
0.2100010461
0.210000927
0.2100007718
0.2100006137
0.2100005249
0.2100004731
0.2100004089
0.2100003978
0.2100004161
0.2100004578
0.2100004868
0.2100004967
0.2100004947
0.210000506
0.2100005152
0.2100005128
0.2100005873
0.2100014729
0.2100008392
0.2100033316
0.2100009623
0.210000926
0.2100006023
0.2100004456
0.2100004984
0.2100007403
0.2100007487
0.2100006251
0.2100005437
0.2100005504
0.2100005821
0.2100007887
0.2100009894
0.2100010176
0.2100009088
0.2100007803
0.2100005943
0.2100004856
0.2100004275
0.210000412
0.2100003811
0.2100003753
0.210000376
0.2100003837
0.2100003889
0.2100003889
0.2100003808
0.2100003908
0.2100004063
0.2100004448
0.2100006055
0.2100017058
0.2100012203
0.2100090983
0.2100015043
0.2100011949
0.2100006344
0.2100004299
0.2100003868
0.2100005738
0.2100005926
0.2100004672
0.2100003382
0.2100003615
0.2100006814
0.2100009146
0.2100008824
0.2100008333
0.2100006984
0.2100006159
0.2100005026
0.2100003986
0.2100003403
0.2100003555
0.2100003676
0.2100003897
0.2100004009
0.2100003989
0.2100003906
0.2100003753
0.210000357
0.2100003585
0.2100003683
0.2100004194
0.2100006069
0.2100008197
0.2100008923
0.2100017741
0.2100011443
0.2100007231
0.2100004712
0.2100003883
0.2100003368
0.2100003101
0.2100003202
0.2100002905
0.2100002601
0.2100004215
0.2100007972
0.210000899
0.2100008099
0.2100007283
0.2100006213
0.2100005492
0.2100004449
0.2100003415
0.2100002754
0.2100003209
0.2100003858
0.2100004484
0.2100004822
0.2100004923
0.2100004852
0.2100004586
0.2100004264
0.210000415
0.210000409
0.2100004409
0.2100005898
0.2100006498
0.2100004999
0.2100010477
0.2100002969
0.2100002005
0.2100001773
0.210000215
0.2100002532
0.2100002502
0.2100002486
0.2100002502
0.2100002981
0.2100005532
0.210000868
0.2100008475
0.2100007368
0.2100006563
0.2100005724
0.2100005057
0.2100004056
0.2100003135
0.2100002462
0.2100003319
0.2100004422
0.2100005341
0.2100005866
0.2100006106
0.2100006105
0.2100005826
0.2100005414
0.2100005138
0.2100004898
0.2100004901
0.210000568
0.2100006462
0.2100003924
0.2100004124
0.2100001094
0.2100000865
0.2100001013
0.2100001727
0.2100002563
0.2100002971
0.2100002897
0.2100002904
0.2100003607
0.2100006829
0.2100009112
0.2100008279
0.2100006755
0.2100005799
0.2100005083
0.2100004509
0.2100003668
0.2100003102
0.2100002639
0.2100003824
0.2100005159
0.2100006199
0.2100006839
0.2100007169
0.2100007226
0.2100006981
0.2100006547
0.2100006155
0.2100005751
0.2100005465
0.2100005505
0.2100004238
0.2100003208
0.2100001561
0.2100000148
0.2100000041
0.2100000707
0.210000173
0.2100002771
0.2100003507
0.2100003924
0.2100004087
0.2100005031
0.2100008272
0.2100010182
0.2100008722
0.2100006369
0.2100004944
0.210000421
0.2100003755
0.2100003296
0.2100003235
0.2100003098
0.210000437
0.2100005714
0.2100006758
0.2100007463
0.2100007864
0.2100007985
0.2100007802
0.2100007402
0.2100006971
0.210000649
0.2100006027
0.2100005432
0.2100001802
0.2100002157
0.2100002432
0.2100001834
0.2100001807
0.2100002428
0.2100003297
0.2100004279
0.2100005159
0.2100005867
0.2100006482
0.2100007639
0.2100010243
0.2100011958
0.2100009404
0.2100005809
0.2100003664
0.2100002913
0.210000278
0.2100002921
0.2100003269
0.2100003389
0.2100004607
0.2100005762
0.2100006808
0.2100007588
0.2100008089
0.2100008308
0.210000823
0.2100007928
0.2100007563
0.210000713
0.2100006632
0.2100005535
0.2099998794
0.2099999515
0.2100000359
0.2100001116
0.2100001997
0.2100002999
0.2100004014
0.210000504
0.2100006098
0.2100007409
0.2100008961
0.2100010736
0.2100012883
0.2100013908
0.2100009966
0.2100004879
0.2100001921
0.2100001299
0.2100001682
0.2100002394
0.2100002938
0.2100003124
0.210000422
0.2100005265
0.2100006342
0.2100007224
0.2100007862
0.2100008223
0.2100008307
0.2100008187
0.210000801
0.2100007781
0.2100007373
0.21000059
0.2099996009
0.2099997048
0.2099998216
0.2099999506
0.2100000835
0.2100002152
0.2100003393
0.210000457
0.2100005866
0.2100007851
0.2100010191
0.2100012611
0.2100014721
0.2100014972
0.210000987
0.2100003499
0.2099999949
0.2099999652
0.2100000511
0.2100001467
0.2100002154
0.2100002513
0.2100003452
0.2100004419
0.2100005525
0.21000065
0.2100007291
0.2100007808
0.2100008103
0.2100008256
0.2100008405
0.2100008557
0.2100008311
0.2100006566
0.2099993703
0.209999532
0.2099996621
0.2099998099
0.2099999636
0.2100000734
0.2100003274
0.2100004654
0.2100005753
0.2100007829
0.2100010329
0.2100012966
0.2100014887
0.210001437
0.2100008654
0.2100001787
0.2099998281
0.2099998387
0.2099999373
0.2100000356
0.2100001187
0.2100001793
0.2100002566
0.2100003458
0.2100004569
0.21000056
0.2100006576
0.2100007191
0.2100007676
0.2100008156
0.2100008766
0.2100009489
0.2100009402
0.2100007471
0.2099992788
0.2099993439
0.2099994657
0.2099995945
0.2099997326
0.2099998835
0.2100000363
0.2100002027
0.2100003782
0.2100004731
0.2100007284
0.2100009775
0.2100012286
0.2100013669
0.210001229
0.2100006529
0.2100000302
0.2099997514
0.2099997944
0.2099999095
0.2100000013
0.2100000699
0.2100001164
0.2100001748
0.2100002573
0.2100003643
0.2100004724
0.2100006083
0.2100006685
0.2100007197
0.2100007889
0.2100008993
0.2100010484
0.210001044
0.2100008378
0.2099992291
0.2099993393
0.209999602
0.2099997082
0.2099997654
0.20999988
0.2100000118
0.2100001726
0.2100003406
0.2100006189
0.2100007678
0.2100009326
0.2100011203
0.2100011671
0.2100009448
0.2100004329
0.2099999761
0.2099997767
0.2099998163
0.2099999164
0.2099999924
0.210000042
0.2100000713
0.2100001132
0.2100001822
0.2100002733
0.2100003988
0.2100006023
0.2100006691
0.2100007093
0.210000758
0.2100008868
0.2100011151
0.2100010952
0.2100008826
0.2099993152
0.2099994124
0.2099996093
0.2099999591
0.2099998281
0.2099999027
0.2100000376
0.2100001932
0.2100003559
0.2100005038
0.2100006918
0.2100008555
0.2100010211
0.210000951
0.2100006621
0.2100002703
0.2099999926
0.2099998431
0.2099998488
0.2099999293
0.2099999996
0.2100000356
0.2100000518
0.2100000702
0.2100000952
0.210000138
0.210000277
0.2100004761
0.2100005817
0.2100006683
0.2100006981
0.210000806
0.2100010091
0.2100010223
0.2100008351
0.2099995786
0.2099996154
0.2099996727
0.2099997389
0.2099997861
0.2099998981
0.2100000418
0.2100001893
0.2100003334
0.2100004768
0.2100006221
0.2100007343
0.2100008735
0.2100007211
0.210000432
0.2100001746
0.2100000177
0.2099999079
0.2099998729
0.2099999305
0.2100000112
0.2100000455
0.2100000563
0.2100000417
0.2099999827
0.2099999513
0.210000083
0.2100002426
0.2100003882
0.2100005844
0.2100006358
0.2100006784
0.21000079
0.2100008288
0.2100006793
0.2099997999
0.2099997252
0.2099996301
0.2099994751
0.2099998404
0.2100000317
0.2100001604
0.2100002767
0.2100003965
0.2100005341
0.2100006192
0.2100012161
0.2100005717
0.2100002831
0.2100001179
0.2100000235
0.2099999487
0.2099998954
0.2099999098
0.2099999837
0.2100000245
0.2100000405
0.2100000108
0.209999917
0.2099999114
0.2100000268
0.2100000139
0.2100000449
0.2100001681
0.2100002986
0.2100004447
0.2100005988
0.2100006592
0.210000528
0.2099999711
0.2099998729
0.209999808
0.2099998152
0.2099998794
0.2099999655
0.2100000627
0.210000163
0.2100002622
0.2100003521
0.2100004064
0.2100004261
0.2100000141
0.2099999339
0.2099999342
0.209999935
0.2100000774
0.210000207
0.2100002469
0.2100003302
0.2100004374
0.2100004856
0.2100003508
0.2099997086
0.2099996473
0.209999726
0.2099998338
0.209999937
0.2100000337
0.2099997293
0.2099998217
0.2099999133
0.2099999769
0.2100000139
0.210000019
0.2099999939
0.2099999507
0.2099999024
0.209999855
0.2099998022
0.2099997511
0.2099997136
0.2099996907
0.2099996758
0.2099996641
0.2099996512
0.2099996438
0.2099996446
0.2099996444
0.2099996344
0.2099996075
0.209999556
0.2099994744
0.2099993674
0.2099992586
0.2099991889
0.2099991966
0.2099992859
0.2099994184
0.209999559
0.2099996993
0.2099998215
0.2099996826
0.2099999673
0.210000071
0.2100001835
0.2100002713
0.2100003154
0.2100003043
0.2100002578
0.2100002135
0.2100001726
0.2100001141
0.210000045
0.2099999896
0.209999976
0.2100000086
0.2100000603
0.2100000984
0.2100001092
0.2100001014
0.2100000849
0.2100000608
0.210000029
0.2099999895
0.2099999397
0.2099998709
0.2099997765
0.2099996688
0.209999583
0.2099995593
0.2099996154
0.2099997345
0.2099998931
0.2100000888
0.2100003127
0.2100004368
0.2100001741
0.2100002038
0.2100002673
0.2100003525
0.2100004184
0.2100004266
0.2100004045
0.2100003939
0.2100003798
0.2100003338
0.2100002655
0.2100002075
0.2100001945
0.2100002387
0.2100003158
0.2100003845
0.2100004239
0.2100004366
0.2100004265
0.2100003943
0.2100003431
0.210000281
0.2100002155
0.2100001457
0.2100000637
0.2099999704
0.2099998884
0.2099998497
0.2099998742
0.2099999571
0.2100000832
0.2100002538
0.2100004845
0.2100007111
0.2100004338
0.2100003663
0.2100003302
0.2100003572
0.2100004213
0.2100004658
0.2100004901
0.2100005204
0.2100005375
0.2100005117
0.210000454
0.2100004004
0.2100003869
0.2100004278
0.2100005081
0.2100005956
0.210000668
0.2100007134
0.2100007228
0.2100006921
0.210000626
0.2100005393
0.2100004493
0.2100003665
0.2100002889
0.2100002107
0.2100001388
0.2100000937
0.2100000925
0.210000137
0.2100002183
0.210000336
0.2100005092
0.2100007139
0.2100007254
0.2100005754
0.2100004399
0.2100003813
0.2100004069
0.2100004663
0.2100005255
0.2100005848
0.2100006243
0.2100006201
0.2100005849
0.2100005513
0.2100005489
0.2100005888
0.2100006641
0.2100007618
0.2100008622
0.2100009388
0.2100009691
0.2100009446
0.2100008697
0.2100007633
0.2100006509
0.2100005521
0.2100004746
0.2100004096
0.2100003489
0.2100002999
0.2100002764
0.2100002862
0.2100003279
0.2100003996
0.2100005162
0.2100006713
0.210000999
0.2100007917
0.2100005826
0.2100004492
0.2100004216
0.2100004659
0.2100005316
0.2100005972
0.2100006431
0.2100006568
0.2100006523
0.2100006537
0.2100006769
0.2100007247
0.2100007953
0.210000896
0.2100010118
0.2100011076
0.2100011565
0.21000114
0.2100010599
0.2100009379
0.21000081
0.2100006981
0.2100006195
0.2100005661
0.2100005167
0.2100004667
0.2100004265
0.2100004087
0.2100004194
0.2100004575
0.2100005321
0.2100006399
0.2100012143
0.2100009785
0.210000723
0.2100005397
0.2100004674
0.2100004829
0.2100005334
0.2100005845
0.2100006196
0.210000641
0.2100006675
0.2100007106
0.2100007674
0.2100008302
0.2100008997
0.2100009984
0.2100011166
0.2100012204
0.2100012751
0.210001261
0.2100011794
0.2100010508
0.2100009131
0.2100007927
0.2100007139
0.210000671
0.2100006337
0.2100005876
0.2100005401
0.210000506
0.2100004961