/*--------------------------------*- C++ -*----------------------------------*\
  =========                 |
  \\      /  F ield         | OpenFOAM: The Open Source CFD Toolbox
   \\    /   O peration     | Website:  https://openfoam.org
    \\  /    A nd           | Version:  8
     \\/     M anipulation  |
\*---------------------------------------------------------------------------*/
FoamFile
{
    version     2.0;
    format      ascii;
    class       volScalarField;
    location    "1.8";
    object      p;
}
// * * * * * * * * * * * * * * * * * * * * * * * * * * * * * * * * * * * * * //

dimensions      [1 -1 -2 0 0 0 0];

internalField   nonuniform List<scalar> 
67193
(
100003.9385
100003.9167
100003.8957
100003.8767
100003.8605
100003.8473
100003.8381
100003.8322
100003.832
100003.8328
100003.831
100003.8277
100003.8243
100003.8217
100003.8206
100003.8211
100003.8232
100003.8272
100003.8329
100003.8381
100003.8415
100003.8427
100003.8426
100003.8423
100003.8432
100003.8458
100003.8501
100003.8561
100003.8631
100003.871
100003.8784
100003.8862
100003.8907
100003.8957
100003.8495
100003.8474
100003.8438
100003.838
100003.8296
100003.819
100003.8081
100003.7981
100003.7903
100003.7877
100003.786
100003.7856
100003.7866
100003.7886
100003.791
100003.7928
100003.7943
100003.795
100003.796
100003.7977
100003.8001
100003.8031
100003.8067
100003.8108
100003.8151
100003.8196
100003.8246
100003.8306
100003.8378
100003.8462
100003.8549
100003.8646
100003.8706
100003.879
100003.7985
100003.7993
100003.8016
100003.8036
100003.8033
100003.7981
100003.7886
100003.7783
100003.7719
100003.7694
100003.7674
100003.7664
100003.767
100003.7689
100003.7712
100003.7724
100003.773
100003.7722
100003.7728
100003.7743
100003.7766
100003.7798
100003.7841
100003.7894
100003.7951
100003.8005
100003.8058
100003.8119
100003.819
100003.8272
100003.836
100003.8466
100003.8537
100003.8652
100003.7577
100003.7556
100003.7579
100003.7636
100003.7695
100003.7713
100003.7661
100003.7567
100003.7498
100003.7467
100003.7443
100003.7431
100003.7436
100003.7452
100003.7477
100003.7486
100003.7489
100003.7477
100003.7493
100003.7512
100003.7533
100003.7559
100003.7603
100003.7663
100003.7731
100003.7794
100003.7852
100003.7914
100003.7983
100003.8061
100003.8145
100003.8252
100003.8332
100003.849
100003.7398
100003.7301
100003.7272
100003.7315
100003.7394
100003.7459
100003.746
100003.7397
100003.733
100003.7291
100003.7266
100003.7254
100003.7253
100003.7261
100003.7282
100003.7281
100003.7286
100003.7282
100003.7317
100003.7344
100003.7363
100003.738
100003.7415
100003.7477
100003.7553
100003.7622
100003.7681
100003.7743
100003.7808
100003.7878
100003.7953
100003.8057
100003.8137
100003.8323
100003.739
100003.7211
100003.7103
100003.7097
100003.7159
100003.7234
100003.7271
100003.7247
100003.7195
100003.7155
100003.7125
100003.7106
100003.7098
100003.7095
100003.711
100003.7099
100003.7109
100003.7124
100003.7172
100003.7198
100003.7214
100003.7225
100003.7253
100003.7315
100003.7398
100003.7472
100003.7533
100003.7593
100003.7655
100003.7716
100003.7781
100003.7879
100003.7955
100003.8151
100003.7488
100003.7249
100003.7059
100003.6996
100003.7022
100003.7077
100003.7118
100003.7119
100003.7086
100003.7059
100003.703
100003.6997
100003.6975
100003.6958
100003.6963
100003.694
100003.695
100003.699
100003.7043
100003.7063
100003.7069
100003.7077
100003.7107
100003.7173
100003.7264
100003.7343
100003.7404
100003.7461
100003.7518
100003.7574
100003.763
100003.7721
100003.7792
100003.7986
100003.7657
100003.7385
100003.7121
100003.701
100003.699
100003.7004
100003.7022
100003.7019
100003.699
100003.6971
100003.6954
100003.6921
100003.6887
100003.6855
100003.6846
100003.6805
100003.68
100003.6861
100003.6913
100003.6933
100003.6934
100003.6942
100003.6981
100003.7058
100003.7157
100003.7239
100003.7294
100003.7342
100003.7394
100003.7447
100003.7498
100003.7585
100003.7652
100003.7836
100003.7884
100003.7613
100003.7299
100003.7143
100003.7068
100003.7023
100003.6995
100003.6953
100003.689
100003.684
100003.6844
100003.6842
100003.6824
100003.6791
100003.6763
100003.6701
100003.6674
100003.6745
100003.6763
100003.6785
100003.6801
100003.683
100003.689
100003.6984
100003.7089
100003.7166
100003.7201
100003.7233
100003.7281
100003.7332
100003.7385
100003.7474
100003.7539
100003.7712
100003.8217
100003.7921
100003.7639
100003.7418
100003.7265
100003.7139
100003.7045
100003.6925
100003.6779
100003.665
100003.6668
100003.6717
100003.6758
100003.6763
100003.6719
100003.6629
100003.6625
100003.6704
100003.6622
100003.6603
100003.6658
100003.6737
100003.6838
100003.6957
100003.7061
100003.7117
100003.7114
100003.7134
100003.7177
100003.7231
100003.7289
100003.739
100003.746
100003.7627
100003.8715
100003.8355
100003.82
100003.7864
100003.76
100003.7367
100003.7198
100003.6952
100003.6688
100003.6529
100003.6499
100003.6545
100003.6674
100003.6771
100003.672
100003.6604
100003.6708
100003.6771
100003.6557
100003.644
100003.6506
100003.6649
100003.681
100003.6959
100003.7044
100003.7064
100003.7034
100003.7045
100003.7086
100003.7146
100003.7213
100003.733
100003.7411
100003.7579
100003.9513
100003.8971
100003.9215
100003.8529
100003.8108
100003.7733
100003.7499
100003.7088
100003.6817
100003.6861
100003.6652
100003.642
100003.6562
100003.681
100003.6779
100003.6627
100003.6855
100003.6854
100003.6536
100003.6323
100003.638
100003.6581
100003.6788
100003.6947
100003.7003
100003.6984
100003.6957
100003.6969
100003.7009
100003.7075
100003.7144
100003.7275
100003.7357
100003.7535
100004.0723
100003.971
100004.1098
100003.9355
100003.8819
100003.8256
100003.7946
100003.7416
100003.7268
100003.7583
100003.7114
100003.6461
100003.6404
100003.6784
100003.6804
100003.6644
100003.6824
100003.6762
100003.6428
100003.6246
100003.6342
100003.6564
100003.6769
100003.689
100003.6898
100003.6855
100003.6852
100003.6879
100003.6924
100003.6992
100003.7057
100003.7191
100003.7258
100003.7446
100004.2003
100004.0474
100004.4559
100004.0207
100003.9868
100003.8912
100003.8453
100003.7892
100003.7836
100003.8146
100003.7514
100003.6639
100003.6293
100003.6648
100003.6692
100003.6554
100003.6554
100003.646
100003.6241
100003.6252
100003.6399
100003.6571
100003.6704
100003.6746
100003.6705
100003.6661
100003.6679
100003.6734
100003.6793
100003.6869
100003.6935
100003.7073
100003.713
100003.7353
100004.4681
100004.0969
100005.1017
100004.1102
100004.1498
100003.9509
100003.8851
100003.8274
100003.7934
100003.7833
100003.711
100003.6246
100003.5958
100003.6386
100003.6604
100003.645
100003.6229
100003.6242
100003.6228
100003.6291
100003.6382
100003.6484
100003.6548
100003.6519
100003.6457
100003.6421
100003.6453
100003.6541
100003.6623
100003.6717
100003.6798
100003.6957
100003.7025
100003.7339
100004.6284
100004.2121
100006.314
100004.2634
100004.3424
100003.9914
100003.8694
100003.8083
100003.7603
100003.7001
100003.6358
100003.6067
100003.6232
100003.646
100003.6546
100003.6312
100003.6185
100003.6231
100003.6227
100003.6242
100003.628
100003.6333
100003.6344
100003.6265
100003.621
100003.6193
100003.6249
100003.637
100003.6482
100003.6595
100003.6694
100003.6888
100003.6995
100003.7444
100004.6378
100004.1714
100005.6331
100004.2763
100004.3386
100003.9859
100003.8226
100003.7455
100003.7012
100003.6629
100003.6343
100003.6358
100003.6563
100003.6764
100003.6673
100003.6349
100003.6298
100003.6234
100003.6182
100003.6147
100003.6145
100003.6176
100003.6142
100003.6048
100003.6028
100003.606
100003.6175
100003.6345
100003.6479
100003.6586
100003.669
100003.6915
100003.7075
100003.7667
100004.1435
100004.0607
100004.4861
100004.1404
100004.1249
100003.931
100003.7832
100003.6932
100003.66
100003.6485
100003.6446
100003.6562
100003.675
100003.6818
100003.6576
100003.6282
100003.6191
100003.611
100003.6081
100003.6046
100003.6032
100003.6059
100003.5995
100003.5925
100003.5971
100003.61
100003.6301
100003.6513
100003.6654
100003.6742
100003.683
100003.7077
100003.7292
100003.8006
100004.2428
100004.0113
100004.3994
100004.0722
100004.0609
100003.8854
100003.7446
100003.6568
100003.6266
100003.6324
100003.6498
100003.6704
100003.683
100003.678
100003.65
100003.6259
100003.6148
100003.6069
100003.6035
100003.6008
100003.5994
100003.6026
100003.5965
100003.5946
100003.609
100003.6326
100003.6604
100003.6842
100003.698
100003.7051
100003.7129
100003.7397
100003.7662
100003.8464
100003.9994
100003.9607
100003.9963
100003.905
100003.8501
100003.7538
100003.6749
100003.6347
100003.6296
100003.6382
100003.6513
100003.6625
100003.6641
100003.6546
100003.6438
100003.6241
100003.6129
100003.6045
100003.6021
100003.6057
100003.6119
100003.6122
100003.6091
100003.6139
100003.6394
100003.6713
100003.7049
100003.7298
100003.7433
100003.7497
100003.7585
100003.7881
100003.8191
100003.9043
100003.9498
100003.9334
100003.9612
100003.8818
100003.8045
100003.7334
100003.6877
100003.6604
100003.6508
100003.6538
100003.6629
100003.67
100003.6677
100003.6585
100003.6523
100003.6337
100003.6183
100003.6058
100003.6029
100003.6159
100003.6365
100003.6349
100003.637
100003.6518
100003.6853
100003.723
100003.7598
100003.7851
100003.7988
100003.8066
100003.8188
100003.8526
100003.8874
100003.9742
100003.9006
100003.8769
100003.859
100003.8265
100003.7792
100003.7295
100003.6935
100003.6679
100003.661
100003.6606
100003.6681
100003.6759
100003.6774
100003.6756
100003.6706
100003.6535
100003.631
100003.6126
100003.6065
100003.624
100003.6563
100003.6626
100003.6753
100003.7028
100003.7419
100003.7834
100003.8213
100003.847
100003.8618
100003.8735
100003.8923
100003.9322
100003.9702
100004.0561
100003.9097
100003.8787
100003.8385
100003.7941
100003.7547
100003.7166
100003.686
100003.6636
100003.6667
100003.6604
100003.6705
100003.6829
100003.6905
100003.6959
100003.6934
100003.678
100003.6488
100003.626
100003.615
100003.629
100003.6641
100003.6868
100003.718
100003.7587
100003.8035
100003.8478
100003.8865
100003.9135
100003.9299
100003.9478
100003.9761
100004.0247
100004.0654
100004.1492
100003.9707
100003.9515
100003.8858
100003.8089
100003.7546
100003.7168
100003.6927
100003.6474
100003.6394
100003.6409
100003.6692
100003.6904
100003.7037
100003.7149
100003.7141
100003.6984
100003.6669
100003.6425
100003.6277
100003.6365
100003.6692
100003.7105
100003.7612
100003.8142
100003.8647
100003.9137
100003.9545
100003.9829
100003.9995
100004.0252
100004.0655
100004.126
100004.1677
100004.249
100004.0095
100003.9861
100003.978
100003.9234
100003.8327
100003.7635
100003.7224
100003.7102
100003.6983
100003.7742
100003.6509
100003.6876
100003.7094
100003.721
100003.7328
100003.7297
100003.7119
100003.6819
100003.6592
100003.6428
100003.6498
100003.6847
100003.7373
100003.801
100003.8647
100003.923
100003.9827
100004.0299
100004.0574
100004.0653
100004.096
100004.1494
100004.2243
100004.2644
100004.3428
100004.121
100004.0084
100004.0892
100004.0582
100003.8709
100003.7761
100003.7283
100003.7084
100003.6883
100003.69
100003.6685
100003.6955
100003.722
100003.7354
100003.7468
100003.7388
100003.719
100003.6952
100003.6783
100003.6626
100003.6675
100003.7022
100003.7588
100003.8293
100003.9052
100003.9797
100004.0622
100004.1303
100004.1502
100004.1281
100004.1475
100004.2076
100004.2983
100004.3346
100004.4081
100004.0057
100003.9962
100004.0123
100004.021
100003.8877
100003.7908
100003.7382
100003.7165
100003.7098
100003.7175
100003.714
100003.7271
100003.7498
100003.7552
100003.761
100003.7447
100003.724
100003.7072
100003.7002
100003.6883
100003.6895
100003.7185
100003.7729
100003.8437
100003.9303
100004.0313
100004.1644
100004.2743
100004.2779
100004.2017
100004.1805
100004.228
100004.3099
100004.3435
100004.4181
100004.0016
100003.9632
100003.9432
100003.9038
100003.8273
100003.7676
100003.7389
100003.7256
100003.7209
100003.7288
100003.7365
100003.7501
100003.7754
100003.7764
100003.7769
100003.7501
100003.7303
100003.7192
100003.7229
100003.7174
100003.7144
100003.7322
100003.7733
100003.8298
100003.9203
100004.0528
100004.2512
100004.3801
100004.345
100004.2082
100004.1294
100004.1436
100004.2218
100004.2742
100004.3566
100003.9345
100003.9244
100003.9467
100004.0893
100003.834
100003.7688
100003.7402
100003.7314
100003.7379
100003.7562
100003.7777
100003.8436
100003.8042
100003.7957
100003.7559
100003.7408
100003.7335
100003.7464
100003.7531
100003.7563
100003.7736
100003.8198
100003.8428
100003.8848
100004.0075
100004.2186
100004.3283
100004.2537
100004.1209
100004.0593
100004.0956
100004.1661
100004.2054
100004.2761
100003.8956
100003.8666
100003.8418
100003.8113
100003.7771
100003.7523
100003.7398
100003.7368
100003.7434
100003.7574
100003.7743
100003.7982
100003.8926
100003.8886
100003.981
100004.0471
100004.006
100003.9832
100004.0051
100004.0536
100004.105
100004.134
100004.194
100003.8496
100003.8335
100003.7902
100003.7632
100003.7489
100003.7443
100003.7592
100003.7554
100003.7484
100003.7396
100003.7309
100003.7224
100003.7137
100003.7036
100003.6971
100003.6959
100003.6952
100003.6955
100003.697
100003.6996
100003.7018
100003.7027
100003.7025
100003.7023
100003.7032
100003.7051
100003.7079
100003.7109
100003.7139
100003.717
100003.7199
100003.7228
100003.7262
100003.7308
100003.737
100003.745
100003.7536
100003.7634
100003.7697
100003.7749
100003.6855
100003.6948
100003.7015
100003.704
100003.7021
100003.6955
100003.684
100003.6707
100003.6602
100003.6563
100003.6553
100003.6572
100003.6619
100003.6679
100003.6732
100003.6756
100003.6746
100003.6715
100003.6694
100003.6692
100003.6714
100003.6757
100003.6815
100003.688
100003.694
100003.6987
100003.7027
100003.7076
100003.714
100003.7223
100003.7316
100003.7431
100003.7509
100003.7597
100003.6388
100003.6465
100003.6567
100003.6662
100003.6726
100003.6718
100003.6615
100003.6488
100003.6411
100003.6383
100003.6371
100003.6379
100003.6412
100003.6463
100003.6514
100003.6533
100003.6507
100003.6466
100003.6449
100003.6453
100003.6474
100003.6514
100003.6576
100003.6653
100003.6727
100003.6786
100003.6834
100003.6887
100003.695
100003.7028
100003.7116
100003.7229
100003.7317
100003.7431
100003.6013
100003.6045
100003.612
100003.6232
100003.6355
100003.6424
100003.6383
100003.6276
100003.62
100003.6166
100003.6153
100003.6155
100003.6181
100003.6224
100003.6271
100003.6281
100003.6244
100003.6205
100003.6203
100003.6214
100003.6237
100003.6273
100003.6329
100003.641
100003.6498
100003.6569
100003.6623
100003.6679
100003.6744
100003.6816
100003.6894
100003.7003
100003.709
100003.7234
100003.579
100003.5779
100003.5811
100003.5896
100003.6027
100003.6148
100003.6178
100003.6115
100003.604
100003.5997
100003.5981
100003.5981
100003.6
100003.603
100003.6066
100003.6064
100003.6019
100003.5993
100003.6003
100003.6019
100003.6043
100003.608
100003.6134
100003.6213
100003.6308
100003.6388
100003.6444
100003.6501
100003.6564
100003.663
100003.6698
100003.68
100003.6884
100003.7045
100003.5694
100003.5633
100003.5624
100003.5674
100003.5781
100003.5913
100003.5988
100003.5978
100003.5916
100003.5869
100003.5846
100003.584
100003.5848
100003.5862
100003.5886
100003.5873
100003.5822
100003.5811
100003.5827
100003.5844
100003.5869
100003.5906
100003.5962
100003.6042
100003.6143
100003.6228
100003.6286
100003.6341
100003.64
100003.6463
100003.6523
100003.6617
100003.6697
100003.6865
100003.5713
100003.5599
100003.5548
100003.5563
100003.5638
100003.5749
100003.5834
100003.5857
100003.582
100003.5774
100003.5746
100003.5728
100003.572
100003.5718
100003.573
100003.5702
100003.5633
100003.5643
100003.5665
100003.5683
100003.5708
100003.5748
100003.581
100003.5895
100003.6002
100003.6091
100003.6147
100003.6198
100003.6253
100003.6313
100003.6369
100003.6457
100003.6533
100003.6699
100003.5824
100003.5667
100003.5581
100003.5557
100003.5597
100003.5672
100003.5736
100003.5758
100003.5722
100003.5656
100003.5633
100003.5621
100003.561
100003.5599
100003.5595
100003.5542
100003.5436
100003.5461
100003.5489
100003.5517
100003.5554
100003.5605
100003.5681
100003.5776
100003.5891
100003.5981
100003.6027
100003.607
100003.612
100003.6179
100003.6235
100003.6322
100003.6394
100003.6555
100003.5985
100003.5817
100003.5726
100003.5662
100003.5661
100003.5681
100003.5699
100003.5679
100003.5569
100003.541
100003.5393
100003.5443
100003.5493
100003.5505
100003.5475
100003.5374
100003.5248
100003.5269
100003.5283
100003.5316
100003.5394
100003.5489
100003.5591
100003.5706
100003.5826
100003.5902
100003.5923
100003.5953
100003.6002
100003.6061
100003.6119
100003.6213
100003.6286
100003.6443
100003.6236
100003.609
100003.6026
100003.59
100003.5834
100003.5775
100003.5723
100003.5601
100003.5333
100003.5088
100003.5029
100003.5108
100003.5292
100003.5408
100003.5348
100003.5184
100003.5089
100003.5099
100003.5083
100003.5088
100003.5191
100003.537
100003.5541
100003.5687
100003.5802
100003.5842
100003.5825
100003.5844
100003.5891
100003.5957
100003.6025
100003.6137
100003.6217
100003.638
100003.6919
100003.6645
100003.6591
100003.6294
100003.6119
100003.5952
100003.5813
100003.553
100003.5109
100003.4897
100003.4772
100003.4711
100003.4924
100003.5252
100003.5179
100003.4982
100003.4949
100003.4957
100003.4922
100003.4892
100003.4976
100003.5229
100003.5501
100003.5692
100003.5786
100003.5771
100003.5735
100003.5747
100003.5791
100003.5867
100003.5947
100003.6088
100003.6187
100003.6364
100003.7514
100003.722
100003.7544
100003.6806
100003.6493
100003.6194
100003.5959
100003.5516
100003.5038
100003.4825
100003.466
100003.4485
100003.4501
100003.4971
100003.4987
100003.4792
100003.4828
100003.4833
100003.4797
100003.4771
100003.4827
100003.5093
100003.5447
100003.5665
100003.572
100003.5674
100003.5647
100003.5654
100003.5699
100003.5784
100003.5876
100003.6039
100003.6158
100003.6356
100003.8261
100003.778
100003.9387
100003.7364
100003.6983
100003.6468
100003.6139
100003.557
100003.509
100003.4859
100003.4588
100003.4402
100003.4174
100003.4581
100003.4842
100003.4635
100003.4709
100003.4712
100003.4697
100003.4682
100003.4756
100003.5043
100003.5402
100003.5581
100003.5582
100003.5532
100003.5527
100003.5543
100003.5587
100003.5677
100003.5771
100003.5947
100003.6068
100003.6296
100004.021
100003.837
100004.3449
100003.7882
100003.7776
100003.6733
100003.6315
100003.5711
100003.5171
100003.4907
100003.4564
100003.4392
100003.4145
100003.4318
100003.4741
100003.458
100003.461
100003.4602
100003.4616
100003.4606
100003.4779
100003.5096
100003.535
100003.542
100003.5363
100003.5311
100003.5327
100003.5364
100003.5416
100003.5508
100003.5594
100003.5789
100003.5898
100003.6179
100004.2728
100003.8823
100005.1281
100003.7988
100003.9107
100003.6945
100003.6314
100003.58
100003.515
100003.4727
100003.4379
100003.424
100003.4008
100003.4113
100003.4675
100003.4649
100003.4579
100003.4564
100003.4615
100003.4724
100003.4895
100003.51
100003.5217
100003.5174
100003.5083
100003.5031
100003.5062
100003.5132
100003.5209
100003.5305
100003.5386
100003.5591
100003.5706
100003.6053
100004.5228
100004.109
100008.803
100003.8542
100004.1055
100003.7064
100003.5989
100003.565
100003.5131
100003.457
100003.4234
100003.4128
100003.4281
100003.4788
100003.4998
100003.4801
100003.4664
100003.4733
100003.4752
100003.4797
100003.4844
100003.4971
100003.5004
100003.4885
100003.4797
100003.4774
100003.4831
100003.4939
100003.5046
100003.5149
100003.5226
100003.5435
100003.5563
100003.6006
100004.1715
100003.9066
100004.7791
100003.7163
100003.8745
100003.6339
100003.5454
100003.4978
100003.4813
100003.4607
100003.4432
100003.4522
100003.491
100003.5221
100003.5121
100003.489
100003.4779
100003.4764
100003.4725
100003.4701
100003.4677
100003.4793
100003.4769
100003.4619
100003.458
100003.461
100003.4712
100003.4852
100003.4978
100003.5092
100003.5179
100003.5394
100003.5548
100003.6095
100003.9417
100003.828
100004.2235
100003.7304
100003.695
100003.5687
100003.4986
100003.4619
100003.4496
100003.4566
100003.473
100003.501
100003.527
100003.5315
100003.5075
100003.4883
100003.4773
100003.4696
100003.4641
100003.4591
100003.4509
100003.4626
100003.4564
100003.4435
100003.4469
100003.4561
100003.4712
100003.4884
100003.503
100003.5156
100003.5269
100003.5511
100003.5706
100003.6347
100003.931
100003.7764
100003.9735
100003.6823
100003.6542
100003.5426
100003.475
100003.4437
100003.4334
100003.4466
100003.4828
100003.5183
100003.5371
100003.529
100003.5047
100003.4877
100003.4759
100003.4656
100003.4583
100003.4512
100003.4391
100003.4525
100003.4446
100003.4374
100003.4492
100003.4645
100003.486
100003.5067
100003.5235
100003.5375
100003.5517
100003.5798
100003.6047
100003.676
100003.8253
100003.779
100003.7635
100003.6405
100003.5713
100003.503
100003.4593
100003.4428
100003.4523
100003.4788
100003.5072
100003.5281
100003.5337
100003.5214
100003.5047
100003.4893
100003.4769
100003.4638
100003.4535
100003.4466
100003.4406
100003.4536
100003.4458
100003.4493
100003.4668
100003.4887
100003.5158
100003.5399
100003.5593
100003.5759
100003.5939
100003.6264
100003.6568
100003.7324
100003.7651
100003.7415
100003.7498
100003.6506
100003.5686
100003.508
100003.4786
100003.4749
100003.4893
100003.5098
100003.5291
100003.5429
100003.5437
100003.5326
100003.5171
100003.4992
100003.4834
100003.4635
100003.4495
100003.446
100003.4503
100003.4682
100003.4664
100003.4773
100003.5002
100003.5275
100003.559
100003.5864
100003.609
100003.6298
100003.6532
100003.6909
100003.726
100003.8034
100003.7101
100003.678
100003.6563
100003.6226
100003.5799
100003.5427
100003.5159
100003.5049
100003.508
100003.5213
100003.5373
100003.5499
100003.5538
100003.5503
100003.5374
100003.5168
100003.4962
100003.4675
100003.45
100003.451
100003.4651
100003.4872
100003.4961
100003.5154
100003.5452
100003.5775
100003.612
100003.643
100003.67
100003.6971
100003.7285
100003.7732
100003.8119
100003.8893
100003.7055
100003.6673
100003.6316
100003.5949
100003.5642
100003.5416
100003.509
100003.4956
100003.494
100003.5125
100003.5353
100003.5526
100003.5629
100003.5679
100003.5592
100003.539
100003.5149
100003.4806
100003.4599
100003.4617
100003.4806
100003.5041
100003.5263
100003.5572
100003.5963
100003.6328
100003.6674
100003.7029
100003.7369
100003.7742
100003.8172
100003.8728
100003.9135
100003.9902
100003.729
100003.6862
100003.6381
100003.5926
100003.5574
100003.5376
100003.4873
100003.4795
100003.4667
100003.4921
100003.5251
100003.553
100003.5708
100003.5832
100003.5775
100003.559
100003.5343
100003.4992
100003.4758
100003.4743
100003.4933
100003.5208
100003.5562
100003.5987
100003.6475
100003.6846
100003.7131
100003.7533
100003.7984
100003.8521
100003.9127
100003.9871
100004.0262
100004.1013
100003.7835
100003.7604
100003.7368
100003.6821
100003.617
100003.5714
100003.5406
100003.5105
100003.5147
100003.4092
100003.4718
100003.5189
100003.5582
100003.5819
100003.5973
100003.59
100003.5717
100003.5477
100003.5137
100003.4903
100003.488
100003.5067
100003.5399
100003.5849
100003.6362
100003.6924
100003.7224
100003.7402
100003.7823
100003.8364
100003.9112
100003.9969
100004.1061
100004.1353
100004.2062
100003.6684
100003.773
100003.8238
100003.7154
100003.6108
100003.572
100003.5501
100003.5413
100003.5427
100003.4925
100003.5054
100003.5394
100003.5755
100003.5954
100003.6095
100003.5962
100003.5777
100003.5591
100003.5321
100003.5094
100003.5059
100003.5239
100003.5593
100003.608
100003.6642
100003.7213
100003.7383
100003.7545
100003.7937
100003.8428
100003.9278
100004.0352
100004.1941
100004.2034
100004.2698
100003.777
100003.7862
100003.8017
100003.9473
100003.6633
100003.5978
100003.5702
100003.5609
100003.5604
100003.5583
100003.5714
100003.5941
100003.6219
100003.6189
100003.6242
100003.5996
100003.5814
100003.5702
100003.5554
100003.5355
100003.5274
100003.5436
100003.5763
100003.6209
100003.6737
100003.722
100003.7372
100003.7677
100003.803
100003.8359
100003.9057
100004.0135
100004.1627
100004.1914
100004.2603
100003.7258
100003.719
100003.6939
100003.66
100003.6009
100003.5758
100003.5722
100003.5739
100003.5776
100003.5851
100003.6017
100003.6196
100003.6693
100003.6443
100003.6431
100003.604
100003.5874
100003.5793
100003.5782
100003.5706
100003.5555
100003.5657
100003.5898
100003.6186
100003.6524
100003.6894
100003.7188
100003.7651
100003.7882
100003.797
100003.8323
100003.9045
100004.0233
100004.0796
100004.1478
100003.724
100003.6934
100003.6592
100003.3636
100003.5445
100003.5811
100003.5867
100003.5926
100003.6083
100003.6487
100003.6768
100004.1326
100003.6937
100003.6764
100003.6135
100003.596
100003.5876
100003.5932
100003.6128
100003.5983
100003.6
100003.6127
100003.6086
100003.5998
100003.6154
100003.6444
100003.7045
100003.7282
100003.7471
100003.7957
100003.8781
100003.9757
100004.0241
100004.0911
100003.7287
100003.6928
100003.661
100003.6257
100003.6052
100003.597
100003.5962
100003.6003
100003.6108
100003.6283
100003.6461
100003.6823
100003.6293
100003.6072
100003.5873
100003.6236
100003.6528
100003.6845
100003.7415
100003.8258
100003.9044
100003.9439
100004.0015
100003.609
100003.587
100003.5954
100003.6002
100003.6034
100003.6077
100003.5776
100003.5766
100003.5747
100003.5725
100003.5699
100003.5676
100003.5655
100003.5638
100003.5629
100003.5626
100003.5616
100003.5607
100003.5606
100003.5611
100003.562
100003.5631
100003.5642
100003.5656
100003.5671
100003.5687
100003.5702
100003.5717
100003.5733
100003.5753
100003.5781
100003.5818
100003.5866
100003.5924
100003.5989
100003.6063
100003.6132
100003.6213
100003.6261
100003.6295
100003.5388
100003.5414
100003.5438
100003.5448
100003.5446
100003.5435
100003.5415
100003.5388
100003.5358
100003.5339
100003.5333
100003.5342
100003.536
100003.5383
100003.5403
100003.5418
100003.5427
100003.5432
100003.5438
100003.5447
100003.5462
100003.5486
100003.552
100003.5562
100003.561
100003.5665
100003.5726
100003.5792
100003.5861
100003.5933
100003.5999
100003.6074
100003.6118
100003.6168
100003.5068
100003.51
100003.5142
100003.5185
100003.5217
100003.5227
100003.5212
100003.5185
100003.516
100003.5145
100003.5142
100003.5152
100003.517
100003.5191
100003.5212
100003.5224
100003.5228
100003.5231
100003.5237
100003.5248
100003.5267
100003.5296
100003.5336
100003.5387
100003.5445
100003.5508
100003.5575
100003.5647
100003.5719
100003.5792
100003.5856
100003.593
100003.5971
100003.6021
100003.4732
100003.4755
100003.4806
100003.487
100003.4935
100003.4981
100003.4988
100003.4968
100003.4945
100003.4928
100003.4924
100003.4933
100003.495
100003.4971
100003.4993
100003.5004
100003.5005
100003.5007
100003.5015
100003.5028
100003.5049
100003.5081
100003.5126
100003.5184
100003.525
100003.5319
100003.5389
100003.5462
100003.5535
100003.5607
100003.5672
100003.5744
100003.5785
100003.5843
100003.4497
100003.4494
100003.4526
100003.4594
100003.4677
100003.4749
100003.4784
100003.478
100003.4762
100003.4747
100003.4742
100003.4748
100003.4761
100003.4778
100003.4797
100003.4804
100003.4805
100003.4809
100003.482
100003.4836
100003.4859
100003.4892
100003.494
100003.5003
100003.5074
100003.5145
100003.5215
100003.5285
100003.5355
100003.5424
100003.5487
100003.556
100003.5602
100003.567
100003.4355
100003.4325
100003.4329
100003.4376
100003.4462
100003.4545
100003.4602
100003.4619
100003.4609
100003.4596
100003.459
100003.459
100003.4597
100003.4607
100003.4621
100003.4626
100003.4628
100003.4634
100003.4645
100003.4661
100003.4684
100003.4718
100003.4769
100003.4835
100003.491
100003.4983
100003.5052
100003.5118
100003.5184
100003.5249
100003.531
100003.5383
100003.5428
100003.5502
100003.4323
100003.425
100003.4229
100003.4245
100003.4314
100003.4392
100003.4456
100003.4488
100003.4488
100003.4479
100003.447
100003.4462
100003.4459
100003.446
100003.4469
100003.4472
100003.4476
100003.4482
100003.449
100003.4501
100003.4522
100003.4558
100003.4611
100003.4681
100003.4761
100003.4836
100003.4903
100003.4967
100003.5029
100003.5092
100003.5152
100003.5225
100003.5272
100003.5347
100003.4398
100003.4276
100003.423
100003.4207
100003.4245
100003.4301
100003.4356
100003.439
100003.4395
100003.4386
100003.4374
100003.4356
100003.4343
100003.4337
100003.4342
100003.4344
100003.4344
100003.4349
100003.4351
100003.4359
100003.4377
100003.4414
100003.447
100003.4546
100003.4631
100003.4707
100003.4771
100003.4831
100003.4892
100003.4953
100003.5014
100003.509
100003.5138
100003.5212
100003.4574
100003.4405
100003.4344
100003.4265
100003.4263
100003.4278
100003.431
100003.433
100003.4325
100003.4304
100003.4285
100003.4261
100003.4244
100003.4237
100003.4241
100003.424
100003.4228
100003.4227
100003.4223
100003.4231
100003.4242
100003.4284
100003.4353
100003.4438
100003.4527
100003.4599
100003.4654
100003.4708
100003.4766
100003.4831
100003.4897
100003.498
100003.503
100003.5104
100003.4884
100003.4648
100003.4611
100003.4426
100003.4376
100003.4329
100003.4324
100003.4317
100003.4283
100003.4232
100003.4195
100003.4165
100003.4152
100003.4155
100003.4157
100003.4143
100003.4119
100003.4108
100003.4094
100003.4104
100003.4124
100003.4181
100003.4265
100003.4361
100003.4449
100003.4509
100003.4548
100003.4596
100003.4654
100003.4725
100003.4799
100003.4896
100003.4953
100003.5032
100003.5377
100003.4998
100003.5111
100003.4696
100003.4595
100003.4455
100003.4409
100003.4366
100003.4274
100003.4152
100003.4093
100003.4059
100003.4054
100003.4077
100003.4078
100003.4032
100003.4007
100003.3987
100003.3963
100003.3987
100003.4027
100003.4101
100003.4198
100003.4302
100003.4378
100003.4417
100003.4447
100003.4491
100003.455
100003.4631
100003.4716
100003.4829
100003.4905
100003.4992
100003.6027
100003.5368
100003.6002
100003.4997
100003.4935
100003.4644
100003.4568
100003.4484
100003.4288
100003.4085
100003.3954
100003.393
100003.3946
100003.3988
100003.3987
100003.3906
100003.3893
100003.3873
100003.3851
100003.3893
100003.3957
100003.4036
100003.4134
100003.4232
100003.4287
100003.4311
100003.4338
100003.4383
100003.4447
100003.4537
100003.4633
100003.4761
100003.4856
100003.4955
100003.6875
100003.5672
100003.7456
100003.5177
100003.5411
100003.4853
100003.4776
100003.4634
100003.4334
100003.4057
100003.3852
100003.377
100003.3831
100003.3877
100003.3885
100003.3792
100003.3788
100003.3773
100003.3771