/*--------------------------------*- C++ -*----------------------------------*\
  =========                 |
  \\      /  F ield         | OpenFOAM: The Open Source CFD Toolbox
   \\    /   O peration     | Website:  https://openfoam.org
    \\  /    A nd           | Version:  8
     \\/     M anipulation  |
\*---------------------------------------------------------------------------*/
FoamFile
{
    version     2.0;
    format      ascii;
    class       surfaceScalarField;
    location    "1.8";
    object      phi;
}
// * * * * * * * * * * * * * * * * * * * * * * * * * * * * * * * * * * * * * //

dimensions      [1 0 -1 0 0 0 0];

internalField   nonuniform List<scalar> 
196504
(
1.707286945e-05
-2.902452524e-05
2.535190278e-05
1.712736857e-05
-2.355869408e-05
2.350402027e-05
1.563013514e-05
-1.901457726e-05
2.051169883e-05
1.336126412e-05
-1.543879227e-05
1.770761838e-05
1.043820566e-05
-1.299934631e-05
1.592242922e-05
7.182281288e-06
-1.192580986e-05
1.518182626e-05
4.128781151e-06
-1.215705713e-05
1.521071318e-05
4.377577833e-06
-1.378080718e-05
1.353222376e-05
9.801563281e-06
-1.691116841e-05
1.14874456e-05
1.616502641e-05
-1.787767718e-05
1.151451851e-05
2.123134361e-05
-1.763774008e-05
1.257175855e-05
2.405878527e-05
-1.673305892e-05
1.39059736e-05
2.443178181e-05
-1.524597333e-05
1.487334307e-05
2.273713712e-05
-1.345079329e-05
1.514580381e-05
1.997284248e-05
-1.197826003e-05
1.474291179e-05
1.713191274e-05
-1.135794867e-05
1.41992217e-05
1.486395042e-05
-1.166591846e-05
1.393420697e-05
1.442953408e-05
-1.348839978e-05
1.392312258e-05
1.627286988e-05
-1.600622739e-05
1.416317574e-05
1.93396275e-05
-1.75747557e-05
1.450825713e-05
2.227521467e-05
-1.789145491e-05
1.495609888e-05
2.409781155e-05
-1.715913389e-05
1.533673748e-05
2.433692876e-05
-1.567352807e-05
1.543457813e-05
2.296540459e-05
-1.391911377e-05
1.529077024e-05
2.04565134e-05
-1.24535533e-05
1.496254135e-05
1.753609894e-05
-1.172746025e-05
1.464793674e-05
1.486082273e-05
-1.180266087e-05
1.447796521e-05
1.269570584e-05
-1.229173986e-05
1.445685195e-05
1.087724733e-05
-1.27024377e-05
1.452085973e-05
9.041411001e-06
-1.269210079e-05
1.452787103e-05
6.898169723e-06
-1.228733825e-05
1.443048703e-05
4.620161384e-06
-1.179167639e-05
1.406957069e-05
2.435110437e-06
-1.15386171e-05
1.372353928e-05
-1.083908721e-05
1.327406226e-05
1.813592337e-05
-4.844549649e-05
1.526733041e-05
1.990216969e-05
-4.256283936e-05
1.723772622e-05
1.921540689e-05
-3.639004932e-05
1.806212371e-05
1.653188097e-05
-3.056762806e-05
1.781230991e-05
1.236576402e-05
-2.576740853e-05
1.693418829e-05
8.004282597e-06
-2.283719378e-05
1.527293859e-05
6.051282372e-06
-2.232698501e-05
1.212306423e-05
8.163390108e-06
-2.327099922e-05
7.378276124e-06
1.241901283e-05
-2.479781808e-05
3.631264706e-06
1.693281128e-05
-2.524174037e-05
2.850544647e-06
2.05755068e-05
-2.51562275e-05
3.876104588e-06
2.242868075e-05
-2.459726193e-05
6.011365593e-06
2.219111484e-05
-2.34956117e-05
8.487554711e-06
2.022549639e-05
-2.198028898e-05
1.04954672e-05
1.741066237e-05
-2.076930507e-05
1.160622437e-05
1.475364567e-05
-2.041594911e-05
1.171534896e-05
1.366789483e-05
-2.142920034e-05
1.084934892e-05
1.466787252e-05
-2.377161078e-05
9.283530973e-06
1.713614352e-05
-2.652487782e-05
8.050655526e-06
2.003615046e-05
-2.811219373e-05
7.637683111e-06
2.244355045e-05
-2.839594707e-05
8.097317935e-06
2.365477693e-05
-2.753428317e-05
9.164120026e-06
2.339158644e-05
-2.576669572e-05
1.035652383e-05
2.186032082e-05
-2.357407652e-05
1.118635905e-05
1.973769417e-05
-2.159753935e-05
1.126670651e-05
1.783063643e-05
-2.04541598e-05
1.063381505e-05
1.658745717e-05
-2.032665618e-05
9.767198455e-06
1.59159477e-05
-2.082476626e-05
9.20452782e-06
1.53420487e-05
-2.139056916e-05
9.261992548e-06
1.4292061e-05
-2.157315119e-05
9.930973163e-06
1.210131936e-05
-2.122037437e-05
1.112368924e-05
8.423444721e-06
-2.050113541e-05
1.238722525e-05
3.690919933e-06
-2.005169903e-05
1.324548273e-05
-2.0936336e-05
1.378803603e-05
2.301908334e-05
-5.993341137e-05
6.189307176e-06
2.578936589e-05
-5.508537366e-05
9.75206015e-06
2.56665731e-05
-4.918741402e-05
1.292003437e-05
2.256623636e-05
-4.281636785e-05
1.534901633e-05
1.695510555e-05
-3.657487312e-05
1.64185912e-05
1.057262995e-05
-3.157118662e-05
1.51165185e-05
7.150096679e-06
-2.925569615e-05
1.035134904e-05
8.646808049e-06
-2.885086394e-05
4.083309636e-06
1.279009185e-05
-2.872164383e-05
-2.192553835e-07
1.724650752e-05
-2.837066678e-05
-1.327244023e-06
2.08036273e-05
-2.827331723e-05
-4.397518076e-07
2.252644448e-05
-2.81951819e-05
1.875406102e-06
2.203814645e-05
-2.781911435e-05
4.812120865e-06
1.955150993e-05
-2.701855233e-05
7.525227017e-06
1.586387863e-05
-2.650174545e-05
9.420395225e-06
1.234096431e-05
-2.659039785e-05
9.697676189e-06
1.161066176e-05
-2.851304256e-05
7.8144446e-06
1.362692923e-05
-3.065768899e-05
4.87009325e-06
1.703159426e-05
-3.275384333e-05
2.824562552e-06
2.063304012e-05
-3.378668929e-05
2.073288673e-06
2.351425014e-05
-3.38294749e-05
2.552531653e-06
2.495464926e-05
-3.29656292e-05
3.991133883e-06
2.455523197e-05
-3.127907611e-05
5.911955328e-06
2.25668122e-05
-2.913746202e-05
7.551929874e-06
1.995942736e-05
-2.709936827e-05
8.109301875e-06
1.798835803e-05
-2.580399044e-05
7.320951517e-06
1.728494494e-05
-2.553298316e-05
5.909757786e-06
1.758568251e-05
-2.59974344e-05
4.871917068e-06
1.819600803e-05
-2.672116145e-05
4.720224217e-06
1.835537378e-05
-2.728033968e-05
5.547754195e-06
1.72230249e-05
-2.737506335e-05
7.286947511e-06
1.409698221e-05
-2.696945507e-05
9.594254591e-06
8.446296837e-06
-2.6412771e-05
1.201163535e-05
-2.692387728e-05
1.443370499e-05
2.725448915e-05
-6.533618125e-05
-1.075944479e-06
3.100716516e-05
-6.172860228e-05
2.890343511e-06
3.172784314e-05
-5.69478229e-05
7.039593938e-06
2.913952735e-05
-5.120964392e-05
1.098152241e-05
2.340362571e-05
-4.483516195e-05
1.399617882e-05
1.605476818e-05
-3.85706374e-05
1.434834323e-05
1.084602726e-05
-3.431248408e-05
1.026560473e-05
1.054641614e-05
-3.226288796e-05
3.711753657e-06
1.349166081e-05
-3.053097528e-05
-1.135751482e-06
1.723140626e-05
-2.935961616e-05
-2.750593542e-06
2.025235156e-05
-2.914737049e-05
-2.146657127e-06
2.163369576e-05
-2.948762441e-05
-8.864130751e-08
2.090686106e-05
-2.984524893e-05
2.75324899e-06
1.811841561e-05
-2.974831567e-05
5.518499609e-06
1.382701033e-05
-2.986341846e-05
7.653370825e-06
9.707214241e-06
-3.019628962e-05
7.725974442e-06
9.581735787e-06
-3.327221907e-05
4.884930395e-06
1.262330852e-05
-3.467745637e-05
9.784544295e-07
1.686506794e-05
-3.567238906e-05
-1.322971793e-06
2.116229686e-05
-3.58859381e-05
-2.19775927e-06
2.460051669e-05
-3.549393898e-05
-1.773558536e-06
2.64094726e-05
-3.451006199e-05
-2.643512694e-07
2.603860939e-05
-3.298677481e-05
2.078706738e-06
2.356095806e-05
-3.106554717e-05
4.405850996e-06
2.012014523e-05
-2.919324171e-05
5.534766177e-06
1.754182599e-05
-2.798462545e-05
4.758997921e-06
1.687170173e-05
-2.781834744e-05
2.955498903e-06
1.776938353e-05
-2.845771041e-05
1.562574293e-06
1.926828117e-05
-2.951177754e-05
1.291670283e-06
2.038115017e-05
-3.05846623e-05
2.191379886e-06
2.009466967e-05
-3.123572368e-05
4.147045699e-06
1.744548724e-05
-3.130327484e-05
6.982890607e-06
1.139948019e-05
-3.074557894e-05
1.037869103e-05
-3.007223867e-05
1.454770777e-05
2.999531532e-05
-6.682667463e-05
-5.692740281e-06
3.461712674e-05
-6.427081716e-05
-2.079800089e-06
3.622476704e-05
-6.070142574e-05
2.145832343e-06
3.451691524e-05
-5.612271751e-05
6.620862647e-06
2.966146376e-05
-5.056855046e-05
1.058883491e-05
2.268292991e-05
-4.426452023e-05
1.267245438e-05
1.636694227e-05
-3.877146272e-05
1.077503351e-05
1.37894193e-05
-3.517619526e-05
5.490925038e-06
1.474538039e-05
-3.201134092e-05
5.245312186e-07
1.713823115e-05
-3.014038233e-05
-1.611924284e-06
1.915215233e-05
-2.964589795e-05
-1.515204287e-06
1.991284458e-05
-3.01862055e-05
-6.189741041e-08
1.899679687e-05
-3.102205427e-05
2.09308746e-06
1.624458894e-05
-3.13022103e-05
4.306350944e-06
1.176495535e-05
-3.169976572e-05
6.316235661e-06
7.497398887e-06
-3.193536637e-05
6.006886286e-06
8.308280736e-06
-3.674157673e-05
2.658719353e-06
1.228797185e-05
-3.723766696e-05
-1.419250377e-06
1.704483206e-05
-3.676327684e-05
-3.665756285e-06
2.173094747e-05
-3.592539266e-05
-4.646462654e-06
2.54909206e-05
-3.488434862e-05
-4.369386582e-06
2.75704744e-05
-3.361245922e-05
-2.977003409e-06
2.730500424e-05
-3.209696402e-05
-6.242126195e-07
2.44571634e-05
-3.034042087e-05
2.122815108e-06
2.016452477e-05
-2.868353692e-05
3.783002372e-06
1.676445566e-05
-2.774247484e-05
3.157951943e-06
1.583627516e-05
-2.799942347e-05
1.109257449e-06
1.705782212e-05
-2.919094838e-05
-4.883370207e-07
1.918727711e-05
-3.083543498e-05
-8.058527556e-07
2.096573089e-05
-3.247511892e-05
1.119225888e-07
2.121331267e-05
-3.367110878e-05
2.187701762e-06
1.881512936e-05
-3.413768465e-05
5.232475278e-06
1.258308621e-05
-3.361418238e-05
9.100517204e-06
-3.176738482e-05
1.427809507e-05
3.182769589e-05
-6.602953562e-05
-8.36407241e-06
3.68005344e-05
-6.422358837e-05
-5.020226099e-06
3.897342989e-05
-6.168874501e-05
-1.185660466e-06
3.80366336e-05
-5.843199331e-05
3.246051979e-06
3.41974505e-05
-5.416326992e-05
7.433934259e-06
2.828962464e-05
-4.872786617e-05
1.037123936e-05
2.207782168e-05
-4.31356103e-05
1.057603744e-05
1.7844608e-05
-3.861976375e-05
7.676880341e-06
1.656852781e-05
-3.451116903e-05
3.776020335e-06
1.728584685e-05
-3.239763109e-05
1.540060399e-06
1.804849001e-05
-3.138501692e-05
9.766267475e-07
1.806537947e-05
-3.158264313e-05
1.379719124e-06
1.703516588e-05
-3.229556418e-05
2.303912587e-06
1.46315365e-05
-3.244996924e-05
3.551591705e-06
1.034679842e-05
-3.270870914e-05
5.293894375e-06
6.350001785e-06
-3.264244049e-05
4.704085029e-06
8.232385531e-06
-4.008546291e-05
1.461709601e-06
1.304519228e-05
-3.994593545e-05
-2.104342856e-06
1.806426362e-05
-3.762391363e-05
-4.158250057e-06
2.273498103e-05
-3.530331671e-05
-5.292623276e-06
2.642890844e-05
-3.32962451e-05
-5.281878737e-06
2.847690302e-05
-3.152975972e-05
-4.130563117e-06
2.813508117e-05
-2.983711664e-05
-1.917917821e-06
2.49658756e-05
-2.811664512e-05
9.455125551e-07
1.989179485e-05
-2.662435238e-05
3.014949576e-06
1.563510573e-05
-2.608142938e-05
2.595663463e-06
1.434982531e-05
-2.711877036e-05
4.046156618e-07
1.576051276e-05
-2.925718771e-05
-1.344487242e-06
1.832928974e-05
-3.164720578e-05
-1.757071277e-06
2.058110753e-05
-3.381950029e-05
-9.075260272e-07
2.123454594e-05
-3.543327869e-05
1.108620697e-06
1.903247304e-05
-3.614813929e-05
4.212400344e-06
1.280555356e-05
-3.561427659e-05
8.226875043e-06
-3.288042067e-05
1.391844404e-05
3.332010045e-05
-6.407476059e-05
-9.860352296e-06
3.824176355e-05
-6.271245114e-05
-6.432868087e-06
4.047438937e-05
-6.099544267e-05
-2.925918457e-06
3.995137306e-05
-5.906472262e-05
1.155815084e-06
3.680164643e-05
-5.62259643e-05
5.212532216e-06
3.182765162e-05
-5.206522717e-05
8.311489593e-06
2.626779712e-05
-4.726934155e-05
9.693724135e-06
2.135495218e-05
-4.277598057e-05
9.06919427e-06
1.847598585e-05
-3.877973965e-05
7.147662759e-06
1.808978967e-05
-3.777216217e-05
5.760852171e-06
1.797698011e-05
-3.602961858e-05
4.757539729e-06
1.73383629e-05
-3.47333448e-05
3.789455047e-06
1.611378044e-05
-3.427691096e-05
3.206076208e-06
1.402894179e-05
-3.372887183e-05
3.36389969e-06
1.001402165e-05
-3.354763107e-05
4.854010972e-06
6.629116385e-06
-3.327661398e-05
4.019251493e-06
9.667653629e-06
-4.386298972e-05
7.391614127e-07
1.531579234e-05
-4.39039021e-05
-1.690011122e-06
2.044701856e-05
-3.974278629e-05
-3.012203795e-06
2.466976736e-05
-3.545500166e-05
-4.070926942e-06
2.776188343e-05
-3.199779426e-05
-4.390444834e-06
2.929656833e-05
-2.943099996e-05
-3.633340607e-06
2.854702862e-05
-2.739294563e-05
-1.69454804e-06
2.486574381e-05
-2.556877631e-05
1.133476558e-06
1.899506354e-05
-2.41810151e-05
3.427376616e-06
1.392849075e-05
-2.415262805e-05
3.137773236e-06
1.236299639e-05
-2.629214267e-05
7.388384307e-07
1.398384331e-05
-2.955961258e-05
-1.318476374e-06
1.691695859e-05
-3.260087662e-05
-1.979523826e-06
1.954428125e-05
-3.510277296e-05
-1.344153658e-06
2.052130157e-05
-3.690904285e-05
4.986188013e-07
1.85619534e-05
-3.77451774e-05
3.556244396e-06
1.253778091e-05
-3.718243562e-05
7.592177861e-06
-3.382024069e-05
1.347744109e-05
3.524551368e-05
-6.151316953e-05
-1.099606903e-05
3.963272736e-05
-6.04666598e-05
-6.632935885e-06
4.145584292e-05
-5.947580978e-05
-3.34259824e-06
4.087033698e-05
-5.885656201e-05
3.775524701e-07
3.79982493e-05
-5.744812059e-05
4.094480076e-06
3.353584239e-05
-5.460956223e-05
7.006981784e-06
2.847433e-05
-5.104718262e-05
8.839576266e-06
2.335614546e-05
-4.734845712e-05
9.690855681e-06
2.014461568e-05
-4.498247746e-05
9.414433881e-06
2.024660014e-05
-4.685200788e-05
8.978007801e-06
2.029490561e-05
-4.443569123e-05
8.357893971e-06
1.904260221e-05
-4.0251078e-05
6.770149629e-06
1.698764421e-05
-3.729739827e-05
5.075555873e-06
1.446671475e-05
-3.551035422e-05
4.302527716e-06
1.034394185e-05
-3.488216894e-05
5.457435833e-06
8.184260748e-06
-3.49272997e-05
3.810498332e-06
1.280225339e-05
-4.745326952e-05
-1.027572765e-06
1.942233806e-05
-4.852799586e-05
-1.995857354e-06
2.471266964e-05
-4.352991265e-05
-1.503084286e-06
2.815433989e-05
-3.745467708e-05
-1.441890064e-06
3.001167923e-05
-3.222205087e-05
-1.63299403e-06
3.031648489e-05
-2.847912393e-05
-1.256609457e-06
2.850065096e-05
-2.584371924e-05
2.666615799e-07
2.382518103e-05
-2.379426018e-05
2.900987419e-06
1.699560965e-05
-2.251596891e-05
5.164533836e-06
1.130620326e-05
-2.319208157e-05
4.728838587e-06
9.806423008e-06
-2.659148484e-05
1.799073173e-06
1.179861046e-05
-3.069942184e-05
-8.524526425e-07
1.506475738e-05
-3.395033948e-05
-1.916783667e-06
1.796177021e-05
-3.64397798e-05
-1.560130619e-06
1.91949123e-05
-3.822875904e-05
8.64270279e-08
1.753890344e-05
-3.916290257e-05
3.073569085e-06
1.191700551e-05
-3.86539534e-05
7.093238315e-06
-3.493392829e-05
1.303050985e-05
3.829077703e-05
-5.842704719e-05
-1.284311881e-05
4.138319983e-05
-5.77174102e-05
-5.841421782e-06
4.230199316e-05
-5.782054593e-05
-2.5737253e-06
4.127499635e-05
-5.867531404e-05
8.461384355e-07
3.839928815e-05
-5.859540302e-05
4.023393253e-06
3.406917737e-05
-5.686163926e-05
6.582568886e-06
2.907930989e-05
-5.46452088e-05
8.588228799e-06
2.366245645e-05
-5.213516825e-05
1.020384287e-05
2.162792423e-05
-5.274564134e-05
9.797922682e-06
2.405787025e-05
-5.763052309e-05
8.348759052e-06
2.548690097e-05
-5.508142229e-05
9.216847025e-06
2.365473008e-05
-4.785803726e-05
9.439236489e-06
1.961043114e-05
-4.152561615e-05
8.272600521e-06
1.501941159e-05
-3.799603854e-05
7.076781765e-06
9.769539574e-06
-3.702905123e-05
7.396838509e-06
9.707638246e-06
-3.793778137e-05
3.072477542e-06
1.70162848e-05
-4.976595263e-05
-4.995856942e-06
2.510599235e-05
-5.162543229e-05
-4.992161799e-06
3.083938447e-05
-4.717749584e-05
-2.085706764e-06
3.347568976e-05
-4.080492103e-05
7.1402246e-07
3.347738617e-05
-3.44569897e-05
2.233302569e-06
3.155885149e-05
-2.9533968e-05
2.973418174e-06
2.767495095e-05
-2.613548402e-05
4.175686669e-06
2.131154495e-05
-2.374508436e-05
6.314232261e-06
1.336941645e-05
-2.276241446e-05
8.188552691e-06
7.69800937e-06
-2.453714734e-05
7.016423828e-06
6.953722991e-06
-2.884646937e-05
2.999195797e-06
9.49095298e-06
-3.282600763e-05
-4.107455959e-07
1.297730146e-05
-3.560099377e-05
-1.835822336e-06
1.594499046e-05
-3.777357965e-05
-1.634044566e-06
1.725167375e-05
-3.948717038e-05
-4.845234321e-08
1.583898807e-05
-4.065571549e-05
2.90529882e-06
1.075971865e-05
-4.045092819e-05
6.876030968e-06
-3.686641085e-05
1.26919825e-05
4.084740904e-05
-5.625277302e-05
-1.442374782e-05
4.286435108e-05
-5.512648456e-05
-4.607392506e-06
4.288634585e-05
-5.687986468e-05
-9.621150958e-07
4.136326308e-05
-5.941375907e-05
2.262149752e-06
3.838477874e-05
-6.039343389e-05
4.777124948e-06
3.376489601e-05
-5.923145971e-05
6.990253929e-06
2.798900205e-05
-5.809804388e-05
9.229194104e-06
2.191751098e-05
-5.678024899e-05
1.071694624e-05
2.263013535e-05
-6.036469542e-05
6.906731439e-06
2.883850844e-05
-6.578104872e-05
1.942394851e-06
3.256932792e-05
-6.341671046e-05
4.604652061e-06
3.063952827e-05
-5.52254342e-05
9.297317921e-06
2.350437166e-05
-4.630826208e-05
1.191787549e-05
1.434054315e-05
-4.067156676e-05
1.183940516e-05
6.506954378e-06
-3.919267382e-05
9.997262093e-06
9.239028577e-06
-4.054102872e-05
-1.287630456e-07
2.046321086e-05
-4.988678368e-05
-1.110328264e-05
3.075037344e-05
-5.13021516e-05
-1.061036541e-05
3.747848712e-05
-4.801308438e-05
-5.892446395e-06
3.971724516e-05
-4.297571646e-05
-6.789924633e-08
3.767088502e-05
-3.735524711e-05
4.944660068e-06
3.27104108e-05
-3.233848106e-05
7.764999893e-06
2.575336618e-05
-2.854147915e-05
9.363028907e-06
1.695415156e-05
-2.595625239e-05
1.101035126e-05
8.212902946e-06
-2.59155241e-05
1.189430424e-05
3.851064419e-06
-2.929297253e-05
9.11758381e-06
4.511947497e-06
-3.326506611e-05
3.757605523e-06
7.4686237e-06
-3.569586874e-05
-8.695420617e-08
1.089019456e-05
-3.746846994e-05
-1.554263605e-06
1.361839097e-05
-3.927312957e-05
-1.228845665e-06
1.462828512e-05
-4.101834984e-05
5.210587536e-07
1.315576654e-05
-4.266621401e-05
3.482768141e-06
8.622132965e-06
-4.321889909e-05
7.301340529e-06
-4.091163772e-05
1.266709103e-05
3.811025929e-05
-5.66857963e-05
-7.633088643e-06
4.202064456e-05
-5.590890252e-05
-3.127228515e-06
4.248169934e-05
-5.819328727e-05
8.532324466e-07
4.099254752e-05
-6.188616595e-05
3.962493968e-06
3.807636302e-05
-6.331428572e-05
5.837907848e-06
3.251962847e-05
-6.171227678e-05
8.038299433e-06
2.431312442e-05
-6.065774753e-05
1.076681097e-05
1.748929558e-05
-5.999388473e-05
1.003793783e-05
2.265148362e-05
-6.436318197e-05
-1.163322021e-06
3.377645696e-05
-6.81815608e-05
-8.724181405e-06
4.039445472e-05
-6.524849322e-05
-4.786003268e-06
3.914541106e-05
-5.795969578e-05
3.983450852e-06
2.852763964e-05
-4.889668142e-05
1.32062729e-05
1.227392225e-05
-4.166995577e-05
1.725214055e-05
1.297025371e-06
-3.940613422e-05
1.119038497e-05
7.258062939e-06
-4.032263367e-05
-6.179396894e-06
2.205564136e-05
-4.658548937e-05
-1.809883735e-05
3.472625006e-05
-4.686646041e-05
-1.710625452e-05
4.286854359e-05
-4.488128986e-05
-1.127404417e-05
4.513445752e-05
-4.196530386e-05
-3.276283966e-06
4.167708864e-05
-3.865338913e-05
4.755536403e-06
3.36246858e-05
-3.523476997e-05
1.094868542e-05
2.307566602e-05
-3.227236977e-05
1.427987362e-05
1.184164913e-05
-3.039934235e-05
1.567704532e-05
3.447809429e-06
-3.2352482e-05
1.483071169e-05
1.26340394e-06
-3.729662277e-05
1.018794024e-05
3.056846906e-06
-3.946718924e-05
4.40852844e-06
5.935520949e-06
-3.933676903e-05
7.620386096e-07
9.00115425e-06
-4.007853555e-05
-4.557906675e-07
1.115890043e-05
-4.166608495e-05
2.349516888e-07
1.142321193e-05
-4.357211967e-05
2.28917021e-06
9.445158186e-06
-4.588762564e-05
5.199151888e-06
5.366617924e-06
-4.777731216e-05
8.636623375e-06
-4.878185869e-05
1.323650564e-05
3.851365023e-05
-5.751549415e-05
-8.788789999e-06
4.126077796e-05
-5.567586976e-05
-2.978976262e-06
4.187076754e-05
-6.105114836e-05
2.24916917e-06
4.049331327e-05
-6.542147342e-05
4.914187832e-06
3.783302292e-05
-6.689663514e-05
6.243866247e-06
3.04875681e-05
-6.36234813e-05
9.257640591e-06
1.755290002e-05
-6.052654877e-05
1.280421649e-05
1.076770847e-05
-5.940163637e-05
6.193507915e-06
2.175592115e-05
-6.171392512e-05
-1.363703755e-05
3.845296419e-05
-6.332630382e-05
-2.155200079e-05
4.861049489e-05
-5.939776944e-05
-1.600804537e-05
4.844483457e-05
-5.306463274e-05
-4.729254365e-06
3.524974919e-05
-4.550157074e-05
9.800070667e-06
1.122827396e-05
-3.811962654e-05
2.0471183e-05
-2.526302185e-06
-3.520113625e-05
9.549587538e-06
5.946002972e-06
-3.649180829e-05
-1.230312598e-05
2.212648957e-05
-3.913593398e-05
-2.363002921e-05
3.62104784e-05
-3.879759893e-05
-2.21528294e-05
4.512878626e-05
-3.833743302e-05
-1.546215457e-05
4.739578246e-05
-3.805376134e-05
-6.178533899e-06
4.31131466e-05
-3.773738792e-05
3.366630889e-06
3.294093251e-05
-3.708268153e-05
1.202009664e-05
1.992269516e-05
-3.653180566e-05
1.72776122e-05
7.990154261e-06
-3.702082982e-05
1.855393892e-05
1.053070333e-06
-4.129179442e-05
1.587627646e-05
2.702146419e-07
-4.723621534e-05
1.072229027e-05
2.260688219e-06
-4.738457605e-05
5.926709638e-06
4.935384529e-06
-4.478855228e-05
2.776839778e-06
7.699071544e-06
-4.475780976e-05
1.915298858e-06
9.239591944e-06
-4.620808043e-05
3.001147249e-06
8.649923793e-06
-4.817803416e-05
5.195219963e-06
6.020916355e-06
-5.111446641e-05
7.855456882e-06
2.412565375e-06
-5.4798276e-05
1.062890617e-05
-6.086898739e-05
1.449928194e-05
3.34980745e-05
-5.143856838e-05
-1.727299975e-05
3.653183715e-05
-5.464653636e-05
-4.061160709e-06
3.945700654e-05
-6.55109483e-05
1.536672787e-06
3.951856347e-05
-6.855628335e-05
3.075548787e-06
3.840290429e-05
-7.000811564e-05
4.22885356e-06
2.926860785e-05
-6.401196632e-05
9.524044425e-06
1.047276955e-05
-5.602781741e-05
1.429800353e-05
4.183588269e-06
-5.220478177e-05
-9.070319902e-07
2.070563512e-05
-5.158714503e-05
-2.66483703e-05
4.122087228e-05
-5.027040997e-05
-3.357080718e-05
5.495135132e-05
-4.628929591e-05
-2.683874635e-05
5.711085922e-05
-4.151357144e-05
-1.371044964e-05
4.4231798e-05
-3.557673702e-05
2.954313662e-06
1.58585018e-05
-2.883076424e-05
1.908447571e-05
-1.576552088e-06
-2.626714934e-05
8.501055743e-06
6.242924958e-06
-2.975432991e-05
-1.455698038e-05
2.153178083e-05
-2.921186517e-05
-2.52129347e-05
3.493418508e-05
-2.890441228e-05
-2.329559548e-05
4.302681694e-05
-3.065599656e-05
-1.577408981e-05
4.419996579e-05
-3.362321191e-05
-5.603736246e-06
3.869284766e-05
-3.664110182e-05
4.410788526e-06
2.75792433e-05
-3.927514527e-05
1.330600505e-05
1.476142503e-05
-4.230767923e-05
1.859359943e-05
4.857374267e-06
-4.618937374e-05
1.907247394e-05
-6.208965284e-08
-5.18759637e-05
1.550347601e-05
-3.925765745e-07
-5.806912603e-05
1.116319413e-05
1.682340055e-06
-5.742006633e-05
7.960316334e-06
4.763753948e-06
-5.329230508e-05
5.42202751e-06
7.911149318e-06
-5.263597121e-05
4.730405123e-06
9.471604364e-06
-5.370696557e-05
5.938023114e-06
8.676816276e-06
-5.542484658e-05
8.041152814e-06
5.915577607e-06
-5.862416778e-05
1.027045836e-05
2.60518296e-06
-6.404543417e-05
1.255704854e-05
-7.461579764e-05
1.635147781e-05
2.919477232e-05
-5.346690644e-05
-2.696836556e-06
2.431510757e-05
-5.309674041e-05
3.333031343e-06
3.481252452e-05
-7.33744591e-05
-2.630197777e-06
3.916463161e-05
-6.977786054e-05
-3.126640316e-06
4.185319885e-05
-7.071230292e-05
-1.982062214e-06
3.299646851e-05
-6.199403459e-05
6.840397405e-06
1.171468705e-05
-4.87322975e-05
1.398730205e-05
4.428517691e-06
-3.887860875e-05
-6.039326289e-06
2.137604333e-05
-3.48767583e-05
-3.365745495e-05
4.229446885e-05
-3.084251122e-05
-4.034598801e-05
5.740009457e-05
-2.808496356e-05
-3.330975276e-05
6.243216689e-05
-2.660098258e-05
-1.994456714e-05
5.366725703e-05
-2.317752871e-05
-3.634242777e-06
2.806419871e-05
-1.657855544e-05
1.335088153e-05
6.344886444e-06
-1.53721967e-05
1.082432771e-05
8.48188473e-06
-2.169339707e-05
-1.019799088e-05
2.037668865e-05
-1.988406485e-05
-2.1222649e-05
3.074636671e-05
-2.048083679e-05
-1.879329566e-05
3.582026825e-05
-2.547684327e-05
-1.02531176e-05
3.452281744e-05
-3.231500632e-05
-1.085653945e-08
2.738437545e-05
-3.894882881e-05
9.446084927e-06
1.721354575e-05
-4.513407032e-05
1.602965589e-05
7.593909015e-06
-5.168164402e-05
1.899347524e-05
1.276344061e-06
-5.778400764e-05
1.791204134e-05
-1.367630383e-06
-6.322493366e-05
1.399274284e-05
-1.030944556e-06
-6.882510868e-05
1.041904227e-05
1.648232708e-06
-6.864695074e-05
8.54739146e-06
6.006114034e-06
-6.426044608e-05
6.609878889e-06
1.048818519e-05
-6.292802544e-05
5.809540141e-06
1.31538803e-05
-6.323701716e-05
6.863856537e-06
1.323872803e-05
-6.441383315e-05
8.903588175e-06
1.096163856e-05
-6.747447636e-05
1.11268032e-05
6.92533359e-06
-7.375818176e-05
1.374842462e-05
-8.637141647e-05
1.868030002e-05
1.745520626e-05
-5.429833692e-05
-3.699791624e-07
9.698461265e-06
-4.965275022e-05
4.317007505e-06
3.233237697e-05
-7.727731444e-05
-1.872321987e-05
4.280631453e-05
-6.639495743e-05
-1.38506893e-05
5.042066055e-05
-6.6314653e-05
-1.200917817e-05
4.615573103e-05
-5.673077799e-05
-9.964351267e-07
2.8288427e-05
-4.170035362e-05
1.083648738e-05
1.811996458e-05
-2.58851337e-05
-2.824355082e-06
2.921026978e-05
-1.629097684e-05
-2.967570673e-05
4.588882823e-05
-9.343736627e-06
-3.817706991e-05
5.757742811e-05
-6.789133672e-06
-3.298430073e-05
5.9327845e-05
-7.130150567e-06
-2.122123048e-05
5.132601721e-05
-8.864306066e-06
-6.311414956e-06
3.39545586e-05
-9.124063508e-06
9.916950537e-06
1.53134083e-05
-1.341419265e-05
1.668309806e-05
1.168535537e-05
-1.853031701e-05
4.648819019e-07
1.693630684e-05
-1.304813888e-05
-1.208697271e-05
2.244413889e-05
-1.78146355e-05
-8.174117228e-06
2.404833069e-05
-2.804890079e-05
9.677830421e-07
2.076326155e-05
-3.788415491e-05
8.85412628e-06
1.491974826e-05
-4.723298644e-05
1.412756824e-05
8.206777294e-06
-5.532679921e-05
1.690557188e-05
2.056971988e-06
-6.357921986e-05
1.804722021e-05
-1.907909589e-06
-6.945489896e-05
1.563557217e-05
-2.818145329e-06
-7.349083387e-05
1.117587937e-05
-1.268440597e-06
-7.797625895e-05
7.601123662e-06
2.511476886e-06
-7.856457497e-05
6.137313316e-06
8.506782704e-06
-7.474682549e-05
4.490602568e-06
1.473032479e-05
-7.276660535e-05
3.61448754e-06
1.91514379e-05
-7.228373203e-05
4.624978221e-06
2.073223743e-05
-7.296827679e-05
6.972955911e-06
1.898923575e-05
-7.569090707e-05
9.958687575e-06
1.313683354e-05
-8.196380358e-05
1.405723501e-05
-9.4371186e-05
2.1135779e-05
-2.086194153e-06
-4.231404035e-05
-3.869937016e-06
-8.547339879e-06
-4.177566509e-05
-1.411512956e-06
3.431087609e-05
-4.521844099e-05
-7.490655374e-05
5.022422412e-05
-5.268129324e-05
-2.961996804e-05
6.145883376e-05
-5.296770374e-05
-2.457897416e-05
6.516034266e-05
-4.760291468e-05
-1.282757185e-05
5.955709703e-05
-3.663885676e-05
5.427663799e-07
5.014953369e-05
-2.190403887e-05
5.427019801e-06
5.039906124e-05
-7.443528877e-06
-9.096710624e-06
5.623852065e-05
4.196297721e-06
-1.937937576e-05
5.747792362e-05
8.885223074e-06
-1.69137332e-05
4.86491314e-05
6.876136687e-06
-5.177518386e-06
3.035139736e-05
-1.723596832e-06
1.115697499e-05
1.209874769e-05
-1.385798437e-05
2.298648563e-05
1.20744853e-06
-2.443679257e-05
2.191379079e-05
1.594016363e-06
-2.716503228e-05
8.248037008e-06
8.712072091e-06
-1.968399799e-05
-4.822961202e-07
1.310094304e-05
-2.735310603e-05
5.149511387e-06
1.372499658e-05
-3.78200328e-05
9.146985541e-06
1.213777975e-05
-4.662813432e-05
1.033109019e-05
9.485105359e-06
-5.689715493e-05
1.231671739e-05
4.462320201e-06
-6.558684927e-05
1.528267741e-05
-1.473715293e-06
-7.428843036e-05
1.664504843e-05
-4.801740868e-06
-7.870012786e-05
1.257300143e-05
-4.336019746e-06
-8.12062086e-05
7.249328562e-06
-1.220081644e-06
-8.417243867e-05
3.079832926e-06
3.979204961e-06
-8.500090607e-05
1.236546639e-06
1.14642417e-05
-8.189565176e-05
-3.368043673e-07
1.92090211e-05
-7.963420096e-05
-8.778773517e-07
2.524677395e-05
-7.875071163e-05
4.284390051e-07
2.809275512e-05
-7.934985643e-05
3.534728473e-06
2.649375839e-05
-8.184934996e-05
7.756498523e-06
1.864778623e-05
-8.775278543e-05
1.363395859e-05
-9.891070838e-05
2.318627389e-05
-1.227152912e-05
-1.166637019e-05
-3.130426369e-05
-1.559851485e-05
-2.72933518e-05
-1.115307514e-05
3.350115205e-05
-6.931731894e-06
-8.738030648e-05
5.525457703e-05
-3.087856274e-05
-4.355213724e-05
6.84669515e-05
-3.111461599e-05
-3.506331542e-05
7.68865676e-05
-3.193236056e-05
-2.408883627e-05
7.922538908e-05
-2.775270382e-05
-1.122425309e-05
7.599997476e-05
-1.977748201e-05
1.099228399e-06
7.007158404e-05
-9.113208526e-06
7.59822617e-06
6.505891913e-05
2.587156992e-06
6.621826376e-06
5.865631525e-05
8.162373994e-06
7.125406695e-06
4.643962384e-05
4.773942857e-06
1.43188101e-05
2.616012586e-05
-5.817082922e-06
2.437288196e-05
7.272569496e-06
-2.177500787e-05
2.680446185e-05
-3.437179571e-06
-3.237694583e-05
1.864977825e-05
-4.274232916e-06
-3.463407248e-05
8.30598063e-06
2.8826732e-06
-3.185445779e-05
5.013454628e-06
8.25625967e-06
-3.803034631e-05
5.303556088e-06
9.076352728e-06
-4.421754324e-05
5.577310563e-06
8.50809619e-06
-5.191674199e-05
5.856739651e-06
7.057440302e-06
-6.409389755e-05
8.647249863e-06
1.543903363e-06
-7.385296796e-05
1.377946656e-05
-5.188157203e-06
-8.237801144e-05
1.482140074e-05
-7.847560933e-06
-8.497074081e-05
8.929701452e-06
-5.891739271e-06
-8.584259948e-05
2.68016302e-06
-9.633757988e-07
-8.711275962e-05
-1.988553618e-06
5.894587168e-06
-8.773706494e-05
-4.122427313e-06
1.464725765e-05
-8.52985777e-05
-5.350487701e-06
2.355679354e-05
-8.321619453e-05
-5.328410198e-06
3.064918967e-05
-8.235497765e-05
-3.4891191e-06
3.41551825e-05
-8.308050382e-05
2.235557092e-07
3.216674514e-05
-8.560393939e-05
5.74183603e-06
2.250984514e-05
-9.116354681e-05
1.306640274e-05
-0.0001007360425
2.433387964e-05
-1.739196203e-05
-6.058177453e-06
1.633074834e-06
-1.471428755e-05
-1.767304833e-05
-1.229694401e-05
1.476820718e-05
-2.251334193e-06
-3.416206669e-05
4.096279821e-05
-1.549704429e-05
-4.157443459e-05
6.369288435e-05
-1.460466407e-05
-3.923901424e-05
7.818484172e-05
-1.577433203e-05
-3.064931502e-05
8.475421122e-05
-1.491271934e-05
-1.940901991e-05
8.425737467e-05
-1.18481724e-05
-7.43234718e-06
7.788211008e-05
-6.966022167e-06
4.228085713e-06
6.860888086e-05
-1.230481031e-06
1.309079546e-05
5.696034671e-05
2.00784158e-06
1.780294526e-05
4.005677596e-05
-4.619211949e-08
2.172356109e-05
1.811097928e-05
-8.40512587e-06
2.453368722e-05
1.883131163e-06
-2.751373139e-05
2.196642219e-05
-5.166602235e-06
-3.839249795e-05
1.306513973e-05
-5.955384556e-06
-3.918989484e-05
5.344477095e-06
-1.890746174e-06
-3.810599095e-05
2.186778359e-06
1.449600585e-06
-4.214422766e-05
7.734189663e-07
2.780579225e-06
-4.698581099e-05
1.43716516e-06
4.160100312e-06
-5.488787035e-05
1.591465374e-06
4.479416245e-06
-6.850373725e-05
4.090353622e-06
-1.450472852e-06
-7.946510357e-05
1.154180334e-05
-8.813205573e-06
-8.72334485e-05
1.221787845e-05
-1.047149315e-05
-8.828969897e-05
4.976860874e-06
-6.923968646e-06
-8.7579258e-05
-1.811362029e-06
1.719325409e-08