/*--------------------------------*- C++ -*----------------------------------*\
  =========                 |
  \\      /  F ield         | OpenFOAM: The Open Source CFD Toolbox
   \\    /   O peration     | Website:  https://openfoam.org
    \\  /    A nd           | Version:  8
     \\/     M anipulation  |
\*---------------------------------------------------------------------------*/
FoamFile
{
    version     2.0;
    format      ascii;
    class       volScalarField;
    location    "1.8";
    object      T;
}
// * * * * * * * * * * * * * * * * * * * * * * * * * * * * * * * * * * * * * //

dimensions      [0 0 0 1 0 0 0];

internalField   nonuniform List<scalar> 
67193
(
300.0026363
300.0026321
300.0026455
300.0026618
300.0026573
300.0026249
300.0025813
300.0025959
300.0026558
300.0026408
300.0025911
300.0025222
300.0024485
300.0023885
300.0023554
300.002345
300.002349
300.0023712
300.002398
300.0024067
300.0023923
300.0023608
300.002322
300.0022858
300.0022574
300.0022359
300.0022194
300.0022062
300.0021943
300.0021804
300.0021621
300.0021363
300.0020992
300.0020368
300.0027035
300.0026705
300.002645
300.0026366
300.0026354
300.0026209
300.0026209
300.0026828
300.0027503
300.0027377
300.0026863
300.0026111
300.0025264
300.0024556
300.0024206
300.0024209
300.0024537
300.0025132
300.0025591
300.0025722
300.0025552
300.0025155
300.0024649
300.0024197
300.0023934
300.0023878
300.0023918
300.0023927
300.0023826
300.0023572
300.0023152
300.002261
300.0022108
300.0021715
300.0027333
300.0027011
300.0026581
300.0026144
300.0025861
300.0025793
300.0026177
300.0027068
300.0027693
300.0027552
300.0027057
300.0026351
300.0025548
300.0024839
300.0024435
300.0024449
300.002509
300.0026001
300.0026529
300.0026655
300.002648
300.0026076
300.002552
300.0024967
300.0024629
300.0024618
300.0024784
300.0024904
300.0024884
300.0024697
300.0024315
300.0023736
300.0023118
300.0022663
300.0027474
300.002722
300.0026828
300.002628
300.0025725
300.0025479
300.0025896
300.0026838
300.0027497
300.002741
300.0026931
300.002627
300.0025563
300.0024941
300.0024523
300.0024541
300.0025487
300.0026573
300.002708
300.0027186
300.0027017
300.0026632
300.0026068
300.0025434
300.0024978
300.0024936
300.0025168
300.0025359
300.0025395
300.0025282
300.0024997
300.0024503
300.0023858
300.0023194
300.0027528
300.00273
300.0026964
300.0026457
300.0025826
300.002537
300.0025525
300.0026291
300.0026962
300.0026955
300.0026524
300.0025954
300.0025419
300.0024967
300.0024577
300.0024596
300.0025731
300.0026844
300.0027326
300.0027441
300.002729
300.0026926
300.0026376
300.0025696
300.0025132
300.0025034
300.0025306
300.0025546
300.0025612
300.0025539
300.0025321
300.0024907
300.0024297
300.0023506
300.0027569
300.0027332
300.0026999
300.0026533
300.0025934
300.0025405
300.0025303
300.0025728
300.0026225
300.0026218
300.0025875
300.002552
300.0025273
300.0025042
300.0024671
300.0024642
300.0025738
300.0026778
300.0027275
300.0027449
300.0027349
300.0027024
300.0026498
300.00258
300.0025155
300.0024999
300.0025305
300.00256
300.0025698
300.0025646
300.0025464
300.0025102
300.002453
300.0023684
300.0027594
300.0027325
300.0026959
300.0026494
300.0025944
300.002545
300.0025251
300.0025388
300.0025549
300.0025378
300.0025154
300.0025131
300.0025224
300.0025187
300.0024788
300.0024643
300.0025511
300.0026348
300.0026858
300.0027138
300.0027148
300.0026902
300.0026425
300.0025735
300.0025035
300.002484
300.0025195
300.0025564
300.0025716
300.0025697
300.0025537
300.0025204
300.0024653
300.0023775
300.0027578
300.0027249
300.0026843
300.002636
300.0025861
300.0025458
300.0025283
300.002528
300.0025152
300.0024767
300.0024636
300.0024885
300.0025218
300.0025296
300.0024839
300.0024586
300.0025304
300.0025758
300.0026107
300.0026434
300.0026598
300.0026498
300.0026113
300.0025455
300.0024729
300.0024546
300.0025016
300.0025502
300.0025725
300.002574
300.0025594
300.0025269
300.0024717
300.0023808
300.0027488
300.0027061
300.0026648
300.0026163
300.0025741
300.0025462
300.0025353
300.0025259
300.0024975
300.0024561
300.002442
300.0024678
300.0025066
300.0025196
300.0024698
300.0024516
300.0025417
300.0025439
300.0025384
300.0025473
300.0025662
300.0025719
300.0025469
300.0024867
300.0024167
300.002414
300.0024875
300.0025502
300.0025768
300.0025784
300.0025623
300.0025282
300.002471
300.0023781
300.0027311
300.0026804
300.0026427
300.0025971
300.0025668
300.0025533
300.0025451
300.0025183
300.0024857
300.0024691
300.0024429
300.0024444
300.0024665
300.0024767
300.0024315
300.0024569
300.0025809
300.0025539
300.00251
300.0024715
300.0024593
300.0024592
300.002442
300.0023893
300.0023367
300.0023796
300.0024896
300.0025573
300.0025798
300.0025753
300.0025532
300.0025153
300.0024564
300.0023675
300.0027381
300.0026774
300.0026373
300.0025939
300.0025771
300.0025736
300.0025551
300.0025
300.002496
300.0025238
300.0024805
300.0024448
300.0024257
300.00241
300.0023883
300.0024912
300.0026227
300.0025774
300.0025155
300.0024433
300.0023831
300.0023471
300.0023184
300.0022741
300.0022688
300.0023763
300.0024972
300.0025544
300.0025666
300.002551
300.0025201
300.0024778
300.0024215
300.0023504
300.0027556
300.0026869
300.0026812
300.0026286
300.0026189
300.0026113
300.0025623
300.0024829
300.0025718
300.0026177
300.0025623
300.0024929
300.002425
300.0023583
300.0023734
300.0025315
300.0026488
300.0025912
300.0025203
300.0024367
300.0023474
300.0022757
300.0022281
300.0022
300.0022598
300.0023885
300.0024799
300.0025219
300.0025238
300.0024972
300.0024582
300.002416
300.0023712
300.0023373
300.0027877
300.0027353
300.0028289
300.0027164
300.0027032
300.0026682
300.0025729
300.0024952
300.0026896
300.0027146
300.0026423
300.0025687
300.0024685
300.0023551
300.00237
300.0025465
300.0026502
300.0025863
300.002506
300.0024164
300.002318
300.0022348
300.0021903
300.0021986
300.0022935
300.0023925
300.0024404
300.0024636
300.0024602
300.0024289
300.0023891
300.0023545
300.0023293
300.0023354
300.0029809
300.002797
300.0031544
300.0028548
300.0028403
300.0027494
300.0026115
300.0025692
300.0027954
300.0027951
300.0027048
300.0026323
300.0025297
300.0023916
300.0023407
300.002505
300.0026125
300.0025484
300.0024556
300.0023563
300.0022609
300.0021965
300.0021883
300.0022448
300.0023394
300.0024069
300.0024179
300.0024199
300.0024169
300.0023904
300.0023569
300.0023297
300.0023159
300.002335
300.0031464
300.0028307
300.0037729
300.0030207
300.0030265
300.0028499
300.0026985
300.0026533
300.0028548
300.0028564
300.0027805
300.0027186
300.0026253
300.0024504
300.0022793
300.0023718
300.0025093
300.0024383
300.0023271
300.0022461
300.0022045
300.0021879
300.0022175
300.0023025
300.0023855
300.002441
300.0024352
300.0024254
300.0024234
300.0024042
300.0023768
300.0023483
300.0023285
300.0023321
300.0032389
300.0029298
300.004906
300.0032142
300.0032024
300.0029315
300.0027938
300.0027144
300.0027546
300.0027603
300.002696
300.0025979
300.0024596
300.0023067
300.0022238
300.0022453
300.0022391
300.0022147
300.0022233
300.0022358
300.0022337
300.0022168
300.002256
300.0023502
300.0024265
300.0024781
300.0024709
300.0024603
300.0024561
300.0024407
300.0024175
300.0023858
300.0023557
300.0023352
300.0030437
300.0029482
300.0040417
300.0032026
300.0031753
300.0029241
300.0027955
300.0027024
300.0026192
300.0025687
300.0025121
300.0024288
300.002333
300.0022208
300.0021835
300.0022005
300.0021954
300.0022508
300.0022726
300.0022799
300.0022705
300.0022454
300.0022962
300.002386
300.0024565
300.0025023
300.0024991
300.0024917
300.0024836
300.0024678
300.0024479
300.0024173
300.0023853
300.0023491
300.0027699
300.0028437
300.0032797
300.0030949
300.0030272
300.0028719
300.0027667
300.0026931
300.0026229
300.002544
300.0024749
300.0024197
300.0023374
300.0021989
300.002204
300.0022372
300.0022699
300.0023113
300.0023125
300.0023046
300.0022978
300.0022744
300.0023304
300.0024088
300.0024712
300.0025126
300.0025153
300.0025109
300.0025005
300.0024829
300.0024633
300.0024367
300.0024118
300.0023736
300.0028193
300.0028034
300.0032158
300.0030885
300.0030419
300.0028966
300.0027907
300.0027195
300.0026569
300.0025857
300.0025115
300.0024277
300.0022732
300.0021649
300.0022089
300.0022554
300.0022967
300.0023249
300.0023202
300.0023184
300.0023254
300.0023055
300.002353
300.0024186
300.0024746
300.0025171
300.0025257
300.0025241
300.0025128
300.0024943
300.0024745
300.0024522
300.0024395
300.0024096
300.0026354
300.002621
300.0027087
300.0027756
300.0027609
300.0026946
300.0026282
300.0025765
300.0025368
300.002497
300.0024383
300.0023422
300.0022031
300.0021609
300.0022058
300.0022597
300.0023048
300.0023215
300.0023215
300.0023391
300.0023535
300.0023333
300.0023681
300.0024227
300.0024758
300.0025219
300.0025348
300.0025359
300.0025254
300.0025076
300.0024896
300.0024737
300.0024765
300.00246
300.0026884
300.0026575
300.0026596
300.002638
300.0026141
300.002566
300.0025141
300.0024697
300.0024338
300.0023986
300.0023468
300.002272
300.0021996
300.0021727
300.0021907
300.0022493
300.0022967
300.0023128
300.0023293
300.0023641
300.0023756
300.0023599
300.0023868
300.0024317
300.0024814
300.0025287
300.0025435
300.002548
300.0025401
300.0025254
300.0025126
300.0025072
300.0025289
300.0025272
300.0027141
300.0026952
300.0026802
300.0026124
300.0025491
300.0025037
300.00247
300.0024596
300.0024433
300.0024146
300.0023719
300.0023154
300.0022606
300.0022136
300.0021865
300.0022339
300.0022843
300.0023142
300.0023499
300.0023885
300.0023954
300.002393
300.0024177
300.0024516
300.0024933
300.0025362
300.0025488
300.0025577
300.0025553
300.0025474
300.0025446
300.0025558
300.0025996
300.0026112
300.0027028
300.0026814
300.0026793
300.0026557
300.0026199
300.0025984
300.0025594
300.0025602
300.0025298
300.0024996
300.0024648
300.0024171
300.0023567
300.0022764
300.0022052
300.0022262
300.0022827
300.0023372
300.0023858
300.0024163
300.0024255
300.0024387
300.0024582
300.0024815
300.002509
300.0025398
300.0025447
300.0025574
300.0025646
300.0025693
300.0025839
300.0026195
300.0026878
300.0027094
300.0027034
300.0026651
300.0026627
300.002653
300.0026322
300.0026208
300.002464
300.0025439
300.0025298
300.0025339
300.0025189
300.0024839
300.0024252
300.0023278
300.0022389
300.0022413
300.0023043
300.0023831
300.0024369
300.0024581
300.0024698
300.0024867
300.0024993
300.0025141
300.0025203
300.0025345
300.0025295
300.0025394
300.002558
300.0025829
300.0026254
300.0026956
300.0027884
300.0028153
300.0027847
300.0027663
300.002747
300.0027276
300.0026913
300.0026612
300.0026455
300.0025864
300.0025679
300.0023945
300.0025534
300.0025515
300.0025157
300.0024548
300.0023521
300.0022793
300.0022866
300.0023374
300.0024219
300.002479
300.0024919
300.0024997
300.0025177
300.0025317
300.0025402
300.0025181
300.0025214
300.0025178
300.0025106
300.0025347
300.0025811
300.0026602
300.0027749
300.0028898
300.002918
300.0026108
300.0027741
300.0028058
300.0028198
300.002717
300.0026696
300.002643
300.0025926
300.0026077
300.0024274
300.0025369
300.0025503
300.0025146
300.0024553
300.0023582
300.0023317
300.0023554
300.0023695
300.002438
300.0025069
300.0025257
300.0025324
300.0025452
300.0025533
300.0025469
300.0024988
300.0025225
300.0025292
300.00249
300.0025093
300.0025693
300.0026786
300.0028386
300.0029728
300.0030004
300.0027404
300.0027537
300.0027642
300.0027878
300.0027185
300.0026643
300.0026278
300.0026053
300.0025962
300.0025786
300.002565
300.0025445
300.0024918
300.0024428
300.0023652
300.0023959
300.0024235
300.0023912
300.0024171
300.0025009
300.0025456
300.0025532
300.0025556
300.0025472
300.0025177
300.0024781
300.002573
300.0025669
300.0024895
300.0024909
300.0025508
300.0026745
300.0028552
300.0030113
300.0030444
300.0026683
300.002673
300.002667
300.0026544
300.0026216
300.0025901
300.0025772
300.0025722
300.0025713
300.0025509
300.002549
300.0025376
300.0025135
300.0024371
300.0023855
300.0024592
300.0024758
300.0024196
300.0023873
300.0024622
300.0025469
300.0025661
300.0025553
300.0025305
300.0024941
300.0025069
300.0027167
300.0026773
300.0025522
300.0025064
300.002519
300.0026018
300.0027782
300.0029752
300.0030344
300.0026084
300.00264
300.0026227
300.0027546
300.0026333
300.0025915
300.0025758
300.0025692
300.0025658
300.002563
300.0025547
300.0025518
300.0024458
300.0024149
300.0024958
300.0024995
300.0024524
300.002382
300.0023955
300.0024849
300.0025207
300.0024996
300.0024727
300.0025081
300.0026824
300.0030005
300.0028486
300.0026728
300.002559
300.0025347
300.0026128
300.002765
300.0029017
300.0029164
300.0025496
300.0025831
300.0025974
300.0026015
300.0025901
300.002579
300.0025714
300.0025658
300.0025622
300.0025608
300.0025526
300.0025284
300.0025182
300.0025401
300.0026983
300.0025813
300.0025052
300.0024844
300.0025182
300.0026204
300.0027476
300.0028369
300.0028166
300.002557
300.0026176
300.0026113
300.0025927
300.0025786
300.0025693
300.0025665
300.0025887
300.0026248
300.0026504
300.0026515
300.0026274
300.0025908
300.0025853
300.0026051
300.002586
300.0025348
300.002468
300.0024041
300.0023588
300.0023369
300.0023301
300.002329
300.0023339
300.0023406
300.0023382
300.0023224
300.0022965
300.0022663
300.002237
300.0022091
300.00218
300.0021503
300.0021259
300.0021134
300.0021108
300.0021084
300.0020947
300.0020635
300.0020024
300.0026288
300.0026167
300.0026192
300.0026328
300.002643
300.0026404
300.0026468
300.0026786
300.002705
300.0026874
300.0026313
300.0025555
300.0024837
300.0024366
300.0024215
300.0024289
300.0024499
300.002478
300.0024979
300.002499
300.0024799
300.002446
300.0024076
300.0023754
300.0023542
300.0023395
300.0023238
300.0023042
300.0022823
300.0022575
300.0022277
300.002193
300.0021641
300.0021404
300.0026899
300.0026544
300.0026207
300.0026025
300.0026027
300.0026188
300.0026643
300.0027239
300.0027584
300.0027446
300.0026891
300.0026133
300.0025416
300.0024926
300.0024755
300.0024891
300.0025311
300.00258
300.0026111
300.0026161
300.0025956
300.0025565
300.0025106
300.0024722
300.0024514
300.0024455
300.0024407
300.0024275
300.0024048
300.0023743
300.0023369
300.0022947
300.0022622
300.0022459
300.0027506
300.002703
300.0026468
300.0026
300.0025774
300.0025923
300.0026539
300.002729
300.0027719
300.002764
300.0027156
300.0026476
300.0025826
300.0025358
300.0025158
300.0025329
300.0025917
300.0026548
300.0026949
300.0027044
300.0026834
300.0026394
300.0025857
300.0025387
300.0025138
300.0025127
300.0025173
300.0025118
300.002493
300.002463
300.0024255
300.002382
300.0023397
300.0023025
300.002797
300.0027472
300.002681
300.0026179
300.0025764
300.0025754
300.0026261
300.0026994
300.0027452
300.0027427
300.0027054
300.002654
300.0026052
300.0025679
300.0025475
300.0025659
300.002632
300.0027016
300.0027463
300.0027585
300.0027388
300.0026938
300.0026343
300.0025793
300.0025488
300.0025507
300.0025644
300.0025681
300.0025559
300.0025289
300.0024917
300.0024461
300.0023951
300.0023364
300.0028232
300.0027761
300.002711
300.0026418
300.0025905
300.0025745
300.0026022
300.0026554
300.0026929
300.0026932
300.0026692
300.0026402
300.0026145
300.0025921
300.0025732
300.0025889
300.0026505
300.0027181
300.0027638
300.0027783
300.0027607
300.0027162
300.0026553
300.0025946
300.0025589
300.0025628
300.002585
300.002598
300.0025941
300.0025732
300.0025376
300.0024903
300.0024327
300.0023586
300.0028318
300.0027877
300.0027282
300.0026614
300.0026085
300.0025848
300.0025933
300.0026191
300.0026354
300.002629
300.0026175
300.0026143
300.0026143
300.0026073
300.0025895
300.0025983
300.0026471
300.0027053
300.0027485
300.0027645
300.0027497
300.0027072
300.0026463
300.0025825
300.0025431
300.0025495
300.0025818
300.002606
300.0026116
300.0025981
300.0025662
300.0025183
300.0024564
300.0023719
300.0028258
300.0027849
300.002732
300.0026736
300.0026252
300.0026
300.0025973
300.0026013
300.0025928
300.002572
300.0025665
300.0025844
300.0026048
300.0026093
300.0025907
300.0025927
300.0026296
300.0026703
300.0027038
300.0027178
300.0027054
300.0026656
300.0026056
300.0025409
300.0025001
300.0025134
300.002561
300.0026006
300.002617
300.0026102
300.0025813
300.0025334
300.002469
300.0023778
300.0028116
300.0027723
300.0027283
300.0026792
300.0026394
300.0026169
300.0026079
300.0025976
300.0025731
300.0025434
300.0025316
300.0025529
300.0025817
300.0025917
300.0025725
300.0025769
300.002612
300.0026302
300.0026426
300.0026434
300.0026277
300.0025899
300.0025326
300.0024691
300.0024319
300.0024623
300.0025332
300.0025906
300.0026165
300.0026127
300.0025835
300.0025349
300.0024695
300.0023761
300.0028053
300.0027609
300.0027252
300.0026831
300.0026529
300.0026346
300.0026202
300.0025986
300.0025746
300.0025543
300.0025261
300.0025235
300.0025405
300.0025494
300.0025356
300.002563
300.0026085
300.0026051
300.0025866
300.0025588
300.0025237
300.0024824
300.0024296
300.0023708
300.0023494
300.0024131
300.0025105
300.0025802
300.0026091
300.0026019
300.0025684
300.0025183
300.0024539
300.0023664
300.0027948
300.0027542
300.0027358
300.0026935
300.0026706
300.0026541
300.0026314
300.0026027
300.0026065
300.0026043
300.0025607
300.0025164
300.0024901
300.0024834
300.0024912
300.0025599
300.0026221
300.002601
300.0025502
300.0024866
300.0024201
300.0023623
300.0023117
300.0022652
300.0022814
300.002385
300.002495
300.002564
300.0025862
300.002569
300.0025282
300.0024776
300.0024193
300.0023523
300.0028144
300.0027624
300.0027873
300.0027221
300.0027004
300.0026778
300.0026415
300.0026174
300.0026696
300.0026806
300.0026227
300.0025464
300.0024582
300.0024084
300.002458
300.0025685
300.0026401
300.0026031
300.0025249
300.0024309
300.0023379
300.0022633
300.0022171
300.0021953
300.0022593
300.0023767
300.0024744
300.0025297
300.0025382
300.0025077
300.0024612
300.0024152
300.0023725
300.0023422
300.0028955
300.0027906
300.002937
300.0027815
300.0027565
300.00271
300.002653
300.0026448
300.0027468
300.0027644
300.0026898
300.0026066
300.0024685
300.0023555
300.002431
300.0025624
300.0026309
300.0025813
300.0024845
300.0023703
300.0022727
300.0022043
300.0021769
300.0021895
300.0022755
300.0023719
300.0024402
300.0024744
300.002468
300.0024275
300.0023827
300.0023509
300.0023309
300.0023391
300.0029841
300.0028329
300.0032957
300.0028754
300.0028557
300.0027565
300.0026706
300.0026706
300.0028091
300.0028218
300.0027188
300.0026109
300.0024652
300.0023307
300.0023765
300.0025049
300.0025622
300.0025088
300.0024101
300.002293
300.0022187
300.0021781
300.0021825
300.0022263
300.0023046
300.002371
300.0024073
300.0024196
300.0024032
300.0023621
300.0023271
300.0023116
300.0023098
300.0023381
300.0031673
300.002895
300.0040321
300.0029836
300.0030072
300.0028163
300.0026978
300.0026836
300.0028192
300.002827
300.0027201
300.0025926
300.0024371
300.0023074
300.0022865
300.0023869
300.0024322
300.0023853
300.0023132
300.0022353
300.0021953
300.0021855
300.0022135
300.0022716
300.0023363
300.0023846
300.0024032
300.0024031
300.0023834
300.0023476
300.0023212
300.0023114
300.0023122
300.0023341
300.0033019
300.0031107
300.006147
300.0031504
300.0032055
300.0028726
300.0027257
300.0026542
300.0027256
300.0027262
300.0026388
300.0024951
300.0023321
300.0022354
300.0022261
300.0022645
300.0022988
300.0022716
300.0022588
300.0022399
300.0022247
300.002217
300.0022484
300.0023102
300.0023695
300.0024136
300.002433
300.0024346
300.0024168
300.0023852
300.002359
300.0023436
300.0023329
300.002333
300.0026749
300.0028955
300.0018931
300.0028276
300.0029967
300.0028363
300.0027199
300.002634
300.0025874
300.0025591
300.0025002
300.002404
300.0022887
300.0021944
300.0021845
300.002225
300.0022673
300.0022823
300.0022927
300.0022808
300.0022601
300.002246
300.0022821
300.0023444
300.0024036
300.0024509
300.0024781
300.0024862
300.0024735
300.0024453
300.0024149
300.002389
300.0023654
300.0023424
300.0027986
300.0028167
300.0031228
300.0029419
300.0029203
300.0027902
300.0026772
300.0025915
300.0025253
300.0024771
300.0024274
300.0023639
300.0022707
300.0021695
300.0021737
300.0022261
300.0022901
300.002321
300.002328
300.0023139
300.0022895
300.0022744
300.0023172
300.0023768
300.0024377
300.0024888
300.0025192
300.0025311
300.0025222
300.0024975
300.0024683
300.0024349
300.0024036
300.0023665
300.002753
300.0027496
300.0029227
300.0028914
300.002886
300.0027728
300.0026597
300.0025702
300.0024965
300.0024463
300.002397
300.0023283
300.002213
300.0021399
300.0021643
300.0022253
300.0023013
300.0023383
300.0023434
300.0023383
300.0023199
300.0023078
300.0023522
300.002407
300.0024687
300.0025198
300.0025516
300.0025647
300.0025574
300.002535
300.0025089
300.0024768
300.0024469
300.0024072
300.0026392
300.0026437
300.0027018
300.0027285
300.0027214
300.0026579
300.0025781
300.0025024
300.0024434
300.0023961
300.0023406
300.0022656
300.002172
300.0021381
300.0021649
300.0022236
300.0022994
300.0023368
300.0023464
300.0023617
300.0023562
300.0023423
300.0023834
300.0024343
300.0024937
300.0025443
300.0025764
300.0025895
300.0025833
300.0025635
300.0025415
300.0025183
300.002499
300.0024661
300.0026578
300.0026407
300.0026414
300.0026207
300.0025905
300.0025456
300.0024953
300.0024488
300.0024057
300.00236
300.0023017
300.0022327
300.0021758
300.0021543
300.0021673
300.0022139
300.0022827
300.0023214
300.0023458
300.0023857
300.0023908
300.0023715
300.0024102
300.0024595
300.0025164
300.0025656
300.0025969
300.0026102
300.0026059
300.0025906
300.0025765
300.0025676
300.0025653
300.0025445
300.0026773
300.0026544
300.0026282
300.0025893
300.0025488
300.0025104
300.0024786
300.0024496
300.0024151
300.0023771
300.0023302
300.0022766
300.0022308
300.0021949
300.0021798
300.0022045
300.0022599
300.0023035
300.0023467
300.0023987
300.0024124
300.0023981
300.0024375
300.0024873
300.0025406
300.002586
300.0026152
300.0026291
300.002629
300.002622
300.0026207
300.0026317
300.00265
300.0026423
300.0027042
300.0026886
300.0026565
300.0026223
300.0025924
300.0025624
300.0025476
300.0025162
300.0024723
300.0024413
300.0024076
300.0023647
300.0023142
300.0022511
300.0022041
300.0022034
300.0022428
300.0022932
300.0023448
300.0023893
300.0024166
300.0024283
300.0024736
300.0025211
300.002567
300.0026047
300.0026298
300.0026443
300.0026518
300.0026586
300.0026769
300.0027141
300.0027533
300.0027569
300.0027311
300.002744
300.0026994
300.0026514
300.0026156
300.0025727
300.0026229
300.0025847
300.002529
300.0024955
300.0024622
300.0024284
300.0023762
300.0022965
300.0022333
300.0022155
300.002243
300.0022978
300.0023454
300.0023804
300.0024242
300.0024661
300.0025155
300.0025567
300.0025899
300.002616
300.0026374
300.0026506
300.0026681
300.0026956
300.0027424
300.0028136
300.0028705
300.0028816
300.0027282
300.0027561
300.0027524
300.0027127
300.0026688
300.0026406
300.0026271
300.0026129
300.0025639
300.0025311
300.0025127
300.0024871
300.0024617
300.0024076
300.0023216
300.0022649
300.0022477
300.0022686
300.0023224
300.0023728
300.0024126
300.002461
300.0025098
300.0025545
300.0025841
300.0025999
300.0026141
300.0026413
300.0026493
300.0026737
300.0027237
300.0028064
300.002924
300.0029888
300.0030017
300.0027618
300.0027554
300.0028002
300.0027319
300.0026902
300.0026522
300.002622
300.002601
300.0025744
300.0026201
300.0025773
300.0025195
300.0024883
300.002422
300.0023367
300.0023058
300.0023043
300.0023155
300.0023511
300.0024
300.0024476
300.0024974
300.002543
300.002577
300.0025898
300.0025895
300.0026062
300.0026539
300.0026568
300.0026798
300.0027385
300.0028488
300.0030189
300.0030774
300.0030885
300.0026966
300.00277
300.002822
300.0028759
300.0027157
300.00266
300.0026332
300.0026163
300.0025972
300.0025672
300.0025484
300.002521
300.002519
300.0024331
300.0023569
300.0023583
300.002372
300.0023688
300.0023732
300.0024147
300.0024682
300.002516
300.0025538
300.0025714
300.0025646
300.0025668
300.0026172
300.0026722
300.0026629
300.0026788
300.002731
300.0028459
300.0030157
300.0030937
300.0031114
300.0026498
300.0027333
300.0027647
300.0027304
300.0026638
300.0026292
300.0026135
300.0026056
300.0025961
300.0025802
300.0025642
300.002538
300.0025286
300.0024289
300.0023866
300.0024135
300.0024353
300.0024209
300.0023922
300.0024104
300.0024714
300.0025163
300.0025445
300.0025454
300.0025316
300.0025931
300.0027343
300.0028066
300.0027588
300.002726
300.0027331
300.0028064
300.0029356
300.0030263
300.003045
300.0026223
300.0026245
300.0025782
300.0024359
300.0025642
300.0025998
300.0026062
300.0026023
300.0025953
300.0025974
300.0025939
300.0028446
300.0024786
300.002437
300.0024621
300.0024851
300.0024638
300.0024162
300.0023943
300.0024514
300.0024995
300.0025205
300.0025174
300.0025254
300.002675
300.0028961
300.0029357
300.0028239
300.0027049
300.0026681
300.0027402
300.0028684
300.0029539
300.0029504
300.0026042
300.0026457
300.0026489
300.0026344
300.0026269
300.0026198
300.0026138
300.0026062
300.0025966
300.0025854
300.0025653
300.00255
300.002502
300.002507
300.0025843
300.0025698
300.0025551
300.0025868
300.0026403
300.002731
300.0028262
300.002875
300.0028371
300.0026938
300.0026479
300.0026293
300.002623
300.0026178
300.0026113
300.0024724
300.002509
300.0025523
300.0025796
300.0025844
300.0025685
300.0025425
300.0025318
300.0025307
300.0025045
300.0024532
300.002391
300.0023354
300.0022986
300.0022814
300.0022756
300.0022732
300.0022723
300.0022702
300.0022615
300.0022437
300.0022188
300.0021903
300.0021604
300.0021282
300.002092
300.0020548
300.002027
300.0020189
300.0020258
300.0020309
300.0020193
300.0019877
300.0019225
300.0025324
300.002541
300.0025603
300.0025823
300.0025969
300.0026011
300.0026089
300.002626
300.0026325
300.0026062
300.0025497
300.002481
300.0024225
300.0023896
300.0023827
300.0023914
300.0024064
300.0024216
300.0024288
300.0024221
300.0024005
300.0023684
300.0023332
300.0023017
300.0022748
300.0022485
300.0022197
300.0021912
300.0021681
300.0021494
300.0021292
300.0021046
300.0020845
300.0020642
300.0025998
300.0025789
300.0025645
300.0025664
300.0025815
300.0026055
300.002644
300.0026841
300.0027013
300.0026795
300.0026243
300.002556
300.002498
300.0024653
300.0024603
300.0024765
300.0025061
300.0025359
300.0025526
300.0025496
300.0025263
300.0024888
300.0024472
300.0024118
300.0023868
300.0023674
300.0023456
300.0023188
300.0022896
300.0022596
300.0022292
300.002201
300.002188
300.0021873
300.0026737
300.0026306
300.002587
300.0025632
300.0025672
300.0025989
300.0026543
300.0027086
300.002735
300.0027205
300.0026724
300.0026114
300.0025592
300.0025286
300.0025234
300.002544
300.0025842
300.002625
300.0026501
300.0026512
300.0026269
300.0025841
300.0025355
300.0024944
300.0024686
300.0024542
300.0024396
300.0024177
300.002389
300.0023565
300.0023237
300.002293
300.0022718
300.0022559
300.0027397
300.0026838
300.002622
300.0025776
300.0025661
300.0025909
300.0026445
300.0027
300.0027293
300.0027218
300.0026858
300.0026397
300.0026
300.0025759
300.0025713
300.0025934
300.0026378
300.002684
300.0027149
300.0027196
300.0026953
300.0026485
300.0025939
300.0025476
300.0025209
300.0025119
300.0025064
300.0024929
300.002469
300.0024377
300.0024035
300.0023686
300.0023358
300.002298
300.0027824
300.0027277
300.0026584
300.0026028
300.0025787
300.0025901
300.0026287
300.0026722
300.002696
300.0026926
300.0026708
300.0026439
300.0026214
300.0026068
300.0026036
300.0026238
300.0026655
300.0027104
300.0027413
300.0027469
300.002724
300.0026773
300.0026189
300.0025692
300.0025423
300.0025398
300.0025453
300.0025432
300.0025275
300.0024999
300.0024653
300.0024261
300.0023833
300.0023273
300.0028027
300.002753
300.0026881
300.00263
300.0025989
300.0025981
300.0026184
300.0026424
300.0026538
300.0026495
300.0026395
300.0026315
300.0026257
300.0026204
300.0026181
300.0026343
300.0026685
300.0027057
300.0027319
300.0027362
300.0027137
300.0026673
300.0026081
300.0025568
300.002531
300.0025363
300.0025553
300.0025676
300.0025633
300.0025418
300.0025081
300.0024658
300.0024157
300.0023465
300.0028068
300.0027634
300.0027085
300.0026542
300.0026218
300.0026123
300.0026173
300.0026226
300.002619
300.0026086
300.0026043
300.0026091
300.002615
300.002616
300.0026135
300.0026266
300.0026523
300.002677
300.0026937
300.002693
300.0026689
300.0026217
300.0025625
300.0025108
300.0024879
300.0025047
300.002541
300.0025705
300.0025796
300.0025652
300.0025331
300.0024886
300.0024339
300.0023563
300.002803
300.0027652
300.0027214
300.0026746
300.0026445
300.0026294
300.0026229
300.0026147
300.0026008
300.0025827
300.0025746
300.0025812
300.0025904
300.0025932
300.0025907
300.0026063
300.0026268
300.0026353
300.0026364
300.0026252
300.0025948
300.0025456
300.0024866
300.0024353
300.0024192
300.0024546
300.0025133
300.0025609
300.0025814
300.0025722
300.0025402
300.002494
300.0024369
300.0023559
300.0028007
300.0027645
300.0027353
300.0026926
300.0026667
300.002647
300.002631
300.0026138
300.0026002
300.0025764
300.0025551
300.0025501
300.0025524
300.0025525
300.0025529
300.0025817
300.0026038
300.0025938
300.002572
300.0025422
300.0025011
300.0024476
300.0023884
300.0023398
300.0023388
300.002402
300.0024842
300.0025454
300.0025713
300.0025617
300.002527
300.0024793
300.0024223
300.0023452
300.0028031
300.0027638
300.0027626
300.0027126
300.0026904
300.002664
300.0026385
300.0026151
300.0026148
300.0025857
300.0025452
300.0025185
300.002503
300.0024958
300.0025061
300.0025607
300.0025905
300.0025618
300.0025114
300.0024558
300.0023996
300.0023398
300.0022824
300.0022433
300.0022707
300.0023639
300.0024601
300.0025241
300.0025459
300.0025294
300.0024897
300.0024413
300.0023893
300.0023281
300.0028305
300.0027726
300.0028258
300.0027346
300.0027199
300.0026805
300.0026434
300.0026146
300.0026409
300.0026088
300.0025428
300.0024885
300.0024493
300.002429
300.0024577
300.0025425
300.00258
300.0025351
300.002457
300.0023746
300.0023061
300.0022435
300.0021948
300.0021774
300.0022392
300.0023455
300.0024375
300.0024915
300.0025006
300.0024722
300.0024283
300.0023846
300.0023445
300.0023117
300.0028774
300.0027818
300.0029386
300.0027534
300.002756
300.0026941
300.0026433
300.0026086
300.0026748
300.0026411
300.0025484
300.0024592
300.0024005
300.0023639
300.002409
300.0025113
300.0025489
300.0024932
300.0023979