/*--------------------------------*- C++ -*----------------------------------*\
  =========                 |
  \\      /  F ield         | OpenFOAM: The Open Source CFD Toolbox
   \\    /   O peration     | Website:  https://openfoam.org
    \\  /    A nd           | Version:  8
     \\/     M anipulation  |
\*---------------------------------------------------------------------------*/
FoamFile
{
    version     2.0;
    format      ascii;
    class       volScalarField;
    location    "0.4/wallFilmRegion";
    object      delta;
}
// * * * * * * * * * * * * * * * * * * * * * * * * * * * * * * * * * * * * * //

dimensions      [0 1 0 0 0 0 0];

internalField   nonuniform List<scalar> 
1342
(
1.673408052e-05
0.0002674032816
0.0002327893804
0.0002251903115
0.0001818191345
0.003855783664
0.00597452904
5.3415714e-05
5.297783946e-05
5.859842611e-05
5.690768656e-05
3.589415333e-05
2.815806853e-05
3.666581921e-05
1.992417103e-06
5.350574123e-07
2.617483773e-05
0.0001859224261
1.748322575e-06
4.147699549e-06
3.357626867e-05
7.181574301e-05
6.163003565e-05
9.428428229e-05
8.976206933e-05
2.560879973e-05
1.935050855e-05
1.510468045e-05
1.140909176e-05
8.898992727e-06
1.041813318e-05
4.207903601e-05
1.654753054e-06
2.708976001e-07
2.285764971e-06
1.02509885e-05
1.19027299e-06
4.517724688e-07
6.378045835e-07
3.959515623e-05
0.0001337775834
0.0001924202389
3.983750129e-05
9.380472465e-06
7.600736449e-06
7.73026687e-06
1.803066058e-05
9.687615078e-05
5.252235025e-06
9.695989653e-07
1.042457894e-06
3.391024521e-06
6.322192598e-06
1.520289785e-05
3.301415765e-05
4.089482524e-05
5.434816996e-05
1.37991108e-05
1.192350678e-06
2.672095189e-07
5.114957907e-06
0.0004397741635
0.0002256437094
3.496271534e-06
7.309102305e-06
1.946414146e-05
3.882678674e-05
4.776794898e-05
3.034058763e-05
9.656792698e-05
6.861757605e-05
5.572796748e-06
3.557062085e-07
3.190573978e-07
0.0004623042152
4.621897611e-05
3.222916055e-05
5.277502011e-05
5.898997674e-05
4.979062842e-05
1.820105506e-05
0.000175840411
8.972183315e-05
9.262115502e-06
1.802768944e-20
2.027722726e-22
3.742600576e-37
7.048183876e-15
1.009215102e-06
2.558229028e-05
5.266617991e-05
6.857498386e-05
7.416775529e-05
6.811202702e-05
8.130508106e-05
6.625544722e-05
3.31030097e-05
1.235610436e-05
2.302548947e-06
2.056415131e-05
2.329078095e-06
2.300642362e-06
3.345457089e-06
3.351340031e-06
0.0002094442139
0.0002330761413
3.66455034e-05
5.800443121e-05
0.0001868145531
6.50138075e-05
4.410636982e-05
6.34620575e-07
2.911324676e-06
4.398607303e-06
5.599604133e-07
4.984654322e-06
3.950376064e-06
1.669759484e-06
2.777887898e-06
2.32012221e-06
4.878579757e-06
3.127156475e-06
5.901714067e-06
1.986192644e-05
1.037621499e-05
1.48009134e-05
2.4275836e-05
1.770706336e-05
1.881832942e-05
1.170977542e-05
1.789297255e-05
1.549413693e-05
6.342235938e-06
1.309881073e-05
1.141202713e-05
3.419861122e-06
1.008993324e-05
5.01152059e-06
3.404392609e-05
4.116936144e-06
6.061577677e-06
1.305036523e-05
2.012849145e-05
1.133807449e-05
1.575462124e-06
6.012146506e-06
8.330422659e-06
5.77539922e-07
7.229275956e-06
4.60122431e-07
8.484171819e-07
1.266622648e-11
6.731865213e-11
3.375445375e-06
1.069394712e-09
9.408154209e-09
3.976577767e-06
1.248364373e-08
1.020266172e-08
2.335382914e-06
6.09481633e-09
1.373981352e-09
4.109474427e-06
7.033635891e-09
2.02632704e-08
3.345233191e-06
1.1168253e-08
3.538112205e-07
1.802971835e-06
1.106738323e-07
5.151467638e-08
9.444602953e-07
1.996221891e-06
2.223347777e-07
6.077978127e-06
5.233333598e-07
1.163351665e-06
7.982036689e-05
4.219526882e-06
1.731332265e-05
1.199277172e-05
2.067541099e-05
1.353969562e-05
1.371662581e-05
1.39367133e-05
2.106507503e-05
9.981260532e-06
3.113152623e-05
2.509489286e-05
1.360911958e-12
4.556616605e-06
8.130337005e-09
2.153708579e-19
3.789060322e-31
7.310177593e-30
1.065814575e-22
4.034848728e-31
3.335494902e-33
2.241850317e-25
2.401767967e-34
5.970117253e-39
8.676255987e-32
1.799635538e-44
2.010739087e-44
6.223685143e-13
1.955234532e-44
1.078276615e-24
7.821722728e-22
7.829724288e-34
1.618384526e-33
5.177289274e-09
1.083858782e-21
2.921519343e-22
2.66527435e-07
1.665969057e-07
1.075804761e-07
4.247241766e-06
2.773090552e-07
1.251302041e-06
1.665990984e-05
2.524085144e-05
2.469750834e-05
3.446817218e-05
3.563132431e-05
5.653052626e-05
3.925186116e-05
6.983644839e-05
2.889469438e-05
1.586267306e-08
1.307135493e-06
5.548052204e-11
9.818265847e-42
5.766743059e-55
5.331899275e-53
7.237509494e-45
3.003294713e-54
3.845046389e-56
1.030019281e-51
3.092447005e-58
2.129652182e-63
7.596157195e-56
4.671730761e-67
4.585634664e-67
4.731361825e-36
4.664344405e-64
3.142931364e-48
9.862501287e-46
3.700412036e-57
2.829198272e-57
2.110270703e-33
8.469404712e-45
2.37477701e-45
4.233003372e-08
4.310609423e-27
1.533822608e-10
4.269561565e-07
8.683399852e-08
2.868859616e-07
0.0001897766762
1.28728529e-05
0.0002995692786
4.026822918e-05
4.689461643e-05
4.504919154e-05
6.739798133e-05
3.880722228e-05
2.041197149e-05
3.579611877e-06
2.592623022e-06
1.730130684e-09
4.642949194e-67
2.219503555e-60
2.850724394e-60
2.864503912e-64
2.82877653e-77
1.828196882e-75
1.939002819e-67
1.010505329e-76
1.494538828e-71
5.365607604e-75
5.399474548e-71
1.181833531e-69
1.012041227e-65
1.051752222e-58
8.195218751e-55
2.237636425e-51
1.500643541e-42
1.097601885e-40
1.805799802e-53
6.032332483e-40
1.51939333e-42
6.571201341e-37
6.898355963e-26
2.132679688e-26
1.091391144e-13
1.478085954e-09
7.99110758e-08
1.047422283e-05
7.551580807e-06
1.011805873e-05
0.0004733821775
2.855992599e-05
0.0007577809038
1.140079976e-05
5.802422455e-06
1.098354597e-07
4.270766212e-07
2.552918384e-09
9.224641729e-13
1.244758473e-48
1.55314711e-47
7.321029961e-37
2.321513635e-48
5.033602705e-37
4.886648253e-36
1.00960253e-66
8.083381014e-56
4.209901948e-55
5.10854905e-60
1.619177165e-56
4.056068599e-48
1.271580483e-58
8.019575593e-48
1.464205557e-47
7.512552579e-44
1.532588676e-36
7.175000745e-33
4.963254105e-30
2.447105444e-21
1.080521028e-19
1.256306536e-31
4.82820586e-19
7.199426821e-21
5.275652681e-16
2.275939112e-08
9.093515602e-09
1.963333992e-06
7.826682797e-06
2.981689111e-06
7.214735446e-05
5.850351647e-06
8.294692561e-05
2.364971899e-05
1.028663835e-05
6.64389756e-13
4.552650919e-07
4.002850221e-07
8.050819555e-14
3.83734036e-07
3.510240624e-07
3.145350624e-25
2.915254288e-07
1.192004459e-07
3.970885827e-24
2.648116258e-08
7.025038249e-09
1.049714088e-26
5.919500468e-07
8.782724276e-08
3.035567057e-36
1.248758715e-08
7.904666002e-09
3.094558849e-35
5.305254652e-09
6.886240957e-08
6.029765104e-22
4.014593288e-08
1.298706346e-07
1.946874515e-09
1.289707298e-06
3.107407584e-06
4.262798018e-10
4.813730892e-06
1.475421289e-06
1.455574373e-06
1.224901293e-05
2.015334456e-05
0.0003714920468
0.0001607063183
0.001515905397
0.0002198839922
0.001244773273
0.001265734136
2.465440248e-05
8.239150126e-05
1.0542045e-05
1.966706092e-05
1.471014707e-05
8.972734655e-06
1.303932342e-05
1.338339452e-05
6.279662998e-06
1.402853902e-05
1.425223017e-05
5.438314732e-06
1.568140955e-05
2.71251224e-05
8.456990139e-06
5.048902398e-05
3.634747624e-05
3.76111854e-06
6.221535329e-06
1.249703207e-05
6.815367801e-06
9.263769212e-06
1.91065813e-05
5.518143436e-06
1.751602317e-05
1.288046204e-05
2.608443988e-05
1.445940519e-05
0.0001770906597
2.322912806e-05
0.0002167851037
0.0001469493326
0.0001303887225
0.000381835223
0.0006469893243
3.816847648e-06
3.408517608e-06
4.288143546e-06
3.599997423e-06
3.932126387e-06
5.393892497e-06
4.426628376e-06
5.144757025e-06
7.627566106e-06
6.214718469e-06
7.91913958e-06
1.333028282e-05
1.092013195e-05
1.694899242e-05
1.183947223e-05
3.082418299e-05
1.568301899e-05
3.595438234e-06
5.537005333e-06
3.409437917e-06
2.749448228e-06
2.850486135e-06
2.451211886e-06
2.142646329e-06
2.100486566e-06
1.852419415e-06
1.363277532e-06
1.27656463e-06
1.013032776e-06
7.831962252e-07
1.647301319e-06
2.379145839e-06
3.083393156e-06
3.713956967e-06
5.257092824e-06
9.458431828e-06
2.325546913e-05
2.369091013e-05
4.523923329e-06
2.098186564e-06
2.884756232e-06
3.204382934e-06
1.316515774e-05
2.072536992e-05
3.063685701e-05
4.281596962e-05
1.917617906e-06
1.416233526e-06
1.476919441e-06
1.133103674e-06
1.024447388e-06
9.379727616e-07
6.810719522e-07
5.373522911e-07
2.905433461e-07
2.775313307e-06
4.461760772e-06
9.598327846e-06
9.549052863e-06
1.526135093e-05
2.357596374e-05
2.351593192e-05
3.94610165e-05
4.699449848e-05
3.67772698e-05
5.244610436e-05
3.975719241e-05
6.960734919e-05
6.388518685e-05
3.047309772e-06
8.459474956e-07
4.866954903e-07
4.709979651e-07
2.229871323e-07
1.831509859e-07
9.120114063e-08
1.825090141e-06
4.653118299e-06
4.572024025e-05
4.571034337e-05
5.180935577e-05
2.357682382e-05
8.519373558e-05
9.839098097e-05
0.0001289383496
0.0001265039711
2.712073824e-05
9.122725833e-05
1.070042863e-06
2.747662311e-07
7.348745414e-15
5.245550899e-05
6.076207701e-05
0.0002716810198
3.61643857e-07
1.574463349e-41
0.0005628540686
1.240321776e-05
0.0005595022496
1.419847577e-05
0.0005816923169
1.782922012e-05
0.0006125449511
2.402506405e-05
0.0005645980975
3.124356834e-05
9.76882405e-05
8.024272052e-06
0.0001548112661
7.420558003e-06
0.0002137742905
7.539435004e-06
1.410077669e-05
0.0003533136882
1.104258467e-05
2.006945301e-06
4.588867875e-07
1.166861243e-06
2.516030076e-06
1.092267747e-05
2.580372777e-05
1.771060505e-05
8.155869264e-06
4.803858832e-06
1.965185648e-05
0.0001582386381
0.0001495372963
0.0004019017916
9.000017967e-05
1.269469567e-05
3.095219859e-06
6.730156319e-07
5.827049557e-07
1.755782741e-06
3.981913418e-06
3.480122397e-06
3.211559988e-06
2.773002693e-06
4.122538576e-06
1.327820404e-06
2.905870077e-06
2.28220027e-05
0.0002058833623
0.000265433791
0.0001096975864
2.05451357e-05
9.939949874e-06
1.778898531e-05
4.143969729e-07
9.337701606e-22
1.256914554e-20
3.410145948e-23
2.536454733e-25
3.166925486e-33
4.156446754e-22
1.991169806e-08
1.111208614e-07
9.353774694e-07
6.463769079e-05
2.139556307e-05
2.081680778e-05
5.095300538e-05
6.079115653e-06
5.130276943e-19
5.818461757e-43
1.01917089e-46
7.318817199e-56
6.176636478e-56
2.143974343e-45
7.464042753e-33
1.093515066e-08
9.717772998e-08
1.74770759e-05
3.524049922e-05
5.497544556e-05
3.995119126e-05
1.490605695e-09
3.691132948e-66
1.561838368e-65
1.07687384e-69
1.128639945e-69
2.574213114e-53
1.409376324e-50
1.943182109e-36
2.911270021e-17
4.612462969e-06
2.049702422e-05
3.366526744e-05
3.797238046e-06
4.481652356e-10
8.507898393e-49
2.243716632e-67
3.672762901e-68
1.487928373e-59
1.177805603e-47
8.5517659e-32
2.3746977e-29
1.991573917e-15
9.79962578e-07
1.305695164e-05
1.237322444e-05
3.596412795e-07
3.989769536e-13
1.111295757e-25
9.090530305e-26
2.70587372e-12
4.069534525e-40
7.54798724e-36
9.254092033e-26
1.946347032e-10
1.080164156e-08
2.61052037e-06
6.108233326e-05
0.0001909027094
0.0002514687795
0.0003926001069
1.064307465e-05
9.794470542e-06
7.711778211e-06
4.894756588e-06
1.740730156e-05
3.20513051e-06
3.228763903e-06
6.212227565e-06
6.473883982e-06
2.837191991e-05
9.363988903e-05
0.000390910363
0.0005905443854
0.0001157033934
0.0001369924568
0.0001956180526
0.0001535044727
3.9544704e-05
2.477873602e-05
3.935278061e-05
4.985196859e-05
3.76705676e-05
0.0007844970624
0.001078126978
0.003835221617
0.002372874126
3.796370268e-06
3.981037595e-06
4.746466697e-06
6.305595702e-06
9.670259699e-06
2.132121457e-05
4.221119842e-06
3.175570445e-06
2.394472654e-06
2.0114721e-06
1.794987227e-06
1.509586492e-06
1.576852211e-06
1.248920041e-06
8.849073758e-07
6.331789712e-07
5.560026141e-05
4.635945277e-05
3.319019368e-06
4.319916284e-06
4.616487781e-06
6.780645069e-06
8.596369643e-06
1.440603839e-05
3.944365816e-05
1.207182295e-05
2.740453958e-05
2.629227866e-06
3.705620565e-06
1.804240307e-06
0.0002216409098
0.0001851264372
0.000143730215
1.014545543e-05
5.949376458e-07
1.021986155e-07
1.287427505e-07
3.016791035e-05
2.280000922e-05
0.0004545974691
5.750877054e-06
5.177680445e-06
6.104351049e-06
1.385548906e-05
2.243568486e-05
4.809228642e-05
0.0001402753838
0.0001422051329
1.839613893e-05
4.534505082e-06
7.779337343e-06
3.710040293e-07
2.80023625e-08
8.620176928e-08
1.028438746e-05
0.0005205980661
0.0005261227764
0.0003068319256
1.258566448e-05
2.636861058e-05
8.323900677e-05
0.0001158966354
4.668561005e-05
2.647952692e-05
3.525438037e-06
6.916860163e-06
5.98556666e-05
6.634024459e-05
6.098273987e-05
4.813916151e-05
4.507197201e-05
1.587265447e-05
1.240775592e-05
6.340416419e-09
2.033917861e-12
5.167342306e-16
6.999980279e-05
6.584909694e-05
5.422553419e-05
3.671657063e-05
8.182238568e-06
6.411120524e-09
9.760872912e-32
1.323627766e-41
1.405582648e-43
5.788982805e-05
5.565464036e-05
4.713882199e-05
3.342631621e-05
8.577399462e-06
0.0001210269242
5.923054348e-10
1.884370331e-12
1.458042825e-13
5.063492804e-05
6.055576919e-05
6.085583694e-05
5.265297932e-05
2.66285464e-05
8.706656304e-05
0.0001285670768
5.793933192e-05
1.649144442e-05
0.0005922382416
1.214312114e-05
3.151071459e-08
4.239110353e-06
0.0005550411978
1.309830236e-05
3.138819271e-07
1.401319454e-05
4.394233616e-06
4.696793049e-06
0.0005688444781
1.574608961e-05
3.084936297e-05
3.382297816e-05
5.14943496e-06
5.780476135e-06
0.0005976470963
2.056339186e-05
3.614933229e-05
3.652712941e-05
6.642247262e-06
7.821613736e-06
0.0006131060084
2.805076259e-05
3.434860318e-05
3.080912243e-05
9.46088551e-06
1.188007783e-05
0.0003906587172
2.342302739e-05
2.622256671e-05
2.143855703e-05
1.575915477e-05
1.043397936e-05
0.0001288563703
7.767744774e-06
2.79639917e-05
4.223792557e-05
3.990616476e-06
3.635018146e-06
0.0001784524363
7.174264881e-06
5.703624217e-05
6.678958392e-05
3.255485114e-06
2.865215026e-06
0.0002911855317
8.824904306e-06
6.461789984e-05
5.008606523e-05
2.567070031e-06
2.393954636e-06
0.0001786056655
0.0002515429042
2.335693541e-06
0.000355971353
0.0002479811386
2.328139644e-05
3.237372681e-05
0.0001307186806
0.0002634345694
3.001365595e-06
0.0001110091061
2.996638958e-06
2.908646296e-06
8.675758539e-05
3.160224804e-05
0.0002400333209
0.0001230867752
3.887293833e-06
1.097562972e-05
0.001270880825
4.004137244e-05
0.001290259205
0.002571303637
0.002210173511
4.072890738e-05
7.986178628e-05
7.722003265e-05
0.00301736384
0.001043243872
7.959768297e-05
0.001026961445
0.0003245422711
0.004371577875
0.001767323156
0.004947612455
0.002204658333
0.0007053693108
0.0002983039383
0.0008636019838
0.0004110728703
0.0001024858424
0.0005779292444
5.079281531e-05
2.661003923e-05
0.0001153577522
0.001040586285
0.0009814718701
5.340358019e-05
2.628586965e-05
2.449205585e-05
0.000180680174
0.0008804982024
0.0007407040383
5.451816954e-05
2.234078068e-05
2.060608098e-05
0.0001892051769
0.0006437198674
0.0006452401424
6.159017294e-05
1.922620067e-05
1.739004061e-05
8.770566431e-05
0.0006979043371
0.0006872533292
4.577610154e-05
1.463891833e-05
1.18953182e-05
2.911280051e-05
0.0006700289061
0.0006700513783
3.012197873e-05
1.016373622e-05
9.553342874e-06
4.492339946e-05
0.0006946283423
0.000692912208
2.967647326e-05
1.007960769e-05
1.281696514e-05
8.554232587e-05
0.0006784945383
0.0008935761927
3.55451478e-05
2.439648157e-05
1.361469638e-05
3.369937549e-05
0.000542047454
0.0003784399283
7.270817991e-07
1.077953749e-06
4.180309915e-07
0.0004487277434
0.0003786867869
0.0007404364038
2.87144325e-06
1.8643138e-07
4.46062494e-07
0.0007654133337
0.001458651722
0.00205485323
7.788074827e-05
3.341255474e-06
9.34910913e-06
0.001364691176
0.001602973116
0.001631384397
3.224960938e-05
1.348796431e-05
0.0001008135602
6.014317922e-05
1.543137168e-06
7.60354699e-07
1.07710482e-06
5.762419892e-07
3.23837041e-07
1.448251727e-05
7.036087784e-06
9.249279299e-06
1.844049143e-05
5.334053617e-05
3.721341396e-05
6.820468689e-05
5.772697817e-05
0.0001018819065
9.157261536e-05
8.460833074e-05
8.033819222e-05
0.0001137205733
0.0001474715022
0.0001106463519
7.387334171e-05
0.0001353738295
9.589905237e-05
7.708210598e-05
9.115710024e-05
9.094204211e-05
2.763144698e-05
2.242905058e-05
1.695896784e-05
1.345813963e-05
1.331278346e-05
1.176374159e-05
1.034957995e-05
9.785713672e-06
9.107043567e-06
8.215700555e-06
8.921492515e-06
7.96640529e-06
8.806886392e-06
1.65028199e-05
1.241497239e-05
2.520317613e-05
1.35412248e-05
6.92973078e-05
1.378130172e-05
7.100274276e-07
2.93830359e-06
1.354528375e-06
3.373826287e-07
4.922894331e-07
2.895989594e-07
6.405549872e-06
1.57466516e-06
4.52579316e-06
3.054663047e-05
9.764923688e-06
3.739751463e-05
5.724052568e-05
4.32453456e-05
3.743388983e-06
6.065024036e-06
3.400083611e-05
1.217520866e-05
7.377329409e-07
6.332896314e-07
3.224639228e-07
2.162206671e-07
2.642653674e-07
2.956132669e-07
2.484671362e-06
1.822147119e-06
1.762864017e-05
6.021127868e-06
1.674642133e-05
3.888879289e-05
8.22927177e-05
8.87786431e-05
8.783823258e-05
0.0001308744378
0.0001659306674
0.0001581419664
0.0001614509991
0.0002395445138
0.0002893648903
0.0003903541825
0.0003402139401
0.0002576777071
0.0003362221564
9.973337805e-05
0.0001085872969
8.134975064e-05
0.000218169503
0.0001706300135
8.811085971e-06
1.072561241e-05
8.360705023e-06
7.787345643e-06
7.088822464e-06
6.724039809e-06
6.973628925e-06
7.25389987e-06
8.698270778e-06
1.428997866e-05
1.01589273e-05
3.916300903e-05
2.827215716e-05
5.48516268e-05
0.0001185330897
2.379686069e-05
1.621687241e-05
4.452860174e-06
2.546117664e-06
8.870225922e-06
1.857856975e-06
3.438588697e-07
5.42843576e-07
2.805880032e-06
5.426291881e-07
1.697038122e-06
2.97988942e-05
5.305008974e-06
2.073007107e-05
4.232482109e-05
3.127241724e-06
4.213255192e-06
6.143167218e-06
3.278232431e-05
3.996048648e-05
4.177808731e-05
3.459522896e-05
8.941945805e-06
1.837741898e-06
7.344409911e-07
1.200428881e-05
2.91625193e-05
4.324067865e-05
6.375663528e-05
2.425309518e-07
1.36883108e-07
3.144158723e-08
8.989754879e-07
8.252077735e-07
8.96472927e-06
7.226201557e-06
3.418945972e-05
6.753599917e-05
0.0001384429282
8.427090206e-05
0.0002074101892
0.0001852199468
0.0002098309667
0.0005407104844
0.0006308720284
0.0005162808809
0.0001768488904
0.0005161202734
0.0003301230521
4.87050031e-06
5.544065536e-06
6.992982165e-06
7.214340307e-06
1.194976675e-05
4.059478827e-05
5.891595552e-05
6.043059838e-05
7.655290106e-05
0.0001368640326
6.199742916e-05
8.120727357e-05
2.79572416e-05
1.400385708e-05
1.49704373e-05
7.859238457e-06
9.672305426e-07
4.01623803e-06
4.869462585e-05
1.393496189e-05
2.953654775e-06
2.925874617e-06
0.00015375383
0.0001583932629
7.344928897e-05
6.279374699e-06
5.407731911e-06
5.603191506e-06
8.12522057e-06
2.680747563e-05
3.944851768e-05
7.649954094e-05
8.532651733e-05
4.519743649e-05
9.227554228e-06
1.393608624e-06
3.084255739e-06
1.370562091e-06
1.307632362e-06
9.272542858e-06
1.566749535e-05
2.514371703e-05
3.610515132e-05
5.346752742e-05
5.030028208e-05
4.115646146e-05
4.380503584e-05
1.227577003e-05
2.373943064e-06
5.406956551e-07
2.092410381e-05
3.173470561e-05
4.377402947e-05
4.316683479e-05
5.788925701e-05
5.837590812e-05
5.63384711e-05
5.982057909e-05
5.572082849e-05
3.79847649e-05
3.567887633e-05
0.0001506384613
0.0001401313722
0.0001904718161
0.0001171269863
4.012113571e-05
6.504736502e-05
2.576900555e-05
1.401245566e-06
4.3963834e-06
7.022650615e-08
4.640754293e-08
6.098911571e-09
7.336191152e-09
3.105185344e-09
1.971889154e-07
1.514218704e-21
1.866269769e-10
3.031165994e-37
3.209690164e-06
5.696317072e-07
2.125000847e-06
1.054101701e-14
4.989170217e-14
8.562025116e-06
2.730090518e-05
1.278302128e-12
1.794697348e-07
0.0001199060955
4.380112681e-06
0.0001752151148
0.0002847797155
1.974863909e-05
1.709870844e-06
7.748502498e-06
7.149462644e-06
1.552381542e-05
1.383646584e-05
2.90017992e-05
4.486830945e-05
5.850700835e-05
7.265131366e-05
5.875355103e-05
6.856683816e-05
7.564978053e-05
8.023883784e-05
9.289444353e-05
8.143721062e-05
7.232364287e-05
8.583649115e-05
8.041152301e-05
8.043491101e-05
6.51256458e-05
7.835230387e-05
4.299803541e-05
6.639484255e-05
4.859667788e-05
3.187871472e-05
1.136941962e-05
2.287367144e-05
1.773907061e-05
8.650886536e-06
4.904017915e-06
3.243835274e-06
5.08059676e-06
0.0001853474218
2.06889769e-05
4.288678747e-06
4.486503635e-06
2.393194618e-05
4.276493375e-05
7.216936176e-05
9.484749065e-05
8.689084191e-05
2.53655084e-05
1.62273677e-05
4.085659779e-06
9.396834685e-06
5.1404209e-05
6.072860735e-05
6.477156305e-05
6.585592359e-05
6.798148528e-05
6.49735276e-05
6.740707982e-05
6.439553206e-05
5.446981398e-05
5.920950028e-05
5.194518345e-05
3.15885639e-05
4.224349158e-05
2.892709499e-05
0.0008417252887
1.059263046e-05
0.000902458366
9.304269565e-12
5.626039193e-09
4.226414613e-12
1.981799721e-13
2.153952986e-32
9.219652196e-41
1.787826746e-20
2.902908522e-42
1.615141153e-43
3.770792231e-44
6.836096908e-05
8.012538916e-05
6.904241528e-05
7.709382356e-05
7.181431155e-05
6.078037404e-05
6.49218675e-05
5.703814418e-05
4.631308708e-05
4.866080636e-05
3.990980619e-05
2.438587281e-05
3.043994002e-05
1.931539104e-05
0.001001907575
5.700135775e-06
0.001322526111
1.828652208e-11
1.051732584e-08
2.028864132e-10
4.704786632e-40
1.047004662e-30
5.73386533e-39
8.228107512e-43
1.425003655e-40
9.03144748e-42
4.183126829e-44
1.038835032e-42
2.211774231e-43
1.384369328e-42
5.538322972e-05
4.893103862e-05
5.776222841e-05
5.517856558e-05
5.810374108e-05
5.202096735e-05
5.858471676e-05
5.723896128e-05
4.105794783e-05
5.429198709e-05
4.963677011e-05
2.311628961e-05
4.27289321e-05
3.208259679e-05
8.793389503e-05
1.586385128e-05
5.014046374e-05
0.0004271101392
9.403970961e-05
0.000203553191
5.156705978e-12
0.0001376659876
7.974022987e-05
9.40350873e-13
4.381689467e-05
2.33978147e-05
3.52628192e-14
7.987060962e-06
2.073586462e-06
3.371075911e-07
3.822681772e-06
4.017596108e-05
2.907890873e-05
1.365428277e-05
5.719585014e-05
4.323901456e-05
5.421477024e-05
3.994458566e-05
6.163024525e-05
6.104017488e-05
6.462990196e-05
6.210189781e-05
5.810665108e-05
6.592235844e-05
6.510119383e-05
4.265145172e-05
6.145681568e-05
5.295336566e-05
7.150851611e-05
5.137223534e-05
3.916008812e-05
5.809983224e-05
0.0001375787741
8.505941705e-05
0.0001093990781
9.081011244e-05
0.0001036831271
7.672073976e-05
4.614847862e-05
3.612530519e-05
5.26097701e-05
3.574871071e-05
1.407647587e-05
2.347488346e-05
)
;

boundaryField
{
    walls
    {
        type            zeroGradient;
    }
    wallFilmFace_top
    {
        type            zeroGradient;
    }
    region0_to_wallFilmRegion_wallFilmFace
    {
        type            zeroGradient;
    }
    mirrorFace_top
    {
        type            zeroGradient;
    }
    region0_to_wallFilmRegion_mirrorFace
    {
        type            zeroGradient;
    }
    procBoundary3to2
    {
        type            processor;
        value           nonuniform List<scalar> 
64
(
4.392565377e-05
2.721085454e-05
2.28588378e-05
1.577694126e-05
1.26558139e-05
2.44289303e-06
3.198147732e-06
1.248268559e-05
6.809428937e-06
1.117635503e-05
6.79985541e-05
1.56810183e-05
1.56810183e-05
2.575662279e-05
3.279138766e-05
4.350240158e-05
4.423771999e-05
4.071914454e-05
4.026991175e-05
4.542194218e-05
4.990188069e-05
5.713638137e-05
4.998426459e-05
4.998426459e-05
0.0001944046691
0.0001912015128
0.0001912015128
0.0008202889047
0.0005026686948
0.0005026686948
3.922134923e-06
3.352491417e-06
3.352491417e-06
2.986950532e-06
2.730929814e-06
0.0006568256162
1.24260056e-05
1.575458041e-05
0.0001579252044
4.237768969e-06
7.203920368e-06
2.068264372e-05
4.004757993e-05
6.381113008e-05
4.941469868e-05
2.691075544e-05
1.575458041e-05
4.237768969e-06
0.0005447801818
2.480406516e-05
2.638132521e-05
1.898384582e-05
1.577694126e-05
1.034447176e-05
2.531635657e-06
6.049978013e-06
4.39570693e-06
5.611801329e-06
3.66005053e-06
4.397525731e-06
5.247254501e-05
8.034334262e-05
3.880844791e-05
1.597550277e-05
)
;
    }
}


// ************************************************************************* //
