/*--------------------------------*- C++ -*----------------------------------*\
  =========                 |
  \\      /  F ield         | OpenFOAM: The Open Source CFD Toolbox
   \\    /   O peration     | Website:  https://openfoam.org
    \\  /    A nd           | Version:  8
     \\/     M anipulation  |
\*---------------------------------------------------------------------------*/
FoamFile
{
    version     2.0;
    format      ascii;
    class       volScalarField;
    location    "0.4/wallFilmRegion";
    object      kappa;
}
// * * * * * * * * * * * * * * * * * * * * * * * * * * * * * * * * * * * * * //

dimensions      [1 1 -3 -1 0 0 0];

internalField   nonuniform List<scalar> 
1342
(
0.6088099967
0.6088099971
0.6088099959
0.6088099948
0.6088099963
0.6088099965
0.608809997
0.6088099993
0.6088099993
0.6088099994
0.6088099994
0.6088099994
0.6088099994
0.6088099995
0.6088099932
0.6088099735
0.6088099967
0.6088099977
0.6088099892
0.6088099852
0.6088099934
0.6088099976
0.6088099999
0.6088099998
0.6088099997
0.6088099993
0.6088099992
0.6088099991
0.608809999
0.6088099989
0.6088099991
0.6088099996
0.6088099961
0.6088099737
0.6088099898
0.6088099933
0.6088099858
0.6088099633
0.6088099678
0.6088099961
0.6088099986
0.60881
0.6088099996
0.6088099988
0.6088099986
0.6088099987
0.6088099993
0.6088099998
0.6088099988
0.6088099928
0.608809982
0.608809998
0.6088099988
0.6088099994
0.6088099997
0.6088099998
0.6088099995
0.6088099984
0.6088099891
0.6088099531
0.6088099953
0.60881
0.6088099999
0.6088099929
0.6088099991
0.6088099996
0.6088099998
0.6088099999
0.6088099999
0.6088099998
0.6088099993
0.6088099974
0.6088099742
0.6088099934
0.60881
0.6088099998
0.6088099998
0.6088099999
0.6088099999
0.6088099999
0.6088099999
0.6088099999
0.6088099997
0.6088099991
0.608808135
0.6088079601
0.6088080799
0.6088080995
0.6088099977
0.6088099997
0.6088099999
0.6088099999
0.6088099999
0.60881
0.6088099999
0.6088099999
0.6088099998
0.6088099995
0.6088099922
0.6088099971
0.608809992
0.6088099916
0.6088099916
0.6088099907
0.6088099972
0.608809995
0.6088099907
0.6088099936
0.6088099955
0.6088099962
0.6088099988
0.608809973
0.6088099841
0.6088099868
0.6088099877
0.6088099878
0.6088099876
0.6088099969
0.608809983
0.6088099798
0.6088099839
0.6088099753
0.6088099723
0.6088099726
0.6088099716
0.6088099721
0.6088099717
0.6088099739
0.6088099769
0.6088099729
0.6088099798
0.608809982
0.6088099748
0.6088099832
0.6088099838
0.6088099765
0.6088099842
0.6088099843
0.608809995
0.6088099878
0.6088099913
0.6088099739
0.6088099705
0.6088099737
0.6088099868
0.6088099771
0.608809979
0.6088100109
0.6088099802
0.6088099889
0.6088100046
0.6088102682
0.6088102706
0.608809987
0.6088102608
0.6088101739
0.6088099872
0.6088101527
0.6088101631
0.6088099891
0.6088101871
0.6088102401
0.6088099902
0.6088101919
0.6088101314
0.6088099908
0.6088101721
0.6088100333
0.6088099919
0.6088100479
0.608810173
0.6088099919
0.6088099995
0.6088100006
0.6088099958
0.6088099966
0.6088099963
0.608809997
0.6088099968
0.608809997
0.6088099732
0.6088099735
0.6088099738
0.608809978
0.6088099758
0.6088099779
0.60880998
0.608809979
0.6088099796
0.6088102714
0.6088099804
0.6088100498
0.60881
0.60881
0.60881
0.60881
0.60881
0.60881
0.60881
0.60881
0.60881
0.60881
0.60881
0.60881
0.6088102803
0.60881
0.60881
0.60881
0.60881
0.60881
0.6088101681
0.60881
0.60881
0.608809999
0.6088100089
0.6088100067
0.608809997
0.6088099997
0.6088099974
0.608809975
0.6088099761
0.6088099764
0.6088099782
0.6088099776
0.6088099786
0.6088099795
0.6088099792
0.6088099795
0.6088100145
0.6088099805
0.6088102403
0.60881
0.60881
0.60881
0.60881
0.60881
0.60881
0.60881
0.60881
0.60881
0.60881
0.60881
0.60881
0.60881
0.60881
0.60881
0.60881
0.60881
0.60881
0.60881
0.60881
0.60881
0.608810024
0.60881
0.6088102248
0.6088099986
0.6088100049
0.6088099993
0.6088099966
0.6088099967
0.6088099961
0.6088099776
0.6088099777
0.6088099782
0.6088099789
0.6088099787
0.6088099792
0.6088099798
0.6088099798
0.6088100674
0.60881
0.60881
0.60881
0.60881
0.60881
0.60881
0.60881
0.60881
0.60881
0.60881
0.60881
0.60881
0.60881
0.60881
0.60881
0.60881
0.60881
0.60881
0.60881
0.60881
0.60881
0.60881
0.60881
0.60881
0.6088102156
0.6088101517
0.6088100114
0.6088099973
0.6088099988
0.6088099978
0.6088099959
0.6088099964
0.6088099958
0.6088099786
0.6088099788
0.6088099857
0.6088099814
0.6088100627
0.6088102391
0.60881
0.60881
0.60881
0.60881
0.60881
0.60881
0.60881
0.60881
0.60881
0.60881
0.60881
0.60881
0.60881
0.60881
0.60881
0.60881
0.60881
0.60881
0.60881
0.60881
0.60881
0.60881
0.60881
0.60881
0.6088101761
0.6088101238
0.608810117
0.6088099987
0.6088099988
0.6088099986
0.6088099969
0.6088099985
0.6088099969
0.6088099791
0.6088099813
0.6088102749
0.6088100026
0.6088100055
0.6088102637
0.6088100061
0.6088100075
0.60881
0.6088100108
0.6088100261
0.60881
0.6088100793
0.6088101272
0.60881
0.6088099965
0.6088100044
0.60881
0.6088100864
0.6088101427
0.60881
0.6088101343
0.6088100077
0.60881
0.608810034
0.6088100073
0.6088101219
0.6088099694
0.6088099754
0.6088101055
0.6088099805
0.6088099915
0.6088099975
0.6088099979
0.6088099983
0.608809997
0.608809999
0.6088099976
0.6088099966
0.6088099973
0.6088099967
0.608809993
0.6088099943
0.6088099926
0.6088099946
0.6088099942
0.6088099921
0.6088099939
0.6088099938
0.6088099921
0.6088099937
0.6088099937
0.6088099929
0.6088099938
0.6088099937
0.6088099903
0.6088099933
0.6088099903
0.608809972
0.608809972
0.6088099761
0.6088099774
0.6088099824
0.6088099877
0.608809972
0.6088099872
0.6088099888
0.6088099888
0.6088099905
0.6088099966
0.6088099952
0.6088099981
0.608809999
0.6088099989
0.6088099992
0.6088099991
0.6088099981
0.6088099979
0.6088099983
0.608809998
0.6088099981
0.6088099986
0.6088099983
0.6088099985
0.6088099989
0.6088099987
0.6088099989
0.6088099993
0.6088099992
0.6088099994
0.6088099993
0.6088099996
0.6088099994
0.6088099968
0.608809998
0.6088099965
0.6088099947
0.6088099953
0.608809994
0.6088099921
0.6088099924
0.608809991
0.6088099867
0.6088099856
0.6088099819
0.6088099762
0.6088099794
0.6088099835
0.6088099977
0.608809998
0.6088099985
0.6088099991
0.6088099995
0.6088099996
0.6088099971
0.6088099932
0.6088099976
0.6088099978
0.6088099993
0.6088099995
0.6088099996
0.6088099998
0.6088099928
0.6088099887
0.6088099902
0.6088099867
0.6088099832
0.6088099835
0.6088099746
0.608809971
0.6088099484
0.6088099976
0.6088099984
0.6088099991
0.6088099992
0.6088099994
0.6088099996
0.6088099996
0.6088099998
0.6088099998
0.6088099999
0.6088099999
0.6088099991
0.6088099996
0.6088099993
0.6088099953
0.6088099842
0.6088099719
0.6088099754
0.6088099426
0.6088099433
0.6088098971
0.6088099958
0.6088099987
0.6088099998
0.6088099998
0.6088099999
0.6088099999
0.60881
0.6088099995
0.6088099999
0.6088099997
0.6088099989
0.6088099995
0.6088099909
0.608809986
0.6088082126
0.6088099999
0.6088099999
0.60881
0.6088099957
0.6088081785
0.6088099994
0.6088099989
0.6088099994
0.608809999
0.6088099995
0.6088099992
0.6088099995
0.6088099994
0.6088099995
0.6088099995
0.6088099981
0.6088099982
0.6088099969
0.6088099969
0.6088099967
0.608809996
0.6088099965
0.6088099974
0.6088099961
0.6088099902
0.6088099757
0.6088099974
0.6088099935
0.6088099758
0.6088099718
0.6088099721
0.6088099738
0.6088099757
0.6088099934
0.6088099965
0.6088099973
0.608809997
0.6088099972
0.6088099713
0.6088099806
0.6088100035
0.6088100121
0.6088099916
0.6088099864
0.6088099882
0.6088099894
0.60880999
0.6088099915
0.6088099915
0.6088099951
0.6088099968
0.6088099973
0.6088099973
0.608809997
0.6088099718
0.6088099758
0.6088099792
0.6088099865
0.60881
0.60881
0.60881
0.60881
0.60881
0.60881
0.608810156
0.6088100039
0.6088099973
0.608809997
0.6088099748
0.6088099766
0.6088099791
0.6088099799
0.60881
0.60881
0.60881
0.60881
0.60881
0.60881
0.60881
0.6088102131
0.6088100057
0.6088099969
0.6088099771
0.6088099783
0.6088099793
0.6088100773
0.60881
0.60881
0.60881
0.60881
0.60881
0.60881
0.60881
0.60881
0.6088099989
0.6088099965
0.6088099781
0.6088099793
0.6088101454
0.60881
0.60881
0.60881
0.60881
0.60881
0.60881
0.60881
0.6088101902
0.6088100004
0.6088099987
0.6088099962
0.6088099847
0.6088102694
0.60881
0.60881
0.6088102456
0.60881
0.60881
0.60881
0.6088101775
0.608810049
0.6088099918
0.6088099988
0.6088099968
0.6088099962
0.6088099791
0.6088099928
0.6088099923
0.608809992
0.6088099919
0.6088099925
0.6088099747
0.6088099704
0.608809972
0.6088099728
0.60880999
0.6088099986
0.6088099989
0.6088099971
0.6088099966
0.6088099954
0.6088099952
0.6088099946
0.6088099929
0.6088099864
0.6088099986
0.6088099984
0.608809996
0.6088099986
0.6088099991
0.6088099973
0.6088099982
0.608809998
0.6088099982
0.6088099985
0.6088099988
0.6088099991
0.6088099995
0.6088099977
0.6088099958
0.6088099933
0.6088099913
0.6088099898
0.6088099885
0.6088099878
0.6088099846
0.6088099754
0.6088099661
0.6088099995
0.6088099991
0.6088099978
0.6088099983
0.6088099984
0.6088099988
0.608809999
0.6088099993
0.6088099997
0.6088099988
0.6088099992
0.608809995
0.6088099962
0.6088099915
0.60881
0.6088099999
0.6088099999
0.6088099945
0.6088099773
0.6088099111
0.6088099084
0.6088099972
0.6088099977
0.60881
0.6088099983
0.6088099982
0.6088099984
0.6088099992
0.6088099995
0.6088099997
0.6088099999
0.6088099999
0.6088099996
0.6088099986
0.6088099992
0.6088099688
0.6088098415
0.6088099125
0.6088099982
0.60881
0.60881
0.60881
0.6088099992
0.6088099996
0.6088099999
0.60881
0.6088099998
0.6088099998
0.6088099967
0.6088099986
0.6088099999
0.6088099999
0.6088099999
0.6088099999
0.6088099999
0.6088099999
0.6088099999
0.6088096247
0.6088083457
0.6088081173
0.6088099999
0.60881
0.60881
0.6088099999
0.6088099998
0.6088097115
0.6088079491
0.6088079815
0.6088083293
0.6088099999
0.60881
0.60881
0.6088099999
0.6088099998
0.60881
0.6088089467
0.6088083729
0.6088082258
0.6088099999
0.6088099999
0.60881
0.60881
0.6088099999
0.60881
0.60881
0.6088099999
0.6088099998
0.6088099994
0.6088099988
0.6088099994
0.6088099983
0.6088099994
0.608809999
0.6088099992
0.6088099994
0.6088099984
0.6088099985
0.6088099995
0.6088099991
0.6088099994
0.6088099994
0.6088099986
0.6088099988
0.6088099995
0.6088099993
0.6088099994
0.6088099994
0.6088099989
0.608809999
0.6088099995
0.6088099994
0.6088099993
0.6088099987
0.6088099992
0.6088099993
0.6088099995
0.6088099995
0.6088099966
0.6088099903
0.6088099994
0.6088099993
0.6088099974
0.6088099976
0.6088099837
0.6088099811
0.6088099979
0.6088099971
0.6088099966
0.6088099964
0.6088099806
0.6088099808
0.6088099962
0.6088099952
0.6088099971
0.6088099959
0.6088099812
0.6088099825
0.6088099941
0.6088099932
0.6088099955
0.6088099961
0.6088099927
0.6088099965
0.6088099968
0.6088099956
0.6088099962
0.608809997
0.6088099971
0.608809992
0.6088099971
0.608809989
0.6088099852
0.608809997
0.608809997
0.6088099968
0.6088099968
0.6088099841
0.6088099864
0.6088099958
0.6088099957
0.6088099959
0.6088099961
0.6088099957
0.6088099997
0.6088099998
0.6088099998
0.6088099962
0.6088099965
0.6088099995
0.6088099976
0.6088099974
0.6088099972
0.6088099973
0.6088099969
0.6088099969
0.6088099971
0.6088099976
0.6088099973
0.6088099974
0.6088099966
0.6088099985
0.6088099994
0.6088099993
0.6088099959
0.6088099984
0.6088099982
0.6088099993
0.6088099993
0.6088099993
0.6088099954
0.6088099979
0.6088099974
0.6088099994
0.6088099993
0.6088099993
0.6088099949
0.6088099969
0.6088099968
0.6088099994
0.6088099993
0.6088099992
0.6088099941
0.6088099973
0.6088099979
0.6088099994
0.6088099992
0.6088099991
0.6088099922
0.6088099985
0.6088099988
0.6088099994
0.6088099991
0.6088099991
0.608809996
0.608809999
0.6088099993
0.6088099994
0.6088099991
0.6088099993
0.6088099992
0.6088099994
0.6088099996
0.6088099995
0.6088099995
0.6088099994
0.6088099974
0.6088099993
0.6088099989
0.6088099838
0.6088099941
0.6088099864
0.6088099976
0.6088099981
0.6088099977
0.6088099903
0.608809963
0.6088099727
0.608809999
0.6088099984
0.6088099989
0.6088099975
0.6088099923
0.6088099943
0.6088099974
0.6088099989
0.6088099989
0.6088099959
0.6088099941
0.6088099981
0.608809998
0.6088099876
0.6088099763
0.6088099813
0.6088099684
0.6088099488
0.6088099894
0.6088099889
0.6088099916
0.608809992
0.6088099957
0.6088099951
0.6088099966
0.6088099993
0.6088099982
0.6088099995
0.6088099999
0.6088099999
0.6088099999
0.6088099999
0.6088099999
0.6088099999
0.6088099999
0.6088099996
0.6088099999
0.6088099999
0.6088099999
0.6088099993
0.6088099992
0.6088099992
0.608809999
0.6088099991
0.608809999
0.6088099989
0.608809999
0.6088099988
0.6088099988
0.608809999
0.6088099988
0.6088099989
0.6088099993
0.6088099992
0.6088099995
0.6088099993
0.6088099997
0.6088099993
0.608809992
0.6088099978
0.6088099958
0.6088099639
0.6088099856
0.6088099592
0.6088099929
0.6088099866
0.6088099911
0.6088099974
0.6088099933
0.6088099987
0.6088099997
0.6088099995
0.6088099981
0.6088099987
0.6088099997
0.6088099984
0.6088099769
0.6088099757
0.6088099545
0.6088099328
0.6088099421
0.6088099544
0.6088099876
0.6088099827
0.6088099942
0.608809993
0.6088099954
0.6088099968
0.6088099972
0.6088099977
0.6088099979
0.6088099996
0.6088099997
0.608809999
0.608809999
0.60881
0.60881
0.60881
0.60881
0.60881
0.60881
0.6088099999
0.6088099999
0.6088099999
0.6088099999
0.6088099999
0.6088099987
0.6088099989
0.6088099987
0.6088099986
0.6088099985
0.6088099985
0.6088099986
0.6088099986
0.6088099989
0.6088099992
0.608809999
0.6088099996
0.6088099995
0.6088099997
0.6088099999
0.6088099994
0.6088099993
0.6088099988
0.6088099978
0.6088099993
0.6088099963
0.6088099668
0.6088099799
0.608809988
0.6088099721
0.6088099832
0.6088099992
0.6088099929
0.6088099991
0.6088099997
0.6088099979
0.6088099984
0.6088099988
0.6088099997
0.6088099998
0.6088099998
0.6088099989
0.6088099978
0.6088099931
0.6088099839
0.6088099994
0.6088099997
0.6088099999
0.6088099999
0.6088099574
0.6088099486
0.6088098007
0.6088099841
0.6088099769
0.6088099964
0.608809997
0.6088099989
0.6088099984
0.6088099993
0.6088099996
0.6088099999
0.6088099999
0.60881
0.60881
0.60881
0.60881
0.6088099999
0.60881
0.60881
0.6088099983
0.6088099983
0.6088099988
0.6088099987
0.6088099991
0.6088099997
0.6088099998
0.6088099998
0.6088099999
0.6088099999
0.6088099998
0.6088099999
0.6088099997
0.6088099996
0.6088099997
0.6088099993
0.6088099901
0.6088099983
0.6088099998
0.6088099988
0.6088099965
0.608809995
0.6088099999
0.6088099999
0.6088099999
0.6088099984
0.6088099982
0.6088099983
0.6088099988
0.6088099995
0.6088099997
0.6088099998
0.6088099999
0.6088099997
0.6088099994
0.6088099931
0.6088099973
0.6088099844
0.6088099882
0.6088099993
0.6088099996
0.6088099997
0.6088099998
0.6088099999
0.6088099999
0.6088099999
0.6088099992
0.6088099986
0.6088099963
0.608809988
0.6088099997
0.6088099998
0.6088099998
0.6088099998
0.6088099999
0.6088099999
0.6088099999
0.6088099999
0.6088099999
0.6088099999
0.6088099999
0.60881
0.6088099998
0.60881
0.6088099999
0.6088099995
0.6088099998
0.6088099996
0.6088099975
0.6088099992
0.6088099433
0.6088099752
0.608809668
0.6088098846
0.608809398
0.6088099689
0.6088079624
0.6088085501
0.6088079158
0.6088099975
0.6088099975
0.6088099984
0.608808089
0.6088080266
0.6088099992
0.6088099999
0.6088079741
0.6088099895
0.6088099999
0.6088099992
0.6088099999
0.60881
0.6088099995
0.6088099978
0.6088099991
0.6088099989
0.6088099995
0.6088099994
0.6088099997
0.6088099998
0.6088099999
0.6088099999
0.6088099998
0.6088099999
0.6088099999
0.6088099999
0.6088099999
0.6088099999
0.60881
0.60881
0.6088099999
0.6088099999
0.6088099999
0.6088099999
0.6088099999
0.6088099999
0.6088099999
0.6088099998
0.6088099995
0.6088099998
0.6088099996
0.6088099991
0.6088099985
0.6088099978
0.608809999
0.6088099999
0.6088099996
0.608809998
0.6088099983
0.6088099995
0.6088099998
0.6088099999
0.6088099999
0.6088099999
0.6088099998
0.6088099997
0.608809997
0.6088099989
0.6088099999
0.6088099999
0.6088099999
0.6088099999
0.6088099999
0.6088099999
0.6088099999
0.60881
0.6088099999
0.60881
0.60881
0.6088099999
0.6088099999
0.6088099999
0.60881
0.6088099998
0.60881
0.6088083551
0.60880967
0.6088083768
0.6088083092
0.6088080925
0.6088080534
0.6088080508
0.6088080525
0.6088080513
0.6088081818
0.6088099999
0.6088099999
0.6088099999
0.60881
0.60881
0.60881
0.60881
0.60881
0.60881
0.60881
0.6088099999
0.6088099999
0.6088099999
0.6088099999
0.60881
0.6088099996
0.60881
0.608808496
0.6088097431
0.6088092802
0.6088079212
0.6088078143
0.6088078726
0.6088081922
0.6088081473
0.6088083386
0.6088082412
0.6088083576
0.6088082629
0.6088082752
0.6088099999
0.6088099999
0.6088099999
0.6088099999
0.6088099999
0.60881
0.6088099999
0.60881
0.60881
0.60881
0.60881
0.6088099999
0.60881
0.6088099999
0.60881
0.6088099999
0.60881
0.60881
0.60881
0.60881
0.6088084751
0.60881
0.6088099999
0.6088083015
0.6088099999
0.6088099999
0.608808157
0.6088099998
0.6088099995
0.6088099965
0.6088099994
0.6088099998
0.6088099998
0.6088099995
0.6088099999
0.6088099998
0.6088099999
0.6088099998
0.6088099999
0.6088099999
0.6088099999
0.6088099999
0.60881
0.6088099999
0.6088099999
0.60881
0.60881
0.60881
0.60881
0.60881
0.60881
0.60881
0.60881
0.60881
0.60881
0.6088099999
0.6088099999
0.6088099999
0.6088099999
0.6088099998
0.6088099999
0.6088099998
0.6088099996
0.6088099997
)
;

boundaryField
{
    walls
    {
        type            zeroGradient;
    }
    wallFilmFace_top
    {
        type            zeroGradient;
    }
    region0_to_wallFilmRegion_wallFilmFace
    {
        type            zeroGradient;
    }
    mirrorFace_top
    {
        type            zeroGradient;
    }
    region0_to_wallFilmRegion_mirrorFace
    {
        type            zeroGradient;
    }
    procBoundary3to2
    {
        type            processor;
        value           nonuniform List<scalar> 
64
(
0.6088099993
0.6088099993
0.6088099992
0.6088099991
0.608809999
0.6088099972
0.6088099982
0.6088099995
0.6088099991
0.6088099814
0.6088099701
0.6088099743
0.6088099743
0.6088099695
0.6088099714
0.6088099743
0.6088099756
0.6088099764
0.6088099769
0.6088099774
0.6088099777
0.608809978
0.6088099783
0.6088099783
0.6088099784
0.6088099786
0.6088099786
0.6088099787
0.6088099819
0.6088099819
0.608809998
0.6088099978
0.6088099978
0.6088099975
0.6088099974
0.6088099994
0.6088099988
0.6088099994
0.6088099938
0.6088099983
0.6088099985
0.6088099997
0.6088099998
0.6088099999
0.6088099999
0.6088099998
0.6088099994
0.6088099983
0.6088099986
0.6088099993
0.6088099993
0.6088099992
0.6088099991
0.6088099988
0.6088099975
0.6088099983
0.608809998
0.608809999
0.6088099979
0.6088099985
0.6088099999
0.6088099999
0.6088099999
0.6088099996
)
;
    }
}


// ************************************************************************* //
