/*--------------------------------*- C++ -*----------------------------------*\
  =========                 |
  \\      /  F ield         | OpenFOAM: The Open Source CFD Toolbox
   \\    /   O peration     | Website:  https://openfoam.org
    \\  /    A nd           | Version:  8
     \\/     M anipulation  |
\*---------------------------------------------------------------------------*/
FoamFile
{
    version     2.0;
    format      ascii;
    class       volScalarField;
    location    "0.4/wallFilmRegion";
    object      mu;
}
// * * * * * * * * * * * * * * * * * * * * * * * * * * * * * * * * * * * * * //

dimensions      [1 -1 -1 0 0 0 0];

internalField   nonuniform List<scalar> 
1342
(
0.0008861474561
0.0008861474514
0.0008861474676
0.0008861474832
0.0008861474614
0.0008861474589
0.0008861474519
0.0008861474194
0.0008861474196
0.0008861474191
0.0008861474188
0.0008861474192
0.0008861474191
0.0008861474174
0.0008861475048
0.0008861477808
0.0008861474567
0.0008861474426
0.0008861475606
0.0008861476166
0.000886147503
0.0008861474442
0.000886147412
0.0008861474137
0.0008861474152
0.0008861474206
0.0008861474215
0.0008861474225
0.0008861474241
0.0008861474254
0.000886147423
0.0008861474156
0.0008861474643
0.0008861477775
0.0008861475523
0.0008861475038
0.0008861476079
0.0008861479222
0.0008861478605
0.0008861474646
0.0008861474296
0.000886147411
0.0008861474158
0.0008861474274
0.0008861474293
0.0008861474279
0.0008861474196
0.000886147413
0.0008861474274
0.0008861475104
0.0008861476614
0.0008861474385
0.000886147427
0.0008861474189
0.0008861474148
0.0008861474126
0.0008861474171
0.0008861474333
0.0008861475621
0.0008861480646
0.0008861474757
0.0008861474108
0.0008861474111
0.0008861475091
0.000886147423
0.0008861474164
0.0008861474137
0.0008861474124
0.0008861474118
0.0008861474137
0.0008861474206
0.0008861474462
0.0008861477704
0.0008861475025
0.0008861474109
0.0008861474132
0.0008861474136
0.0008861474123
0.0008861474116
0.0008861474113
0.0008861474116
0.0008861474112
0.0008861474146
0.0008861474228
0.0008861734469
0.0008861758882
0.0008861742168
0.0008861739419
0.0008861474427
0.0008861474147
0.0008861474124
0.0008861474115
0.0008861474111
0.0008861474109
0.0008861474111
0.0008861474115
0.0008861474128
0.0008861474175
0.0008861475194
0.0008861474509
0.0008861475216
0.0008861475271
0.0008861475279
0.00088614754
0.0008861474497
0.0008861474803
0.0008861475403
0.0008861475002
0.0008861474729
0.0008861474631
0.0008861474272
0.0008861477876
0.0008861476317
0.000886147595
0.0008861475815
0.0008861475803
0.0008861475831
0.0008861474536
0.0008861476482
0.0008861476927
0.0008861476344
0.0008861477555
0.0008861477967
0.0008861477924
0.0008861478073
0.0008861477996
0.0008861478049
0.0008861477742
0.000886147733
0.0008861477893
0.0008861476917
0.0008861476622
0.000886147762
0.0008861476448
0.0008861476359
0.000886147739
0.0008861476311
0.0008861476297
0.0008861474805
0.0008861475812
0.0008861475311
0.0008861477745
0.0008861478218
0.0008861477774
0.0008861475943
0.0008861477298
0.0008861477039
0.0008861472581
0.0008861476863
0.0008861475657
0.0008861473463
0.0008861436658
0.000886143633
0.0008861475924
0.000886143769
0.0008861449828
0.000886147589
0.0008861452781
0.0008861451338
0.0008861475621
0.0008861447988
0.0008861440581
0.0008861475474
0.0008861447313
0.0008861455757
0.0008861475393
0.0008861450075
0.0008861469452
0.0008861475228
0.0008861467413
0.000886144995
0.0008861475235
0.0008861474175
0.0008861474013
0.0008861474685
0.0008861474573
0.0008861474617
0.0008861474517
0.0008861474554
0.0008861474526
0.000886147784
0.0008861477809
0.0008861477759
0.0008861477172
0.0008861477485
0.0008861477195
0.0008861476895
0.0008861477033
0.0008861476958
0.0008861436208
0.0008861476844
0.0008861467153
0.0008861474103
0.0008861474103
0.0008861474103
0.0008861474103
0.0008861474103
0.0008861474103
0.0008861474103
0.0008861474103
0.0008861474103
0.0008861474103
0.0008861474103
0.0008861474103
0.0008861434976
0.0008861474103
0.0008861474103
0.0008861474103
0.0008861474103
0.0008861474103
0.0008861450639
0.0008861474103
0.0008861474103
0.0008861474239
0.0008861472857
0.0008861473164
0.000886147452
0.0008861474147
0.0008861474467
0.0008861477594
0.0008861477444
0.0008861477393
0.000886147715
0.0008861477228
0.0008861477088
0.0008861476971
0.0008861477012
0.0008861476972
0.0008861472081
0.0008861476823
0.0008861440559
0.0008861474103
0.0008861474103
0.0008861474103
0.0008861474103
0.0008861474103
0.0008861474103
0.0008861474103
0.0008861474103
0.0008861474103
0.0008861474103
0.0008861474103
0.0008861474103
0.0008861474103
0.0008861474103
0.0008861474103
0.0008861474103
0.0008861474103
0.0008861474103
0.0008861474103
0.0008861474103
0.0008861474103
0.0008861470746
0.0008861474103
0.0008861442726
0.0008861474298
0.0008861473419
0.0008861474199
0.0008861474584
0.0008861474569
0.0008861474641
0.0008861477234
0.0008861477211
0.0008861477151
0.0008861477047
0.0008861477075
0.0008861477012
0.0008861476929
0.0008861476923
0.0008861464697
0.0008861474103
0.0008861474103
0.0008861474103
0.0008861474103
0.0008861474103
0.0008861474103
0.0008861474103
0.0008861474103
0.0008861474103
0.0008861474103
0.0008861474103
0.0008861474103
0.0008861474103
0.0008861474103
0.0008861474103
0.0008861474103
0.0008861474103
0.0008861474103
0.0008861474103
0.0008861474103
0.0008861474103
0.0008861474103
0.0008861474103
0.0008861474103
0.0008861444011
0.0008861452925
0.0008861472513
0.0008861474478
0.0008861474267
0.0008861474411
0.0008861474682
0.0008861474607
0.0008861474691
0.0008861477089
0.000886147707
0.0008861476094
0.0008861476702
0.0008861465351
0.0008861440728
0.0008861474103
0.0008861474103
0.0008861474103
0.0008861474103
0.0008861474103
0.0008861474103
0.0008861474103
0.0008861474103
0.0008861474103
0.0008861474103
0.0008861474103
0.0008861474103
0.0008861474103
0.0008861474103
0.0008861474103
0.0008861474103
0.0008861474103
0.0008861474103
0.0008861474103
0.0008861474103
0.0008861474103
0.0008861474103
0.0008861474103
0.0008861474103
0.0008861449521
0.0008861456825
0.0008861457768
0.000886147429
0.0008861474269
0.0008861474294
0.0008861474529
0.0008861474307
0.0008861474539
0.0008861477017
0.0008861476717
0.0008861435723
0.0008861473745
0.0008861473336
0.0008861437293
0.000886147325
0.0008861473058
0.0008861474103
0.0008861472599
0.0008861470456
0.0008861474103
0.0008861463033
0.000886145634
0.0008861474103
0.0008861474591
0.0008861473489
0.0008861474103
0.0008861462041
0.0008861454177
0.0008861474103
0.0008861455359
0.0008861473035
0.0008861474103
0.0008861469351
0.0008861473083
0.0008861457083
0.0008861478379
0.0008861477541
0.0008861459379
0.0008861476823
0.0008861475287
0.0008861474446
0.000886147439
0.0008861474339
0.0008861474521
0.0008861474242
0.0008861474432
0.0008861474583
0.0008861474483
0.000886147456
0.0008861475075
0.0008861474896
0.0008861475142
0.0008861474863
0.000886147492
0.0008861475208
0.0008861474956
0.0008861474973
0.0008861475212
0.0008861474979
0.0008861474976
0.0008861475098
0.0008861474972
0.0008861474977
0.0008861475463
0.0008861475042
0.0008861475456
0.0008861478019
0.0008861478017
0.0008861477446
0.0008861477252
0.0008861476564
0.0008861475815
0.0008861478007
0.0008861475893
0.0008861475673
0.000886147567
0.0008861475425
0.0008861474575
0.0008861474773
0.0008861474363
0.0008861474242
0.0008861474258
0.0008861474221
0.0008861474229
0.0008861474367
0.0008861474402
0.0008861474336
0.0008861474383
0.0008861474362
0.0008861474296
0.0008861474338
0.0008861474311
0.0008861474252
0.0008861474283
0.0008861474252
0.0008861474201
0.000886147422
0.0008861474189
0.0008861474195
0.000886147416
0.0008861474183
0.0008861474552
0.0008861474386
0.0008861474589
0.0008861474849
0.0008861474759
0.0008861474943
0.0008861475207
0.0008861475162
0.0008861475363
0.000886147596
0.0008861476119
0.0008861476634
0.0008861477424
0.0008861476974
0.0008861476404
0.0008861474429
0.0008861474377
0.0008861474309
0.0008861474234
0.000886147417
0.0008861474163
0.0008861474505
0.0008861475051
0.0008861474445
0.0008861474412
0.0008861474204
0.0008861474175
0.0008861474154
0.0008861474137
0.0008861475104
0.0008861475686
0.0008861475474
0.0008861475961
0.0008861476444
0.000886147641
0.0008861477645
0.000886147815
0.0008861481309
0.0008861474441
0.0008861474326
0.0008861474224
0.0008861474218
0.0008861474184
0.0008861474164
0.0008861474162
0.0008861474136
0.0008861474128
0.0008861474122
0.0008861474122
0.0008861474224
0.0008861474155
0.0008861474196
0.0008861474754
0.0008861476306
0.0008861478028
0.0008861477538
0.0008861482111
0.0008861482017
0.0008861488468
0.0008861474691
0.0008861474286
0.0008861474129
0.0008861474129
0.0008861474123
0.0008861474116
0.000886147411
0.0008861474169
0.0008861474123
0.0008861474145
0.0008861474263
0.0008861474175
0.0008861475377
0.0008861476056
0.0008861723633
0.0008861474122
0.0008861474116
0.0008861474106
0.0008861474709
0.0008861728395
0.0008861474188
0.0008861474258
0.0008861474181
0.0008861474239
0.0008861474174
0.0008861474217
0.0008861474169
0.0008861474193
0.0008861474167
0.0008861474173
0.0008861474367
0.0008861474349
0.0008861474535
0.000886147453
0.0008861474565
0.0008861474665
0.000886147459
0.0008861474472
0.0008861474653
0.0008861475474
0.0008861477499
0.0008861474467
0.0008861475008
0.0008861477486
0.0008861478038
0.0008861478002
0.0008861477761
0.0008861477501
0.0008861475031
0.0008861474589
0.0008861474479
0.0008861474517
0.0008861474494
0.0008861478114
0.0008861476815
0.0008861473612
0.0008861472419
0.0008861475276
0.0008861476006
0.0008861475757
0.0008861475576
0.0008861475493
0.000886147529
0.0008861475291
0.0008861474792
0.0008861474552
0.0008861474477
0.000886147448
0.0008861474516
0.0008861478039
0.0008861477486
0.0008861477006
0.0008861475984
0.0008861474103
0.0008861474103
0.0008861474103
0.0008861474103
0.0008861474103
0.0008861474103
0.0008861452319
0.0008861473558
0.0008861474478
0.0008861474517
0.0008861477616
0.0008861477375
0.0008861477026
0.0008861476903
0.0008861474103
0.0008861474103
0.0008861474103
0.0008861474103
0.0008861474103
0.0008861474103
0.0008861474103
0.0008861444358
0.0008861473312
0.0008861474542
0.0008861477302
0.0008861477128
0.0008861476999
0.0008861463307
0.0008861474103
0.0008861474103
0.0008861474103
0.0008861474103
0.0008861474103
0.0008861474103
0.0008861474103
0.0008861474103
0.0008861474251
0.0008861474597
0.0008861477159
0.0008861476987
0.0008861453811
0.0008861474103
0.0008861474103
0.0008861474103
0.0008861474103
0.0008861474103
0.0008861474103
0.0008861474103
0.0008861447557
0.0008861474052
0.0008861474285
0.0008861474639
0.0008861476246
0.00088614365
0.0008861474103
0.0008861474103
0.000886143982
0.0008861474103
0.0008861474103
0.0008861474103
0.0008861449326
0.0008861467259
0.0008861475246
0.0008861474266
0.0008861474548
0.0008861474637
0.0008861477015
0.0008861475106
0.0008861475178
0.0008861475222
0.000886147523
0.000886147515
0.0008861477636
0.0008861478236
0.0008861478009
0.0008861477906
0.0008861475504
0.0008861474297
0.0008861474252
0.0008861474515
0.0008861474584
0.0008861474745
0.0008861474773
0.0008861474854
0.0008861475101
0.0008861475999
0.0008861474299
0.0008861474326
0.0008861474656
0.0008861474296
0.0008861474225
0.0008861474483
0.0008861474351
0.0008861474378
0.0008861474353
0.0008861474317
0.0008861474275
0.0008861474227
0.0008861474175
0.0008861474425
0.0008861474687
0.0008861475032
0.0008861475318
0.0008861475522
0.0008861475709
0.0008861475808
0.0008861476254
0.0008861477537
0.0008861478833
0.0008861474172
0.000886147423
0.0008861474406
0.0008861474345
0.000886147433
0.0008861474272
0.0008861474241
0.0008861474199
0.0008861474146
0.0008861474278
0.0008861474211
0.0008861474803
0.0008861474641
0.0008861475285
0.000886147411
0.000886147411
0.0008861474112
0.000886147487
0.0008861477272
0.0008861486514
0.0008861486893
0.0008861474494
0.0008861474426
0.0008861474108
0.0008861474344
0.0008861474357
0.000886147432
0.0008861474212
0.0008861474176
0.0008861474143
0.0008861474117
0.0008861474115
0.0008861474157
0.0008861474298
0.0008861474209
0.0008861478462
0.0008861496237
0.0008861486324
0.000886147435
0.0008861474108
0.0008861474108
0.0008861474109
0.0008861474209
0.0008861474156
0.0008861474116
0.000886147411
0.0008861474125
0.0008861474127
0.000886147457
0.0008861474292
0.0008861474117
0.0008861474113
0.0008861474111
0.0008861474112
0.0008861474111
0.0008861474117
0.000886147412
0.0008861526496
0.0008861705057
0.0008861736946
0.0008861474112
0.000886147411
0.0008861474109
0.0008861474112
0.0008861474136
0.0008861514386
0.0008861760418
0.0008861755893
0.0008861707346
0.0008861474112
0.000886147411
0.0008861474109
0.0008861474111
0.0008861474131
0.0008861474107
0.0008861621156
0.0008861701256
0.0008861721796
0.0008861474119
0.0008861474113
0.000886147411
0.000886147411
0.0008861474112
0.0008861474108
0.000886147411
0.0008861474116
0.0008861474137
0.0008861474191
0.0008861474265
0.0008861474189
0.0008861474334
0.0008861474185
0.0008861474249
0.0008861474214
0.0008861474183
0.0008861474322
0.0008861474308
0.0008861474178
0.0008861474228
0.0008861474184
0.0008861474185
0.0008861474292
0.0008861474276
0.0008861474171
0.0008861474205
0.0008861474186
0.0008861474189
0.0008861474258
0.000886147424
0.0008861474167
0.0008861474182
0.0008861474206
0.0008861474287
0.0008861474221
0.0008861474202
0.0008861474169
0.0008861474176
0.0008861474577
0.0008861475452
0.0008861474183
0.0008861474195
0.0008861474462
0.0008861474438
0.000886147638
0.0008861476735
0.0008861474402
0.0008861474507
0.0008861474572
0.0008861474612
0.0008861476815
0.0008861476788
0.000886147463
0.0008861474774
0.0008861474507
0.0008861474674
0.0008861476726
0.0008861476541
0.0008861474922
0.0008861475046
0.0008861474735
0.0008861474654
0.0008861475118
0.0008861474596
0.0008861474544
0.0008861474719
0.0008861474638
0.0008861474524
0.0008861474512
0.0008861475222
0.0008861474512
0.0008861475639
0.0008861476164
0.0008861474524
0.0008861474527
0.0008861474553
0.0008861474546
0.0008861476319
0.0008861475999
0.0008861474695
0.0008861474699
0.0008861474677
0.0008861474653
0.0008861474703
0.0008861474143
0.0008861474136
0.0008861474127
0.0008861474635
0.0008861474588
0.0008861474176
0.0008861474445
0.0008861474471
0.0008861474493
0.0008861474478
0.0008861474541
0.0008861474531
0.0008861474515
0.0008861474432
0.0008861474483
0.0008861474469
0.0008861474577
0.0008861474312
0.0008861474194
0.00088614742
0.0008861474672
0.0008861474328
0.0008861474357
0.0008861474196
0.0008861474201
0.0008861474203
0.0008861474749
0.0008861474403
0.0008861474469
0.0008861474194
0.0008861474205
0.0008861474206
0.0008861474812
0.0008861474537
0.0008861474547
0.0008861474189
0.0008861474207
0.0008861474211
0.0008861474929
0.0008861474475
0.0008861474391
0.0008861474189
0.0008861474217
0.0008861474226
0.0008861475186
0.0008861474318
0.0008861474272
0.0008861474193
0.0008861474233
0.0008861474233
0.0008861474663
0.000886147424
0.0008861474208
0.0008861474185
0.0008861474224
0.0008861474205
0.000886147422
0.0008861474188
0.0008861474161
0.0008861474169
0.0008861474173
0.0008861474192
0.0008861474466
0.0008861474208
0.0008861474254
0.0008861476363
0.0008861474934
0.0008861475999
0.0008861474445
0.0008861474371
0.000886147442
0.0008861475459
0.000886147927
0.000886147791
0.0008861474236
0.0008861474331
0.0008861474259
0.0008861474455
0.0008861475185
0.0008861474904
0.0008861474473
0.0008861474252
0.000886147426
0.0008861474673
0.0008861474925
0.0008861474364
0.0008861474377
0.000886147583
0.0008861477419
0.000886147672
0.0008861478515
0.000886148125
0.0008861475586
0.0008861475654
0.0008861475272
0.0008861475219
0.0008861474703
0.0008861474792
0.0008861474578
0.0008861474202
0.0008861474358
0.0008861474176
0.0008861474117
0.0008861474115
0.0008861474113
0.0008861474112
0.0008861474113
0.0008861474119
0.0008861474112
0.0008861474152
0.0008861474121
0.0008861474117
0.0008861474115
0.0008861474203
0.000886147421
0.0008861474219
0.0008861474239
0.0008861474232
0.0008861474248
0.0008861474258
0.000886147425
0.0008861474268
0.0008861474275
0.0008861474248
0.0008861474273
0.0008861474256
0.0008861474197
0.0008861474221
0.0008861474176
0.0008861474201
0.0008861474141
0.0008861474207
0.0008861475224
0.0008861474409
0.0008861474685
0.0008861479137
0.0008861476112
0.0008861479795
0.0008861475099
0.0008861475974
0.0008861475344
0.0008861474472
0.0008861475034
0.000886147429
0.0008861474139
0.0008861474177
0.0008861474373
0.0008861474284
0.0008861474146
0.0008861474322
0.0008861477323
0.0008861477491
0.0008861480457
0.0008861483486
0.000886148218
0.0008861480464
0.0008861475833
0.0008861476515
0.0008861474913
0.0008861475082
0.0008861474742
0.0008861474555
0.0008861474495
0.000886147443
0.0008861474393
0.000886147416
0.0008861474146
0.0008861474244
0.000886147425
0.0008861474109
0.0008861474109
0.0008861474108
0.0008861474108
0.0008861474109
0.0008861474109
0.0008861474118
0.0008861474116
0.000886147412
0.0008861474111
0.0008861474112
0.0008861474285
0.0008861474262
0.0008861474285
0.0008861474299
0.0008861474309
0.0008861474312
0.0008861474299
0.0008861474294
0.0008861474264
0.0008861474213
0.0008861474243
0.0008861474156
0.0008861474169
0.0008861474141
0.0008861474123
0.0008861474181
0.0008861474202
0.0008861474274
0.0008861474406
0.0008861474206
0.0008861474613
0.0008861478732
0.0008861476905
0.0008861475785
0.0008861477993
0.0008861476444
0.0008861474221
0.0008861475094
0.0008861474233
0.0008861474147
0.0008861474393
0.0008861474326
0.0008861474266
0.0008861474146
0.0008861474136
0.0008861474128
0.000886147425
0.0008861474405
0.0008861475062
0.0008861476353
0.000886147419
0.0008861474148
0.000886147412
0.0008861474114
0.0008861480051
0.0008861481281
0.0008861501932
0.0008861476319
0.0008861477334
0.0008861474601
0.0008861474524
0.0008861474256
0.0008861474321
0.0008861474194
0.0008861474157
0.000886147411
0.0008861474111
0.000886147411
0.0008861474108
0.0008861474108
0.0008861474108
0.0008861474113
0.0008861474108
0.0008861474109
0.0008861474344
0.0008861474336
0.0008861474275
0.0008861474285
0.0008861474222
0.0008861474144
0.0008861474131
0.0008861474133
0.0008861474122
0.0008861474112
0.0008861474134
0.0008861474121
0.000886147414
0.0008861474155
0.0008861474149
0.00088614742
0.0008861475489
0.0008861474339
0.0008861474134
0.0008861474275
0.0008861474588
0.0008861474807
0.0008861474114
0.0008861474114
0.0008861474122
0.0008861474333
0.0008861474355
0.0008861474343
0.0008861474271
0.0008861474169
0.0008861474149
0.0008861474128
0.0008861474123
0.0008861474149
0.0008861474183
0.0008861475071
0.0008861474481
0.0008861476287
0.0008861475756
0.0008861474194
0.0008861474166
0.0008861474148
0.0008861474137
0.000886147412
0.0008861474117
0.0008861474116
0.0008861474214
0.0008861474296
0.0008861474613
0.0008861475778
0.0008861474148
0.0008861474134
0.0008861474128
0.0008861474127
0.0008861474119
0.0008861474118
0.0008861474114
0.0008861474114
0.0008861474113
0.0008861474113
0.0008861474113
0.0008861474107
0.0008861474125
0.000886147411
0.0008861474118
0.0008861474174
0.0008861474136
0.0008861474161
0.000886147445
0.0008861474219
0.0008861482019
0.0008861477565
0.0008861520457
0.000886149021
0.0008861558149
0.0008861478448
0.0008861758562
0.0008861676521
0.0008861765072
0.0008861474452
0.0008861474457
0.0008861474327
0.0008861740891
0.0008861749601
0.0008861474209
0.0008861474124
0.0008861756933
0.0008861475575
0.0008861474113
0.0008861474209
0.0008861474111
0.000886147411
0.000886147417
0.0008861474408
0.0008861474229
0.0008861474256
0.0008861474174
0.0008861474192
0.0008861474146
0.0008861474132
0.0008861474124
0.0008861474113
0.0008861474127
0.0008861474118
0.0008861474115
0.0008861474113
0.0008861474113
0.0008861474111
0.000886147411
0.0008861474109
0.0008861474111
0.0008861474113
0.0008861474117
0.0008861474113
0.0008861474121
0.0008861474115
0.0008861474118
0.0008861474124
0.0008861474175
0.0008861474138
0.0008861474163
0.0008861474226
0.0008861474314
0.0008861474416
0.0008861474244
0.0008861474113
0.0008861474165
0.0008861474381
0.0008861474337
0.0008861474166
0.0008861474138
0.0008861474121
0.0008861474117
0.0008861474115
0.0008861474132
0.0008861474141
0.0008861474519
0.000886147425
0.0008861474121
0.0008861474116
0.0008861474115
0.0008861474114
0.0008861474112
0.0008861474112
0.0008861474111
0.000886147411
0.0008861474111
0.000886147411
0.000886147411
0.0008861474113
0.0008861474111
0.0008861474114
0.0008861474106
0.0008861474126
0.0008861474105
0.0008861703747
0.0008861520174
0.0008861700718
0.0008861710152
0.0008861740407
0.0008861745862
0.0008861746223
0.0008861745986
0.0008861746157
0.0008861727937
0.0008861474113
0.0008861474111
0.000886147411
0.000886147411
0.0008861474109
0.0008861474109
0.0008861474108
0.0008861474109
0.000886147411
0.0008861474109
0.0008861474111
0.0008861474116
0.0008861474115
0.0008861474122
0.0008861474105
0.0008861474158
0.0008861474105
0.0008861684074
0.0008861509961
0.0008861574593
0.0008861764324
0.0008861779235
0.0008861771101
0.0008861726483
0.0008861732754
0.0008861706044
0.0008861719637
0.0008861703393
0.0008861716617
0.0008861714899
0.0008861474114
0.0008861474118
0.000886147411
0.0008861474115
0.0008861474113
0.0008861474109
0.0008861474111
0.000886147411
0.000886147411
0.0008861474109
0.0008861474109
0.0008861474115
0.000886147411
0.0008861474111
0.0008861474107
0.0008861474118
0.0008861474108
0.0008861474108
0.0008861474107
0.0008861474108
0.000886168699
0.0008861474109
0.0008861474111
0.0008861711217
0.0008861474114
0.0008861474121
0.0008861731399
0.0008861474136
0.0008861474175
0.0008861474593
0.0008861474192
0.0008861474125
0.0008861474137
0.0008861474176
0.0008861474116
0.0008861474126
0.000886147412
0.0008861474132
0.0008861474111
0.0008861474116
0.0008861474113
0.0008861474119
0.000886147411
0.0008861474112
0.0008861474111
0.000886147411
0.000886147411
0.000886147411
0.000886147411
0.0008861474108
0.000886147411
0.0008861474109
0.0008861474109
0.0008861474109
0.000886147411
0.0008861474112
0.0008861474112
0.0008861474114
0.0008861474119
0.0008861474125
0.0008861474119
0.0008861474128
0.0008861474153
0.0008861474151
)
;

boundaryField
{
    walls
    {
        type            zeroGradient;
    }
    wallFilmFace_top
    {
        type            zeroGradient;
    }
    region0_to_wallFilmRegion_wallFilmFace
    {
        type            zeroGradient;
    }
    mirrorFace_top
    {
        type            zeroGradient;
    }
    region0_to_wallFilmRegion_mirrorFace
    {
        type            zeroGradient;
    }
    procBoundary3to2
    {
        type            processor;
        value           nonuniform List<scalar> 
64
(
0.0008861474195
0.0008861474202
0.0008861474213
0.000886147423
0.0008861474249
0.0008861474488
0.0008861474358
0.0008861474166
0.0008861474234
0.0008861476706
0.0008861478271
0.0008861477698
0.0008861477698
0.0008861478361
0.0008861478094
0.0008861477691
0.0008861477508
0.0008861477405
0.0008861477323
0.0008861477257
0.0008861477216
0.0008861477175
0.0008861477128
0.0008861477128
0.000886147712
0.0008861477097
0.0008861477097
0.000886147708
0.0008861476624
0.0008861476624
0.0008861474384
0.0008861474415
0.0008861474415
0.0008861474447
0.000886147447
0.0008861474192
0.0008861474269
0.0008861474189
0.000886147497
0.0008861474343
0.0008861474315
0.0008861474144
0.0008861474125
0.0008861474115
0.0008861474116
0.0008861474135
0.0008861474189
0.0008861474343
0.0008861474299
0.0008861474201
0.0008861474207
0.0008861474221
0.000886147423
0.000886147427
0.0008861474458
0.0008861474339
0.0008861474385
0.0008861474238
0.0008861474395
0.0008861474315
0.0008861474119
0.0008861474112
0.0008861474123
0.0008861474158
)
;
    }
}


// ************************************************************************* //
