/*--------------------------------*- C++ -*----------------------------------*\
  =========                 |
  \\      /  F ield         | OpenFOAM: The Open Source CFD Toolbox
   \\    /   O peration     | Website:  https://openfoam.org
    \\  /    A nd           | Version:  8
     \\/     M anipulation  |
\*---------------------------------------------------------------------------*/
FoamFile
{
    version     2.0;
    format      ascii;
    class       surfaceScalarField;
    location    "0.4/wallFilmRegion";
    object      phi;
}
// * * * * * * * * * * * * * * * * * * * * * * * * * * * * * * * * * * * * * //

dimensions      [1 0 -1 0 0 0 0];

internalField   nonuniform List<scalar> 
2727
(
0.0001616940241
-2.493762535e-05
-0.0001101025087
1.666130613e-05
-0.002719192182
-0.0001196696175
0.0030128684
-4.560368584e-05
0.002655078108
-0.0007963342773
0.0008046944404
-0.002986842497
-0.002053119979
0.001516843229
-0.001431488935
0.001594723331
-0.001204103693
0.0008318380753
0.00148467451
-0.0007896916932
-0.02744778486
0.005432180493
0.03305029696
1.797594852e-05
-0.001121361242
0.03877954552
-0.03796135714
0.00427156348
-0.000611097462
0.0004757576124
0.0005694169369
-0.0004750645952
-0.0006089448126
0.0004787655975
0.000618851692
-0.0004959685723
-0.0005663162793
0.0005251301614
0.000734508661
-0.0005374239907
-0.0005247681954
0.0004877816349
0.0007540424503
-0.000386389818
-0.0004241126899
0.000289198078
0.0005193290074
-0.0002186570637
-0.0003206633045
0.00017095279
0.0004257102633
-0.0001369463468
-0.0003301101305
0.0001117816213
0.0005526740631
-5.562976572e-05
-0.0008411343332
-5.88600189e-06
4.669951665e-05
5.592892947e-06
-5.68111805e-05
-4.406971533e-06
1.03264276e-05
3.884933953e-06
-7.771147943e-06
-1.582146584e-05
0.0002274114417
7.69440815e-05
-6.32323925e-05
-0.0001097013939
-0.0002683793889
0.000299733086
-0.0001403591787
1.904387163e-05
-1.380020604e-05
-1.871685401e-05
1.870441221e-05
-2.077451877e-05
8.0434935e-05
4.271722147e-05
-0.0001474437505
0.001100360919
-4.827946012e-05
-0.0001678378855
-0.001138122329
0.00171973346
0.0003740837764
-0.0003033254812
-0.002191666765
0.001147981241
0.0001374707756
2.326497599e-05
-0.001851873766
0.001453308454
-0.001082762827
-0.0001037192033
0.0002467074504
-0.001446278194
0.0001298274651
0.0007404876759
-0.0002648279538
-0.00102368956
0.0005774922569
0.0003290196687
-0.0002963464544
0.0004810021437
0.0002600246288
-0.0002279695052
0.0004072194278
0.0001995688604
-0.000170590437
-0.0003121454609
0.0003262566344
0.0001403760762
-0.0001136492448
-0.0002562729318
0.0002726308734
9.428072795e-05
-8.18746633e-05
-0.0002381608663
0.0003266311423
7.71504813e-05
-8.884081975e-05
-0.0003802046653
0.001648681419
0.000127064977
-1.864481299e-05
-0.003219588077
8.887062296e-05
-3.357229657e-06
6.448618818e-06
-0.000158981721
1.091370957e-05
-5.861837326e-06
2.521546495e-06
-1.961712611e-05
4.193204076e-05
-2.238614625e-06
8.443757476e-06
-2.707921401e-05
0.0001200951554
-2.317803703e-05
3.364540931e-06
-9.908844427e-05
-1.365127141e-05
1.380521333e-05
-1.189357032e-05
1.355597218e-05
-5.706667704e-06
-4.045705775e-06
1.158646308e-05
4.556620399e-06
-4.16697324e-06
1.964088563e-05
-4.805536213e-06
-5.227488813e-06
-1.884282477e-05
6.322147721e-06
0.001068794442
0.000160362859
-0.0009242440977
-0.0004726935708
0.002697891023
0.0006538424688
-0.0005815576567
-0.0030268859
0.003133845098
0.0001895599116
-0.0007496291756
-0.003272908596
0.0004046099284
0.0006946932799
4.237172275e-06
0.0003232686236
-0.001407155276
0.0002444491662
0.0001256684596
-0.0001071639153
-0.0001986058687
0.0002100045532
9.199913258e-05
-0.0001816683974
-8.122193469e-05
0.0002250228713
7.737537933e-05
-0.0002461983002
-8.640049123e-05
0.0005680773516
0.0001227617208
-0.0001939849097
-0.0009648932324
0.00511159707
0.0002282835109
-0.006655558309
-1.081767903e-05
0.0002867398384
-6.287980157e-06
1.94616621e-05
-0.000480518859
3.79284485e-05
-1.962733133e-05
-7.098567206e-05
7.769800229e-06
1.784914121e-05
-1.61811097e-06
-4.2464503e-06
-6.338971849e-06
0.000120275665
7.287094842e-05
-8.468594575e-05
-0.0001435270663
0.0001037758305
-0.0001347042731
-0.0003064754734
0.0002134662241
0.0001863966429
-0.0002633858517
-0.0007430665763
0.0004843186824
0.001214692176
0.0003304445137
-0.0003079568922
-0.001559442832
0.00211904847
0.0001396982833
0.0002163539977
-0.00196921145
-0.0005892326414
0.000737726421
-0.002601470905
0.001873338593
-0.0004352521656
0.0001114651596
0.0002052494278
-0.0007013146285
1.279786969e-05
-2.412999643e-05
1.015501498e-05
-1.874743274e-05
1.701520009e-06
-2.98891426e-06
4.262387099e-06
-2.776002263e-06
3.417404411e-06
-3.002714161e-06
-8.566779985e-05
8.437870951e-05
0.0001537824058
9.348164415e-07
3.131275008e-05
-0.000170146357
0.006733317542
-0.0005172269067
-0.001541577135
-0.005030046539
-0.0003201565729
0.002342445217
0.002369262086
-0.003533967411
0.00072265454
-0.001594318805
8.725044196e-05
2.304133972e-05
-0.0001277367053
1.815445526e-05
-1.765424993e-05
0.0002891366211
0.0002309293489
-0.0004289459561
-0.0004354941385
0.0005818866161
0.0006592329801
-0.0009727484319
-0.001029005419
0.001285441191
-0.001357044007
-0.001759295876
0.001255642289
0.001202858159
0.001966244261
-0.0008067325543
-0.002062872643
0.00163217855
-0.001218920964
0.000228298405
0.0004820057338
0.003668901391
0.003515964466
-0.004639797771
-0.00218173947
-0.003417053232
0.00200952615
-0.003061071253
0.002033411055
-0.0005888007807
0.0001048561499
6.040167806e-05
-0.0001735315857
2.808986567e-06
-2.175536616e-05
5.05372506e-06
2.728649955e-06
-3.826134232e-06
1.476423702e-05
4.84424471e-06
-8.357949377e-09
1.083440895e-06
-1.618398919e-05
-0.004174602897
0.0001423227226
0.004254460021
0.004358411476
-0.001564179448
-0.0002711260975
0.0004575160415
0.0005180694818
-2.325233876e-05
-0.0002168096809
0.0007742829117
0.0009355743135
-0.001287884176
-0.000962104963
0.001452419794
0.001533811526
-0.001605281606
-0.00152667561
0.001917120204
0.001501359614
-0.001257356403
-0.001819382515
-0.001668959419
0.001874716005
0.0009153870662
-0.000514397284
0.0008407274232
-0.0006707195007
9.868690338e-05
0.0002565760715
0.005533682797
-0.00420747622
0.004779715075
-0.005453550689
0.003023102213
-0.003599817608
0.001985675082
-0.002123454679
0.0002235362355
-0.0006085990537
0.0001076519732
-0.0001339889743
-7.486704112e-18
-8.814570434e-41
7.729485682e-19
4.385850244e-19
-3.65868396e-19
-1.221887987e-42
5.600400862e-21
-4.321555593e-20
5.640414106e-21
-7.610099315e-36
-3.746885887e-41
8.252686663e-36
1.621901505e-35
-1.119865236e-42
-1.25807442e-41
2.928186862e-13
-1.876803814e-41
-1.1464742e-12
2.266265811e-13
2.215366559e-05
3.592759265e-05
-1.19973295e-05
-8.710821923e-05
0.0005011697687
0.001087175007
-0.0008819214754
-0.001781426422
0.001530883092
0.002370589969
-0.001663798926
-0.002682114437
-0.002461930654
0.002550689508
0.00269945416
-0.002170581636
0.002003712759
0.003278107363
-0.002353316669
-0.001338739369
0.0006273251017
0.003665056809
0.0004834506037
-0.001836408106
-0.001662725046
0.002497785605
0.003080870595
-0.00266972119
-0.002888518713
0.002068185433
-0.002735164994
0.002639771795
0.0007919441807
-0.002063813618
-0.001199071016
0.001488217287
0.0006259792548
0.0001957904016
-0.0006139217802
-0.0006099496968
2.328574836e-05
4.340924546e-05
-3.410599244e-05
-2.167937214e-05
-4.589759892e-05
0.0001676480023
5.769866575e-05
8.543639393e-05
2.502772587e-05
2.529662054e-05
-3.091926101e-05
4.000059171e-05
4.270235431e-05
-2.832785476e-05
-3.278790971e-05
4.732856872e-05
3.995209679e-05
-2.540734593e-05
-0.002683200494
0.0004006519231
-5.153409918e-05
-0.0002074756472
-0.001320769937
0.001418017252
4.856535024e-06
-8.192140349e-05
-0.0002338430085
-0.001501510261
-0.0009567028864
0.001264387855
-0.0001995573537
-8.39426661e-05
-0.001263330102
9.643560975e-08
1.0816026e-06
-6.319534195e-07
1.071990346e-08
-2.846228478e-06
-3.801724538e-07
5.47521296e-07
-1.813205698e-06
1.192535172e-07
5.475215559e-08
5.549774651e-07
2.381864845e-09
-2.766391109e-06
-9.290109666e-07
-5.287145174e-08
8.675568226e-08
-1.813047228e-07
5.951328466e-08
2.366115068e-07
-1.687437534e-06
4.027775402e-06
-8.99052328e-06
5.705080328e-07
-1.522578065e-07
4.968045079e-08
1.415565577e-06
5.31316751e-08
7.861351882e-07
-6.302755898e-06
1.101176543e-05
-9.293478332e-06
3.074716344e-06
-3.865297251e-07
1.367428102e-07
6.919019977e-06
3.574026964e-07
3.12956836e-06
-2.287534149e-05
3.98423209e-05
-7.644344166e-06
1.297015579e-05
-1.763856549e-06
6.772979849e-07
1.874486905e-05
9.400197372e-07
3.416125118e-06
-5.041025299e-05
4.785769101e-05
-3.529741799e-06
2.202509128e-05
-3.878973159e-06
1.003924571e-06
2.302733592e-05
8.799570513e-07
1.582936003e-06
-3.852397971e-05
3.063648448e-05
1.854260978e-06
2.266448279e-05
-2.420765161e-06
7.356236909e-07
2.183352607e-05
6.472771858e-07
9.021837734e-07
-2.576721154e-05
2.336995417e-05
1.931203693e-06
2.142350267e-05
-1.112150204e-06
5.988115175e-07
2.165927203e-05
7.190688368e-07
6.724566385e-07
-2.259464007e-05
2.249197607e-05
4.105115075e-07
2.254160632e-05
-7.528931195e-07
6.764799986e-07
2.291654646e-05
3.565959879e-07
2.593559261e-05
-0.0001607906458
0.0002880264827
-0.0001280482121
3.377885727e-05
-1.118809148e-05
1.367071056e-06
3.202423497e-06
5.911848638e-05
6.23919224e-06
8.52773326e-06
-1.555769589e-06
-8.448613524e-07
-7.217931741e-06
1.629903396e-05
1.658839815e-06
8.566298281e-06
4.148608255e-07
3.615437242e-09
-5.267804869e-10
2.950866266e-06
-1.383683616e-06
4.595213562e-06
2.676035717e-06
5.311404684e-06
1.494402966e-11
1.826687252e-10
-4.163379249e-11
4.342638429e-07
-3.738112523e-08
2.421404657e-06
1.244645132e-11
2.93713604e-08
1.064565337e-11
-2.018492662e-10
3.141152497e-09
-2.653787544e-20
3.736008363e-17
2.513020286e-16
-7.634912204e-19
-3.674985502e-21
5.402185717e-09
-3.421147428e-08
1.310999444e-07
9.761241092e-18
-5.166668983e-10
-2.457121312e-29
3.584378734e-16
-4.271329579e-26
7.86974727e-09
-1.791158692e-07
1.57288992e-07
7.667747505e-16
-8.612427328e-09
-3.206920225e-27
5.517210729e-16
-2.256157558e-29
1.536922019e-09
-8.900406123e-08
6.269839589e-08
1.573389895e-16
-5.193676114e-09
-3.945985605e-30
8.04573724e-17
-4.488499957e-33
1.072129464e-08
-1.797257377e-07
2.960013695e-07
1.950364324e-15
-4.487471286e-09
-3.94541949e-32
7.381988234e-15
-3.848156232e-38
4.203450742e-08
-6.941691278e-07
1.692540595e-06
8.842299464e-13
-5.887266383e-09
-8.200704576e-40
3.255000841e-11
-9.667447581e-18
1.548701929e-09
-2.873012608e-06
3.487031308e-06
2.395735886e-12
-3.550107151e-08
-1.089063788e-27
2.927865686e-09
-8.417266908e-27
1.662433861e-07
-5.028880269e-06
8.258167604e-06
5.612921233e-07
-1.396311715e-07
5.976664717e-09
7.76300988e-07
4.607892821e-09
1.017078212e-05
-3.813250587e-05
7.434907647e-05
-4.112909296e-05
4.363938071e-06
-3.72485401e-06
4.442272213e-07
1.363651447e-05
1.628115591e-06
0.0001531696213
-0.0002540485545
0.0009708091745
-0.000792989685
5.418082e-05
-4.766719902e-05
1.050125816e-05
4.879217565e-05
0.0001731562659
1.23396086e-05
-6.817192191e-06
6.708440725e-06
1.288455349e-05
-2.283494082e-05
2.873138713e-05
1.144519721e-05
1.699109166e-05
1.143063504e-05
-7.522081495e-06
9.853702646e-06
1.356308776e-05
-9.622389995e-06
1.557703591e-05
1.961786145e-05
2.005632521e-05
2.894409219e-06
-7.124478979e-06
7.644375627e-07
2.225154851e-05
-1.149926861e-05
2.389308241e-05
7.274686015e-06
1.231797548e-05
-7.25050715e-17
-1.038420279e-11
-1.01526299e-32
5.029964266e-08
-3.674566423e-09
1.219874363e-07
-7.495545132e-40
-1.875567833e-16
-6.888308688e-40
5.703996895e-31
1.389911357e-30
-2.656580613e-41
3.411023185e-41
-4.08545811e-29
2.008632292e-41
-8.007786782e-52
-3.558484157e-43
-2.479002412e-31
3.645836426e-33
5.074734383e-42
3.968897098e-41
-4.853182135e-53
7.727818576e-44
-6.349593839e-55
-7.675999291e-49
-1.708269057e-33
1.50987886e-35
8.452956027e-45
2.792927731e-44
-9.428585846e-57
2.962995357e-49
-1.022215254e-61
-3.057515407e-54
-2.214390764e-35
8.069975389e-42
1.217798493e-54
2.510502278e-54
-7.822128377e-66
1.836727707e-54
-8.836308165e-66
-2.273201883e-34
-4.944055253e-43
1.530367356e-22
2.401122398e-54
3.255481945e-54
-7.936646435e-66
1.771192982e-34
-6.058349886e-46
-4.207148545e-43
-1.087728908e-31
6.163740294e-28
1.711119794e-43
1.657814325e-43
-3.612636113e-55
4.732820261e-43
-1.953191954e-55
-3.635603035e-28
-7.608468976e-14
7.720273012e-09
4.120583868e-31
5.46180625e-28
-1.647872235e-42
6.958407939e-24
-5.638371683e-43
2.204289078e-07
-4.693180846e-07
1.989389707e-06
2.075243978e-07
-3.724138104e-08
9.214281313e-10
4.975538061e-07
3.147501689e-08
1.339230436e-05
-1.070753861e-05
4.905933189e-05
2.330909623e-06
-2.263780226e-06
5.485385032e-07
4.068051485e-06
1.217611931e-05
2.29746238e-05
-1.745872092e-05
1.708599686e-05
2.275231785e-05
-3.403995454e-05
4.18377776e-05
2.639138963e-05
3.32026126e-05
3.35149771e-05
-2.301216835e-05
3.563211349e-05
3.907327415e-05
-2.433674864e-05
3.862850833e-05
5.584177379e-05
4.936125972e-05
1.746933704e-05
-4.128606764e-05
1.375967235e-05
4.698830293e-05
-3.954236386e-05
4.309785291e-05
6.419916052e-06
5.38933248e-06
-1.658782326e-19
-1.367418015e-07
4.999346856e-17
1.087016998e-09
-1.130729324e-07
8.805919124e-10
-9.650140654e-66
-2.20518143e-77
-2.930166693e-63
2.835465064e-53
2.890919291e-53
-2.47172166e-64
3.093592719e-65
-1.311481431e-76
3.800299911e-65
-1.041539917e-74
-2.284154359e-66
-6.482950628e-54
1.458740849e-55
2.129016315e-65
1.690357698e-64
-5.829113839e-76
5.399219734e-67
-7.699920418e-78
-1.452016667e-73
-3.107997872e-57
4.394940108e-62
6.866769162e-69
1.949539836e-68
-4.59491762e-80
6.884159473e-74
-2.52049866e-85
-3.769240603e-77
-4.206948812e-66
5.807275673e-66
2.120658072e-77
3.472029386e-77
-5.90778603e-80
2.877647004e-77
-5.999602567e-76
-3.320302768e-58
-6.263970985e-66
6.381654841e-46
4.018568325e-74
4.299897683e-74
-1.747286118e-63
3.709541141e-58
-1.769699243e-61
-4.100529034e-67
-3.857123014e-55
2.408116771e-55
5.974227326e-67
4.54818719e-67
-1.302287697e-60
6.323042719e-67
-1.982786056e-63
-4.954605897e-55
-2.447364364e-42
2.162863078e-39
2.62663398e-54
1.470050589e-54
-2.496259185e-46
1.065947628e-54
-1.028931255e-46
8.444168817e-11
-9.227128379e-11
1.020406999e-07
2.84357555e-34
1.539085389e-33
-5.764413699e-27
2.664616151e-10
-1.858465639e-21
1.256286416e-06
-6.117180179e-07
3.661721719e-06
4.086867358e-07
-1.505057059e-07
1.707746608e-08
2.200911271e-06
2.205470205e-07
0.00227522892
-0.000128619522
-0.001178524116
9.112545865e-05
-0.0001462702024
9.452911192e-05
0.003853596108
4.521061566e-05
-3.021275863e-05
3.843021082e-05
3.108954126e-05
-5.445575505e-05
5.461261223e-05
2.892631876e-05
2.567598135e-05
3.621263132e-05
-5.108881108e-05
4.898703226e-05
1.770071339e-05
-4.489299883e-05
1.25222745e-05
3.249119049e-06
2.877766175e-06
2.195352433e-08
-1.16533409e-05
2.623997152e-08
9.89842694e-09
-9.777750415e-06
8.510863566e-09
-1.061944633e-69
-6.309568995e-58
-6.251848032e-71
2.860653314e-76
-3.344278429e-77
-4.535616167e-71
6.14611091e-70
-8.976232668e-60
-2.92267214e-88
-2.502718136e-59
-4.117200677e-86
1.183815112e-75
3.46339001e-76
-9.049742997e-87
6.238225668e-88
-2.210646635e-78
-2.910250726e-89
-1.02890688e-77
-3.727614917e-82
-1.015896827e-76
2.384103574e-78
4.152784887e-88
2.328127203e-87
-3.840124844e-79
1.323446307e-82
-6.306144683e-71
-3.635974111e-80
-2.066809012e-80
1.497527902e-85
7.838067779e-82
1.469432662e-81
-2.122806708e-70
2.584275283e-80
-2.224867034e-69
-3.381774686e-65
-4.439458622e-80
5.529337853e-76
3.36920397e-69
3.706096118e-69
-2.514255241e-58
3.788127433e-65
-2.009134811e-54
-6.372857214e-51
-1.949142208e-63
2.347529576e-61
1.002930156e-52
7.271820946e-53
-2.808799062e-42
1.049659816e-50
-2.081289983e-40
-1.244807095e-52
-2.065651665e-60
3.723673925e-63
8.388844241e-50
4.096231362e-50
-1.183796477e-39
3.026899117e-52
-8.12167119e-42
-2.362661776e-36
-5.644093881e-46
2.654808366e-46
1.898270804e-35
6.403543076e-36
-1.63453867e-25
2.975506738e-33
-5.622972977e-26
-3.228860497e-13
-2.356612997e-26
1.401939124e-13
4.216354977e-14
3.093693778e-17
-8.410008735e-10
1.065186258e-07
-1.558881866e-07
-1.239214548e-05
-1.364045707e-05
5.527182783e-05
2.160235062e-05
1.012559711e-05
-2.001379059e-05
4.102080796e-05
6.009512577e-07
0.005943050162
-0.0001223531991
0.0001404934685
-9.133348406e-05
8.053223771e-05
0.008620085552
1.003104385e-06
-7.842491133e-06
7.867599559e-07
5.844925069e-08
-1.611282026e-05
2.030929705e-07
1.554767683e-13
2.468055057e-13
2.438054741e-11
-3.350549697e-08
2.685654897e-11
-6.245598553e-22
-3.424470181e-08
-2.358836627e-22
-7.342717048e-58
1.936988948e-24
-3.6989923e-48
8.111034998e-59
-1.771153543e-59
-2.431282947e-47
1.243562242e-57
6.250930103e-60
-1.138262513e-47
-1.093271911e-36
-1.714201387e-47
3.141980599e-59
-1.721650797e-78
-7.146019726e-47
2.303835505e-48
-5.321650155e-37
-7.188929909e-67
-2.813275266e-35
-8.605060519e-67
3.276210894e-78
4.053451068e-79
-2.02202495e-66
2.960979402e-67
7.179976017e-68
-2.592893724e-68
3.790467278e-66
-1.539295788e-59
-1.373333466e-79
3.848060145e-71
2.097073592e-68
3.065298235e-68
6.52438981e-68
1.970648081e-59
-6.164904544e-48
-1.208424023e-58
-1.808534196e-70
2.335246845e-69
7.357813693e-59
4.283151123e-59
-1.227820838e-47
2.168674223e-58
2.551658626e-59
-1.170143795e-43
-3.222900435e-58
3.043659207e-54
3.530003442e-47
1.764086335e-47
-9.378400113e-37
2.484394019e-43
-4.706760557e-33
-4.635890817e-30
-5.237177677e-42
4.560257465e-40
1.315884237e-31
7.859794293e-32
9.438828569e-31
8.622652664e-30
4.783837708e-28
-3.967140213e-31
-3.31590471e-39
2.669472188e-41
5.612487307e-29
2.321831279e-29
1.181724008e-26
5.771909607e-27
2.29532894e-30
-7.487621305e-16
-6.48061785e-25
1.449803698e-18
4.54460203e-14
2.652582966e-15
-1.147644069e-08
7.607129193e-09
-2.045556547e-08
-2.113873281e-06
-2.610429167e-07
2.608895804e-06
2.556219201e-05
2.161804426e-06
-4.755125202e-05
1.122521944e-05
5.557113136e-06
0.0001570675619
-1.814554319e-05
-1.52006519e-07
8.376994295e-06
8.142503692e-06
1.308373161e-05
0.000397351393
-3.57890602e-05
1.220391203e-05
1.325912249e-06
8.997825335e-08
1.162496931e-06
-1.553203072e-12
-1.478066814e-12
-3.959801537e-23
-9.58435931e-11
-3.529864514e-11
-2.263984102e-07
-6.852838374e-11
-2.041698363e-07
-2.372576829e-13
5.677455632e-24
-4.900027707e-36
-4.399796166e-11
9.331251146e-13
-1.66719316e-07
-2.162251233e-11
-1.291269142e-07
3.308228157e-31
9.097517743e-36
-1.68366383e-36
-3.265315093e-12
-1.413983272e-31
-9.011016632e-08
-6.523380314e-14
-4.294323329e-08
2.781168617e-31
4.898744534e-35
-1.895834483e-23
-7.246272855e-16
-2.301836833e-32
-8.593225626e-09
-1.837458377e-11
-6.898397131e-09
4.35382391e-33
-4.975221151e-25
2.677220886e-38
-2.732469716e-12
1.134903454e-11
-5.745140918e-07
-9.689773849e-16
-1.116396561e-07
1.836157637e-43
-1.139846704e-51
1.847674187e-47
-8.099929544e-17
-2.089698685e-47
-7.830992668e-09
5.549593588e-17
-3.031153607e-09
9.643052883e-42
-7.637730769e-47
4.642977578e-46
1.836487239e-15
-1.930976165e-43
-3.128952881e-09
2.986446237e-14
-5.402053314e-08
7.756565324e-28
-8.635507644e-37
2.848330476e-31
7.398761158e-14
-2.623470576e-32
-3.002907532e-08
7.11314673e-11
-4.263592527e-08
-4.191556022e-09
-1.96424558e-18
1.108776969e-16
8.532978383e-09
1.110378561e-10
-1.695321349e-07
4.292638226e-08
-2.343973017e-06
-1.862858579e-09
-5.331179085e-16
8.928341831e-12
5.180117269e-08
2.33348638e-08
-2.846559815e-06
1.425808629e-06
-4.264400561e-06
-7.83162063e-06
-2.378777057e-07
2.499939694e-06
3.03210909e-05
3.542426189e-06
-7.51473911e-05
6.234441303e-05
-0.0001099901488
0.00150083604
0.0001004011387
-0.000774842973
5.212536239e-06
0.0001711286789
-0.0003499747364
-0.004292890651
0.004646722269
0.001253887357
0.0008992831533
-0.001129291523
-0.005468618422
-0.0009523858685
0.005327635842
-0.008827674894
0.007073986065
-9.139934986e-06
1.083332574e-05
-9.21287693e-06
-5.370502099e-05
-8.092401854e-06
-1.064416194e-06
6.461845955e-06
-4.846349701e-06
-3.560166252e-05
1.557408444e-06
-5.870469735e-06
-2.653747464e-05
3.59819568e-07
-7.626378151e-07
3.46446374e-06
-2.225504152e-06
-2.236068842e-05
8.541246701e-07
1.279263728e-06
-1.891594977e-05
1.386492963e-06
-6.051716051e-07
1.154197693e-06
-4.075070463e-07
-1.516514418e-05
7.071597998e-07
1.850961518e-06
-1.176672524e-05
2.602388201e-06
-1.352111256e-06
1.383212849e-07
-9.388348489e-07
-1.149988617e-05
5.606097205e-07
4.179048899e-06
-1.564826566e-05
6.948538728e-06
-3.058788761e-06
4.63349546e-07
-2.407198259e-08
-9.632981822e-06
5.176685079e-06
-1.506570977e-06
-1.117446411e-06
-5.624121207e-06
-4.79625637e-07
3.10800442e-08
-3.62905785e-08
-3.611052176e-06
6.284677212e-07
-4.10312532e-06
-3.417944326e-06
-8.729740057e-06
-1.820645705e-06
-5.246093253e-08
1.878122515e-07
4.429505745e-07
4.679439751e-07
-8.145100406e-06
8.76477141e-06
-2.625465454e-05
-1.062241368e-06
-2.468497452e-07
1.065540321e-06
1.128086869e-05
1.343726179e-06
-1.152177795e-05
1.316245217e-05
-6.808837444e-06
-1.876042692e-05
-3.12302412e-06
8.221884085e-06
1.640924178e-05
1.453646652e-06
-7.251821822e-06
7.2900082e-06
-9.912531386e-05
-6.979196935e-05
-7.974227919e-06
2.810066854e-05
-1.137482118e-05
7.311439805e-06
-0.0001484626544
0.000195232971
-0.0005392135649
-0.0005930163828
-0.0001906626547
0.0002710338927
0.0007092704795
0.0004203362298
-0.001388271433
-0.0004379123004
-0.001436338767
-0.0001316197365
9.444126964e-05
-9.098144376e-05
0.0001495245025
-8.14479642e-05
-0.0001170760631
-0.0001516839714
8.801977546e-05
-8.530467057e-05
0.0001692235994
-7.958441548e-05
0.0001399587272
-0.0001263725084
-7.819635904e-05
-0.0001397901868
-0.0001895294249
8.267035993e-05
-8.007032138e-05
0.0002043775776
-7.730832912e-05
0.0001675639856
-0.0001591684558
-7.718281267e-05
-0.0001881224883
-0.0002704513723
7.763053507e-05
-7.582057677e-05
0.0002691909521
-7.854640228e-05
0.0002211544425
-0.0002337600269
-8.332682691e-05
-0.0003123379764
-0.0005487791289
7.657381425e-05
-8.018645905e-05
0.0004340856206
-9.464354173e-05
0.0003570644179
-0.0004634519652
-0.0001029926915
-0.0007946473054
-0.0004726860789
2.569844188e-05
8.967619134e-06
0.0003665566487
-1.655348181e-05
0.001120052656
-0.001643647623
2.261432377e-05
-0.0007425202596
-4.346416617e-05
-1.737922549e-05
2.088753955e-05
4.663583132e-05
2.196394616e-05
9.681210406e-05
-0.0002401443574
1.936169157e-05
-5.757235523e-05
-2.894596837e-05
-2.23483868e-05
2.222602566e-05
3.330637549e-05
1.961965767e-05
3.409733008e-05
-3.069875924e-05
1.882415776e-05
-2.377477637e-05
-2.286568543e-05
-2.079232002e-05
2.291508761e-05
2.393061998e-05
2.03086271e-05
2.412353252e-05
-2.23615191e-05
-9.895537121e-06
9.452396554e-06
1.716603154e-05
-1.299753359e-05
1.579875064e-05
-1.675543961e-05
1.052060789e-05
-4.487124738e-06
-8.661202147e-06
2.351684531e-05
9.574532522e-06
-8.269588131e-06
1.033374034e-05
-1.322303742e-05
7.385079517e-06
-1.7649705e-06
-7.706882295e-05
-1.034383252e-05
4.896524643e-05
-1.023381734e-05
2.201060319e-05
-8.140981394e-05
-3.811778417e-05
-0.0001071881747
-7.028733205e-05
7.011976776e-05
-7.099461597e-05
-0.0001370027569
7.331151626e-05
-7.80335965e-05
-0.0002099789374
-0.0004232165025
8.705591957e-05
-0.0001041336836
-0.001130916016
0.0001269909772
-0.000116586397
-3.608415015e-05
8.599668706e-05
-0.001157660791
-5.297763058e-05
2.402588278e-05
-0.0001753398964
-2.064940297e-05
-1.693009356e-05
1.484685286e-05
-0.0001138657223
-9.919858517e-05
0.0001189912489
-0.0001182735803
-0.0002762101658
-0.0007800278785
0.0002092357991
-0.0003206676873
0.0006777029559
-0.0002199002911
-0.001686831805
0.001965162509
0.0002099748624
2.526447495e-05
-3.348623244e-05
-4.084229981e-05
-1.269351741e-05
-1.350432369e-05
1.317249283e-05
-6.949250483e-06
1.314819211e-05
1.225189859e-05
1.198385182e-05
-1.060802266e-05
6.459282297e-06
-4.267527369e-06
-4.060015243e-06
5.28213774e-06
-1.10572422e-05
-1.890215424e-06
7.489489278e-06
-8.715572885e-06
3.630865785e-06
-7.569363966e-07
-5.465679842e-06
2.635425628e-06
-0.0001078658203
0.0001551607884
-0.0002041394156
-0.0004754223368
0.0003122430306
-0.00040344219
0.0002793670428
-0.0005876451164
-0.0008943990034
-0.001126534869
-0.0007716100221
-0.001877092467
-0.002175719305
0.001871911965
0.000430822531
0.0002403683369
0.001404296401
-0.002593348162
-0.001996110911
0.0009998018247
0.002053274831
-0.00346791054
0.00172561723
-0.0001051288358
3.925908546e-06
-5.756659051e-06
-7.693993775e-06
6.748889324e-06
-1.51392022e-06
6.705173854e-06
-7.739512515e-06
2.478185206e-06
-5.796977249e-07
1.683730503e-06
3.411905098e-06
1.245895151e-06
-6.67428652e-07
-3.264838244e-06
9.434829518e-07
1.671751795e-06
-1.525871872e-06
-2.961764099e-07
1.968586274e-05
8.488448917e-06
-8.48839571e-05
0.0001507327248
-0.0002674359028
-0.002039940374
0.001410589924
0.001914917565
-0.001734489613
0.00168184088
-0.001999865079
-0.001877445017
0.0004859989022
0.0002022699723
0.003594709607
0.003130276712
-0.0045014485
-0.004503885856
0.005502155113
0.00513428455
-0.004635106142
0.0005034297786
-0.00117342502
0.003241524167
1.064740905e-05
-2.316190609e-05
-1.598611326e-05
1.488507702e-06
-2.683202924e-05
9.82098546e-06
-1.425275238e-06
2.453064029e-13
-1.27133108e-35
3.031339775e-13
2.547951895e-14
-2.674423433e-13
0.001263060514
0.003068499358
-0.003303349292
-0.001319484967
0.001719242815
0.003226526579
-0.002881683812
-0.001514524738
-0.0004319336355
0.007082088462
0.01446568863
-0.01822144562
1.262189944e-05
-6.102600204e-05
5.800015514e-06
3.284937129e-18
5.379704764e-40
5.429058605e-40
-9.931179332e-43
-1.05648399e-42
-0.0002288756072
0.006338161163
-0.005784319349
-6.721157278e-08
0.0002265793329
-0.000215474242
-0.0001769205192
-0.0002578516954
0.005313170726
-0.004845821086
9.735608757e-05
0.0002055443441
-0.0001958722372
-0.0002039999351
-0.0003091880733
0.004361097105
-0.003852616306
0.0001074098807
0.0001857203167
-0.0001742563732
-0.0002502358603
-0.0003915495878
0.00330009402
-0.002664067941
0.0001168737445
0.0001602191638
-0.0001415137932
-0.0003323682152
-0.0004805363422
0.001886869754
-0.0009340866937
9.795169807e-05
0.00011355044
-5.745928966e-05
-0.0005228307259
-6.557907577e-05
-2.245148763e-05
0.0002558716754
-4.213779224e-06
-8.516687285e-06
2.741063542e-05
-6.97606717e-05
-4.527724631e-05
-0.0004685468386
0.0006880943389
-2.142307805e-05
-3.649298345e-05
4.182015845e-05
-4.235580324e-05
-4.302469349e-05
-0.00090960608
0.001120970228
-2.696224614e-05
-4.570921436e-05
5.002769662e-05
-3.225326775e-05
2.904389119e-05
-9.534275259e-05
6.72582587e-05
-1.252260969e-05
-0.001285655274
0.001378683588
-5.87960264e-05
-2.393849177e-05
6.701500472e-08
-7.845339183e-06
-9.39872286e-06
-8.663308686e-06
-6.161061803e-06
2.695279491e-07
2.117669181e-06
1.387332572e-06
-0.0001374003606
-0.001653607579
0.00180241279
0.0001942886012
-6.42561197e-05
-0.0008439248241
0.001595942077
-0.0006291929895
0.0006488474585
-0.001853225242
0.001226370935
-1.939833848e-05
-3.160245457e-05
-0.0002049476839
0.002276146679
-0.0003720266703
-0.0001549821507
-0.0002775110351
-2.703243677e-05
0.0003634649564
-0.001057326112
0.0007960695919
0.0004172130098
-0.0002282025812
2.731226858e-05
7.711128749e-05
-0.000470552006
-0.001653523646
0.001316030353
-0.0009571970419
0.000385825087
0.002365812609
-0.01548542755
0.002635221648
0.000378097387
-0.000314780082
-0.0001300407694
0.000304431205
-0.0003638280564
2.966826685e-07
0.0003838292853
-0.0003482698539
-2.104647543e-07
0.0002825354578
-0.000175004267
2.712998768e-05
7.260183037e-05
-4.447345451e-05
1.162766402e-06
2.454126412e-05
-4.256908099e-05
-4.900288355e-05
4.475499323e-05
-1.331888002e-05
-0.0001255257466
-7.7303409e-05
7.294701316e-05
-0.0001017913454
-6.062518268e-05
5.715641185e-05
-3.843940566e-05
-0.0003155065006
0.0005287925104
-0.0005775428383
-0.001003876997
0.001983654996
-0.002905811653
0.002624644973
-0.03067998115
0.02064818019
-0.0005513918063
-0.0007071914867
-0.00119435632
0.0009874167578
0.0001577071211
0.0001843732988
0.000231290136
0.0003269121689
0.0007081355544
7.155379381e-05
3.905067358e-05
2.865063613e-05
1.499314036e-05
-9.374279347e-06
2.016686132e-05
-1.457339671e-05
1.439704683e-05
1.667277702e-05
-2.192836557e-05
-4.052842789e-06
-9.452918673e-06
1.530135866e-05
-1.076300231e-05
1.326186027e-05
-1.076739611e-05
3.482030327e-06
-5.272133501e-06
0.0002310820775
0.001403923346
-0.001910097598
0.0008580123428
0.000159385506
-0.000862703916
-0.0001650295586
0.0001266306195
-0.0001409691974
-0.0002860830663
0.0001654956603
-0.0006786905941
-0.0004417367426
0.0003540021862
-4.245569283e-05
-0.0001296000362
1.770609608e-05
0.003206742335
-0.0006819838853
-0.003583396468
-4.981073844e-05
0.004683624651
-0.002753582518
-0.003625561584
0.00158427688
0.001421712655
0.000653741138
-0.0049751009
0.0001781261429
-4.181185952e-06
-5.860067887e-05
-0.0001070771082
6.342948649e-06
-7.221165605e-06
8.985604093e-07
2.182656349e-06
-6.76150112e-07
1.167554691e-06
-2.319858524e-06
2.341450427e-06
1.41521566e-06
-0.0005378026506
0.000757655781
-0.000344720266
0.0001178887983
-0.0002528141525
0.000255583184
-0.0004695790813
0.006826256839
0.0004080931184
-0.001491893568
-0.005497270596
-0.0001228969232
0.0001412141836
8.507488395e-05
-7.85507474e-05
-0.0001095617396
-0.0001398074208
0.0001381486708
0.0001583311741
-0.0001805173199
7.966843161e-05
-9.648827409e-05
-0.0006535454293
0.0003887631149
0.0001469908806
-0.0002555485767
0.0004560562714
-0.001363531926
-0.0007515605028
0.001990783749
-0.002696135048
0.0003990723417
-0.0004663367005
-0.00864957394
0.008408549106
0.0003520949466
0.0001516839472
-0.008348853864
0.0004330235931
0.0006567385251
0.0009382382966
-0.00134638202
-0.0001481960141
0.0001025968934
-0.0002940562501
0.0001707219487
-7.864135881e-05
3.487069203e-05
-0.0002540895853
-0.0005944325933
0.0001303044756
5.097642467e-06
-1.243865805e-05
-5.781432849e-06
1.279851238e-06
2.15189422e-07
5.677437362e-07
-1.626266255e-06
-5.577534131e-08
-3.659977069e-06
8.661934122e-07
-0.0002377735363
0.000138257857
-6.366851004e-05
-0.0009059571894
-0.002834260637
-0.0003819029528
0.003771317448
0.005359711125