/*--------------------------------*- C++ -*----------------------------------*\
  =========                 |
  \\      /  F ield         | OpenFOAM: The Open Source CFD Toolbox
   \\    /   O peration     | Website:  https://openfoam.org
    \\  /    A nd           | Version:  8
     \\/     M anipulation  |
\*---------------------------------------------------------------------------*/
FoamFile
{
    version     2.0;
    format      ascii;
    class       volScalarField;
    location    "0.4/wallFilmRegion";
    object      T;
}
// * * * * * * * * * * * * * * * * * * * * * * * * * * * * * * * * * * * * * //

dimensions      [0 0 0 1 0 0 0];

internalField   nonuniform List<scalar> 
1342
(
299.9999976
299.9999979
299.999997
299.9999962
299.9999973
299.9999975
299.9999978
299.9999995
299.9999995
299.9999995
299.9999996
299.9999995
299.9999995
299.9999996
299.9999951
299.9999807
299.9999976
299.9999983
299.9999922
299.9999893
299.9999952
299.9999982
299.9999999
299.9999998
299.9999997
299.9999995
299.9999994
299.9999994
299.9999993
299.9999992
299.9999993
299.9999997
299.9999972
299.9999809
299.9999926
299.9999951
299.9999897
299.9999734
299.9999766
299.9999972
299.999999
300
299.9999997
299.9999991
299.999999
299.9999991
299.9999995
299.9999999
299.9999991
299.9999948
299.9999869
299.9999985
299.9999991
299.9999996
299.9999998
299.9999999
299.9999996
299.9999988
299.9999921
299.999966
299.9999966
300
300
299.9999949
299.9999993
299.9999997
299.9999998
299.9999999
299.9999999
299.9999998
299.9999995
299.9999981
299.9999813
299.9999952
300
299.9999999
299.9999998
299.9999999
299.9999999
299.9999999
299.9999999
300
299.9999998
299.9999994
299.9986451
299.998518
299.998605
299.9986193
299.9999983
299.9999998
299.9999999
299.9999999
300
300
300
299.9999999
299.9999999
299.9999996
299.9999943
299.9999979
299.9999942
299.9999939
299.9999939
299.9999933
299.999998
299.9999964
299.9999932
299.9999953
299.9999967
299.9999973
299.9999991
299.9999804
299.9999885
299.9999904
299.9999911
299.9999912
299.999991
299.9999977
299.9999876
299.9999853
299.9999883
299.999982
299.9999799
299.9999801
299.9999793
299.9999797
299.9999795
299.9999811
299.9999832
299.9999803
299.9999854
299.9999869
299.9999817
299.9999878
299.9999883
299.9999829
299.9999885
299.9999886
299.9999963
299.9999911
299.9999937
299.999981
299.9999786
299.9999809
299.9999904
299.9999834
299.9999847
300.0000079
299.9999856
299.9999919
300.0000033
300.0001949
300.0001966
299.9999905
300.0001895
300.0001263
299.9999907
300.000111
300.0001185
299.9999921
300.0001359
300.0001745
299.9999929
300.0001394
300.0000955
299.9999933
300.000125
300.0000242
299.9999941
300.0000348
300.0001257
299.9999941
299.9999996
300.0000005
299.999997
299.9999976
299.9999973
299.9999978
299.9999977
299.9999978
299.9999806
299.9999807
299.999981
299.999984
299.9999824
299.9999839
299.9999855
299.9999848
299.9999851
300.0001972
299.9999857
300.0000362
300
300
300
300
300
300
300
300
300
300
300
300
300.0002036
300
300
300
300
300
300.0001221
300
300
299.9999993
300.0000065
300.0000049
299.9999978
299.9999998
299.9999981
299.9999818
299.9999826
299.9999829
299.9999841
299.9999837
299.9999845
299.9999851
299.9999849
299.9999851
300.0000105
299.9999858
300.0001746
300
300
300
300
300
300
300
300
300
300
300
300
300
300
300
300
300
300
300
300
300
300.0000175
300
300.0001633
299.999999
300.0000036
299.9999995
299.9999975
299.9999976
299.9999972
299.9999837
299.9999838
299.9999841
299.9999847
299.9999845
299.9999849
299.9999853
299.9999853
300.000049
300
300
300
300
300
300
300
300
300
300
300
300
300
300
300
300
300
300
300
300
300
300
300
300
300.0001566
300.0001102
300.0000083
299.9999981
299.9999991
299.9999984
299.999997
299.9999974
299.9999969
299.9999845
299.9999846
299.9999896
299.9999865
300.0000455
300.0001737
300
300
300
300
300
300
300
300
300
300
300
300
300
300
300
300
300
300
300
300
300
300
300
300
300.0001279
300.0000899
300.000085
299.999999
299.9999991
299.999999
299.9999978
299.9999989
299.9999977
299.9999848
299.9999864
300.0001997
300.0000019
300.000004
300.0001916
300.0000044
300.0000054
300
300.0000078
300.000019
300
300.0000576
300.0000924
300
299.9999975
300.0000032
300
300.0000628
300.0001037
300
300.0000975
300.0000056
300
300.0000247
300.0000053
300.0000886
299.9999777
299.9999821
300.0000766
299.9999858
299.9999938
299.9999982
299.9999985
299.9999988
299.9999978
299.9999993
299.9999983
299.9999975
299.999998
299.9999976
299.9999949
299.9999959
299.9999946
299.999996
299.9999958
299.9999943
299.9999956
299.9999955
299.9999942
299.9999954
299.9999955
299.9999948
299.9999955
299.9999955
299.9999929
299.9999951
299.999993
299.9999796
299.9999796
299.9999826
299.9999836
299.9999872
299.9999911
299.9999797
299.9999907
299.9999918
299.9999918
299.9999931
299.9999975
299.9999965
299.9999987
299.9999993
299.9999992
299.9999994
299.9999993
299.9999986
299.9999984
299.9999988
299.9999985
299.9999987
299.999999
299.9999988
299.9999989
299.9999992
299.9999991
299.9999992
299.9999995
299.9999994
299.9999996
299.9999995
299.9999997
299.9999996
299.9999977
299.9999985
299.9999975
299.9999961
299.9999966
299.9999956
299.9999943
299.9999945
299.9999934
299.9999903
299.9999895
299.9999868
299.9999827
299.9999851
299.999988
299.9999983
299.9999986
299.9999989
299.9999993
299.9999997
299.9999997
299.9999979
299.9999951
299.9999982
299.9999984
299.9999995
299.9999996
299.9999997
299.9999998
299.9999948
299.9999918
299.9999929
299.9999903
299.9999878
299.999988
299.9999816
299.9999789
299.9999625
299.9999982
299.9999988
299.9999994
299.9999994
299.9999996
299.9999997
299.9999997
299.9999998
299.9999999
299.9999999
299.9999999
299.9999994
299.9999997
299.9999995
299.9999966
299.9999885
299.9999796
299.9999821
299.9999583
299.9999588
299.9999252
299.9999969
299.9999991
299.9999999
299.9999999
299.9999999
299.9999999
300
299.9999997
299.9999999
299.9999998
299.9999992
299.9999996
299.9999934
299.9999898
299.9987015
299.9999999
299.9999999
300
299.9999969
299.9986767
299.9999996
299.9999992
299.9999996
299.9999993
299.9999996
299.9999994
299.9999997
299.9999995
299.9999997
299.9999996
299.9999986
299.9999987
299.9999978
299.9999978
299.9999976
299.9999971
299.9999975
299.9999981
299.9999971
299.9999929
299.9999823
299.9999981
299.9999953
299.9999824
299.9999795
299.9999797
299.999981
299.9999823
299.9999952
299.9999975
299.999998
299.9999978
299.999998
299.9999791
299.9999859
300.0000026
300.0000088
299.9999939
299.9999901
299.9999914
299.9999923
299.9999928
299.9999938
299.9999938
299.9999964
299.9999977
299.9999981
299.999998
299.9999979
299.9999795
299.9999824
299.9999849
299.9999902
300
300
300
300
300
300
300.0001134
300.0000028
299.9999981
299.9999978
299.9999817
299.999983
299.9999848
299.9999854
300
300
300
300
300
300
300
300.0001548
300.0000041
299.9999977
299.9999834
299.9999843
299.9999849
300.0000562
300
300
300
300
300
300
300
300
299.9999992
299.9999974
299.9999841
299.999985
300.0001056
300
300
300
300
300
300
300
300.0001382
300.0000003
299.9999991
299.9999972
299.9999888
300.0001957
300
300
300.0001784
300
300
300
300.0001289
300.0000356
299.9999941
299.9999992
299.9999977
299.9999972
299.9999848
299.9999948
299.9999944
299.9999942
299.9999941
299.9999946
299.9999816
299.9999785
299.9999797
299.9999802
299.9999927
299.999999
299.9999992
299.9999979
299.9999975
299.9999967
299.9999965
299.9999961
299.9999948
299.9999901
299.999999
299.9999988
299.9999971
299.999999
299.9999994
299.999998
299.9999987
299.9999986
299.9999987
299.9999989
299.9999991
299.9999994
299.9999996
299.9999983
299.999997
299.9999952
299.9999937
299.9999926
299.9999916
299.9999911
299.9999888
299.9999821
299.9999754
299.9999996
299.9999993
299.9999984
299.9999987
299.9999988
299.9999991
299.9999993
299.9999995
299.9999998
299.9999991
299.9999994
299.9999964
299.9999972
299.9999939
300
300
300
299.999996
299.9999835
299.9999354
299.9999334
299.999998
299.9999983
300
299.9999987
299.9999987
299.9999989
299.9999994
299.9999996
299.9999998
299.9999999
299.9999999
299.9999997
299.999999
299.9999995
299.9999773
299.9998848
299.9999364
299.9999987
300
300
300
299.9999995
299.9999997
299.9999999
300
299.9999999
299.9999999
299.9999976
299.999999
299.9999999
300
300
300
300
299.9999999
299.9999999
299.9997273
299.9987981
299.9986322
300
300
300
300
299.9999998
299.9997904
299.99851
299.9985336
299.9987862
300
300
300
300
299.9999999
300
299.9992347
299.9988179
299.998711
299.9999999
299.9999999
300
300
300
300
300
299.9999999
299.9999998
299.9999995
299.9999992
299.9999996
299.9999988
299.9999996
299.9999992
299.9999994
299.9999996
299.9999989
299.9999989
299.9999996
299.9999994
299.9999996
299.9999996
299.999999
299.9999991
299.9999996
299.9999995
299.9999996
299.9999996
299.9999992
299.9999993
299.9999997
299.9999996
299.9999995
299.999999
299.9999994
299.9999995
299.9999997
299.9999996
299.9999975
299.999993
299.9999996
299.9999995
299.9999981
299.9999983
299.9999882
299.9999863
299.9999984
299.9999979
299.9999976
299.9999974
299.9999859
299.999986
299.9999973
299.9999965
299.9999979
299.999997
299.9999864
299.9999873
299.9999957
299.9999951
299.9999967
299.9999971
299.9999947
299.9999974
299.9999977
299.9999968
299.9999972
299.9999978
299.9999979
299.9999942
299.9999979
299.999992
299.9999893
299.9999978
299.9999978
299.9999977
299.9999977
299.9999885
299.9999901
299.9999969
299.9999969
299.999997
299.9999971
299.9999969
299.9999998
299.9999998
299.9999999
299.9999972
299.9999975
299.9999996
299.9999982
299.9999981
299.999998
299.999998
299.9999977
299.9999978
299.9999979
299.9999983
299.999998
299.9999981
299.9999975
299.9999989
299.9999995
299.9999995
299.999997
299.9999988
299.9999987
299.9999995
299.9999995
299.9999995
299.9999966
299.9999984
299.9999981
299.9999995
299.9999995
299.9999995
299.9999963
299.9999977
299.9999977
299.9999996
299.9999995
299.9999994
299.9999957
299.9999981
299.9999985
299.9999996
299.9999994
299.9999994
299.9999944
299.9999989
299.9999991
299.9999995
299.9999993
299.9999993
299.9999971
299.9999993
299.9999995
299.9999996
299.9999994
299.9999995
299.9999994
299.9999996
299.9999997
299.9999997
299.9999996
299.9999995
299.9999981
299.9999995
299.9999992
299.9999882
299.9999957
299.9999901
299.9999982
299.9999986
299.9999984
299.9999929
299.9999731
299.9999802
299.9999993
299.9999988
299.9999992
299.9999982
299.9999944
299.9999958
299.9999981
299.9999992
299.9999992
299.999997
299.9999957
299.9999986
299.9999986
299.999991
299.9999827
299.9999864
299.999977
299.9999628
299.9999923
299.9999919
299.9999939
299.9999942
299.9999969
299.9999964
299.9999975
299.9999995
299.9999987
299.9999996
299.9999999
299.9999999
299.9999999
300
300
299.9999999
300
299.9999997
299.9999999
299.9999999
299.9999999
299.9999995
299.9999994
299.9999994
299.9999993
299.9999993
299.9999992
299.9999992
299.9999992
299.9999991
299.9999991
299.9999992
299.9999991
299.9999992
299.9999995
299.9999994
299.9999996
299.9999995
299.9999998
299.9999995
299.9999942
299.9999984
299.999997
299.9999738
299.9999895
299.9999704
299.9999948
299.9999903
299.9999935
299.9999981
299.9999952
299.999999
299.9999998
299.9999996
299.9999986
299.9999991
299.9999998
299.9999989
299.9999832
299.9999824
299.9999669
299.9999512
299.999958
299.9999669
299.999991
299.9999875
299.9999958
299.9999949
299.9999967
299.9999977
299.999998
299.9999983
299.9999985
299.9999997
299.9999998
299.9999993
299.9999992
300
300
300
300
300
300
299.9999999
299.9999999
299.9999999
300
300
299.9999991
299.9999992
299.9999991
299.999999
299.9999989
299.9999989
299.999999
299.999999
299.9999992
299.9999994
299.9999993
299.9999997
299.9999997
299.9999998
299.9999999
299.9999996
299.9999995
299.9999991
299.9999984
299.9999995
299.9999973
299.9999759
299.9999854
299.9999912
299.9999798
299.9999878
299.9999994
299.9999948
299.9999993
299.9999998
299.9999985
299.9999988
299.9999992
299.9999998
299.9999998
299.9999999
299.9999992
299.9999984
299.999995
299.9999883
299.9999995
299.9999998
299.9999999
299.9999999
299.999969
299.9999626
299.9998552
299.9999885
299.9999832
299.9999974
299.9999978
299.9999992
299.9999989
299.9999995
299.9999997
300
300
300
300
300
300
300
300
300
299.9999987
299.9999988
299.9999991
299.9999991
299.9999994
299.9999998
299.9999999
299.9999998
299.9999999
300
299.9999998
299.9999999
299.9999998
299.9999997
299.9999998
299.9999995
299.9999928
299.9999988
299.9999998
299.9999991
299.9999975
299.9999963
299.9999999
299.9999999
299.9999999
299.9999988
299.9999987
299.9999988
299.9999991
299.9999997
299.9999998
299.9999999
299.9999999
299.9999998
299.9999996
299.999995
299.999998
299.9999886
299.9999914
299.9999995
299.9999997
299.9999998
299.9999998
299.9999999
299.9999999
299.9999999
299.9999994
299.999999
299.9999973
299.9999913
299.9999998
299.9999998
299.9999999
299.9999999
299.9999999
299.9999999
299.9999999
299.9999999
300
299.9999999
300
300
299.9999999
300
299.9999999
299.9999996
299.9999998
299.9999997
299.9999982
299.9999994
299.9999588
299.999982
299.9997588
299.9999162
299.9995626
299.9999774
299.9985197
299.9989466
299.9984858
299.9999982
299.9999982
299.9999988
299.9986117
299.9985663
299.9999995
299.9999999
299.9985282
299.9999923
299.9999999
299.9999995
300
300
299.9999997
299.9999984
299.9999993
299.9999992
299.9999996
299.9999995
299.9999998
299.9999999
299.9999999
299.9999999
299.9999999
299.9999999
299.9999999
300
299.9999999
300
300
300
300
300
299.9999999
300
299.9999999
299.9999999
299.9999999
299.9999999
299.9999996
299.9999998
299.9999997
299.9999994
299.9999989
299.9999984
299.9999993
300
299.9999997
299.9999986
299.9999988
299.9999997
299.9999998
299.9999999
299.9999999
299.9999999
299.9999999
299.9999998
299.9999978
299.9999992
299.9999999
299.9999999
299.9999999
299.9999999
300
300
300
300
300
300
300
300
300
299.9999999
300
299.9999999
300
299.9988049
299.9997602
299.9988207
299.9987716
299.9986142
299.9985858
299.9985839
299.9985851
299.9985843
299.9986791
299.9999999
300
300
300
300
300
300
300
300
300
300
299.9999999
299.9999999
299.9999999
300
299.9999997
300
299.9989073
299.9998134
299.9994771
299.9984897
299.9984121
299.9984544
299.9986866
299.998654
299.998793
299.9987223
299.9988068
299.998738
299.9987469
299.9999999
299.9999999
300
299.9999999
300
300
300
300
300
300
300
299.9999999
300
300
300
299.9999999
300
300
300
300
299.9988921
300
300
299.9987661
299.9999999
299.9999999
299.9986611
299.9999998
299.9999996
299.9999975
299.9999995
299.9999999
299.9999998
299.9999996
299.9999999
299.9999999
299.9999999
299.9999998
300
299.9999999
299.9999999
299.9999999
300
300
300
300
300
300
300
300
300
300
300
300
300
300
300
299.9999999
299.9999999
299.9999999
299.9999999
299.9999999
299.9999997
299.9999998
)
;

boundaryField
{
    walls
    {
        type            zeroGradient;
    }
    wallFilmFace_top
    {
        type            zeroGradient;
    }
    region0_to_wallFilmRegion_wallFilmFace
    {
        type            zeroGradient;
    }
    mirrorFace_top
    {
        type            zeroGradient;
    }
    region0_to_wallFilmRegion_mirrorFace
    {
        type            zeroGradient;
    }
    procBoundary3to2
    {
        type            processor;
        value           nonuniform List<scalar> 
64
(
299.9999995
299.9999995
299.9999994
299.9999993
299.9999992
299.999998
299.9999987
299.9999997
299.9999993
299.9999865
299.9999783
299.9999813
299.9999813
299.9999778
299.9999792
299.9999813
299.9999823
299.9999828
299.9999832
299.9999836
299.9999838
299.999984
299.9999843
299.9999843
299.9999843
299.9999844
299.9999844
299.9999845
299.9999869
299.9999869
299.9999985
299.9999984
299.9999984
299.9999982
299.9999981
299.9999995
299.9999991
299.9999996
299.9999955
299.9999988
299.9999989
299.9999998
299.9999999
299.9999999
299.9999999
299.9999998
299.9999996
299.9999988
299.999999
299.9999995
299.9999995
299.9999994
299.9999993
299.9999991
299.9999982
299.9999988
299.9999985
299.9999993
299.9999985
299.9999989
299.9999999
300
299.9999999
299.9999997
)
;
    }
}


// ************************************************************************* //
