/*--------------------------------*- C++ -*----------------------------------*\
  =========                 |
  \\      /  F ield         | OpenFOAM: The Open Source CFD Toolbox
   \\    /   O peration     | Website:  https://openfoam.org
    \\  /    A nd           | Version:  8
     \\/     M anipulation  |
\*---------------------------------------------------------------------------*/
FoamFile
{
    version     2.0;
    format      ascii;
    class       volVectorField;
    location    "0.4/wallFilmRegion";
    object      U;
}
// * * * * * * * * * * * * * * * * * * * * * * * * * * * * * * * * * * * * * //

dimensions      [0 1 -1 0 0 0 0];

internalField   nonuniform List<vector> 
1342
(
(1.67835711 0.844748635 -2.903429336)
(0.7805684597 2.216690413 -1.442284864)
(0.3628676006 2.309921868 -2.362664419)
(-0.07880747937 1.502005516 -3.761400295)
(-0.4382609194 1.68369745 -4.031419429)
(-1.056161901 1.372285704 -0.5046023511)
(-1.09610599 0.8846706056 -0.5105541583)
(-1.779096334 -0.007288770181 -5.133163212)
(-1.878250223 -0.007975417822 -5.617756623)
(-1.826271672 -0.008642854109 -6.016259984)
(-1.763106223 -0.009282029459 -6.390576505)
(-1.604596898 -0.01035739108 -7.029627259)
(-1.113106454 -0.0111488862 -7.353297774)
(-0.4651094457 -0.0114171554 -7.325654095)
(0.2541699551 -0.01833484591 -11.41338902)
(1.613370109 -0.01578389723 -9.397251583)
(0.9313815942 -0.09773914341 -4.231436722)
(0.4222138403 -0.1210683914 -2.515249889)
(1.871796558 0.8046470488 -2.859199219)
(0.9522005848 2.166676613 -4.668488887)
(0.2448598159 -0.3521867576 -6.442189717)
(0.2632265971 -1.067446686 -4.413498517)
(0.1501344797 0.0429564032 -3.600385857)
(-0.1920441108 0.4236662551 -3.943745642)
(-0.4444163316 0.5255041693 -4.250537511)
(-2.47713162 0.2659308511 -4.767108351)
(-2.575223766 0.2891949746 -5.345588896)
(-2.487974381 0.3158840964 -5.808756004)
(-2.293332173 0.3266386567 -6.162043153)
(-1.904866473 0.3628358706 -6.574950041)
(-1.229180639 0.3669779685 -6.696356925)
(-0.3281067718 0.4941489825 -9.278295044)
(0.2904815431 0.5946977111 -11.69891518)
(1.9524129 0.4218645045 -8.733398952)
(0.929104287 0.07560539255 -3.969803069)
(0.4107071588 0.002680178201 -3.11145972)
(2.040242993 -0.1446201245 -2.632583319)
(2.2513118 0.8074885245 -3.328837832)
(2.172634665 1.328692025 -4.12766864)
(1.231203984 -0.9399806541 -5.107012222)
(1.085133589 -0.9583599837 -3.791119976)
(0.7286004497 0.2263401666 -3.081458339)
(-0.09663006648 1.589747569 -4.785241781)
(-2.90859964 1.373298613 -5.418882305)
(-2.592307096 1.456548318 -5.745306212)
(-2.06757983 1.526462226 -6.029672309)
(-1.31638786 1.716983247 -6.818881816)
(-0.1656776703 2.943233843 -11.5935111)
(0.3018563212 2.893632336 -11.50594483)
(2.073733887 2.055491864 -8.183539514)
(0.8126961131 0.7752808236 -3.433723502)
(-4.804857781 -3.496552211 -6.647106278)
(-3.588013181 -3.300685724 -6.304073398)
(-2.749863035 -3.135806868 -6.018520151)
(-2.19760668 -3.848404392 -7.350794019)
(-0.1140644028 -5.355418194 -10.25420284)
(3.321276363 -3.727974125 -7.089200118)
(2.081261389 -1.693380153 -3.224966486)
(1.965524805 -0.9339082243 -2.195077922)
(2.746930157 -0.1419419138 -2.882055508)
(4.002631437 -2.559565726 -8.730895401)
(1.088952045 0.8689180291 -2.667209295)
(0.7781761284 1.371958931 -2.906972075)
(0.7664424213 3.159049495 -6.044424929)
(-5.165886329 -4.389663838 -4.794882093)
(-4.650097645 -4.228891191 -4.604332996)
(-4.368141189 -4.997320168 -5.424257657)
(-3.11572296 -6.13755154 -6.694309696)
(-0.0296130565 -7.860271308 -8.553777233)
(5.06003543 -5.548337807 -6.022967209)
(4.593486258 -4.847416552 -5.255358802)
(2.448594167 -1.504321172 -1.980821814)
(2.791772733 -0.9970269742 -2.164629352)
(5.392898281 -4.376210377 -7.334895073)
(1.425321205 1.210239038 -2.115337063)
(1.070942114 2.120777422 -2.705435429)
(-7.268174378 -4.205416397 -2.670612956)
(-7.088455082 -4.934525158 -3.141908645)
(-5.963414256 -5.773847911 -3.654026313)
(-4.012184127 -6.581051926 -4.2015823)
(0.006136501384 -8.019588778 -5.106411364)
(6.851826916 -5.422604237 -3.479072048)
(6.109301102 -6.07406259 -3.886322055)
(2.547180678 -5.346562936 -3.684425222)
(3.530627629 -8.831474881 -4.47746113)
(5.134880998 -6.266630644 -5.236432537)
(7.261201381 -3.393895834 -4.269911173)
(7.15185041 3.936880587 -3.811883387)
(3.28995874 7.624556074 -3.954214298)
(-6.112050197 3.974199476 -1.938940229)
(-6.227339843 5.649409788 -2.753461829)
(-5.161420942 7.049160749 -3.430056459)
(-3.243003754 8.318786966 -4.039154838)
(-0.00101796554 10.185707 -4.945510483)
(3.840415173 7.013869101 -3.430064)
(5.291857532 5.76013795 -2.803414756)
(6.630193126 4.439929135 -2.86491746)
(3.378463054 8.568360073 -5.541184161)
(1.838750736 0.7030404777 -2.818303048)
(1.688822551 1.062606431 -2.968647931)
(1.819791114 0.9203388474 -2.876331651)
(1.81601252 1.16869044 -3.020722317)
(1.634510984 1.603325594 -3.359409281)
(1.45268923 1.863054149 -3.613346836)
(1.001007192 2.048543916 -1.307986359)
(0.1129359997 1.954999236 -3.222268723)
(0.05529880777 0.4047237826 -6.734671429)
(-0.03897614975 -0.5592785706 -6.013834051)
(-0.2218873367 1.423751483 -4.03497024)
(0.04152586026 -0.9365999012 -5.058907206)
(0.117478119 -0.8298165641 -4.687479846)
(-0.2891494523 0.05556949946 -8.892759731e-05)
(-0.1706080729 0.02942581376 -4.662305762e-05)
(-0.08463127746 0.01112430669 -1.791450116e-05)
(-0.1375918779 0.03631054463 -5.788226322e-05)
(-0.05881386959 0.007658560471 -1.208472004e-05)
(-0.03392388045 0.006641068648 -1.05910792e-05)
(0.4286781727 0.05220125036 -8.31201991e-05)
(0.008185100704 0.007888693062 -1.256852193e-05)
(0.07280683552 0.01009579289 -1.596971602e-05)
(0.4652113452 0.0447842599 -7.186639543e-05)
(0.167812808 0.01915810125 -3.030086957e-05)
(0.2199657873 0.02600155873 -4.14604348e-05)
(0.4012895793 0.04206915394 -6.714720263e-05)
(0.2424268702 0.02783114922 -4.413468043e-05)
(0.2505958365 0.02713563271 -4.369397057e-05)
(0.3807728665 0.04149515355 -6.586373134e-05)
(0.2489451288 0.02434700118 -3.869522593e-05)
(0.2416983653 0.02033416615 -3.24619696e-05)
(0.460970914 0.04196924922 -6.693343625e-05)
(0.2410013646 0.01750121439 -2.840065753e-05)
(0.2586872835 0.01718765361 -2.702139065e-05)
(0.6753398134 0.03676878202 -5.708146471e-05)
(0.2972214954 0.01886965138 -3.046873708e-05)
(0.3478722132 0.02085991845 -3.264676465e-05)
(1.079499631 0.02271824659 -1.044270363e-05)
(0.399910089 0.02197012449 -3.510637475e-05)
(0.4770593665 0.02222401351 -3.450718511e-05)
(1.62280908 0.1168085611 -0.0004133995103)
(1.30403296 0.06480407385 -8.783132534e-05)
(1.837290011 0.1183538431 -0.0002061082001)
(-0.2001522557 0.07467536662 -0.0001187216036)
(0.004133521981 0.1414808039 -0.0002254064141)
(-0.03373892637 0.1329987129 -0.0002118477959)
(-0.0002201764796 0.0008118355225 -1.292615552e-06)
(0.09196799239 0.1425730764 -0.0002269090571)
(0.1046810491 0.1143098008 -0.0001822386404)
(-3.432898453e-05 1.667710035e-06 -2.601434132e-09)
(0.0240601925 0.0242831524 -3.868950164e-05)
(1.084363079e-05 9.668117161e-06 -1.538535059e-08)
(0.0001321345603 5.525355012e-06 -8.312547473e-09)
(-5.021559244e-11 -2.218653912e-10 3.527991815e-13)
(-1.077471522e-10 -1.167490448e-09 1.858692545e-12)
(0.006419895448 0.0007044034936 -1.120034435e-06)
(-1.783024298e-10 -1.153983717e-08 1.836978482e-11)
(3.836024137e-09 -8.70565772e-08 1.385780116e-10)
(0.008867630584 0.0008711390356 -1.381907016e-06)
(1.143063506e-08 -1.11993966e-07 1.783001791e-10)
(1.318207797e-08 -9.292229579e-08 1.481068507e-10)
(0.003298378899 0.0002897642917 -4.631132559e-07)
(8.486961716e-09 -5.078645791e-08 8.103018659e-11)
(1.857598198e-09 -8.763826334e-09 1.397418964e-11)
(0.0148991349 0.001145943872 -1.810732763e-06)
(2.160801222e-08 -6.82811662e-08 1.087249392e-10)
(8.951558426e-08 -1.947007808e-07 3.098924965e-10)
(0.08593300809 0.00538122912 -8.560259535e-06)
(5.64824451e-08 -1.136983287e-07 1.810303199e-10)
(3.166935331e-05 -6.845640174e-06 1.091775459e-08)
(0.1609622086 -0.000830327312 1.598688262e-06)
(5.134744658e-06 -1.158939764e-06 1.836237208e-09)
(3.519885952e-06 -4.737737768e-06 7.54681454e-09)
(0.8740175056 0.05722391421 -8.976743529e-05)
(0.02264087812 0.001203671089 -1.962588804e-06)
(0.08868707557 0.008530114982 -1.34110185e-05)
(2.549264758 0.3537445431 -0.0005619928806)
(1.286655195 0.2138401538 -0.0003445517305)
(1.982477159 0.3527472563 -0.0005599173382)
(2.263847851 0.4713906538 -0.0007535874482)
(2.638907627 0.4826050544 -0.0007650396489)
(2.506435275 0.5098125777 -0.0008172525416)
(0.07897508138 0.1953702184 -0.0003111874568)
(0.1026230647 0.2708470153 -0.0004306528015)
(0.1476468484 0.251903031 -0.0004011963956)
(0.1584606643 0.1651661239 -0.0002632079294)
(0.1921136912 0.2317414776 -0.0003693279927)
(0.1991986545 0.2001828733 -0.000319250213)
(0.03075756972 0.02796254567 -4.454374647e-05)
(0.1752846526 0.1610427165 -0.0002564540083)
(0.1121248169 0.09924084431 -0.0001578877494)
(-3.268308436e-12 -1.876383139e-11 2.98719976e-14)
(0.004438989954 0.003880260337 -6.171339428e-06)
(-8.187132038e-10 -3.892400527e-09 6.198628391e-12)
(3.666391595e-14 -1.936068289e-11 3.087043028e-14)
(-1.061831748e-12 -2.151247513e-11 3.421453349e-14)
(-3.994360064e-13 -2.198306896e-11 3.49616292e-14)
(5.367418999e-12 -2.323908383e-11 3.700307841e-14)
(1.504302525e-12 -2.245606689e-11 3.572394001e-14)
(3.553034521e-12 -2.357121662e-11 3.753286043e-14)
(1.17496738e-11 -2.982598146e-11 4.747560609e-14)
(5.763023723e-12 -2.481815651e-11 3.956002027e-14)
(8.388807666e-12 -2.659004221e-11 4.239900544e-14)
(1.976580025e-11 -3.577153925e-11 5.69368913e-14)
(1.156762058e-11 -2.857204821e-11 4.553150727e-14)
(1.564221221e-11 -3.095026595e-11 4.926597819e-14)
(4.512074055e-11 -6.189062876e-11 9.875931729e-14)
(2.108813329e-11 -3.40140459e-11 5.414222177e-14)
(2.829129968e-11 -3.063613562e-11 4.879419661e-14)
(5.141795578e-11 -6.244028025e-11 9.958462726e-14)
(3.77538995e-11 -4.417070723e-11 7.02594723e-14)
(5.010412081e-11 -5.166705345e-11 8.207487241e-14)
(1.213931343e-06 -5.490303654e-07 8.769197897e-10)
(6.742106106e-11 -5.422188994e-11 8.627682887e-14)
(8.527492178e-11 -6.580416682e-11 1.047311052e-13)
(1.082957668 0.2205549339 -0.0003492656482)
(0.009560086232 0.002379492631 -3.77939368e-06)
(0.4905664458 0.1222955531 -0.0001944545548)
(2.659061344 0.586289397 -0.0009352225956)
(1.358796307 0.4695807253 -0.0007483983359)
(1.984567708 0.6696242157 -0.001070168602)
(0.1896032321 0.2936394715 -0.0004680751136)
(0.1578453312 0.3571690325 -0.0005683352459)
(0.2043980762 0.3058753563 -0.0004866936567)
(0.2218358361 0.2172530109 -0.00034584386)
(0.2253436984 0.2542279613 -0.0004048649154)
(0.2157401442 0.2090563721 -0.0003331750301)
(0.1319420776 0.1161308812 -0.0001851764622)
(0.1815937847 0.16480751 -0.0002626317576)
(0.08903467763 0.07914599945 -0.0001262577668)
(1.161389045e-09 -1.296546342e-09 2.069275768e-12)
(0.000334574715 0.0002956131319 -4.703723799e-07)
(-5.498995407e-12 -1.562356184e-11 2.487097827e-14)
(-2.028564195e-13 -1.380416036e-11 2.200098004e-14)
(-1.377719391e-12 -1.010836943e-11 1.60992754e-14)
(-4.868578585e-13 -1.030875242e-11 1.643015377e-14)
(3.094236042e-12 -1.492401797e-11 2.377393021e-14)
(7.735403905e-13 -1.055273778e-11 1.681809313e-14)
(2.077770787e-12 -1.114131423e-11 1.773008025e-14)
(7.253018127e-12 -1.695587707e-11 2.699178125e-14)
(3.570202244e-12 -1.188637586e-11 1.891154764e-14)
(5.361066289e-12 -1.296005087e-11 2.06598708e-14)
(1.321071178e-11 -2.009190705e-11 3.195787171e-14)
(7.640785349e-12 -1.428573655e-11 2.276175086e-14)
(1.061734215e-11 -1.597388609e-11 2.540046703e-14)
(2.325101511e-11 -2.555048038e-11 4.070839514e-14)
(1.462339701e-11 -1.808119585e-11 2.878999029e-14)
(2.002998838e-11 -2.080420587e-11 3.312370473e-14)
(4.135638482e-11 -3.5244766e-11 5.622579055e-14)
(2.744341495e-11 -2.415860781e-11 3.836297359e-14)
(3.749359337e-11 -2.834917318e-11 4.523066907e-14)
(7.499636795e-11 -5.132382534e-11 8.180774721e-14)
(5.239622825e-11 -3.348160229e-11 5.333765588e-14)
(7.233039546e-11 -4.007670652e-11 6.372323956e-14)
(0.003401334108 0.0008462397181 -1.348700868e-06)
(1.081707308e-10 -4.845505261e-11 7.720311918e-14)
(2.653301896e-08 -7.316572247e-09 1.168680786e-11)
(1.546783184 0.6443322733 -0.001027952113)
(0.7032987511 0.2980509963 -0.0004752218277)
(1.181105499 0.5448658955 -0.0008694432712)
(1.251484242 2.181972448 -0.00347537467)
(1.870355169 1.856452819 -0.002954110928)
(1.00208895 2.342394001 -0.003730420275)
(0.1880119897 0.2785753335 -0.0004435038877)
(0.1292963786 0.3090551515 -0.0004921599993)
(0.1372967015 0.209526664 -0.0003338413067)
(0.1779813437 0.1737789598 -0.000276738843)
(0.1210100198 0.1371977516 -0.0002187503015)
(0.06250547491 0.06178363057 -9.817173356e-05)
(0.002949236527 0.002691443641 -4.279685727e-06)
(0.001535814616 0.001440582673 -2.297020591e-06)
(-2.009649609e-10 -2.313495739e-10 3.681763388e-13)
(-2.270027867e-12 -5.215034333e-12 8.309884847e-15)
(-3.719562944e-12 -4.224302563e-12 6.728828032e-15)
(-2.679628577e-12 -4.407556341e-12 7.013660838e-15)
(-2.880526217e-13 -5.645056141e-12 8.983936525e-15)
(-1.475891904e-12 -4.194646976e-12 6.666216066e-15)
(-5.150458855e-13 -4.236281166e-12 6.745337411e-15)
(1.841868834e-12 -6.282601498e-12 1.001051713e-14)
(3.992111574e-13 -4.285785077e-12 6.831700453e-15)
(1.253683873e-12 -4.661005981e-12 7.423122659e-15)
(4.616044804e-12 -7.651267572e-12 1.21855162e-14)
(2.307906413e-12 -5.105275947e-12 8.130015721e-15)
(3.530612285e-12 -5.847739824e-12 9.306987837e-15)
(9.211372128e-12 -1.003755913e-11 1.600984503e-14)
(5.264231968e-12 -6.779680206e-12 1.078491101e-14)
(7.620050361e-12 -8.068524427e-12 1.283202549e-14)
(1.769122572e-11 -1.389806303e-11 2.22005331e-14)
(1.097123977e-11 -9.560781448e-12 1.518800566e-14)
(1.590889598e-11 -1.157782847e-11 1.8426802e-14)
(3.444347708e-11 -1.982347776e-11 3.154184911e-14)
(2.255182891e-11 -1.340745005e-11 2.131498895e-14)
(3.336876132e-11 -1.611163394e-11 2.566881107e-14)
(6.831140703e-11 -2.846675282e-11 4.534421919e-14)
(4.671885753e-11 -1.782825723e-11 2.836116505e-14)
(6.385743509e-11 -1.995066647e-11 3.175784521e-14)
(2.316414483e-10 -4.627918039e-11 7.404909739e-14)
(5.610626479e-08 -9.037821948e-09 1.436463058e-11)
(1.144568623e-05 -1.727677196e-06 2.756778854e-09)
(0.6616893969 -0.237566877 0.0003777121377)
(0.5379920801 -0.3455175644 0.0005512052444)
(0.6035011694 -0.2683271202 0.0004280797963)
(0.8674339585 2.391112662 -0.003811049947)
(0.9905759594 0.6994584285 -0.001114860802)
(0.8161558353 2.441591928 -0.00389159338)
(0.02428757724 0.03823556228 -6.088934396e-05)
(0.004075400612 0.0149490458 -2.383280924e-05)
(5.689450534e-07 9.760955563e-07 -1.556996666e-09)
(2.529343918e-05 2.50280381e-05 -3.989320943e-08)
(-2.613792522e-10 -2.652373341e-10 4.226056287e-13)
(-1.112431969e-11 -2.511285534e-12 4.016794907e-15)
(-4.970566754e-12 -2.279161534e-13 3.650637519e-16)
(-7.869820434e-12 -2.026871192e-12 3.213548343e-15)
(-5.472210643e-12 -1.989759358e-12 3.173490718e-15)
(-2.041799664e-12 -3.221614389e-13 5.114221591e-16)
(-3.612659487e-12 -1.604244619e-12 2.555650297e-15)
(-2.262351517e-12 -1.217414287e-12 1.935579327e-15)
(-2.612146915e-13 -2.348475319e-13 3.740687943e-16)
(-1.31060672e-12 -1.479924133e-12 2.357086392e-15)
(-6.19016266e-13 -6.621900019e-13 1.054161357e-15)
(1.080914738e-12 -7.54852043e-13 1.203403724e-15)
(-2.433708069e-14 -5.293559977e-13 8.427889009e-16)
(5.446659121e-13 -9.103746325e-13 1.450164425e-15)
(2.939506129e-12 -1.828922888e-12 2.913038713e-15)
(1.407263224e-12 -1.189294112e-12 1.895513159e-15)
(2.278766536e-12 -1.792302597e-12 2.852355604e-15)
(6.557920727e-12 -3.665371126e-12 5.854335494e-15)
(3.671738979e-12 -2.464138213e-12 3.930821565e-15)
(5.581771417e-12 -3.490097717e-12 5.557484192e-15)
(1.489050331e-11 -6.818754047e-12 1.085266926e-14)
(8.328191603e-12 -9.243513972e-12 1.475014502e-14)
(1.326863218e-11 -1.200068981e-11 1.911334587e-14)
(3.406387571e-11 -1.221718749e-11 1.946879388e-14)
(1.87628716e-11 -1.261789502e-11 2.007674961e-14)
(2.784382146e-11 -1.186833417e-11 1.887517174e-14)
(7.924668196e-11 -2.649177365e-11 4.216418623e-14)
(3.212105343e-07 -5.045875821e-08 8.015236368e-11)
(4.767124819e-07 -3.466195036e-08 5.599647613e-11)
(0.1058612717 -0.03384637439 5.385735056e-05)
(0.3335339566 -0.1186733732 0.0001887777728)
(0.9648769974 -0.2653377963 0.0004231500675)
(0.1261009169 0.2974116017 -0.0004735006257)
(0.5228106215 -0.2837690187 0.0004513335492)
(0.04636225815 0.6234023697 -0.0009934052447)
(0.02279128015 0.1556792559 -0.000248038232)
(0.003616768989 0.05990979826 -9.537356418e-05)
(-2.224223607e-11 6.774493237e-12 -1.074977092e-14)
(-5.474637142e-05 2.720238353e-06 -4.39517815e-09)
(-4.082032686e-05 -1.690817261e-06 2.769279868e-09)
(-1.072151253e-11 3.440943448e-12 -5.460046863e-15)
(-3.037657106e-05 -1.064842927e-06 1.694529303e-09)
(-1.958383614e-05 -2.951567143e-07 4.917284068e-10)
(-4.641553588e-12 4.681155076e-13 -7.485491855e-16)
(-9.976457383e-06 5.61745207e-07 -9.108460876e-10)
(-9.408383252e-07 4.6364121e-07 -7.387408354e-10)
(-2.16315672e-12 -1.891983613e-12 3.010975837e-15)
(-4.088307571e-08 1.116218651e-07 -1.778595244e-10)
(-2.219588636e-10 3.092175836e-08 -4.92381814e-11)
(7.184027866e-13 4.619538131e-12 -7.359331056e-15)
(-1.237132686e-05 -8.436209112e-06 1.343087434e-08)
(-2.763192495e-08 1.841143995e-07 -2.930144659e-10)
(8.187898078e-13 2.043734001e-14 -3.318872041e-17)
(-3.304879965e-09 2.265636595e-08 -3.604897012e-11)
(-7.792394578e-10 2.665688217e-08 -4.24369363e-11)
(2.434788004e-12 2.562463437e-12 -4.0767717e-15)
(3.577747378e-09 1.128441341e-08 -1.795921531e-11)
(1.34391424e-07 1.376075669e-07 -2.189181902e-10)
(1.612856286e-13 7.039432139e-14 -1.122276336e-16)
(3.847014537e-08 1.250707336e-07 -1.991876265e-10)
(6.962123595e-07 5.668709384e-07 -9.037602076e-10)
(3.855824533e-09 1.974425543e-09 -3.142937736e-12)
(0.0002176447328 -3.772628064e-05 6.004391075e-08)
(0.00241914733 -0.0005884886922 9.362839718e-07)
(7.523390915e-10 1.561443231e-10 -2.477205459e-13)
(0.00307332917 -0.002116391715 3.367748469e-06)
(0.00117857085 -0.0005453180733 8.693567928e-07)
(0.02771642307 -0.006001325274 9.614010797e-06)
(0.3796750734 -0.1209456464 0.0001923827248)
(0.5827134675 -0.1574387318 0.0002500619239)
(-0.7460633842 1.073041479 -0.001708878741)
(0.6073010446 -0.2365529941 0.0003781281708)
(-0.5788613983 0.6701645174 -0.001066068874)
(-0.8238297726 1.378865787 -0.002194850159)
(-0.7630261429 0.9433279504 -0.001501437995)
(-0.9618175197 1.301160252 -0.002070672301)
(-0.2094058963 -0.01310587716 2.069117147e-05)
(-0.5601175358 -0.03498489384 5.55405515e-05)
(-0.1088745405 -0.008465056278 1.370249019e-05)
(-0.514387885 -0.02521381623 4.075949022e-05)
(-0.4373759045 -0.02308070041 3.649858572e-05)
(-0.06594052786 -0.006336912838 1.021702436e-05)
(-0.3626472191 -0.02116398189 3.286996969e-05)
(-0.294037699 -0.01863024366 3.036056846e-05)
(-0.02459103728 -0.003014040741 4.792572362e-06)
(-0.2359299336 -0.01695976883 2.668167657e-05)
(-0.182302732 -0.01561762023 2.496228575e-05)
(-0.001774510701 -0.0005590549909 8.931624172e-07)
(-0.1126507046 -0.01491528435 2.390602387e-05)
(-0.05401117453 -0.02133157866 3.391498581e-05)
(-0.002115137841 -0.00582159139 9.28029401e-06)
(-0.06783063477 -0.03045444511 4.83583234e-05)
(-0.03636905899 -0.0311366429 4.960350823e-05)
(-0.002412831469 -0.0003552281522 5.642003435e-07)
(-0.03425333745 -0.04331715467 6.894352999e-05)
(-0.07936370895 -0.01649588903 2.621802342e-05)
(0.008437374324 -0.00349461722 5.573607519e-06)
(-0.06572487326 -0.02175984467 3.472224235e-05)
(0.08452801591 -0.03836302694 6.125649717e-05)
(0.01324748023 -0.003402826146 5.41022143e-06)
(0.09588814549 -0.03157093271 5.0320478e-05)
(0.1574522281 -0.03277785891 5.224353684e-05)
(0.1274416334 -0.03853451011 6.144687446e-05)
(0.244652202 -0.03228251347 5.054511409e-05)
(0.202172296 -0.006384610007 1.040391236e-05)
(0.1138429292 -0.07803700991 0.0001246049162)
(-0.1867514994 0.02491853045 -3.963715521e-05)
(0.1573085973 -0.1204351647 0.0001928484885)
(0.418788766 -0.1880030254 0.0002922697401)
(0.3614446928 -0.2340981217 0.0003958932936)
(0.3409665961 -0.1847758536 0.0002143469065)
(-4.588895868 -0.4693498129 -8.440008052)
(-4.76523745 -1.27021414 -8.213921741)
(-3.698114803 -0.4679572662 -8.47592519)
(-4.31685762 -1.277994656 -8.258761574)
(-3.808883468 -1.252154843 -8.184303073)
(-2.683391131 -0.4369278455 -8.116658794)
(-3.28168728 -1.24133951 -8.019954169)
(-2.748924575 -1.200860297 -7.798215029)
(-1.716392813 -0.3968118647 -7.543127102)
(-2.234168544 -1.162639853 -7.52420901)
(-1.746313903 -1.106738383 -7.210618773)
(-0.9109368941 -0.3510089647 -6.976876075)
(-1.314190311 -1.064310915 -6.910946721)
(-0.9248101726 -1.091735257 -7.002203076)
(-0.3010070893 -0.3297748655 -6.582900981)
(-0.4140694192 -1.305983041 -8.288515693)
(-0.008315664441 -1.014231295 -6.43803501)
(0.9857208626 -0.1418742418 -2.788907257)
(0.5870588424 -0.5964990235 -3.835751181)
(1.003685373 -0.422233879 -2.720187489)
(1.453613794 -0.1025443993 -2.610928623)
(1.273163733 -0.4012513921 -2.543111854)
(1.497001874 -0.3848086232 -2.52303155)
(1.731432481 0.2009502115 -2.656882368)
(1.671022248 -0.2373475575 -2.554292192)
(1.796492768 -0.07293221675 -2.608381051)
(1.99730285 0.3236947076 -2.78175624)
(2.020178219 0.5116891798 -2.872692506)
(2.028023796 0.7993846031 -3.048245354)
(1.961751926 1.260461451 -3.440921976)
(1.243861582 2.083089539 -4.312367381)
(1.593149859 1.797383329 -4.509785475)
(-4.937016522 -2.011036116 -7.889120584)
(-3.917819016 -1.971488817 -7.803549289)
(-2.81513783 -1.852341293 -7.404083689)
(-1.796695091 -1.72502319 -6.818797131)
(-1.013298298 -1.886061868 -7.465019373)
(0.70430723 -1.707032306 -6.837812428)
(1.040909943 -0.6792566837 -2.682065058)
(1.549630028 -0.6067108198 -2.421210857)
(-5.095275386 -2.859451301 -7.447448939)
(-4.58083446 -2.857140546 -7.427071571)
(-1.965923872 -2.504987859 -6.473274644)
(-1.662616004 -2.67164034 -6.884072421)
(-1.189235589 -3.110685685 -8.003218338)
(-0.2123961157 -3.840827171 -9.885665584)
(1.610512736 -0.8777275144 -2.295757713)
(1.935510205 -0.3253326429 -2.537230445)
(1.814941437 -0.7507162341 -2.354731453)
(2.005972564 -0.5804605606 -2.433920218)
(2.111060183 0.06394574783 -2.74289604)
(2.136539208 -0.3913711584 -2.545965884)
(2.239338369 0.507066075 -3.04820985)
(2.395695159 0.04841991337 -2.86225003)
(2.537164033 0.5236799067 -3.324198842)
(-5.383889774 -3.530783078 -6.712514919)
(-4.194706977 -3.416975803 -6.505568877)
(-3.06541989 -3.175427508 -6.063757462)
(-3.786743418 -3.809423296 -5.554117839)
(-3.519437172 -3.751406869 -5.480065903)
(-2.549224218 -3.365962507 -6.462609708)
(-3.387238881 -3.961921485 -5.773767723)
(-1.506907341 -4.452267835 -8.544160437)
(2.622791493 -4.179780708 -7.948319898)
(-0.07814073164 -6.636237271 -9.6964287)
(3.31578755 -5.127611724 -7.493163244)
(3.117683569 -2.981100886 -5.691613981)
(4.085954485 -4.700049786 -6.872824264)
(4.067602616 -4.198853724 -6.146686163)
(1.753770557 -1.097054667 -2.117621464)
(2.128409507 -0.7617293052 -2.309872231)
(2.478392203 -0.4165417726 -2.60123632)
(2.450196139 -0.8168215825 -2.320084544)
(2.77827904 0.07476752162 -3.086288447)
(2.940452791 -0.3449474631 -2.788070645)
(3.310930411 -0.07259532735 -3.209972304)
(4.874022873 -3.493318075 -8.281782898)
(-5.809105094 -4.54550197 -4.958842336)
(-5.6959092 -5.239333118 -4.240836904)
(-3.869704295 -5.532496353 -6.049257108)
(-5.224517446 -5.753730618 -4.644256653)
(-0.002771875841 -8.458963844 -6.837290709)
(5.716255804 -5.751122387 -4.652922679)
(5.039681478 -5.341773946 -5.805882248)
(5.986086739 -5.820050443 -4.699333006)
(5.847577338 -5.928897791 -4.795820825)
(3.528010978 -3.475836088 -3.821822019)
(5.407886481 -5.828308749 -4.707269477)
(2.597582928 -1.167314016 -1.989128517)
(4.141423353 -0.9829887041 -2.20207526)
(6.294213611 -4.230026297 -5.7749972)
(-8.079637739 -4.47789224 -2.217970511)
(-7.108330821 -5.219987001 -2.57345387)
(7.584401599 -4.644439843 -2.284947555)
(2.554961616 -7.277217529 -4.130257204)
(5.43985981 -6.021805509 -3.866946736)
(-2.267200817 0.0009750789595 -1.468122866e-06)
(-3.653275696 -0.01604750575 -8.891587465)
(-1.882148774 0.001506214275 -2.565109388e-06)
(-2.825976902 -0.01538265055 -8.751078864)
(-1.456569335 0.001972669151 -1.836152434e-06)
(-1.976440486 -0.01433179964 -8.356807478)
(-1.014968936 0.002633246095 -5.738464579e-06)
(-1.217915862 -0.01314854467 -7.852363822)
(-0.5961478404 0.002492455682 -4.556079934e-06)
(-0.6242949485 -0.01212603175 -7.40727295)
(0.4273238649 -0.02076016373 3.226806702e-05)
(0.5596483401 -0.006013220165 -3.960027691)
(0.8522301133 -0.02212000643 3.568016462e-05)
(1.102441041 -0.004139316478 -2.961782662)
(1.138810726 -0.006971510337 2.02624564e-05)
(1.442357816 0.1332703648 -2.883539271)
(1.692827178 0.6280966235 -2.842785783)
(1.353254301 0.07211819882 4.124929303e-05)
(1.62483111 0.4336657843 -2.852400969)
(-0.3801139505 0.05349060258 -8.447781014e-05)
(-0.2515998469 0.04293949947 -6.788913602e-05)
(0.1392556132 0.04946104869 -7.864222574e-05)
(0.5187170825 0.0483550884 -7.611082612e-05)
(0.4214145637 0.04309456873 -6.824954751e-05)
(0.3867667695 0.04168807966 -6.640324036e-05)
(0.3938308488 0.04253437748 -6.790997255e-05)
(0.5675203342 0.0397808719 -6.450670927e-05)
(0.7762319752 0.03203539965 -5.01637655e-05)
(1.491443988 0.07337447132 0.0001254181818)
(1.721932984 0.2219819446 -0.0005209698174)
(1.44904436 1.41398379 -0.8796285834)
(1.911239232 0.3660897255 -0.000582572071)
(1.453262646 1.168821938 -0.8707727933)
(-0.05922482423 0.1021528062 -0.0001626865844)
(-0.0006951113626 0.05272634388 -8.393881124e-05)
(-9.167289503e-05 1.377813193e-05 -2.214452007e-08)
(5.864763475e-06 -1.295762303e-06 2.057888708e-09)
(0.001342842766 0.0001295149053 -2.079601406e-07)
(0.009053753347 0.0009520004734 -1.526262958e-06)
(0.006891285246 0.0006569733938 -1.04733272e-06)
(0.007398441348 0.0006149261832 -9.918855683e-07)
(0.01379588384 0.0009258860171 -1.486541454e-06)
(0.1152927743 0.003314350451 -5.353310002e-06)
(0.6012116499 0.0382249268 -6.117368663e-05)
(2.504128284 0.3031984967 -0.0004890415558)
(2.267627086 0.4215137186 -0.0006715482443)
(1.308790674 1.664576839 -1.026117872)
(1.149492747 1.822573698 -1.108835571)
(2.339954088 0.4995272027 -0.0007908852187)
(0.05415024794 0.2055135411 -0.0003275559602)
(0.1455332541 0.1917193544 -0.0003050667896)
(0.1301409409 0.1225341875 -0.000195129373)
(1.007000343e-05 8.696514835e-06 -1.386026361e-08)
(-1.100612224e-12 -1.798540181e-11 2.86726978e-14)
(2.555974423e-12 -2.070302783e-11 3.299630829e-14)
(8.374759074e-12 -2.620561428e-11 4.169150187e-14)
(1.530716392e-11 -3.263884219e-11 5.19701943e-14)
(1.760155884e-11 -3.904499085e-11 6.220656369e-14)
(5.364668499e-11 -4.876074284e-11 7.76862418e-14)
(3.162092462e-07 -2.216644594e-07 3.533522155e-10)
(0.5947119173 0.1406165048 -0.0002248423157)
(1.878914105 0.5142250861 -0.0008164893325)
(1.883927319 1.376995205 -0.002190549083)
(0.1382371054 0.3247844647 -0.0005176831112)
(0.2227828319 0.2571991511 -0.0004093049881)
(0.1939573056 0.1756608347 -0.0002791927871)
(0.009048084048 0.007865813157 -1.255349494e-05)
(-9.586884439e-13 -1.342976927e-11 2.14219307e-14)
(1.387111969e-12 -1.414288329e-11 2.25375861e-14)
(5.012253391e-12 -1.577471533e-11 2.512024602e-14)
(9.908306318e-12 -1.832386236e-11 2.917853858e-14)
(1.753760946e-11 -2.236817259e-11 3.562685512e-14)
(3.099670164e-11 -2.977339857e-11 4.746063287e-14)
(5.683201042e-11 -4.265185078e-11 6.786765592e-14)
(4.127408908e-07 -1.561601154e-07 2.493826003e-10)
(0.9698412764 0.3439862072 -0.000547839827)
(1.888667319 1.655652209 -0.002631561642)
(0.1566078535 0.3533312705 -0.0005624049095)
(0.195825122 0.2200301505 -0.0003510010336)
(0.1143816599 0.1059292977 -0.0001686077871)
(-2.62996169e-10 -1.175532816e-10 1.87073814e-13)
(-1.374201433e-12 -5.481435883e-12 8.73466597e-15)
(7.743650282e-13 -5.823132812e-12 9.261213136e-15)
(3.103628663e-12 -6.835569167e-12 1.087825341e-14)
(6.609817816e-12 -8.681461965e-12 1.383563637e-14)
(1.276421455e-11 -1.170142768e-11 1.865109681e-14)
(2.450602958e-11 -1.638524159e-11 2.605251162e-14)
(4.848853662e-11 -2.284865529e-11 3.645847539e-14)
(9.410130511e-11 -3.784045721e-11 6.005149168e-14)
(0.5199670703 -0.2188458212 0.0003477807884)
(1.415127208 1.210284418 -0.001923794924)
(0.06970292035 0.1901462929 -0.0003025158875)
(0.003526633368 0.003944167967 -6.282785145e-06)
(-2.145539945e-11 -3.457341317e-11 5.508098008e-14)
(-3.40036539e-12 -4.045148805e-13 6.465632149e-16)
(-1.04363821e-12 -1.279095316e-13 2.038713906e-16)
(4.226559382e-13 -3.013915498e-13 4.798190744e-16)
(1.947988467e-12 -1.154148746e-12 1.837790342e-15)
(4.445160925e-12 -2.586296055e-12 4.121263023e-15)
(9.732881079e-12 -4.849670568e-12 7.72254483e-15)
(2.204530854e-11 -8.454831591e-12 1.346868412e-14)
(5.124961164e-11 -1.80733896e-11 2.887106198e-14)
(0.001103012359 -0.0003714695473 5.900405042e-07)
(0.4254474089 -0.2979277588 0.0004743864459)
(-0.1310457357 0.5542362474 -0.0008823477634)
(1.595084575e-06 3.926367624e-05 -6.248510721e-08)
(-1.754652072e-11 4.474108419e-12 -7.120530725e-15)
(-6.949762749e-12 2.209663919e-12 -3.532157423e-15)
(-2.780831147e-12 -9.634772122e-13 1.535824249e-15)
(-6.447026784e-13 1.87967121e-12 -2.992013352e-15)
(3.037320148e-13 2.300877001e-12 -3.669321263e-15)
(1.620594075e-12 4.775956986e-13 -7.605810117e-16)
(3.578310894e-12 -1.981717764e-12 3.15909564e-15)
(1.891845932e-10 1.791901984e-10 -2.852403673e-13)
(1.89626918e-08 1.090365012e-08 -1.740159769e-11)
(0.008341673649 -0.00189103355 2.992853438e-06)
(0.648118499 -0.2132542576 0.000339542373)
(-0.8383573104 1.22828594 -0.001957941101)
(-1.05782521 1.764952747 -0.002811224066)
(0.0407075203 0.4280630585 -0.000682697684)
(-0.1331835418 -0.009205686243 1.459053716e-05)
(-0.08643490221 -0.007479514214 1.17580863e-05)
(-0.04794023092 -0.00514930291 8.093790749e-06)
(-0.008263430975 -0.0007733217364 1.234333522e-06)
(-0.01950980521 -0.01454428634 2.31557724e-05)
(-0.0008488088271 -0.001077194715 1.716910095e-06)
(-0.002023722779 -0.0004271462113 6.795017379e-07)