/*--------------------------------*- C++ -*----------------------------------*\
  =========                 |
  \\      /  F ield         | OpenFOAM: The Open Source CFD Toolbox
   \\    /   O peration     | Website:  https://openfoam.org
    \\  /    A nd           | Version:  8
     \\/     M anipulation  |
\*---------------------------------------------------------------------------*/
FoamFile
{
    version     2.0;
    format      ascii;
    class       volScalarField;
    location    "1.8";
    object      alphat;
}
// * * * * * * * * * * * * * * * * * * * * * * * * * * * * * * * * * * * * * //

dimensions      [1 -1 -1 0 0 0 0];

internalField   nonuniform List<scalar> 
67410
(
0.0001030827248
0.0001250513586
0.0001349366976
0.0001426020762
0.0001501939532
0.0001595799068
0.0001723938455
0.00018889424
0.0002074156887
0.0002252620928
0.0002402034931
0.0002509911638
0.0002568298714
0.000256700524
0.0002490499628
0.0002332305233
0.0002164632789
0.0002115889842
0.0002132176696
0.0002186581351
0.0002256649076
0.0002332441729
0.0002423877082
0.0002462029471
0.0002182455834
0.0002133255859
0.0001038316634
0.0001290832543
0.0001412560761
0.0001510807586
0.0001610558668
0.0001736595108
0.000190785692
0.0002120585089
0.0002347627809
0.0002558298615
0.0002734881622
0.0002869306277
0.0002951394841
0.0002964593078
0.0002885579761
0.0002696036678
0.0002452270206
0.0002360175105
0.0002426576053
0.0002568352354
0.0002725622039
0.0002866588448
0.0002969525764
0.0002993980187
0.000278412424
0.0002670010347
0.0001005482944
0.0001274452564
0.0001412647113
0.0001528316837
0.000164996678
0.0001807794348
0.0002017874294
0.0002263634291
0.0002509519491
0.0002730035985
0.0002918822123
0.0003071861128
0.0003170283117
0.0003188348239
0.0003092864853
0.0002857820376
0.0002565078881
0.0002483919348
0.0002628830369
0.000283116803
0.0003017882476
0.0003171792306
0.0003277525339
0.000330856022
0.0003144894651
0.000299305433
0.0001003265943
0.0001244131703
0.0001390721909
0.0001520425771
0.0001657939402
0.0001836536841
0.0002068556626
0.0002328682827
0.0002579668392
0.000280315143
0.0002997150438
0.0003150788923
0.000324333112
0.0003244558059
0.0003119939044
0.0002858527546
0.000259911944
0.0002600769334
0.0002798325735
0.0003015410014
0.0003212289059
0.0003384458672
0.0003503532716
0.000354529989
0.0003403518468
0.0003221464222
0.0001158678967
0.0001237343322
0.0001363492261
0.0001501097522
0.0001643519578
0.0001821554231
0.0002048462996
0.0002301432802
0.0002545708532
0.0002763603781
0.0002949569184
0.0003089489105
0.0003157379825
0.0003120427574
0.0002956386315
0.0002720191279
0.0002590661395
0.000269079339
0.0002898229447
0.0003111509657
0.000332107162
0.0003502452845
0.0003630371898
0.000368572698
0.0003549696451
0.0003357898081
0.0001348650032
0.0001292525626
0.000134756774
0.0001479487688
0.0001612755586
0.0001763060858
0.0001948735365
0.0002163903412
0.0002383305612
0.0002583765416
0.0002750849376
0.0002863118003
0.0002891142885
0.0002815436425
0.0002667776684
0.0002551502172
0.0002572707131
0.0002720028736
0.0002911466172
0.0003115488808
0.0003325433891
0.0003510790642
0.0003648855921
0.0003725214214
0.0003589914725
0.0003400185623
0.000146772721
0.0001392902505
0.0001363113059
0.0001469021172
0.0001586620909
0.0001698324223
0.0001819957659
0.0001960409133
0.000211659839
0.0002271948792
0.0002402901502
0.0002484549127
0.0002500071255
0.0002465435493
0.0002433123152
0.0002460515995
0.0002557707146
0.0002696465844
0.0002857327092
0.0003039555502
0.0003234018519
0.0003414912016
0.0003560197865
0.000365420515
0.0003537208046
0.0003370230575
0.0001536618934
0.0001497066915
0.0001422102527
0.0001488961516
0.0001590852967
0.0001671266408
0.0001754931304
0.000183327738
0.0001915068506
0.0002002316232
0.0002088869565
0.0002166216904
0.000223360083
0.0002298336121
0.000237348044
0.0002462668015
0.0002561201003
0.000266679122
0.0002788906637
0.0002932871817
0.0003091944855
0.0003251678647
0.0003393663343
0.0003463523302
0.0003414471694
0.0003309166582
0.0001582242778
0.000159153194
0.0001530143608
0.0001584415973
0.0001663069998
0.0001671356806
0.0001752137077
0.0001826493902
0.0001904375731
0.000198895826
0.0002069001631
0.0002144082597
0.0002240408503
0.0002335843694
0.0002428852926
0.0002516856853
0.00025993407
0.0002675172764
0.0002762339398
0.0002862027885
0.0002978747175
0.0003116671196
0.0003296511167
0.0003299655016
0.0003273706802
0.0003273208476
0.0001613262667
0.0001682975663
0.0001701716823
0.0001821246765
0.000187879531
0.0001684543248
0.0001761484349
0.000185948322
0.0001987644648
0.0002128261328
0.0002202494825
0.000221688927
0.0002318930634
0.0002413646548
0.0002502816217
0.0002586574088
0.0002655965544
0.0002714896262
0.0002775905281
0.0002844709243
0.0002929080816
0.0003042707026
0.000321424467
0.0003178699569
0.0003148580054
0.0003237638297
0.0001635350267
0.0001786961587
0.0001944044826
0.0002185416586
0.0002252790473
0.0001738039479
0.0001790894386
0.0001962751168
0.0002234328802
0.0002501335877
0.0002514275004
0.0002287796703
0.000238470442
0.0002475671917
0.0002560845497
0.0002633932417
0.0002695712183
0.0002756485583
0.0002798528584
0.0002848901887
0.0002908347787
0.0002971466671
0.0003036239246
0.0003075560231
0.0003042917084
0.0002976126421
0.0001653742957
0.0001906142147
0.0002209939686
0.0002576676137
0.0002701375322
0.0001866257337
0.0001879333494
0.0002237933241
0.0002760651181
0.0003197900178
0.0003105834754
0.0002357452925
0.0002429404096
0.000251688626
0.0002598247862
0.000266251972
0.0002715180103
0.0002762787201
0.0002808267908
0.0002851032772
0.000289922073
0.0002947238977
0.0002991611361
0.0003017036076
0.0002979477028
0.0002883749274
0.0001663516138
0.0001986165336
0.0002373436918
0.0002838195523
0.0003036169124
0.0002031548837
0.0002072421649
0.0002711820107
0.0003490877057
0.0004106395599
0.0003919154318
0.0002446580753
0.0002454977443
0.0002539442374
0.0002619448389
0.0002680009402
0.0002728544198
0.0002771041489
0.0002810743278
0.0002849333424
0.0002888992585
0.0002927031791
0.0002961665382
0.0002978897243
0.0002942214728
0.0002845131572
0.0001650438815
0.0001935240381
0.0002242996838
0.0002664538644
0.0002868114752
0.0002076930979
0.0002279558263
0.0003110617393
0.0004054153179
0.0004759185788
0.0004392487969
0.0002533771942
0.0002465832119
0.0002548424819
0.0002627441101
0.0002687101273
0.0002734352258
0.0002774621436
0.0002811366235
0.0002845957735
0.0002879161633
0.0002909020906
0.0002935599144
0.0002946204564
0.0002908994669
0.0002807484532
0.0001643928433
0.0001863000899
0.0001967612109
0.0002036450973
0.0002067341783
0.0001985073114
0.0001726243307
0.0001863785135
0.0002186712177
0.0002548191976
0.0002643110653
0.0002415317579
0.0002471635404
0.0002554578513
0.0002626475168
0.0002684190933
0.0002732139014
0.0002772800174
0.0002809182725
0.0002842418464
0.0002871971926
0.0002895731595
0.0002915118418
0.0002916052206
0.0002871504384
0.0002750590429
0.0001679697195
0.0001960011418
0.0002134086124
0.000227536701
0.0002354308092
0.0002214546738
0.0001772860354
0.000176413773
0.0001925513374
0.0002108656368
0.0002226028074
0.0002335961019
0.000244783513
0.0002544975147
0.0002611340511
0.0002666823633
0.0002718906589
0.0002763410579
0.00028037387
0.0002840510027
0.0002870242503
0.0002890019479
0.0002898597313
0.0002881844493
0.000282258505
0.0002661865367
0.000175281173
0.0002116057267
0.00023585696
0.0002550486356
0.0002645607045
0.0002486372282
0.0001913193212
0.0001691291342
0.0001815509947
0.0001986801872
0.0002150214577
0.0002299091381
0.0002442423692
0.0002556769662
0.0002588517632
0.0002634608533
0.0002687991116
0.0002739501812
0.0002791946464
0.0002843882152
0.0002881914752
0.0002908525559
0.0002873064984
0.0002817494726
0.0002721268612
0.0002537205694
0.000187957466
0.0002330352095
0.0002618481925
0.0002832039755
0.0002927638509
0.0002752914356
0.0002141447708
0.0001686311095
0.0001707620227
0.0001859514119
0.0002016741644
0.0002162089594
0.0002291206374
0.0002404931041
0.0002507560398
0.0002600652537
0.0002624932819
0.0002697038917
0.0002786501013
0.000288473469
0.0002966810681
0.000305655459
0.0002807521869
0.000267048689
0.0002534263663
0.0002434062853
0.0002039531191
0.0002556862776
0.0002868740504
0.0003102614226
0.0003200333268
0.0003013110305
0.0002417962568
0.0001784271039
0.0001630713953
0.0001760955806
0.0001906343837
0.0002038470456
0.0002150733788
0.000224707239
0.0002335413548
0.00024164342
0.0002504182673
0.0002645332118
0.0002781980592
0.0003015243812
0.0003276268889
0.0003458467375
0.0002786169208
0.0002509830846
0.0002325442111
0.0002293416523
0.0002191836776
0.0002748881474
0.0003083583781
0.0003360324397
0.00034716392
0.0003283181916
0.0002689843011
0.0001980102451
0.0001612051742
0.0001714535058
0.0001844960711
0.0001957636675
0.0002042913892
0.0002111528186
0.0002200743494
0.0002304120409
0.0002444091286
0.0002656974864
0.0002976571436
0.0003394462271
0.0003745152542
0.0003902977347
0.0003195433902
0.0002667893042
0.000233404346
0.000217515731
0.0002305233345
0.0002865568147
0.0003234098424
0.0003565373809
0.0003698211452
0.000351487889
0.0002889284256
0.0002193042766
0.0001621787348
0.0001682410067
0.0001797839401
0.0001903910806
0.0002004891684
0.0002105968305
0.0002216596236
0.0002355214172
0.000255410326
0.0002850129578
0.0003263261202
0.0003720556916
0.0004053452241
0.0004173376583
0.0003631989777
0.0002995611571
0.0002561282367
0.0002373626667
0.0002396971894
0.0002876785875
0.0003254571353
0.0003640582335
0.0003800915219
0.0003609882163
0.0002925397383
0.0002242259357
0.0001651629739
0.000170853444
0.0001837706367
0.0001956710821
0.0002070817902
0.0002186555185
0.0002310375539
0.0002456817714
0.0002654190616
0.0002938671197
0.0003334660462
0.0003775707918
0.000411194604
0.0004234154454
0.0003730998142
0.0003103151279
0.0002711429233
0.000258609834
0.000254171777
0.0002851427594
0.0003045916399
0.0003481321453
0.000370453319
0.0003470274324
0.0002690642732
0.0002001243861
0.000164674414
0.0001735341691
0.0001880725476
0.0002016449918
0.000214516078
0.0002273205531
0.0002407632779
0.0002561647877
0.0002762830456
0.0003050347736
0.0003451100665
0.0003900120104
0.0004251862475
0.0004377205945
0.0003913772468
0.0003270512589
0.0002864500346
0.000280029849
0.0002791914219
0.0003161209067
0.0002790268079
0.000277864798
0.0003127979822
0.000304974142
0.0002311107522
0.0001686354953
0.000161799813
0.0001762768266
0.0001924263116
0.0002075165643
0.0002218902845
0.0002365537937
0.0002523041937
0.000269893208
0.0002912677066
0.0003206232894
0.000359881311
0.0004038350166
0.0004395545736
0.0004492463273
0.0004117072907
0.0003482343893
0.0002994789805
0.0002868167424
0.0003046505244
0.0003555763805
0.0003166901097
0.0002690563942
0.000266743617
0.0002654509085
0.0002244866371
0.0001623860175
0.0001620948694
0.0001790842107
0.0001975892006
0.0002146160885
0.0002306416569
0.000247671031
0.0002667379467
0.0002867435358
0.0003056868522
0.0003256756752
0.0003514221828
0.0003853028139
0.0004191334527
0.0004377927122
0.0003933180609
0.0003330467361
0.0002934199502
0.0003090441439
0.0003549807549
0.0003278582487
0.000289167086
0.0002639537118
0.000237058215
0.0002045664111
0.0001636551498
0.0001634657872
0.0001829907931
0.0002046303475
0.0002236912481
0.0002406351271
0.0002597140137
0.0002832859416
0.0003066938405
0.0003272247509
0.0003469483352
0.000374006972
0.0004172071594
0.0004582518841
0.0004719322667
0.0004370886033
0.000377859782
0.0003242615213
0.0002452119483
0.0002633358233
0.000227103256
0.0002391807829
0.000305451953
0.0002338598945
0.0001881222179
0.0001605505906
0.0001654068642
0.0001867775196
0.0002117401974
0.000232747779
0.0002488537981
0.0002674070744
0.0002936950353
0.0003218302911
0.0003483026301
0.0003754412633
0.0004103477651
0.0004610751437
0.0005040695099
0.0005227353454
0.0004869257134
0.0004080913202
0.0003372580634
0.0002192305969
0.0002052486735
0.0002385251103
0.0003587255013
0.0004574569734
0.0003568534825
0.0002498449361
0.0001743192499
0.000164966435
0.0001832205753
0.0002092990825
0.0002324528125
0.0002469649531
0.0002620186674
0.0002900836031
0.0003265960185
0.0003647157034
0.0004048236034
0.0004509740006
0.0005023760057
0.0005452316451
0.0005760187946
0.0005470401114
0.0004564776441
0.0003610053703
0.0001868219998
0.0002408480993
0.0003803419308
0.0005159595275
0.0006031515146
0.0005313034599
0.0003731929608
0.0002262925922
0.0001653382623
0.0001680962691
0.0001850411344
0.0002107495796
0.0002421459563
0.0002766927386
0.0003115078881
0.0003462668912
0.0003806173152
0.0004143622139
0.0004450937002
0.0004841738374
0.0005302018668
0.0005737515781
0.0005265774264
0.0004428182015
0.0003619130479
0.0002964382168
0.0002489134188
0.0004438904825
0.000574367012
0.0006847961801
0.0007317728201
0.000664185417
0.0005146185913
0.0003383547359
0.0001852024769
0.000165351304
0.0001724051137
0.0001867593665
0.0002093340679
0.0002408915877
0.0002790290555
0.00031737223
0.0003534383471
0.0003866133949
0.0004155482545
0.0004448155607
0.0004799129012
0.0005210227121
0.0004546751735
0.0003793914525
0.0003094620927
0.0002607741095
0.0001016940487
0.0001276467799
0.000139824263
0.0001487250534
0.0001558710708
0.000162615984
0.0001707181363
0.000181592448
0.0001954948984
0.0002113648809
0.0002274550549
0.0002417375512
0.0002519605132
0.0002559402531
0.0002524127584
0.0002426281473
0.0002317400373
0.00022550379
0.0002221029033
0.0002197880492
0.0002171979674
0.0002138401862
0.0002152874773
0.0002153281258
0.000194034335
0.0001949714626
0.0001048122795
0.0002186065101
0.000267419193
0.0003051108851
0.0003292492186
0.0003404328248
0.0003472578372
0.0003621880944
0.0003975007048
0.000461029858
0.0005495283087
0.0006455764974
0.0007263705803
0.000767973684
0.0007537746256
0.0006867040939
0.0005916036016
0.0005174734344
0.0004812932453
0.0004650662932
0.000467202212
0.0004807492156
0.0005005010313
0.0005079044342
0.0004912628847
0.0004649637978
0.0001016250945
0.0002261748705
0.0002898508436
0.0003421441256
0.0003764917242
0.0003934517377
0.0004070084314
0.0004373176064
0.0005019542468
0.0006031899342
0.0007140974382
0.0008062939179
0.0008765407359
0.0009084112767
0.0008847631032
0.0007987761397
0.0006480277383
0.0005374356134
0.0005117228673
0.0005477119183
0.0006276586074
0.0007164586574
0.0007860070579
0.0008125109924
0.0008036941061
0.0007384295019
9.571143664e-05
0.0002082679421
0.0002793570648
0.0003393468107
0.0003807419969
0.0004042872307
0.0004262306323
0.0004694154674
0.000549125949
0.0006524835364
0.0007473835016
0.000839641832
0.000907076012
0.0009288798115
0.0008895615371
0.0007805124204
0.0006196738007
0.0005233302902
0.0005439826962
0.000653443527
0.0007968540098
0.0009048103494
0.0009829670168
0.001020627962
0.001014295592
0.0009564071493
0.0001053275996
0.0001835895772
0.0002575893655
0.0003200436139
0.0003667690518
0.0003980666172
0.000427200589
0.0004735510341
0.0005486654477
0.0006378155364
0.0007205531983
0.0008031258176
0.0008597089197
0.0008705531556
0.0008203773782
0.0007050491614
0.0005814080028
0.000543498938
0.0006218644794
0.0007742679653
0.000914661759
0.001036084318
0.001122640581
0.001164590506
0.001155353385
0.001091304887
0.0001220053935
0.0001772527532
0.0002355005028
0.0002957640076
0.000347507394
0.0003885131509
0.000423300733
0.0004630316106
0.0005181251758
0.0005869533999
0.0006516400686
0.0007116584343
0.0007517824866
0.0007520535014
0.0007001423973
0.0006205788626
0.0005709909459
0.0005999698686
0.0007116418025
0.0008603627748
0.0009921949029
0.001110782207
0.001197918399
0.001241876434
0.001231520401
0.001165991739
0.000134034297
0.0001873649826
0.0002199273675
0.0002727591169
0.0003289285099
0.0003813582543
0.0004228935614
0.0004545859387
0.0004827069646
0.000515260941
0.0005532797303
0.0005893106414
0.0006106225333
0.0006103076835
0.0005939881895
0.0005827183994
0.000603357552
0.0006709215871
0.0007821939482
0.000907495111
0.001026297389
0.001136542586
0.001222281707
0.001265939633
0.001257051122
0.001196766808
0.0001413066395
0.0002022671337
0.000214151619
0.000254672935
0.0003122381176
0.0003745275969
0.0004236418457
0.0004550548069
0.0004683620866
0.0004740344859
0.0004823010331
0.0004974589182
0.0005175531521
0.0005417108952
0.0005724661022
0.0006151313344
0.0006719450057
0.0007420623103
0.0008318022285
0.0009276039576
0.0010290568
0.001130278106
0.001216609315
0.001261127826
0.001249525629
0.001200383079
0.0001464583481
0.0002207182186
0.0002194917792
0.0002472760302
0.0003016887602
0.0003652961608
0.0004169225865
0.0004526484734
0.0004666801216
0.0004712309736
0.0004779197755
0.0004951361134
0.000525439987
0.0005710081452
0.0006297672649
0.0006937283264
0.0007488688876
0.0008004464109
0.0008583429035
0.0009279580918
0.001013158915
0.001106973949
0.001194092773
0.001241547772
0.001224861985
0.00118337439
0.0001504571769
0.0002430956787
0.0002392110386
0.0002656275757
0.0003138916356
0.0003589620843
0.0004018644779
0.0004398845723
0.0004593885828
0.0004764023844
0.0004969175465
0.0005278444196
0.0005746589275
0.0006374734629
0.000702999522
0.000751406149
0.0007913196276
0.0008321521075
0.0008672477236
0.000914920552
0.0009843495463
0.00107064283
0.00115340603
0.001199648536
0.001179156585
0.001137505636
0.0001534701299
0.0002690795428
0.0002813528714
0.0003380919337
0.0003821191627
0.0003710626089
0.0003855720686
0.0004244227631
0.0004595011732
0.0005083536501
0.0005415816503
0.0005604251826
0.0006125525502
0.0006844816736
0.0007379276558
0.0007724954359
0.0008060527425
0.000834389393
0.0008672312033
0.0008932479969
0.0009431803048
0.001003673471
0.001067938029
0.001101493398
0.001101876151
0.001076444381
0.0001554982552
0.0002971658033
0.0003503725982
0.0004639712568
0.0005079844081
0.0004218627333
0.0003791569451
0.0004291853904
0.000531385048
0.000671311216
0.0006952518505
0.0006138909681
0.0006314805913
0.0007037897115
0.0007445771709
0.0007683545909
0.0007891688105
0.0008168016132
0.0008356386679
0.0008627237537
0.0009005860518
0.0009430101038
0.0009834067087
0.00101017381
0.001016232491
0.0009956470135
0.0001565827604
0.0003208655579
0.0004098337303
0.0005587660937
0.0006147614868
0.0004835805366
0.0003889796544
0.0004893672622
0.0007467440936
0.001044959529
0.001004038783
0.0007327719019
0.0006431467009
0.000707883054
0.0007419623531
0.0007614858905
0.0007766923947
0.0007934546974
0.0008128566908
0.0008345863601
0.000863715756
0.0008944177903
0.0009218341039
0.0009416271748
0.0009499869041
0.00093695802
0.0001570844345
0.0003298089
0.00040074392
0.0004905095954
0.0005403157459
0.0004527695443
0.0003731692412
0.0004985969765
0.0008355328067
0.001158573252
0.001102221944
0.0008198555974
0.000647605506
0.0007047148186
0.0007372352008
0.0007569271928
0.0007709625732
0.0007840503207
0.0007992225944
0.0008170647849
0.0008388084666
0.0008603208499
0.0008789918808
0.0008952038658
0.0009032938877
0.0008987781712
0.000158065269
0.0003325448192
0.0003752919052
0.0003719610607
0.000374953753
0.0003511900259
0.0003351307884
0.0004130843331
0.0005496509705
0.000759593768
0.0008275826591
0.0007173169627
0.0006721740635
0.0007088830573
0.0007372620642
0.0007565052135
0.0007715267512
0.000784837278
0.0007993603096
0.0008156084479
0.0008323391773
0.0008469695362
0.0008582031626
0.0008720093098
0.0008809344041
0.0008794845942
0.0001593750458
0.000329212591
0.000385369182
0.0003789176743
0.0003426972414
0.0003061710081
0.000289351828
0.0003299976245
0.0003687800771
0.0004211012192
0.0004821298195
0.0005463765633
0.000630502207
0.0007114187546
0.0007485992954
0.0007640097907
0.0007812354254
0.0007995809213
0.0008205686541
0.0008416900908
0.000855258777
0.0008628500178
0.0008641777546
0.0008722414495
0.0008842324446
0.0008772448817
0.0001611499808
0.0003223340026
0.0004065876095
0.0004387222104
0.0004103391397
0.000325571896
0.0002761670574
0.0003037467623
0.00034253547
0.0003771415581
0.000429455314
0.0005188981457
0.0006339300233
0.0007339663463
0.0007718969928
0.0007905003741
0.0008059680217
0.0008362943876
0.0008787606983
0.0009179731005
0.0009209824672
0.0009145303479
0.0008993088704
0.0008865986946
0.000873141682
0.0008780788162
0.0001645183046
0.0003188303562
0.0004393197135
0.0005114988096
0.0004893937152
0.0003766564935
0.0002733555863
0.0002725793056
0.0003111345245
0.0003485745059
0.0004002862875
0.0004757204991
0.0005655064698
0.0006605959818
0.0007449207769
0.0008044197414
0.0008470781732
0.0009102933702
0.0009964606963
0.001077398667
0.001031500959
0.0009952430055
0.0009610725698
0.0008987772941
0.0008386939628
0.0007453766986
0.0001702737805
0.0003246421072
0.0004928272971
0.0005935579303
0.000580353868
0.0004480642339
0.0002991097767
0.0002596013438
0.0003019978312
0.0003557710561
0.0004222467063
0.000498745219
0.0005557001307
0.0005915883195
0.000646872371
0.0007352960225
0.0008515730027
0.001001230503
0.00113981664
0.001178934361
0.001147163479
0.001091708903
0.001038316103
0.0008391215728
0.0007235280963
0.0006472110828
0.0001776174967
0.000344707303
0.0005574056402
0.0006924257904
0.000694803657
0.0005572236979
0.0003628662551
0.0002643740743
0.0003018657311
0.0003751099754
0.0004668497985
0.0005556907852
0.0005905306711
0.0005902651495
0.0006186658203
0.0006894857096
0.0007961113488
0.0009568717208
0.001151356086
0.001283746031
0.001287218262
0.001230454745
0.00114857433
0.0008255825875
0.0007190377526
0.0006828986258
0.0001849262817
0.000385713761
0.0006248766944
0.000778427714
0.0007960767309
0.0006644434471
0.0004369448423
0.0002841779536
0.000306647975
0.0003804025586
0.0004540038295
0.0005198620612
0.000576971515
0.0006277568814
0.0006868490336
0.0007669219335
0.0008824627402
0.00105863796
0.001269455627
0.001411940901
0.001418810809
0.001374342311
0.001311614968
0.0009422600565
0.0008405570373
0.0008055096134
0.0001939753892
0.000465788853
0.0006703328386
0.0008078196194
0.0008290041009
0.0007016451761
0.0004698198482
0.0003026242486
0.0003172549779
0.0003978817412
0.0004846381171
0.0005662367179
0.0006467719022
0.0007281561542
0.0008113301509
0.0009026625111
0.001020621169
0.001193256788
0.001381278575
0.001520986314
0.00152743767
0.001476218496
0.001443298192
0.001090214684
0.001075549014
0.001096713705
0.0002168556472
0.0006246085632
0.0007066785167
0.0007620009054
0.0007697541877
0.0006435167739
0.0004362117235
0.0003066589062
0.0003327002588
0.0004170469349
0.0005190653082
0.000623010838
0.0007259769142
0.0008265839015
0.0009227920712
0.001016193402
0.001124872102
0.001279792804
0.001446498384
0.001580591999
0.001590515875
0.001536691286
0.001519026176
0.001268278474
0.001332786284
0.001353813148
0.0002610427033
0.000807065996
0.00077201076
0.0006700127889
0.0006477438005
0.0005377993901
0.0003824406532
0.0003103460469
0.0003505040597
0.0004360592535
0.0005496476082
0.0006727628293
0.0007958106174
0.00091805188
0.001037940366
0.00114890154
0.001260632643
0.001374962644
0.00150260121
0.001625742165
0.001651649117
0.001598481368
0.001582488277
0.00144726307
0.001439862566
0.001513482406
0.0002917655339
0.0008614504348
0.0008452794129
0.0005822430926
0.0004981366955
0.0004415691277
0.0003460513422
0.0003195726976
0.0003652394667
0.0004597068084
0.0005966755195
0.0007462506999
0.0008884727315
0.001033684651
0.001186782637
0.001312296064
0.00141839566
0.001523703941
0.001651289073
0.001786664323
0.001826759949
0.001737922661
0.00173505051
0.001476324943
0.001469835264
0.000275182717
0.0007563954264
0.0007317883253
0.0005263399024
0.0004040977963
0.0003519957835
0.0003322918803
0.000342258978
0.0003876842501
0.0004970492886
0.0006714851375
0.0008521343522
0.0009974162152
0.001132621613
0.001263901594
0.001391608428
0.001508358142
0.001624617275
0.001760004134
0.00189147785
0.001923873725
0.001856954219
0.001833088719
0.001619801223
0.001571322733
0.0001921416019
0.0005715756093
0.0005244408714
0.0003763186392
0.0003182668248
0.0002914383154
0.0003287149711
0.0003769318797
0.0004166631373
0.0005295005189
0.0007269079749
0.0009168053618
0.001039208452
0.001143848304
0.001268723509
0.001416126367
0.001557609659
0.001697683226
0.001854640758
0.001993462071
0.002042019939
0.002024721978
0.002009722188
0.001724793394
0.001556469202
0.0001518584959
0.0003976648716
0.0003781576074
0.0003225388165
0.0003941284538
0.0004310256279
0.0003351125057
0.0003973426523
0.0004381835859
0.0005130062112
0.0006620102762
0.0008171622356
0.0009209727859
0.001011501622
0.001162949148
0.001375289335
0.001556318806
0.001727680288
0.001867579836
0.002016872226
0.002118315824
0.002152152524
0.002141730422
0.001711151462
0.001287756302
0.0001469746029
0.0003356094825
0.0003448474319
0.0006351360618
0.001057504988
0.0009800466667
0.0005366122299
0.0004055810412
0.0004636328182
0.0004742860942
0.0005085187729
0.00057276993
0.000661556393
0.0007961636132
0.001008854127
0.001260986852
0.001492018543
0.001716548314
0.001840002451
0.002016794213
0.00217399596
0.002266160826
0.002160826967
0.00166974293
0.001149680373
0.001106416649
0.0001567044449
0.0002815016824
0.0005238031132
0.00109362305
0.001337659409
0.001212903677
0.000775669382
0.0004299845062
0.0004955569894
0.000498563279
0.0004807593027
0.0004889295929
0.000545193969
0.0006600524503
0.0008479682888
0.001111580058
0.00140101407
0.001626552196
0.001801125778
0.001975415884
0.002116101927
0.002145970126
0.001974116905
0.001331462342
0.001000113642
0.001000438787
0.0001054339383
0.0001328532251
0.000146701007
0.0001569552375
0.0001647433744
0.0001710102247
0.0001772289689
0.0001850348147
0.0001956655275
0.0002093382663
0.0002250860376
0.0002410025425
0.0002545562742
0.0002632310389
0.0002654902308
0.0002615981445
0.0002539773261
0.0002461525617
0.0002390795452
0.000231936096
0.0002229617846
0.0002105427323
0.0002025299848
0.000197741951
0.0001845093082
0.0001878835025
0.0001112494338
0.0002774756531
0.0003554047111
0.0004194843187
0.000466001332
0.000492639691
0.0005069160027
0.0005230594819
0.000557658689
0.0006225693475
0.0007171571902
0.000825098825
0.0009213076989
0.0009833569823
0.0009989098402
0.000964113924
0.000887587837
0.0008005303706
0.0007312228816
0.0006778995563
0.000640351558
0.0006126797014
0.0005932788109
0.0005811315482
0.0005834318169
0.0005712455202
0.0001085807766
0.0002943594255
0.0003975137362
0.0004891682403
0.0005588768826
0.0006008213868
0.0006250928708
0.0006528670473
0.0007065767032
0.0007962313496
0.0009116605174
0.001029382513
0.001124944392
0.001180802998
0.001188320523
0.001133364186
0.001018880553
0.0008934440941
0.0008147885607
0.0007917890867
0.0008199294715
0.0008711734497
0.0009181506766
0.0009442836316
0.0009453135843
0.0008996521407
0.0001001602687
0.0002655145568
0.000380496906
0.0004858712185
0.0005694277143
0.0006234998526
0.0006582429219
0.0006953918372
0.0007564988059
0.0008473447372
0.0009559166974
0.0010589138
0.001143463379
0.001193232773
0.001193142636
0.001129689927
0.001000885348
0.0008732629659
0.00082547032
0.0008712875916
0.0009807709092
0.001097300406
0.001182832178
0.001227078625
0.001227547591
0.001173876724
0.0001044518325
0.0002199476288
0.0003441285535
0.000453827857
0.0005452567792
0.0006107400107
0.0006567511069
0.0006995865911
0.0007567237433
0.0008345495778
0.0009264713468
0.001014102788
0.001089506061
0.00113276841
0.001127929348
0.00105996912
0.0009440182645
0.0008562360378
0.0008664195466
0.000971281136
0.001118306621
0.001250828903
0.001349618884
0.00140022178
0.001394902948
0.00133370064
0.000118891813
0.0002027125411
0.000308561504
0.00041414763
0.0005103735973
0.0005890988842
0.0006486699104
0.0006950550016
0.0007402155008
0.0007950657603
0.0008619174968
0.0009325903845
0.0009925636275
0.001026758767
0.001017716099
0.0009622078547
0.0008934561972
0.0008727405943
0.0009337617769
0.001057942343
0.001201186445
0.001335779163
0.001435471885
0.001486042451
0.001476964456
0.00141192945
0.0001307512751
0.0002130634402
0.000283393112
0.0003769454633
0.0004762635529
0.0005697918687
0.000645089441
0.0006967658376
0.0007291183232
0.0007565800849
0.0007916131053
0.000834912164
0.0008755135845
0.0008995463443
0.0008994675655
0.000883959594
0.0008803290217
0.0009149822901
0.0009927000974
0.001104577336
0.001234600431
0.001360754129
0.001457637234
0.00150676764
0.001495248386
0.001430264632
0.000138063962
0.0002299573225
0.0002712186614
0.0003471300244
0.0004464115677
0.0005526310087
0.0006429905677
0.0007043469732
0.0007340498832
0.0007447808911
0.0007533208943
0.0007700846542
0.0007940119853
0.0008198008932
0.0008448179027
0.0008737794436
0.000913584839
0.0009646307143
0.001027931654
0.001116308972
0.001228679147
0.001344057226
0.001437961852
0.001487285446
0.001471907789
0.001409517758
0.0001431182555
0.0002516354641
0.000273420767
0.0003302698503
0.0004237371137
0.0005345070999
0.0006350227759
0.0007054993002
0.000741721762
0.0007567728088
0.0007654393817
0.0007799275629
0.0008025867969
0.0008358721595
0.000876746809
0.0009209989288
0.0009643636829
0.001003917294
0.001042627706
0.001105905551
0.001199508158
0.001303241084
0.001392229287
0.001444741813
0.001424871494
0.00136407017
0.000147311423
0.0002801236632
0.0002945261874
0.0003432261399
0.0004278376324
0.0005212496873
0.000621562628
0.0006945013842
0.000733398422
0.0007575333889
0.0007783356743
0.0008097705619
0.000845474533
0.0008859964429
0.0009262344549
0.000958510501
0.0009895450561
0.0009707702948
0.001033480901
0.001083598167
0.001156419005
0.001244233027
0.001322949758
0.001375099208
0.00135826071
0.001298781432
0.0001511840408
0.0003164865053
0.0003449141065
0.0004273041903
0.0005149422615
0.0005480129629
0.0006120804618
0.0006800841825
0.0007254195984
0.0007790982955
0.0008021638791
0.0008181465466
0.0008709621408
0.0009127905036
0.0009401233249
0.0009538418179
0.0009155627716
0.0008733511832
0.0009649018656
0.001049016182
0.001100971167
0.001168571091
0.001234140162
0.001271151064
0.001263856647
0.001229148225
0.0001548872955
0.000359433564
0.0004293413716
0.0005875985133
0.0006873581968
0.0006465650562
0.0006235398563
0.0006896046039
0.0008090518595
0.0009759487386
0.0009864380149
0.0008643827525
0.0008827678317
0.0009167013142
0.0009272026973
0.000928720294
0.0009350873723
0.0009496190618
0.0008692181526
0.0009879598535
0.001030930954
0.001080749753
0.001126511023
0.00115312255