/*--------------------------------*- C++ -*----------------------------------*\
  =========                 |
  \\      /  F ield         | OpenFOAM: The Open Source CFD Toolbox
   \\    /   O peration     | Website:  https://openfoam.org
    \\  /    A nd           | Version:  8
     \\/     M anipulation  |
\*---------------------------------------------------------------------------*/
FoamFile
{
    version     2.0;
    format      ascii;
    class       volScalarField;
    location    "1.8";
    object      epsilon;
}
// * * * * * * * * * * * * * * * * * * * * * * * * * * * * * * * * * * * * * //

dimensions      [0 2 -3 0 0 0 0];

internalField   nonuniform List<scalar> 
67410
(
0.04726947019
0.06360100153
0.07991262628
0.0943063594
0.1101353956
0.131999195
0.1662828303
0.2186626769
0.2895880955
0.3712586265
0.4505799436
0.5145175295
0.5516891749
0.5512028065
0.5035961126
0.4136007805
0.3304619942
0.3085363095
0.3155275404
0.3400495038
0.373515029
0.4121740818
0.4626803696
0.4851242789
0.3373104482
0.3151918597
0.04373298072
0.06136103356
0.08040899451
0.09836018289
0.11909372
0.1491762329
0.1976750123
0.2714459054
0.3685593379
0.4774221263
0.5838085773
0.6747356936
0.734841647
0.7452274335
0.6875908139
0.5608882989
0.4216772316
0.3754428591
0.4075820385
0.4830878036
0.5774919346
0.67211758
0.7475365903
0.7663144954
0.6154363203
0.5427983539
0.03972425826
0.05906711135
0.08043261246
0.1018190268
0.1280327721
0.1682581729
0.2339075971
0.3303516527
0.4505573172
0.5806494325
0.7101927538
0.8284706322
0.9113818492
0.9278250282
0.8476859653
0.6689516345
0.4828188344
0.4373044731
0.518042328
0.6474289385
0.7846448292
0.9113651633
1.005884959
1.034733413
0.8880486509
0.7653730365
0.03942360075
0.05495343809
0.07675107939
0.100251576
0.12989541
0.176428661
0.252082186
0.3599124103
0.4898018384
0.6290315507
0.7694867387
0.8947099297
0.976763101
0.9788811032
0.8713138936
0.6701543612
0.5022238706
0.5018130328
0.6252124854
0.7829186672
0.9470034617
1.107991986
1.229394064
1.273826355
1.126555253
0.9550112867
0.06065298964
0.05403235651
0.07232620068
0.09648064625
0.126560468
0.1722189411
0.2449621873
0.3476786473
0.4710618893
0.6032443563
0.7340359362
0.8443309405
0.9022267336
0.8719880307
0.742183104
0.5772448126
0.4968765312
0.5559706349
0.6951955447
0.8608458699
1.047237077
1.228835643
1.368697491
1.432082566
1.278937844
1.082275796
0.09574145327
0.06155051429
0.06980212142
0.09237682487
0.1196294304
0.1562546707
0.211036213
0.2891521782
0.386727085
0.4932774889
0.5959462067
0.6727217971
0.6935336901
0.64096844
0.5447831782
0.4753187835
0.4861937292
0.5745964281
0.7051816148
0.8645950936
1.051975307
1.238358127
1.390487954
1.479471177
1.32358793
1.124155074
0.12353638
0.07703236929
0.0722101073
0.09041388212
0.1139299275
0.1397383873
0.1719726262
0.2150145721
0.2708141265
0.335280727
0.3971223106
0.4394526592
0.4479508697
0.4292934108
0.4118869885
0.4252671119
0.4775327364
0.5598607786
0.6666099754
0.8029681248
0.9677582885
1.139947409
1.292050636
1.397327312
1.266517755
1.094689258
0.1418278178
0.09566524098
0.08193600959
0.09405044779
0.1147850167
0.1331907566
0.1542130935
0.1757899437
0.2003733317
0.2290508044
0.2601409044
0.2902033643
0.3180826477
0.3463921897
0.3813534716
0.4259944699
0.4793735192
0.5414085556
0.6195545744
0.7209755137
0.8452896093
0.9835487349
1.117743541
1.189068418
1.139025849
1.035481521
0.1548744458
0.1149402547
0.1019211655
0.1130179279
0.1309128852
0.1331918822
0.1534589856
0.1737655641
0.1967977176
0.2240548498
0.2522916454
0.2809293637
0.3205338327
0.3633264474
0.4085812183
0.454744877
0.5010531593
0.5462735398
0.6017168666
0.6695259786
0.7550432836
0.8645119028
1.021297323
1.027087155
1.003296908
1.001297542
0.1641732933
0.1358260235
0.1399021327
0.1712350139
0.1885214955
0.1362827594
0.1558176662
0.1830004627
0.2229354549
0.273416332
0.3038158319
0.3105373786
0.3555357705
0.4010142219
0.4472163138
0.4937624256
0.5346728242
0.5708917805
0.61061607
0.6573335484
0.7176325419
0.8042408024
0.9484340573
0.9176960479
0.8921812057
0.970240525
0.1709824
0.1623999797
0.208388528
0.296165291
0.3255638708
0.1495189723
0.1633825308
0.214010309
0.3144066341
0.4418829856
0.451546645
0.3413387832
0.3868350115
0.4329395519
0.4792644205
0.5215716816
0.55906008
0.5970449483
0.625764748
0.660403582
0.7027578435
0.7496100495
0.7997351274
0.831334124
0.8051903102
0.7533326851
0.1767709174
0.1970285274
0.3066543617
0.4870358501
0.5634067595
0.1850524613
0.1878233495
0.3148238336
0.5912861483
0.9251364418
0.8539507277
0.3734504231
0.4091675412
0.4551235292
0.5008181102
0.5390268059
0.5717231459
0.6023331174
0.6326623402
0.6621343033
0.6963589224
0.7316271195
0.7652559924
0.7849696448
0.755998593
0.685395817
0.1799487986
0.2232605673
0.381304997
0.6539152054
0.8039846833
0.2391026266
0.2504166259
0.5596292037
1.20127541
1.972501173
1.727534997
0.4175029027
0.4223468024
0.4676084565
0.5133319024
0.5498716742
0.5803674499
0.6079585908
0.6345365289
0.6611001692
0.6891479622
0.7168037323
0.7426280045
0.7557385149
0.7281450998
0.6583496305
0.1758192149
0.2069469019
0.3228352702
0.5432387612
0.6802614443
0.2555712917
0.3339266485
0.8512944005
1.898295787
3.100964034
2.452792276
0.4645315044
0.4280112833
0.4726434355
0.518130524
0.5543472418
0.5841872868
0.6104357226
0.6350569893
0.6588313341
0.6822056834
0.703721235
0.7232668301
0.7312244889
0.703878548
0.6327237273
0.1736750263
0.1843949324
0.2169919916
0.2403975768
0.2514972765
0.2229381725
0.1466304773
0.1839727152
0.2963512096
0.4706054203
0.5284737919
0.4022573279
0.4310899891
0.4761051364
0.5176095773
0.5526115378
0.5828262345
0.6092805576
0.6336023304
0.6563735838
0.677099603
0.6941193924
0.7082698169
0.7090582262
0.6770795497
0.5951995179
0.1850807549
0.2144716763
0.2766099452
0.3352255586
0.3715636987
0.3096995132
0.1589194682
0.1565019804
0.2033858628
0.2672303629
0.3147045186
0.3636658709
0.4185887669
0.4705333619
0.508676493
0.5419647838
0.5744198998
0.6031061879
0.6298519057
0.6548994768
0.6757208911
0.6898759253
0.6963053027
0.6844513527
0.6430398636
0.5395185829
0.2100171546
0.2695890745
0.3733270525
0.4723974004
0.5278064031
0.4386533955
0.1998062886
0.1379537722
0.17053579
0.2234914956
0.28337437
0.3464650868
0.4153868238
0.4768571027
0.4954505949
0.5224124085
0.5550293399
0.5874559118
0.6215439904
0.6566184755
0.6834033618
0.7025828258
0.6780764473
0.6398084271
0.5767686044
0.466221704
0.2586844103
0.3600537097
0.5112634794
0.6474625107
0.7160901047
0.5959747904
0.2803785618
0.1367608316
0.1419406072
0.1832643793
0.2338588374
0.2882699687
0.3431723386
0.3969373537
0.4498778494
0.5017677812
0.5166290361
0.559311849
0.6158651005
0.6832172588
0.7438396541
0.8138617682
0.6324756742
0.544932681
0.4657076629
0.4119821833
0.3305263517
0.4760555556
0.6731753842
0.85223259
0.9363252796
0.7820244072
0.4039423645
0.1621126437
0.1235766178
0.1555699362
0.1974289363
0.2415385508
0.2838550661
0.3238576905
0.3636477509
0.4027220841
0.4476600699
0.5262274355
0.6113347351
0.7782476433
1.00017182
1.179689186
0.6158605978
0.4509761003
0.3591410578
0.3447208475
0.4106369439
0.5924369927
0.8371316262
1.083967351
1.19654755
1.01268504
0.55668616
0.2219257567
0.1193925127
0.1436011139
0.1789915672
0.2139736425
0.2432660872
0.2684381944
0.3038075746
0.3483453732
0.4150220003
0.5321136169
0.7474440373
1.11061954
1.497548696
1.700011806
0.9274410896
0.5392246748
0.3616796653
0.2931906714
0.4782229473
0.6720956433
0.9670907591
1.296558911
1.448407588
1.244240337
0.6908097776
0.3022472751
0.121637263
0.1356944056
0.165573429
0.1966284559
0.2295788238
0.2660066798
0.3099620113
0.3713513861
0.4727841405
0.6562644606
0.9857001095
1.465768262
1.902687097
2.081262249
1.365744295
0.763948504
0.4775995988
0.380813141
0.5378767738
0.6805476284
0.9869376763
1.382362808
1.574608738
1.349873998
0.7182597544
0.3238281634
0.1285387563
0.1420932505
0.1768131709
0.213419548
0.2529410885
0.2976959418
0.3510072221
0.4216296127
0.5307992289
0.7195095275
1.051531735
1.530589477
1.984166217
2.171774435
1.479275698
0.8487724212
0.5669605902
0.4929120687
0.6415570241
0.6616684106
0.809335755
1.210100623
1.459180134
1.200285511
0.5593835884
0.2301637773
0.1273966223
0.1488548535
0.189483353
0.2335354089
0.2811476961
0.3344835299
0.397197348
0.4779051185
0.5986509302
0.8046654964
1.165733511
1.687383176
2.194391052
2.400722901
1.708877685
0.9940513201
0.6688606483
0.6265197648
0.8512071494
0.9006194102
0.6188249247
0.6138192467
0.8770805398
0.8132585256
0.3536809036
0.1370813163
0.1206938329
0.1559847905
0.202897313
0.2544740881
0.3110622028
0.3767884336
0.4569663552
0.5589605889
0.7019026791
0.9357091407
1.324819101
1.877186306
2.428514776
2.597673506
1.994319376
1.201131894
0.7645710086
0.6730860452
1.108441951
1.286528972
0.9064109113
0.5548616401
0.5430928476
0.5357274739
0.3235843506
0.122211541
0.1213136248
0.1634972071
0.219603169
0.281438996
0.3492653224
0.432359979
0.5400055789
0.6708803338
0.8126506037
0.9820223755
1.232918443
1.625742401
2.097059989
2.397745753
1.732095896
1.049339564
0.7184501645
1.159766714
1.283480175
1.010721437
0.6922250637
0.523622857
0.3800613931
0.2442785078
0.1250474998
0.1244000698
0.1743923369
0.2439283633
0.3187554443
0.39673807
0.4985261639
0.6470169879
0.821437279
0.9976915328
1.187921613
1.485651182
2.064779923
2.745467477
3.004767413
2.382111534
1.535762485
0.9696566028
0.5784645053
0.5225019578
0.33398629
0.3839395533
0.7996342396
0.3595916891
0.1884943499
0.1179093869
0.1289029943
0.185498626
0.2704361989
0.3594631635
0.439197695
0.5442134579
0.7208055316
0.9488031503
1.202670726
1.504975685
1.962405837
2.789932975
3.657572329
4.086221989
3.292995319
1.931030319
1.088458186
0.4125926912
0.2464143996
0.3791160138
1.293820886
2.716883723
1.280872728
0.4383188303
0.1502322029
0.1279294748
0.1752247963
0.2613982363
0.3585102822
0.4296336734
0.5116210746
0.6933190688
0.9898585491
1.379041756
1.885829774
2.609298398
3.616438141
4.636290324
5.480111473
4.676017296
2.702231579
1.331388973
0.2547948575
0.3895454621
1.54307851
3.903971961
6.278771123
4.275789202
1.471089966
0.3266936783
0.1287278833
0.1352782999
0.180155654
0.2658770234
0.4031812752
0.6019336785
0.8599248026
1.182143145
1.570748725
2.026336343
2.513492984
3.235137573
4.253705941
5.395759937
4.161267067
2.467648764
1.345048412
0.7394354989
0.5875573085
2.468213949
5.416683242
9.240734934
11.32482887
8.443393722
3.910227463
1.101275651
0.1807368369
0.1289165473
0.1459297755
0.1851578997
0.2602696116
0.3962932789
0.6164216586
0.9085945841
1.256722453
1.646675844
2.045980798
2.508598534
3.149714388
4.035593836
2.673269153
1.550361596
0.8401721735
0.5036159865
0.05498869147
0.07679185053
0.1009475099
0.1214920738
0.1398538365
0.1587537521
0.1835660747
0.2207638218
0.2753225106
0.347959717
0.4337867148
0.5210640613
0.5904532144
0.619353142
0.5944828092
0.5282228529
0.4603718414
0.4242798388
0.4053115617
0.3925341884
0.3783743407
0.3604169643
0.3673766175
0.3675825683
0.2687072431
0.2729176919
0.06020946886
0.07025435956
0.08788965147
0.1030667393
0.1176433841
0.1349716465
0.1605799248
0.1991576496
0.2522405255
0.3174949368
0.3902432715
0.4622714318
0.5189923896
0.5452432492
0.5320367213
0.4822654837
0.4158630295
0.3725585188
0.3682653234
0.3906049251
0.4258057213
0.4646741333
0.4921833014
0.4835853894
0.4162331701
0.3756277607
0.05490153893
0.06775344405
0.08713413322
0.1039208648
0.1202065443
0.1407226034
0.1723491162
0.2194455368
0.2818442153
0.3572518196
0.4442691189
0.53205778
0.5979387273
0.6242116593
0.5996254033
0.5302828312
0.4452155848
0.3921430752
0.405629877
0.4623101539
0.5339349612
0.605655509
0.652876242
0.6513716238
0.5857752197
0.5085305331
0.04585451487
0.06148681854
0.08252364424
0.100730359
0.1181585414
0.1402728594
0.174496787
0.2244316669
0.2894995139
0.3711427379
0.4683061886
0.5582499017
0.6241354824
0.6476603129
0.617176069
0.5394058344
0.450315414
0.4069991231
0.4425527141
0.5213996061
0.6157135865
0.7124567957
0.7726966471
0.7719957041
0.7072778337
0.6010921303
0.06099993681
0.05757415584
0.07733911414
0.09662147112
0.1146572626
0.1364704318
0.169146209
0.2159395143
0.2767364632
0.354081808
0.4450665749
0.5286371304
0.5878433275
0.6052558927
0.5726458507
0.5024842439
0.4326770387
0.4193305119
0.4727884436
0.5597405564
0.6689272154
0.7702969663
0.8342257395
0.8355583039
0.7735708588
0.6556499637
0.09485471179
0.06245252628
0.07307243663
0.09234969013
0.1104249337
0.1298734464
0.1563366838
0.1934353239
0.2420600055
0.302426788
0.3741891189
0.4420340806
0.4883781253
0.4997515994
0.4749233429
0.4290803206
0.3991176319
0.4172148054
0.4769071455
0.563780224
0.6719949954
0.7752278086
0.8396294621
0.8426096893
0.7897789887
0.6725672239
0.1258887623
0.07392543496
0.07230982563
0.08906420837
0.107099591
0.1239459542
0.1426991789
0.166994028
0.1997067999
0.2409243678
0.2874800039
0.3318591232
0.3633093312
0.3740239857
0.3666123982
0.3565311545
0.3642778454
0.3986420784
0.4560335875
0.5370841281
0.6370348538
0.7347792096
0.7999466326
0.8067423838
0.7651732435
0.6602756087
0.1475819749
0.08799175386
0.07731247915
0.08885252953
0.1066249515
0.1219311047
0.1359147255
0.1505246127
0.168862183
0.1919482093
0.2184741623
0.2449200674
0.2676352593
0.2842162347
0.2972659046
0.312316683
0.3360867171
0.3717339739
0.4214609855
0.4913872947
0.5780635551
0.6676518691
0.7380924264
0.7608558732
0.7180154587
0.6322422467
0.1643554479
0.1022864065
0.08925678729
0.09740418083
0.1137334116
0.124353922
0.1361103032
0.1482078988
0.1625619627
0.1794815376
0.1976229999
0.215348585
0.2362551734
0.2557150652
0.2741661777
0.2925760882
0.316028149
0.3465404697
0.3864728142
0.4413618516
0.5128742278
0.5933459017
0.6615513746
0.7054593323
0.6670690135
0.5938804191
0.1782180128
0.1168715335
0.1110503386
0.129688278
0.1443439066
0.1347210887
0.139604121
0.1532561552
0.1732627221
0.1969822644
0.2154730377
0.2221733649
0.2404723849
0.2562621824
0.271374042
0.2865487064
0.3057495941
0.3375200915
0.36155892
0.3982310159
0.453673563
0.5258759761
0.5851336378
0.6461925003
0.6125540802
0.542663531
0.1891719377
0.1319379144
0.1491424397
0.2148844921
0.2351172668
0.1681729787
0.1487580549
0.1685875517
0.2118131659
0.2669670097
0.2869332836
0.2489431922
0.2541331016
0.2629503053
0.2755999941
0.2870592254
0.3091136657
0.3905221811
0.3578611614
0.368023282
0.405073135
0.453511798
0.5107535667
0.5397022473
0.5418209521
0.5177791843
0.1968043346
0.1466723743
0.206300372
0.3767961222
0.4266075239
0.246817614
0.1693926708
0.2106860945
0.3394779901
0.5237905273
0.5212908257
0.3220259325
0.273700032
0.2695879953
0.2808285757
0.2885848975
0.299083552
0.3194590086
0.3369037532
0.3477122739
0.3733755563
0.405153869
0.4382946008
0.4652367227
0.4763608437
0.4600653232
0.2009845478
0.154823463
0.249954126
0.5238859802
0.6178181439
0.3477901122
0.2051568087
0.3181995868
0.7369770761
1.27707052
1.120312828
0.5072610908
0.3037347576
0.27367192
0.2813956543
0.2865152059
0.2939584741
0.305160743
0.3198205752
0.3350588397
0.3552410222
0.3776251711
0.3995656138
0.4202369497
0.4323538118
0.4216631429
0.2029398558
0.148624106
0.2097706829
0.433051467
0.5487561468
0.3477239314
0.2110759411
0.3730152567
1.08929603
1.805902617
1.485328783
0.7009381532
0.3278104477
0.275407439
0.280199514
0.2855191065
0.2928715806
0.3029643361
0.3157690864
0.3302938865
0.3468282864
0.363125799
0.3776630645
0.3941830493
0.4020121156
0.3950088545
0.2067603455
0.1454497226
0.163172835
0.2038551586
0.2548829072
0.2143616455
0.1496495621
0.2032463006
0.385173691
0.7116762539
0.8312668136
0.4911321185
0.297917399
0.274810226
0.2795859711
0.2851077872
0.2925971055
0.3034120797
0.3170699655
0.3324202071
0.3477262235
0.3603756725
0.3684355571
0.3818453933
0.3874847973
0.383928037
0.2119124766
0.1593812956
0.1799668318
0.2141380473
0.2445305808
0.2023012239
0.1398324496
0.1455284978
0.1839487337
0.2369605949
0.269032005
0.2534118562
0.2534970124
0.2670722128
0.2812890624
0.2864001706
0.2935217341
0.3073326369
0.3260282809
0.3472309069
0.3636635169
0.3733595448
0.3720247417
0.3815672336
0.3913197185
0.3955525248
0.2189680809
0.1800209196
0.2077521395
0.2572890036
0.2979339316
0.2333431705
0.1485033038
0.126552164
0.1452071289
0.1715590193
0.1966420953
0.2160656758
0.2402957297
0.2632261721
0.2821179384
0.2970608227
0.2992787322
0.3201416758
0.3550147889
0.395080322
0.4081961658
0.4100945966
0.3912709767
0.3904232447
0.3910188817
0.4391956652
0.2327818758
0.2090406554
0.2478383551
0.337080614
0.3963757111
0.2923888608
0.173380195
0.1181277976
0.1239826166
0.1465845355
0.1729686994
0.1988793325
0.2207977527
0.2417304112
0.2651475871
0.2843761333
0.3160317808
0.3552757605
0.4272421913
0.5229496969
0.491780627
0.4712417407
0.4302383137
0.4110248271
0.3970051416
0.4131139509
0.2578609329
0.2434997994
0.2992310123
0.4705813377
0.5404425971
0.4004040755
0.2168709411
0.125058676
0.1111498556
0.1310071025
0.155970954
0.1815691897
0.2050497501
0.2278599018
0.2508579524
0.2806641542
0.3234555529
0.4103172435
0.5431694524
0.5913250724
0.5890993366
0.5520621916
0.4906743796
0.4331861069
0.3810767549
0.356594083
0.2926121046
0.2821525208
0.3801788969
0.6434845121
0.7225323783
0.5568228971
0.2893915886
0.150829989
0.1069340387
0.1236490323
0.1481809126
0.1721630604
0.1907292863
0.2101805506
0.2338854659
0.2660121813
0.3225475569
0.4212681037
0.5423830375
0.6855677765
0.7300787784
0.6896681842
0.5777126223
0.4443377982
0.3541583396
0.3082283584
0.3302834046
0.3293945014
0.4694649308
0.7971179891
0.8883897397
0.713253505
0.3863820733
0.184172311
0.1085648153
0.1189686579
0.1380717038
0.1570206719
0.1762476894
0.1962109555
0.2217153849
0.260764764
0.3250842696
0.430322569
0.5878686911
0.7772185236
0.8448170763
0.8032791837
0.7028915626
0.4734669338
0.377851691
0.3231215389
0.3810048738
0.4046126484
0.5122145612
0.8433292105
0.944627891
0.7631062335
0.4200942098
0.1947051772
0.1127579354
0.1209183983
0.1403588217
0.1585617748
0.176643194
0.1971834125
0.2241982685
0.2642707148
0.3290803031
0.4346271483
0.600410961
0.8097569797
0.8957747487
0.8253473228
0.7316744173
0.4928351308
0.409962322
0.3497340186
0.5317184148
0.5526344308
0.5109231339
0.7199624711
0.8318979349
0.6507150186
0.337895068
0.1650607483
0.1131977836
0.1241812575
0.1454761262
0.1656973106
0.1857528351
0.2088371584
0.2396351239
0.2855193886
0.3583817524
0.4736623416
0.6526812905
0.8807279103
0.9889520067
0.8970241331
0.8080665943
0.5593246361
0.4583845545
0.3984196206
0.9300788072
0.7830972026
0.5887042961
0.4983348231
0.5668125772
0.447750153
0.2364299949
0.1253477472
0.1102928828
0.128531873
0.1528745275
0.1764930691
0.2000474713
0.2275224582
0.2641268025
0.3163600342
0.3927404343
0.5123860058
0.696893661
0.9415721521
1.095925835
0.9737471818
0.9330651605
0.6637705884
0.5066012748
0.4788595732
1.303961682
0.9132854882
0.6568777719
0.4175584277
0.3901741369
0.3351779912
0.1971048051
0.1148782421
0.1115447963
0.133963917
0.1631031693
0.1916049056
0.2184501261
0.2477283248
0.284887553
0.3369664139
0.408061188
0.512877631
0.6768893363
0.9010567151
1.056443978
0.9254621692
0.8450610029
0.5890327845
0.5268460012
1.096652572
0.7454413796
0.533727168
0.3412304024
0.3100601539
0.2912749091
0.1754482189
0.1164138096
0.1148098393
0.1403349929
0.1766576199
0.2119423659
0.2418340239
0.2724463582
0.3158883626
0.3804161425
0.4781817227
0.6300043258
0.8493878173
1.097163864
1.218293237
1.081004144
1.015156194
0.6700067296
0.6339746743
0.3720995688
0.3472292322
0.2674154432
0.2463438143
0.3001599303
0.3921394032
0.1761662329
0.122799108
0.1182788852
0.1452064815
0.1891312173
0.2332406835
0.2680621272
0.3042129855
0.3597200782
0.4448005609
0.5727484704
0.768019901
1.050777627
1.351466901
1.545006009
1.46903181
1.515521125
0.8986225083
0.694637261
0.1833611319
0.1938997532
0.2376994337
0.5056488869
0.894282243
1.218800043
0.3650612456
0.1537255786
0.1218419696
0.1417034432
0.1841350289
0.2343705849
0.2766663734
0.3244033266
0.3999419073
0.5105779908
0.6713008121
0.8934468226
1.150270223
1.471889611
1.773973398
1.875744098
2.121733617
1.173128883
0.7591686993
0.1658338357
0.2213046898
0.5250318453
2.292329133
4.558363152
3.93519289
1.335968762
0.26324697
0.1314281444
0.1300237693
0.1526635395
0.1946601295
0.2533012258
0.3285956772
0.4200296471
0.534611584
0.6858932157
0.8919470236
1.095749679
1.383631338
1.732185108
1.967175427
1.940515496
1.078695321
0.7029592398
0.5248400783
0.1988540321
0.5182263545
2.243966074
5.826214843
6.568913722
5.225610882
2.855839832
0.4905322919
0.1535048487
0.1318572197
0.1395399941
0.1628483736
0.2040686947
0.2696144747
0.3622914003
0.4763733892
0.6129682761
0.788088067
0.9821408604
1.210583758
1.444949909
1.589458233
1.311112604
0.8039352647
0.5383414329
0.4258355813
0.06127696821
0.08656567169
0.116572211
0.1427935727
0.1651462317
0.1847126905
0.2055389664
0.233770609
0.2762372204
0.3381336212
0.4202983237
0.5160810456
0.6085201955
0.6733848332
0.6913800418
0.6618351208
0.6059636007
0.5518395488
0.5056589524
0.461544405
0.4096704217
0.344329381
0.305925163
0.28455563
0.231208792
0.2443432014
0.07199319155
0.0743104485
0.09213133655
0.1080013286
0.122102172
0.1360657189
0.1539249761
0.180242264
0.2194243693
0.2747348044
0.3467277749
0.4295768108
0.5077693447
0.5607836676
0.573335321
0.5424146047
0.4800259182
0.4181563471
0.3826426993
0.3708576778
0.3720341132
0.3801085804
0.3854861774
0.3712324856
0.3269250031
0.2944015982
0.06695808184
0.07128822184
0.08988072536
0.1063078452
0.1205174189
0.1349906781
0.1549780003
0.185978677
0.2331723886
0.3007696181
0.3890270752
0.4872533688
0.5729785738
0.6248620129
0.6314604768
0.5897914097
0.5074396793
0.4231445689
0.3849090795
0.3960376591
0.4385270604
0.4976326146
0.5456222426
0.5488117827
0.4989455618
0.4225233419
0.05257107292
0.06378579259
0.08429200908
0.1018900166
0.1166749089
0.1315546775
0.152692107
0.1863427655
0.2387011825
0.3149893412
0.4134543759
0.5178427682
0.6017844184
0.6497676715
0.6547076329
0.610932736
0.5185742727
0.4235609873
0.391406721
0.4292089923
0.513523847
0.6160919501
0.6906002416
0.6985638692
0.6377335876
0.5319976558
0.05951420138
0.05759119332
0.07815959552
0.09704174016
0.1126369819
0.1277915035
0.1487713341
0.1818877111
0.2334572288
0.308262449
0.4028164068
0.5002036499
0.577215938
0.6227979139
0.6286016134
0.5846681913
0.4945761523
0.4129373599
0.4030891977
0.4686285922
0.5815764549
0.6992720003
0.7694874486
0.7710858699
0.7087810631
0.5976305284
0.08776545268
0.0601142124
0.07301912572
0.09237145434
0.1088386713
0.1239548025
0.1427686036
0.1708922999
0.2139509166
0.2759602163
0.3545145832
0.4363430661
0.50381623
0.5439560223
0.546034296
0.5034120454
0.4337303932
0.3878202655
0.4070278491
0.4896093939
0.6073474319
0.7149471538
0.7755081978
0.7735261212
0.7173896174
0.6122577619
0.1168293731
0.06850347029
0.07087118211
0.08846712861
0.105835395
0.1209306245
0.1362713665
0.1564905551
0.1861366384
0.228676686
0.2833308398
0.3424265922
0.3928050015
0.4212379157
0.4197395634
0.3917871048
0.3590859499
0.3529683903
0.3926785937
0.4770625124
0.5829780581
0.679063997
0.734636463
0.7339874297
0.6855151219
0.5920816163
0.1376133257
0.07946224063
0.07344833762
0.08711858419
0.1052784902
0.1204910142
0.1321751252
0.1451760731
0.1620757623
0.1856190123
0.2158050277
0.2489808456
0.2785921232
0.2968901432
0.301000242
0.2964009434
0.2968838972
0.316073557
0.3610933073
0.4355529737
0.5268061808
0.6129334268
0.6690898191
0.6796044675
0.6327127831
0.552396351
0.1533118703
0.09069564742
0.0821310155
0.09475781663
0.1146775207
0.1273087163
0.1325184368
0.1413336108
0.152069248
0.1662801186
0.1817037258
0.1959768271
0.2110468437
0.2235485397
0.2324442619
0.2411939836
0.2587772041
0.2959856489
0.3282388735
0.383191113
0.458694851
0.5358245527
0.5917313486
0.6211065099
0.5757818552
0.5063899025
0.1671930945
0.1027951814
0.1017276216
0.1312289778
0.1601553041
0.1562703987
0.1392890449
0.1453702303
0.160367245
0.1828280999
0.1948293719
0.1887050828
0.1901234563
0.197193184
0.2055668516
0.2190621344
0.2577445535
0.3993014802
0.3312698061
0.3375754385
0.393764899
0.4585546222
0.5096782668
0.5537496647
0.5207372021
0.4615984878
0.1807295401
0.1175741975
0.1450265709
0.238059068
0.2952050917
0.2413345268
0.1597237685
0.1644503177
0.2123183109
0.2897768103
0.3068142362
0.2343367498
0.1939347654
0.1919209371
0.1990685295
0.2196396725
0.3526459556
1.22854139
0.4500556042
0.3096023018
0.3400990037
0.3892859186
0.4388765491
0.4673876704
0.4565962553
0.4372305844
0.1943471296
0.1364846615
0.2208925921
0.4323555218
0.5324104406
0.4085055999
0.2051843478
0.224325591
0.3932645173
0.644735379
0.6818922893
0.4165776635
0.2238437011
0.1960348752
0.1991230697
0.2066388336
0.2273372503
0.3011539989
0.3526959788
0.2773834678
0.2979543907
0.331736024
0.3647795222
0.3868174969
0.3926509154
0.3842280752
0.2068149958
0.1523349326
0.2845726709
0.5848042964
0.7172705206
0.574841053
0.2686654499
0.3545471987
0.7815576252
1.299371243
1.369167694
0.8573746902
0.2993885141
0.2064478402
0.202437582
0.2056865773
0.2116017696
0.2239851458
0.2400317739
0.2496480971
0.2692575442
0.2929391403
0.3156137123
0.3342426896
0.3459672276
0.3457648625
0.2160960177
0.1499419537
0.2488730173
0.5115631029
0.6724956512
0.5552820624
0.2798617643
0.4388274394
1.023697374
1.64901235
1.737156017
1.240488995
0.3903831354
0.2191731692
0.2068453872
0.2083956978
0.2120038414
0.2184573898
0.2276528828
0.2385778145
0.2533837083
0.269619681
0.2862350582
0.3030626337
0.3163626038
0.3244251106
0.2251169869
0.1444558409
0.1701735525
0.2592441334
0.3788522772
0.3295233944
0.1967062553
0.302269865
0.6954836139
1.280191774
1.375433342
0.8648738614
0.3281793661
0.2205313656
0.2113103115
0.2123248758
0.2153508915
0.2206714568
0.2287383578
0.2385856341
0.2496461286
0.2611685176
0.2735129787
0.2901515895
0.3068478308
0.3215631102
0.2342707502
0.1519596131
0.1675470095
0.2007520097
0.2237289049
0.1892175254
0.1413115209
0.1515019506
0.2077757452
0.3188604216
0.3802590606
0.2904069014
0.2187039932
0.2137274238
0.2165072891
0.2185386758
0.2222266244
0.2295489331
0.2416405992
0.2554355158
0.2639428439
0.270912782
0.2789466773
0.2957224861
0.3172377561
0.3476129745
0.2431222437
0.1653093146
0.1961038964
0.2528705622
0.2728614819
0.2113938748
0.1444791578
0.1260850518
0.1358312046
0.1534847053
0.1725617632
0.1850629649
0.1999324144
0.2156511356
0.2230196987
0.2289495303
0.2372990468
0.2513095963
0.2802817352
0.3114011389
0.309649848
0.3054144898
0.3065838415
0.3205024511
0.345098849
0.4108024545
0.2518788585
0.1855542238
0.244132821
0.3490132101
0.3869631911
0.2944109385
0.1756423512
0.1186182499
0.1182494844
0.1308539352
0.1478836526
0.1679546131
0.1906674344
0.2133281359
0.2261026531
0.2393029313
0.2638632437
0.2968694376
0.3659855974
0.4187300763
0.4040258723
0.371506128
0.3625581365
0.3667531189
0.3809768652
0.4471375052
0.2626090384
0.2160173443
0.3167803417
0.4890984043
0.5535450205
0.439677161
0.2530845446
0.1286527369
0.1093907398
0.12075613
0.1375389354
0.1570199091
0.1776370313
0.2003439805
0.2249347626
0.2508159191
0.2897935711
0.3542484636
0.4539637536
0.5773168616
0.4841736842
0.4678374582
0.4584252233
0.4304104948
0.4192934353
0.4445394691
0.2810503567
0.2628825899
0.4123585261
0.6530820343
0.7442326066
0.6292845119
0.3893153125
0.1634504827
0.1077733311
0.115232471
0.131495686
0.1502108375
0.168918357
0.1858488175
0.2041385941
0.2336992695
0.2872644439
0.3799650896
0.5067114362
0.5895859159
0.5859658963
0.5792568117
0.5983944441
0.4879278243
0.4192443065
0.4073165765
0.3192838253
0.33721936
0.5094912703
0.78881484
0.8972424179
0.7933080711
0.5367073765
0.2154532124
0.1132195288
0.1124728578
0.1246387475
0.1381709411
0.1524033298
0.1668340664
0.1861141286
0.2190163356
0.2780738308
0.3800578755
0.5300568734
0.6659426732
0.6618155027
0.6493944839
0.7367261855
0.5253163808
0.3979835954
0.3704597553
0.4116936244
0.4567383481
0.5765845421
0.8216287676
0.9328234755
0.8379300087
0.5861436506
0.2441846753
0.1199405908
0.1132805824
0.1239024083
0.1346863665
0.1456861994
0.1585762097
0.1770049458
0.2080147439
0.2648667302
0.3689916382
0.5325316849
0.6980110819
0.7059842119
0.6731846094
0.7719359933
0.508656669
0.3645351694
0.3333071267
0.6461823095
0.6358009052
0.6223977518
0.7211725533
0.8193986791
0.7335080523
0.4968249062
0.2155737698
0.1195486688
0.1151402371
0.1266921244
0.1382930946
0.1495765557
0.1628010332
0.1817014311
0.2125887317
0.2684363763
0.3744754376
0.5489299851
0.7443645339
0.7822244091
0.7180864844
0.8092313542
0.530094604
0.3613430268
0.3285970933
1.074141687
0.8366869154
0.7044626414
0.5558856296
0.583527785
0.5197221423
0.32761367
0.1583464449
0.1131996417
0.1176815496
0.1325000275
0.1475025813
0.1617375066
0.1779216035
0.2002334544
0.2332133953
0.2867717242
0.3827625094
0.5459831283
0.7498973616
0.8256535043
0.7543037417
0.8309198058
0.5978675106
0.4081065287
0.3742469519
1.3867221
0.929343735
0.7610526824
0.4504508271
0.3585198837
0.3229234838
0.2102389572
0.1277694545
0.1109013129
0.1220587202
0.1424853963
0.1634749643
0.1818414556
0.2004342293
0.2247085889
0.2575615218
0.3007948857
0.3692742747
0.4891864302
0.6511129907
0.7315854255
0.6721655906
0.7354394426
0.5301611117
0.4184143363
1.124980898
0.7830481677
0.6127646044
0.3537190132
0.2687303186
0.2779521013
0.1836479184
0.1236545176
0.1139221353
0.1284577405
0.1556626176
0.1841150169
0.2064720262
0.2256448183
0.250983635
0.2885588961
0.3444564425
0.4381281586
0.6007445666
0.8173464411
0.9107392596
0.8382505183
0.9351912697
0.6250526108
0.4868012427
0.4438656843
0.4643813626
0.3616525754
0.2917989042
0.3877904471
0.5342705083
0.2940306226
0.1468892542
0.121292861
0.1340637665
0.1655644091
0.2007961371
0.2285060363
0.2517507318
0.2837006961
0.3342087268
0.4104726038
0.5355679773
0.7438835192
1.025235275
1.191013794
1.220763084
1.50514382
0.9178495843
0.6162200012
0.2085845501
0.2295785607
0.2739721443
0.6670840104
1.333532505
1.743123445
0.8804542758
0.2455150197
0.1363109899
0.1357139571
0.1631134598
0.2002229301
0.2343479577
0.2672952124
0.3132149377
0.3844056708
0.4880303489
0.6345898853
0.8211165155
1.106221094
1.369078537
1.493459321
2.150553329
1.307802261
0.7442660692
0.1791447571
0.2099077736
0.6094554183
2.614688144
5.000838618
4.958173406
2.926697989
0.5793148595