/*--------------------------------*- C++ -*----------------------------------*\
  =========                 |
  \\      /  F ield         | OpenFOAM: The Open Source CFD Toolbox
   \\    /   O peration     | Website:  https://openfoam.org
    \\  /    A nd           | Version:  8
     \\/     M anipulation  |
\*---------------------------------------------------------------------------*/
FoamFile
{
    version     2.0;
    format      ascii;
    class       volScalarField;
    location    "1.8";
    object      nut;
}
// * * * * * * * * * * * * * * * * * * * * * * * * * * * * * * * * * * * * * //

dimensions      [0 2 -1 0 0 0 0];

internalField   nonuniform List<scalar> 
67410
(
8.93823552e-05
0.0001084312947
0.000117002857
0.0001236494987
0.0001302323972
0.0001383709239
0.0001494818343
0.0001637892495
0.0001798491099
0.0001953236398
0.0002082792508
0.0002176331779
0.0002226958817
0.0002225837161
0.0002159499395
0.000202232957
0.0001876941288
0.0001834676311
0.0001848798424
0.0001895972174
0.0001956727229
0.0002022446312
0.0002101729476
0.0002134811609
0.0001892395013
0.0001849734208
9.003177245e-05
0.0001119273591
0.000122482398
0.0001310013692
0.0001396507618
0.0001505793404
0.000165429391
0.0001838749788
0.0002035617867
0.0002218289998
0.0002371404696
0.0002487963918
0.0002559142571
0.0002570586562
0.0002502074087
0.0002337721408
0.0002126351702
0.000204649608
0.0002104072076
0.0002227005863
0.0002363374076
0.0002485605898
0.0002574862934
0.0002596067839
0.0002414101886
0.0002315154233
8.718478331e-05
0.000110507064
0.0001224898951
0.000132519601
0.0001430678362
0.0001567530128
0.0001749689741
0.0001962787503
0.0002175993973
0.0002367203385
0.0002530899408
0.0002663599017
0.0002748940272
0.0002764604318
0.0002681810713
0.0002478003827
0.0002224167774
0.0002153794376
0.0002279446539
0.0002454893361
0.0002616793426
0.0002750248619
0.0002841929738
0.0002868840445
0.0002726926092
0.000259526575
8.699254554e-05
0.0001078779488
0.0001205887682
0.0001318353728
0.0001437591461
0.0001592452755
0.0001793636406
0.0002019191174
0.0002236820285
0.0002430602061
0.0002598818143
0.0002732037533
0.0002812280415
0.0002813344064
0.0002705286924
0.0002478617149
0.0002253684438
0.0002255115098
0.0002426416265
0.0002614650065
0.0002785363793
0.0002934651769
0.0003037900609
0.0003074117186
0.0002951178786
0.0002793320085
0.0001004683391
0.0001072893197
0.0001182276863
0.0001301594218
0.0001425088075
0.0001579461434
0.0001776213383
0.0001995562893
0.0002207373936
0.0002396310559
0.0002557560748
0.0002678884831
0.0002737752441
0.0002705710873
0.0002563470629
0.000235866604
0.0002246350755
0.000233317521
0.0002513043032
0.000269797821
0.000287968901
0.0003036964078
0.0003147882193
0.0003195880723
0.0003077929235
0.0002911621578
0.0001169406794
0.0001120741537
0.0001168468689
0.0001282856339
0.0001398412722
0.0001528742115
0.0001689740009
0.0001876311693
0.0002066554869
0.0002240373188
0.0002385251329
0.000248259906
0.000250689904
0.0002441253724
0.0002313217916
0.0002212396337
0.0002230783068
0.0002358525457
0.0002524520684
0.0002701428384
0.0002883471152
0.000304419321
0.0003163908831
0.0003230119083
0.0003112801892
0.0002948288646
0.0001272658592
0.00012077781
0.0001181947928
0.0001273780773
0.0001375751409
0.0001472609292
0.0001578077436
0.000169986258
0.0001835293853
0.0001969997744
0.0002083546446
0.0002154342766
0.0002167801717
0.0002137768867
0.0002109750697
0.000213350279
0.0002217776845
0.0002338094085
0.0002477576522
0.0002635586284
0.0002804204448
0.0002961056368
0.0003087032523
0.0003168546473
0.0003067099315
0.0002922314121
0.0001332394751
0.0001298098979
0.0001233097505
0.0001291070873
0.0001379420915
0.0001449147586
0.0001521693388
0.0001589627184
0.0001660548036
0.0001736200218
0.0001811250271
0.000187831784
0.0001936746111
0.0001992877754
0.0002058034957
0.0002135368917
0.0002220806162
0.0002312362756
0.0002418248681
0.0002543080389
0.0002681011948
0.0002819516362
0.0002942629173
0.0003003206499
0.0002960673966
0.0002869364829
0.0001371955366
0.0001380009622
0.0001326779658
0.0001373838972
0.0001442039832
0.0001449225933
0.0001519270487
0.0001583745284
0.0001651276432
0.0001724617682
0.0001794023051
0.0001859125596
0.0001942649369
0.000202540075
0.000210604835
0.0002182355625
0.0002253876253
0.0002319629163
0.0002395211253
0.0002481650812
0.0002582857553
0.000270245051
0.0002858384905
0.0002861115814
0.0002838615979
0.0002838183925
0.0001398852865
0.0001459300436
0.0001475550273
0.000157919386
0.0001629094123
0.0001460659779
0.0001527375327
0.0001612350126
0.0001723478525
0.0001845406802
0.000190977454
0.0001922256317
0.0002010735873
0.0002092863478
0.0002170181498
0.0002242806561
0.0002302974197
0.0002354071088
0.0002406972689
0.0002466632633
0.0002539791058
0.0002638315643
0.0002787053768
0.0002756234607
0.0002730117991
0.0002807338922
0.0001418005074
0.0001549466337
0.0001685671865
0.0001894963688
0.0001953383553
0.0001507046051
0.0001552876351
0.0001701893137
0.000193737703
0.0002168897772
0.0002180117481
0.0001983740111
0.0002067768131
0.00021466455
0.0002220498214
0.0002283870007
0.0002337436553
0.0002390128813
0.0002426587566
0.0002470266864
0.000252181276
0.0002576543131
0.000263270741
0.0002666802763
0.0002638498278
0.000258058521
0.0001433953331
0.0001652807255
0.0001916227933
0.0002234222576
0.0002342349428
0.0001618222991
0.0001629560975
0.000194050189
0.0002393747902
0.0002772883947
0.0002693055137
0.0002044138978
0.0002106526947
0.0002182382539
0.0002252930003
0.0002308658754
0.0002354318847
0.0002395597242
0.0002435033273
0.0002472114559
0.0002513898209
0.0002555534693
0.0002594009936
0.0002616056032
0.00025834888
0.0002500483994
0.0001442427674
0.0001722195019
0.0002057995608
0.0002460984529
0.0002632647885
0.000176154614
0.0001796986194
0.0002351405677
0.0003026919013
0.0003560628131
0.0003398276633
0.0002121421474
0.0002128700997
0.0002201940982
0.0002271313015
0.000232382426
0.0002365907184
0.0002402755043
0.0002437179794
0.0002470640796
0.0002505028883
0.0002538012493
0.0002568043393
0.000258298532
0.000255117795
0.000246699808
0.0001431088655
0.0001678038617
0.000194489228
0.000231040866
0.0002486930107
0.0001800896303
0.0001976592879
0.0002697200831
0.0003515335446
0.0004126663148
0.0003808706423
0.0002197024605
0.0002138112483
0.0002209729642
0.0002278243572
0.0002329973833
0.0002370943738
0.0002405859698
0.0002437719992
0.000246771343
0.0002496503959
0.000252239468
0.0002545440799
0.0002554636963
0.000252237192
0.0002434353718
0.0001425443853
0.0001615400725
0.0001706108556
0.0001765798405
0.0001792583545
0.0001721247879
0.0001496817586
0.0001616080247
0.0001896089186
0.0002209527099
0.0002291831412
0.0002094313224
0.0002143146062
0.0002215065384
0.0002277406142
0.0002327450288
0.0002369024739
0.0002404280518
0.0002435826476
0.0002464644157
0.0002490269341
0.0002510871061
0.0002527681472
0.0002528491479
0.0002489862609
0.0002385020068
0.0001456458682
0.0001699518017
0.0001850457314
0.0001972961158
0.0002041410122
0.0001920223516
0.0001537238223
0.0001529675325
0.000166960365
0.0001828406513
0.0001930179987
0.0002025503276
0.0002122508721
0.0002206737953
0.0002264282726
0.0002312390742
0.0002357550762
0.000239613845
0.0002431105419
0.0002462988777
0.0002488769308
0.0002505917652
0.0002513355735
0.0002498829822
0.0002447443214
0.0002308085094
0.000151985582
0.000183482466
0.00020451062
0.0002211516616
0.0002293995406
0.0002155923111
0.0001658920744
0.0001466510582
0.0001574220523
0.0001722747465
0.0001864442615
0.0001993533358
0.0002117815296
0.0002216962098
0.0002244492766
0.0002284456019
0.0002330743768
0.0002375406323
0.000242087938
0.0002465911709
0.0002498889573
0.0002521963558
0.0002491216769
0.0002443032264
0.000235959085
0.0002199987813
0.0001629771067
0.0002020638656
0.0002270475166
0.0002455650576
0.0002538543763
0.0002387041025
0.0001856839254
0.0001462191756
0.0001480669312
0.0001612376355
0.0001748708313
0.0001874739501
0.0001986696446
0.0002085306366
0.0002174293832
0.0002255007007
0.0002276065773
0.0002338582536
0.0002416152275
0.000250133088
0.0002572500968
0.000265031784
0.0002434385146
0.0002315562996
0.0002197443764
0.00021105602
0.0001768468217
0.0002217044994
0.0002487473427
0.0002690264483
0.0002774995932
0.0002612656105
0.0002096604584
0.0001547132312
0.0001413984184
0.0001526916791
0.0001652982531
0.0001767549187
0.0001864892313
0.0001948427108
0.0002025027266
0.0002095279575
0.0002171364032
0.0002293749114
0.0002412235317
0.0002614496275
0.0002840829906
0.0002998813747
0.0002415870353
0.000217625873
0.0002016375399
0.0001988606334
0.0001900531159
0.0002383543351
0.0002673762898
0.0002913723216
0.00030102433
0.0002846833984
0.0002332351349
0.0001716936769
0.0001397802171
0.0001486665553
0.0001599757459
0.0001697458536
0.0001771402198
0.0001830897294
0.0001908255146
0.0001997892171
0.0002119259643
0.0002303848378
0.0002580966889
0.000294331546
0.000324739461
0.0003384244109
0.0002770741573
0.0002313314149
0.0002023835125
0.0001886066002
0.0001998856275
0.000248472138
0.0002804272964
0.0003091519908
0.000320670238
0.0003047737323
0.0002505286312
0.0001901576612
0.0001406243989
0.0001458810347
0.0001558899106
0.0001650873483
0.0001738433735
0.0001826076865
0.0001922001701
0.0002042196266
0.0002214651254
0.000247133275
0.0002829554822
0.0003226069402
0.0003514716184
0.0003618701442
0.0003149276245
0.0002597477726
0.0002220873771
0.0002058158863
0.0002078402143
0.0002494447576
0.0002822024298
0.0003156732565
0.0003295756183
0.0003130114347
0.0002536599933
0.0001944252267
0.0001432120276
0.0001481462787
0.000159346775
0.0001696656408
0.0001795598481
0.000189595396
0.0002003318024
0.0002130297069
0.0002301437485
0.000254810785
0.000289146549
0.0003273890387
0.000356543469
0.0003671398667
0.000323512511
0.0002690724944
0.0002351065908
0.0002242392754
0.0002203910982
0.0002472459215
0.0002641099902
0.0003018639092
0.0003212186097
0.0003009062626
0.0002333045211
0.0001735268941
0.0001427884187
0.0001504707371
0.0001630769627
0.00017484562
0.0001860061217
0.0001971088504
0.0002087649809
0.0002221195331
0.0002395639103
0.0002644942567
0.0002992430513
0.0003381767489
0.0003686755101
0.0003795436513
0.0003393606942
0.0002835842207
0.0002483792737
0.0002428124146
0.0002420855157
0.0002741070096
0.0002419428792
0.0002409353637
0.0002712258362
0.0002644419266
0.0002003951474
0.0001462230191
0.0001402958746
0.0001528488851
0.0001668520955
0.0001799368429
0.0001924002791
0.0002051149769
0.0002187720901
0.0002340234172
0.0002525570584
0.0002780109626
0.0003120510465
0.0003501624979
0.0003811341622
0.0003895374891
0.0003569885242
0.0003019514256
0.0002596764615
0.0002486971301
0.000264160898
0.0003083187143
0.0002746006495
0.0002332975871
0.0002312921489
0.0002301713658
0.0001946513553
0.0001408041097
0.0001405517035
0.000155283146
0.0001713288107
0.0001860928126
0.000199988566
0.000214754705
0.0002312875633
0.0002486342829
0.0002650598204
0.0002823918053
0.0003047161156
0.0003340933297
0.0003634272847
0.0003796061126
0.0003410434256
0.0002887827976
0.0002544227896
0.000267970736
0.0003078023911
0.0002842845813
0.0002507355157
0.0002288729714
0.0002055520882
0.0001773785038
0.0001419045397
0.0001417403957
0.0001586705142
0.0001774341523
0.0001939618422
0.0002086538619
0.0002251971292
0.0002456362634
0.0002659330838
0.0002837351645
0.0003008371043
0.0003242991318
0.0003617572484
0.000397346337
0.0004092079062
0.0003789962661
0.0003276397032
0.000281165188
0.0002126223045
0.0002283374476
0.0001969202155
0.0002073925081
0.0002648558643
0.0002027788391
0.0001631198174
0.0001392126166
0.0001434234987
0.000161953961
0.000183599061
0.0002018147058
0.0002157802154
0.0002318677248
0.0002546619165
0.0002790577859
0.0003020115817
0.000325542991
0.0003558099043
0.0003997946691
0.0004370740903
0.0004532582558
0.0004222095685
0.0003538534842
0.0002924345456
0.0001900937945
0.0001779701539
0.000206823931
0.0003110490361
0.0003966588817
0.000309426185
0.0002166393257
0.0001511513744
0.0001430416003
0.0001588697351
0.0001814823629
0.0002015589267
0.0002141423764
0.0002271954006
0.0002515303888
0.0002831900936
0.0003162433238
0.000351020355
0.0003910366275
0.0004356058642
0.0004727648409
0.0004994587771
0.0004743340605
0.0003958089686
0.0003130256416
0.000161992445
0.000208838177
0.000329792435
0.0004473851493
0.0005229889131
0.0004606906996
0.000323593804
0.00019621722
0.0001433640067
0.0001457554852
0.0001604483293
0.0001827400542
0.0002099637737
0.0002399191989
0.0002701072952
0.0003002466301
0.0003300314674
0.0003592905291
0.0003859377517
0.0004198232073
0.0004597329349
0.0004974894864
0.0004565913093
0.0003839650575
0.0003138128051
0.0002570399337
0.0002158310255
0.0003848944834
0.0004980301027
0.0005937812641
0.0006345145739
0.0005759120266
0.0004462232341
0.0002933856074
0.0001605881188
0.0001433753173
0.0001494916601
0.0001619381853
0.0001815126315
0.0002088760436
0.0002419448968
0.0002751920821
0.000306464747
0.0003352304412
0.0003603193702
0.0003856963726
0.0004161289351
0.0004517741117
0.0003942460957
0.0003289681372
0.000268332799
0.0002261157499
8.817833871e-05
0.0001106818874
0.0001212409693
0.0001289588422
0.0001351551487
0.0001410036529
0.0001480290093
0.0001574580939
0.0001695128691
0.0001832736871
0.0001972254311
0.0002096097372
0.0002184740253
0.0002219248264
0.0002188661182
0.0002103818756
0.0002009407949
0.0001955333482
0.0001925844493
0.0001905772438
0.000188331385
0.0001854198454
0.0001866747982
0.0001867100869
0.0001682463393
0.0001690589455
9.088215498e-05
0.0001895526622
0.0002318780133
0.0002645604066
0.0002854907231
0.0002951880367
0.0003011060281
0.0003140520579
0.0003446715775
0.0003997575908
0.0004764944143
0.0005597775842
0.0006298339278
0.0006659078225
0.000653595746
0.0005954389087
0.0005129773799
0.0004486992764
0.000417327572
0.0004032572862
0.0004051093995
0.0004168560258
0.0004339828308
0.0004404023759
0.0004259724823
0.0004031686612
8.8118564e-05
0.000196115156
0.0002513284176
0.0002966718128
0.0003264545655
0.0003411606025
0.0003529156355
0.0003791967059
0.0004352430391
0.0005230243164
0.0006191920086
0.0006991354196
0.0007600462931
0.000787681114
0.0007671757087
0.0006926164187
0.0005619026652
0.0004660084972
0.0004437131339
0.0004749192491
0.0005442409112
0.0006212393005
0.000681544637
0.0007045262272
0.0006968810968
0.0006402903315
8.29908571e-05
0.0001805881253
0.0002422292989
0.0002942462799
0.0003301399861
0.0003505560635
0.0003695832046
0.0004070287473
0.0004761455945
0.0005657668
0.0006480544406
0.0007280515102
0.0007865235559
0.0008054295093
0.000771336552
0.0006767800784
0.0005373171286
0.000453777939
0.0004716857197
0.0005665990709
0.0006909501025
0.0007845589671
0.0008523285874
0.0008849844368
0.000879493609
0.0008292986359
9.132900558e-05
0.0001591896157
0.0002233545974
0.0002775085385
0.0003180240939
0.0003451622016
0.0003704242729
0.0004106147157
0.0004757463336
0.0005530482618
0.0006247899973
0.0006963885952
0.0007454516718
0.0007548545778
0.0007113470819
0.0006113460442
0.0005041370135
0.0004712662301
0.000539216952
0.0006713658265
0.000793101163
0.000898386586
0.0009734395004
0.001009814361
0.001001804818
0.0009462684615
0.0001057902918
0.0001536950017
0.0002042014277
0.0002564557706
0.0003013223716
0.0003368784244
0.0003670427254
0.0004014933557
0.0004492649406
0.0005089458151
0.0005650355466
0.0006170773664
0.0006518688033
0.0006521036692
0.0006070915088
0.0005381020467
0.0004951044781
0.0005202321125
0.0006170627346
0.000746018528
0.0008603300519
0.0009631570156
0.001038712788
0.001076828936
0.001067849146
0.001011029387
0.0001162205601
0.000162463313
0.000190698033
0.0002365083093
0.0002852126796
0.0003306744358
0.0003666896663
0.0003941701215
0.0004185538613
0.0004467813901
0.0004797474235
0.000510989739
0.0005294691823
0.0005291960948
0.0005150454204
0.000505273367
0.0005231695198
0.0005817541655
0.0006782383051
0.0007868868004
0.0008899001267
0.0009854936244
0.001059838007
0.001097693912
0.001089986624
0.001037714315
0.000122526431
0.0001753849653
0.0001856899297
0.0002208258531
0.0002707404973
0.0003247515943
0.0003673385022
0.0003945766705
0.0004061154297
0.0004110339817
0.0004182018922
0.000431345251
0.0004487688924
0.0004697159833
0.000496383705
0.0005333785629
0.0005826414765
0.0006434399257
0.0007212533477
0.0008043229157
0.0008922925602
0.000980061397
0.001054919245
0.001093521066
0.001083460949
0.001040849772
0.0001269935075
0.0001913838989
0.0001903204098
0.0002144120514
0.0002615932033
0.0003167470444
0.0003615122522
0.0003924901559
0.000404657024
0.0004086030962
0.0004144029507
0.0004293311943
0.000455607602
0.0004951196148
0.0005460694248
0.0006015297514
0.0006493417638
0.0006940641083
0.0007442663682
0.0008046296588
0.000878507258
0.0009598540709
0.001035395816
0.00107654274
0.001062074737
0.001026101412
0.0001304609275
0.0002107873951
0.0002074189872
0.0002303246776
0.0002721743358
0.0003112547893
0.0003484554098
0.0003814226372
0.0003983346128
0.0004130873106
0.0004308759589
0.0004576925515
0.000498285287
0.0005527515655
0.0006095688884
0.0006515418612
0.0006861503407
0.0007215551361
0.0007519872748
0.0007933243973
0.0008535263186
0.0009283510201
0.001000115207
0.00104021165
0.001022443218
0.0009863288631
0.0001330734964
0.0002333180084
0.0002439601356
0.0002931583652
0.000331334297
0.0003217471226
0.0003343283169
0.0003680158085
0.0003984323743
0.0004407923388
0.0004696042196
0.0004859432874
0.000531142794
0.0005935122739
0.0006398548559
0.0006698279119
0.0006989244497
0.0007234917175
0.0007519723389
0.0007745316417
0.0008178282737
0.0008702818679
0.0009260055605
0.0009551013753
0.0009554333222
0.0009333816343
0.0001348321165
0.000257671606
0.0003038070245
0.0004023079766
0.0004404717725
0.0003657957561
0.0003287658321
0.0003721456713
0.000460763023
0.0005820927655
0.0006028515453
0.0005323033481
0.0005475553119
0.0006102543466
0.0006456208948
0.0006662379857
0.0006842856146
0.0007082455325
0.0007245791341
0.0007480645858
0.0007808949262
0.000817680744
0.0008527085547
0.000875918249
0.0008811717277
0.0008633221659
0.0001357725157
0.000278221662
0.0003553656737
0.0004845043482
0.0005330579913
0.0004193110691
0.0003372831375
0.000424329339
0.000647500382
0.0009060824425
0.00087060028
0.0006353845311
0.0005576709531
0.0006138037258
0.0006433536793
0.0006602822626
0.0006734674301
0.000688001532
0.0007048250449
0.0007236667438
0.0007489247179
0.0007755463609
0.00079931897
0.0008164814735
0.0008237300964
0.0008124328164
0.0001362075364
0.0002859764465
0.0003474839761
0.0004253194739
0.0004685063598
0.0003925949815
0.0003235740846
0.0004323326547
0.0007244893935
0.001004597586
0.0009557353874
0.0007108945599
0.0005615371897
0.0006110566197
0.0006392548641
0.0006563295695
0.000668499348
0.0006798474042
0.0006930030532
0.0007084738074
0.0007273275671
0.0007459808628
0.0007621704481
0.0007762277848
0.0007832423623
0.0007793270266
0.0001370580275
0.0002883487739
0.0003254145841
0.0003225263277
0.0003251212021
0.00030451566
0.0002905907413
0.0003581841339
0.0004766007957
0.0006586417126
0.0007175947448
0.0006219836524
0.000582840593
0.0006146709175
0.0006392781819
0.0006559637239
0.000668988609
0.0006805298332
0.0006931224374
0.0007072109208
0.0007217179356
0.0007344038319
0.0007441444555
0.0007561156991
0.0007638540317
0.0007625974838
0.0001381937272
0.0002854594142
0.0003341526036
0.0003285584604
0.0002971517411
0.0002654798762
0.0002508959075
0.0002861398073
0.0003197680522
0.000365135685
0.0004180535182
0.0004737617999
0.0005467070139
0.0006168695567
0.0006491086022
0.0006624709253
0.0006774069633
0.0006933139467
0.0007115119824
0.0007298260224
0.0007415912418
0.0007481735685
0.000749324838
0.0007563168098
0.0007667128499
0.0007606553377
0.0001397327567
0.0002794950168
0.00035255111
0.0003804149088
0.0003558039218
0.0002823023901
0.0002394634618
0.000263377709
0.0002970113534
0.0003270182987
0.0003723795779
0.0004499354553
0.0005496795866
0.0006364211126
0.0006693099379
0.0006854409249
0.0006988525058
0.0007251479345
0.0007619698297
0.0007959704023
0.0007985797553
0.0007929852485
0.0007797868706
0.0007687659541
0.000757096915
0.000761379434
0.0001426534008
0.0002764570256
0.0003809330805
0.0004435193434
0.0004243519454
0.0003265977218
0.000237025666
0.0002363524682
0.0002697836239
0.0003022478016
0.000347087048
0.0004124959623
0.0004903492453
0.0005728012077
0.0006459191637
0.0006975115982
0.0007344990796
0.0007893118286
0.0008640260235
0.0009342067904
0.0008944097469
0.0008629709064
0.0008333419628
0.0007793259922
0.0007272277501
0.0006463130097
0.00014764394
0.0002814964025
0.0004273293973
0.0005146725887
0.000503223282
0.0003885152136
0.000259357094
0.0002250993279
0.0002618612063
0.000308487883
0.0003661288292
0.0004324605889
0.0004818461266
0.0005129647172
0.000560901374
0.0006375732719
0.0007383963054
0.0008681629
0.0009883273425
0.00102224805
0.0009947003403
0.0009466165994
0.0009003196316
0.0007275987366
0.0006273677629
0.0005611936967
0.0001540116489
0.0002988949022
0.0004833251128
0.0006004006494
0.0006024624379
0.0004831671472
0.0003146401981
0.0002292377769
0.0002617466604
0.0003252566098
0.0004048040664
0.0004818379553
0.0005120475564
0.0005118172764
0.0005364433906
0.0005978510716
0.0006903056947
0.000829700231
0.0009983364696
0.001113131058
0.001116141941
0.001066923417
0.0009959247344
0.0007158595011
0.0006234744881
0.0005921383763
0.0001603490925
0.0003344515054
0.0005418291043
0.0006749727272
0.0006902761474
0.0005761372178
0.0003788735997
0.0002464096982
0.0002658933373
0.0003298457897
0.0003936653287
0.0004507709051
0.0005002904222
0.0005443263102
0.0005955649589
0.0006649959038
0.000765180884
0.0009179416353
0.0011007405
0.00122428884
0.001230245764
0.001191688526
0.001137297359
0.0008170307163
0.0007288438658
0.0006984543013
0.0001681956049
0.0004038844252
0.0005812440385
0.0007004584487
0.0007188275019
0.0006083948404
0.0004073794583
0.0002624044404
0.0002750906491
0.0003450019538
0.0004202282643
0.0004909822973
0.0005608142398
0.000631382388
0.0007035023798
0.0007826964054
0.0008849779399
0.001034669554
0.001197702224
0.001318841952
0.001324435668
0.001280025054
0.001251479569
0.0009453218972
0.0009326049163
0.0009509567436
0.0001880350927
0.0005415966822
0.0006127593091
0.0006607292816
0.0006674521697
0.0005579918706
0.0003782379115
0.0002659028602
0.0002884832128
0.0003616200471
0.0004500800103
0.000540211035
0.0006294927863
0.0007167289622
0.0008001508885
0.0008811389362
0.0009753738473
0.001109704882
0.001254254329
0.001370525995
0.001379130603
0.001332460945
0.001317143103
0.001099720625
0.001155654632
0.001173886935
0.0002263496152
0.0006998053505
0.0006694087631
0.0005809664954
0.0005616571364
0.0004663244715
0.0003316130874
0.0002690999251
0.0003039208288
0.0003781055666
0.0004765978424
0.0005833508815
0.0006900454717
0.0007960407233
0.0008999958492
0.0009962100251
0.001093091624
0.001192226489
0.001302900968
0.00140967552
0.001432138891
0.001386038688
0.001372170332
0.001254916681
0.001248500029
0.001312335283
0.0002529893414
0.000746962224
0.000732940101
0.0005048615589
0.0004319329912
0.0003828833458
0.0003000599774
0.0002771002917
0.0003166978336
0.0003986102725
0.0005173756108
0.0006470720435
0.0007703926136
0.0008963057232
0.001029056782
0.001137889179
0.001229887628
0.001321199605
0.001431827486
0.001549210052
0.001583976076
0.001506947265
0.001504456359
0.001280116483
0.001274488874
0.0002386105386
0.000655869458
0.000634532504
0.0004563882803
0.0003503921907
0.0003052144571
0.0002881290992
0.0002967714527
0.0003361596075
0.0004309898079
0.0005822428174
0.0007388834966
0.0008648572681
0.000982093774
0.00109592651
0.0012066608
0.001307893847
0.001408701095
0.001526093751
0.001640093711
0.001668183768
0.001610159905
0.001589465589
0.001404525214
0.001362488512
0.0001666056856
0.0004956123577
0.0004547415928
0.0003263049576
0.0002759684474
0.0002527052007
0.00028502756
0.0003268362305
0.0003612871177
0.0004591281698
0.0006302997938
0.0007949595459
0.0009010951907
0.0009918283817
0.001100107595
0.001227920301
0.00135059975
0.001472056284
0.001608152662
0.001728524016
0.001770628153
0.001755632489
0.001742624112
0.001495563592
0.001349609206
0.0001316762819
0.000344814565
0.0003278998752
0.0002796730197
0.0003417483249
0.0003737413296
0.000290575097
0.0003445344504
0.0003799474593
0.0004448260017
0.0005740271641
0.0007085592173
0.0007985732297
0.0008770706519
0.001008390553
0.001192510263
0.001349480246
0.001498066794
0.001619373136
0.001748824685
0.00183678506
0.001866128897
0.001857089572
0.001483735829
0.001116609559
0.0001274414777
0.0002910064029
0.0002990168316
0.0005507254524
0.000916960516
0.0008497964283
0.0004652949664
0.0003516780219
0.0004020144072
0.0004112518276
0.0004409349298
0.0004966470201
0.0005736336703
0.0006903514484
0.0008747751176
0.001093399023
0.001293726122
0.001488413488
0.001595459915
0.001748756714
0.001885064864
0.001964994076
0.001873648179
0.001447831135
0.000996884345
0.0009593698402
0.0001358781957
0.0002440901404
0.0004541895036
0.0009482802548
0.001159885206
0.001051708848
0.0006725814849
0.0003728383604
0.0004296957654
0.0004323024789
0.0004168647098
0.0004239491763
0.0004727359131
0.0005723294771
0.000735270931
0.0009638481017
0.001214815457
0.0014103787
0.001561750731
0.00171287706
0.001834864823
0.001860767999
0.00171175128
0.001154507423
0.0008671947945
0.0008674764749
9.142128783e-05
0.0001151965084
0.0001272039147
0.0001360953633
0.0001428484616
0.000148282451
0.0001536747224
0.0001604431615
0.0001696610338
0.0001815166387
0.0001951714965
0.0002089726579
0.0002207250571
0.0002282469087
0.000230205828
0.0002268309867
0.0002202229735
0.0002134381304
0.000207305135
0.000201111065
0.0001933294527
0.0001825608986
0.0001756130658
0.0001714614059
0.0001599874566
0.0001629132483
9.64638914e-05
0.0002405980928
0.0003081702224
0.0003637335626
0.0004040684234
0.0004271665516
0.0004395455721
0.0004535436059
0.0004835445598
0.0005398285143
0.0006218455028
0.000715441538
0.0007988640959
0.00085266689
0.0008661526649
0.0008359810738
0.0007696253331
0.000694137914
0.0006340415271
0.000587804993
0.0005552472058
0.0005312529929
0.0005144305452
0.0005038977401
0.0005058923357
0.0004953257149
9.414991226e-05
0.0002552379518
0.0003446828343
0.0004241563171
0.000484600612
0.0005209706969
0.0005420165441
0.0005660995654
0.0006126711917
0.0006904106665
0.0007904992051
0.0008925758554
0.0009754374715
0.001023872368
0.00103039069
0.0009827379515
0.0008834691904
0.0007747033603
0.0007065013136
0.0006865585638
0.0007109590919
0.0007553927114
0.0007961266581
0.0008187865864
0.0008196797097
0.0007800868086
8.684851839e-05
0.000230226653
0.0003299275848
0.0004212974877
0.000493749242
0.0005406351965
0.0005707609612
0.000602972831
0.0006559586935
0.0007347311814
0.0008288739016
0.0009181826702
0.000991495559
0.001034650494
0.001034572175
0.0009795521952
0.0008678657241
0.0007572044894
0.0007157636365
0.000755491826
0.0008504247655
0.0009514674767
0.001025632142
0.001063998332
0.001064405012
0.001017867053
9.056973679e-05
0.0001907157224
0.0002983926807
0.0003935127656
0.0004727906878
0.0005295711885
0.0005694674525
0.0006066101539
0.0006561538147
0.0007236366142
0.0008033419883
0.0008793272125
0.0009447093333
0.00098222199
0.0009780258605
0.0009190974183
0.0008185564324
0.0007424405845
0.0007512708111
0.0008421963026
0.000969682091
0.001084592244
0.001170253162
0.001214131069
0.001209519157
0.001156450654
0.0001030906357
0.0001757712642
0.0002675526026
0.0003591061414
0.0004425435644
0.0005108062264
0.0005624602882
0.0006026808579
0.0006418395863
0.0006894002897
0.0007473674507
0.0008086478989
0.0008606506271
0.0008903011074
0.0008824600518
0.0008343287532
0.0007747141943
0.0007567517534
0.0008096632984
0.0009173402885
0.001041547297
0.001158252737
0.001244696419
0.001288546323
0.001280674854
0.001224283045
0.0001133739896
0.0001847465384
0.0002457291845
0.0003268482435
0.000412966825
0.0004940651592
0.0005593556829
0.0006041643377
0.0006322172507
0.0006560294051
0.0006864065636
0.000723951159
0.0007591565824
0.0007799952799
0.0007799268485
0.0007664797888
0.0007633316557
0.0007933794447
0.0008607686654
0.000957777464
0.001070520538
0.001179908456
0.001263915872
0.001306517024
0.001296528781
0.001240181491
0.0001197148463
0.0001993952289
0.0002351727866
0.0003009953654
0.0003870822392
0.0004791850128
0.0005575357578
0.0006107379326
0.0006364933939
0.0006457983161
0.0006532033902
0.0006677392433
0.0006884865847
0.0007108480574
0.0007325401743
0.0007576525532
0.0007921676078
0.0008364291643
0.0008913177498
0.0009679497883
0.001065386006
0.001165430308
0.001246854996
0.001289623656
0.001276289867
0.001222191726
0.000124097454
0.0002181923478
0.0002370822706
0.0002863759713
0.0003674212748
0.0004634698014
0.0005506268923
0.0006117371094
0.0006431456646
0.0006561964845
0.0006637113066
0.0006762740121
0.0006959217956
0.000724783432
0.0007602256432
0.000798596342
0.0008361975297
0.0008704933672
0.0009040603397
0.000958928618
0.001040091555
0.001130038298
0.001207199947
0.001252733654
0.001235504308
0.001182783905
0.0001277333815
0.0002428944602
0.0002553827763
0.000297610359
0.0003709768254
0.0004519743112
0.0005389555972
0.000602200811
0.0006359284882
0.0006568559644
0.0006748936543
0.0007021508361
0.0007331097043
0.0007682461194
0.0008031362103
0.0008311223073
0.0008580319231
0.0008417499844
0.000896128731
0.0009395852923
0.001002728625
0.00107887217
0.001147127633
0.001192346257
0.001177745748
0.001126171815
0.0001310913583
0.0002744246622
0.0002990740641
0.0003705142423
0.0004465050435
0.0004751806679
0.0005307335818
0.0005896996291
0.0006290100056
0.000675554796
0.0006955550009
0.0007094135884
0.0007552099455
0.0007914791334
0.0008151789051
0.0008270730228
0.0007938800225
0.000757267888
0.0008366632197
0.0009095978902
0.0009546494277
0.001013265444
0.001070120387
0.001102212622
0.001095887783
0.001065792411
0.0001343024751
0.000311664024
0.0003722807858
0.0005095050931
0.0005960065404
0.0005606349492
0.0005406699322
0.0005979546966
0.0007015272994
0.000846243397
0.0008553387503
0.0007495048285
0.0007654466574
0.0007948703669
0.0008039760094
0.0008052917493
0.0008108124579
0.0008234126498