/*--------------------------------*- C++ -*----------------------------------*\
  =========                 |
  \\      /  F ield         | OpenFOAM: The Open Source CFD Toolbox
   \\    /   O peration     | Website:  https://openfoam.org
    \\  /    A nd           | Version:  8
     \\/     M anipulation  |
\*---------------------------------------------------------------------------*/
FoamFile
{
    version     2.0;
    format      ascii;
    class       volScalarField;
    location    "1.8";
    object      O2;
}
// * * * * * * * * * * * * * * * * * * * * * * * * * * * * * * * * * * * * * //

dimensions      [0 0 0 0 0 0 0];

internalField   nonuniform List<scalar> 
67410
(
0.2099990588
0.209999102
0.2099992021
0.209999316
0.2099994365
0.2099995625
0.2099996838
0.2099997781
0.2099998237
0.2099998132
0.2099997553
0.2099996676
0.209999569
0.2099994795
0.2099994182
0.2099993917
0.2099993665
0.2099993166
0.2099993317
0.2099993905
0.2099994539
0.2099994556
0.2099994724
0.209999531
0.2099997314
0.209999855
0.2099992266
0.2099993291
0.2099994413
0.2099995656
0.2099996859
0.2099997921
0.2099998709
0.2099999078
0.2099998988
0.2099998538
0.2099997905
0.2099997223
0.2099996574
0.2099996096
0.2099995984
0.2099996321
0.2099996573
0.2099996387
0.2099996514
0.2099996645
0.2099996716
0.2099996705
0.2099996996
0.2099997764
0.2099999225
0.2100000092
0.2099995135
0.2099996095
0.2099996547
0.2099997444
0.2099998407
0.2099999187
0.2099999615
0.2099999596
0.2099999205
0.2099998669
0.2099998192
0.2099997814
0.2099997494
0.2099997316
0.2099997421
0.2099997872
0.2099998036
0.2099997761
0.2099997833
0.2099998052
0.2099998533
0.2099999124
0.2099999795
0.210000076
0.2100001472
0.210000179
0.2100002967
0.2100000163
0.2099998669
0.2099998746
0.209999925
0.2099999671
0.2099999793
0.2099999551
0.2099999094
0.2099998694
0.2099998481
0.2099998336
0.2099998262
0.2099998326
0.2099998608
0.2099999001
0.2099998794
0.2099998625
0.2099999151
0.2099999896
0.2100000807
0.21000017
0.2100002538
0.2100003532
0.2100003719
0.2100003612
0.2100013585
0.2100005981
0.2100001037
0.2099999775
0.2099999644
0.2099999712
0.2099999668
0.2099999392
0.2099999002
0.2099998745
0.2099998702
0.2099998769
0.2099998939
0.209999924
0.2099999663
0.2100000016
0.209999995
0.2100000386
0.2100001335
0.210000228
0.2100003252
0.2100004124
0.2100005036
0.2100005908
0.2100005769
0.2100005411
0.2100020922
0.2100012356
0.2100003947
0.2100000862
0.2099999938
0.2099999684
0.2099999644
0.2099999514
0.2099999283
0.2099999114
0.2099999175
0.2099999422
0.2099999822
0.2100000345
0.2100001048
0.2100001759
0.2100002392
0.2100003244
0.2100004069
0.2100004779
0.2100005508
0.2100006238
0.2100007129
0.2100007469
0.2100007506
0.2100007022
0.2100024279
0.2100017607
0.2100007735
0.2100002636
0.2100000736
0.2100000066
0.2100000132
0.2100000278
0.2100000326
0.2100000271
0.2100000276
0.2100000526
0.2100001115
0.2100002029
0.2100003244
0.2100004523
0.2100005602
0.2100006406
0.2100006814
0.2100007108
0.2100007452
0.2100007918
0.2100008781
0.2100008145
0.2100008815
0.2100008451
0.2100026012
0.210002172
0.2100012595
0.2100006008
0.2100002791
0.2100001175
0.2100001221
0.2100001538
0.2100001856
0.2100001949
0.210000189
0.2100002081
0.210000288
0.2100004226
0.210000591
0.2100007458
0.2100008611
0.2100009378
0.2100009369
0.2100009256
0.2100009191
0.2100009435
0.2100010634
0.2100008981
0.2100009716
0.2100009717
0.2100027201
0.2100025159
0.2100018227
0.2100011481
0.2100006491
0.2100003017
0.2100002705
0.2100002906
0.2100003356
0.2100003614
0.2100003562
0.2100003945
0.2100005073
0.2100006588
0.2100008303
0.2100009812
0.2100011094
0.2100012183
0.2100011741
0.2100011269
0.2100010821
0.2100010745
0.2100011463
0.2100009342
0.2100010031
0.2100009806
0.2100028082
0.2100027897
0.2100023436
0.2100017358
0.2100010661
0.2100005612
0.2100004638
0.2100004718
0.2100005447
0.210000568
0.2100004897
0.2100005306
0.2100006607
0.2100008175
0.2100009893
0.2100011519
0.2100013205
0.210001496
0.210001371
0.2100012889
0.2100011929
0.2100011132
0.2100009135
0.2100009421
0.2100009103
0.2100006701
0.2100028669
0.2100029558
0.2100026182
0.2100019574
0.2100012377
0.2100009012
0.2100007125
0.2100007483
0.2100008556
0.2100007555
0.2100004806
0.2100006056
0.2100007302
0.2100008934
0.2100010742
0.2100012699
0.2100015006
0.2100017903
0.210001483
0.2100013747
0.2100012635
0.2100011722
0.2100010968
0.2100010011
0.2100009169
0.2100008396
0.2100028728
0.2100029523
0.2100024974
0.2100016524
0.2100010857
0.2100012922
0.2100010003
0.2100011036
0.2100010361
0.2100004762
0.210000029
0.2100006377
0.2100007339
0.2100008912
0.2100010317
0.2100011722
0.2100013013
0.2100013922
0.2100013573
0.2100013045
0.2100012409
0.2100011762
0.2100011198
0.2100010277
0.2100009266
0.2100008121
0.2100027965
0.2100027809
0.2100021585
0.2100012451
0.2100009503
0.2100016229
0.2100012473
0.2100012302
0.210000449
0.2099992966
0.2099989895
0.2100006021
0.2100006591
0.2100008548
0.2100009559
0.2100010769
0.2100011794
0.2100012459
0.2100012286
0.2100011946
0.2100011498
0.210001101
0.2100010655
0.2100009957
0.2100009242
0.2100007923
0.2100026997
0.2100026904
0.2100022018
0.2100014443
0.2100013774
0.2100018373
0.2100011937
0.2100005753
0.2099992821
0.2099982166
0.2099984734
0.2100004764
0.2100004362
0.210000794
0.2100008518
0.2100009567
0.2100010264
0.2100010697
0.2100010706
0.2100010481
0.2100010133
0.2100009743
0.2100009584
0.2100009164
0.2100009254
0.2100008171
0.2100027269
0.2100028802
0.210002903
0.2100027762
0.2100025039
0.2100021332
0.2100014208
0.2100009466
0.2100007266
0.2100005689
0.2100004847
0.2100006049
0.2100006832
0.2100007419
0.2100007896
0.2100008507
0.2100008899
0.2100009197
0.2100009198
0.2100008947
0.2100008566
0.2100008194
0.2100008219
0.210000804
0.2100009509
0.2100008249
0.2100027366
0.210002834
0.2100027711
0.2100026339
0.2100024025
0.2100022387
0.2100016596
0.2100011631
0.2100008103
0.2100005005
0.2100003834
0.2100006223
0.2100006678
0.2100006946
0.2100007128
0.2100007789
0.2100007851
0.21000082
0.2100008187
0.2100007803
0.2100007257
0.210000676
0.2100006862
0.2100006934
0.21000099
0.2100009272
0.2100027659
0.210002758
0.2100026306
0.2100024949
0.2100023693
0.2100021885
0.2100019042
0.2100014083
0.2100010451
0.2100007952
0.2100006863
0.2100006919
0.2100006031
0.2100003876
0.2100005837
0.2100007784
0.2100007276
0.210000823
0.2100008264
0.210000768
0.2100006768
0.2100005813
0.2100005736
0.2100006142
0.2100010166
0.210001369
0.2100027493
0.2100025828
0.2100023971
0.2100022886
0.2100021791
0.2100020829
0.2100019869
0.2100016082
0.2100012325
0.2100009139
0.2100007015
0.2100006019
0.2100005826
0.2100006687
0.2100008493
0.210000997
0.2100007707
0.2100011578
0.2100011718
0.2100009785
0.2100007173
0.2100004672
0.2100004922
0.2100005269
0.2100006679
0.2100006257
0.2100026589
0.2100023573
0.210002166
0.2100020963
0.2100019865
0.2100019294
0.2100019719
0.2100017149
0.2100013825
0.2100010666
0.2100008347
0.2100006654
0.2100005709
0.210000561
0.2100005815
0.2100006243
0.2100007745
0.2100009186
0.2100009328
0.2100007739
0.2100005327
0.2100000237
0.2100004271
0.2100004749
0.2100006182
0.2100005762
0.2100024903
0.2100021214
0.2100019185
0.2100018254
0.2100016981
0.2100017031
0.210001874
0.2100017324
0.2100014473
0.210001083
0.2100007865
0.2100005432
0.2100004334
0.2100004676
0.2100004887
0.210000518
0.2100005606
0.2100006261
0.2100006099
0.2100004168
0.2100000168
0.2099992619
0.210000041
0.2100002223
0.2100003728
0.2100004197
0.2100022427
0.2100018943
0.2100016207
0.2100014745
0.2100013539
0.2100014292
0.2100017097
0.2100016875
0.2100015074
0.2100011316
0.2100008397
0.2100006332
0.2100004838
0.2100003828
0.2100003345
0.2100003364
0.2100003765
0.210000401
0.2100003043
0.2100000177
0.2099994917
0.2099986187
0.2099995215
0.2099998632
0.2100000678
0.2100001139
0.2100019048
0.2100017319
0.210001335
0.2100011246
0.210001033
0.2100011903
0.2100015364
0.2100016018
0.2100015233
0.2100011569
0.2100008226
0.2100005685
0.2100003887
0.2100002739
0.2100002112
0.2100001967
0.2100002215
0.2100002424
0.2100001701
0.2099999236
0.2099994199
0.2099984254
0.2099994543
0.2099997728
0.2099998826
0.2099998779
0.2100015429
0.2100017518
0.2100013245
0.2100010004
0.210000939
0.2100011731
0.2100014581
0.2100015782
0.210001534
0.2100012047
0.2100008666
0.210000595
0.2100003908
0.210000248
0.2100001641
0.2100001365
0.2100001519
0.2100001577
0.2100000651
0.2099997877
0.2099992583
0.2099982076
0.209999234
0.2099996212
0.2099996799
0.209999636
0.2100012685
0.2100017985
0.2100019059
0.2100015271
0.2100012354
0.2100012815
0.2100014529
0.2100016255
0.2100015864
0.2100012862
0.2100009507
0.2100006612
0.2100004322
0.2100002681
0.2100001674
0.2100001203
0.2100000965
0.2100000255
0.2099998021
0.2099993863
0.2099988334
0.2099978407
0.2099987863
0.2099994637
0.2099994537
0.2099995244
0.2100008426
0.2100014991
0.2100017764
0.2100018714
0.2100014973
0.2100012633
0.2100013877
0.2100015775
0.2100016099
0.2100013625
0.2100010489
0.2100007513
0.2100005004
0.2100003132
0.2100001868
0.2100001045
0.2100000462
0.2099999777
0.2099998459
0.2099996465
0.2099994741
0.2099984294
0.2099993414
0.2099995636
0.2099995706
0.2100005083
0.2100012836
0.2100015442
0.2100017365
0.2100017564
0.2100016223
0.2100014786
0.2100014891
0.2100015846
0.2100014058
0.210001129
0.2100008366
0.2100005792
0.2100003848
0.2100002412
0.2100001205
0.2100000101
0.2099998987
0.2099997754
0.209999486
0.209998944
0.2099977883
0.2099987776
0.2099991697
0.20999939
0.2100009835
0.2100018149
0.2100020613
0.2100021501
0.2100017748
0.2100015687
0.2100013482
0.2100013783
0.2100015067
0.210001394
0.2100011632
0.2100008847
0.2100006332
0.210000442
0.2100002827
0.2100001294
0.2099999726
0.209999818
0.2099997562
0.2099994126
0.2099988312
0.2099976344
0.2099988578
0.2099994032
0.2099996445
0.210001337
0.2100021816
0.2100022753
0.2100018948
0.2100009578
0.2100012496
0.2100010698
0.2100012063
0.2100013642
0.2100013235
0.2100011652
0.2100009425
0.2100007475
0.2100006141
0.2100004802
0.210000303
0.2100001124
0.2099999198
0.2099996682
0.2099991558
0.2099984211
0.209996778
0.2099985551
0.2099994344
0.2099998492
0.2100021371
0.2100025574
0.2100019404
0.2100002426
0.2099994884
0.2100005275
0.2100005814
0.2100010988
0.2100012489
0.2100012853
0.2100012746
0.2100011646
0.210000965
0.21000071
0.2100004374
0.2100001774
0.2099999929
0.2099999436
0.2099994928
0.209999271
0.2099990824
0.2099982786
0.2099993399
0.2099996438
0.2099999226
0.210000096
0.2100026886
0.2100010684
0.2099984178
0.2099971057
0.2099975474
0.2099993966
0.2099992544
0.2100004
0.2100009475
0.2100010347
0.2100010969
0.2100011263
0.2100011078
0.2100010021
0.2100007844
0.2100004935
0.2100001873
0.2099998947
0.2099996123
0.2099993858
0.209999289
0.2099989524
0.2099995562
0.2099998588
0.2100002105
0.2100003723
0.2099990471
0.2099990677
0.2099991581
0.2099992638
0.2099993721
0.2099994792
0.2099995794
0.2099996634
0.2099997221
0.2099997528
0.2099997596
0.2099997461
0.2099997146
0.2099996668
0.2099996059
0.2099995385
0.209999471
0.2099994062
0.209999373
0.2099993654
0.209999383
0.2099993637
0.2099993848
0.2099994668
0.2099996188
0.2099997636
0.2099992106
0.209999296
0.209999401
0.2099995159
0.2099996238
0.2099997141
0.2099997806
0.2099998229
0.2099998501
0.2099998802
0.2099999197
0.2099999592
0.2099999874
0.2099999936
0.2099999701
0.2099999181
0.2099998428
0.2099997699
0.2099997272
0.2099996992
0.2099996845
0.2099996649
0.209999683
0.2099997601
0.2099998516
0.2099999628
0.2099994602
0.2099995882
0.2099996366
0.2099997154
0.2099997994
0.2099998676
0.2099999128
0.2099999411
0.2099999729
0.2100000237
0.2100000826
0.2100001345
0.2100001762
0.210000198
0.2100001911
0.2100001436
0.2100000338
0.2099999248
0.2099998857
0.2099998995
0.2099999536
0.2100000089
0.2100000669
0.210000138
0.210000181
0.2100002303
0.2100001643
0.2100000244
0.2099998903
0.2099998836
0.2099999222
0.2099999607
0.2099999878
0.2100000128
0.210000057
0.210000122
0.2100001899
0.2100002602
0.2100003199
0.2100003509
0.2100003362
0.2100002609
0.210000112
0.2099999986
0.2100000218
0.2100001278
0.2100002503
0.2100003478
0.2100004314
0.2100004988
0.2100005217
0.2100005194
0.210001227
0.2100006416
0.2100001692
0.2100000277
0.2100000042
0.2100000123
0.2100000291
0.2100000578
0.2100001117
0.2100001849
0.2100002616
0.21000034
0.2100004031
0.2100004286
0.2100003951
0.2100002943
0.2100001605
0.2100001262
0.2100002424
0.2100004095
0.2100005538
0.2100006715
0.2100007711
0.2100008356
0.2100008416
0.2100007948
0.2100020024
0.2100012522
0.2100004727
0.2100001637
0.2100000663
0.2100000476
0.2100000636
0.2100001001
0.2100001576
0.21000023
0.2100003013
0.2100003679
0.2100004162
0.2100004295
0.2100003878
0.2100003186
0.2100002885
0.21000037
0.2100005341
0.2100007035
0.2100008398
0.2100009589
0.2100010521
0.2100011217
0.2100011068
0.2100010322
0.2100023813
0.2100016982
0.2100008078
0.2100003281
0.2100001471
0.2100001023
0.2100001215
0.2100001639
0.2100002136
0.2100002624
0.2100003066
0.210000344
0.2100003696
0.2100003815
0.2100003917
0.2100004302
0.2100005279
0.2100006827
0.210000834
0.2100009707
0.2100010806
0.2100011779
0.2100012437
0.2100013329
0.2100012935
0.2100012001
0.2100025773
0.210002038
0.21000119
0.2100005738
0.210000292
0.2100002048
0.2100002156
0.210000253
0.2100002878
0.2100003057
0.2100003103
0.2100003177
0.2100003449
0.2100004035
0.2100005038
0.2100006501
0.2100008345
0.2100010242
0.2100011197
0.2100012054
0.2100012678
0.2100013233
0.2100013142
0.2100014089
0.2100013946
0.2100012766
0.2100027291
0.2100023333
0.2100016128
0.2100009282
0.2100005247
0.2100003616
0.210000337
0.2100003469
0.2100003617
0.2100003668
0.210000368
0.2100003867
0.2100004413
0.2100005459
0.2100007094
0.2100009252
0.2100011689
0.2100014119
0.210001393
0.2100014222
0.2100014204
0.2100014193
0.2100013538
0.2100014677
0.2100014157
0.2100012775
0.2100028586
0.2100025899
0.2100020245
0.2100013425
0.2100008301
0.2100005681
0.2100004804
0.2100004354
0.2100004194
0.2100004173
0.2100004272
0.2100004739
0.2100005574
0.2100007013
0.2100009144
0.2100011875
0.2100014939
0.2100018913
0.2100016476
0.210001636
0.2100015735
0.2100015174
0.2100014713
0.2100014808
0.2100013884
0.2100013985
0.2100029593
0.2100027833
0.2100023555
0.2100017003
0.2100011598
0.2100008091
0.2100006425
0.2100005109
0.2100004558
0.2100004576
0.2100004722
0.2100005447
0.2100006386
0.2100008092
0.210001062
0.2100014032
0.2100018636
0.2100028461
0.2100018475
0.210001813
0.2100016842
0.21000161
0.2100015468
0.2100014656
0.2100013756
0.210001251
0.2100030207
0.2100028963
0.2100025764
0.2100019532
0.2100014805
0.2100010554
0.2100008165
0.2100005989
0.2100005672
0.2100006248
0.2100006062
0.2100006157
0.2100006789
0.2100008243
0.2100010224
0.2100012469
0.2100014698
0.2100016676
0.2100016939
0.2100016981
0.2100016619
0.2100015981
0.2100015221
0.2100014232
0.2100013118
0.2100011542
0.2100030384
0.2100029434
0.2100027282
0.2100021324
0.2100017567
0.2100012931
0.2100009985
0.2100007315
0.2100007163
0.2100007181
0.2100006998
0.2100006056
0.2100006818
0.2100008133
0.210000986
0.2100011878
0.2100013973
0.2100015855
0.2100015903
0.2100016011
0.2100015783
0.2100015186
0.2100014434
0.2100013401
0.2100012406
0.2100010442
0.2100030365
0.2100029695
0.2100028849
0.2100024697
0.2100021597
0.2100016069
0.2100012301
0.2100010483
0.210001137
0.2100011061
0.2100010465
0.2100005891
0.2100006583
0.2100007713
0.2100009037
0.2100010594
0.2100012133
0.2100013406
0.2100014033
0.2100014274
0.2100014137
0.2100013565
0.2100012913
0.2100012033
0.2100011617
0.210000953
0.2100030398
0.2100029923
0.2100029143
0.2100027018
0.2100023719
0.2100018796
0.2100014549
0.2100010722
0.2100008382
0.2100006275
0.2100004812
0.2100004559
0.2100005908
0.2100006821
0.2100008009
0.2100009161
0.2100010332
0.2100011322
0.2100011909
0.2100012084
0.2100011853
0.2100011279
0.2100010794
0.2100010204
0.210001099
0.2100008625
0.2100030091
0.2100029614
0.2100028779
0.2100027392
0.2100024908
0.2100020932
0.2100016728
0.2100012978
0.2100010374
0.2100008221
0.2100006473
0.2100005762
0.2100005513
0.210000599
0.2100006881
0.2100007674
0.2100008575
0.2100009417
0.2100009955
0.2100009984
0.2100009509
0.2100008784
0.2100008464
0.2100008276
0.2100010522
0.210000774
0.2100029726
0.2100029068
0.2100028188
0.2100027112
0.2100024841
0.2100021434
0.2100018211
0.2100014645
0.2100011628
0.2100008897
0.2100006617
0.2100005125
0.2100004996
0.2100005902
0.2100005436
0.210000587
0.2100006978
0.2100008051
0.2100008708
0.2100008418
0.2100007454
0.2100006408
0.2100006084
0.2100005966
0.2100007013
0.2100003239
0.2100029198
0.2100028177
0.2100027459
0.2100026609
0.2100024349
0.2100021719
0.2100019172
0.2100016192
0.21000131
0.2100010125
0.2100007763
0.2100006299
0.2100005505
0.2100004791
0.2100003371
0.2100001239
0.2100005334
0.2100007309
0.2100008357
0.2100006228
0.21000052
0.2100004183
0.2100004157
0.2100004424
0.2100005479
0.2100004959
0.2100028472
0.2100027203
0.2100026862
0.2100025602
0.2100023404
0.2100021472
0.2100019496
0.2100017044
0.2100014008
0.2100010834
0.210000822
0.2100006389
0.2100005273
0.2100004622
0.2100004456
0.2100004445
0.2100004949
0.2100004835
0.2100008413
0.2100005037
0.2100002948
0.2100002209
0.2100002478
0.2100003523
0.210000509
0.2100005166
0.2100027568
0.210002635
0.2100026036
0.2100024049
0.2100022101
0.2100020896
0.2100019542
0.2100017606
0.2100014708
0.2100011333
0.2100008599
0.2100006727
0.2100005334
0.2100004079
0.2100003608
0.2100003216
0.2100003066
0.2100002845
0.2100002526
0.2100001539
0.2099999875
0.2099999988
0.209999997
0.2100001634
0.2100003156
0.210000363
0.210002667
0.2100025637
0.2100024902
0.2100022364
0.2100020716
0.210002017
0.2100019379
0.2100018005
0.2100015445
0.2100012032
0.2100009002
0.2100006632
0.2100004813
0.210000342
0.2100002444
0.2100001755
0.2100001291
0.2100000909
0.2100000518
0.209999951
0.2099997607
0.2099998278
0.2099997904
0.2099999341
0.2100000479
0.2100000996
0.2100026156
0.2100024905
0.2100023942
0.210002112
0.2100019661
0.2100019537
0.2100019062
0.2100018127
0.2100015994
0.2100012695
0.2100009422
0.2100006699
0.2100004508
0.2100002795
0.210000152
0.2100000571
0.2099999863
0.2099999284
0.209999869
0.2099997682
0.2099995523
0.2099995836
0.2099995898
0.209999715
0.209999791
0.2099998203
0.2100026231
0.2100024184
0.210002343
0.210002089
0.2100019179
0.2100018862
0.2100018442
0.2100017877
0.2100016377
0.2100013427
0.2100010138
0.2100007217
0.2100004761
0.2100002744
0.210000115
0.2099999927
0.2099999012
0.2099998306
0.2099997605
0.2099996607
0.2099994402
0.2099994863
0.2099994543
0.2099995368
0.2099995619
0.2099995686
0.2100024638
0.2100023219
0.2100022163
0.2100020795
0.2100018486
0.2100017324
0.2100017133
0.2100017383
0.2100016707
0.2100014177
0.2100011014
0.2100008019
0.210000537
0.2100003091
0.2100001223
0.2099999755
0.2099998636
0.2099997718
0.2099996791
0.2099995521
0.2099993269
0.2099993063
0.2099993034
0.2099993038
0.2099993798
0.2099993419
0.2100021525
0.2100021969
0.2100021219
0.2100020044
0.2100018074
0.2100016369
0.210001602
0.210001669
0.2100016708
0.210001471
0.2100011884
0.2100009007
0.2100006298
0.2100003865
0.2100001847
0.2100000237
0.209999893
0.2099997803
0.2099996588
0.2099994792
0.2099991711
0.2099991217
0.2099991486
0.2099992875
0.2099993301
0.2100021529
0.2100022171
0.2100021044
0.2100019697
0.2100017969
0.2100015871
0.2100015016
0.2100015727
0.2100016248
0.2100014888
0.2100012621
0.2100010072
0.2100007446
0.2100004936
0.21000028
0.2100001034
0.2099999384
0.2099997704
0.2099995723
0.2099993418
0.2099990833
0.2099990231
0.2099990503
0.2099992121
0.2099992959
0.2100022565
0.2100021169
0.2100020364
0.2100019012
0.2100016539
0.2100014095
0.2100013569
0.2100014501
0.2100015348
0.2100014609
0.2100013042
0.2100010972
0.2100008489
0.2100005821
0.2100003427
0.2100001425
0.2099999539
0.2099997421
0.20999945
0.2099991591
0.209998818
0.2099987513
0.2099988808
0.2099991688
0.2099993617
0.2100021982
0.2100021012
0.2100020148
0.2100017723
0.2100017061
0.2100011171
0.2100011662
0.2100012897
0.2100014079
0.2100013858
0.2100013079
0.2100011689
0.2100009552
0.2100006792
0.2100004008
0.2100001463
0.2099998933
0.20999963
0.2099993466
0.2099990946
0.2099987751
0.2099989641
0.2099989479
0.2099992869
0.2099995197
0.2100022422
0.2100022034
0.2100019457
0.2100016415
0.2100016903
0.2100011478
0.2100010792
0.2100011812
0.2100012847
0.2100012758
0.2100012341
0.2100011275
0.210000959
0.2100007418
0.2100005066
0.2100002578
0.209999976
0.2099996606
0.2099994886
0.2099990784
0.209998718
0.209998383
0.2099988948
0.2099993154
0.2099997066
0.2099998231
0.2100023781
0.2100019329
0.2100017536
0.2100012465
0.2100016177
0.2100012822
0.2100008962
0.2100009446
0.2100011005
0.2100010944
0.2100010913
0.2100010472
0.2100009614
0.2100008123
0.210000608
0.2100003765
0.210000134
0.2099998497
0.2099995697
0.2099993153
0.2099990901
0.2099989467
0.2099992854
0.2099996521
0.2099999681
0.210000042
0.2099990409
0.2099990428
0.2099991233
0.2099992206
0.2099993195
0.2099994154
0.2099995047
0.2099995823
0.209999643
0.2099996847
0.2099997091
0.2099997182
0.2099997128
0.2099996917
0.2099996548
0.2099996044
0.209999543
0.2099994738
0.2099994123
0.2099993606
0.20999933
0.2099992885
0.2099993012
0.2099993798
0.2099995092
0.2099996519
0.2099992013
0.2099992702
0.2099993691
0.2099994765
0.2099995782
0.2099996655
0.2099997343
0.2099997843
0.2099998219
0.2099998573
0.2099998989
0.2099999466
0.2099999915
0.2100000206
0.2100000221
0.2099999904
0.20999993
0.2099998575
0.2099997923
0.2099997319
0.2099996768
0.2099996183
0.2099995985
0.2099996477
0.2099997539
0.2099998762
0.2099994393
0.2099995653
0.2099996199
0.2099996927
0.2099997721
0.2099998419
0.2099998964
0.2099999385
0.209999978
0.2100000267
0.2100000896
0.2100001628
0.2100002333
0.2100002799
0.2100002838
0.210000236
0.2100001451
0.2100000442
0.2099999745
0.2099999338
0.2099999174
0.2099999148
0.2099999385
0.2099999965
0.2100000671
0.2100001424
0.2100000145
0.210000011
0.2099999038
0.2099998916
0.2099999259
0.2099999691
0.2100000088
0.2100000474
0.2100000949
0.2100001601
0.2100002441
0.2100003381
0.2100004246
0.2100004747
0.2100004641
0.2100003816
0.2100002501
0.2100001273
0.2100000816
0.2100001009
0.21000016
0.2100002421
0.2100003363
0.2100004171
0.2100004575
0.2100004712
0.2100010954
0.2100006501
0.2100002184
0.2100000714
0.2100000428
0.2100000557
0.2100000844
0.2100001248
0.2100001819
0.2100002589
0.2100003525
0.2100004513
0.2100005379
0.210000579
0.2100005494
0.2100004414
0.2100002993
0.2100002065
0.2100002257
0.2100003233
0.2100004616
0.2100006233
0.2100007655
0.2100008527
0.2100008638
0.2100008257
0.2100019202
0.2100012722
0.2100005421
0.210000236
0.2100001347
0.2100001193
0.2100001432
0.2100001896
0.2100002528
0.2100003293
0.2100004137
0.2100004969
0.2100005626
0.2100005849
0.2100005487
0.2100004602
0.2100003761
0.2100003741
0.2100004656
0.2100006208
0.2100008085
0.2100009957
0.2100011392
0.2100012198
0.2100012054
0.2100011354
0.210002345
0.2100016864
0.2100008616
0.210000409
0.2100002315
0.2100001896
0.2100002116
0.2100002618
0.2100003216
0.2100003813
0.2100004367
0.210000486
0.2100005227
0.2100005372
0.2100005286
0.2100005179
0.2100005497
0.2100006598
0.2100007817
0.2100009532
0.2100011383
0.210001304
0.2100014245
0.2100014882
0.2100014565
0.2100013664
0.2100025505
0.2100019806
0.2100011936
0.2100006336
0.2100003736
0.2100002968
0.2100003067
0.21000035
0.2100003963
0.2100004305
0.2100004515
0.210000468
0.2100004894
0.2100005242
0.2100005837
0.2100006846
0.2100008418
0.2100010696
0.2100011326
0.2100012802
0.2100014183
0.2100015384
0.2100016223
0.2100016492
0.2100016189
0.2100015162
0.2100027036
0.2100022385
0.2100015528
0.2100009407
0.2100005898
0.2100004562
0.210000432
0.2100004514
0.2100004771
0.2100004914
0.2100004955
0.210000505
0.2100005375
0.2100006128
0.2100007481
0.210000954
0.2100012294
0.2100016711
0.210001488
0.2100015908
0.2100016498
0.2100017099
0.2100017694
0.2100017442
0.2100017056
0.2100016103
0.2100028426
0.2100024787
0.2100019147
0.2100013031
0.2100008716
0.2100006644
0.2100005846
0.2100005613
0.2100005595
0.2100005557
0.2100005524
0.2100005685
0.2100006223
0.2100007419
0.2100009499
0.2100012638
0.210001693
0.2100026799
0.2100018273
0.2100019033
0.210001843
0.2100018454
0.2100019386
0.21000179
0.2100017286
0.2100016764
0.2100029615
0.2100026769
0.2100022185
0.2100016276
0.2100011667
0.210000898
0.2100007577
0.2100006754
0.2100006416
0.2100006154
0.2100006062
0.2100006184
0.2100006857
0.2100008447
0.2100011428
0.2100016637
0.2100025548
0.2100050839
0.2100020955
0.2100022325
0.2100019726
0.2100019258
0.2100018773
0.2100017791
0.2100016896
0.210001541
0.2100030446
0.2100028082
0.2100024191
0.2100018453
0.2100014192
0.2100011243
0.2100009375
0.2100007922
0.2100007291
0.2100006651
0.2100006684
0.2100006314
0.2100006916
0.2100008147
0.2100010109
0.2100012555
0.210001514
0.2100017733
0.2100018604
0.2100019363
0.2100019413
0.210001902
0.2100018431
0.2100017338
0.2100016158
0.2100014466
0.210003085
0.2100028772
0.2100025479
0.2100020243
0.2100016481
0.2100013305
0.2100011049
0.210000901
0.2100007653
0.2100006527
0.2100006765
0.2100005643
0.210000671
0.2100007901
0.2100009809
0.210001235
0.2100015347
0.2100018754
0.2100018054
0.2100018685
0.210001878
0.2100018137
0.2100017351
0.2100016073
0.2100014795
0.2100012868
0.2100031008
0.2100029264
0.2100026952
0.2100022796
0.2100019118
0.2100015407
0.2100012729
0.210001007
0.2100008376
0.2100007399
0.210000738
0.2100004865
0.2100006288
0.2100007324
0.2100008844
0.2100010766
0.2100012823
0.2100014718
0.2100015945
0.2100016758
0.210001707
0.2100016205
0.2100015318
0.2100014006
0.2100012898
0.2100010939
0.2100031049
0.2100029636
0.210002806
0.2100025309
0.2100021497
0.2100017347
0.2100014701
0.2100011628
0.2100008962
0.2100006193
0.210000494
0.210000415
0.21000056
0.2100006462
0.2100007707
0.2100009203
0.210001079
0.2100012283
0.2100013358
0.2100014026
0.2100014166
0.2100013202
0.2100012301
0.2100011214
0.2100010508
0.2100008962
0.2100030809
0.2100029648
0.2100028453
0.2100026716
0.2100024075
0.210002031
0.2100016835
0.2100013659
0.2100011112
0.2100008738
0.2100006968
0.2100005866
0.2100005601
0.210000583
0.2100006513
0.2100007568
0.2100008606
0.2100009647
0.2100010591
0.2100011155
0.2100011166
0.2100009722
0.2100008813
0.2100007998
0.2100007403
0.2100006742
0.2100030387
0.2100029397
0.2100028259
0.2100026632
0.2100024266
0.2100021185
0.2100018116
0.2100015103
0.2100012374
0.210000975
0.2100007515
0.2100005947
0.2100005344
0.2100005815
0.2100005736
0.2100005961
0.2100006366
0.2100006974
0.2100007892
0.2100008493
0.2100008546
0.2100006272
0.2100005306
0.2100004507
0.2100004109
0.2100003206
0.2100029813
0.2100028896
0.2100027747
0.2100026066
0.2100023904
0.2100021529
0.2100019035
0.2100016392
0.2100013585
0.2100010736
0.2100008209
0.210000627
0.2100004928
0.210000391
0.210000335
0.2100004565
0.2100003518
0.2100002685
0.2100003493
0.2100004014
0.2100004655
0.2100002891
0.2100002202
0.210000183
0.2100001866
0.2100001929
0.2100029095
0.2100028163
0.2100026909
0.2100025065
0.2100023129
0.2100021338
0.2100019407
0.2100017156
0.2100014332
0.2100011255
0.2100008471
0.2100006316
0.2100004901
0.2100003976
0.2100003312
0.2100002973
0.2100002394
0.2100002805
0.2100003752
0.2100002912
0.2100001685
0.2100000133
0.2099999813
0.2100000044
0.2100000442
0.2100000786
0.210002823
0.2100027249
0.2100025752
0.2100023827
0.2100022181
0.2100020937
0.2100019539
0.2100017749
0.2100015075
0.2100011868
0.2100008929
0.2100006627
0.2100004965
0.2100003589
0.2100002498
0.2100001919
0.2100001487
0.2100001224
0.210000095
0.2100000225
0.2099998577
0.2099997565
0.2099997573
0.2099998548
0.2099999264
0.2099999666
0.2100027243
0.2100026163
0.2100024442
0.2100022506
0.2100021199
0.2100020496
0.2100019554
0.2100018217
0.210001592
0.2100012766
0.2100009665
0.2100007011
0.2100004861
0.2100003138
0.21000018
0.2100000845
0.2100000135
0.2099999521
0.2099998921
0.209999787
0.2099995982
0.2099995566
0.2099995458
0.2099996831
0.2099997631
0.2099998029
0.2100026149
0.2100024901
0.2100023237
0.2100021409
0.2100020394
0.2100020053
0.2100019432
0.2100018448
0.2100016639
0.2100013682
0.2100010473
0.2100007572
0.2100005088
0.2100003016
0.2100001355
0.2100000089
0.2099999141
0.209999835
0.2099997478
0.2099996089
0.2099993783
0.209999331
0.2099993571
0.2099994791
0.2099995444
0.2099995588
0.2100024818
0.2100023507
0.2100022255
0.2100020756
0.21000197
0.2100019333
0.2100018935
0.2100018386
0.2100017136
0.2100014551
0.210001141
0.2100008394
0.2100005693
0.2100003342
0.2100001364
0.2099999769
0.2099998511
0.2099997457
0.2099996325
0.209999472
0.2099992166
0.2099991475
0.2099991889
0.2099992651
0.2099993201
0.2099992956
0.2100023297
0.2100022375
0.2100021389
0.2100020285
0.2100018742
0.2100017976
0.2100017866
0.2100017969
0.2100017365
0.2100015228
0.210001231
0.2100009335
0.2100006555
0.2100004028
0.2100001788
0.2099999867
0.2099998259
0.2099996893
0.2099995608
0.209999417
0.2099992193
0.209999128
0.2099990509
0.2099987746
0.2099991139
0.2099990472
0.2100021489
0.2100021687
0.210002073
0.210001983
0.2100018213
0.2100017017
0.2100016898
0.2100017356
0.2100017239
0.2100015578
0.2100013022
0.2100010257
0.2100007547
0.2100004969
0.210000258
0.210000042
0.2099998464
0.2099996698
0.2099995006
0.2099993175
0.2099990473
0.2099989645
0.2099989905
0.2099990631
0.2099990843
0.2100021803
0.2100021927
0.210002081
0.2100019542
0.2100017831
0.2100016257
0.21000159
0.2100016509
0.2100016711
0.2100015519
0.210001343
0.2100010998
0.2100008442
0.2100005859
0.2100003376
0.210000104
0.2099998741
0.2099996427
0.2099994128
0.2099991919
0.2099989194
0.2099988742
0.2099988909
0.2099990204
0.209999087
0.2100022298
0.2100021544
0.2100020521
0.2100019074
0.2100017178
0.210001556
0.2100014932
0.2100015531
0.2100015849
0.210001504
0.2100013446
0.2100011389
0.2100008979
0.210000631
0.2100003631
0.2100001118
0.2099998643
0.2099995943
0.2099993131
0.2099990339
0.2099986996
0.2099986897
0.2099987519
0.2099990003
0.2099991131
0.2100022574
0.2100021587
0.2100020134
0.2100018244
0.2100016726
0.2100015298
0.2100013859
0.2100014386
0.2100014725
0.2100014188
0.2100013063
0.2100011422
0.2100009256
0.2100006612
0.2100003777
0.2100001016
0.2099998327
0.2099995341
0.2099992712
0.2099990056
0.209998612
0.2099987055