/*--------------------------------*- C++ -*----------------------------------*\
  =========                 |
  \\      /  F ield         | OpenFOAM: The Open Source CFD Toolbox
   \\    /   O peration     | Website:  https://openfoam.org
    \\  /    A nd           | Version:  8
     \\/     M anipulation  |
\*---------------------------------------------------------------------------*/
FoamFile
{
    version     2.0;
    format      ascii;
    class       volScalarField;
    location    "1.8";
    object      p_rgh;
}
// * * * * * * * * * * * * * * * * * * * * * * * * * * * * * * * * * * * * * //

dimensions      [1 -1 -2 0 0 0 0];

internalField   nonuniform List<scalar> 
67410
(
100004.032
100004.007
100003.9984
100003.9847
100003.9721
100003.9599
100003.9492
100003.9414
100003.9377
100003.9399
100003.9472
100003.9572
100003.9658
100003.9692
100003.9682
100003.9669
100003.9727
100003.9848
100004
100004.0171
100004.0326
100004.0447
100004.051
100004.0472
100004.0231
100004.0229
100004.0158
100003.9954
100003.9864
100003.9713
100003.9563
100003.9404
100003.924
100003.9076
100003.8933
100003.8835
100003.8795
100003.8812
100003.8861
100003.8913
100003.8971
100003.9056
100003.918
100003.9293
100003.9362
100003.9383
100003.9365
100003.9322
100003.9272
100003.9163
100003.9139
100003.9133
100004.009
100003.9907
100003.9817
100003.9656
100003.9494
100003.9317
100003.9131
100003.8945
100003.8784
100003.8676
100003.8641
100003.8677
100003.8739
100003.8783
100003.8817
100003.8886
100003.9008
100003.9076
100003.9055
100003.8984
100003.8901
100003.8838
100003.8804
100003.8703
100003.8636
100003.8635
100004.0038
100003.9863
100003.9754
100003.9575
100003.9392
100003.919
100003.8975
100003.8765
100003.8585
100003.8472
100003.8455
100003.8508
100003.8576
100003.8625
100003.8667
100003.8743
100003.8838
100003.8828
100003.872
100003.86
100003.8524
100003.8515
100003.8547
100003.8465
100003.8344
100003.8293
100003.9946
100003.9798
100003.969
100003.9505
100003.9312
100003.9099
100003.8878
100003.8664
100003.8485
100003.8371
100003.8347
100003.8392
100003.8466
100003.8548
100003.8645
100003.8728
100003.876
100003.8683
100003.8539
100003.8423
100003.8396
100003.847
100003.8574
100003.8502
100003.8335
100003.8224
100003.9755
100003.9669
100003.9582
100003.9416
100003.9227
100003.9014
100003.8803
100003.86
100003.843
100003.8313
100003.8268
100003.8298
100003.8392
100003.8514
100003.8644
100003.8725
100003.873
100003.8651
100003.8524
100003.8442
100003.8462
100003.8582
100003.8765
100003.8676
100003.8475
100003.8321
100003.9555
100003.9517
100003.9457
100003.9321
100003.9147
100003.894
100003.8749
100003.8566
100003.8418
100003.8313
100003.8264
100003.8284
100003.8382
100003.8516
100003.865
100003.8752
100003.8812
100003.8812
100003.8717
100003.8659
100003.8689
100003.8798
100003.9116
100003.8869
100003.8716
100003.8509
100003.9384
100003.9351
100003.9321
100003.9213
100003.9063
100003.8869
100003.8703
100003.8536
100003.8408
100003.8317
100003.8269
100003.828
100003.8371
100003.8505
100003.8678
100003.8878
100003.909
100003.9244
100003.9144
100003.9077
100003.9073
100003.9125
100003.9729
100003.8989
100003.9076
100003.8773
100003.9225
100003.9174
100003.9146
100003.9053
100003.8944
100003.8787
100003.8658
100003.8497
100003.8375
100003.8281
100003.8233
100003.8238
100003.8338
100003.8509
100003.8787
100003.9163
100003.9621
100004.0044
100003.9833
100003.9709
100003.9648
100003.968
100004.0569
100003.9355
100003.9507
100003.9185
100003.9083
100003.8999
100003.8933
100003.883
100003.8762
100003.8685
100003.862
100003.8447
100003.83
100003.8174
100003.8152
100003.8188
100003.8324
100003.8561
100003.8991
100003.9619
100004.042
100004.1351
100004.0761
100004.0492
100004.0268
100004.0202
100004.0309
100003.9884
100003.9869
100003.9612
100003.8986
100003.8855
100003.8722
100003.8611
100003.8567
100003.8594
100003.8631
100003.8382
100003.8131
100003.7939
100003.8034
100003.8149
100003.8345
100003.8626
100003.9209
100004.0132
100004.1486
100004.368
100004.1764
100004.124
100004.0847
100004.0672
100004.0552
100004.0202
100004.0009
100003.9617
100003.8916
100003.874
100003.8568
100003.859
100003.8531
100003.8615
100003.8753
100003.8286
100003.788
100003.7744
100003.8003
100003.8131
100003.8388
100003.8556
100003.9031
100003.9701
100004.0546
100004.1376
100004.136
100004.1276
100004.1174
100004.1086
100004.0976
100004.0637
100004.0473
100004.0183
100003.881
100003.8653
100003.8526
100003.8757
100003.8645
100003.8774
100003.8883
100003.8343
100003.8483
100003.929
100003.8898
100003.8201
100003.8565
100003.8538
100003.8949
100003.9539
100004.0305
100004.1036
100004.1274
100004.1419
100004.1484
100004.1462
100004.1323
100004.1064
100004.0999
100004.0629
100003.861
100003.8563
100003.8575
100003.8772
100003.8587
100003.9061
100003.877
100003.7714
100003.7331
100003.826
100003.823
100003.8158
100003.8649
100003.8529
100003.8869
100003.9392
100004.006
100004.0739
100004.123
100004.1574
100004.1772
100004.1811
100004.1697
100004.1449
100004.1622
100004.1143
100003.8402
100003.8388
100003.8391
100003.8422
100003.8361
100003.855
100003.8395
100003.8081
100003.7968
100003.787
100003.794
100003.8052
100003.8225
100003.8454
100003.8821
100003.9374
100003.9989
100004.0698
100004.1312
100004.1754
100004.1992
100004.2061
100004.1998
100004.1711
100004.2512
100004.1706
100003.8307
100003.828
100003.8282
100003.835
100003.846
100003.8527
100003.8669
100003.8471
100003.8362
100003.8229
100003.8014
100003.8008
100003.8143
100003.8493
100003.8911
100003.9593
100004.008
100004.0882
100004.1577
100004.2013
100004.2175
100004.2213
100004.2155
100004.183
100004.339
100004.273
100003.8253
100003.8182
100003.814
100003.8105
100003.8118
100003.8234
100003.8412
100003.8445
100003.8365
100003.8283
100003.8078
100003.7981
100003.8205
100003.891
100003.9003
100004.016
100004.0238
100004.1348
100004.2073
100004.2443
100004.2382
100004.2281
100004.2062
100004.1812
100004.408
100004.5856
100003.826
100003.8124
100003.8043
100003.7992
100003.8038
100003.8087
100003.8384
100003.8523
100003.8434
100003.827
100003.8074
100003.7968
100003.8034
100003.8422
100003.9637
100004.2709
100004.0495
100004.363
100004.4736
100004.4166
100004.2751
100004.2181
100004.1565
100004.1285
100004.1603
100004.1184
100003.8325
100003.8109
100003.8004
100003.8041
100003.8161
100003.8013
100003.8263
100003.849
100003.8432
100003.8304
100003.8161
100003.8132
100003.8237
100003.8402
100003.8608
100003.8897
100003.9955
100004.2461
100004.3027
100004.2825
100004.2365
100004.1679
100004.1129
100004.1047
100004.1468
100004.1102
100003.8448
100003.818
100003.8108
100003.8279
100003.8463
100003.8096
100003.8203
100003.8525
100003.8504
100003.8347
100003.8167
100003.8061
100003.8067
100003.8225
100003.854
100003.8983
100003.9378
100004.0212
100004.1047
100004.1748
100004.2275
100004.1728
100004.0664
100004.0524
100004.0595
100004.0472
100003.8589
100003.8356
100003.8323
100003.856
100003.8756
100003.8246
100003.8136
100003.8423
100003.8458
100003.8342
100003.8203
100003.8104
100003.8078
100003.8131
100003.8291
100003.8578
100003.9014
100003.9664
100004.0454
100004.167
100004.291
100004.2727
100004.0598
100004.0184
100004.0184
100004.0096
100003.8662
100003.8597
100003.8593
100003.8752
100003.8933
100003.8363
100003.8116
100003.8378
100003.844
100003.834
100003.8199
100003.8084
100003.802
100003.8029
100003.8131
100003.8348
100003.8707
100003.9262
100004.0166
100004.1652
100004.3129
100004.3274
100004.0819
100004.0265
100004.01
100003.9879
100003.8716
100003.8743
100003.8854
100003.8622
100003.839
100003.794
100003.8028
100003.8337
100003.838
100003.8301
100003.816
100003.8033
100003.795
100003.7935
100003.8013
100003.8211
100003.8556
100003.9098
100004.0088
100004.1683
100004.3241
100004.3715
100004.116
100004.0688
100004.03
100004.0108
100003.9172
100003.8768
100003.8641
100003.8535
100003.8389
100003.7931
100003.8005
100003.8401
100003.8394
100003.8302
100003.8147
100003.8006
100003.7903
100003.7865
100003.7922
100003.8123
100003.8505
100003.9148
100004.0232
100004.186
100004.3364
100004.4163
100004.1911
100004.2872
100004.0828
100004.0865
100003.9746
100003.8953
100003.8475
100003.844
100003.8541
100003.8047
100003.816
100003.854
100003.8484
100003.8337
100003.8148
100003.7985
100003.7867
100003.7811
100003.7867
100003.8134
100003.8656
100003.9423
100004.0489
100004.1916
100004.3035
100004.3786
100004.1618
100004.1031
100004.0693
100003.9573
100003.8886
100003.8591
100003.8624
100003.8662
100003.8114
100003.8569
100003.8787
100003.8662
100003.8392
100003.8166
100003.799
100003.7865
100003.7801
100003.7878
100003.823
100003.8867
100003.9694
100004.0676
100004.2022
100004.3318
100004.4443
100004.2097
100004.1282
100004.0987
100003.8538
100003.8606
100003.8902
100003.8896
100003.8505
100003.8024
100003.8551
100003.8687
100003.8631
100003.8395
100003.8196
100003.8037
100003.7913
100003.7829
100003.7876
100003.8248
100003.9052
100004.0089
100004.092
100004.2453
100004.4075
100004.5749
100004.2294
100004.0672
100004.0499
100003.9309
100003.9281
100003.9264
100003.8722
100003.7399
100003.7388
100003.8091
100003.8515
100003.8607
100003.8388
100003.8177
100003.8007
100003.7917
100003.7883
100003.7923
100003.8168
100003.8759
100003.971
100004.087
100004.3228
100004.506
100004.7519
100004.2509
100004.0359
100004.0335
100003.9658
100003.9684
100003.9215
100003.948
100003.9646
100003.8353
100003.7864
100003.846
100003.8657
100003.8516
100003.8395
100003.8233
100003.8062
100003.7927
100003.7936
100003.8223
100003.9229
100004.2436
100004.1768
100004.3176
100004.4586
100005.129
100004.1877
100004.0341
100003.9992
100004.0023
100004.1875
100003.9165
100003.776
100004.153
100004.3524
100003.9923
100003.7767
100003.837
100003.8877
100003.8661
100003.852
100003.8378
100003.8258
100003.8179
100003.8177
100003.8339
100003.8803
100003.9625
100004.0655
100004.2043
100004.2278
100004.3078
100004.0534
100004.0151
100003.9974
100003.9828
100004.0321
100004.0073
100003.9979
100003.9844
100003.9718
100003.9589
100003.9454
100003.9314
100003.9181
100003.9079
100003.9035
100003.9055
100003.9118
100003.9202
100003.9303
100003.9428
100003.9565
100003.966
100003.9698
100003.9698
100003.9658
100003.9584
100003.9489
100003.9399
100003.9408
100003.9458
100004.0152
100003.9952
100003.9857
100003.9707
100003.9557
100003.9388
100003.9194
100003.8977
100003.8751
100003.8566
100003.8461
100003.8437
100003.8474
100003.8556
100003.8675
100003.884
100003.904
100003.9139
100003.9113
100003.8998
100003.8831
100003.8662
100003.8539
100003.8441
100003.8544
100003.8563
100004.0067
100003.9894
100003.9801
100003.9637
100003.9469
100003.9274
100003.9053
100003.8813
100003.8591
100003.8444
100003.8378
100003.8361
100003.8385
100003.8444
100003.8527
100003.8652
100003.8835
100003.8883
100003.8759
100003.8574
100003.8411
100003.8296
100003.8222
100003.8155
100003.8163
100003.8152
100004.0022
100003.9852
100003.9739
100003.9551
100003.9358
100003.9135
100003.8887
100003.8629
100003.8416
100003.8286
100003.8214
100003.8189
100003.8216
100003.828
100003.8372
100003.8506
100003.864
100003.859
100003.8387
100003.8201
100003.8076
100003.7986
100003.7927
100003.7848
100003.785
100003.7814
100003.9932
100003.9795
100003.9678
100003.9479
100003.9274
100003.9042
100003.8792
100003.8538
100003.8331
100003.8199
100003.8125
100003.8106
100003.8144
100003.8232
100003.8349
100003.8492
100003.8539
100003.8414
100003.8192
100003.8021
100003.7907
100003.783
100003.7787
100003.7694
100003.77
100003.7631
100003.9735
100003.9662
100003.9568
100003.9387
100003.9186
100003.8963
100003.873
100003.8494
100003.8287
100003.8142
100003.8065
100003.8057
100003.8116
100003.8254
100003.8399
100003.8502
100003.8497
100003.8377
100003.817
100003.8003
100003.7895
100003.7834
100003.7785
100003.7674
100003.7709
100003.759
100003.9521
100003.9494
100003.9432
100003.9274
100003.9088
100003.8887
100003.8683
100003.8482
100003.8302
100003.8162
100003.8087
100003.8089
100003.8164
100003.8288
100003.8418
100003.8518
100003.857
100003.8551
100003.8341
100003.8173
100003.8055
100003.7989
100003.7888
100003.7826
100003.7846
100003.7656
100003.9329
100003.931
100003.927
100003.9124
100003.8958
100003.8793
100003.8617
100003.844
100003.8289
100003.8176
100003.8117
100003.8116
100003.8167
100003.8268
100003.8421
100003.8622
100003.8852
100003.906
100003.8751
100003.8544
100003.8358
100003.8272
100003.7993
100003.8192
100003.8087
100003.779
100003.914
100003.9102
100003.9046
100003.8884
100003.8739
100003.8668
100003.8521
100003.8338
100003.8174
100003.8047
100003.8004
100003.8031
100003.8093
100003.8236
100003.8509
100003.892
100003.9433
100004.0158
100003.9432
100003.9123
100003.8763
100003.8633
100003.7319
100003.8602
100003.8394
100003.7908
100003.8933
100003.8857
100003.8706
100003.8494
100003.8371
100003.85
100003.839
100003.8152
100003.7899
100003.7715
100003.7749
100003.7909
100003.8027
100003.8266
100003.8724
100003.941
100004.0237
100004.1937
100004.0335
100003.9968
100003.9446
100003.9211
100003.8624
100003.8981
100003.8841
100003.795
100003.8716
100003.8573
100003.8311
100003.815
100003.8031
100003.8311
100003.8206
100003.78
100003.7357
100003.7176
100003.7377
100003.781
100003.798
100003.8329
100003.9054
100004.028
100004.2071
100004.8017
100004.1549
100004.1035
100004.0105
100003.9741
100003.948
100003.9361
100003.9221
100003.8922
100003.8523
100003.831
100003.8085
100003.8096
100003.7855
100003.8152
100003.7867
100003.7055
100003.6573
100003.6732
100003.7031
100003.7734
100003.7859
100003.8117
100003.8581
100003.9206
100003.9942
100004.0797
100004.0592
100004.045
100004.0237
100004.0045
100003.9876
100003.9728
100003.9601
100003.9364
100003.8382
100003.8162
100003.8043
100003.8104
100003.774
100003.8076
100003.7498
100003.6672
100003.6709
100003.6911
100003.7002
100003.7905
100003.786
100003.8025
100003.8428
100003.9013
100003.9789
100004.0679
100004.0485
100004.0496
100004.0475
100004.0369
100004.0245
100004.0113
100004.0086
100003.9805
100003.8292
100003.8162
100003.8075
100003.8015
100003.7677
100003.8
100003.7037
100003.6221
100003.6381
100003.6411
100003.6653
100003.7854
100003.7778
100003.7886
100003.8244
100003.8727
100003.9332
100003.9949
100004.0301
100004.0561
100004.0713
100004.0666
100004.0572
100004.0454
100004.0704
100004.0106
100003.8232
100003.819
100003.8169
100003.8153
100003.8085
100003.8088
100003.8052
100003.7701
100003.7408
100003.7277
100003.74
100003.7609
100003.7587
100003.7746
100003.8134
100003.8578
100003.9157
100003.9774
100004.0294
100004.0687
100004.0906
100004.0898
100004.0833
100004.0704
100004.1506
100004.0331
100003.8182
100003.8123
100003.8039
100003.7977
100003.7938
100003.7948
100003.8196
100003.805
100003.7856
100003.7613
100003.7505
100003.749
100003.7526
100003.7745
100003.8119
100003.847
100003.9077
100003.977
100004.0424
100004.0897
100004.1117
100004.1069
100004.1007
100004.0892
100004.2779
100004.0391
100003.8137
100003.8004
100003.7837
100003.7758
100003.774
100003.7709
100003.8079
100003.817
100003.8043
100003.7793
100003.7416
100003.7042
100003.6872
100003.6818
100003.7928
100003.8109
100003.8938
100003.9838
100004.0643
100004.1143
100004.1279
100004.1068
100004.0848
100004.0638
100004.128
100003.8265
100003.8085
100003.7841
100003.7681
100003.7692
100003.7715
100003.7617
100003.7961
100003.8243
100003.8191
100003.8021
100003.7807
100003.7648
100003.7559
100003.7479
100003.7286
100003.5632
100003.8492
100003.9944
100004.1358
100004.1583
100004.1123
100004.0726
100004.0504
100004.0338
100004.0563
100003.9793
100003.8
100003.768
100003.7635
100003.7722
100003.7712
100003.7596
100003.7767
100003.8199
100003.8234
100003.809
100003.7896
100003.7749
100003.769
100003.7721
100003.7846
100003.7983
100003.8726
100003.9756
100004.368
100004.1484
100004.0708
100003.9913
100004.0008
100004.0073
100004.0586
100004.0236
100003.788
100003.7596
100003.7673
100003.7756
100003.7733
100003.761
100003.7644
100003.8128
100003.8269
100003.8119
100003.7926
100003.7818
100003.7842
100003.7938
100003.8056
100003.8223
100003.8575
100003.904
100003.9689
100003.993
100003.9837
100003.911
100003.9072
100003.9342
100003.9992
100003.995
100003.7731
100003.7621
100003.7689
100003.777
100003.7744
100003.7608
100003.7593
100003.8053
100003.8296
100003.8221
100003.81
100003.7989
100003.7928
100003.7926
100003.7986
100003.8122
100003.8363
100003.8737
100003.9272
100003.9468
100003.9564
100003.8862
100003.8531
100003.8638
100003.9364
100003.9437
100003.7578
100003.769
100003.7693
100003.7734
100003.7699
100003.7576
100003.7617
100003.8046
100003.8295
100003.8227
100003.8098
100003.7971
100003.788
100003.784
100003.7865
100003.7958
100003.8117
100003.8396
100003.8824
100003.9184
100003.9468
100003.8801
100003.8429
100003.8513
100003.9097
100003.9084
100003.7612
100003.7678
100003.7672
100003.754
100003.7467
100003.746
100003.7676
100003.812
100003.8292
100003.8214
100003.8072
100003.7928
100003.7814
100003.775
100003.7753
100003.7825
100003.7971
100003.8253
100003.865
100003.9055
100003.9421
100003.8827
100003.8505
100003.8439
100003.9065
100003.9098
100003.7717
100003.7467
100003.7526
100003.755
100003.7373
100003.7429
100003.7812
100003.8248
100003.8312
100003.8211
100003.8044
100003.7879
100003.774
100003.7646
100003.7617
100003.7678
100003.7871
100003.8204
100003.8652
100003.9138
100003.9642
100003.9226
100003.9043
100003.9011
100003.9147
100003.9357
100003.7716
100003.7313
100003.7162
100003.738
100003.7541
100003.7545
100003.7926
100003.8352
100003.8349
100003.8206
100003.8001
100003.7813
100003.7651
100003.7525
100003.7485
100003.7589
100003.7867
100003.8309
100003.885
100003.9357
100003.9777
100003.9182
100003.899
100003.8999
100003.9524
100003.7428
100003.7009
100003.6802
100003.6907
100003.7178
100003.7657
100003.8169
100003.8479
100003.8396
100003.8184
100003.7951
100003.7756
100003.7588
100003.7446
100003.7405
100003.7538
100003.7882
100003.8388
100003.8857
100003.9088
100003.9414
100003.8899
100003.8675
100003.8275
100003.9257
100003.7135
100003.6821
100003.7244
100003.7326
100003.666
100003.7729
100003.8199
100003.8416
100003.8344
100003.8133
100003.7913
100003.7729
100003.7561
100003.7395
100003.73
100003.7413
100003.7794
100003.8386
100003.8862
100003.8909
100003.9257
100003.8063
100003.8311
100003.8009
100003.9009
100003.6819
100003.6818
100003.651
100003.565
100003.568
100003.6386
100003.7239
100003.8064
100003.8241
100003.8102
100003.7882
100003.7697
100003.7585
100003.7502
100003.7427
100003.7477
100003.7713
100003.8093
100003.8205
100003.8043
100003.8847
100003.7811
100003.7499
100003.7076
100003.8359
100003.6757
100003.6985
100003.5884
100003.621
100003.6703
100003.6708
100003.7315
100003.7862
100003.8265
100003.827
100003.8185
100003.8003
100003.7756
100003.749
100003.7296
100003.7238
100003.727
100003.8353
100003.9041
100003.8134
100003.858
100003.2437
100003.692
100003.637
100003.8176
100003.8998
100003.6566
100003.4033
100003.5264
100003.6076
100003.646
100003.626
100003.6682
100003.7315
100003.8235
100003.8327
100003.8346
100003.8258
100003.81
100003.7903
100003.7738
100003.7735
100003.7982
100003.8252
100003.8475
100003.8521
100003.8774
100003.6266
100003.7701
100003.7568
100003.8868
100003.9256
100003.9993
100003.9755
100003.9667
100003.954
100003.9419
100003.9289
100003.9158
100003.903
100003.8917
100003.8835
100003.8803
100003.8825
100003.8887
100003.8965
100003.9035
100003.9091
100003.9135
100003.9148
100003.913
100003.9092
100003.9028
100003.8959
100003.8895
100003.8849
100003.8814
100003.8807
100003.984
100003.9652
100003.957
100003.9435
100003.93
100003.9152
100003.8997
100003.884
100003.8698
100003.8583
100003.8507
100003.8478
100003.8495
100003.8545
100003.8607
100003.8669
100003.872
100003.8736
100003.871
100003.8656
100003.8591
100003.8527
100003.8468
100003.8415
100003.8411
100003.8368
100003.9731
100003.9591
100003.952
100003.9378
100003.923
100003.9067
100003.8899
100003.8738
100003.8597
100003.8481
100003.8397
100003.8356
100003.8358
100003.8388
100003.8432
100003.8482
100003.8526
100003.8527
100003.8468
100003.8389
100003.8306
100003.823
100003.8173
100003.8127
100003.8097
100003.8063
100003.9686
100003.9547
100003.9465
100003.9303
100003.9138
100003.8956
100003.8772
100003.86
100003.8449
100003.8323
100003.8238
100003.8197
100003.8197
100003.8229
100003.8286
100003.8324
100003.8351
100003.8311
100003.8207
100003.8093
100003.7995
100003.7926
100003.7873
100003.7819
100003.7778
100003.7752
100003.9622
100003.9498
100003.9406
100003.9233
100003.9057
100003.8866
100003.8675
100003.8498
100003.8343
100003.8216
100003.8128
100003.8085
100003.809
100003.8135
100003.8209
100003.825
100003.8256
100003.8185
100003.8039
100003.7905
100003.7814
100003.7749
100003.7699
100003.7637
100003.7585
100003.7546
100003.9447
100003.9367
100003.9291
100003.9137
100003.8966
100003.8776
100003.8585
100003.8405
100003.8249
100003.8122
100003.8034
100003.7994
100003.8013
100003.8065
100003.8155
100003.8223
100003.8237
100003.8178
100003.7994
100003.7855
100003.7758
100003.7692
100003.7652
100003.7582
100003.7514
100003.7439
100003.9258
100003.9208
100003.9153
100003.9023
100003.8865
100003.8686
100003.8503
100003.8326
100003.8172
100003.8049
100003.7966
100003.7934
100003.796
100003.8037
100003.8149
100003.8265
100003.8355
100003.8412
100003.8142
100003.7982
100003.7857
100003.7796
100003.7764
100003.7674
100003.7581
100003.7449
100003.9094
100003.9052
100003.9011
100003.8898
100003.8756
100003.8592
100003.842
100003.825
100003.8104
100003.799
100003.7916
100003.7892
100003.7926
100003.8028
100003.8205
100003.8453
100003.8737
100003.9175
100003.8539
100003.8323
100003.8133
100003.8069
100003.8045
100003.7906
100003.7776
100003.7573
100003.8947
100003.8896
100003.8861
100003.8765
100003.8644
100003.8496
100003.8336
100003.817
100003.803
100003.7923
100003.786
100003.785
100003.7907
100003.8065
100003.8378
100003.8867
100003.946
100004.1053
100003.9183
100003.8942
100003.8562
100003.845
100003.8369
100003.8222
100003.8065
100003.7788
100003.88
100003.8741
100003.8717
100003.8645
100003.855
100003.841
100003.8262
100003.8096
100003.7958
100003.7862
100003.7819
100003.7833
100003.7922
100003.8161
100003.8658
100003.9442
100004.0232
100004.3976
100003.9964
100003.9939
100003.9126
100003.8862
100003.8645
100003.8556
100003.8412
100003.8085
100003.867
100003.861
100003.861
100003.856
100003.8482
100003.8343
100003.8213
100003.8043
100003.791
100003.7832
100003.7822
100003.7855
100003.7969
100003.8337
100003.9254
100004.1224
100004.3654
100005.951
100004.1192
100004.2032
100003.9842
100003.9395
100003.914
100003.8933
100003.8772
100003.8475
100003.8563
100003.851
100003.8553
100003.8477
100003.8391
100003.8293
100003.8192
100003.8013
100003.7889
100003.7795
100003.7838
100003.7869
100003.7886
100003.8043
100003.8376
100003.8822
100003.928
100003.9822
100003.9972
100003.9974
100003.9789
100003.9588
100003.946
100003.9282
100003.9158
100003.8861
100003.8459
100003.8423
100003.8516
100003.8423
100003.8347
100003.8278
100003.822
100003.8082
100003.7865
100003.7784
100003.7848
100003.7941
100003.7923
100003.8015
100003.8333
100003.8893
100003.9759
100004.1331
100004.0157
100004.0146
100004.0116
100003.993
100003.9836
100003.9647
100003.958
100003.9219
100003.8334
100003.831
100003.8423
100003.8393
100003.8338
100003.8241
100003.8188
100003.8088
100003.7797
100003.7704
100003.779
100003.7907
100003.7904
100003.7937
100003.8153
100003.8506
100003.8988
100003.9557
100003.9878
100004.0175
100004.0445
100004.0246
100004.0153
100003.9955
100004.0001
100003.949
100003.8215
100003.8186
100003.8247
100003.8265
100003.8258
100003.8174
100003.8106
100003.7949
100003.7767
100003.7643
100003.7623
100003.7711
100003.7764
100003.787
100003.8071
100003.8383
100003.8827
100003.9353
100003.9815
100004.0257
100004.0611
100004.0463
100004.0366
100004.0191
100004.0352
100003.9731
100003.8142
100003.8107
100003.8139
100003.8155
100003.8175
100003.8153
100003.8124
100003.8023
100003.7923
100003.7816
100003.7712
100003.7678
100003.7738
100003.786
100003.8046
100003.8329
100003.8718
100003.9195
100003.9797
100004.0404
100004.093
100004.0658
100004.0529
100004.0393
100004.0465
100003.9831
100003.8115
100003.808
100003.81
100003.8103
100003.8113
100003.8116
100003.808
100003.7998
100003.788
100003.7753
100003.7643
100003.7614
100003.7665
100003.7794
100003.7967
100003.8242
100003.855
100003.8854
100003.9548
100004.0432
100004.1312
100004.0746
100004.0529
100004.0229
100004.0054
100003.9501
100003.8136
100003.8103
100003.8125
100003.8105
100003.81
100003.8123
100003.8108
100003.806
100003.796
100003.7837
100003.7708
100003.7616
100003.7592
100003.7645
100003.7704
100003.7727
100003.8007
100003.6932
100003.7542
100003.9411
100004.0619
100004.0485
100004.0324
100004.013
100004.0001
100003.9822
100003.8191
100003.8167
100003.8194
100003.8127
100003.8104
100003.8115
100003.8124
100003.8094
100003.8002
100003.7881
100003.7754
100003.7664
100003.7641
100003.7687
100003.7761
100003.7864
100003.799
100003.8023
100003.9318
100004.0685
100004.0311
100004.0194
100004.0079
100004.0078
100004.0013
100003.9814
100003.8269
100003.8262
100003.828
100003.8193
100003.8142
100003.812
100003.8151
100003.8142
100003.8062
100003.7941
100003.7814
100003.7716
100003.7678
100003.7702
100003.7758
100003.7878
100003.8126
100003.8498
100003.9056
100003.965
100003.9853
100003.9732
100003.9724
100003.9882
100003.9787
100003.9636
100003.836
100003.8372
100003.8355
100003.8271
100003.8192
100003.8119
100003.8156
100003.8173
100003.8113
100003.8007
100003.789
100003.7784
100003.7714
100003.7694
100003.7725
100003.7831
100003.8048
100003.8374
100003.8888
100003.9385
100003.9599
100003.9478
100003.9399
100003.9645
100003.954
100003.9452
100003.8455
100003.8447
100003.8422
100003.8301
100003.8204
100003.8122
100003.8165
100003.8198
100003.8145
100003.804
100003.7918
100003.78
100003.771
100003.7664
100003.7675
100003.7764
100003.796
100003.8276
100003.873
100003.919
100003.95
100003.9376
100003.9243
100003.9385
100003.9359
100003.9221
100003.8458
100003.8394
100003.8409
100003.8243
100003.8143
100003.8115
100003.8186
100003.8216
100003.8162
100003.8058
100003.7927
100003.7796
100003.769
100003.7628
100003.763
100003.7716
100003.7903
100003.8211
100003.8642
100003.9093
100003.9467
100003.9353
100003.9211
100003.9168
100003.9292
100003.9168
100003.8414
100003.8198
100003.8254
100003.8195
100003.8161
100003.8145
100003.821
100003.8238
100003.818
100003.8071
100003.7926
100003.7782
100003.766
100003.7585
100003.758
100003.7667
100003.786
100003.8176
100003.8624
100003.9104
100003.9683
100003.9397
100003.9193
100003.7433
100003.929
100003.9221
100003.8425
100003.8137
100003.8157
100003.8167
100003.82
100003.8176
100003.8248
100003.8268
100003.8206
100003.8084
100003.7923
100003.7763
100003.7626
100003.7536
100003.7515
100003.7601
100003.7825
100003.8186
100003.8668
100003.913
100003.9541
100003.9444
100003.9376
100003.9497
100003.9624
100003.8426
100003.8228
100003.8275
100003.8252
100003.8316
100003.8241
100003.8342
100003.8326
100003.825
100003.8104
100003.7929
100003.7756
100003.7604
100003.7499
100003.7451
100003.7539
100003.7796
100003.8188
100003.8677
100003.9091
100003.9469
100003.945
100003.9319
100003.9389
100003.9748
100003.8494
100003.8467
100003.8552
100003.85
100003.86
100003.8402
100003.8463
100003.8352
100003.8278
100003.8125
100003.7954
100003.7774
100003.7607
100003.7476
100003.7404
100003.7467
100003.7723
100003.8093
100003.865
100003.9061
100003.9474
100003.941
100003.9314
100003.9417
100003.9627
100003.8894
100003.8776
100003.8891
100003.8675
100003.9117
100003.8561
100003.8524
100003.8331
100003.8291
100003.8143
100003.7987
100003.7813
100003.764
100003.7499
100003.7424
100003.7453
100003.7689
100003.8009
100003.8557
100003.9003
100003.9505
100003.9584
100003.9256
100003.9454
100003.9648
100003.884
100003.8879
100003.9035
100003.8803
100003.8611
100003.8193
100003.839
100003.8326
100003.8325
100003.8198
100003.8071
100003.791
100003.7728
100003.7554
100003.7423
100003.7342
100003.7239
100003.6111
100003.8491
100003.8913
100003.9489
100003.9528
100003.9282
100003.9408
100003.9469
100003.9392
100003.9183
100003.8895
100003.8767
100003.8494
100003.887
100003.8379
100003.8396
100003.8431
100003.8364
100003.8246
100003.8153
100003.8036
100003.7895
100003.777
100003.7741
100003.7996
100003.8992
100003.8388
100003.8741
100003.9136
100003.9426
100003.9426
100003.938
100003.9535
100003.9457
100003.9294
100003.9648
100003.942
100003.9333
100003.9215
100003.9104
100003.8982
100003.8852
100003.8722
100003.8599
100003.8496
100003.8428
100003.8407
100003.8435
100003.8497
100003.8569
100003.863
100003.866
100003.8646
100003.8594
100003.852
100003.843
100003.8347
100003.8277
100003.8238
100003.8227
100003.8227
100003.9507
100003.9318
100003.9241
100003.9119
100003.8997
100003.8862
100003.8719
100003.8572
100003.8426
100003.8293
100003.819
100003.8129
100003.8114
100003.8139
100003.8189
100003.824
100003.8272
100003.8266
100003.8224
100003.8159
100003.8084
100003.8016
100003.7957
100003.7919
100003.7928
100003.7914
100003.9378
100003.9256
100003.9193
100003.9067
100003.8935
100003.8785
100003.8629
100003.847
100003.8316
100003.8181
100003.8076
100003.8008
100003.7979
100003.7985
100003.8013
100003.8049
100003.8073
100003.8056
100003.7992
100003.7902
100003.7809
100003.7728
100003.7671
100003.764
100003.7636
100003.7633
100003.934
100003.9208
100003.9145
100003.9001
100003.8854
100003.8688
100003.8515
100003.8342
100003.8178
100003.8036
100003.7925
100003.7854
100003.7822
100003.7824
100003.7839
100003.788
100003.7892
100003.7851
100003.7747
100003.7623
100003.7514
100003.7431
100003.7377
100003.7339
100003.7331
100003.7327
100003.9295
100003.918
100003.9092
100003.8937
100003.8777
100003.86
100003.8419
100003.8239
100003.8069
100003.7923
100003.7808
100003.7735
100003.7706
100003.7714
100003.7736
100003.7774
100003.7777
100003.7717
100003.7568
100003.7417
100003.7305
100003.7227
100003.7186
100003.7151
100003.7131
100003.7104
100003.9136
100003.9058
100003.8983
100003.8843
100003.8684
100003.8506
100003.8323
100003.8141
100003.7969
100003.7819