/*--------------------------------*- C++ -*----------------------------------*\
  =========                 |
  \\      /  F ield         | OpenFOAM: The Open Source CFD Toolbox
   \\    /   O peration     | Website:  https://openfoam.org
    \\  /    A nd           | Version:  8
     \\/     M anipulation  |
\*---------------------------------------------------------------------------*/
FoamFile
{
    version     2.0;
    format      ascii;
    class       volScalarField;
    location    "1.4/wallFilmRegion";
    object      kappa;
}
// * * * * * * * * * * * * * * * * * * * * * * * * * * * * * * * * * * * * * //

dimensions      [1 1 -3 -1 0 0 0];

internalField   nonuniform List<scalar> 
1342
(
0.6088099974
0.6088099967
0.6088099948
0.6088099932
0.6088099922
0.6088099994
0.6088099994
0.6088099983
0.6088099991
0.6088099995
0.6088099998
0.6088099999
0.6088094169
0.6088093369
0.6088091801
0.6088091156
0.6088099626
0.6088099938
0.6088098511
0.608809925
0.6088099335
0.6088099692
0.6088099875
0.6088099929
0.6088099859
0.6088099981
0.608809999
0.6088099996
0.6088099998
0.6088099999
0.6088089829
0.6088084123
0.6088084802
0.6088085375
0.608808726
0.6088096384
0.6088088829
0.6088096446
0.6088097042
0.6088095308
0.60880974
0.6088099103
0.608809724
0.6088099994
0.6088099998
0.6088099999
0.6088088469
0.6088079048
0.6088079923
0.6088080539
0.6088081553
0.6088099777
0.6088099604
0.6088099432
0.6088099261
0.6088099022
0.6088098076
0.6088098414
0.6088095107
0.6088085775
0.6088086535
0.6088094555
0.6088094008
0.608808021
0.6088099845
0.6088099707
0.6088099553
0.6088099393
0.6088099242
0.6088099097
0.6088098965
0.6088098763
0.6088094748
0.6088082764
0.6088078131
0.6088078903
0.6088099895
0.6088099776
0.6088099628
0.6088099472
0.6088099327
0.6088099202
0.6088099069
0.6088099011
0.6088099016
0.608809818
0.6088081028
0.6088080198
0.6088078977
0.6088087941
0.6088087165
0.6088086378
0.6088085966
0.6088083921
0.6088082556
0.6088083522
0.6088082532
0.6088080116
0.6088099087
0.6088099981
0.6088099545
0.6088099707
0.6088099865
0.6088099883
0.6088099985
0.608809994
0.6088099879
0.6088099921
0.6088099927
0.608809995
0.6088099966
0.6088099954
0.6088099947
0.6088099955
0.6088099951
0.6088099967
0.6088100039
0.6088099961
0.6088100034
0.6088100015
0.6088099964
0.6088099992
0.6088099973
0.6088099962
0.6088099967
0.6088099963
0.6088099958
0.6088099961
0.6088099967
0.6088099969
0.608809999
0.6088100048
0.6088099978
0.608810006
0.6088100074
0.6088100387
0.6088100108
0.6088100384
0.6088099982
0.6088099981
0.6088099981
0.608809989
0.6088099882
0.6088099882
0.6088099931
0.6088099886
0.6088099909
0.6088100106
0.6088099917
0.6088100341
0.6088100047
0.6088100248
0.6088100191
0.6088100008
0.608810017
0.6088100208
0.6088099974
0.6088100684
0.6088100033
0.6088099998
0.6088100016
0.6088100047
0.6088100106
0.6088100219
0.6088100252
0.6088100109
0.6088100252
0.6088100249
0.6088100268
0.6088100253
0.6088100248
0.608809998
0.6088100112
0.6088099975
0.6088099977
0.608809998
0.6088099974
0.6088099978
0.6088099972
0.6088099975
0.6088099882
0.6088099885
0.6088099883
0.6088099896
0.6088099888
0.6088099899
0.6088100635
0.6088099907
0.6088099922
0.6088100584
0.6088100688
0.608810075
0.6088101076
0.6088100653
0.608810273
0.6088100213
0.6088104148
0.6088100341
0.6088100147
0.6088100088
0.6088100186
0.6088100597
0.6088101129
0.6088101491
0.6088100573
0.6088101325
0.6088101138
0.6088100535
0.608810094
0.6088100724
0.6088100132
0.60881005
0.6088100184
0.6088099972
0.6088100003
0.608809997
0.6088099972
0.6088099968
0.6088099969
0.6088099885
0.6088099892
0.608809991
0.6088099903
0.6088099906
0.6088099908
0.6088099912
0.6088099905
0.6088100256
0.6088100718
0.608810011
0.6088100278
0.6088100475
0.6088100319
0.6088100337
0.6088100373
0.6088100509
0.6088100435
0.6088100211
0.6088100119
0.6088100218
0.6088103613
0.6088101579
0.6088105022
0.6088101943
0.6088103627
0.6088101944
0.6088100712
0.6088100875
0.6088100388
0.6088100317
0.608810018
0.6088100083
0.6088099047
0.6088100023
0.6088099995
0.6088099967
0.6088099967
0.6088099968
0.6088099945
0.6088099972
0.6088099937
0.6088099947
0.6088099972
0.608809994
0.608809992
0.6088099923
0.6088099922
0.6088100916
0.6088099928
0.6088103423
0.6088100222
0.6088100174
0.6088100217
0.6088100276
0.6088100232
0.6088100244
0.6088100526
0.608810031
0.6088100446
0.6088100211
0.6088100252
0.6088100184
0.6088105057
0.6088101002
0.6088105123
0.6088101649
0.6088103362
0.608810161
0.6088100256
0.6088100648
0.6088100238
0.6088100024
0.608810008
0.608810002
0.6088099979
0.6088099992
0.6088099982
0.6088099971
0.6088099979
0.6088099977
0.6088099932
0.6088099974
0.608809993
0.6088100011
0.6088099986
0.6088099992
0.6088105235
0.6088105305
0.6088105711
0.6088104389
0.6088105875
0.6088104862
0.6088100229
0.6088100306
0.6088100248
0.608810023
0.6088100224
0.6088100226
0.6088100397
0.6088100269
0.6088100371
0.6088100273
0.6088100382
0.6088100388
0.6088105561
0.6088102712
0.6088105571
0.6088105356
0.6088105488
0.6088105352
0.6088105126
0.6088105389
0.6088105285
0.6088106843
0.6088105868
0.6088106648
0.6088099981
0.6088099983
0.6088099981
0.6088099981
0.6088099983
0.6088099984
0.6088099968
0.6088099957
0.6088099967
0.6088099954
0.6088099952
0.6088105554
0.6088105394
0.6088105346
0.6088105142
0.6088105314
0.6088105257
0.6088100269
0.6088100433
0.608810028
0.6088100225
0.6088100228
0.6088100227
0.6088100369
0.6088100337
0.6088100446
0.608810051
0.608810051
0.608810068
0.6088105531
0.6088104607
0.6088103724
0.608810531
0.6088102219
0.6088101096
0.6088105246
0.608810048
0.6088100196
0.6088106482
0.6088100081
0.6088099992
0.6088099983
0.6088099985
0.6088099984
0.6088099986
0.6088099987
0.6088099989
0.6088099953
0.6088099952
0.6088099949
0.608809995
0.6088099949
0.6088103083
0.6088099949
0.6088099951
0.6088100988
0.6088099953
0.6088099957
0.6088100238
0.6088099961
0.6088099962
0.6088100284
0.6088099964
0.608810021
0.608810053
0.6088100175
0.6088100105
0.6088100942
0.6088100023
0.6088099974
0.6088104275
0.6088099962
0.6088099964
0.6088101773
0.6088099966
0.6088099968
0.6088100476
0.6088099973
0.6088100012
0.6088099981
0.6088099983
0.6088099983
0.6088099649
0.6088099721
0.6088099303
0.6088099614
0.6088099493
0.6088098601
0.6088099348
0.6088099159
0.6088096892
0.6088098888
0.6088098471
0.6088091401
0.6088097787
0.6088095558
0.6088087873
0.6088091786
0.6088087826
0.6088086731
0.6088086212
0.6088085682
0.608808918
0.6088087986
0.6088087733
0.6088093332
0.608808925
0.6088091309
0.608809454
0.6088096776
0.608809791
0.6088098876
0.6088099443
0.608809873
0.6088099766
0.6088099579
0.6088099362
0.608809905
0.6088098054
0.6088092981
0.6088085519
0.6088088922
0.6088099804
0.6088099723
0.6088099248
0.608809912
0.6088098879
0.6088098383
0.6088093687
0.6088088522
0.6088088788
0.6088086058
0.608809206
0.6088087006
0.6088095544
0.6088090241
0.6088092482
0.6088099852
0.6088099693
0.6088099517
0.6088099658
0.6088099575
0.6088099347
0.6088099489
0.6088099163
0.6088098745
0.6088099167
0.608809906
0.6088095889
0.6088098871
0.6088098323
0.6088097724
0.6088088111
0.6088085499
0.6088087945
0.6088087535
0.6088083951
0.6088084308
0.608808307
0.6088099903
0.6088099668
0.6088099473
0.6088099592
0.6088099298
0.6088099227
0.6088098978
0.6088099162
0.6088099096
0.6088098918
0.6088099023
0.6088097883
0.6088098775
0.6088093375
0.6088099856
0.6088099727
0.6088099272
0.6088099014
0.6088098978
0.608809998
0.6088098341
0.6088099981
0.608809594
0.6088099982
0.6088093119
0.6088099982
0.6088092217
0.6088099974
0.6088091568
0.6088099972
0.6088090579
0.6088099971
0.6088093782
0.6088099984
0.6088099814
0.608809996
0.6088099987
0.6088099946
0.6088099956
0.6088099951
0.6088099964
0.6088099961
0.6088099963
0.608809996
0.6088099965
0.6088099973
0.6088100025
0.6088099982
0.6088099983
0.6088099989
0.6088099986
0.6088099986
0.6088099898
0.6088099897
0.6088099949
0.6088100071
0.6088100026
0.6088100003
0.6088099981
0.608810008
0.6088100106
0.6088100133
0.6088099983
0.6088099979
0.6088099975
0.6088099991
0.608809999
0.6088099978
0.6088099883
0.6088099886
0.608809991
0.6088100637
0.6088100629
0.60881025
0.6088100065
0.608810052
0.6088100597
0.6088100547
0.6088100557
0.6088100055
0.608809997
0.6088099966
0.6088099887
0.6088099892
0.6088099903
0.6088100194
0.6088100459
0.6088101391
0.60881001
0.6088101649
0.6088102887
0.6088101183
0.608810046
0.6088100194
0.6088099966
0.6088099973
0.6088099951
0.6088099926
0.6088099911
0.6088100129
0.6088100257
0.6088100368
0.6088100163
0.6088101291
0.6088103362
0.6088100675
0.608810009
0.6088099995
0.6088099973
0.6088099972
0.6088099986
0.6088100894
0.6088105252
0.6088100236
0.6088100223
0.6088100282
0.6088100334
0.6088100718
0.6088105489
0.6088105169
0.6088105641
0.6088099986
0.6088099981
0.6088099979
0.6088099967
0.6088105227
0.6088105425
0.6088100377
0.6088100229
0.6088100267
0.6088100434
0.6088103855
0.6088105446
0.6088105151
0.6088106757
0.6088099983
0.6088099985
0.608809998
0.6088099959
0.608809995
0.6088104312
0.6088101739
0.6088100431
0.6088100222
0.6088100414
0.6088100622
0.6088105058
0.6088102983
0.6088100963
0.6088099983
0.6088099986
0.6088099989
0.608809996
0.6088099961
0.6088099967
0.6088099977
0.6088099963
0.6088099938
0.6088099946
0.6088099953
0.6088099958
0.6088099964
0.6088099984
0.6088099986
0.6088099988
0.608809977
0.60880995
0.6088099026
0.6088097934
0.6088095304
0.6088088819
0.6088087472
0.6088087755
0.6088091365
0.6088095104
0.6088097211
0.6088092417
0.6088099342
0.6088099509
0.6088099554
0.608809887
0.6088099747
0.6088099204
0.6088099676
0.6088099476
0.6088099543
0.6088099227
0.6088099354
0.6088098789
0.6088096444
0.6088088246
0.6088094324
0.6088092077
0.6088096351
0.6088087868
0.6088099384
0.6088099447
0.6088099381
0.6088084955
0.6088086414
0.6088084268
0.6088088512
0.6088082118
0.6088079954
0.6088087732
0.6088079717
0.6088080937
0.6088078354
0.6088077977
0.6088076677
0.608807439
0.6088076302
0.6088077106
0.6088076294
0.6088076429
0.6088076476
0.6088077122
0.6088091477
0.6088084812
0.6088079302
0.6088076369
0.6088077904
0.608807726
0.6088081398
0.6088083781
0.6088081703
0.6088079813
0.6088076235
0.6088078768
0.608807811
0.6088078514
0.6088099932
0.6088099832
0.6088099695
0.6088099494
0.6088099539
0.6088099341
0.6088099379
0.6088099233
0.6088099118
0.6088099051
0.6088089282
0.6088088296
0.6088088425
0.6088088421
0.6088087149
0.608808597
0.6088085638
0.6088086067
0.608808387
0.6088087978
0.6088087248
0.6088087423
0.608808747
0.608808602
0.6088085133
0.6088085385
0.6088084738
0.608808258
0.6088087671
0.608808773
0.6088087987
0.6088087847
0.6088086138
0.6088085575
0.6088086037
0.608808442
0.6088081744
0.608809998
0.6088099003
0.6088099974
0.6088099508
0.6088099981
0.6088097326
0.6088099972
0.6088099972
0.6088099247
0.6088098851
0.6088099981
0.6088094393
0.6088099972
0.608809997
0.608809823
0.6088097263
0.6088099982
0.6088092419
0.6088099969
0.608809997
0.6088095859
0.6088094105
0.6088099975
0.6088091989
0.608809997
0.6088099966
0.6088092349
0.6088090656
0.6088099973
0.6088091051
0.6088099964
0.6088099961
0.6088090176
0.6088089698
0.6088099968
0.6088090825
0.608809996
0.6088099959
0.6088089176
0.6088087991
0.6088099979
0.6088096402
0.6088099958
0.6088099957
0.6088089013
0.6088091021
0.6088099986
0.6088099924
0.6088099956
0.6088099971
0.6088093458
0.6088096234
0.6088099983
0.6088099983
0.6088098095
0.6088099985
0.6088099986
0.6088099982
0.608809998
0.6088099978
0.6088099982
0.6088099829
0.6088099973
0.6088099882
0.6088099869
0.6088099961
0.6088099963
0.6088099958
0.6088099952
0.6088099841
0.6088099834
0.6088099934
0.608809998
0.608809992
0.6088099976
0.6088099949
0.6088099973
0.6088099975
0.6088099972
0.6088099994
0.608809999
0.6088099972
0.6088099986
0.6088099987
0.6088099992
0.6088099989
0.6088099994
0.6088099991
0.6088099991
0.6088099973
0.6088099967
0.6088099948
0.6088099961
0.6088099988
0.6088099976
0.6088099972
0.608809996
0.6088099989
0.608809999
0.6088099988
0.6088099983
0.6088099988
0.6088099964
0.6088099991
0.6088099991
0.6088099994
0.6088099991
0.6088099994
0.6088099971
0.6088099991
0.6088099991
0.6088099997
0.6088099996
0.6088099997
0.6088099965
0.6088099992
0.6088099993
0.6088099998
0.6088099998
0.6088099999
0.6088099973
0.6088099993
0.6088099991
0.6088099999
0.6088099999
0.6088099999
0.6088099942
0.608809998
0.608809998
0.6088093979
0.6088090915
0.6088085585
0.608809995
0.6088099981
0.6088099982
0.6088092489
0.6088088217
0.6088088129
0.6088099956
0.6088099983
0.6088099985
0.6088091418
0.6088088372
0.6088088504
0.608809996
0.6088099987
0.6088099984
0.6088099338
0.6088088625
0.6088088756
0.6088099982
0.6088099984
0.6088099983
0.6088099833
0.6088092035
0.6088095562
0.608809997
0.6088099984
0.6088099984
0.6088099308
0.6088098077
0.6088099908
0.6088099691
0.6088098968
0.6088098285
0.6088099553
0.6088099016
0.6088096898
0.6088099195
0.608809827
0.6088096643
0.6088097849
0.6088099525
0.6088098181
0.6088098632
0.6088099808
0.6088099088
0.6088099426
0.6088099912
0.6088099924
0.6088099629
0.6088099758
0.6088099825
0.6088099925
0.6088099824
0.6088099908
0.6088099715
0.6088099797
0.6088099802
0.6088099929
0.6088099986
0.6088099993
0.6088099992
0.6088099997
0.6088099995
0.6088099997
0.6088099999
0.6088099998
0.6088099999
0.6088099999
0.6088099999
0.6088099999
0.6088079616
0.6088089047
0.608807581
0.608808423
0.6088080684
0.6088081058
0.6088085068
0.6088081661
0.6088081984
0.6088085486
0.6088082367
0.6088082697
0.608809189
0.6088083297
0.6088087438
0.6088098264
0.6088095062
0.6088095738
0.6088099341
0.6088098242
0.6088099635
0.608809945
0.6088097185
0.6088088491
0.6088093209
0.6088087641
0.6088091292
0.6088092779
0.6088093688
0.6088088448
0.6088092969
0.6088097176
0.6088095134
0.6088092313
0.6088090761
0.608808816
0.608809613
0.6088091251
0.6088081944
0.6088098293
0.6088095398
0.6088093982
0.6088080817
0.6088099313
0.6088097092
0.6088097966
0.6088098283
0.6088097928
0.6088095325
0.6088096443
0.6088099013
0.6088098286
0.608809774
0.6088097384
0.6088099987
0.608809999
0.6088099997
0.6088099992
0.6088099996
0.6088099998
0.6088099998
0.6088099999
0.6088099999
0.6088099999
0.6088099999
0.6088075606
0.6088087699
0.6088078154
0.6088078583
0.608807894
0.6088079488
0.608807897
0.6088080179
0.6088078956
0.6088079212
0.608808092
0.6088079425
0.6088085055
0.6088079521
0.6088079223
0.6088089715
0.6088080378
0.6088083199
0.6088091143
0.6088099876
0.6088099811
0.6088099738
0.6088099406
0.6088099326
0.6088099249
0.6088098807
0.6088098611
0.6088097825
0.608809414
0.6088099779
0.6088099631
0.6088099315
0.6088099172
0.6088087046
0.6088093819
0.6088083726
0.6088083458
0.6088086827
0.6088083295
0.6088081501
0.6088077935
0.6088078439
0.6088077068
0.6088076902
0.6088075494
0.6088076042
0.608808189
0.6088090642
0.6088078584
0.6088076349
0.6088079051
0.6088087815
0.6088084263
0.6088084778
0.6088079693
0.6088080931
0.608807922
0.6088078153
0.6088079143
0.6088079414
0.6088077576
0.6088079405
0.6088077935
0.6088076633
0.6088076946
0.6088076197
0.6088076084
0.608807684
0.6088077079
0.6088077046
0.6088077191
0.6088086338
0.6088082041
0.6088079397
0.6088077584
0.6088088501
0.608808174
0.608807863
0.6088080224
0.6088081081
0.6088079038
0.6088078031
0.608808349
0.6088078524
0.6088076791
0.6088077963
0.6088076448
0.6088076217
0.6088076716
0.6088076742
0.6088078116
0.6088077558
0.6088099922
0.6088099871
0.6088099811
0.6088099742
0.6088099517
0.6088099442
0.6088099369
0.6088098995
0.6088098961
0.6088098788
0.6088098224
0.6088099938
0.6088099947
0.608809984
0.6088099907
0.6088099704
0.6088099795
0.6088099549
0.6088099652
0.6088099573
0.6088099397
0.6088099416
0.6088099261
0.6088099143
0.608809921
0.6088099155
0.6088099029
0.6088099101
0.6088099055
0.6088098982
0.608809903
0.6088097187
0.6088098965
0.6088096074
0.6088098684
0.608808756
0.6088082469
0.6088098903
0.6088091082
0.608809849
0.608808061
0.6088082964
0.608807941
0.6088079916
0.6088079141
0.608807836
0.6088077668
0.6088078579
0.6088078272
0.6088077265
0.6088079707
0.6088078859
0.6088078038
0.6088079333
0.6088079026
0.6088085508
0.6088086791
0.6088085261
0.6088083141
0.6088084735
0.6088084933
0.6088084186
0.608808618
0.6088081828
0.6088083976
0.6088083749
0.6088083615
0.6088081046
0.6088082849
0.6088082876
0.6088081587
0.6088080427
0.6088083037
0.6088077877
0.6088079875
0.6088078079
0.6088080191
0.6088080716
0.6088080622
0.6088078692
0.6088080203
0.6088079634
0.6088079746
0.6088078833
0.6088078933
0.608807948
0.6088078345
0.6088078664
0.6088083375
0.6088085486
0.6088079645
0.6088081986
0.6088081598
0.6088079001
0.6088078614
0.6088076233
0.6088078891
0.6088077529
0.608807852
0.6088099965
0.6088099977
0.6088099887
0.608809995
0.608809991
0.6088099767
0.6088099858
0.6088099797
0.6088099618
0.6088099727
0.6088099652
0.6088099458
0.6088099574
0.6088099494
0.6088099303
0.6088099414
0.6088099336
0.608809917
0.6088099262
0.6088099194
0.6088099078
0.6088099135
0.608809909
0.6088099036
0.6088099061
0.6088099045
0.6088099034
0.608809025
0.6088088597
0.6088088638
0.6088087823
0.6088087179
0.6088088275
0.6088086821
0.6088086748
0.6088088534
0.608808686
0.6088086981
0.6088087937
0.6088086908
0.6088086433
0.6088086382
0.6088085668
0.6088085064
0.6088085851
0.6088084982
0.6088085233
0.608808606
0.6088085518
0.6088085678
0.6088085402
0.6088085465
0.6088084679
0.6088082458
0.6088083291
0.6088081838
0.6088080577
0.6088088625
0.6088088205
0.6088087486
0.6088087794
0.6088087544
0.608808726
0.6088087475
0.6088087565
0.608808756
0.6088087755
0.6088087895
0.608808692
0.6088087792
0.6088087214
0.6088085284
0.6088086263
0.6088085531
0.6088085313
0.6088085467
0.608808573
0.6088085229
0.6088085663
0.6088085239
0.608808385
0.608808447
0.6088083383
0.6088081268
0.6088082032
0.608808098
0.6088079844
0.6088081146
0.6088087797
0.6088087119
0.6088087589
0.6088087654
0.6088087044
0.6088087066
0.608808729
0.6088087848
0.6088087179
0.6088087239
0.6088086606
0.6088088038
0.6088087307
0.6088087292
0.6088087177
0.608808707
0.6088086353
0.6088085171
0.608808544
0.6088085262
0.6088084493
0.6088086058
0.60880845
0.6088084983
0.6088085454
0.6088085168
0.6088084967
0.6088083283
0.6088083007
0.608808393
0.608808269
0.6088082034
0.6088081158
)
;

boundaryField
{
    walls
    {
        type            zeroGradient;
    }
    wallFilmFace_top
    {
        type            zeroGradient;
    }
    region0_to_wallFilmRegion_wallFilmFace
    {
        type            zeroGradient;
    }
    mirrorFace_top
    {
        type            zeroGradient;
    }
    region0_to_wallFilmRegion_mirrorFace
    {
        type            zeroGradient;
    }
    procBoundary3to2
    {
        type            processor;
        value           nonuniform List<scalar> 
64
(
0.6088099964
0.6088099906
0.6088099977
0.6088099989
0.6088099985
0.6088099915
0.6088099948
0.608809997
0.6088087171
0.6088099958
0.6088099938
0.6088099942
0.6088099942
0.6088099923
0.6088099907
0.6088099888
0.608809989
0.6088099894
0.6088099895
0.6088099894
0.6088099938
0.6088099963
0.6088099981
0.6088099981
0.6088099975
0.6088099966
0.6088099966
0.6088099969
0.6088099955
0.6088099955
0.608809987
0.6088099815
0.6088099815
0.6088099848
0.6088099879
0.6088099979
0.6088099418
0.6088099975
0.6088099963
0.608809969
0.6088080831
0.6088099975
0.6088099986
0.6088090756
0.6088089152
0.6088087982
0.6088099975
0.608809969
0.6088099987
0.6088099959
0.6088099769
0.6088099984
0.6088099989
0.608809998
0.6088099931
0.6088081553
0.6088083211
0.608809996
0.6088085036
0.6088085532
0.6088099993
0.6088088946
0.6088088658
0.6088087216
)
;
    }
}


// ************************************************************************* //
