/*--------------------------------*- C++ -*----------------------------------*\
  =========                 |
  \\      /  F ield         | OpenFOAM: The Open Source CFD Toolbox
   \\    /   O peration     | Website:  https://openfoam.org
    \\  /    A nd           | Version:  8
     \\/     M anipulation  |
\*---------------------------------------------------------------------------*/
FoamFile
{
    version     2.0;
    format      ascii;
    class       volScalarField;
    location    "1.4/wallFilmRegion";
    object      mu;
}
// * * * * * * * * * * * * * * * * * * * * * * * * * * * * * * * * * * * * * //

dimensions      [1 -1 -1 0 0 0 0];

internalField   nonuniform List<scalar> 
1342
(
0.0008861474465
0.0008861474564
0.0008861474828
0.0008861475046
0.0008861475189
0.0008861474185
0.0008861474194
0.0008861474343
0.0008861474229
0.0008861474166
0.0008861474133
0.0008861474122
0.0008861555511
0.0008861566672
0.0008861588572
0.0008861597574
0.0008861479322
0.0008861474973
0.0008861494895
0.0008861484574
0.0008861483394
0.0008861478407
0.0008861475852
0.0008861475093
0.0008861476079
0.0008861474368
0.0008861474239
0.0008861474165
0.0008861474129
0.000886147412
0.000886161609
0.0008861695757
0.0008861686279
0.0008861678274
0.0008861651959
0.0008861524579
0.0008861630055
0.0008861523718
0.0008861515392
0.0008861539605
0.0008861510407
0.0008861486631
0.000886151264
0.0008861474185
0.0008861474132
0.0008861474119
0.0008861635088
0.00088617666
0.0008861754395
0.0008861745794
0.0008861731628
0.0008861477221
0.0008861479632
0.0008861482033
0.000886148442
0.0008861487763
0.0008861500963
0.0008861496242
0.0008861542405
0.0008861672688
0.000886166208
0.0008861550113
0.0008861557753
0.0008861750387
0.0008861476261
0.0008861478195
0.0008861480348
0.0008861482579
0.0008861484685
0.0008861486709
0.0008861488553
0.0008861491379
0.000886154742
0.0008861714728
0.0008861779406
0.0008861768625
0.0008861475574
0.000886147723
0.0008861479298
0.0008861481477
0.0008861483504
0.0008861485244
0.0008861487104
0.0008861487917
0.000886148784
0.0008861499512
0.0008861738967
0.0008861750552
0.0008861767591
0.0008861642459
0.0008861653292
0.0008861664279
0.0008861670027
0.0008861698575
0.0008861717626
0.0008861704147
0.0008861717965
0.000886175169
0.0008861486852
0.0008861474368
0.0008861480456
0.0008861478196
0.0008861475982
0.0008861475733
0.0008861474314
0.0008861474948
0.0008861475788
0.0008861475201
0.0008861475125
0.0008861474806
0.0008861474581
0.000886147475
0.000886147484
0.0008861474727
0.0008861474787
0.0008861474569
0.0008861473562
0.0008861474641
0.0008861473634
0.0008861473894
0.0008861474601
0.0008861474218
0.0008861474473
0.0008861474638
0.0008861474561
0.0008861474614
0.0008861474685
0.0008861474648
0.0008861474565
0.0008861474533
0.0008861474249
0.0008861473438
0.0008861474415
0.0008861473261
0.0008861473069
0.0008861468701
0.0008861472592
0.0008861468749
0.0008861474351
0.0008861474366
0.0008861474364
0.0008861475635
0.0008861475747
0.0008861475749
0.0008861475062
0.0008861475699
0.0008861475376
0.0008861472626
0.0008861475256
0.0008861469349
0.0008861473451
0.0008861470639
0.0008861471433
0.0008861473989
0.0008861471729
0.0008861471202
0.0008861474468
0.0008861464555
0.0008861473637
0.0008861474136
0.0008861473879
0.0008861473449
0.000886147263
0.0008861471049
0.0008861470585
0.0008861472582
0.0008861470587
0.0008861470624
0.0008861470358
0.0008861470577
0.0008861470646
0.0008861474384
0.0008861472544
0.0008861474448
0.0008861474426
0.0008861474389
0.0008861474467
0.0008861474411
0.0008861474488
0.0008861474457
0.0008861475745
0.0008861475707
0.0008861475734
0.0008861475553
0.0008861475668
0.0008861475519
0.0008861465241
0.0008861475398
0.0008861475197
0.0008861465947
0.0008861464493
0.0008861463632
0.0008861459088
0.0008861464994
0.000886143599
0.000886147113
0.0008861416202
0.0008861469339
0.0008861472057
0.0008861472877
0.0008861471504
0.000886146577
0.0008861458345
0.000886145329
0.0008861466098
0.00088614556
0.0008861458211
0.000886146664
0.0008861460982
0.0008861464003
0.0008861472255
0.0008861467128
0.0008861471536
0.0008861474494
0.0008861474064
0.0008861474526
0.00088614745
0.0008861474547
0.0008861474532
0.0008861475708
0.0008861475609
0.0008861475363
0.0008861475455
0.000886147541
0.0008861475382
0.0008861475332
0.0008861475435
0.0008861470531
0.000886146408
0.000886147257
0.0008861470221
0.0008861467476
0.0008861469645
0.0008861469398
0.0008861468894
0.0008861466997
0.000886146803
0.0008861471159
0.0008861472437
0.0008861471066
0.0008861423664
0.0008861452058
0.0008861403988
0.0008861446982
0.0008861423475
0.0008861446962
0.0008861464164
0.0008861461891
0.0008861468682
0.0008861469681
0.0008861471591
0.0008861472951
0.0008861487405
0.0008861473781
0.0008861474178
0.0008861474564
0.0008861474558
0.0008861474554
0.0008861474876
0.0008861474496
0.000886147498
0.0008861474846
0.0008861474496
0.0008861474939
0.0008861475226
0.0008861475184
0.0008861475193
0.000886146131
0.0008861475112
0.0008861426312
0.0008861471011
0.0008861471677
0.0008861471073
0.0008861470254
0.000886147087
0.0008861470692
0.0008861466765
0.0008861469773
0.0008861467878
0.0008861471157
0.0008861470591
0.0008861471528
0.0008861403504
0.0008861460117
0.0008861402585
0.000886145108
0.0008861427172
0.000886145163
0.0008861470535
0.0008861465063
0.0008861470779
0.0008861473763
0.0008861472985
0.0008861473826
0.0008861474391
0.000886147422
0.0008861474356
0.0008861474506
0.0008861474401
0.0008861474427
0.0008861475054
0.0008861474467
0.0008861475074
0.0008861473947
0.0008861474303
0.0008861474213
0.0008861401016
0.0008861400044
0.000886139437
0.0008861412831
0.0008861392089
0.0008861406222
0.0008861470909
0.0008861469834
0.0008861470644
0.0008861470895
0.0008861470973
0.0008861470954
0.0008861468555
0.0008861470347
0.0008861468924
0.0008861470287
0.0008861468777
0.0008861468688
0.0008861396471
0.0008861436244
0.000886139633
0.0008861399333
0.0008861397485
0.0008861399392
0.0008861402547
0.0008861398873
0.0008861400316
0.0008861378579
0.0008861392191
0.0008861381301
0.0008861474365
0.0008861474337
0.0008861474366
0.0008861474364
0.0008861474347
0.0008861474324
0.0008861474553
0.00088614747
0.0008861474563
0.0008861474746
0.0008861474779
0.0008861396575
0.0008861398802
0.0008861399473
0.0008861402319
0.0008861399917
0.0008861400712
0.0008861470353
0.0008861468063
0.0008861470195
0.0008861470968
0.0008861470925
0.0008861470931
0.0008861468949
0.0008861469405
0.0008861467877
0.0008861466982
0.0008861466988
0.000886146461
0.0008861396882
0.0008861409785
0.0008861422113
0.000886139998
0.0008861443131
0.0008861458803
0.0008861400869
0.0008861467405
0.0008861471371
0.0008861383608
0.0008861472979
0.0008861474221
0.0008861474348
0.000886147432
0.0008861474325
0.0008861474293
0.0008861474289
0.0008861474261
0.000886147476
0.0008861474774
0.000886147482
0.0008861474805
0.0008861474818
0.0008861431058
0.0008861474815
0.0008861474794
0.0008861460306
0.0008861474757
0.0008861474702
0.0008861470777
0.0008861474642
0.000886147463
0.0008861470133
0.0008861474604
0.0008861471165
0.0008861466707
0.0008861471663
0.000886147264
0.0008861460959
0.0008861473789
0.0008861474473
0.0008861414418
0.0008861474631
0.0008861474607
0.0008861449356
0.0008861474575
0.0008861474545
0.0008861467457
0.0008861474487
0.0008861473934
0.000886147437
0.0008861474342
0.0008861474347
0.0008861478998
0.0008861477999
0.0008861483828
0.0008861479486
0.0008861481185
0.0008861493629
0.0008861483207
0.0008861485847
0.0008861517486
0.0008861489631
0.0008861495455
0.0008861594149
0.0008861504993
0.000886153611
0.0008861643407
0.0008861588775
0.0008861644062
0.0008861659344
0.0008861666591
0.0008861673985
0.0008861625153
0.0008861641822
0.0008861645351
0.0008861567188
0.0008861624177
0.0008861595431
0.0008861550322
0.0008861519113
0.0008861503287
0.00088614898
0.0008861481877
0.0008861491829
0.0008861477369
0.0008861479978
0.0008861483007
0.0008861487369
0.000886150127
0.0008861572087
0.0008861676266
0.0008861628758
0.0008861476843
0.0008861477977
0.0008861484608
0.0008861486393
0.000886148976
0.0008861496678
0.0008861562241
0.0008861634344
0.000886163063
0.0008861668735
0.0008861584946
0.0008861655507
0.0008861536309
0.0008861610345
0.0008861579058
0.0008861476176
0.0008861478391
0.0008861480841
0.0008861478873
0.000886148004
0.0008861483217
0.0008861481235
0.0008861485784
0.0008861491621
0.0008861485733
0.0008861487223
0.0008861531489
0.0008861489868
0.0008861497512
0.0008861505882
0.0008861640084
0.0008861676547
0.0008861642396
0.0008861648118
0.0008861698151
0.0008861693176
0.0008861710449
0.0008861475462
0.0008861478733
0.0008861481457
0.0008861479794
0.000886148391
0.0008861484889
0.0008861488366
0.00088614858
0.0008861486719
0.0008861489204
0.0008861487744
0.0008861503661
0.0008861491212
0.0008861566598
0.000886147611
0.0008861477921
0.0008861484261
0.0008861487869
0.000886148837
0.0008861474381
0.000886149727
0.000886147437
0.0008861530776
0.0008861474358
0.0008861570158
0.0008861474349
0.0008861582755
0.0008861474464
0.0008861591822
0.000886147449
0.0008861605624
0.0008861474513
0.0008861560916
0.0008861474334
0.0008861476701
0.0008861474657
0.0008861474283
0.0008861474852
0.000886147472
0.0008861474792
0.00088614746
0.0008861474646
0.000886147462
0.0008861474659
0.0008861474598
0.0008861474483
0.0008861473754
0.000886147436
0.0008861474337
0.0008861474256
0.0008861474303
0.0008861474292
0.0008861475531
0.0008861475545
0.0008861474815
0.0008861473115
0.000886147374
0.0008861474056
0.0008861474367
0.0008861472987
0.0008861472628
0.0008861472251
0.0008861474346
0.0008861474391
0.0008861474453
0.0008861474233
0.0008861474244
0.0008861474407
0.0008861475731
0.0008861475694
0.0008861475362
0.0008861465213
0.0008861465327
0.0008861439204
0.0008861473198
0.0008861466844
0.0008861465774
0.0008861466471
0.000886146633
0.0008861473338
0.0008861474519
0.0008861474576
0.0008861475675
0.0008861475612
0.0008861475458
0.0008861471401
0.00088614677
0.0008861454683
0.000886147271
0.0008861451076
0.0008861433799
0.0008861457585
0.0008861467676
0.0008861471395
0.0008861474578
0.0008861474479
0.0008861474785
0.0008861475143
0.0008861475349
0.0008861472306
0.000886147051
0.0008861468968
0.0008861471832
0.0008861456075
0.000886142717
0.0008861464675
0.0008861472852
0.0008861474175
0.0008861474477
0.0008861474499
0.0008861474294
0.0008861461626
0.0008861400786
0.0008861470804
0.0008861470988
0.000886147017
0.0008861469434
0.0008861464082
0.0008861397472
0.0008861401943
0.000886139535
0.0008861474298
0.0008861474368
0.0008861474395
0.000886147457
0.000886140113
0.0008861398366
0.0008861468846
0.0008861470911
0.0008861470379
0.0008861468047
0.0008861420291
0.000886139808
0.000886140219
0.0008861379769
0.0008861474334
0.0008861474319
0.0008861474383
0.0008861474673
0.00088614748
0.0008861413906
0.0008861449826
0.000886146808
0.0008861470998
0.0008861468323
0.0008861465416
0.0008861403492
0.0008861432466
0.0008861460658
0.0008861474341
0.0008861474305
0.0008861474257
0.0008861474663
0.0008861474643
0.000886147457
0.0008861474431
0.0008861474621
0.0008861474971
0.0008861474857
0.0008861474757
0.0008861474686
0.0008861474608
0.0008861474329
0.0008861474294
0.0008861474276
0.000886147732
0.0008861481084
0.0008861487708
0.0008861502945
0.0008861539663
0.0008861630191
0.0008861649004
0.0008861645047
0.0008861594659
0.0008861542451
0.0008861513038
0.0008861579963
0.0008861483293
0.0008861480957
0.0008861480327
0.000886148988
0.0008861477641
0.0008861485219
0.0008861478622
0.0008861481422
0.0008861480485
0.0008861484894
0.0008861483126
0.0008861491005
0.0008861523747
0.0008861638192
0.0008861553346
0.0008861584708
0.0008861525045
0.000886164347
0.0008861482706
0.0008861481827
0.000886148275
0.0008861684136
0.0008861663767
0.000886169373
0.0008861634486
0.0008861723745
0.0008861753957
0.0008861645365
0.0008861757264
0.0008861740236
0.0008861776302
0.0008861781558
0.0008861799704
0.0008861831636
0.0008861804941
0.0008861793715
0.0008861805054
0.000886180317
0.0008861802518
0.0008861793495
0.000886159309
0.0008861686143
0.000886176306
0.0008861804005
0.0008861782584
0.000886179157
0.0008861733796
0.0008861700523
0.0008861729538
0.0008861755924
0.0008861805875
0.0008861770515
0.0008861779705
0.000886177406
0.0008861475055
0.0008861476454
0.0008861478361
0.0008861481171
0.0008861480546
0.0008861483297
0.0008861482775
0.0008861484816
0.0008861486413
0.0008861487346
0.0008861623735
0.00088616375
0.0008861635696
0.0008861635748
0.0008861653517
0.0008861669975
0.0008861674599
0.0008861668621
0.0008861699284
0.000886164193
0.0008861652125
0.0008861649692
0.0008861649032
0.0008861669277
0.0008861681658
0.0008861678134
0.0008861687171
0.000886171729
0.0008861646224
0.0008861645404
0.0008861641807
0.0008861643762
0.0008861667624
0.0008861675483
0.0008861669036
0.0008861691612
0.0008861728972
0.0008861474387
0.0008861488028
0.0008861474468
0.0008861480974
0.0008861474376
0.0008861511428
0.0008861474488
0.0008861474492
0.0008861484617
0.0008861490147
0.0008861474364
0.0008861552384
0.0008861474495
0.0008861474521
0.0008861498811
0.0008861512318
0.0008861474353
0.0008861579931
0.0008861474534
0.0008861474522
0.0008861531908
0.0008861556401
0.0008861474451
0.000886158594
0.0008861474528
0.0008861474574
0.0008861580921
0.0008861604552
0.0008861474478
0.0008861599037
0.000886147461
0.0008861474643
0.0008861611251
0.0008861617929
0.0008861474544
0.0008861602188
0.0008861474668
0.0008861474682
0.0008861625212
0.0008861641758
0.0008861474402
0.0008861524333
0.0008861474691
0.0008861474702
0.0008861627489
0.000886159945
0.0008861474294
0.0008861475161
0.0008861474719
0.0008861474504
0.0008861565438
0.0008861526682
0.0008861474347
0.0008861474339
0.0008861500691
0.0008861474316
0.00088614743
0.0008861474352
0.000886147438
0.0008861474409
0.0008861474356
0.0008861476486
0.0008861474486
0.0008861475757
0.0008861475926
0.0008861474653
0.0008861474627
0.0008861474692
0.0008861474775
0.000886147632
0.0008861476415
0.0008861475018
0.0008861474381
0.0008861475226
0.0008861474438
0.0008861474819
0.0008861474478
0.0008861474446
0.0008861474495
0.0008861474182
0.0008861474246
0.0008861474495
0.0008861474302
0.0008861474285
0.0008861474212
0.0008861474263
0.0008861474184
0.0008861474234
0.0008861474227
0.0008861474483
0.0008861474558
0.0008861474829
0.0008861474653
0.000886147427
0.0008861474437
0.00088614745
0.000886147466
0.0008861474252
0.000886147424
0.0008861474277
0.0008861474338
0.0008861474274
0.0008861474613
0.0008861474235
0.0008861474234
0.0008861474194
0.0008861474226
0.000886147419
0.0008861474513
0.0008861474231
0.0008861474223
0.0008861474146
0.0008861474163
0.0008861474143
0.0008861474594
0.0008861474211
0.0008861474203
0.0008861474125
0.000886147413
0.0008861474124
0.0008861474478
0.0008861474207
0.0008861474227
0.0008861474122
0.0008861474121
0.000886147412
0.000886147491
0.0008861474383
0.0008861474383
0.0008861558161
0.0008861600937
0.0008861675347
0.0008861474805
0.000886147437
0.0008861474356
0.0008861578954
0.0008861638602
0.0008861639827
0.0008861474716
0.000886147434
0.0008861474315
0.0008861593909
0.0008861636438
0.0008861634587
0.0008861474659
0.0008861474285
0.000886147432
0.0008861483347
0.0008861632901
0.000886163107
0.0008861474356
0.0008861474332
0.0008861474337
0.000886147643
0.0008861585298
0.0008861536055
0.0008861474517
0.0008861474327
0.0008861474328
0.0008861483764
0.000886150095
0.0008861475384
0.000886147842
0.0008861488505
0.0008861498042
0.0008861480344
0.0008861487845
0.0008861517403
0.0008861485345
0.0008861498249
0.000886152097
0.0008861504127
0.0008861480739
0.0008861499499
0.0008861493197
0.0008861476783
0.0008861486837
0.0008861482119
0.0008861475338
0.0008861475167
0.0008861479277
0.0008861477481
0.000886147655
0.0008861475155
0.0008861476564
0.0008861475384
0.0008861478082
0.000886147694
0.0008861476864
0.0008861475094
0.0008861474294
0.0008861474197
0.000886147421
0.0008861474143
0.0008861474171
0.0008861474145
0.0008861474123
0.000886147413
0.0008861474123
0.0008861474118
0.0008861474119
0.0008861474116
0.0008861758679
0.0008861627016
0.0008861811808
0.0008861694267
0.000886174377
0.0008861738539
0.000886168256
0.0008861730132
0.0008861725619
0.0008861676721
0.0008861720277
0.0008861715659
0.0008861587324
0.000886170729
0.0008861649474
0.0008861498339
0.0008861543034
0.0008861533597
0.0008861483303
0.0008861498648
0.0008861479205
0.0008861481776
0.0008861513404
0.0008861634769
0.0008861568913
0.0008861646647
0.0008861595675
0.000886157491
0.0008861562222
0.0008861635371
0.0008861572253
0.0008861513521
0.0008861542034
0.0008861581416
0.0008861603085
0.0008861639392
0.0008861528137
0.0008861596238
0.0008861726173
0.0008861497932
0.0008861538352
0.0008861558111
0.0008861741915
0.0008861483692
0.0008861514707
0.0008861502492
0.000886149807
0.000886150303
0.0008861539373
0.0008861523763
0.0008861487876
0.0008861498031
0.0008861505656
0.0008861510627
0.0008861474285
0.0008861474237
0.0008861474151
0.0008861474214
0.0008861474164
0.0008861474138
0.0008861474125
0.0008861474123
0.0008861474119
0.0008861474115
0.0008861474115
0.0008861814655
0.0008861645837
0.0008861779092
0.0008861773092
0.0008861768109
0.0008861760463
0.0008861767695
0.0008861750817
0.0008861767896
0.0008861764319
0.0008861740473
0.0008861761347
0.0008861682749
0.000886176
0.0008861764166
0.0008861617691
0.0008861748045
0.0008861708649
0.0008861597748
0.0008861475828
0.0008861476742
0.0008861477766
0.0008861482398
0.0008861483515
0.0008861484581
0.0008861490754
0.0008861493498
0.0008861504468
0.0008861555919
0.0008861477185
0.0008861479257
0.0008861483662
0.0008861485666
0.0008861654955
0.000886156039
0.0008861701298
0.0008861705033
0.0008861658004
0.0008861707317
0.0008861732356
0.0008861782147
0.0008861775111
0.0008861794246
0.0008861796568
0.0008861816229
0.0008861808576
0.0008861726928
0.000886160475
0.000886177308
0.0008861804289
0.0008861766562
0.0008861644207
0.0008861693798
0.0008861686608
0.0008861757605
0.0008861740315
0.0008861764203
0.0008861779107
0.0008861765277
0.0008861761502
0.0008861787154
0.000886176162
0.0008861782138
0.000886180032
0.0008861795951
0.0008861806402
0.0008861807992
0.0008861797433
0.0008861794091
0.0008861794553
0.0008861792529
0.0008861664835
0.0008861724823
0.0008861761732
0.0008861787049
0.000886163464
0.0008861729024
0.000886177244
0.0008861750191
0.0008861738226
0.0008861766746
0.0008861780799
0.0008861704595
0.0008861773924
0.0008861798114
0.000886178175
0.0008861802909
0.0008861806128
0.0008861799168
0.0008861798802
0.0008861779621
0.0008861787402
0.0008861475197
0.0008861475899
0.0008861476745
0.0008861477703
0.0008861480852
0.0008861481888
0.0008861482908
0.0008861488133
0.0008861488608
0.0008861491029
0.0008861498891
0.0008861474968
0.0008861474847
0.0008861476335
0.00088614754
0.0008861478229
0.0008861476959
0.0008861480394
0.0008861478967
0.0008861480062
0.000886148252
0.0008861482259
0.0008861484414
0.0008861486062
0.0008861485127
0.0008861485894
0.0008861487656
0.0008861486656
0.0008861487299
0.0008861488317
0.0008861487642
0.0008861513375
0.0008861488557
0.0008861528913
0.000886149247
0.0008861647769
0.0008861718848
0.0008861489421
0.000886159861
0.0008861495186
0.00088617448
0.0008861711937
0.0008861761551
0.0008861754491
0.000886176531
0.0008861776209
0.0008861785871
0.000886177316
0.0008861777446
0.0008861791505
0.0008861757405
0.0008861769247
0.0008861780709
0.0008861762631
0.0008861766919
0.0008861676423
0.0008861658505
0.0008861679868
0.0008861709463
0.0008861687208
0.0008861684448
0.0008861694881
0.0008861667034
0.000886172779
0.0008861697814
0.0008861700983
0.000886170285
0.0008861738714
0.0008861713538
0.0008861713167
0.0008861731162
0.0008861747348
0.0008861710914
0.0008861782948
0.0008861755067
0.0008861780136
0.000886175065
0.0008861743323
0.0008861744629
0.000886177157
0.0008861750488
0.0008861758428
0.0008861756867
0.0008861769608
0.0008861768207
0.000886176057
0.0008861776427
0.0008861771962
0.0008861706201
0.0008861676726
0.0008861758272
0.0008861725583
0.0008861731007
0.0008861767256
0.0008861772659
0.0008861805901
0.0008861768801
0.0008861787809
0.0008861773978
0.0008861474597
0.000886147442
0.0008861475678
0.0008861474807
0.0008861475366
0.0008861477358
0.0008861476086
0.0008861476944
0.0008861479434
0.0008861477911
0.0008861478957
0.0008861481669
0.0008861480052
0.0008861481169
0.0008861483834
0.0008861482284
0.000886148337
0.0008861485693
0.0008861484403
0.0008861485356
0.0008861486974
0.0008861486178
0.0008861486807
0.0008861487555
0.0008861487213
0.0008861487436
0.0008861487585
0.0008861610221
0.0008861633291
0.0008861632725
0.0008861644106
0.0008861653087
0.0008861637785
0.0008861658088
0.0008861659115
0.0008861634177
0.0008861657552
0.000886165586
0.000886164251
0.0008861656868
0.0008861663513
0.0008861664214
0.0008861674191
0.0008861682618
0.0008861671625
0.0008861683766
0.0008861680264
0.0008861668715
0.0008861676277
0.000886167405
0.0008861677901
0.0008861677014
0.0008861687997
0.0008861719
0.0008861707371
0.0008861727658
0.0008861745265
0.0008861632906
0.0008861638772
0.0008861648803
0.0008861644507
0.0008861647989
0.0008861651959
0.0008861648953
0.0008861647701
0.0008861647766
0.0008861645045
0.0008861643101
0.0008861656707
0.0008861644536
0.0008861652607
0.0008861679552
0.0008861665873
0.0008861676101
0.0008861679149
0.0008861676987
0.0008861673319
0.0008861680318
0.0008861674259
0.0008861680175
0.0008861699566
0.0008861690917
0.0008861706083
0.0008861735613
0.0008861724945
0.000886173963
0.0008861755498
0.000886173732
0.0008861644463
0.0008861653928
0.0008861647373
0.000886164646
0.0008861654981
0.0008861654668
0.0008861651546
0.0008861643748
0.0008861653098
0.0008861652251
0.0008861661084
0.0008861641102
0.0008861651299
0.0008861651514
0.0008861653116
0.0008861654614
0.0008861664627
0.0008861681122
0.0008861677368
0.0008861679856
0.0008861690593
0.0008861668737
0.0008861690495
0.0008861683749
0.000886167718
0.0008861681164
0.0008861683972
0.0008861707477
0.000886171133
0.0008861698454
0.0008861715763
0.0008861724924
0.0008861737147
)
;

boundaryField
{
    walls
    {
        type            zeroGradient;
    }
    wallFilmFace_top
    {
        type            zeroGradient;
    }
    region0_to_wallFilmRegion_wallFilmFace
    {
        type            zeroGradient;
    }
    mirrorFace_top
    {
        type            zeroGradient;
    }
    region0_to_wallFilmRegion_mirrorFace
    {
        type            zeroGradient;
    }
    procBoundary3to2
    {
        type            processor;
        value           nonuniform List<scalar> 
64
(
0.00088614746
0.0008861475415
0.0008861474426
0.0008861474263
0.0008861474306
0.000886147529
0.0008861474825
0.0008861474527
0.0008861653204
0.000886147469
0.0008861474974
0.0008861474911
0.0008861474911
0.0008861475177
0.0008861475405
0.0008861475673
0.0008861475635
0.000886147558
0.0008861475565
0.0008861475579
0.0008861474974
0.000886147462
0.0008861474366
0.0008861474366
0.0008861474451
0.0008861474582
0.0008861474582
0.0008861474537
0.0008861474726
0.0008861474726
0.0008861475923
0.0008861476685
0.0008861476685
0.0008861476227
0.0008861475796
0.0008861474393
0.0008861482235
0.0008861474451
0.000886147462
0.0008861478435
0.000886174172
0.0008861474456
0.0008861474304
0.0008861603161
0.0008861625547
0.0008861641874
0.0008861474451
0.0008861478435
0.0008861474291
0.0008861474674
0.0008861477324
0.0008861474332
0.0008861474263
0.000886147438
0.0008861475063
0.0008861731631
0.0008861708483
0.0008861474663
0.0008861683013
0.0008861676088
0.0008861474198
0.0008861628427
0.0008861632439
0.0008861652577
)
;
    }
}


// ************************************************************************* //
