/*--------------------------------*- C++ -*----------------------------------*\
  =========                 |
  \\      /  F ield         | OpenFOAM: The Open Source CFD Toolbox
   \\    /   O peration     | Website:  https://openfoam.org
    \\  /    A nd           | Version:  8
     \\/     M anipulation  |
\*---------------------------------------------------------------------------*/
FoamFile
{
    version     2.0;
    format      ascii;
    class       volScalarField;
    location    "1.4/wallFilmRegion";
    object      rho;
}
// * * * * * * * * * * * * * * * * * * * * * * * * * * * * * * * * * * * * * //

dimensions      [1 -3 0 0 0 0 0];

internalField   nonuniform List<scalar> 
1342
(
994.5114689
994.511469
994.5114694
994.5114697
994.5114699
994.5114685
994.5114685
994.5114687
994.5114686
994.5114685
994.5114685
994.5114684
994.5115793
994.5115945
994.5116243
994.5116366
994.5114755
994.5114696
994.5114967
994.5114827
994.5114811
994.5114743
994.5114708
994.5114698
994.5114711
994.5114688
994.5114686
994.5114685
994.5114685
994.5114684
994.5116618
994.5117703
994.5117574
994.5117465
994.5117106
994.5115372
994.5116808
994.511536
994.5115247
994.5115576
994.5115179
994.5114855
994.5115209
994.5114685
994.5114685
994.5114684
994.5116877
994.5118668
994.5118501
994.5118384
994.5118191
994.5114727
994.511476
994.5114792
994.5114825
994.511487
994.511505
994.5114986
994.5115614
994.5117389
994.5117244
994.5115719
994.5115823
994.5118447
994.5114714
994.511474
994.5114769
994.51148
994.5114828
994.5114856
994.5114881
994.5114919
994.5115683
994.5117961
994.5118842
994.5118695
994.5114704
994.5114727
994.5114755
994.5114785
994.5114812
994.5114836
994.5114861
994.5114872
994.5114871
994.511503
994.5118291
994.5118449
994.5118681
994.5116977
994.5117125
994.5117274
994.5117352
994.5117741
994.5118001
994.5117817
994.5118005
994.5118465
994.5114858
994.5114688
994.5114771
994.511474
994.511471
994.5114706
994.5114687
994.5114696
994.5114707
994.5114699
994.5114698
994.5114694
994.5114691
994.5114693
994.5114694
994.5114693
994.5114694
994.5114691
994.5114677
994.5114692
994.5114678
994.5114681
994.5114691
994.5114686
994.5114689
994.5114691
994.511469
994.5114691
994.5114692
994.5114692
994.511469
994.511469
994.5114686
994.5114675
994.5114688
994.5114673
994.511467
994.5114611
994.5114664
994.5114611
994.5114688
994.5114688
994.5114688
994.5114705
994.5114707
994.5114707
994.5114697
994.5114706
994.5114702
994.5114664
994.51147
994.5114619
994.5114675
994.5114637
994.5114648
994.5114683
994.5114652
994.5114645
994.5114689
994.5114554
994.5114678
994.5114685
994.5114681
994.5114675
994.5114664
994.5114643
994.5114636
994.5114663
994.5114636
994.5114637
994.5114633
994.5114636
994.5114637
994.5114688
994.5114663
994.5114689
994.5114689
994.5114688
994.5114689
994.5114688
994.5114689
994.5114689
994.5114707
994.5114706
994.5114706
994.5114704
994.5114706
994.5114703
994.5114564
994.5114702
994.5114699
994.5114573
994.5114553
994.5114542
994.511448
994.511456
994.5114165
994.5114644
994.5113896
994.5114619
994.5114656
994.5114668
994.5114649
994.5114571
994.511447
994.5114401
994.5114575
994.5114432
994.5114468
994.5114583
994.5114506
994.5114547
994.5114659
994.5114589
994.5114649
994.511469
994.5114684
994.511469
994.511469
994.511469
994.511469
994.5114706
994.5114705
994.5114701
994.5114703
994.5114702
994.5114702
994.5114701
994.5114702
994.5114636
994.5114548
994.5114663
994.5114631
994.5114594
994.5114623
994.511462
994.5114613
994.5114587
994.5114601
994.5114644
994.5114662
994.5114643
994.5113997
994.5114384
994.5113729
994.5114315
994.5113995
994.5114315
994.5114549
994.5114518
994.511461
994.5114624
994.511465
994.5114669
994.5114865
994.511468
994.5114685
994.511469
994.511469
994.511469
994.5114695
994.511469
994.5114696
994.5114694
994.511469
994.5114696
994.51147
994.5114699
994.5114699
994.511451
994.5114698
994.5114033
994.5114642
994.5114651
994.5114643
994.5114632
994.511464
994.5114638
994.5114584
994.5114625
994.5114599
994.5114644
994.5114636
994.5114649
994.5113723
994.5114494
994.511371
994.5114371
994.5114045
994.5114378
994.5114636
994.5114561
994.5114639
994.511468
994.5114669
994.511468
994.5114688
994.5114686
994.5114688
994.511469
994.5114688
994.5114689
994.5114697
994.5114689
994.5114697
994.5114682
994.5114687
994.5114686
994.5113689
994.5113676
994.5113598
994.511385
994.5113567
994.511376
994.5114641
994.5114626
994.5114637
994.5114641
994.5114642
994.5114641
994.5114609
994.5114633
994.5114614
994.5114632
994.5114612
994.511461
994.5113627
994.5114169
994.5113625
994.5113666
994.5113641
994.5113667
994.511371
994.511366
994.5113679
994.5113383
994.5113569
994.511342
994.5114688
994.5114687
994.5114688
994.5114688
994.5114688
994.5114687
994.511469
994.5114692
994.511469
994.5114693
994.5114693
994.5113628
994.5113659
994.5113668
994.5113707
994.5113674
994.5113685
994.5114633
994.5114602
994.5114631
994.5114642
994.5114641
994.5114641
994.5114614
994.511462
994.5114599
994.5114587
994.5114587
994.5114555
994.5113633
994.5113808
994.5113976
994.5113675
994.5114262
994.5114476
994.5113687
994.5114593
994.5114647
994.5113452
994.5114669
994.5114686
994.5114688
994.5114687
994.5114687
994.5114687
994.5114687
994.5114686
994.5114693
994.5114693
994.5114694
994.5114694
994.5114694
994.5114098
994.5114694
994.5114694
994.5114496
994.5114693
994.5114692
994.5114639
994.5114692
994.5114691
994.511463
994.5114691
994.5114644
994.5114583
994.5114651
994.5114664
994.5114505
994.511468
994.5114689
994.5113871
994.5114691
994.5114691
994.5114347
994.5114691
994.511469
994.5114594
994.5114689
994.5114682
994.5114688
994.5114687
994.5114688
994.5114751
994.5114737
994.5114817
994.5114758
994.5114781
994.511495
994.5114808
994.5114844
994.5115275
994.5114896
994.5114975
994.5116319
994.5115105
994.5115529
994.511699
994.5116246
994.5116999
994.5117207
994.5117306
994.5117406
994.5116741
994.5116968
994.5117016
994.5115952
994.5116728
994.5116337
994.5115722
994.5115297
994.5115082
994.5114898
994.511479
994.5114926
994.5114729
994.5114764
994.5114805
994.5114865
994.5115054
994.5116019
994.5117437
994.511679
994.5114722
994.5114737
994.5114827
994.5114852
994.5114897
994.5114992
994.5115885
994.5116866
994.5116816
994.5117335
994.5116194
994.5117155
994.5115531
994.511654
994.5116114
994.5114712
994.5114743
994.5114776
994.5114749
994.5114765
994.5114808
994.5114781
994.5114843
994.5114923
994.5114843
994.5114863
994.5115466
994.5114899
994.5115003
994.5115117
994.5116945
994.5117441
994.5116976
994.5117054
994.5117735
994.5117668
994.5117903
994.5114703
994.5114747
994.5114784
994.5114762
994.5114818
994.5114831
994.5114878
994.5114844
994.5114856
994.511489
994.511487
994.5115087
994.5114917
994.5115944
994.5114712
994.5114736
994.5114823
994.5114872
994.5114879
994.5114688
994.5115
994.5114688
994.5115456
994.5114688
994.5115992
994.5114688
994.5116164
994.5114689
994.5116287
994.5114689
994.5116475
994.511469
994.5115867
994.5114687
994.511472
994.5114692
994.5114687
994.5114694
994.5114693
994.5114694
994.5114691
994.5114692
994.5114691
994.5114692
994.5114691
994.5114689
994.5114679
994.5114688
994.5114687
994.5114686
994.5114687
994.5114687
994.5114704
994.5114704
994.5114694
994.5114671
994.5114679
994.5114684
994.5114688
994.5114669
994.5114664
994.5114659
994.5114688
994.5114688
994.5114689
994.5114686
994.5114686
994.5114688
994.5114706
994.5114706
994.5114701
994.5114563
994.5114565
994.5114209
994.5114672
994.5114585
994.5114571
994.511458
994.5114578
994.5114674
994.511469
994.5114691
994.5114706
994.5114705
994.5114703
994.5114647
994.5114597
994.511442
994.5114665
994.5114371
994.5114135
994.5114459
994.5114597
994.5114647
994.5114691
994.5114689
994.5114693
994.5114698
994.5114701
994.511466
994.5114635
994.5114614
994.5114653
994.5114439
994.5114045
994.5114556
994.5114667
994.5114685
994.5114689
994.511469
994.5114687
994.5114514
994.5113686
994.5114639
994.5114642
994.5114631
994.5114621
994.5114548
994.5113641
994.5113701
994.5113612
994.5114687
994.5114688
994.5114688
994.5114691
994.511369
994.5113653
994.5114613
994.5114641
994.5114633
994.5114602
994.5113951
994.5113649
994.5113705
994.5113399
994.5114687
994.5114687
994.5114688
994.5114692
994.5114694
994.5113864
994.5114354
994.5114602
994.5114642
994.5114605
994.5114566
994.5113723
994.5114117
994.5114501
994.5114687
994.5114687
994.5114686
994.5114692
994.5114692
994.5114691
994.5114689
994.5114691
994.5114696
994.5114694
994.5114693
994.5114692
994.5114691
994.5114687
994.5114687
994.5114687
994.5114728
994.5114779
994.5114869
994.5115077
994.5115577
994.511681
994.5117066
994.5117012
994.5116326
994.5115615
994.5115214
994.5116126
994.5114809
994.5114778
994.5114769
994.5114899
994.5114732
994.5114836
994.5114746
994.5114784
994.5114771
994.5114831
994.5114807
994.5114914
994.511536
994.5116919
994.5115763
994.5116191
994.5115378
994.5116991
994.5114801
994.5114789
994.5114802
994.5117545
994.5117267
994.5117675
994.5116868
994.5118084
994.5118495
994.5117017
994.511854
994.5118309
994.51188
994.5118871
994.5119118
994.5119553
994.511919
994.5119037
994.5119191
994.5119166
994.5119157
994.5119034
994.5116305
994.5117572
994.5118619
994.5119177
994.5118885
994.5119008
994.5118221
994.5117768
994.5118163
994.5118522
994.5119202
994.5118721
994.5118846
994.5118769
994.5114697
994.5114716
994.5114742
994.511478
994.5114772
994.5114809
994.5114802
994.511483
994.5114852
994.5114865
994.5116722
994.5116909
994.5116885
994.5116886
994.5117128
994.5117352
994.5117415
994.5117333
994.5117751
994.511697
994.5117109
994.5117076
994.5117067
994.5117342
994.5117511
994.5117463
994.5117586
994.5117996
994.5117028
994.5117017
994.5116968
994.5116995
994.511732
994.5117427
994.5117339
994.5117646
994.5118155
994.5114688
994.5114874
994.5114689
994.5114778
994.5114688
994.5115193
994.5114689
994.511469
994.5114827
994.5114903
994.5114688
994.511575
994.511469
994.511469
994.5115021
994.5115205
994.5114688
994.5116125
994.511469
994.511469
994.5115471
994.5115805
994.5114689
994.5116207
994.511469
994.5114691
994.5116139
994.5116461
994.5114689
994.5116386
994.5114691
994.5114692
994.5116552
994.5116643
994.511469
994.5116429
994.5114692
994.5114692
994.5116742
994.5116967
994.5114688
994.5115368
994.5114692
994.5114692
994.5116773
994.5116391
994.5114687
994.5114699
994.5114693
994.511469
994.5115928
994.51154
994.5114688
994.5114687
994.5115046
994.5114687
994.5114687
994.5114688
994.5114688
994.5114688
994.5114688
994.5114717
994.5114689
994.5114707
994.5114709
994.5114692
994.5114691
994.5114692
994.5114693
994.5114714
994.5114716
994.5114697
994.5114688
994.51147
994.5114689
994.5114694
994.5114689
994.5114689
994.511469
994.5114685
994.5114686
994.511469
994.5114687
994.5114687
994.5114686
994.5114686
994.5114685
994.5114686
994.5114686
994.5114689
994.511469
994.5114694
994.5114692
994.5114686
994.5114689
994.511469
994.5114692
994.5114686
994.5114686
994.5114687
994.5114687
994.5114687
994.5114691
994.5114686
994.5114686
994.5114685
994.5114686
994.5114685
994.511469
994.5114686
994.5114686
994.5114685
994.5114685
994.5114685
994.5114691
994.5114686
994.5114686
994.5114685
994.5114685
994.5114684
994.5114689
994.5114686
994.5114686
994.5114684
994.5114684
994.5114684
994.5114695
994.5114688
994.5114688
994.5115829
994.5116412
994.5117425
994.5114694
994.5114688
994.5114688
994.5116112
994.5116924
994.5116941
994.5114693
994.5114687
994.5114687
994.5116316
994.5116895
994.511687
994.5114692
994.5114687
994.5114687
994.511481
994.5116847
994.5116822
994.5114688
994.5114687
994.5114687
994.5114716
994.5116199
994.5115528
994.511469
994.5114687
994.5114687
994.5114816
994.511505
994.5114702
994.5114743
994.511488
994.511501
994.5114769
994.5114871
994.5115274
994.5114837
994.5115013
994.5115322
994.5115093
994.5114775
994.511503
994.5114944
994.5114721
994.5114858
994.5114793
994.5114701
994.5114699
994.5114755
994.511473
994.5114718
994.5114699
994.5114718
994.5114702
994.5114738
994.5114723
994.5114722
994.5114698
994.5114687
994.5114685
994.5114686
994.5114685
994.5114685
994.5114685
994.5114684
994.5114685
994.5114684
994.5114684
994.5114684
994.5114684
994.511856
994.5116767
994.5119283
994.5117683
994.5118357
994.5118285
994.5117523
994.5118171
994.511811
994.5117444
994.5118037
994.5117974
994.5116226
994.511786
994.5117073
994.5115014
994.5115623
994.5115494
994.511481
994.5115018
994.5114754
994.5114789
994.5115219
994.5116872
994.5115975
994.5117034
994.511634
994.5116057
994.5115884
994.511688
994.5116021
994.5115221
994.5115609
994.5116146
994.5116441
994.5116935
994.511542
994.5116348
994.5118117
994.5115009
994.5115559
994.5115828
994.5118331
994.5114815
994.5115237
994.5115071
994.5115011
994.5115078
994.5115573
994.5115361
994.5114872
994.511501
994.5115114
994.5115182
994.5114687
994.5114686
994.5114685
994.5114686
994.5114685
994.5114685
994.5114685
994.5114684
994.5114684
994.5114684
994.5114684
994.5119322
994.5117023
994.5118838
994.5118756
994.5118688
994.5118584
994.5118683
994.5118453
994.5118685
994.5118637
994.5118312
994.5118596
994.5117526
994.5118578
994.5118634
994.511664
994.5118415
994.5117878
994.5116368
994.5114708
994.511472
994.5114734
994.5114797
994.5114812
994.5114827
994.5114911
994.5114948
994.5115098
994.5115798
994.5114726
994.5114754
994.5114814
994.5114842
994.5117147
994.5115859
994.5117778
994.5117829
994.5117189
994.511786
994.5118201
994.5118879
994.5118784
994.5119044
994.5119076
994.5119343
994.5119239
994.5118127
994.5116463
994.5118756
994.5119181
994.5118667
994.5117001
994.5117676
994.5117578
994.5118545
994.511831
994.5118635
994.5118838
994.511865
994.5118598
994.5118948
994.51186
994.5118879
994.5119127
994.5119067
994.511921
994.5119231
994.5119087
994.5119042
994.5119048
994.5119021
994.5117282
994.5118099
994.5118601
994.5118946
994.5116871
994.5118156
994.5118747
994.5118444
994.5118281
994.511867
994.5118861
994.5117823
994.5118767
994.5119097
994.5118874
994.5119162
994.5119206
994.5119111
994.5119106
994.5118845
994.5118951
994.5114699
994.5114709
994.511472
994.5114733
994.5114776
994.511479
994.5114804
994.5114875
994.5114882
994.5114915
994.5115022
994.5114696
994.5114694
994.5114715
994.5114702
994.511474
994.5114723
994.511477
994.511475
994.5114765
994.5114799
994.5114795
994.5114825
994.5114847
994.5114834
994.5114845
994.5114869
994.5114855
994.5114864
994.5114878
994.5114869
994.5115219
994.5114881
994.5115431
994.5114934
994.5117049
994.5118017
994.5114893
994.511638
994.5114971
994.5118371
994.5117923
994.5118599
994.5118503
994.511865
994.5118798
994.511893
994.5118757
994.5118815
994.5119007
994.5118542
994.5118704
994.511886
994.5118614
994.5118672
994.511744
994.5117196
994.5117486
994.5117889
994.5117586
994.5117549
994.5117691
994.5117312
994.5118139
994.5117731
994.5117774
994.5117799
994.5118288
994.5117945
994.511794
994.5118185
994.5118405
994.5117909
994.511889
994.5118511
994.5118852
994.511845
994.5118351
994.5118368
994.5118735
994.5118448
994.5118556
994.5118535
994.5118709
994.5118689
994.5118585
994.5118801
994.5118741
994.5117845
994.5117444
994.5118554
994.5118109
994.5118183
994.5118677
994.511875
994.5119203
994.5118698
994.5118956
994.5118768
994.5114691
994.5114689
994.5114706
994.5114694
994.5114701
994.5114729
994.5114711
994.5114723
994.5114757
994.5114736
994.511475
994.5114787
994.5114765
994.511478
994.5114817
994.5114796
994.511481
994.5114842
994.5114824
994.5114837
994.5114859
994.5114849
994.5114857
994.5114867
994.5114863
994.5114866
994.5114868
994.5116538
994.5116852
994.5116844
994.5116999
994.5117122
994.5116913
994.511719
994.5117204
994.5116864
994.5117183
994.511716
994.5116978
994.5117173
994.5117264
994.5117273
994.5117409
994.5117524
994.5117374
994.511754
994.5117492
994.5117335
994.5117438
994.5117407
994.511746
994.5117448
994.5117597
994.5118019
994.5117861
994.5118137
994.5118377
994.5116847
994.5116927
994.5117063
994.5117005
994.5117052
994.5117106
994.5117065
994.5117048
994.5117049
994.5117012
994.5116986
994.5117171
994.5117005
994.5117115
994.5117482
994.5117296
994.5117435
994.5117477
994.5117447
994.5117397
994.5117493
994.511741
994.5117491
994.5117755
994.5117637
994.5117843
994.5118246
994.51181
994.51183
994.5118516
994.5118269
994.5117004
994.5117133
994.5117044
994.5117031
994.5117148
994.5117143
994.5117101
994.5116995
994.5117122
994.511711
994.5117231
994.5116959
994.5117097
994.51171
994.5117122
994.5117143
994.5117279
994.5117504
994.5117452
994.5117486
994.5117633
994.5117335
994.5117631
994.5117539
994.511745
994.5117504
994.5117542
994.5117862
994.5117915
994.511774
994.5117975
994.51181
994.5118267
)
;

boundaryField
{
    walls
    {
        type            zeroGradient;
    }
    wallFilmFace_top
    {
        type            zeroGradient;
    }
    region0_to_wallFilmRegion_wallFilmFace
    {
        type            zeroGradient;
    }
    mirrorFace_top
    {
        type            zeroGradient;
    }
    region0_to_wallFilmRegion_mirrorFace
    {
        type            zeroGradient;
    }
    procBoundary3to2
    {
        type            processor;
        value           nonuniform List<scalar> 
64
(
994.5114691
994.5114702
994.5114689
994.5114686
994.5114687
994.51147
994.5114694
994.511469
994.5117123
994.5114692
994.5114696
994.5114695
994.5114695
994.5114699
994.5114702
994.5114706
994.5114705
994.5114704
994.5114704
994.5114704
994.5114696
994.5114691
994.5114688
994.5114688
994.5114689
994.5114691
994.5114691
994.511469
994.5114693
994.5114693
994.5114709
994.5114719
994.5114719
994.5114713
994.5114707
994.5114688
994.5114795
994.5114689
994.5114691
994.5114743
994.5118329
994.5114689
994.5114687
994.5116442
994.5116747
994.5116969
994.5114689
994.5114743
994.5114687
994.5114692
994.5114728
994.5114687
994.5114686
994.5114688
994.5114697
994.5118191
994.5117876
994.5114692
994.5117529
994.5117435
994.5114685
994.5116786
994.5116841
994.5117115
)
;
    }
}


// ************************************************************************* //
