/*--------------------------------*- C++ -*----------------------------------*\
  =========                 |
  \\      /  F ield         | OpenFOAM: The Open Source CFD Toolbox
   \\    /   O peration     | Website:  https://openfoam.org
    \\  /    A nd           | Version:  8
     \\/     M anipulation  |
\*---------------------------------------------------------------------------*/
FoamFile
{
    version     2.0;
    format      ascii;
    class       volScalarField;
    location    "0.5";
    object      htcConv;
}
// * * * * * * * * * * * * * * * * * * * * * * * * * * * * * * * * * * * * * //

dimensions      [1 0 -1 1 0 0 0];

internalField   uniform 0;

boundaryField
{
    walls
    {
        type            calculated;
        value           uniform 0;
    }
    region0_to_wallFilmRegion_wallFilmFace
    {
        type            convectiveHeatTransfer;
        L               1;
        value           nonuniform List<scalar> 
983
(
2.935645528
2.612832734
2.225198641
2.260525768
2.599281405
2.912938408
3.140004202
3.283435911
3.337177649
3.297965886
3.168409644
2.96911735
2.747150668
2.521874654
2.324044677
2.27709918
2.363768222
2.487574064
2.602383709
2.682820636
2.698793547
2.605181809
2.381327171
2.055155103
1.709417452
1.413343096
1.167664646
0.9496174268
0.736461359
0.5371039848
3.153797734
2.935817086
2.563045742
2.407003818
2.564160488
2.843651703
3.053402202
3.184193651
3.222170333
3.174442739
3.044196274
2.846802548
2.606151417
2.318135416
2.231508832
2.380614885
2.512480691
2.600928217
2.657342298
2.680611882
2.653267293
2.552511578
2.347546639
2.053221924
1.727056321
1.437810339
1.193799735
0.9757872891
0.7649946231
0.5782732245
3.337175076
3.147247282
2.791520976
2.583453718
2.644893648
2.872378261
3.039284974
3.131378391
3.15488534
3.103092684
2.957372113
2.735806884
2.440591235
2.193789771
2.399551572
2.597757384
2.69977043
2.760034924
2.791603794
2.79455899
2.752369413
2.646925537
2.451552656
2.164610265
1.830105947
1.499694581
1.22644896
0.9980437108
0.7945198327
0.6342193084
3.273522017
3.118075113
2.742122378
2.535104034
2.624453511
2.850687755
3.004675196
3.075542797
3.074951135
3.001198615
2.818972804
2.549854569
2.176498748
2.132917748
2.448813529
2.59340027
2.674350318
2.728322797
2.755846658
2.763685162
2.746708177
2.673453584
2.506811042
2.237161573
1.899705565
1.547394591
1.251376787
1.021728689
0.8364614192
0.7067923993
3.14584893
3.051947209
2.711911425
2.598479925
2.761238576
2.97983106
3.117104039
3.156548798
3.113432898
2.971931898
2.727267304
2.377485438
1.91182375
2.101025064
2.382748945
2.501765532
2.583031766
2.644268142
2.676177843
2.707989699
2.713336116
2.674789082
2.53240996
2.28155154
1.946158798
1.589544127
1.282753916
1.058643094
0.8956433689
0.7918280156
2.912673138
2.923676472
2.669429901
2.651016833
2.848920441
3.073762301
3.227303639
3.277683564
3.209104238
3.015459909
2.698614328
2.200444648
1.62226812
1.960543049
2.202093786
2.332963964
2.435262198
2.515440098
2.542012299
2.608429132
2.66735966
2.638851558
2.496570302
2.247984249
1.918202138
1.573039963
1.290622131
1.099057957
0.9692718285
0.887909176
2.588550214
2.762055605
2.641115429
2.615893115
2.73801362
2.909883837
3.03428697
3.071646907
3.014060568
2.832904877
2.517133125
1.936799624
1.369766952
1.696656441
1.939858946
2.131092132
2.276184686
2.381593475
2.372434069
2.499858535
2.69396414
2.672822223
2.47853992
2.171444846
1.830144208
1.52921028
1.31572203
1.168606663
1.06514688
0.9963554871
1.714833286
2.492338255
2.55666653
2.577198404
2.571967154
2.676058135
2.7789158
2.793470271
2.717930978
2.550483544
2.280865039
1.881803309
1.583242595
1.755452438
1.492193664
1.911082989
2.129454589
2.255634012
2.160529645
2.593542778
3.048343545
3.009359478
2.715342085
2.297400511
1.90117936
1.616302601
1.424694146
1.286610071
1.186004254
1.118654477
2.11813365
2.101903037
2.566169747
2.597566176
2.424504534
2.426360345
2.537767824
2.525542594
2.418259012
2.21415485
1.977050747
1.929798655
2.047008911
2.324076047
1.887886101
1.87037308
2.019000923
2.240476803
2.066899258
3.179673304
3.718139459
3.536332914
3.170455636
2.660893624
2.195379871
1.852582932
1.617546882
1.451873361
1.330201351
1.255127403
2.854981711
2.556895762
2.780627136
2.701415901
2.373993282
2.150883723
2.299299724
2.191038762
2.000318581
1.850075959
2.031113622
2.21810972
2.57511618
2.735971053
2.585331731
2.475838298
2.354829086
2.655450639
2.335740643
3.988231928
4.509463577
4.149545868
3.6095278
3.044578621
2.494152179
2.10217563
1.840570131
1.651177023
1.497442375
1.4099743
2.764080334
2.71292786
2.834582612
2.71017891
2.352671875
1.835702234
2.060462
1.797952912
1.843247788
2.156296082
2.422816746
2.813539097
3.016677303
3.050837353
2.947180553
2.815995414
2.687947879
2.753690861
3.183633251
4.5009746
4.855594293
4.715939361
4.092048356
3.387234757
2.810709276
2.392488883
2.116394838
1.903853333
1.701220827
1.59344083
2.773383106
2.743234244
2.803049364
2.651283702
2.247388492
1.586110672
1.94364683
1.833469382
2.158446202
2.445638137
2.833215812
3.164227508
3.197277367
3.194073193
3.12764284
2.954324782
2.674786738
2.376651369
3.434530012
4.868041678
5.113723745
5.005346159
4.324417764
3.470781775
2.942347114
2.604153556
2.369147101
2.171288939
1.941897729
1.811232089
2.757637678
2.700694662
2.706312816
2.543313327
2.097547766
2.769895562
2.257832525
2.202442971
2.371057673
2.71049495
3.077486459
3.256173756
3.270931749
3.266563127
3.210365944
3.082966164
2.792438731
2.311850012
1.655662415
3.668084305
3.812165139
3.37378159
2.67137407
2.590082109
2.627450936
2.627652033
2.552291411
2.412773319
2.187662618
2.050999085
2.719995301
2.617872193
2.566686633
2.401007829
2.199903729
3.233007875
2.686939144
2.22643091
2.438303367
2.891260596
3.138273782
3.242099675
3.256679817
3.269401655
3.251536693
3.173729217
3.011252103
2.855321675
2.529073365
2.705531807
2.995289659
3.067703703
3.136961314
3.032711178
2.933007908
2.853099433
2.754465473
2.62622301
2.40628442
2.26474491
2.657864717
2.529209281
2.469009121
2.334829043
2.663228629
3.325155967
2.75742654
1.840713086
2.496523576
2.924958326
3.12278275
3.156153457
3.154039932
3.194971604
3.233901957
3.214153408
3.121507948
3.004644336
2.767051145
2.608361282
2.828144581
2.870350861
2.899343512
2.93827211
2.951680814
2.933193617
2.86818368
2.760772318
2.558220074
2.410971245
2.559108187
2.433697912
2.40794701
2.463980794
2.722527212
3.059113092
2.975974596
1.332585895
2.507198573
2.941170906
3.080352659
3.094952478
3.002100499
3.067516511
3.150793081
3.162526031
3.112075252
3.032434616
2.827986952
2.637407938
2.667217179
2.814875027
2.927273203
2.978738455
2.994163344
2.985021773
2.932594842
2.834808847
2.634899217
2.476362773
2.411553085
2.290877013
2.271351962
2.439380913
2.419288698
2.885420852
2.49145068
2.277987273
2.486531877
2.819458222
2.978317869
2.936318226
2.541273509
2.727421013
2.938815332
2.959936257
2.867363365
2.756547542
2.581064052
2.495960895
2.615039576
2.773247327
2.866543096
2.925446881
2.961959828
2.975525865
2.944832653
2.853382501
2.646172516
2.468539133
2.198985319
2.058589112
2.004007465
2.192197719
2.153062172
2.598810155
2.34788254
2.506964857
2.794713542
3.062511437
3.13459169
2.861953259
2.590261317
2.681036722
2.841250559
2.838660995
2.637394268
2.515531228
2.366397366
2.453635556
2.616024002
2.72904428
2.808437554
2.874918266
2.921088659
2.939581514
2.907649188
2.821902523
2.601531809
2.405130592
1.955242647
1.805238412
1.71244183
1.925640877
1.815637624
2.33592597
2.335603718
2.585302203
2.873034543
3.135675947
3.26084492
3.112062951
3.293562798
3.131286848
3.043973102
2.824329631
2.050192571
2.145573859
2.222101407
2.473487202
2.568520691
2.650198098
2.724939675
2.797987502
2.851821704
2.871233208
2.831987058
2.746111307
2.507306775
2.304184963
1.719906808
1.564796132
1.444097374
1.750165673
1.307996619
1.939669286
2.119445114
2.359046849
2.634483711
2.848547028
3.038605981
3.104892292
3.26705689
3.047729531
2.719136288
2.088596787
1.780722968
3.04861331
2.50269912
2.461781717
2.459157354
2.495665556
2.568936227
2.661349678
2.736497116
2.76440607
2.717372586
2.627234613
2.371971123
2.194154935
1.497230841
1.361509829
1.385932352
1.689135504
2.096810929
1.610411082
1.875813926
2.027791338
2.290208209
2.436570837
2.582991818
2.844089198
3.109830619
2.798911305
2.372703804
2.076821469
3.06721325
3.290462644
2.971249434
2.341679707
2.322173139
2.252118305
2.313985008
2.450575838
2.570371061
2.622459987
2.575121273
2.498447327
2.22979748
2.104975696
1.298657122
1.181595357
1.23236214
1.311862116
1.735830376
1.361440806
1.49852402
1.578709006
1.786842181
2.017424785
2.145614029
2.325823574
2.757925551
2.55098344
2.353665713
2.41783161
2.201933342
3.050793628
2.006474469
1.783806629
1.421695231
1.595425542
1.904870737
2.17927645
2.378899692
2.473747136
2.452844671
2.419203606
2.151855654
2.057877134
1.137243363
0.9896456705
1.019329037
1.158299865
1.359237078
1.207113494
1.327763371
1.405174795
1.475542455
1.487242003
1.737974297
1.905637043
2.256268344
2.26215643
2.291595182
2.238973025
2.299318057
2.268160287
1.812338921
1.660235469
1.352266476
1.581516276
1.676519837
1.962628739
2.247282858
2.435332739
2.503471699
2.501829265
2.251467543
2.06630265
1.015825552
0.8638198776
0.9067047619
1.084785563
1.251199924
1.325062391
1.427842532
1.561884901
1.655906416
1.45990377
1.377078632
1.498964542
1.845850866
1.981288391
2.107565154
2.186702027
2.335854383
2.365850648
1.979271856
1.724117961
2.289942633
2.247166259
2.071153562
2.11354323
2.310148536
2.510253396
2.601368475
2.594276617
2.294262341
2.051072922
0.939326356
0.8166320865
0.9750470113
1.209885617
1.370636595
1.504291583
1.597002759
1.718762232
1.809667296
1.646526083
1.515048317
1.257563264
1.386138196
1.782056953
2.073660343
2.252241215
2.411278078
2.455780473
2.407839619
2.311430762
2.791382583
2.715314703
2.619447797
2.598505133
2.646585921
2.744980496
2.799224799
2.753309025
2.419596392
2.162918302
0.9510931335
0.9311451743
1.133632217
1.339432717
1.511877136
1.622887132
1.678078041
1.803281596
1.842996907
1.720877443
1.594281072
1.423788536
1.125136216
1.553033662
2.149734391
2.425326695
2.608828402
2.797426225
2.759190625
2.630979092
3.184145317
3.082749719
3.012005981
2.987045729
3.003217773
3.028144403
3.010628233
2.913092412
2.562117069
2.24853025
1.008061803
1.068787409
1.268846229
1.45935058
1.634340093
1.651913173
1.613487575
1.726330049
1.704603618
1.629745719
1.536636133
1.446258909
1.242383186
1.360082326
2.088298882
2.594742203
2.882817512
3.19846295
3.606480036
3.144992008
3.494382827
3.482232308
3.481522368
3.416652163
3.309526078
3.227020358
3.148389524
3.016656397
2.663414042
2.337374091
1.028404827
1.220272336
1.408494905
1.616678156
1.72647228
1.465894966
1.317031264
1.460298074
1.39012874
1.243797576
1.365036675
1.379873869
1.326984744
1.381169429
2.100671316
2.721034235
3.144435937
3.89968071
3.776970924
3.590851509
3.757234432
3.827715581
3.848707346
3.819459168
3.719287482
3.558294679
3.361903067
3.125020634
2.715094489
2.363716276
1.159641162
1.342687502
1.59972551
1.706723035
1.544591544
1.581086547
1.512620274
1.413469681
1.305940647
1.363599216
1.500021768
1.538952477
1.53784358
1.838434608
2.267047879
2.624802757
2.935337772
3.196536135
3.143977785
3.374211904
3.34518995
3.295372314
3.237727462
3.18197989
3.120031501
3.017632061
2.84458233
2.47350094
2.206604492
1.374769836
1.609043003
1.976007242
1.849044422
1.445354304
1.661990306
1.623520202
1.8107567
2.31098946
1.981907478
1.932157361
1.867872368
1.759523159
1.767912692
1.987106693
2.357653556
2.703117883
2.590478277
2.725339725
3.042680783
2.982642564
2.971979427
2.98434874
2.988335629
2.957285111
2.874603682
2.70707814
2.317007112
2.068276278
1.488526568
1.735471777
1.957698628
2.010567153
1.945479091
1.726232446
1.917876936
2.205885017
2.863532835
2.324994197
2.133530457
1.960046331
1.842923823
1.75954311
1.703374745
1.946333936
2.311062508
2.367409537
2.47115798
2.774703986
2.736633569
2.776602666
2.824713377
2.837109794
2.804594696
2.721609307
2.566127019
2.189006915
1.997072856
1.630834121
1.848086707
2.004337831
1.976769851
1.856075018
1.66895112
1.957982669
2.351742747
3.198396738
2.635182728
2.332487408
2.093990098
1.955059068
1.856782448
1.644398819
1.427841852
1.924738815
2.100039713
2.341638807
2.592954961
2.618420729
2.675637044
2.721592594
2.74678325
2.746474616
2.703082168
2.569250544
2.216627365
1.987820616
1.965640179
1.972506309
1.823586617
1.947342878
2.218729573
2.73417347
3.532124559
3.097802521
2.534007087
2.159651108
1.845719655
1.745079946
1.643054918
1.428130501
1.486970738
1.930461999
2.223104279
2.457725014
2.517388203
2.569670651
2.607256873
2.647199389
2.688399582
2.67645439
2.591099809
2.285918951
2.054195143
)
;
    }
    region0_to_wallFilmRegion_mirrorFace
    {
        type            convectiveHeatTransfer;
        L               1;
        value           nonuniform List<scalar> 
428
(
2.476163552
3.103599348
3.141944062
3.25925817
3.369270647
3.431906353
3.49362519
3.546522687
3.507229943
3.356378842
3.672877848
3.792534476
3.904363576
3.994451978
4.057611169
4.112059212
4.159903225
4.154844267
3.776406769
4.004291783
4.119918289
4.211657513
4.287142775
4.351671703
4.418541516
4.488826734
4.522673255
4.305281697
3.998238992
3.846109164
3.831781031
3.83733977
3.842061297
3.837546108
3.822443793
3.806709459
1.602594651
1.745303718
1.541377467
3.523696684
1.61486637
1.212402715
2.047823825
1.475765924
1.465765276
1.621364075
1.658835007
2.139928896
2.248429417
2.235650043
2.687506937
3.260685512
2.974538213
2.875599165
2.902674284
3.371606783
3.083783455
3.505203767
3.788305348
4.14918925
1.870323174
1.791350206
1.852705464
1.585832571
1.76978601
1.790635673
1.093648218
1.399866923
1.025172367
0.8802268498
0.983050392
0.9047423931
0.9120478373
0.9073503459
0.9564953673
1.073382068
1.039433717
1.119663969
1.233073673
1.204122772
1.286092896
2.128724987
1.792710143
2.035794825
1.990136914
1.917705088
1.195815278
1.273906457
1.895841265
1.421175652
1.139418284
1.257145104
1.161475399
1.155833021
1.126500464
1.175882391
1.282778699
1.235497111
1.29793936
1.422243255
1.367067856
1.438826185
2.389307589
3.388802305
2.401977401
1.827453083
1.950748621
2.863284537
1.31084021
1.410566958
1.439917259
1.335027407
1.322988966
1.343087927
1.409404882
1.34974144
1.394292972
1.509372056
1.431210258
1.466934738
1.608531181
1.502836383
1.543915608
1.601998391
1.82813855
1.701461206
1.156795291
1.570325486
1.385108674
1.12807802
1.206396208
1.500054322
1.721732874
1.782022795
1.712549241
1.419876953
1.587607201
1.428592915
1.903744871
1.719392676
2.351940779
1.66070113
1.556405051
1.606014133
1.736797651
1.77803484
2.354088352
2.003219419
3.189984232
1.640108382
1.437337558
1.693319354
1.240682334
0.9091885675
0.8675720943
0.9945773698
1.154456443
2.261105107
1.767685343
2.100308415
1.206847204
1.108300438
1.116664837
1.219702223
1.352217179
2.805755189
2.230544891
1.945434919
1.014087169
1.331859676
1.354290006
1.460709598
1.55826104
1.303706862
4.188704958
1.569138975
2.234127098
1.760428477
1.706882227
1.770545445
1.835575648
1.802199035
1.423700382
1.171084807
1.649207813
1.814220691
1.591562919
1.313434121
2.614362629
1.682291927
1.56321524
2.300471668
3.342270448
3.978532962
4.014034639
4.178649744
4.276501112
4.25553433
4.349666299
4.414240652
4.36493217
4.479051896
4.551583623
4.491856471
4.625523331
4.667223527
4.600438544
2.449074136
3.517329356
4.182791187
4.230754355
4.184686547
4.374292368
4.247106466
4.310357405
4.319243225
3.552077072
3.209593346
3.141044538
3.111614746
3.061714168
2.993381173
2.944929742
2.934035341
1.483837605
2.318186502
1.499881156
3.116909356
2.998002759
3.306957905
1.318460489
2.045123381
1.930886005
3.167186637
3.385811413
3.440373059
1.693381442
1.637786056
1.258239484
3.209559195
3.478868038
3.539378525
1.659759812
1.264688576
1.251353247
3.323198504
3.596339489
3.65216473
1.7329101
1.323950617
1.378246347
3.402509725
3.695671914
3.728729975
1.805195829
1.458377304
1.540130463
3.46208752
3.756947259
3.784137528
1.844237986
1.617535954
1.730296283
3.523437269
3.81058265
3.833987684
3.548027055
3.850388759
3.85015594
3.819679312
3.573104163
3.633097151
3.798591625
3.735473292
3.895368233
3.958800133
3.849742648
4.016330252
4.069565577
3.953604298
4.118560838
4.162387801
4.028133884
4.200452825
4.233924552
4.085190453
4.264869679
4.29485977
4.138073099
4.325659354
4.357129518
4.16933213
4.386064505
4.405537202
4.132635738
4.405163104
4.402150055
3.886775324
3.985953024
3.918479869
4.122592799
4.065565935
4.063202916
4.172348422
4.168345515
4.212662302
4.250514224
4.286747636
4.251404608
4.319995712
4.320268345
4.353186277
4.387235235
4.423775218
4.384049413
4.462744211
4.502506555
4.454589688
4.514139115
4.540038294
4.568954101
4.581052232
4.592628014
4.53019741
4.102548846
4.109724195
4.170715391
4.184523699
4.22298194
4.254644915
4.269825802
4.31094064
4.286670932
4.326051128
4.393470656
4.349001198
4.424256822
4.457244281
4.429426987
4.456539188
4.559508168
4.479287426
4.506370623
4.612878822
4.514372799
4.094167389
4.233217264
4.314104694
4.284394378
4.382470739
4.337471466
4.446110099
4.514281891
4.589706897
4.527046737
4.653298782
4.585331254
4.679721202
4.080117687
4.27276446
4.225984021
3.891495698
4.232250462
4.196073536
4.198577915
4.106391235
4.0534232
4.030991304
4.188571874
4.025128582
4.027558706
4.211878431
4.035574713
4.22849355
4.046668949
4.058906514
4.07088802
3.830472004
4.284934613
4.08016523
4.083910767
4.083361095
4.316873782
4.080964368
3.800298768
4.076847159
4.073412994
4.205167676
4.241239578
4.183184682
4.305538417
4.198448087
4.401260364
4.26637261
4.299894671
4.496128584
4.320301034
4.200975626
3.977402241
3.333073282
3.834460244
3.670303574
3.160439891
3.564422289
3.51483774
3.832967052
3.127238854
3.494068456
3.482901753
3.83366442
3.090230162
3.474586426
3.465890538
3.840470858
3.027867171
3.455158477
3.44188144
3.841432506
2.964229033
3.427292643
3.412911584
2.935084622
3.400928527
3.393164913
3.814517953
2.940819586
3.389783199
3.391283386
)
;
    }
    procBoundary0to1
    {
        type            processor;
        value           uniform 0;
    }
    procBoundary0to2
    {
        type            processor;
        value           uniform 0;
    }
    procBoundary0to3
    {
        type            processor;
        value           uniform 0;
    }
}


// ************************************************************************* //
