/*--------------------------------*- C++ -*----------------------------------*\
  =========                 |
  \\      /  F ield         | OpenFOAM: The Open Source CFD Toolbox
   \\    /   O peration     | Website:  https://openfoam.org
    \\  /    A nd           | Version:  8
     \\/     M anipulation  |
\*---------------------------------------------------------------------------*/
FoamFile
{
    version     2.0;
    format      ascii;
    class       volScalarField;
    location    "0.5";
    object      k;
}
// * * * * * * * * * * * * * * * * * * * * * * * * * * * * * * * * * * * * * //

dimensions      [0 2 -2 0 0 0 0];

internalField   nonuniform List<scalar> 
67286
(
0.03073793079
0.03465544535
0.03643021702
0.03741568748
0.03865871554
0.03983541299
0.03963536032
0.03514593783
0.01930576935
0.01482519529
0.0129419063
0.01152563111
0.01038910429
0.009632686131
0.009096511955
0.008473210934
0.007425960401
0.005710865033
0.003665791037
0.001865583408
0.0006690182032
0.000160101009
3.518729944e-05
1.503953277e-05
1.68918138e-05
2.476586925e-05
8.592366908e-05
0.0003366585592
0.03111164501
0.03564317567
0.03775575315
0.03910900501
0.04107286117
0.04335015979
0.04503931458
0.04558261004
0.03983433864
0.02876568827
0.02202432511
0.01699023941
0.01331411784
0.01089943519
0.009371336117
0.008112708774
0.006579844613
0.004599701635
0.002626139743
0.001111630939
0.0003145457814
6.375271719e-05
1.295603261e-05
6.808054148e-06
1.844017154e-05
0.0002006719809
0.0007914344226
0.001305282738
0.000559123268
0.0009616375456
0.001706637535
0.002176090828
0.02978879848
0.03533408038
0.03626489546
0.03600657013
0.0364414951
0.0376702676
0.03882787798
0.03845208931
0.0362570641
0.03123573835
0.0261244844
0.02055766549
0.01550698308
0.01176999796
0.009338827163
0.007562392236
0.005752068421
0.003705557892
0.001797457673
0.0005613466833
0.0001144944543
2.290828336e-05
1.03797124e-05
2.681359083e-05
0.0002585792862
0.0009919152908
0.001781032558
0.00213238444
0.001732420557
0.002164407235
0.002852715755
0.003232980816
0.02876894251
0.03187189813
0.03210245336
0.03234421596
0.03258094525
0.03231206174
0.03097793132
0.02853961022
0.02657802082
0.02466383514
0.02124592103
0.01671102583
0.0124188752
0.008866543333
0.00698268356
0.006349897261
0.004710825953
0.002924141727
0.001356416248
0.0004022596014
8.989818048e-05
2.68974379e-05
5.772250181e-05
0.0002941419412
0.001095272011
0.001956613817
0.002407232412
0.002531009127
0.002639875341
0.002908621587
0.003551629685
0.003735606949
0.003330785138
0.02674181951
0.0280034979
0.02764425658
0.02787157178
0.0286548848
0.0283989935
0.02583927796
0.02229517026
0.01925192512
0.01590594266
0.01228769093
0.008752377167
0.006208579545
0.005699531048
0.007177835919
0.009900405294
0.006239022228
0.003215414581
0.00131441578
0.0003019828894
0.000188995917
0.0001158194996
0.0003239601369
0.001135155021
0.002070722863
0.002562637308
0.002597304644
0.002452893561
0.003015172295
0.003102695096
0.003805825749
0.00375821759
0.003578490909
0.02480859053
0.0249509889
0.02410481202
0.02387507528
0.02495620958
0.02506324291
0.02198942672
0.01778812146
0.01377970427
0.009632674474
0.006268345837
0.004436325939
0.005924259482
0.009808127948
0.01354240673
0.02214616303
0.01301432013
0.006863492429
0.003139688069
0.001140804582
0.0003898272787
0.0005326448801
0.001317373854
0.00219610301
0.002714098886
0.002897217212
0.002662961703
0.002033193138
0.00320292324
0.003702293994
0.003845849818
0.00356476849
0.003905381647
0.02303272972
0.02262412488
0.0214475561
0.02073842401
0.02162885709
0.02206423315
0.0189718042
0.01446262553
0.01033378648
0.006878199088
0.004606828253
0.003732240416
0.004285802761
0.006672863832
0.01131107775
0.01883917429
0.009994608995
0.007175935628
0.005113189735
0.002805977895
0.001478396286
0.001561850413
0.002279296662
0.002759675614
0.003045128454
0.003244853248
0.003367862622
0.003348531692
0.003491172739
0.003829218651
0.003907449192
0.003860422982
0.005096729745
0.02126361303
0.02067192757
0.01936998597
0.01828859456
0.0185515005
0.01897747218
0.01618580615
0.01172086921
0.007983186336
0.005249418055
0.003874430436
0.003720926956
0.005201346471
0.007260190636
0.009775866843
0.01215263124
0.01091253833
0.01047723336
0.009117683893
0.00607423821
0.003472065708
0.002574532295
0.002790088817
0.002992522811
0.003119157644
0.003434871319
0.003956114
0.003854990813
0.003631585133
0.004034987687
0.005021058631
0.005696307155
0.007711191902
0.01933303755
0.01868773143
0.01754054395
0.01621962586
0.01567275137
0.01562224339
0.01330142432
0.009344593915
0.006365899253
0.004370831729
0.004012978936
0.006862852634
0.01106964638
0.01419063089
0.01656213276
0.0182116431
0.01370891514
0.01448143124
0.01333397056
0.01001106496
0.006248965599
0.003518049344
0.003059343458
0.003079686326
0.003195393728
0.004017017124
0.00519290812
0.004439828352
0.003933089027
0.004798630002
0.00674449771
0.008553009947
0.01145550381
0.01720306901
0.01653462499
0.01562047365
0.01421295602
0.01292642068
0.01235460398
0.01053341664
0.007609252502
0.005433269139
0.004296560014
0.007420147271
0.01239930632
0.01620550277
0.01866145431
0.02006331752
0.02103120481
0.01908486372
0.01758956898
0.01653128047
0.01323191055
0.009382177401
0.005338501951
0.003362574961
0.003245269439
0.003375347464
0.003942139812
0.004835906886
0.004290637695
0.004384006598
0.007298942189
0.01133213435
0.01507286365
0.01867586005
0.01501957154
0.01429777207
0.01350505838
0.01211627353
0.01063644489
0.009858785317
0.008584950472
0.006727940218
0.005261409361
0.006559899591
0.012378101
0.01684660405
0.01934283053
0.02092354742
0.02355580329
0.02636457996
0.02379301063
0.01939465263
0.01847290298
0.01506862799
0.01175834682
0.007988808194
0.004250182484
0.003355493261
0.003355651981
0.00350791588
0.003830226794
0.003830221504
0.004003702407
0.005127245481
0.006779967634
0.009709477849
0.013933395
0.01305042595
0.01222841409
0.01149124936
0.01038064298
0.009401439301
0.009019267109
0.008647330147
0.007354621669
0.006818265332
0.0109398928
0.01613816312
0.01934176728
0.02161763759
0.02520120517
0.02897403393
0.02926752945
0.0252324528
0.02099321973
0.02174400453
0.01604266406
0.01300864625
0.01014131375
0.006505002686
0.003748471306
0.003390925508
0.00335988489
0.003365628383
0.003571713991
0.003983929357
0.004463953324
0.005056976375
0.006537317783
0.009986650299
0.01157970542
0.01091693178
0.01083893984
0.0112254178
0.01227475081
0.01352509946
0.01379747391
0.01099920457
0.008511972478
0.01153761721
0.01516872894
0.01784915659
0.02115303265
0.02511842243
0.02840648305
0.02868088165
0.02441485669
0.01903458376
0.02113957496
0.01775629493
0.01455574529
0.01209087126
0.009236369742
0.005548986978
0.003649262656
0.003502958915
0.003477534661
0.003657144688
0.00394343014
0.00409241038
0.004262544573
0.005036449407
0.00735843712
0.01096450318
0.01143578311
0.01303121244
0.01501806971
0.01684887437
0.01809921536
0.01739081518
0.01272543502
0.009540871563
0.01116033378
0.01395672397
0.01639414322
0.01915222995
0.02215901131
0.02458294101
0.02478348064
0.02099441568
0.01644995533
0.01904517994
0.01622378469
0.01360285716
0.0114460487
0.009321705298
0.006673381126
0.00454242404
0.00459039548
0.004053415226
0.004082224831
0.004121210562
0.00456147577
0.005514138041
0.007278536312
0.009733253655
0.0114561227
0.0132942758
0.015337505
0.01691144315
0.01844190213
0.01962743126
0.01977735106
0.01765412548
0.01130115922
0.01021981047
0.01232781581
0.01461903696
0.01681023244
0.01907480983
0.0207941278
0.02072313454
0.01751381835
0.01371389273
0.01556596228
0.01409412293
0.01195414507
0.01007142773
0.008341133923
0.00684738153
0.00703421442
0.008813094803
0.008141908115
0.009385929486
0.008127470877
0.0074913031
0.008303472833
0.009958077424
0.01182858778
0.01217674405
0.01406782167
0.01544318569
0.01643832813
0.01771775537
0.01875057714
0.0190334942
0.0182473222
0.01324517248
0.009736358906
0.01070015383
0.0126767521
0.01469091374
0.01646798261
0.0177381397
0.01740638837
0.01463022303
0.01183528388
0.01345108986
0.01176743842
0.0101045612
0.009121259391
0.008621339533
0.0088072486
0.01055096876
0.01347501966
0.0156826093
0.01974702602
0.01641704428
0.01235649434
0.01024911554
0.01037716979
0.01174540384
0.01240990743
0.0138322388
0.01457767157
0.01508399355
0.01602061976
0.01687418952
0.01721536964
0.01693447842
0.01414353743
0.009669255964
0.009306708571
0.01057177399
0.01240962133
0.01418341359
0.01537868782
0.01525426126
0.01270033026
0.01069488389
0.01127249028
0.009825270457
0.01172309854
0.01060185062
0.01102598499
0.01187308678
0.01384474626
0.01731313551
0.02406949642
0.03398386905
0.02846300505
0.01926388921
0.01347074188
0.01025661152
0.01078656952
0.01221806773
0.01322504366
0.01353862705
0.01355440076
0.01395064988
0.01452609014
0.01487142027
0.01503148267
0.01357442944
0.009596609072
0.008871699206
0.01024850718
0.01028089325
0.01214284966
0.01346975532
0.01354899858
0.01126981573
0.009980594636
0.01055444555
0.01328241238
0.03149176422
0.01338971726
0.01340042142
0.0143075892
0.01676479453
0.02241969022
0.03654213851
0.05695178635
0.04811396509
0.02972266763
0.01950427386
0.01279064698
0.009497369652
0.01173852488
0.01252512628
0.01264546626
0.01233701434
0.01225490394
0.01247589553
0.01282146139
0.01344252852
0.01263314907
0.009675159143
0.01133893133
0.01495582864
0.01072281103
0.0105021846
0.0116498021
0.01190953346
0.01075094646
0.01107790042
0.01283592615
0.01434462459
0.01668335254
0.01539726891
0.0157121413
0.01635599911
0.02036928622
0.03091383347
0.05619848916
0.1181453204
0.08028322143
0.04817034319
0.0285718294
0.01795959619
0.01271951534
0.01091487048
0.01172054015
0.01186148254
0.01145434002
0.01119945149
0.01125993311
0.01161991196
0.0120304661
0.01293465269
0.01596889928
0.01971386484
0.0190808097
0.01861718512
0.01304986191
0.01076151048
0.01120915063
0.01170913147
0.0131656206
0.01462812135
0.01620051141
0.01751935819
0.01921373475
0.01759439109
0.01876418801
0.02560830808
0.04133847875
0.07040087138
0.1025111111
0.1009764639
0.07076691805
0.04221714175
0.02509286907
0.01636648104
0.009484184183
0.01060182722
0.01098518569
0.01073480985
0.01039471876
0.01030718494
0.01035673484
0.01058113722
0.0120771844
0.01635049264
0.02228696218
0.02617653214
0.01660128306
0.01218098268
0.01070404039
0.01178699495
0.01295488474
0.01415059071
0.01535575909
0.017087896
0.01854041198
0.01995141285
0.01785636317
0.02306749361
0.03229494008
0.04747197767
0.07286136587
0.09941442174
0.09518285831
0.06848973574
0.04438847011
0.02874657147
0.01971943369
0.007105411045
0.008757190602
0.009667825081
0.009809469209
0.009589009052
0.009211357523
0.008707927634
0.008408097367
0.009213346515
0.01232884215
0.01734581507
0.02177039517
0.01194758202
0.01060787598
0.01123576537
0.0123696137
0.01323583786
0.01395961225
0.0152020258
0.01686234219
0.01813065088
0.01820416629
0.0167803517
0.02006632394
0.02677534924
0.03992037335
0.06165473267
0.08526076748
0.07603701217
0.05324580529
0.03609958147
0.02555293283
0.01893640932
0.004090261882
0.005870591882
0.007365590363
0.008080051663
0.008150295687
0.007636286757
0.006575629687
0.005828975898
0.006350033426
0.008036811557
0.01152207501
0.01471414484
0.009347564415
0.01045417482
0.01146321529
0.01218566173
0.01258773702
0.01322274816
0.01441120656
0.01583728761
0.0168309357
0.01677284748
0.01610722825
0.01770443354
0.02157062675
0.03073435885
0.04818779778
0.06733363797
0.05543158895
0.04000443132
0.02957829727
0.02265476391
0.01774229504
0.001599996001
0.002775459904
0.004214117112
0.005282182233
0.005752876486
0.005393868196
0.004160330445
0.003257039142
0.003844700489
0.004899888195
0.007087805454
0.00963235408
0.008664535077
0.01024079999
0.01110977284
0.01152597299
0.01167831585
0.01226238764
0.01325574273
0.01438173903
0.01519555611
0.01533490264
0.01506776144
0.01621467708
0.0183420368
0.02344859227
0.03605382971
0.05162528894
0.04005403298
0.03139990051
0.02486193508
0.01991661697
0.0163014587
0.0003804506342
0.0008171773429
0.00157213114
0.00232822508
0.00285536054
0.002777698854
0.001947594986
0.001317940986
0.001950726002
0.002905059321
0.004632093797
0.006890636576
0.008200593069
0.009701827103
0.01047089406
0.01076783108
0.01081390901
0.01121263558
0.01187672966
0.01258747118
0.01307385701
0.01313187811
0.01301650799
0.01486834858
0.01650448951
0.01921708328
0.02702094928
0.03908259316
0.03062826076
0.02614156879
0.0210498152
0.01741649882
0.01494807117
5.794145934e-05
0.00014362188
0.000337260043
0.0006002389893
0.000849859242
0.0008667374236
0.0005548559544
0.0003639698776
0.0007703242394
0.001654191688
0.003334281694
0.005599829817
0.007563311493
0.009007984971
0.009777094783
0.01007670858
0.01008636161
0.01021532765
0.01048560452
0.01076005222
0.01086636393
0.01069981528
0.01081125125
0.01346928011
0.0152438732
0.01731236578
0.02168465329
0.02969769813
0.02531013166
0.02262283035
0.017998731
0.01543841583
0.01382558946
9.743970053e-06
1.9863726e-05
4.521788938e-05
8.699648384e-05
0.0001358706568
0.0001436087389
9.313621933e-05
7.755251809e-05
0.0002491177143
0.0008427204426
0.002296521936
0.004485281438
0.006663140523
0.008209213834
0.009053640288
0.00941273108
0.009464358817
0.009367500741
0.009260860018
0.009127542746
0.00892254033
0.008732636952
0.009310093331
0.0122553017
0.01436085684
0.01636913425
0.01908605163
0.02349866654
0.02198438916
0.0201049562
0.01589966843
0.01408879618
0.01275566719
5.454861878e-06
6.716435463e-06
8.623191139e-06
1.200745496e-05
1.647910122e-05
1.748072316e-05
1.407462698e-05
1.754757744e-05
7.187125813e-05
0.0003505670158
0.001291773896
0.003115676603
0.00534227174
0.007158890545
0.008200094441
0.00866185659
0.008754993044
0.008629012359
0.008386216098
0.008049802045
0.007774758584
0.007795143543
0.008612858169
0.01150478218
0.01369551289
0.01566388549
0.01753565679
0.01953046423
0.01921128148
0.01790781947
0.01427773232
0.01272612957
0.01160247907
5.219383702e-06
5.857882248e-06
5.994839574e-06
6.142593544e-06
6.346452596e-06
6.41114754e-06
6.368771524e-06
7.482305065e-06
1.968823238e-05
0.000103996922
0.0004977017598
0.001620957139
0.003470684722
0.00546954239
0.006903144474
0.007617488637
0.007824681763
0.007731872488
0.007481230459
0.007192353557
0.007062754301
0.007381603099
0.008523290002
0.01090734904
0.01286768376
0.01463941941
0.01577377596
0.01613402925
0.01588316039
0.01535636495
0.01240090388
0.01098696558
0.01012966123
5.066158016e-06
5.529991604e-06
5.557812926e-06
5.561130436e-06
5.564659344e-06
5.565802776e-06
5.572684426e-06
5.713660586e-06
7.474700556e-06
2.326025173e-05
0.0001227357622
0.0005371310157
0.001596086681
0.003187624175
0.004780734867
0.00587862027
0.006378044783
0.006452358544
0.006292507561
0.006129979824
0.006237161147
0.006860753755
0.008095846414
0.009713219475
0.01108953601
0.0123845142
0.0125544277
0.01176251018
0.01110331118
0.01168571217
0.009697128535
0.008481351273
0.008126460699
0.02767601256
0.03199414571
0.03225778105
0.03204633683
0.03314512119
0.03494602893
0.03322873348
0.02575026436
0.01968196125
0.01443445971
0.01187935043
0.008995067004
0.006231435151
0.004185291459
0.00389021798
0.004078389128
0.003774193626
0.002951350963
0.001900596479
0.0008626684144
0.0002770819995
7.308644437e-05
3.197890758e-05
2.678022325e-05
2.499890719e-05
2.417666214e-05
3.756926015e-05
0.0001038016327
0.03051485647
0.04058940041
0.03892476455
0.03832367946
0.04003374043
0.04322488072
0.04614298404
0.04772789631
0.04478183458
0.02338664898
0.01702672554
0.01292406351
0.009631836477
0.007468652452
0.006094041199
0.004906411218
0.003644056512
0.00239285619
0.001229954975
0.0004533255071
0.0001273034203
3.976697081e-05
2.503248301e-05
2.22806402e-05
2.101358621e-05
5.290967911e-05
0.0002424315572
0.0005271183076
0.0001637776903
0.0003637804417
0.0008693583862
0.001228178557
0.03250354877
0.0464579926
0.04100989464
0.03834919644
0.03806606333
0.03925348166
0.04032140062
0.04022712599
0.03827430792
0.0242191807
0.01830525318
0.01443097107
0.01118259173
0.008799188429
0.007123312989
0.005649763538
0.004038426158
0.002332615643
0.0009380782955
0.0002563244917
6.553794838e-05
3.190466789e-05
2.355063019e-05
2.180461159e-05
5.676031815e-05
0.0002832222762
0.0007484458262
0.001156994246
0.0007489530148
0.001228464093
0.001931491294
0.002237991449
0.03086869894
0.04038603592
0.0362514457
0.03483663373
0.03306756035
0.02991174056
0.02585403964
0.02194335454
0.01693289374
0.01222781212
0.01173181245
0.01027816085
0.00855776376
0.007109892977
0.006138519711
0.005191610601
0.003699773061
0.002097432574
0.0008214443067
0.0002203613418
8.311695461e-05
4.818285373e-05
3.291791116e-05
7.207885307e-05
0.0003056497754
0.0007636040057
0.001185721945
0.001720386841
0.001614170112
0.002101464663
0.002666611499
0.002638403424
0.002333064732
0.0259371306
0.03111872989
0.02786995871
0.02699851798
0.02620182778
0.02330396204
0.01857824747
0.01443270853
0.0110075807
0.007152188621
0.004760549684
0.004672187653
0.005143383632
0.0072798472
0.01087815572
0.009083506803
0.003287371979
0.001436971836
0.0006356266419
0.0002501555053
0.0007715667853
0.0003867938984
0.000150966467
0.0003627366772
0.0008240756728
0.001280042937
0.001412865491
0.001804983215
0.002435733749
0.002222373289
0.002794310003
0.002383466519
0.002331002293
0.02207299517
0.02496180865
0.02168615187
0.02000689896
0.0194597466
0.01722282129
0.01295519158
0.009591886174
0.006752561548
0.004186323424
0.002742848233
0.003159946961
0.007552982939
0.0122666136
0.01698695813
0.03151034859
0.01399307257
0.004932439365
0.001553630986
0.0004523078208
0.0002211014853
0.00023756965
0.0004984367845
0.0009389069912
0.001373329614
0.001697869263
0.001477945975
0.0006456444135
0.002371202477
0.003412958537
0.002245363509
0.001795176841
0.001999122302
0.01952704518
0.0208346014
0.01758732362
0.01541102257
0.01467650208
0.01289128096
0.009079746361
0.00605068326
0.003601165801
0.002109924049
0.002099364983
0.002715606287
0.00426106348
0.01152366475
0.02724184799
0.02770340923
0.01130023482
0.00375499812
0.00225575806
0.001021713567
0.000745674734
0.0008315110537
0.001138899904
0.001423429038
0.001638445233
0.001667691054
0.00143425281
0.001535508882
0.001949184945
0.002794574657
0.002019216516
0.001595436547
0.002958251019
0.0178532298
0.01813672879
0.01510301181
0.01279379395
0.01177924863
0.01035658764
0.007254360704
0.004651585982
0.002805904018
0.002301394574
0.00289792499
0.003472119678
0.004488448994
0.005826515313
0.009233472183
0.01137763579
0.006325793153
0.004403000462
0.003694344503
0.002562076339
0.002014019696
0.00173338722
0.001704072456
0.001716251194
0.001762897397
0.001857803557
0.002771782821
0.002975672111
0.002147178426
0.003084671432
0.003914387122
0.003059007273
0.002944822212
0.01652238125
0.01626528762
0.01369560692
0.01149468812
0.01025650176
0.009206937222
0.006852481056
0.004841483889
0.003546760131
0.003206227195
0.003728164064
0.004625120004
0.0062426962
0.006761790201
0.005678862351
0.00691452001
0.003919632479
0.005681083624
0.005497807012
0.004511620368
0.003682020592
0.002717705544
0.002202648529
0.001772127633
0.001869151237
0.003863898113
0.005454677898
0.004502271779
0.003155534115
0.003983275842
0.005310453911
0.005133820868
0.003796276986
0.01521905577
0.01473563221
0.01278710644
0.01086609405
0.009575060681
0.008800752351
0.007502559009
0.006248358142
0.005186195953
0.004205112616
0.004990350413
0.006727787026
0.007259109695
0.006042081976
0.005116268452
0.005892031788
0.005783636227
0.00536970225
0.005692224157
0.005475162798
0.004940223717
0.003613139281
0.00264896271
0.001893989282
0.001627850909
0.002969338737
0.005428072846
0.004362950766
0.003414335963
0.005381963533
0.007904248846
0.0101912126
0.007939191464
0.01390142945
0.01329223767
0.01195537677
0.01046162009
0.009460270819
0.009387889624
0.009456313069
0.00836721791
0.006686168962
0.005690277043
0.007333808555
0.008175391302
0.007108139642
0.007019952022
0.01314919615
0.02331501919
0.02183310905
0.01117452469
0.007526626411
0.005676589903
0.005501152646
0.004530770468
0.003191553764
0.002475081883
0.001844334977
0.001773288811
0.002797854282
0.003089013142
0.003367740091
0.004752814299
0.005790639276
0.006522138323
0.004719386748
0.01268595459
0.0119417835
0.01105705954
0.01019195469
0.01010828896
0.01128868796
0.01311194721
0.01178108192
0.008686649688
0.008471705177
0.009897088019
0.008693877186
0.009878472824
0.01690944393
0.02558620706
0.02735086682
0.02337342954
0.01973113481
0.02308090623
0.0103859344
0.005926773249
0.005264335114
0.004038091277
0.00315359885
0.002810377599
0.002200686148
0.00169286143
0.002317276701
0.003079351699
0.003409434933
0.003298148438
0.00397074111
0.004789997812
0.01172915545
0.01100973345
0.01086343048
0.01146037949
0.01346775932
0.01687541249
0.02051912332
0.01934944812
0.01103250484
0.009030729121
0.00840939206
0.007908877283
0.01151073812
0.01791865222
0.02475216543
0.02713117252
0.02541399816
0.01977421004
0.02096081559
0.01581213667
0.009232236188
0.006974301446
0.005347322388
0.003890030562
0.003365308397
0.003186628851
0.002562193878
0.002413161998
0.002972087149
0.00272717284
0.002262723737
0.003248625919
0.0065468283
0.01122841106
0.01115228344
0.01230934947
0.01463467397
0.01850774481
0.02243705313
0.02483155326
0.02627225026
0.01793941585
0.009659188454
0.007459833102
0.007271859245
0.009617275649
0.01360025067
0.0184946661
0.02122289136
0.02081781664
0.01675035184
0.01862213036
0.01429658136
0.01080187053
0.008068261628
0.005872833798
0.004532932323
0.003943727512
0.004198685349
0.003825411878
0.003678795014
0.003407874048
0.003407602993
0.004125961741
0.006856461837
0.0126548429
0.01127059837
0.01210187364
0.01376516812
0.01606525534
0.01928723968
0.02187275919
0.02302191516
0.02388887342
0.02050546989
0.01042903324
0.007384543198
0.006683010243
0.007913183144
0.01010200976
0.01275114445
0.01432488473
0.01386044214
0.01136126749
0.01212335049
0.01380857463
0.01218984264
0.009437821141
0.005964056566
0.005070527564
0.005601109965
0.006854861725
0.006405073061
0.007054515087
0.006034438
0.005478398221
0.006045919699
0.008509072958
0.01335598263
0.01145723971
0.01237957535
0.01338808864
0.01484567616
0.01755272028
0.01965199977
0.02033237214
0.020621736
0.01892042581
0.01036243103
0.007473301071
0.00710307511
0.00736388149
0.008581814512
0.00944947735
0.009480249696
0.009024952711
0.008528778664
0.01189257105
0.01271356211
0.01439048007
0.01067234831
0.006613603298
0.006664073374
0.008066367298
0.01035185883
0.01146397019
0.01383059629
0.01195459614
0.009520805214
0.008296105097
0.009440355214
0.01323710133
0.01133627362
0.01155906363
0.01165990474
0.01213140638
0.01427678721
0.01605148646
0.01671292177
0.01665872612
0.01529194833
0.009746304446
0.007383144349
0.007413358501
0.007948940164
0.007584053208
0.008209404758
0.008733797696
0.008012045855
0.008638225715
0.01121844006
0.01557236238
0.02646609274
0.01355323138
0.007407547895
0.009291439531
0.01023749697
0.01276227455
0.01677186963
0.0255943084
0.02077341819
0.014610246
0.01118995488
0.01002800727
0.01181510728
0.01084210848
0.0102184963
0.0096893132
0.009275210564
0.01014404807
0.01141302118
0.01205415816
0.01241749471
0.01201199619
0.009397660956
0.008271654372
0.01087319789
0.01444569905
0.008844622899
0.008480251756
0.009618125627
0.008949480549
0.009602278746
0.01397700594
0.03411915306
0.1186209325
0.02406869875
0.01004787873
0.01194087669
0.01265906199
0.01495404196
0.02795329943
0.06819295581
0.05023618202
0.02735748708
0.0168992242
0.01126856164
0.008549622013
0.01005361356
0.008919697163
0.008157049989
0.007465826855
0.007000379459
0.007410393407
0.008031879883
0.009091530079
0.009767505997
0.009448100679
0.01387905885
0.02056807618
0.01430914864
0.01492984724
0.01021622336
0.009352504162
0.009073361722
0.009735482647
0.01228608505
0.01812956655
0.03520832916
0.0195986774
0.01617531515
0.0156614991
0.01578273203
0.02297206416
0.07721631832
0.2854429901
0.1371670796
0.07062543899
0.03179972626
0.01640183663
0.00792095425
0.008885848337
0.007722475158
0.00695331853
0.006409360599
0.005983668591
0.005967486209
0.006542894362
0.008139208999
0.009681785127
0.01199597773
0.01814672835
0.01542703442
0.01795383055
0.02167994012
0.01058618893
0.009239367724
0.009442579921
0.01021650113
0.01241878054
0.01659422115
0.02045906278
0.02226590415
0.0218483032
0.01937586575
0.02331497817
0.03332134587
0.07552040862
0.153581386
0.1249230814
0.09016101123
0.04710890814
0.02310895891
0.01066157098
0.007062267624
0.006401418352
0.005852652657
0.005307929969
0.005090774631
0.005065866503
0.005592299071
0.007040673274
0.00847214608
0.01095632808
0.02011315273
0.02173998832
0.01670733182
0.01540408846
0.01002741075
0.009656953017
0.009765568475
0.01070211833
0.01340480672
0.01746711673
0.0202413719
0.0253822688
0.02331840546
0.02037079195
0.02242028364
0.02912554708
0.0672472624
0.1130464766
0.1133380671
0.08078013766
0.04446638863
0.02456074049
0.01267888092
0.004602108049
0.004647852399
0.004659216012
0.004372053885
0.004036358359
0.004047948023
0.004557662641
0.005460868976
0.006540882753
0.007817907282
0.01337711366
0.01828585198
0.01195063254
0.01074807037
0.009134775598
0.008946597688
0.008765715633
0.01012155938
0.01338029647
0.01742388132
0.0203509167
0.02418301266
0.02479095803
0.02029875655
0.01991340361
0.02526022972
0.05265425688
0.0884839607
0.09046858149
0.06187704433
0.03771945996
0.02344931549
0.0134422263
0.002194874834
0.002618954474
0.0031116866
0.003311940028
0.003245428084
0.003141375746
0.003235102594
0.003553489665
0.004376754353
0.005154391488
0.007450267415
0.01007383924
0.008208152254
0.008571188936
0.007770941821
0.007186613386
0.007325649187
0.009101586119
0.01235612552
0.01616226119
0.0190186121
0.02122781436
0.02071321034
0.01961473476
0.01749206309
0.02123168208
0.03787835662
0.06269915911
0.06330363063
0.04622473071
0.0311411709
0.02067180402
0.01276914048
0.0006685110681
0.0009996178599
0.00151680826
0.001897042953
0.002072371693
0.002014468532
0.001889469083
0.001797674014
0.002544089872
0.003273488107
0.004474109189
0.005815890684
0.00626014683
0.006951591695
0.006416852009
0.005737315702
0.00617778492
0.007866102183
0.01062721173
0.01390085815
0.01653852342
0.01796590347
0.01723138235
0.01726341313
0.01535986497
0.01741766331
0.0284768037
0.04433856025
0.04354854021
0.03405754492
0.02435899332
0.01630091591
0.01106124861
0.0001283983954
0.000240296765
0.0004482022169
0.0006693857507
0.0008470330926
0.0008543799669
0.000700360179
0.0006100807052
0.001089792055
0.00173353594
0.002863655741
0.004173244361
0.005120278643
0.00590778072
0.00562884669
0.005059867697
0.005358008715
0.006486854992
0.008421860103
0.01069198408
0.01256771615
0.01340317196
0.01308341781
0.01459117152
0.01333931506
0.01480424181
0.02251364788
0.03220178032
0.03102280321
0.02479856307
0.0179517174
0.01194942936
0.009437155006
1.962338349e-05
4.771777341e-05
9.235391092e-05
0.0001456514232
0.0002006190057
0.0002099326454
0.0001687185496
0.0001568471739
0.0003541573685
0.0007912607907
0.001781033232
0.003153878956
0.004400525216
0.005313729731
0.005418456717
0.005011812075
0.004909605363
0.005352384989
0.00631919263
0.007547927984
0.008388691939
0.008046907046
0.008696078866
0.01153399303
0.01132818241
0.01311240245
0.01862339896
0.02483095941
0.02335783537
0.01873290095
0.01297590747
0.009054316174
0.008405501789
6.424523765e-06
1.807370924e-05
2.77565328e-05
3.542233864e-05
4.33242935e-05
4.517706714e-05
4.133443485e-05
4.524704274e-05
0.0001057633321
0.0003318249622
0.001031848356
0.002327560696
0.003722022561
0.004873061721
0.005425155775
0.005349417522
0.004926054242
0.004751017111
0.004829253507
0.005003024055
0.00491325274
0.004236543449
0.00617252251
0.009141086934
0.01002477572
0.01222510777
0.01635803207
0.02028778464
0.01878844956
0.01467330594
0.009820760944
0.007654506913
0.007900851505
5.426802415e-06
1.442538483e-05
1.939209755e-05
2.099185882e-05
2.183113249e-05
2.224896421e-05
2.29525721e-05
2.547735778e-05
4.184349051e-05
0.0001318146249
0.0005066873959
0.001469785536
0.00286976321
0.004221922604
0.005183665294
0.005583907246
0.005405093483
0.004889578163
0.004335606268
0.003932763513
0.003438057574
0.003113194515
0.005115583952
0.007843649551
0.009804422272
0.01237090232
0.01529884022
0.01740446003
0.01585658817
0.01281191795
0.008856609122
0.007745258651
0.007666345648
5.326978904e-06
1.249639673e-05
1.494243884e-05
1.534582176e-05
1.553536886e-05
1.580092245e-05
1.640067065e-05
1.756517535e-05
2.185549862e-05
4.720560789e-05
0.0001818456827
0.0006640231683
0.001722912682
0.003070196673
0.004259679048
0.005032692512
0.005288232199
0.005071257971
0.004546199268
0.003955614426
0.003470995788
0.003664873337
0.005364663726
0.007841290379
0.01018235018
0.01246313291
0.01417223194
0.01477497153
0.01300572133
0.01110651007
0.00865839326
0.007768285553
0.007522600519
4.904519841e-06
6.240498203e-06
6.48243529e-06
6.488147014e-06
6.475558016e-06
6.465772715e-06
6.483162514e-06
6.552949357e-06
7.047529406e-06
1.11294937e-05
3.934569959e-05
0.0001786751761
0.0006395665104
0.00160094968
0.002858522253
0.003961829088
0.004620486437
0.004805905478
0.004631583828
0.00436330714
0.004343895534
0.004938075307
0.006326123197
0.007843769257
0.009184718864
0.01034092063
0.01060873658
0.01003571553
0.008695705403
0.008702952066
0.007437201604
0.006671582258
0.006762355724
0.02457354846
0.03124234312
0.0274647622
0.02657219707
0.02690981529
0.02962847701
0.03296623633
0.03365695651
0.02331121299
0.01391432517
0.01123624337
0.008733461954
0.005866167011
0.003310224373
0.001933779995
0.001697409594
0.001573678931
0.001237546275
0.0007451671111
0.000325789849
0.0001347589333
0.0001168113099
0.0001258115993
0.0001336581512
0.0001200105467
9.904602736e-05
8.227644146e-05
7.154069996e-05
7.919513503e-05
0.02805077356
0.04145408377
0.03645255835
0.03609776127
0.03809325152
0.04156458324
0.04450514001
0.04606698808
0.04615138172
0.0359395306
0.01828117289
0.01172209216
0.008023247764
0.005491875131
0.003628382561
0.002506617295
0.001659373393
0.0009821638718
0.0004565767983
0.000181922927
0.0001051540286
0.0001194893789
0.000121073307