/*--------------------------------*- C++ -*----------------------------------*\
  =========                 |
  \\      /  F ield         | OpenFOAM: The Open Source CFD Toolbox
   \\    /   O peration     | Website:  https://openfoam.org
    \\  /    A nd           | Version:  8
     \\/     M anipulation  |
\*---------------------------------------------------------------------------*/
FoamFile
{
    version     2.0;
    format      ascii;
    class       volScalarField;
    location    "0.5";
    object      nut;
}
// * * * * * * * * * * * * * * * * * * * * * * * * * * * * * * * * * * * * * //

dimensions      [0 2 -1 0 0 0 0];

internalField   nonuniform List<scalar> 
67286
(
0.0001939995015
0.0002227424827
0.0002283163473
0.0002313514891
0.0002351399507
0.0002386623473
0.0002380375323
0.0002240467095
0.0001661645608
0.0001459611486
0.0001363014125
0.0001285876934
0.0001220662345
0.0001175287893
0.0001142080896
0.0001102416913
0.0001032459978
9.060227766e-05
0.0002934953531
0.0001494497063
5.362921118e-05
1.284251785e-05
2.823723057e-06
1.206836214e-06
1.356117274e-06
1.988281761e-06
6.882860524e-06
2.693601941e-05
0.0001951469729
0.0002258871047
0.0002324207056
0.0002365076385
0.0002423445504
0.0002489511071
0.000253749462
0.000255260908
0.0002384914421
0.0002026691259
0.0001774477125
0.0001559517539
0.0001381384057
0.0001250290548
0.0001159500765
0.0001079065781
9.72270883e-05
8.134687332e-05
0.0002103280353
8.909829416e-05
2.523062682e-05
5.11667939e-06
1.03876693e-06
5.447721521e-07
1.477181553e-06
1.607511852e-05
6.334106902e-05
0.0001043902957
4.478484907e-05
7.70263504e-05
0.0001365937104
0.0001740610856
0.0001909829931
0.0002249413555
0.0002278195152
0.0002269967129
0.0002283632931
0.000232157924
0.0002356690208
0.0002345532956
0.0002278003747
0.0002114291275
0.0001934245016
0.0001716877996
0.0001492060864
0.0001300256987
0.0001158175953
0.0001042272916
9.093485137e-05
0.0002966830578
0.0001440149234
4.500853365e-05
9.189133108e-06
1.838174497e-06
8.315278636e-07
2.148463048e-06
2.071286679e-05
7.938688221e-05
0.0001424550263
0.0001705095907
0.000138619413
0.0001731736564
0.0002281947088
0.0002585196955
0.0001876133423
0.0002136265077
0.0002143899027
0.0002151801318
0.000215940191
0.0002150238738
0.0002105374588
0.0002021241384
0.000195094936
0.0001880026694
0.0001746351219
0.000154996936
0.0001336708306
0.0001129083469
0.0001001779219
9.560077132e-05
8.236793633e-05
0.0002342284632
0.0001087373127
3.227714253e-05
7.222348864e-06
2.158395993e-06
4.624105185e-06
2.355483697e-05
8.765727867e-05
0.0001565002184
0.0001924835514
0.0002023615142
0.0002111183246
0.0002325849402
0.000284006933
0.0002986533314
0.000266291853
0.0001809020755
0.0002002667027
0.0001989825001
0.0001998028621
0.0002025552386
0.0002016000981
0.0001923002008
0.0001786911663
0.0001661434154
0.0001511715562
0.000133020324
0.0001123079606
9.451914765e-05
9.054885296e-05
0.0001017030292
0.00011947104
9.501168926e-05
0.0002580367308
0.0001055041663
2.420762307e-05
1.518856095e-05
9.283624698e-06
2.592653872e-05
9.082234182e-05
0.0001656277201
0.0002049174145
0.0002076582015
0.0001961212446
0.000241089091
0.0002480789793
0.0003042832215
0.0003004498032
0.0002861724039
0.0001742710385
0.0001890540686
0.0001858243601
0.0001849616788
0.0001890849615
0.000189429515
0.0001774272794
0.000159673445
0.0001406698652
0.0001177521667
9.501772377e-05
7.988662763e-05
9.245679451e-05
0.0001188406363
0.0001396040603
0.0001783784067
0.000137001905
9.969396473e-05
0.0002521739125
9.170343744e-05
3.130116103e-05
4.263667011e-05
0.0001053904793
0.0001756476312
0.0002170358283
0.0002316544069
0.0002129137313
0.0001626033429
0.00025612397
0.0002960328864
0.0003074836252
0.000285078552
0.0003125463061
0.0001679508349
0.0001800385681
0.0001752942597
0.000172406383
0.0001760932315
0.0001778146845
0.0001648652234
0.0001440596782
0.0001218933723
9.95078211e-05
8.139765632e-05
0.0002985798847
7.858239545e-05
9.817768629e-05
0.0001278183653
0.0001646299694
0.0001200013871
0.000101730244
8.595952445e-05
0.0002251311809
0.0001185550428
0.0001249657179
0.0001822912829
0.0002206793698
0.0002434901609
0.0002594567535
0.0002692966002
0.0002677527884
0.0002791674149
0.0003061936212
0.0003125154283
0.0003089362596
8.570770669e-05
0.0001614107301
0.0001721241806
0.0001666070297
0.0001619255735
0.0001631568203
0.0001650232668
0.0001523814113
0.0001297771908
0.0001071674929
8.688913049e-05
0.0003099546305
0.0002976870788
8.650329781e-05
0.0001022143082
0.0001185894902
0.0001321568451
0.0001251681904
0.0001227437577
0.0001146114319
9.365509589e-05
0.0002782621211
0.0002059842187
0.000223112321
0.0002392817046
0.0002494104766
0.0002746653693
0.0003163308663
0.0003082341969
0.0002904118579
7.609883005e-05
8.492405607e-05
9.053398487e-05
0.0001054643534
0.0001539536289
0.0001637004303
0.0001585766682
0.0001525227564
0.0001500313206
0.0001498442095
0.0001382503785
0.0001159206296
9.567126225e-05
7.922970555e-05
7.591941414e-05
9.94449901e-05
0.0001262119036
0.000142784358
0.0001541451553
0.0001615454495
0.0001401978391
0.0001441631588
0.0001384323979
0.000120074244
9.492492478e-05
0.0002815979463
0.0002446461832
0.0002462587032
0.000255532031
7.59086594e-05
8.626363917e-05
7.976537721e-05
0.0003145551398
8.307302719e-05
9.851924361e-05
0.0001109465912
0.0001283814447
0.0001452672758
0.00015403022
0.0001496902643
0.0001428131585
0.0001362888822
0.0001333051283
0.0001230699256
0.000104577132
8.832710555e-05
7.857139046e-05
0.0001034192864
0.0001335592897
0.0001525287639
0.0001635460484
0.0001695113306
0.0001735068064
0.0001653348847
0.0001587582594
0.0001539843502
0.0001378892399
0.000116205762
8.76893949e-05
0.000268938792
0.0002594988549
0.0002699139139
0.0003152273927
8.325079562e-05
7.841884041e-05
7.941730659e-05
0.0001025796707
0.0001276640938
0.0001470510162
0.0001635514611
0.0001357576843
0.0001432671329
0.0001392199797
0.0001318787924
0.0001236134793
0.0001190456346
0.000111064472
9.827080902e-05
8.688471352e-05
9.721484536e-05
0.0001334511838
0.0001554940255
0.0001664590842
0.0001730658343
0.0001835932821
0.0001941884944
0.0001845127719
0.0001666337055
0.0001626727937
0.0001470164382
0.0001299742765
0.0001072116824
7.817331417e-05
0.0002683253287
0.0002683240623
0.0002805062296
0.0003062516924
0.0003062499774
7.579511696e-05
8.584428638e-05
9.882140496e-05
0.000118274823
0.0001414875322
0.0001265355424
0.0001324966782
0.000128425636
0.0001220494127
0.000116140453
0.0001137377022
0.0001113218631
0.0001026537501
9.893254001e-05
0.0001254727591
0.0001522123691
0.0001664479763
0.0001758834678
0.000189837925
0.0002034793311
0.0002045023072
0.0001899344309
0.0001733362424
0.0001764534344
0.0001516860465
0.0001366362719
0.0001207105582
9.674458576e-05
0.0002998993886
0.0002711456461
0.0002686588643
0.000269137217
0.0002856165489
0.0003185889907
8.004200218e-05
8.528435665e-05
9.711326836e-05
0.0001200025934
0.0001191558616
0.0001251492518
0.0001246658013
0.0001268129901
0.0001325515
0.0001390966636
0.0001404833037
0.0001254496021
0.0001105915055
0.0001288206916
0.000147574965
0.0001599487704
0.0001740402015
0.0001895548004
0.000201483115
0.0002024317708
0.0001869284555
0.0001651317335
0.0001739404475
0.0001595126849
0.0001444823784
0.0001317224011
0.0001151978435
8.934951745e-05
0.0002918933764
0.0002801256956
0.0002780702465
0.0002924312132
0.0003153226558
7.661505572e-05
7.824080255e-05
8.514689826e-05
0.0001029699747
0.0001159063703
0.0001280256037
0.0001366245879
0.0001466487868
0.0001553272902
0.0001609806127
0.0001577478593
0.0001349241958
0.0001170468516
0.0001266752827
0.0001415936568
0.0001533370197
0.0001656514236
0.0001780970664
0.0001875055047
0.0001882495111
0.0001734273022
0.0001535776615
0.0001651323968
0.0001525142644
0.0001397024505
0.0001281755936
0.0001156801488
9.791865998e-05
8.081101576e-05
8.124247574e-05
7.630949433e-05
7.658405855e-05
7.688994303e-05
8.089437643e-05
8.895538613e-05
0.0001021896664
0.0001181303806
0.0001184514828
0.0001380095273
0.0001482216488
0.0001556428122
0.0001625247195
0.0001676505379
0.0001682636468
0.0001588993677
0.0001271964992
0.00012118571
0.0001331107922
0.0001448584084
0.000155251425
0.0001653027364
0.000172524503
0.000172207473
0.0001584518298
0.0001402619718
0.0001493558431
0.0001421858522
0.000130972024
0.0001202259365
0.0001094290906
9.918351639e-05
0.0001005635602
0.0001125580919
0.0001083777885
0.0001164008949
0.0001081510801
0.0001037108242
0.000109118873
0.0001194662317
0.0001301847293
0.0001221170471
0.0001419760542
0.0001487494793
0.0001534643024
0.0001593090683
0.0001638686539
0.0001650850072
0.0001616020508
0.0001376124319
0.0001181968346
0.0001240158514
0.000134963303
0.0001452083309
0.0001536565015
0.0001594059275
0.0001578795592
0.0001448632881
0.0001303199018
0.0001388990228
0.0001299299999
0.0001204431196
0.0001144185021
0.0001112437599
0.0001124465291
0.000123088762
0.0001391349412
0.0001503670931
0.0001688530443
0.0001537253337
0.0001332170282
0.0001212334244
0.0001219427034
0.0001297280382
0.000123284663
0.0001407879912
0.0001445272962
0.0001470142139
0.00015149965
0.0001554678708
0.0001570203234
0.0001557224932
0.0001422150776
0.0001176982547
0.0001156179305
0.0001232516182
0.0001335261532
0.0001426708769
0.0001484938724
0.0001478410619
0.0001349873405
0.0001238722089
0.0001271732148
0.0001187573511
0.0001308559288
0.0001233509929
0.0001257511376
0.0001304883918
0.0001409531697
0.0001577992132
0.0001864141794
0.0002217192032
0.0002025225676
0.0001664526161
0.0001390681849
0.0001212679613
0.0001243135586
0.0001223351473
0.0001376659378
0.0001392803323
0.0001393614173
0.0001413858045
0.0001442666053
0.0001459672672
0.0001467392751
0.0001393502125
0.0001172425383
0.0001129300084
0.0001213779812
0.0001215325143
0.0001320634863
0.0001390358896
0.0001393721673
0.0001271292665
0.0001196547736
0.0001231504145
0.0001392711998
0.0002233690627
0.0001397160648
0.0001385739283
0.0001431814954
0.0001551414199
0.000179808555
0.0002298686784
0.0002883541732
0.000263302207
0.0002069315249
0.0001674528189
0.0001355518168
0.0001167334891
0.0001199247465
0.0001339799182
0.0001346075827
0.0001329525215
0.000132514897
0.0001337121419
0.0001355594735
0.0001387891555
0.0001344684855
0.0001178581652
0.0001278494572
0.0001464848619
0.0001241105055
0.0001228116749
0.0001293212131
0.0001306994412
0.0001241584047
0.0001260141881
0.0001356110835
0.0001434936184
0.0001560693701
0.0001485810184
0.0001499949902
0.0001531161782
0.0001712016539
0.000211501966
0.0002862564204
0.0004222404488
0.0003404671079
0.0002636770642
0.0002028796765
0.0001607034978
0.0001351599944
0.0001156709764
0.0001296221207
0.0001303757554
0.000128112816
0.0001266871694
0.0001270500534
0.0001290818683
0.0001313882559
0.0001364386293
0.0001515009328
0.0001679033329
0.0001649569161
0.0001630473931
0.0001367942449
0.0001242799676
0.0001267859479
0.0001295392193
0.0001373370478
0.000144758255
0.0001523279526
0.0001584322625
0.0001658396829
0.0001587319853
0.0001640769582
0.000191960858
0.0002439224538
0.0003179465837
0.0003843615591
0.0003801474582
0.0003187314076
0.0002464864799
0.0001900078622
0.0001533707871
0.0001078851315
0.000123319399
0.0001254880523
0.0001240337341
0.0001220618626
0.0001215727175
0.0001218898119
0.0001233467136
0.0001321359623
0.0001536257132
0.0001787511863
0.0001928328088
0.0001543792233
0.0001323888385
0.0001239060639
0.0001299684466
0.0001362356288
0.0001423859207
0.0001483215001
0.0001564439956
0.0001629266057
0.0001690088645
0.0001600004917
0.0001820505306
0.0002154145365
0.0002609631317
0.0003229986583
0.0003770380393
0.0003690640978
0.0003135233168
0.0002526503155
0.000203321883
0.0001683242375
9.348534536e-05
0.0001121605041
0.0001177747954
0.0001185971107
0.0001172464084
0.0001149270775
0.0001117890046
0.0001099956783
0.0001155104451
0.0001338226248
0.0001583118457
0.0001767048977
0.0001312890495
0.0001234636886
0.0001268996685
0.000133135736
0.0001377195966
0.0001414423954
0.0001475972475
0.0001554325843
0.0001611565392
0.0001614790341
0.0001550918541
0.0001697640378
0.0001962898231
0.0002395648188
0.0002973984008
0.0003493017263
0.0003302833075
0.0002767249251
0.0002278784449
0.0001916115345
0.0001648720099
0.0001166938656
9.196333324e-05
0.0001029051945
0.0001077090998
0.000108138032
0.0001046635926
9.717939719e-05
9.164216018e-05
9.585002951e-05
0.000108175605
0.0001294204458
0.0001457426496
0.0001159956434
0.0001224706792
0.0001281847129
0.0001321603688
0.0001343314131
0.0001376778322
0.0001437282127
0.0001506621878
0.0001553061436
0.0001550296294
0.0001519162126
0.0001593507139
0.0001761375187
0.000210400654
0.0002632307673
0.0003107126634
0.0002823487918
0.0002399085264
0.000206151192
0.0001803227832
0.0001595395749
0.0001091317125
0.0002225687414
7.797089452e-05
8.720640971e-05
9.094342467e-05
8.802637776e-05
7.734329831e-05
0.0002610185349
0.0003082629367
8.437158191e-05
0.0001015572732
0.0001180898519
0.0001115610924
0.00012121279
0.0001262146581
0.0001285495889
0.0001293992822
0.0001325962671
0.0001378623564
0.0001435949503
0.0001475939432
0.0001482579058
0.0001469472052
0.0001524369317
0.0001622684777
0.0001837631515
0.0002279161344
0.000272323228
0.0002401115902
0.0002124077955
0.0001888994344
0.0001690312168
0.0001529050773
2.599753819e-05
6.564785339e-05
0.0001261433549
0.000186667183
0.0002287812567
0.0002224541667
0.0001559821527
0.0001057329771
0.0001564697818
0.0002330654147
8.191508301e-05
9.975640312e-05
0.0001085278653
0.0001179966581
0.000122546862
0.0001242569097
0.000124520277
0.0001267994037
0.0001305047269
0.0001343556329
0.0001369263716
0.000137226461
0.0001366146913
0.0001459615879
0.0001538277148
0.0001661787467
0.000197307691
0.0002371530732
0.000209866611
0.0001936803233
0.0001737775142
0.0001580523852
0.0001464121565
3.96367466e-06
1.155512061e-05
2.711101447e-05
4.82088331e-05
6.820666708e-05
6.951965286e-05
4.449713862e-05
2.923093852e-05
6.184781905e-05
0.0001327332323
0.0002672649904
8.982018822e-05
0.0001042451782
0.0001137130919
0.0001184283254
0.0001202074304
0.0001202568911
0.0001210289812
0.0001226278844
0.0001242298517
0.00012484653
0.0001238867041
0.0001245147188
0.000138931215
0.0001478035807
0.0001575731941
0.0001765664583
0.0002067795626
0.0001906352783
0.0001801219957
0.000160677479
0.0001487984319
0.0001408028644
6.647574293e-07
1.597257826e-06
3.637981758e-06
6.996813656e-06
1.092143319e-05
1.15364115e-05
7.478055472e-06
6.233393428e-06
2.002424614e-05
6.767199823e-05
0.0001841392819
8.040452274e-05
9.787935746e-05
0.0001085705929
0.0001139743709
0.0001161873436
0.0001164938725
0.0001158962864
0.000115243703
0.0001144224466
0.0001131393689
0.0001119282436
0.0001155378025
0.000132523873
0.0001434489417
0.0001531573595
0.0001654818237
0.0001838384422
0.0001775893889
0.000169783101
0.000151004994
0.000142140463
0.0001352484498
3.707354297e-07
5.376981968e-07
6.913550687e-07
9.638951978e-07
1.323635315e-06
1.403684725e-06
1.129224605e-06
1.40969507e-06
5.782255614e-06
2.818058801e-05
0.000103677431
0.0002496984454
8.769565063e-05
0.0001014207966
0.0001084866683
0.0001114679384
0.0001120500703
0.0001112372782
0.0001096662921
0.0001074540637
0.0001056108793
0.0001057439069
0.0001111190835
0.000128400885
0.0001400825532
0.0001498063714
0.0001585540845
0.000167488863
0.0001659987013
0.0001602320995
0.0001430927273
0.0001350987967
0.0001290009434
3.545758466e-07
4.684326229e-07
4.794406258e-07
4.913522812e-07
5.077761806e-07
5.129652467e-07
5.095366058e-07
5.993917475e-07
1.583061918e-06
8.367762887e-06
3.99963133e-05
0.0001300585262
0.0002780939553
8.871601384e-05
9.958042019e-05
0.0001045538158
0.0001059412445
0.000105301465
0.0001035808214
0.0001015668301
0.0001006528181
0.0001028943545
0.0001105374151
0.0001250266648
0.0001357965434
0.0001448417859
0.0001503881703
0.0001522027799
0.0001509766827
0.0001483964595
0.0001333736295
0.0001255488435
0.0001205515475
3.277289529e-07
4.136817635e-07
4.157649191e-07
4.160150059e-07
4.162815722e-07
4.163679556e-07
4.16888278e-07
4.27542635e-07
5.604836005e-07
1.750600454e-06
9.239013697e-06
4.037977847e-05
0.0001198028144
0.0002389489418
8.0274697e-05
8.89389556e-05
9.259778624e-05
9.311344131e-05
9.194782774e-05
9.075488177e-05
9.155175403e-05
9.601855807e-05
0.0001042807812
0.000114219616
0.0001220521041
0.0001289879185
0.0001299172131
0.0001258243693
0.0001222467131
0.0001253224194
0.0001141802467
0.0001067870576
0.0001045122245
0.0001712726422
0.0002967017017
0.0003003781015
0.0002753114908
0.0002560754127
0.0002501140403
0.0002351490223
0.000201245902
0.0001838242749
0.0001691385823
0.0001590962697
0.0001384070748
0.0001064874034
7.487431805e-05
6.6318375e-05
7.006191485e-05
7.093184587e-05
7.028740079e-05
9.557732413e-05
5.868469919e-05
2.126992833e-05
6.58843776e-06
4.468863359e-06
5.237313217e-06
4.918036131e-06
4.029643624e-06
4.142673766e-06
9.100633131e-06
0.0001797828097
0.0003723038318
0.0003620387271
0.0003366976414
0.00032608084
0.0003338399988
0.0003436419867
0.0003381619999
0.0003016354631
0.0001939808916
0.0001628923808
0.0001420757215
0.0001221208854
0.0001059886736
9.373541688e-05
8.19043897e-05
7.099405104e-05
7.187501536e-05
6.996702464e-05
3.248569711e-05
1.036866087e-05
4.482939916e-06
4.810734087e-06
5.126236731e-06
4.301569608e-06
5.122872991e-06
2.045979837e-05
4.32408042e-05
1.385410836e-05
2.879404649e-05
6.380625486e-05
8.636626265e-05
0.0001854855527
0.0004201604214
0.0004001563833
0.0003719738376
0.0003527978818
0.0003452241488
0.0003399776566
0.0003250935096
0.0002904972886
0.0002040179616
0.0001696740744
0.0001484293983
0.0001306399408
0.0001165551932
0.0001047955879
9.204959309e-05
7.817949143e-05
8.074213152e-05
4.837203459e-05
1.670150554e-05
5.606840117e-06
4.871010089e-06
4.952246255e-06
3.984203818e-06
5.44155448e-06
2.373135727e-05
6.098672891e-05
8.942038659e-05
5.92100329e-05
8.411402464e-05
0.0001142274414
0.0001228312017
0.0001807032454
0.00039975369
0.0003911223876
0.0003775428258
0.0003563866413
0.0003194524383
0.0002706555639
0.0002228891284
0.0001782520145
0.0001448168004
0.0001337533396
0.0001231429286
0.0001134168253
0.0001052554279
9.986674014e-05
9.233171852e-05
8.553771753e-05
8.055492284e-05
4.216410856e-05
1.377323457e-05
8.231549427e-06
7.174547705e-06
4.253571704e-06
6.564109719e-06
2.558528709e-05
6.297829149e-05
9.349106365e-05
0.0001161162207
0.0001092914324
0.0001066721239
0.0001108459754
9.821544066e-05
0.0001328821587
0.0001657028404
0.0003407756243
0.0003347849182
0.0003261153074
0.000312555786
0.0002817253127
0.0002333545237
0.0001871629399
0.0001522148547
0.0001064622169
7.438779301e-05
7.45922402e-05
8.570820929e-05
0.0001137067584
0.0001638868401
0.000131572009
6.963244168e-05
6.215437521e-05
3.577097785e-05
1.875770166e-05
0.0001042212792
5.105719213e-05
1.402203823e-05
3.019450769e-05
6.779941351e-05
0.0001011864075
9.537887194e-05
8.931594145e-05
0.0001127445806
7.920865019e-05
7.851996213e-05
7.024835549e-05
9.765403329e-05
0.0001529251532
0.0002955435625
0.0002794329544
0.0002590052114
0.0002462325083
0.0002212939803
0.0001777498422
0.0001380706099
0.0001027552964
6.865442154e-05
4.94912257e-05
6.60680497e-05
0.0001256632293
0.000151022023
0.0002061565769
0.0003142388338
0.0001531641381
6.82769212e-05
3.627195511e-05
1.666163776e-05
1.41052973e-05
1.880825642e-05
4.114348465e-05
7.69521115e-05
0.0001091004237
0.0001201684748
7.786929432e-05
2.461639415e-05
8.467570716e-05
9.266124628e-05
5.756808155e-05
5.184825998e-05
6.72361338e-05
0.0001438593481
0.0002632517991
0.000241283039
0.0002120253807
0.0001959925159
0.0001736574516
0.0001318683434
9.330931718e-05
5.960743524e-05
3.993027375e-05
5.120679854e-05
0.0001036311245
0.0001424041487
0.000222835693
0.0004082250885
0.000325359205
0.0001991673877
8.491977143e-05
7.55461352e-05
6.590865711e-05
5.492060597e-05
6.68052049e-05
9.264874195e-05
0.0001147452172
0.0001204380063
9.086864032e-05
4.589454904e-05
4.331737958e-05
5.702407152e-05
6.904002599e-05
4.542414846e-05
4.108553351e-05
6.671285377e-05
0.0001375595186
0.0002400407254
0.0002198145918
0.0001875851811
0.0001681389446
0.000148352237
0.0001117215711
7.634247093e-05
4.947823316e-05
5.338119216e-05
0.0001387743424
0.0001801887255
0.0001111542036
0.0001112195907
0.0001593432748
0.0001622818278
9.914134988e-05
7.088759751e-05
6.518566141e-05
6.610710659e-05
0.0001142189681
0.0001316427869
0.0001340116581
0.0001267437937
9.046870424e-05
5.083332058e-05
5.737238629e-05
6.47255722e-05
5.116675612e-05
6.749292068e-05
7.826402212e-05
6.426925225e-05
5.678484507e-05
0.0001323386273
0.000218565165
0.0002097006186
0.0001791568098
0.0001570508084
0.0001381297975
0.0001096422988
8.037452137e-05
6.256745065e-05
7.073395266e-05
0.0001839707976
9.67341389e-05
9.502573814e-05
9.381747057e-05
8.449939431e-05
9.276882709e-05
6.163878118e-05
7.790989618e-05
7.778420697e-05
7.855548337e-05
9.135858039e-05
0.0001696411016
0.0001559376479
9.053385433e-05
4.593205304e-05
7.554884912e-05
0.000109128535
9.278391759e-05
6.693443823e-05
8.282529215e-05
0.0001054791433
9.594848575e-05
4.130964442e-05
0.0001270191915
0.0001988666544
0.0001984360991
0.0001734779947
0.0001500561504
0.0001351002978
0.0001182756564
0.0001009856289
8.945633327e-05
8.386555398e-05
9.463730081e-05
9.780031062e-05
9.722578844e-05
8.582038831e-05
6.959673699e-05
6.370159628e-05
5.801573895e-05
6.531370292e-05
7.517995552e-05
8.54592952e-05
8.820129749e-05
0.0001027502193
0.0001654644943
8.860832874e-05
4.335831294e-05
6.088084401e-05
0.000103790438
9.25381724e-05
7.030874481e-05
0.0001030187341
0.0001461931296
0.0001603009663
8.035532912e-05
0.0001213931711
0.000180832389
0.0001802323254
0.0001613539984
0.0001462244925
0.0001424232276
0.0001428556634
0.0001326946074
0.000114022449
9.975476957e-05
0.0001054480234
0.0001077940687
9.176831112e-05
7.632753169e-05
0.0001130337302
0.0001764335045
0.0001674051923
9.949925258e-05
7.087545268e-05
8.194766374e-05
8.885522358e-05
8.802591741e-05
0.0001267695712
0.0001343611294
6.939444295e-05
4.453253288e-05
5.902328671e-05
6.700972775e-05
7.081621503e-05
9.696957649e-05
0.0001171244
0.0001201995164
6.977447415e-05
0.0001159465722
0.0001640273919
0.0001615241072
0.0001513004677
0.0001507905194
0.0001652852153
0.0001885158765
0.0001752410673
0.0001371304711
0.0001241669184
0.0001291917484
0.0001111276934
0.0001004635315
0.0001479113906
0.0002086375041
0.0002245243742
0.0001988899661
0.0001688427776
0.0001680682207
8.676029749e-05
9.458178895e-05
9.001072162e-05
8.891812841e-05
0.0001566623214
0.0001296356765
7.881194382e-05
4.507606025e-05
5.356872908e-05
7.150453311e-05
7.212278508e-05
6.930673569e-05
7.679127294e-05
7.471374295e-05
0.0001114638701
0.0001508872407
0.00015258583
0.0001605619655
0.0001884280387
0.0002350001687
0.0002774203513
0.0002461654528
0.0001564061056
0.0001301522695
0.0001199345569
0.0001037032974
0.0001231524781
0.0001678963687
0.0002156381615
0.0002323268889
0.0002180750576
0.000178090268
0.0001692832534
0.0001253439915
0.0001294752802
0.0001115146838
9.190394286e-05
9.542174108e-05
0.0001471605151
0.0001087824495
8.173291396e-05
6.344348556e-05
7.166577178e-05
5.903977292e-05
4.675944911e-05
5.690325164e-05
9.513578332e-05
0.0001090401349
0.0001482565221
0.0001650832239
0.0002003081919
0.0002525681475
0.0002988409505
0.0003194076679
0.0003067888235
0.0002022244513
0.0001347823174
0.0001141208088
0.0001077928845
0.0001207128541
0.0001465776853
0.0001783535772
0.0001951207316
0.0001869633594
0.00015248303
0.0001498201332
0.0001574552704
0.0001600608036
0.0001281500475
9.507334603e-05
8.648982087e-05
9.192328233e-05
8.538194019e-05
9.66779955e-05
8.524160684e-05
7.247599748e-05
6.860601199e-05
7.24630909e-05
0.0001037738699
0.0001733966992
0.0001092406449
0.000154826375
0.0001829675816
0.0002176056669
0.0002573738205
0.0002880774785
0.0002962514739
0.0002852995112
0.0002254256842
0.0001400162069
0.0001155215655
0.0001130116528
0.0001155077372
0.0001238454245
0.000136432821
0.0001430280149
0.0001344574855
0.0001116485711
0.000119399669
0.0001884723023
0.0001776078467
0.0001435076951
9.754391321e-05
8.718214357e-05
9.133812483e-05
0.0001002053914
9.726119553e-05
0.0001018516997
9.556877353e-05
9.069352314e-05
9.607179275e-05
0.0001293630374
0.0001932351691
0.0001101488279
0.0001565084903
0.0001778619078
0.0001972923087
0.0002284967112
0.0002531497396
0.0002585533264
0.0002488337309
0.0002129726896
0.0001373971017
0.0001163060398
0.0001196681451
0.0001224440377
0.0001203022276
0.0001139594029
0.0001046386165
9.803860605e-05
9.788862487e-05
0.0001539712499
0.0001753991199
0.0001813553396
0.0001556519603
0.0001071099146
9.926929014e-05
0.0001095956191
0.0001271600866
0.0001349897996
0.0001485131279
0.0001398597029
0.0001265332064
0.0001197851321
0.0001383231919
0.0001904305293
0.000109577008
0.000147316737
0.000154450744
0.0001592587846
0.000182854384
0.0002035853011
0.0002103070904
0.0002031959602
0.0001797312677
0.0001301609685
0.0001151509496
0.000119650397
0.0001212249552
0.0001197818342
0.0001146744097
0.0001089310099
9.938404052e-05
0.0001152909204
0.0001496122858
0.0001793360163
0.0001951603802
0.0001406912661
0.0001105636126
0.0001197056767
0.0001257487995
0.0001462140338
0.000171938945
0.000214134087
0.000199452141
0.0001739071774
0.000152141891
0.0001413218504
0.0001664026377
0.0001071756711
0.0001328167131
0.000128951335
0.0001216878352
0.0001300258843
0.0001449978308
0.0001528263798
0.0001550378358
0.0001464970263
0.0001249419763
0.0001170142477
0.0001284490859
0.0001381308299
0.0001250819507
0.000122757327
0.0001250416257
0.0001171820936
0.00012731812
0.0001487910354
0.000204872355
0.0004345554413
0.0001624809388
0.0001233581985
0.000140247225
0.0001452830672
0.0001667515609
0.0002414128155
0.0003937205686
0.0003733883826
0.0002913465406
0.0002317227121
0.0001620827941
0.0001260320955
0.0001032272006
0.0001191414534
0.0001113175249
9.972874097e-05
9.235397607e-05
9.713960887e-05
0.0001062519231
0.0001200591508
0.0001242136041
0.0001177502891
0.000115101805
0.0001144426579
7.231113087e-05
0.0001463078159
0.0001341652515
0.0001243898931
0.0001202508095
0.0001267739073
0.000150413017
0.0001874569567
0.0002124897666
0.0002074230544
0.0001775193362
0.0001714235968
0.000172076573
0.0002168360873
0.000440143203
0.001096515793
0.0007637585855
0.0005579717721
0.0003749608629
0.00023903307
0.0001250421356
9.709120876e-05
0.0001065920086
9.974989806e-05
9.157596309e-05
8.572178607e-05
8.621756452e-05
9.326550817e-05
0.000105517811
0.0001074795987
9.005900493e-05
9.625244292e-05
7.213167207e-05
8.249785365e-05
0.00015708551
0.0001306199697
0.0001216265911
0.0001217211397
0.0001304806067
0.0001562899674
0.0002019987328
0.0002207381773
0.0002455540978
0.0002311296759
0.0002060876864
0.0002317867849
0.0003054937207
0.0005239798142
0.0008078389519
0.0007997902302
0.0006831846361
0.0004697926655
0.0003013272354
0.0001637994358
8.663172438e-05
9.305127013e-05
8.732335156e-05
8.312686629e-05
8.230808628e-05
8.431305104e-05
8.830106118e-05
9.842534499e-05
0.0001058011545
9.29503473e-05
9.58510673e-05
8.867382769e-05
8.385444986e-05
0.0001388229999
0.0001269343224
0.0001236416205
0.0001258804455
0.0001404559516
0.0001743589927
0.0002219994888
0.0002475318329
0.0002763225857
0.0002419962935
0.0002155028855
0.0002320355772
0.0002996024568
0.0005111103802
0.0007259513023
0.0007735914111
0.0006632387865
0.0004789662053
0.0003295593237
0.0001931872977
0.0002723382229
7.612087008e-05
7.31427376e-05
7.115876239e-05
7.024993022e-05
7.345378246e-05
7.916676878e-05
8.714670503e-05
9.598696234e-05
9.883254942e-05
9.003512586e-05
9.434565003e-05
8.189000956e-05
0.0001237041068
0.0001193639863
0.0001172067818
0.000119515784
0.0001388386894
0.0001811574327
0.0002295569024
0.0002569761367
0.0002777067423
0.0002657137401
0.0002206976282
0.000214113029
0.0002797376202
0.0004475790553
0.0006339332437
0.0006710226838
0.0005812805829
0.0004529228948
0.0003276628553
0.000205457782
0.0001300730849
5.574970417e-05
5.719928158e-05
5.871329673e-05
5.863551807e-05
6.007844109e-05
6.690095633e-05
7.64535404e-05
8.456155542e-05
9.324781026e-05
0.0001019961773
0.0001092034617
8.728248042e-05
0.0001123926388
0.0001062035368
0.0001000572554
0.00010460576
0.0001295564656
0.0001733000834
0.0002205278455
0.000249713782
0.0002624832278
0.0002504901158
0.0002213651195
0.0001923071478
0.0002426687098
0.0003672409024
0.0005079004308
0.0005375088433
0.0004958720998
0.0004044656403
0.000296865503
0.0001953065782
3.968911053e-05
3.90293591e-05
5.120811264e-05
4.799132423e-05
4.83627334e-05
5.035689105e-05
7.216537307e-05
8.097779848e-05
0.0001011239473
0.0001024777256
9.386556772e-05
9.473099237e-05
9.028144785e-05
9.924049264e-05
9.284079272e-05
8.482866702e-05
9.05938244e-05
0.0001147596594
0.0001529827221
0.0001951184647
0.0002248495374
0.0002358389743
0.0002259044303
0.0002057076916
0.0001740023892
0.0002033331329
0.0003006716343
0.0004049623805
0.0004291554926
0.0004027941406
0.0003312285639
0.0002406223562
0.0001691940668
7.634408316e-06
1.300978378e-05
2.397724303e-05
3.360624422e-05
4.161543388e-05
4.429070193e-05
4.373208448e-05
3.827463688e-05
6.281848476e-05
9.024737767e-05
9.060373693e-05
8.044574413e-05
8.456369272e-05
9.038766226e-05
8.590172177e-05
7.788387573e-05
8.01708934e-05
9.626668412e-05
0.0001236742522
0.0001536014141
0.0001752163534
0.0001812137653
0.0001785793901
0.0001806244633
0.0001559743748
0.000174820325
0.0002449937723
0.0003152765528
0.0003441169759
0.0003102878903
0.000250441185
0.0001817446161
0.0001454313241
1.166189991e-06
3.584527441e-06
6.639877379e-06
1.013814281e-05
1.372073692e-05
1.478439862e-05
1.273547073e-05
1.174401719e-05
2.421590666e-05
4.785731916e-05
7.782765613e-05
7.106994138e-05
7.82461197e-05
8.587054354e-05
8.579518954e-05
7.919063509e-05
7.539757135e-05
8.063981529e-05
9.403814285e-05
0.0001098502882
0.0001181784339
0.0001099284025
0.0001203196176
0.0001470908517
0.0001370182382
0.0001566236409
0.0002070793394
0.000248818895
0.0002732836713
0.0002388091752
0.0001844086917
0.0001412587413
0.000129630959
3.800261253e-07
2.594676707e-06
3.81928771e-06
4.214618904e-06
4.564347273e-06
4.689502698e-06
4.512187773e-06
4.6218614e-06
8.299174982e-06
2.169188934e-05