/*--------------------------------*- C++ -*----------------------------------*\
  =========                 |
  \\      /  F ield         | OpenFOAM: The Open Source CFD Toolbox
   \\    /   O peration     | Website:  https://openfoam.org
    \\  /    A nd           | Version:  8
     \\/     M anipulation  |
\*---------------------------------------------------------------------------*/
FoamFile
{
    version     2.0;
    format      ascii;
    class       volScalarField;
    location    "0.5";
    object      p;
}
// * * * * * * * * * * * * * * * * * * * * * * * * * * * * * * * * * * * * * //

dimensions      [1 -1 -2 0 0 0 0];

internalField   nonuniform List<scalar> 
67286
(
100004.1341
100003.9675
100003.9596
100003.9704
100003.9976
100004.0212
100004.0206
100004.044
100003.9989
100003.9132
100003.8057
100003.7779
100003.7494
100003.7394
100003.741
100003.7455
100003.7519
100003.7599
100003.7654
100003.7692
100003.7693
100003.7665
100003.7649
100003.7608
100003.759
100003.7587
100003.7585
100003.7591
100004.1493
100004.0079
100004.0312
100004.0662
100004.112
100004.1447
100004.1404
100004.0904
100004.0408
100003.9441
100003.8494
100003.8029
100003.7748
100003.7641
100003.7614
100003.7593
100003.7594
100003.7628
100003.7658
100003.7677
100003.7664
100003.7621
100003.7597
100003.7571
100003.7559
100003.7549
100003.754
100003.7536
100003.756
100003.7587
100003.7633
100003.7691
100004.1218
100004.0275
100004.0709
100004.1081
100004.1459
100004.1709
100004.1583
100004.1095
100004.0185
100003.9203
100003.8618
100003.8268
100003.804
100003.7966
100003.7943
100003.7851
100003.7719
100003.7702
100003.7746
100003.7844
100003.765
100003.7592
100003.757
100003.7541
100003.7532
100003.7502
100003.7485
100003.7475
100003.7494
100003.7492
100003.756
100003.7625
100004.0909
100004.0182
100004.0571
100004.0789
100004.0966
100004.1006
100004.0833
100004.0357
100003.9701
100003.922
100003.8793
100003.8608
100003.8528
100003.8541
100003.8313
100003.7891
100003.7618
100003.761
100003.762
100003.7591
100003.7517
100003.7545
100003.7529
100003.7512
100003.7488
100003.7447
100003.7438
100003.7421
100003.7428
100003.7392
100003.7476
100003.7564
100003.7623
100004.0438
100003.99
100004.0202
100004.0201
100004.0156
100004.0097
100004.0002
100003.9697
100003.9342
100003.9023
100003.8735
100003.8588
100003.8492
100003.8185
100003.776
100003.7414
100003.7332
100003.77
100003.7925
100003.9583
100003.7517
100003.7662
100003.7554
100003.7517
100003.7461
100003.7416
100003.7406
100003.7395
100003.7496
100003.7719
100003.7462
100003.7589
100003.7643
100003.9717
100003.9214
100003.945
100003.939
100003.928
100003.9185
100003.9159
100003.9002
100003.8912
100003.8913
100003.912
100003.9062
100003.8848
100003.9603
100004.0362
100003.9281
100003.7362
100003.7417
100003.7557
100003.7619
100003.758
100003.7573
100003.7505
100003.7452
100003.7423
100003.7415
100003.7461
100003.7642
100003.7467
100003.7569
100003.7459
100003.7548
100003.7647
100003.9084
100003.8611
100003.8759
100003.8672
100003.8562
100003.8444
100003.8425
100003.8359
100003.8364
100003.8405
100003.8459
100003.8365
100003.8307
100003.8392
100003.8676
100003.8949
100003.787
100003.7554
100003.7638
100003.7719
100003.7629
100003.7545
100003.7478
100003.7407
100003.7393
100003.74
100003.7433
100003.7471
100003.7481
100003.7579
100003.7628
100003.7725
100003.7583
100003.8613
100003.8188
100003.8242
100003.8158
100003.8095
100003.8013
100003.8024
100003.8072
100003.8184
100003.8349
100003.8485
100003.8588
100003.8539
100003.8494
100003.8232
100003.8066
100003.7483
100003.7459
100003.7441
100003.7493
100003.7519
100003.7518
100003.7437
100003.7384
100003.7371
100003.7418
100003.7516
100003.7573
100003.7556
100003.7577
100003.7443
100003.749
100003.7292
100003.834
100003.7988
100003.7971
100003.7898
100003.7912
100003.7902
100003.7956
100003.806
100003.8216
100003.8431
100003.8605
100003.8458
100003.8212
100003.8109
100003.8069
100003.7949
100003.7721
100003.7209
100003.7211
100003.732
100003.749
100003.7587
100003.7479
100003.7417
100003.7451
100003.7643
100003.7731
100003.7686
100003.7706
100003.7667
100003.7535
100003.758
100003.7507
100003.8271
100003.7985
100003.7961
100003.7909
100003.7972
100003.8023
100003.81
100003.8209
100003.8387
100003.8643
100003.8464
100003.8049
100003.7652
100003.7405
100003.728
100003.7137
100003.7258
100003.7005
100003.695
100003.7086
100003.7336
100003.7598
100003.7583
100003.7462
100003.7461
100003.7555
100003.7718
100003.7858
100003.7856
100003.7652
100003.7398
100003.7569
100003.7592
100003.8372
100003.8131
100003.8124
100003.8101
100003.8194
100003.8288
100003.8369
100003.8414
100003.862
100003.8585
100003.8141
100003.7598
100003.7369
100003.7609
100003.8197
100003.8817
100003.8761
100003.7863
100003.7104
100003.6838
100003.7085
100003.7504
100003.7661
100003.759
100003.7538
100003.7554
100003.7632
100003.7717
100003.7679
100003.7703
100003.7711
100003.7868
100003.7681
100003.8573
100003.8363
100003.8378
100003.8401
100003.8522
100003.8634
100003.8676
100003.8652
100003.8729
100003.8366
100003.761
100003.7274
100003.7581
100003.8497
100003.9748
100004.0752
100004.0817
100003.9954
100003.9224
100003.7388
100003.6908
100003.7338
100003.7625
100003.774
100003.7649
100003.7621
100003.7652
100003.773
100003.7742
100003.7756
100003.7733
100003.7838
100003.7792
100003.8772
100003.8558
100003.8549
100003.853
100003.8586
100003.8672
100003.8688
100003.8705
100003.8554
100003.8
100003.7411
100003.7401
100003.7926
100003.8832
100003.9965
100004.0939
100004.1157
100004.0742
100004.064
100003.8122
100003.7086
100003.7235
100003.7554
100003.7843
100003.792
100003.783
100003.7799
100003.7837
100003.7813
100003.7818
100003.7829
100003.7933
100003.8078
100003.8874
100003.8572
100003.8467
100003.8363
100003.8371
100003.8436
100003.8533
100003.8553
100003.8412
100003.7967
100003.7519
100003.7503
100003.7905
100003.8586
100003.9426
100004.0065
100004.02
100003.9886
100003.9654
100003.7782
100003.7653
100003.7518
100003.7691
100003.795
100003.812
100003.8095
100003.8127
100003.821
100003.8096
100003.8011
100003.7949
100003.8003
100003.8306
100003.8878
100003.8413
100003.8201
100003.8118
100003.8291
100003.8522
100003.8624
100003.8657
100003.8538
100003.8164
100003.7735
100003.7643
100003.7824
100003.8231
100003.8654
100003.8927
100003.8945
100003.8762
100003.8374
100003.78
100003.7963
100003.7883
100003.8058
100003.8214
100003.8359
100003.8361
100003.8397
100003.8565
100003.8295
100003.8245
100003.8161
100003.813
100003.8383
100003.8811
100003.8185
100003.8007
100003.8051
100003.832
100003.8566
100003.8648
100003.8592
100003.8512
100003.8336
100003.803
100003.7916
100003.7904
100003.8084
100003.8231
100003.8329
100003.8457
100003.8557
100003.9102
100004.0274
100004.3633
100003.8909
100003.9048
100003.8619
100003.8663
100003.8684
100003.8692
100003.9267
100003.846
100003.8565
100003.8421
100003.835
100003.8393
100003.8714
100003.8021
100003.7883
100003.7944
100003.8184
100003.8382
100003.8452
100003.8373
100003.8435
100003.8466
100003.8546
100003.8969
100003.8451
100003.8314
100003.8255
100003.8304
100003.8682
100003.8888
100003.9768
100003.8796
100003.886
100003.8222
100003.875
100003.8926
100003.9205
100003.9386
100003.9389
100004.1306
100003.8712
100003.9127
100003.864
100003.8661
100003.866
100003.8602
100003.7914
100003.7779
100003.7799
100003.7982
100003.8126
100003.8206
100003.8229
100003.8396
100003.854
100003.8862
100003.8909
100003.8975
100003.8792
100003.8731
100003.8973
100003.9943
100004.1732
100004.6578
100004.7236
100007.496
100004.1052
100004.4911
100004.0601
100004.0597
100004.0658
100004.0492
100004.1991
100003.9719
100004.0061
100003.8889
100003.8808
100003.868
100003.8476
100003.7846
100003.7702
100003.7666
100003.7793
100003.7912
100003.8017
100003.8101
100003.8196
100003.793
100003.8215
100003.9466
100004.1212
100003.9295
100003.9363
100003.9402
100004.0024
100004.1089
100004.3226
100004.4791
100005.9281
100004.2839
100004.3776
100004.1563
100004.2157
100004.563
100004.9785
100009.9678
100004.7623
100004.5634
100004.0393
100003.9449
100003.8808
100003.8351
100003.7817
100003.7688
100003.7617
100003.7716
100003.7888
100003.8189
100003.8469
100003.8213
100003.7515
100003.9976
100004.4353
100004.1833
100003.9066
100003.9826
100003.9651
100004.005
100004.0964
100004.2866
100004.483
100005.1777
100004.2985
100004.3309
100004.1246
100004.13
100004.2892
100004.5328
100005.702
100004.5387
100004.3637
100004.043
100003.9322
100003.8614
100003.8244
100003.7825
100003.7729
100003.7655
100003.7739
100003.7943
100003.8253
100003.8413
100003.7957
100003.7416
100004.0892
100004.3641
100003.9775
100003.8842
100003.9787
100003.9495
100003.9685
100004.0263
100004.1365
100004.261
100004.5326
100004.1906
100004.1994
100004.0666
100004.0811
100004.2225
100004.44
100005.0902
100004.4663
100004.2803
100004.0381
100003.9298
100003.8631
100003.8161
100003.7882
100003.7806
100003.7745
100003.7802
100003.7963
100003.823
100003.8452
100003.8306
100003.772
100003.7775
100003.6947
100003.7497
100003.8808
100003.9088
100003.9068
100003.9183
100003.9606
100004.0337
100004.1166
100004.2186
100004.1057
100004.0947
100004.0298
100004.0424
100004.1159
100004.2077
100004.4721
100004.2162
100004.1353
100004.006
100003.9232
100003.864
100003.812
100003.7961
100003.7909
100003.7858
100003.7896
100003.8011
100003.8222
100003.8467
100003.8583
100003.8337
100003.788
100003.6813
100003.7459
100003.8473
100003.8486
100003.8594
100003.8719
100003.9041
100003.9539
100004.0081
100004.054
100004.0235
100004.0256
100004.0023
100003.9925
100004.0075
100004.0159
100004.0866
100004.0055
100003.9913
100003.9364
100003.8849
100003.8449
100003.8117
100003.8019
100003.7997
100003.7961
100003.798
100003.8057
100003.8218
100003.8436
100003.8618
100003.863
100003.8411
100003.7965
100003.7768
100003.8207
100003.8135
100003.8221
100003.8339
100003.8586
100003.8934
100003.931
100003.9609
100003.9599
100003.969
100003.9607
100003.9489
100003.9358
100003.9135
100003.8913
100003.879
100003.8911
100003.8722
100003.8452
100003.8251
100003.8094
100003.8047
100003.804
100003.8024
100003.8039
100003.8088
100003.8203
100003.8379
100003.8526
100003.8605
100003.8558
100003.8472
100003.7996
100003.8095
100003.7962
100003.7976
100003.8053
100003.8232
100003.8474
100003.8739
100003.8966
100003.906
100003.9196
100003.9147
100003.9038
100003.8885
100003.8715
100003.8334
100003.8216
100003.8314
100003.8247
100003.8137
100003.8085
100003.8047
100003.8031
100003.8038
100003.8041
100003.8061
100003.81
100003.8176
100003.8293
100003.8408
100003.8472
100003.8471
100003.8456
100003.8084
100003.8028
100003.7891
100003.7845
100003.787
100003.7984
100003.8145
100003.8323
100003.8478
100003.8569
100003.8715
100003.8705
100003.8614
100003.8515
100003.8471
100003.8211
100003.8035
100003.8027
100003.7982
100003.7956
100003.798
100003.7999
100003.7995
100003.8006
100003.8019
100003.8045
100003.8081
100003.8134
100003.8211
100003.83
100003.8364
100003.8375
100003.8349
100003.8144
100003.8028
100003.7899
100003.7824
100003.7802
100003.7846
100003.794
100003.805
100003.8141
100003.82
100003.8311
100003.835
100003.8329
100003.8345
100003.8378
100003.8299
100003.8084
100003.8022
100003.7943
100003.7955
100003.799
100003.7962
100003.7963
100003.7974
100003.7989
100003.8013
100003.8046
100003.8092
100003.8152
100003.8226
100003.8294
100003.8331
100003.8315
100003.8223
100003.8128
100003.8011
100003.793
100003.7889
100003.7887
100003.7917
100003.796
100003.7996
100003.8025
100003.8131
100003.8224
100003.8317
100003.8465
100003.8567
100003.8611
100003.8363
100003.8274
100003.8164
100003.8164
100003.8163
100003.7938
100003.7941
100003.7951
100003.7966
100003.799
100003.8021
100003.8063
100003.8116
100003.8179
100003.8247
100003.8305
100003.8319
100003.8277
100003.8228
100003.8152
100003.8076
100003.8029
100003.8014
100003.8019
100003.8028
100003.8032
100003.8054
100003.8156
100003.8306
100003.854
100003.8809
100003.8974
100003.9088
100003.8802
100003.8657
100003.85
100003.8467
100003.8429
100003.7928
100003.7932
100003.7942
100003.7957
100003.798
100003.801
100003.8051
100003.8102
100003.8164
100003.8236
100003.8313
100003.8386
100003.843
100003.8449
100003.8465
100003.8483
100003.849
100003.8482
100003.8467
100003.8459
100003.8494
100003.8617
100003.8887
100003.918
100003.9566
100003.9988
100004.0184
100004.0249
100003.9799
100003.957
100003.9287
100003.9206
100003.9192
100003.7902
100003.6728
100003.6909
100003.6831
100003.6901
100003.6862
100003.6702
100003.6617
100003.6709
100003.5971
100003.5956
100003.5675
100003.5651
100003.561
100003.5643
100003.5747
100003.5938
100003.6161
100003.6314
100003.6384
100003.6383
100003.6375
100003.6352
100003.6329
100003.6312
100003.6312
100003.6303
100003.6317
100003.8247
100003.7207
100003.7421
100003.7464
100003.7623
100003.7731
100003.7777
100003.7721
100003.7546
100003.7136
100003.6571
100003.6132
100003.5937
100003.5831
100003.5832
100003.5919
100003.6084
100003.6244
100003.6334
100003.6358
100003.635
100003.6339
100003.632
100003.6301
100003.6289
100003.6281
100003.627
100003.6263
100003.6296
100003.6304
100003.636
100003.6405
100003.8424
100003.7699
100003.7942
100003.8033
100003.8173
100003.824
100003.8174
100003.7957
100003.759
100003.7155
100003.6719
100003.6394
100003.6208
100003.6108
100003.6085
100003.6132
100003.621
100003.6303
100003.6326
100003.6303
100003.6225
100003.6272
100003.6255
100003.6259
100003.6254
100003.623
100003.6205
100003.6175
100003.6213
100003.6164
100003.6282
100003.6328
100003.8352
100003.7797
100003.803
100003.8071
100003.8127
100003.8143
100003.8113
100003.8011
100003.7902
100003.7841
100003.6982
100003.6715
100003.6453
100003.6272
100003.5996
100003.5871
100003.5945
100003.6164
100003.6245
100003.6195
100003.6185
100003.6253
100003.6253
100003.6247
100003.6219
100003.6156
100003.6152
100003.6112
100003.6122
100003.604
100003.6155
100003.6203
100003.6261
100003.8009
100003.764
100003.786
100003.7841
100003.7843
100003.7813
100003.7768
100003.7688
100003.7535
100003.7306
100003.6872
100003.66
100003.6378
100003.5916
100003.5606
100003.5511
100003.5493
100003.5837
100003.5986
100003.489
100003.5705
100003.5948
100003.604
100003.6137
100003.6109
100003.6077
100003.6118
100003.6117
100003.6157
100003.6238
100003.6125
100003.6176
100003.6205
100003.7549
100003.7239
100003.7408
100003.736
100003.7353
100003.7321
100003.731
100003.7306
100003.7285
100003.7176
100003.6765
100003.6347
100003.5523
100003.5623
100003.5844
100003.5158
100003.4887
100003.5163
100003.5818
100003.612
100003.6237
100003.6247
100003.6189
100003.6127
100003.6112
100003.6087
100003.6202
100003.6176
100003.6126
100003.6159
100003.6072
100003.6105
100003.601
100003.7127
100003.6857
100003.6971
100003.6915
100003.6905
100003.6855
100003.6835
100003.6836
100003.6839
100003.6806
100003.6703
100003.6504
100003.6135
100003.5323
100003.5414
100003.5476
100003.562
100003.531
100003.5854
100003.6022
100003.6133
100003.6138
100003.606
100003.6019
100003.6037
100003.6059
100003.6098
100003.6116
100003.6134
100003.6194
100003.6165
100003.6077
100003.5808
100003.6805
100003.6551
100003.6636
100003.6585
100003.6589
100003.6539
100003.6535
100003.6558
100003.6594
100003.6653
100003.6663
100003.6656
100003.6328
100003.5741
100003.5238
100003.487
100003.4935
100003.516
100003.537
100003.5791
100003.6038
100003.6084
100003.5999
100003.5996
100003.6039
100003.6071
100003.6099
100003.6126
100003.6056
100003.6104
100003.581
100003.5726
100003.5182
100003.665
100003.639
100003.6459
100003.6412
100003.6427
100003.6401
100003.6405
100003.6461
100003.6541
100003.6614
100003.6673
100003.6397
100003.5706
100003.5103
100003.497
100003.5157
100003.5283
100003.4862
100003.4825
100003.5129
100003.5652
100003.5954
100003.5916
100003.5953
100003.6021
100003.6093
100003.6133
100003.6143
100003.6104
100003.6088
100003.577
100003.5734
100003.5584
100003.6696
100003.6418
100003.6441
100003.6394
100003.6446
100003.6474
100003.6498
100003.6598
100003.6646
100003.6708
100003.6385
100003.5541
100003.504
100003.5013
100003.5156
100003.5291
100003.5129
100003.5021
100003.4869
100003.4812
100003.5143
100003.5779
100003.5886
100003.5945
100003.5993
100003.6059
100003.6148
100003.6166
100003.6122
100003.5832
100003.5434
100003.5639
100003.5806
100003.6904
100003.6627
100003.66
100003.6554
100003.666
100003.6745
100003.6795
100003.6829
100003.6784
100003.6602
100003.5625
100003.5161
100003.5218
100003.5392
100003.5491
100003.578
100003.5556
100003.5222
100003.5043
100003.4952
100003.4783
100003.5342
100003.5815
100003.5949
100003.6004
100003.6057
100003.6118
100003.6173
100003.6162
100003.6089
100003.5782
100003.5614
100003.5376
100003.7174
100003.692
100003.688
100003.6866
100003.6981
100003.7077
100003.7094
100003.7042
100003.6921
100003.6093
100003.532
100003.5364
100003.5453
100003.5632
100003.5948
100003.6456
100003.6494
100003.6215
100003.5679
100003.5377
100003.5089
100003.51
100003.5632
100003.6011
100003.6069
100003.6113
100003.6163
100003.6207
100003.6227
100003.6207
100003.5932
100003.5805
100003.5158
100003.7382
100003.7121
100003.7046
100003.6973
100003.7014
100003.7095
100003.7095
100003.7118
100003.6727
100003.5839
100003.5481
100003.5651
100003.5778
100003.6044
100003.6438
100003.695
100003.7076
100003.6827
100003.6252
100003.5637
100003.5362
100003.5028
100003.5224
100003.6004
100003.6212
100003.6233
100003.625
100003.6293
100003.6337
100003.6344
100003.6272
100003.6283
100003.5854
100003.74
100003.7036
100003.6833
100003.6685
100003.671
100003.6831
100003.6935
100003.6956
100003.6761
100003.5982
100003.5504
100003.5724
100003.5871
100003.6085
100003.6346
100003.6664
100003.6739
100003.6611
100003.6094
100003.5621
100003.5578
100003.5087
100003.5447
100003.6099
100003.6443
100003.6442
100003.6428
100003.6458
100003.6444
100003.6434
100003.6353
100003.6368
100003.6296
100003.7205
100003.6684
100003.6507
100003.6478
100003.6589
100003.6726
100003.6808
100003.6784
100003.6845
100003.6179
100003.5625
100003.5725
100003.5937
100003.6132
100003.6283
100003.6387
100003.6344
100003.6139
100003.583
100003.5533
100003.5173
100003.5313
100003.5932
100003.6373
100003.662
100003.6586
100003.6532
100003.648
100003.6417
100003.6455
100003.6421
100003.6458
100003.6559
100003.694
100003.6395
100003.6329
100003.6369
100003.6496
100003.6636
100003.6708
100003.6611
100003.6808
100003.6425
100003.5873
100003.5641
100003.5887
100003.6145
100003.6293
100003.6353
100003.6344
100003.6506
100003.6913
100003.6661
100003.8907
100003.5756
100003.6976
100003.6478
100003.6656
100003.6476
100003.6176
100003.5726
100003.5892
100003.6309
100003.6387
100003.6469
100003.6579
100003.6729
100003.6221
100003.6207
100003.6259
100003.6381
100003.6481
100003.6523
100003.6386
100003.6629
100003.6572
100003.6369
100003.6389
100003.6128
100003.627
100003.638
100003.6439
100003.64
100003.6165
100003.5501
100003.4989
100002.8972
100003.5454
100003.5199
100003.6256
100003.6533
100003.6414
100003.5676
100003.5276
100003.4856
100003.6102
100003.6222
100003.6635
100003.6736
100003.6585
100003.6121
100003.6135
100003.615
100003.628
100003.6332
100003.6331
100003.6162
100003.6364
100003.6294
100003.5893
100003.5553
100003.6198
100003.6424
100003.6482
100003.6844
100003.7561
100003.8633
100004.0623
100004.0516
100004.4727
100003.0926
100003.9781
100003.6746
100003.6954
100003.545
100003.3219
100002.0498
100003.2353
100003.4567
100003.5749
100003.6437
100003.666
100003.6489
100003.6067
100003.6122
100003.6094
100003.618
100003.6206
100003.6155
100003.5881
100003.5953
100003.5765
100003.5499
100003.7043
100003.7268
100003.7761
100003.7001
100003.7141
100003.768
100003.861
100004.1153
100004.4289
100008.0495
100003.983
100004.1375
100003.8118
100003.7968
100003.8916
100003.7752
100004.0164
100003.332
100003.7957
100003.6551
100003.6953
100003.6609
100003.6449
100003.6044
100003.612
100003.6127
100003.6159
100003.6112
100003.5991
100003.5413
100003.4109
100003.2735
100003.3901
100003.6283
100003.6319
100003.6697
100003.7226
100003.7368
100003.7841
100003.8575
100004.0414
100004.2286
100005.1684
100003.9828
100004.0416
100003.8163
100003.791
100003.865
100003.8565
100004.9848
100003.7654
100003.8513
100003.6874
100003.6962
100003.6638
100003.6491
100003.6089
100003.6119
100003.6138
100003.6193
100003.6131
100003.6053
100003.5314
100003.3649
100003.405
100003.533
100003.6645
100003.5822
100003.6046
100003.7342
100003.7314
100003.7607
100003.8065
100003.9049
100004.0075
100004.3141
100003.908
100003.9166
100003.7758
100003.769
100003.8454
100003.8404
100004.2077
100003.8027
100003.8403
100003.7129
100003.7021
100003.6694
100003.6646
100003.6252
100003.62
100003.6167
100003.6245
100003.6253
100003.6228
100003.5643
100003.4195
100003.2226
100003.3651
100003.4917
100003.5001
100003.6039
100003.6933
100003.7039
100003.7254
100003.7603
100003.819
100003.8827
100003.9891
100003.8538
100003.8533
100003.7796
100003.7527
100003.7805
100003.7542
100003.9154
100003.7538
100003.7882
100003.718
100003.6995
100003.6741
100003.6799
100003.6531
100003.6406
100003.6309
100003.6346
100003.6404
100003.6469
100003.6245
100003.5625
100003.3599
100003.3252
100003.4086
100003.5468
100003.6245
100003.6622
100003.6765
100003.6955
100003.7226
100003.7612
100003.8028
100003.8465
100003.8118
100003.8002
100003.76
100003.736
100003.7299
100003.6963
100003.7469
100003.6946
100003.7248
100003.6975
100003.683
100003.6678
100003.6854
100003.672
100003.6643
100003.6548
100003.6541
100003.6592
100003.6685
100003.6662
100003.6484
100003.5605
100003.4658
100003.4153
100003.5991
100003.6274
100003.644
100003.6564
100003.6731
100003.6932
100003.7193
100003.7477
100003.7723
100003.7687
100003.7622
100003.7456
100003.7154
100003.6954
100003.6643
100003.6563
100003.6524
100003.6757
100003.6687
100003.6627
100003.6584
100003.6831
100003.6775
100003.6753
100003.671
100003.6707
100003.6739
100003.6807
100003.6838
100003.6817
100003.655
100003.621
100003.5883
100003.6334
100003.6362
100003.6376
100003.644
100003.6556
100003.6698
100003.6873
100003.7063
100003.7224
100003.7265
100003.7261
100003.7192
100003.694
100003.6731
100003.6515
100003.606
100003.6312
100003.644
100003.6474
100003.6446
100003.6454
100003.6787
100003.6765
100003.6764
100003.6756
100003.6769
100003.6796
100003.6841
100003.6882
100003.691
100003.6852
100003.6742
100003.6573
100003.6527
100003.6436
100003.6368
100003.6375
100003.6436
100003.6514
100003.664
100003.6767
100003.686
100003.6896
100003.6918
100003.6915
100003.6738
100003.6613
100003.6534
100003.6117
100003.6272
100003.6331
100003.6379
100003.637
100003.6387
100003.6747
100003.674
100003.6745
100003.675
100003.6768
100003.6795
100003.6834
100003.6877
100003.692
100003.6932
100003.691
100003.6809
100003.667
100003.651
100003.6388
100003.6339
100003.6365
100003.6404
100003.6468
100003.6546
100003.6588
100003.6591
100003.662
100003.6639
100003.6571
100003.656
100003.6586
100003.6441
100003.6357
100003.6348
100003.6381
100003.6363
100003.6389
100003.6717
100003.6717
100003.6723
100003.6733
100003.6752
100003.6779
100003.6816
100003.6861
100003.691
100003.6951
100003.6974
100003.6938
100003.6823
100003.6651
100003.6498
100003.6408
100003.6383
100003.6396
100003.6425
100003.6465
100003.6494
100003.6464
100003.6509
100003.6542
100003.659
100003.671
100003.6819
100003.6886
100003.6626
100003.6533
100003.655
100003.6538
100003.6575
100003.6698
100003.67
100003.6708
100003.672
100003.6739
100003.6766
100003.6802
100003.6845
100003.6894
100003.6944
100003.6987
100003.6997
100003.6938
100003.6797
100003.6616
100003.6478
100003.6408
100003.6383
100003.6381
100003.6386
100003.6379
100003.6328
100003.6382
100003.6506
100003.671
100003.6954
100003.7177
100003.7384
100003.7027
100003.6775
100003.673
100003.6774
100003.6809
100003.669
100003.6693
100003.6701
100003.6714
100003.6733
100003.676
100003.6795
100003.6838
100003.689
100003.6947
100003.7008
100003.7063
100003.7091
100003.7064
100003.6975
100003.6865
100003.678
100003.6731
100003.6696
100003.667
100003.666
100003.6693
100003.6887
100003.7158
100003.7517
100003.79
100003.8199
100003.8408
100003.7929
100003.756
100003.7403
100003.7407
100003.7463
100003.5973
100003.5467
100003.552
100003.5486
100003.5597
100003.5814
100003.6167
100003.6314
100003.6077
100003.5644
100003.503
100003.4735
100003.4551
100003.4516
100003.4569
100003.464
100003.4732
100003.4828
100003.4907
100003.4965
100003.4984
100003.5012
100003.497
100003.5001
100003.4985
100003.5006
100003.5008
100003.5028
100003.5051
100003.6283
100003.5799
100003.5906
100003.592
100003.6085
100003.6275
100003.6475
100003.6659
100003.6778
100003.6872
100003.5621
100003.5266
100003.4978
100003.4815
100003.4777
100003.4765
100003.4823
100003.4885
100003.4948
100003.4985
100003.5004
100003.5009
100003.4997
100003.4994
100003.4991
100003.4993
100003.5001
100003.5006
100003.5026
100003.504
100003.5076
100003.5111
100003.6578
100003.6179
100003.6282
100003.6317
100003.6441
100003.6567
100003.6642
100003.6608
100003.633
100003.6378
100003.5723
100003.5395
100003.5131
100003.4976
100003.4917
100003.4896
100003.4894
100003.491
100003.4939
100003.4917
100003.495
100003.4944
100003.4948
100003.496
100003.4963
100003.4972
100003.498
100003.4983
100003.4998
100003.4997
100003.5039
100003.5077
100003.656
100003.6233
100003.6379
100003.6434
100003.6571
100003.6741
100003.696
100003.7281
100003.7553
100003.8984
100003.6475
100003.5998
100003.5473
100003.5153
100003.5034
100003.4803
100003.4849
100003.4851
100003.4938
100003.4948
100003.4988
100003.497
100003.4966
100003.497
100003.4981
100003.4968
100003.5032
100003.4977
100003.4985
100003.4932
100003.4998
100003.5044
100003.5092
100003.6474
100003.621
100003.6315
100003.6291
100003.6347
100003.6422
100003.6506
100003.657
100003.6558
100003.6681
100003.5918
100003.5708
100003.5471
100003.5323
100003.5234
100003.5022
100003.4886
100003.4789
100003.4969
100003.4688
100003.4915
100003.4706
100003.4895
100003.4892
100003.4923
100003.4931
100003.4952
100003.4936
100003.4982
100003.5026
100003.4979
100003.5032
100003.5061
100003.6172
100003.5934
100003.5993
100003.5939
100003.5959
100003.6017
100003.6125
100003.6269
100003.644
100003.6597
100003.6115
100003.5717
100003.5331
100003.5091
100003.4847
100003.4506
100003.4665
100003.4459
100003.4796
100003.4876
100003.4954
100003.4954
100003.4938
100003.4949
100003.5006
100003.4961
100003.5154
100003.5036
100003.5034
100003.504
100003.4969
100003.5038
100003.5101
100003.5764
100003.559
100003.5626
100003.5573
100003.5573
100003.5592
100003.5651
100003.5747
100003.5872
100003.5878
100003.5692
100003.5487
100003.5282
100003.498
100003.4872
100003.501
100003.491
100003.4763
100003.4798
100003.476
100003.4837
100003.4845
100003.4864
100003.4891
100003.4914
100003.4927
100003.4942
100003.4959
100003.4985
100003.5034
100003.5045
100003.502
100003.5037
100003.545
100003.5312
100003.5336
100003.5298
100003.5311
100003.5328
100003.538
100003.5465
100003.558
100003.5624
100003.5538
100003.5386
100003.5233
100003.4984
100003.4864
100003.4868
100003.4903
100003.485
100003.4724
100003.479
100003.4814
100003.4842
100003.4849
100003.4882
100003.4903
100003.4906
100003.4989
100003.5015
100003.502
100003.5038
100003.5057
100003.5061
100003.5093
100003.5299
100003.5182
100003.5203
100003.5171
100003.5185
100003.5206
100003.5268
100003.5328
100003.5397
100003.5478
100003.5435
100003.5312
100003.5164
100003.5044
100003.4928
100003.4997
100003.4811
100003.4817
100003.4691
100003.4728
100003.4731
100003.478
100003.4785
100003.4848
100003.4856
100003.4942
100003.4952
100003.5015
100003.5035
100003.5043
100003.5015
100003.4992
100003.4932
100003.5308
100003.5204
100003.523
100003.5195
100003.5233
100003.5273
100003.5336
100003.5381
100003.5453
100003.5458
100003.5358
100003.519
100003.5036
100003.4947
100003.4852
100003.4773
100003.4671
100003.4631
100003.4614
100003.4688
100003.4686
100003.4748
100003.475
100003.4818
100003.4849
100003.4939
100003.4986
100003.5057
100003.5083
100003.5092
100003.507
100003.5167
100003.5245
100003.5428
100003.5331
100003.535
100003.5308
100003.5369
100003.5444
100003.5503
100003.5516
100003.5484
100003.5414
100003.5232
100003.5041
100003.4878
100003.4717
100003.4793
100003.4835
100003.4617
100003.4566
100003.4472
100003.4568
100003.466
100003.4716
100003.4732
100003.4788
100003.483
100003.4908
100003.4964
100003.5046
100003.5069
100003.5086
100003.5071
100003.5138
100003.5085
100003.5578
100003.5485
100003.549
100003.5479
100003.5572
100003.568
100003.5718
100003.5659
100003.5556
100003.536
100003.5154
100003.4913
100003.4676
100003.4686
100003.4821
100003.5028
100003.4973
100003.4814
100003.4527
100003.457
100003.4582
100003.4704
100003.4724
100003.4795
100003.4843
100003.4899
100003.4956
100003.502
100003.5067
100003.5119
100003.514
100003.5214
100003.5247
100003.5671
100003.5563
100003.5555
100003.5554
100003.5659
100003.5786
100003.5822
100003.5732
100003.5641
100003.5376
100003.5149
100003.4907
100003.4758
100003.4817
100003.4995
100003.522
100003.5246
100003.5129
100003.4866
100003.4752
100003.4562
100003.4693
100003.4713
100003.4798
100003.4864
100003.4912
100003.4941
100003.4984
100003.5042
100003.5101
100003.5147
100003.5216
100003.533
100003.5642
100003.5493
100003.5457
100003.5434
100003.5524
100003.5603
100003.566
100003.5663
100003.5655
100003.538
100003.5235
100003.5013
100003.4957
100003.4995
100003.5041
100003.5106
100003.5059
100003.4972
100003.4708
100003.4586
100003.4277
100003.444
100003.4564
100003.4723
100003.4859
100003.4908
100003.4917
100003.4923
100003.498
100003.5052
100003.5112
100003.5176
100003.5338
100003.5507
100003.531
100003.5266
100003.5241
100003.5348
100003.5462
100003.5553
100003.5598
100003.5654
100003.5448
100003.5259
100003.5161
100003.5111
100003.5141
100003.5039
100003.4954
100003.4854
100003.4675
100003.4393
100003.4448
100003.3291
100003.4364
100003.4268
100003.462
100003.4792
100003.4798
100003.4747
100003.4583
100003.4771
100003.4904
100003.5029
100003.514
100003.5356
100003.5337
100003.5113
100003.5091
100003.5077
100003.5208
100003.534
100003.5446
100003.551
100003.5598
100003.5503
100003.5378