/*--------------------------------*- C++ -*----------------------------------*\
  =========                 |
  \\      /  F ield         | OpenFOAM: The Open Source CFD Toolbox
   \\    /   O peration     | Website:  https://openfoam.org
    \\  /    A nd           | Version:  8
     \\/     M anipulation  |
\*---------------------------------------------------------------------------*/
FoamFile
{
    version     2.0;
    format      ascii;
    class       volScalarField;
    location    "0.5";
    object      p_rgh;
}
// * * * * * * * * * * * * * * * * * * * * * * * * * * * * * * * * * * * * * //

dimensions      [1 -1 -2 0 0 0 0];

internalField   nonuniform List<scalar> 
67286
(
100004.1944
100004.0278
100004.02
100004.0307
100004.0579
100004.0815
100004.081
100004.1043
100004.0593
100003.9736
100003.866
100003.8382
100003.8098
100003.7997
100003.8013
100003.8058
100003.8122
100003.8203
100003.8258
100003.8296
100003.8296
100003.8268
100003.8253
100003.8212
100003.8194
100003.819
100003.8188
100003.8195
100004.2096
100004.0682
100004.0916
100004.1265
100004.1723
100004.2051
100004.2008
100004.1508
100004.1011
100004.0044
100003.9097
100003.8632
100003.8351
100003.8245
100003.8217
100003.8196
100003.8198
100003.8231
100003.8261
100003.828
100003.8267
100003.8224
100003.82
100003.8175
100003.8162
100003.8153
100003.8144
100003.8139
100003.8163
100003.819
100003.8236
100003.8295
100004.1821
100004.0879
100004.1312
100004.1685
100004.2063
100004.2313
100004.2186
100004.1698
100004.0788
100003.9806
100003.9221
100003.8871
100003.8644
100003.857
100003.8546
100003.8454
100003.8322
100003.8305
100003.835
100003.8448
100003.8253
100003.8195
100003.8173
100003.8145
100003.8135
100003.8106
100003.8088
100003.8078
100003.8098
100003.8095
100003.8163
100003.8228
100004.1512
100004.0785
100004.1174
100004.1393
100004.1569
100004.161
100004.1436
100004.0961
100004.0305
100003.9823
100003.9396
100003.9212
100003.9131
100003.9145
100003.8916
100003.8494
100003.8222
100003.8214
100003.8223
100003.8195
100003.812
100003.8148
100003.8133
100003.8116
100003.8091
100003.8051
100003.8041
100003.8024
100003.8031
100003.7995
100003.8079
100003.8167
100003.8226
100004.1042
100004.0504
100004.0805
100004.0805
100004.076
100004.07
100004.0605
100004.03
100003.9945
100003.9626
100003.9339
100003.9191
100003.9095
100003.8789
100003.8363
100003.8017
100003.7935
100003.8304
100003.8528
100004.0186
100003.812
100003.8266
100003.8157
100003.812
100003.8065
100003.8019
100003.8009
100003.7998
100003.81
100003.8322
100003.8066
100003.8192
100003.8246
100004.032
100003.9817
100004.0054
100003.9994
100003.9883
100003.9789
100003.9762
100003.9606
100003.9515
100003.9517
100003.9724
100003.9666
100003.9452
100004.0206
100004.0965
100003.9884
100003.7965
100003.8021
100003.816
100003.8222
100003.8183
100003.8176
100003.8109
100003.8056
100003.8026
100003.8018
100003.8064
100003.8246
100003.807
100003.8172
100003.8063
100003.8152
100003.825
100003.9687
100003.9214
100003.9362
100003.9276
100003.9165
100003.9047
100003.9029
100003.8962
100003.8968
100003.9008
100003.9062
100003.8968
100003.8911
100003.8996
100003.9279
100003.9553
100003.8473
100003.8157
100003.8241
100003.8322
100003.8232
100003.8148
100003.8082
100003.801
100003.7996
100003.8003
100003.8036
100003.8075
100003.8085
100003.8183
100003.8232
100003.8328
100003.8187
100003.9216
100003.8791
100003.8846
100003.8761
100003.8698
100003.8617
100003.8627
100003.8675
100003.8787
100003.8952
100003.9089
100003.9192
100003.9142
100003.9097
100003.8836
100003.8669
100003.8086
100003.8063
100003.8044
100003.8096
100003.8123
100003.8122
100003.804
100003.7988
100003.7974
100003.8021
100003.8119
100003.8176
100003.816
100003.818
100003.8046
100003.8094
100003.7895
100003.8943
100003.8591
100003.8575
100003.8502
100003.8515
100003.8505
100003.856
100003.8664
100003.882
100003.9034
100003.9209
100003.9061
100003.8816
100003.8712
100003.8673
100003.8552
100003.8325
100003.7812
100003.7814
100003.7924
100003.8094
100003.819
100003.8082
100003.8021
100003.8054
100003.8246
100003.8335
100003.829
100003.831
100003.8271
100003.8138
100003.8184
100003.811
100003.8874
100003.8588
100003.8564
100003.8512
100003.8576
100003.8626
100003.8704
100003.8812
100003.8991
100003.9246
100003.9068
100003.8652
100003.8256
100003.8008
100003.7883
100003.774
100003.7862
100003.7608
100003.7554
100003.769
100003.7939
100003.8202
100003.8186
100003.8066
100003.8064
100003.8159
100003.8321
100003.8461
100003.846
100003.8255
100003.8001
100003.8172
100003.8196
100003.8975
100003.8734
100003.8727
100003.8705
100003.8798
100003.8891
100003.8973
100003.9017
100003.9223
100003.9188
100003.8744
100003.8202
100003.7972
100003.8213
100003.88
100003.942
100003.9364
100003.8467
100003.7708
100003.7442
100003.7688
100003.8108
100003.8264
100003.8193
100003.8142
100003.8157
100003.8235
100003.8321
100003.8282
100003.8306
100003.8315
100003.8472
100003.8285
100003.9176
100003.8966
100003.8982
100003.9004
100003.9125
100003.9237
100003.9279
100003.9255
100003.9332
100003.8969
100003.8213
100003.7877
100003.8184
100003.91
100004.0352
100004.1355
100004.142
100004.0557
100003.9828
100003.7992
100003.7512
100003.7942
100003.8228
100003.8344
100003.8252
100003.8224
100003.8255
100003.8334
100003.8346
100003.8359
100003.8336
100003.8441
100003.8396
100003.9375
100003.9161
100003.9152
100003.9133
100003.9189
100003.9276
100003.9291
100003.9308
100003.9158
100003.8604
100003.8014
100003.8004
100003.853
100003.9436
100004.0569
100004.1542
100004.176
100004.1345
100004.1243
100003.8725
100003.769
100003.7839
100003.8158
100003.8447
100003.8524
100003.8433
100003.8403
100003.844
100003.8417
100003.8422
100003.8433
100003.8536
100003.8681
100003.9477
100003.9175
100003.9071
100003.8967
100003.8975
100003.904
100003.9137
100003.9157
100003.9015
100003.857
100003.8123
100003.8106
100003.8508
100003.9189
100004.0029
100004.0669
100004.0804
100004.0489
100004.0258
100003.8385
100003.8257
100003.8122
100003.8295
100003.8554
100003.8723
100003.8699
100003.873
100003.8814
100003.8699
100003.8615
100003.8552
100003.8606
100003.8909
100003.9481
100003.9016
100003.8804
100003.8721
100003.8894
100003.9126
100003.9228
100003.9261
100003.9142
100003.8767
100003.8339
100003.8246
100003.8428
100003.8834
100003.9258
100003.953
100003.9548
100003.9365
100003.8977
100003.8404
100003.8566
100003.8487
100003.8661
100003.8817
100003.8963
100003.8965
100003.9001
100003.9169
100003.8898
100003.8848
100003.8764
100003.8734
100003.8986
100003.9415
100003.8789
100003.861
100003.8654
100003.8924
100003.9169
100003.9252
100003.9195
100003.9115
100003.8939
100003.8633
100003.8519
100003.8508
100003.8687
100003.8834
100003.8932
100003.906
100003.916
100003.9706
100004.0877
100004.4236
100003.9513
100003.9652
100003.9222
100003.9266
100003.9288
100003.9296
100003.987
100003.9063
100003.9169
100003.9024
100003.8954
100003.8997
100003.9318
100003.8625
100003.8487
100003.8547
100003.8787
100003.8985
100003.9055
100003.8976
100003.9038
100003.907
100003.9149
100003.9572
100003.9055
100003.8917
100003.8858
100003.8907
100003.9286
100003.9491
100004.0372
100003.9399
100003.9463
100003.8826
100003.9353
100003.953
100003.9809
100003.9989
100003.9992
100004.1909
100003.9315
100003.973
100003.9243
100003.9264
100003.9263
100003.9205
100003.8518
100003.8382
100003.8402
100003.8586
100003.8729
100003.881
100003.8832
100003.8999
100003.9144
100003.9465
100003.9513
100003.9578
100003.9395
100003.9335
100003.9576
100004.0546
100004.2336
100004.7181
100004.784
100007.5564
100004.1655
100004.5515
100004.1204
100004.12
100004.1261
100004.1096
100004.2594
100004.0322
100004.0664
100003.9493
100003.9412
100003.9284
100003.908
100003.845
100003.8306
100003.8269
100003.8397
100003.8515
100003.8621
100003.8704
100003.88
100003.8533
100003.8818
100004.007
100004.1815
100003.9898
100003.9966
100004.0005
100004.0627
100004.1692
100004.383
100004.5394
100005.9884
100004.3442
100004.438
100004.2167
100004.2761
100004.6233
100005.0388
100010.0282
100004.8226
100004.6238
100004.0996
100004.0052
100003.9411
100003.8955
100003.842
100003.8291
100003.8221
100003.8319
100003.8492
100003.8792
100003.9073
100003.8816
100003.8118
100004.058
100004.4957
100004.2437
100003.9669
100004.0429
100004.0254
100004.0653
100004.1568
100004.3469
100004.5433
100005.238
100004.3588
100004.3912
100004.1849
100004.1904
100004.3495
100004.5931
100005.7623
100004.599
100004.4241
100004.1034
100003.9925
100003.9217
100003.8847
100003.8429
100003.8332
100003.8258
100003.8342
100003.8547
100003.8857
100003.9016
100003.856
100003.8019
100004.1495
100004.4245
100004.0378
100003.9446
100004.039
100004.0098
100004.0288
100004.0867
100004.1968
100004.3214
100004.5929
100004.2509
100004.2597
100004.1269
100004.1415
100004.2829
100004.5004
100005.1505
100004.5266
100004.3406
100004.0984
100003.9901
100003.9234
100003.8764
100003.8486
100003.8409
100003.8348
100003.8406
100003.8567
100003.8834
100003.9056
100003.8909
100003.8324
100003.8378
100003.7551
100003.8101
100003.9412
100003.9691
100003.9672
100003.9786
100004.0209
100004.0941
100004.177
100004.279
100004.166
100004.155
100004.0901
100004.1028
100004.1762
100004.2681
100004.5325
100004.2766
100004.1957
100004.0663
100003.9835
100003.9243
100003.8724
100003.8564
100003.8513
100003.8462
100003.8499
100003.8614
100003.8826
100003.9071
100003.9187
100003.8941
100003.8484
100003.7416
100003.8063
100003.9076
100003.9089
100003.9197
100003.9323
100003.9645
100004.0143
100004.0684
100004.1143
100004.0839
100004.086
100004.0626
100004.0528
100004.0678
100004.0763
100004.147
100004.0658
100004.0517
100003.9968
100003.9452
100003.9052
100003.872
100003.8623
100003.86
100003.8564
100003.8583
100003.866
100003.8821
100003.904
100003.9222
100003.9233
100003.9014
100003.8568
100003.8372
100003.881
100003.8739
100003.8825
100003.8942
100003.9189
100003.9538
100003.9913
100004.0212
100004.0202
100004.0294
100004.021
100004.0093
100003.9961
100003.9738
100003.9516
100003.9394
100003.9514
100003.9326
100003.9055
100003.8855
100003.8697
100003.865
100003.8644
100003.8627
100003.8642
100003.8691
100003.8806
100003.8982
100003.913
100003.9208
100003.9161
100003.9076
100003.8599
100003.8698
100003.8565
100003.8579
100003.8656
100003.8836
100003.9077
100003.9343
100003.9569
100003.9664
100003.9799
100003.9751
100003.9642
100003.9488
100003.9318
100003.8937
100003.882
100003.8917
100003.885
100003.874
100003.8688
100003.865
100003.8634
100003.8641
100003.8644
100003.8664
100003.8703
100003.8779
100003.8897
100003.9012
100003.9075
100003.9074
100003.9059
100003.8687
100003.8631
100003.8494
100003.8449
100003.8473
100003.8587
100003.8749
100003.8926
100003.9081
100003.9172
100003.9319
100003.9308
100003.9217
100003.9118
100003.9075
100003.8814
100003.8639
100003.863
100003.8586
100003.8559
100003.8583
100003.8602
100003.8598
100003.8609
100003.8623
100003.8649
100003.8685
100003.8738
100003.8815
100003.8904
100003.8967
100003.8978
100003.8953
100003.8747
100003.8631
100003.8503
100003.8427
100003.8406
100003.845
100003.8543
100003.8653
100003.8744
100003.8804
100003.8915
100003.8953
100003.8932
100003.8948
100003.8982
100003.8902
100003.8688
100003.8625
100003.8546
100003.8559
100003.8593
100003.8565
100003.8567
100003.8577
100003.8592
100003.8617
100003.865
100003.8695
100003.8756
100003.8829
100003.8897
100003.8934
100003.8918
100003.8827
100003.8732
100003.8614
100003.8534
100003.8492
100003.8491
100003.8521
100003.8564
100003.8599
100003.8628
100003.8734
100003.8827
100003.892
100003.9068
100003.9171
100003.9215
100003.8967
100003.8878
100003.8767
100003.8768
100003.8766
100003.8541
100003.8545
100003.8555
100003.857
100003.8593
100003.8624
100003.8666
100003.8719
100003.8783
100003.885
100003.8909
100003.8922
100003.888
100003.8832
100003.8756
100003.8679
100003.8632
100003.8617
100003.8622
100003.8631
100003.8636
100003.8657
100003.8759
100003.8909
100003.9144
100003.9413
100003.9577
100003.9691
100003.9405
100003.926
100003.9103
100003.907
100003.9032
100003.8531
100003.8536
100003.8545
100003.856
100003.8583
100003.8614
100003.8654
100003.8705
100003.8768
100003.8839
100003.8917
100003.8989
100003.9033
100003.9052
100003.9069
100003.9086
100003.9093
100003.9085
100003.907
100003.9062
100003.9098
100003.9221
100003.949
100003.9784
100004.0169
100004.0591
100004.0787
100004.0852
100004.0402
100004.0173
100003.9891
100003.9809
100003.9796
100003.9712
100003.8538
100003.872
100003.8641
100003.8711
100003.8673
100003.8512
100003.8427
100003.852
100003.7781
100003.7766
100003.7486
100003.7461
100003.742
100003.7453
100003.7557
100003.7748
100003.7972
100003.8124
100003.8194
100003.8193
100003.8185
100003.8162
100003.8139
100003.8122
100003.8122
100003.8113
100003.8127
100004.0057
100003.9017
100003.9231
100003.9274
100003.9433
100003.9541
100003.9587
100003.9531
100003.9356
100003.8946
100003.8382
100003.7942
100003.7747
100003.7641
100003.7642
100003.7729
100003.7894
100003.8054
100003.8144
100003.8168
100003.816
100003.8149
100003.813
100003.8111
100003.8099
100003.8091
100003.8081
100003.8073
100003.8107
100003.8115
100003.817
100003.8215
100004.0235
100003.9509
100003.9752
100003.9843
100003.9983
100004.005
100003.9984
100003.9768
100003.9401
100003.8965
100003.8529
100003.8204
100003.8018
100003.7918
100003.7896
100003.7942
100003.802
100003.8113
100003.8137
100003.8113
100003.8035
100003.8082
100003.8065
100003.8069
100003.8064
100003.804
100003.8015
100003.7986
100003.8024
100003.7974
100003.8092
100003.8138
100004.0162
100003.9607
100003.9841
100003.9881
100003.9937
100003.9953
100003.9923
100003.9821
100003.9712
100003.9651
100003.8792
100003.8525
100003.8263
100003.8082
100003.7806
100003.7681
100003.7755
100003.7974
100003.8055
100003.8005
100003.7995
100003.8063
100003.8063
100003.8057
100003.803
100003.7966
100003.7962
100003.7923
100003.7932
100003.785
100003.7965
100003.8014
100003.8071
100003.9819
100003.945
100003.9671
100003.9651
100003.9654
100003.9623
100003.9579
100003.9498
100003.9345
100003.9116
100003.8682
100003.841
100003.8188
100003.7726
100003.7416
100003.7321
100003.7303
100003.7647
100003.7796
100003.67
100003.7515
100003.7758
100003.785
100003.7947
100003.7919
100003.7887
100003.7928
100003.7927
100003.7967
100003.8048
100003.7935
100003.7986
100003.8016
100003.936
100003.9049
100003.9218
100003.9171
100003.9164
100003.9131
100003.9121
100003.9116
100003.9095
100003.8986
100003.8575
100003.8157
100003.7333
100003.7433
100003.7654
100003.6968
100003.6697
100003.6973
100003.7628
100003.793
100003.8047
100003.8057
100003.7999
100003.7937
100003.7922
100003.7897
100003.8012
100003.7987
100003.7936
100003.7969
100003.7882
100003.7915
100003.782
100003.8937
100003.8667
100003.8781
100003.8725
100003.8715
100003.8665
100003.8645
100003.8646
100003.8649
100003.8616
100003.8513
100003.8314
100003.7945
100003.7133
100003.7225
100003.7286
100003.7431
100003.7121
100003.7664
100003.7832
100003.7944
100003.7949
100003.787
100003.7829
100003.7847
100003.7869
100003.7909
100003.7926
100003.7944
100003.8004
100003.7976
100003.7888
100003.7618
100003.8615
100003.8361
100003.8446
100003.8395
100003.8399
100003.8349
100003.8345
100003.8368
100003.8404
100003.8463
100003.8473
100003.8466
100003.8139
100003.7551
100003.7049
100003.6681
100003.6745
100003.697
100003.718
100003.7601
100003.7848
100003.7894
100003.7809
100003.7806
100003.7849
100003.7882
100003.7909
100003.7936
100003.7866
100003.7914
100003.762
100003.7536
100003.6992
100003.846
100003.82
100003.8269
100003.8222
100003.8237
100003.8211
100003.8216
100003.8271
100003.8352
100003.8424
100003.8483
100003.8207
100003.7516
100003.6914
100003.678
100003.6967
100003.7093
100003.6672
100003.6635
100003.6939
100003.7462
100003.7764
100003.7726
100003.7764
100003.7831
100003.7903
100003.7943
100003.7954
100003.7914
100003.7898
100003.758
100003.7545
100003.7394
100003.8506
100003.8228
100003.8251
100003.8204
100003.8256
100003.8284
100003.8308
100003.8408
100003.8456
100003.8518
100003.8195
100003.7351
100003.685
100003.6823
100003.6967
100003.7101
100003.6939
100003.6831
100003.6679
100003.6622
100003.6953
100003.7589
100003.7696
100003.7755
100003.7803
100003.7869
100003.7958
100003.7976
100003.7933
100003.7642
100003.7244
100003.7449
100003.7616
100003.8715
100003.8437
100003.841
100003.8365
100003.847
100003.8555
100003.8605
100003.8639
100003.8594
100003.8412
100003.7435
100003.6971
100003.7028
100003.7202
100003.7301
100003.759
100003.7366
100003.7032
100003.6853
100003.6762
100003.6593
100003.7152
100003.7626
100003.7759
100003.7814
100003.7867
100003.7928
100003.7983
100003.7972
100003.7899
100003.7592
100003.7425
100003.7186
100003.8985
100003.873
100003.8691
100003.8676
100003.8792
100003.8887
100003.8904
100003.8852
100003.8731
100003.7903
100003.713
100003.7174
100003.7263
100003.7442
100003.7758
100003.8266
100003.8304
100003.8025
100003.7489
100003.7187
100003.6899
100003.691
100003.7442
100003.7821
100003.7879
100003.7923
100003.7973
100003.8017
100003.8037
100003.8017
100003.7742
100003.7615
100003.6969
100003.9192
100003.8931
100003.8856
100003.8783
100003.8824
100003.8905
100003.8905
100003.8928
100003.8537
100003.7649
100003.7291
100003.7461
100003.7588
100003.7854
100003.8249
100003.876
100003.8886
100003.8637
100003.8063
100003.7448
100003.7172
100003.6838
100003.7034
100003.7814
100003.8022
100003.8043
100003.806
100003.8103
100003.8147
100003.8154
100003.8082
100003.8093
100003.7665
100003.9211
100003.8846
100003.8643
100003.8495
100003.852
100003.8641
100003.8745
100003.8766
100003.8571
100003.7792
100003.7315
100003.7534
100003.7682
100003.7895
100003.8156
100003.8475
100003.8549
100003.8421
100003.7904
100003.7432
100003.7388
100003.6898
100003.7257
100003.7909
100003.8253
100003.8252
100003.8238
100003.8269
100003.8255
100003.8244
100003.8163
100003.8178
100003.8106
100003.9015
100003.8494
100003.8317
100003.8288
100003.8399
100003.8536
100003.8619
100003.8594
100003.8655
100003.7989
100003.7435
100003.7535
100003.7747
100003.7942
100003.8093
100003.8197
100003.8154
100003.7949
100003.764
100003.7343
100003.6984
100003.7123
100003.7742
100003.8183
100003.843
100003.8396
100003.8342
100003.829
100003.8227
100003.8265
100003.8231
100003.8268
100003.8369
100003.875
100003.8206
100003.814
100003.818
100003.8307
100003.8447
100003.8518
100003.8422
100003.8618
100003.8236
100003.7683
100003.7451
100003.7697
100003.7955
100003.8103
100003.8163
100003.8154
100003.8316
100003.8723
100003.8471
100004.0718
100003.7566
100003.8786
100003.8288
100003.8466
100003.8286
100003.7986
100003.7536
100003.7702
100003.8119
100003.8197
100003.8279
100003.8389
100003.8539
100003.8032
100003.8018
100003.8069
100003.8191
100003.8291
100003.8333
100003.8197
100003.844
100003.8382
100003.8179
100003.8199
100003.7939
100003.808
100003.8191
100003.825
100003.821
100003.7976
100003.7311
100003.6799
100003.0782
100003.7264
100003.7009
100003.8066
100003.8343
100003.8224
100003.7486
100003.7086
100003.6666
100003.7912
100003.8032
100003.8445
100003.8546
100003.8395
100003.7931
100003.7945
100003.796
100003.809
100003.8142
100003.8141
100003.7972
100003.8175
100003.8104
100003.7703
100003.7363
100003.8009
100003.8234
100003.8293
100003.8654
100003.9371
100004.0443
100004.2434
100004.2326
100004.6537
100003.2736
100004.1591
100003.8556
100003.8764
100003.726
100003.5029
100002.2308
100003.4163
100003.6377
100003.7559
100003.8247
100003.847
100003.8299
100003.7877
100003.7932
100003.7904
100003.799
100003.8016
100003.7965
100003.7692
100003.7763
100003.7575
100003.7309
100003.8854
100003.9078
100003.9572
100003.8811
100003.8952
100003.9491
100004.042
100004.2964
100004.6099
100008.2306
100004.1641
100004.3185
100003.9928
100003.9778
100004.0727
100003.9562
100004.1974
100003.513
100003.9767
100003.8361
100003.8764
100003.8419
100003.826
100003.7854
100003.793
100003.7937
100003.7969
100003.7922
100003.7801
100003.7223
100003.5919
100003.4546
100003.5712
100003.8093
100003.8129
100003.8507
100003.9036
100003.9178
100003.9651
100004.0385
100004.2225
100004.4097
100005.3494
100004.1638
100004.2227
100003.9973
100003.972
100004.046
100004.0375
100005.1658
100003.9464
100004.0323
100003.8685
100003.8772
100003.8448
100003.8301
100003.7899
100003.7929
100003.7949
100003.8004
100003.7941
100003.7863
100003.7124
100003.5459
100003.586
100003.714
100003.8455
100003.7633
100003.7856
100003.9152
100003.9124
100003.9417
100003.9875
100004.0859
100004.1886
100004.4951
100004.089
100004.0976
100003.9568
100003.95
100004.0264
100004.0214
100004.3887
100003.9837
100004.0213
100003.8939
100003.8831
100003.8504
100003.8456
100003.8062
100003.801
100003.7977
100003.8055
100003.8063
100003.8038
100003.7453
100003.6005
100003.4036
100003.5461
100003.6727
100003.6811
100003.785
100003.8743
100003.8849
100003.9065
100003.9413
100004
100004.0637
100004.1701
100004.0348
100004.0344
100003.9606
100003.9337
100003.9615
100003.9352
100004.0964
100003.9348
100003.9692
100003.899
100003.8805
100003.8551
100003.8609
100003.8341
100003.8216
100003.8119
100003.8156
100003.8214
100003.8279
100003.8055
100003.7435
100003.5409
100003.5062
100003.5897
100003.7278
100003.8055
100003.8433
100003.8575
100003.8765
100003.9036
100003.9423
100003.9838
100004.0275
100003.9928
100003.9812
100003.941
100003.917
100003.9109
100003.8774
100003.9279
100003.8756
100003.9059
100003.8785
100003.8641
100003.8488
100003.8665
100003.853
100003.8453
100003.8358
100003.8351
100003.8402
100003.8495
100003.8472
100003.8295
100003.7415
100003.6468
100003.5963
100003.7801
100003.8084
100003.825
100003.8374
100003.8541
100003.8742
100003.9003
100003.9287
100003.9533
100003.9497
100003.9432
100003.9267
100003.8964
100003.8764
100003.8453
100003.8373
100003.8334
100003.8567
100003.8497
100003.8437
100003.8394
100003.8641
100003.8585
100003.8563
100003.852
100003.8517
100003.8549
100003.8618
100003.8648
100003.8627
100003.836
100003.802
100003.7693
100003.8145
100003.8172
100003.8186
100003.825
100003.8366
100003.8508
100003.8683
100003.8873
100003.9034
100003.9075
100003.9071
100003.9002
100003.875
100003.8542
100003.8325
100003.787
100003.8122
100003.825
100003.8284
100003.8257
100003.8264
100003.8597
100003.8576
100003.8574
100003.8567
100003.8579
100003.8606
100003.8651
100003.8692
100003.872
100003.8663
100003.8552
100003.8384
100003.8338
100003.8246
100003.8178
100003.8185
100003.8246
100003.8325
100003.845
100003.8577
100003.867
100003.8706
100003.8728
100003.8725
100003.8548
100003.8423
100003.8345
100003.7928
100003.8082
100003.8141
100003.8189
100003.818
100003.8197
100003.8557
100003.855
100003.8555
100003.856
100003.8578
100003.8605
100003.8644
100003.8687
100003.873
100003.8742
100003.872
100003.8619
100003.848
100003.8321
100003.8198
100003.815
100003.8175
100003.8214
100003.8278
100003.8356
100003.8398
100003.8402
100003.843
100003.8449
100003.8382
100003.837
100003.8396
100003.8251
100003.8167
100003.8158
100003.8191
100003.8174
100003.8199
100003.8527
100003.8527
100003.8533
100003.8543
100003.8562
100003.859
100003.8627
100003.8671
100003.872
100003.8761
100003.8784
100003.8748
100003.8633
100003.8462
100003.8308
100003.8218
100003.8193
100003.8206
100003.8235
100003.8275
100003.8304
100003.8274
100003.8319
100003.8353
100003.84
100003.852
100003.8629
100003.8697
100003.8436
100003.8343
100003.836
100003.8348
100003.8385
100003.8508
100003.8511
100003.8518
100003.853
100003.8549
100003.8576
100003.8612
100003.8655
100003.8705
100003.8754
100003.8798
100003.8808
100003.8749
100003.8607
100003.8426
100003.8288
100003.8218
100003.8193
100003.8191
100003.8196
100003.819
100003.8138
100003.8192
100003.8316
100003.852
100003.8765
100003.8987
100003.9194
100003.8837
100003.8585
100003.854
100003.8584
100003.8619
100003.85
100003.8504
100003.8511
100003.8524
100003.8543
100003.857
100003.8605
100003.8648
100003.87
100003.8757
100003.8818
100003.8873
100003.8901
100003.8875
100003.8785
100003.8675
100003.859
100003.8541
100003.8506
100003.848
100003.847
100003.8503
100003.8697
100003.8968
100003.9327
100003.9711
100004.0009
100004.0218
100003.9739
100003.937
100003.9213
100003.9217
100003.9273
100003.899
100003.8484
100003.8537
100003.8503
100003.8614
100003.8831
100003.9184
100003.9331
100003.9094
100003.8661
100003.8047
100003.7752
100003.7568
100003.7533
100003.7586
100003.7657
100003.7749
100003.7845
100003.7924
100003.7982
100003.8001
100003.8029
100003.7987
100003.8018
100003.8002
100003.8023
100003.8025
100003.8045
100003.8068
100003.93
100003.8816
100003.8923
100003.8937
100003.9102
100003.9292
100003.9492
100003.9675
100003.9795
100003.9888
100003.8638
100003.8283
100003.7995
100003.7832
100003.7794
100003.7781
100003.784
100003.7902
100003.7964
100003.8002
100003.8021
100003.8026
100003.8014
100003.8011
100003.8008
100003.801
100003.8018
100003.8023
100003.8042
100003.8057
100003.8093
100003.8128
100003.9595
100003.9196
100003.9299
100003.9333
100003.9458
100003.9584
100003.9659
100003.9625
100003.9347
100003.9395
100003.874
100003.8412
100003.8148
100003.7993
100003.7934
100003.7913
100003.7911
100003.7927
100003.7956
100003.7934
100003.7967
100003.7961
100003.7965
100003.7977
100003.798
100003.7989
100003.7997
100003.8
100003.8015
100003.8014
100003.8056
100003.8094
100003.9576
100003.925
100003.9396
100003.9451
100003.9588
100003.9758
100003.9977
100004.0298
100004.0569
100004.2001
100003.9492
100003.9015
100003.849
100003.817
100003.8051
100003.782
100003.7866
100003.7868
100003.7955
100003.7965
100003.8005
100003.7987
100003.7983
100003.7987
100003.7998
100003.7985
100003.8049
100003.7994
100003.8002
100003.7949
100003.8015
100003.8061
100003.8109
100003.9491
100003.9227
100003.9332
100003.9308
100003.9364
100003.9439
100003.9523
100003.9587
100003.9575
100003.9698
100003.8935
100003.8725
100003.8488
100003.834
100003.8251
100003.8039
100003.7903
100003.7806
100003.7986
100003.7705
100003.7932
100003.7723
100003.7912
100003.7909
100003.794
100003.7948
100003.7968
100003.7953
100003.7999
100003.8043
100003.7996
100003.8049
100003.8078
100003.9189
100003.8951
100003.901
100003.8956
100003.8975
100003.9034
100003.9142
100003.9286
100003.9457
100003.9614
100003.9132
100003.8734
100003.8348
100003.8108
100003.7864
100003.7523
100003.7682
100003.7476
100003.7813
100003.7893
100003.7971
100003.7971
100003.7955
100003.7966
100003.8023
100003.7978
100003.8171
100003.8053
100003.8051
100003.8057
100003.7986
100003.8055
100003.8118
100003.8781
100003.8607
100003.8643
100003.859
100003.859
100003.8609
100003.8668
100003.8764
100003.8889
100003.8895
100003.8708
100003.8504
100003.8299
100003.7997
100003.7889
100003.8027
100003.7927
100003.778
100003.7815
100003.7777
100003.7854
100003.7862
100003.788
100003.7908
100003.7931
100003.7944
100003.7959
100003.7976
100003.8002
100003.8051
100003.8062
100003.8037
100003.8054
100003.8467
100003.8329
100003.8353
100003.8315
100003.8328
100003.8345
100003.8397
100003.8482
100003.8597
100003.8641
100003.8555
100003.8403
100003.825
100003.8001
100003.7881
100003.7885
100003.792
100003.7867
100003.7741
100003.7807
100003.7831
100003.7859
100003.7866
100003.7899
100003.792
100003.7923
100003.8006
100003.8032
100003.8037
100003.8055
100003.8074
100003.8078
100003.811
100003.8316
100003.8199
100003.822
100003.8188
100003.8202
100003.8223
100003.8285
100003.8345
100003.8414
100003.8495
100003.8452
100003.8329
100003.8181
100003.8061
100003.7945
100003.8014
100003.7828
100003.7834
100003.7707
100003.7745
100003.7748
100003.7796
100003.7801
100003.7865
100003.7873
100003.7959
100003.7969
100003.8032
100003.8052
100003.8059
100003.8032
100003.8009
100003.7948
100003.8325
100003.8221
100003.8247
100003.8212
100003.825
100003.829
100003.8352
100003.8398
100003.847
100003.8475
100003.8375
100003.8207
100003.8053
100003.7964
100003.7869
100003.779
100003.7688
100003.7648
100003.7631
100003.7705
100003.7703
100003.7764
100003.7767
100003.7834
100003.7865
100003.7956
100003.8003
100003.8074
100003.81
100003.8109
100003.8087
100003.8184
100003.8262
100003.8445
100003.8347
100003.8367
100003.8325
100003.8386
100003.8461
100003.852
100003.8533
100003.8501
100003.8431
100003.8249
100003.8058
100003.7895
100003.7734
100003.7809
100003.7852
100003.7634
100003.7583
100003.7489
100003.7585
100003.7677
100003.7733
100003.7749
100003.7805
100003.7847
100003.7925
100003.7981
100003.8063
100003.8086
100003.8102
100003.8088
100003.8155
100003.8102
100003.8595
100003.8501
100003.8507
100003.8496
100003.8589
100003.8697
100003.8735
100003.8676
100003.8573
100003.8377
100003.8171
100003.793
100003.7693
100003.7703
100003.7838
100003.8045
100003.799
100003.7831
100003.7544
100003.7587
100003.7599
100003.7721
100003.7741
100003.7812
100003.786
100003.7916
100003.7973
100003.8037
100003.8084
100003.8136
100003.8157
100003.8231
100003.8264
100003.8688
100003.858
100003.8572
100003.8571
100003.8676
100003.8803
100003.8839
100003.8749
100003.8658
100003.8393
100003.8166
100003.7924
100003.7775
100003.7833
100003.8012
100003.8237
100003.8263
100003.8146
100003.7883
100003.7769
100003.7579
100003.771
100003.773
100003.7815
100003.7881
100003.7929
100003.7958
100003.8001
100003.8059
100003.8118
100003.8164
100003.8232
100003.8347
100003.8659
100003.851
100003.8473
100003.8451
100003.8541
100003.862
100003.8677
100003.868
100003.8672
100003.8397
100003.8252
100003.803
100003.7974
100003.8012
100003.8058
100003.8122
100003.8076
100003.7989
100003.7725
100003.7603
100003.7294
100003.7457
100003.7581
100003.774
100003.7876
100003.7925
100003.7934
100003.794
100003.7997
100003.8069
100003.8129
100003.8193
100003.8355
100003.8524
100003.8327
100003.8283
100003.8258
100003.8365
100003.8479
100003.857
100003.8615
100003.8671
100003.8465
100003.8275
100003.8178
100003.8128
100003.8158
100003.8056
100003.797
100003.7871
100003.7692
100003.741
100003.7465
100003.6308
100003.7381
100003.7285
100003.7637
100003.7809
100003.7815
100003.7764
100003.76
100003.7788
100003.7921
100003.8046
100003.8156
100003.8373
100003.8354
100003.813
100003.8108
100003.8094
100003.8225
100003.8357
100003.8463
100003.8527
100003.8615
100003.852