/*--------------------------------*- C++ -*----------------------------------*\
  =========                 |
  \\      /  F ield         | OpenFOAM: The Open Source CFD Toolbox
   \\    /   O peration     | Website:  https://openfoam.org
    \\  /    A nd           | Version:  8
     \\/     M anipulation  |
\*---------------------------------------------------------------------------*/
FoamFile
{
    version     2.0;
    format      ascii;
    class       volScalarField;
    location    "0.8";
    object      epsilon;
}
// * * * * * * * * * * * * * * * * * * * * * * * * * * * * * * * * * * * * * //

dimensions      [0 2 -3 0 0 0 0];

internalField   nonuniform List<scalar> 
67286
(
0.1596920184
0.1581891801
0.1561140099
0.1467341296
0.1620303968
0.2287803498
0.3676670802
0.5802062301
0.8085248297
1.002838769
1.013853744
0.7956254851
0.5835756073
0.3676964336
0.1576192559
0.06011732284
0.04691821726
0.09180795009
0.2103179899
0.3433226768
0.4950973802
0.857030754
0.548194578
0.3153420966
0.1702773323
0.07627643038
0.02044050257
0.01902543374
0.200553426
0.2049034352
0.2090506535
0.2191907981
0.2942512
0.4551855054
0.6729412163
0.9152535574
1.095495652
1.296424079
1.338858024
1.032551403
0.7938459981
0.5678691664
0.339069086
0.145437151
0.05838885969
0.06240473655
0.1458163186
0.2526483136
0.362505035
0.6845859428
0.4346648074
0.2304838313
0.1098812408
0.04162083408
0.004430267272
0.02277713194
0.02859857801
0.03226418445
0.03850801262
0.04545324534
0.2474759883
0.2602405933
0.2788597234
0.334204852
0.4915932016
0.7211686715
1.001743273
1.373205221
1.335860697
1.612962717
1.738918934
1.380884263
0.9961401448
0.6626454191
0.4368243624
0.3312269374
0.1090174351
0.05671437132
0.07596858843
0.1461605859
0.1307723627
0.2866479222
0.1693061368
0.07587308751
0.02943403726
0.004000048133
0.02077398934
0.02675180225
0.03084304049
0.0339848591
0.04074764237
0.04898603021
0.298858274
0.3245090461
0.3614515369
0.4597953138
0.6884826403
1.095902717
2.150794764
3.632210476
1.887959411
1.842741037
1.772905439
1.54727849
1.230943667
0.906897941
0.6557864872
0.4510386275
0.2944084305
0.1573898081
0.08341504446
0.06549263484
0.04641934092
0.07723472533
0.04063905556
0.02473048603
0.00415596989
0.004442694718
0.02544762504
0.02880226577
0.0317768127
0.03576322207
0.04298081797
0.05227046805
0.06380621478
0.3539042529
0.4006376184
0.4280602409
0.4452909331
0.5030634304
0.649423701
1.033962471
1.553819987
1.555463261
1.763865872
1.652571103
1.295354249
0.9842083675
0.6863314144
0.4836833772
0.265848755
0.1225570084
0.07288860537
0.05637003782
0.05209344321
0.06197955922
0.1112072525
0.05659939041
0.03286292249
0.02037181755
0.02349981844
0.02963724986
0.02943935295
0.03149714657
0.03667985174
0.04476027054
0.0562729529
0.06921130424
0.4133858248
0.5054941617
0.5554563597
0.6296068956
0.7485794723
0.8364830105
0.9173255419
1.157566749
1.349545679
1.497582285
1.274990583
1.01460324
0.8028979377
0.5632726204
0.3152608831
0.1346442154
0.09428216713
0.08259763146
0.07244096453
0.07231690774
0.09321104879
0.2152548056
0.08849888393
0.04358653711
0.0241633282
0.02729716199
0.03396996196
0.0291341938
0.03094316375
0.03827057438
0.04754891146
0.06000483316
0.06978386978
0.5133398458
0.6203516232
0.7672222551
0.9359345417
1.10758675
1.16723358
1.011027249
0.8305432198
1.016196499
1.128183741
0.9946084238
0.7824719073
0.5409770946
0.3171457949
0.1308599935
0.1089934331
0.1046156278
0.0979248262
0.09306672003
0.08893895503
0.07790984031
0.07464375816
0.03758600922
0.03315876392
0.02359157108
0.02962753052
0.03858000003
0.02708969889
0.0350390904
0.04265768006
0.05346917559
0.06622197026
0.08249091575
0.4661537756
0.5330883465
0.6606005937
0.8243596693
0.9925679088
1.080721308
0.9277429104
0.5991612762
0.640258578
0.7113622964
0.5919736879
0.4431657071
0.1845621818
0.1178241748
0.1188987876
0.1203408707
0.1170896437
0.1061607173
0.1204354786
0.1211866675
0.1093075142
0.06728539505
0.0463130228
0.04198261278
0.03005640628
0.03086571922
0.03084911978
0.03870505991
0.04980358111
0.06339233246
0.07800206282
0.09475277258
0.1177542763
0.4209812344
0.4408703124
0.5223166575
0.6598715369
0.7947257288
0.8460666401
0.6903322028
0.3952501974
0.3025406052
0.2974807911
0.1884311848
0.148827902
0.1216836739
0.128150582
0.1334209175
0.1348059079
0.1344104099
0.1361254462
0.1538903633
0.1608873928
0.1469934056
0.1101636261
0.07172085234
0.05805860565
0.04888315849
0.04292586824
0.03730831362
0.05432577567
0.07690877476
0.1011336888
0.1235969955
0.1520514911
0.222133305
0.3790578058
0.3657967383
0.4049366792
0.4975881113
0.5977622177
0.6262833233
0.4322268079
0.2452672365
0.4986444658
0.5533214143
0.1452132824
0.1302103572
0.1350150388
0.1437772153
0.1513057973
0.1563177079
0.1583219036
0.1671291517
0.1968391429
0.2216958524
0.2096547377
0.2012113494
0.164372332
0.1134027365
0.08512847061
0.06708691304
0.05126465916
0.07609479044
0.1089623411
0.1427062597
0.1856522151
0.2757589737
0.5730169353
0.3360925799
0.3051718261
0.3157157377
0.3531338517
0.3823232795
0.3583520613
0.5030905163
1.414913954
3.480340692
2.694934798
0.675491933
0.2026950686
0.1459564776
0.1620791739
0.1740723851
0.1786005325
0.1831287076
0.200358887
0.2411911066
0.3029704356
0.3625338756
0.3548659087
0.2847507195
0.2187855512
0.1599697463
0.1066059482
0.06716958163
0.08906229844
0.1201972214
0.1721774915
0.2597181202
0.4573080804
1.026012653
0.2861677815
0.2460402954
0.2337890104
0.2249116817
0.2148004089
0.184269371
0.1815060607
0.397146212
0.9416839295
0.8210708204
0.1447617727
0.138473207
0.1533829577
0.1679459387
0.182219311
0.1971422507
0.2178660634
0.2458798617
0.2856174282
0.3482804961
0.4051980077
0.4357513226
0.3649654461
0.2853724539
0.2030331291
0.1237151143
0.09230175068
0.1162488589
0.1404578577
0.1789713301
0.2333328706
0.3055797251
0.4632886083
0.2279996742
0.1881153238
0.1734709634
0.1721005007
0.1829883299
0.172317469
0.1517523724
0.1702718047
0.2682419726
0.2338800605
0.2260921523
0.1303143716
0.1432106117
0.1570732822
0.1688992304
0.1799800421
0.2010224891
0.235500551
0.2796504483
0.3479783672
0.4268570368
0.4617428208
0.3946393918
0.2886487835
0.1812442983
0.09512901795
0.1075582435
0.1397449062
0.1679243312
0.2010050453
0.2406671144
0.2841739965
0.3378560503
0.1682612664
0.1532815099
0.1722513314
0.2090721258
0.2348329398
0.2223834044
0.1955892903
0.1938216158
0.2508584192
0.428850848
0.5581906146
0.144886496
0.1299706682
0.1403444866
0.1507685683
0.1635062559
0.1927075466
0.2456103437
0.3200139195
0.4298311344
0.5581529924
0.6723671249
0.5791614727
0.3893127328
0.215010363
0.09735033873
0.1193069265
0.1649124897
0.2115240842
0.2738887103
0.3745231442
0.5494053434
0.839753864
0.1367653405
0.1545934565
0.1949481324
0.2321195836
0.2504219833
0.2472017039
0.2504446765
0.319329719
0.5329143888
0.9224129993
1.189108596
0.6899667319
0.1503197218
0.1281278948
0.1350082443
0.1491633302
0.1828887276
0.2454300825
0.331083267
0.4525662621
0.6137803981
0.7532388977
0.581462706
0.400578944
0.2186457607
0.1081156667
0.135986808
0.2038157703
0.3004042129
0.468656727
0.801073115
1.431573203
2.234528736
0.1418781216
0.1670189968
0.2001644487
0.2285404473
0.2597483224
0.3406110071
0.5314643228
0.8226264665
1.21800856
1.736600053
2.101147954
1.66887697
0.8077423138
0.2644938334
0.1227596498
0.129173148
0.1566138607
0.2114713725
0.2874498905
0.3769517072
0.4899131277
0.5873979029
0.3644931095
0.1914717561
0.1448222295
0.1427476734
0.1671661356
0.2500239573
0.4273073799
0.7797492883
1.446611691
2.592747564
3.94529908
0.150986996
0.1690138923
0.1928741002
0.2112270012
0.2318646505
0.2943380715
0.4618747477
0.7404847785
1.108009307
1.569336628
1.876737277
1.324844235
0.7224414408
0.2236674138
0.1117423683
0.1117923697
0.1233496346
0.1545957937
0.2071042822
0.2738874733
0.3491792621
0.3910735434
0.2208346952
0.2535622453
0.2549033316
0.2334807809
0.2214516686
0.2946024207
0.5637199979
1.064270823
1.803138409
2.94873102
4.602644391
0.1514969137
0.1661885074
0.1830236918
0.1939720479
0.2034419308
0.2341382966
0.3375726208
0.5445814059
0.8165350217
1.105370903
1.234911095
0.6839737027
0.3445354332
0.1270002327
0.1004057895
0.09608872232
0.09544974176
0.1056626318
0.1311212838
0.1709023316
0.2262979304
0.2869612646
0.3945128358
0.4370690717
0.417961168
0.387820653
0.3472427236
0.3231388532
0.44727866
0.911290789
1.672321986
2.677682225
4.224019936
0.1569447148
0.162858956
0.1738032087
0.178872014
0.1811093486
0.189822899
0.2330353409
0.3481603089
0.5262454074
0.6875626042
0.6921421593
0.2500734004
0.1456546565
0.09886157983
0.09970066732
0.09819795751
0.09212020952
0.09849722226
0.1539189725
0.3067211059
0.4648569906
0.5754077295
0.6973537607
0.7056873486
0.6310224651
0.586836793
0.5457698523
0.5055490343
0.4683280679
0.615948627
1.196797022
2.13386931
3.287835908
0.1591876604
0.1582559832
0.1648045825
0.1655568181
0.1633224648
0.1614326935
0.1697566058
0.2096551547
0.2955886788
0.3844634838
0.3591822538
0.1076286865
0.09096471258
0.08603608348
0.09215907978
0.103134158
0.1508583647
0.3219797819
0.6253582408
0.8468968871
0.9874268052
1.080981139
1.175059918
1.150368461
0.94876665
0.8461636786
0.7844533965
0.7720567457
0.7521533929
0.6550381039
0.7043005397
1.333260355
2.211594463
0.1568585028
0.1518411134
0.1555459467
0.1538140541
0.1487317632
0.1414417675
0.1343500013
0.1351938784
0.1567377293
0.1915770796
0.1781912788
0.0742940043
0.07465587429
0.08467052046
0.116333858
0.2109645807
0.4530950414
0.8244489285
1.150084507
1.42999338
1.650934261
1.806403187
1.953980256
1.916985202
1.454318627
1.173065199
1.033848256
1.028034748
1.087485705
0.9946764639
0.7161504564
0.7539048072
1.269206642
0.1505566943
0.1428424526
0.1443616483
0.141215387
0.1339265915
0.1231367291
0.1099528577
0.09768487612
0.09351764122
0.09894321474
0.09420992779
0.06685277163
0.08210492084
0.1342316807
0.2708515263
0.5460114551
0.9197368436
1.291343403
1.719796303
2.134929027
2.462403995
2.735206252
3.0197648
3.044982234
2.253130327
1.609401942
1.262157695
1.16427534
1.229206932
1.159509325
0.9281636039
0.6919001923
0.7213915107
0.1403324171
0.1300165638
0.1292358173
0.1241982706
0.1154898117
0.1028986894
0.08857644921
0.07563180674
0.06778865428
0.0666245327
0.06942919351
0.08330254562
0.1496487054
0.3105701025
0.5806219109
0.9077915366
1.251183088
1.689475286
2.200934604
2.688728806
3.127141827
3.598379714
4.116482686
4.267107853
3.283899462
2.26704668
1.606847809
1.280928143
1.214884047
1.174232379
1.018033315
0.7924315062
0.6312463622
0.1230564652
0.1096135995
0.107413598
0.1003743936
0.09266257509
0.08116473949
0.06956726364
0.06090344446
0.05695625707
0.05962826472
0.07500465964
0.1254458432
0.2496663043
0.4610502843
0.7214859532
1.000699264
1.362053215
1.842256635
2.402872231
2.990031082
3.623703329
4.34905923
5.051474486
5.270489032
4.393997092
3.167563213
2.085275023
1.468916419
1.221151798
1.127618581
1.00337512
0.8333264263
0.6683156487
0.09367476573
0.07103354069
0.0791843176
0.07446302584
0.07043946461
0.06241805189
0.05528177965
0.05179149666
0.0528606878
0.06154433928
0.08797566164
0.1556473963
0.2904978147
0.4910389347
0.7266610806
0.9914799
1.341600707
1.805707509
2.370144233
3.019391418
3.781856305
4.654868641
5.429933884
5.707148387
4.855098626
3.655520316
2.503733768
1.711678419
1.286267381
1.092344156
0.9582746396
0.8205079107
0.6836092085
0.05577056965
0.06686721677
0.06260249194
0.05972986359
0.05524384832
0.05004551453
0.04680682582
0.04737546983
0.05262291753
0.06644799424
0.09904712167
0.1681102749
0.2898938659
0.464369177
0.674886313
0.9142243691
1.221186844
1.624730977
2.132945346
2.756295549
3.520513304
4.393601343
5.168214189
5.492372587
4.65886322
3.521461155
2.462015103
1.714502202
1.280650286
1.053656447
0.9100729811
0.7870926649
0.6707373357
0.03435562249
0.04810635445
0.04984398213
0.0500324505
0.04611370456
0.0429954674
0.04267638249
0.04597770075
0.05427217268
0.07186231373
0.1073645102
0.1723135112
0.275888196
0.4196402789
0.5975576695
0.8039211856
1.051813972
1.368387864
1.772525989
2.290006377
2.952952577
3.734998558
4.460069419
4.810014777
3.970161248
2.957077378
2.094775874
1.518911434
1.18435903
0.989915452
0.8566764828
0.7461123149
0.6445393971
0.01744063033
0.0372988596
0.04268579138
0.04275525645
0.0404081732
0.03943241272
0.04107501212
0.04601723469
0.0562857541
0.0764280637
0.1134653124
0.174043858
0.2612038321
0.3748062975
0.5137591928
0.6771402958
0.8675210738
1.094711487
1.376233016
1.743656784
2.238589973
2.86133311
3.487235724
3.842248638
2.994163325
2.193812604
1.604902045
1.2478583
1.038694697
0.9011561577
0.7950394583
0.7019533357
0.612395462
0.01546060895
0.03078478577
0.03582089542
0.03662865569
0.0365580471
0.03735399287
0.03998300603
0.04538308582
0.05604433282
0.07683984549
0.1142157769
0.1719856826
0.247969358
0.337652865
0.4397014779
0.5554584999
0.6862291061
0.8341626713
1.007100321
1.226939898
1.530776266
1.941777423
2.405761018
2.743338856
1.953825338
1.471510292
1.17068244
0.9976088646
0.8870753844
0.8003943161
0.7226852542
0.6482124072
0.5726056399
0.004571117651
0.0127526034
0.02762533079
0.03199330357
0.03467087429
0.03683152428
0.03977334026
0.04506382936
0.05642586004
0.08110920251
0.1273819171
0.1955910943
0.2750514303
0.3548350424
0.4317845068
0.5080704307
0.5861523482
0.6671344906
0.7535556657
0.8556781958
0.9962960671
1.20201543
1.469656856
1.71825861
1.179892216
0.9673610587
0.8600846659
0.7999601973
0.7563036726
0.7151571381
0.6714665246
0.6230522509
0.5672811755
0.1571327723
0.1130795303
0.1062857239
0.1039057965
0.1109710496
0.1311286196
0.1689610199
0.2276263741
0.2628566594
0.2605157328
0.2309273784
0.1870515766
0.1675580558
0.128821123
0.07256793555
0.04303607704
0.03667812406
0.0590277939
0.1273794441
0.2195872187
0.3252059962
0.49904764
0.3404918855
0.1393325181
0.06692824217
0.0317983164
0.009367451426
0.01103933567
0.1877602424
0.1379456784
0.1323766551
0.1375396797
0.1601686022
0.1995333989
0.2725971299
0.4192078532
0.3680377284
0.5839231997
0.6028079736
0.3961459227
0.2700768236
0.163126439
0.1258550375
0.1200330189
0.04437405177
0.0458013522
0.09066668546
0.1725504607
0.3243592879
0.4331943354
0.3405292711
0.1472658008
0.05895841028
0.02306415842
0.007307978447
0.0166776324
0.02345279291
0.02624099155
0.02968028966
0.03465390196
0.2226822823
0.1722449459
0.1747696298
0.1986799253
0.2463063413
0.3263421691
0.8955407553
1.640116385
0.8889577311
1.199300544
1.383720279
1.080161117
0.6760897786
0.3315239694
0.3091926836
1.706042244
0.1930344837
0.04986125565
0.05396180686
0.09849724564
0.09800781668
0.1673205494
0.09592364761
0.04024519245
0.01552358984
0.005464345136
0.01074452967
0.01835166241
0.02251921755
0.02477946687
0.02991675985
0.03724444292
0.2652677324
0.2181445877
0.2334468521
0.2841846841
0.426489509
1.497033613
4.432325703
6.205666845
2.986974239
1.557735683
1.252692193
1.072095135
0.8353772146
0.5899372763
0.4449952624
0.3274704696
0.1409002938
0.0870368999
0.05695022726
0.05053009006
0.0405816226
0.05271800637
0.03299316434
0.01735973175
0.006981648075
0.005963786666
0.01573719132
0.02025336751
0.02583007256
0.02826072955
0.03317443592
0.03994979791
0.04772209702
0.3213281101
0.2853262357
0.2978895774
0.3413500993
0.422798272
0.542724721
1.328722061
2.336106245
1.227877798
1.428142377
1.330801057
1.002558842
0.683094092
0.3488585024
0.1481714035
0.1323021936
0.0732128668
0.05507595602
0.04594945477
0.04094335759
0.04961498249
0.1335946703
0.04962192017
0.02182612834
0.01137723655
0.01464980096
0.02276755189
0.02348784862
0.02557905113
0.03105489566
0.0345551612
0.04362474136
0.0542978133
0.4329404701
0.3861708818
0.4012574243
0.5128108729
0.7583204732
1.108325693
1.419609575
1.296158619
1.086380934
1.021259766
0.5056316351
0.301038422
0.2930262743
0.2099048736
0.1374220378
0.08326825973
0.06609974677
0.06017964001
0.04935636994
0.04168726004
0.06401841754
0.1336286055
0.08031484937
0.0268451787
0.01725770154
0.02233948633
0.03044974896
0.0259104545
0.02564591445
0.03489461413
0.0388590324
0.04909956061
0.06183460647
0.4568903078
0.3692824865
0.4150900809
0.5494227176
0.7539019393
0.9625082667
1.240776824
1.110948189
0.7941056493
0.4835042185
0.2389619552
0.2443018728
0.2061310594
0.1518621924
0.08925267401
0.07408791814
0.06664584741
0.06416685596
0.04935799129
0.0396295784
0.03882483021
0.05603399742
0.02834544474
0.02471925015
0.02462638712
0.02930312799
0.03520697108
0.02938132494
0.02537500767
0.02850943896
0.03813269527
0.05302620268
0.06653877185
0.4440387038
0.3210599434
0.3461418004
0.4431842196
0.6201787388
0.7668558293
0.8814655229
0.6624940681
0.4190985076
0.2779210099
0.2208582763
0.1880080784
0.1026658199
0.08396336632
0.07935588035
0.07641660148
0.07849401769
0.07027028298
0.06764458279
0.04517691383
0.03501052258
0.03786368979
0.03132020366
0.03426344109
0.03530238978
0.02997803529
0.03065264797
0.02879131239
0.03236075936
0.03899476805
0.05204964941
0.07194957679
0.091583238
0.4108629793
0.2810789685
0.2807385454
0.3296372394
0.4391963826
0.5076626499
0.4456103958
0.3228578976
0.2033438019
0.2395958739
0.144558653
0.0998314773
0.08191217132
0.07742265968
0.07855526455
0.08289198012
0.08409243753
0.0947399501
0.07504179396
0.06488127978
0.04879796169
0.04351057286
0.04557536054
0.04873963855
0.04662318887
0.03718891191
0.03086432908
0.03749130914
0.04728468834
0.05843772545
0.07577465177
0.1088226264
0.1813804743
0.3655188279
0.2361981453
0.2221447601
0.2532102419
0.2994679646
0.2967376278
0.2507930074
0.1806770624
0.5244520489
1.148395297
0.3214344095
0.1115098992
0.08674758751
0.08942611262
0.1012408429
0.1135033019
0.1181109715
0.1149247592
0.1101307366
0.1211530003
0.1217944731
0.09726568408
0.06138479863
0.06823525208
0.05849763943
0.05066619484
0.04124188377
0.04783676028
0.06354178427
0.08412923586
0.1336687788
0.2568875814
0.630584174
0.3153706209
0.2006407264
0.1897086796
0.2061915917
0.230305597
0.2170800925
0.2183231304
1.442814551
3.949876795
2.482566502
1.694195055
0.1699999946
0.1123314873
0.1145332675
0.1246099165
0.1289127153
0.1349188709
0.1393496026
0.1574688001
0.2463858808
0.343171947
0.2836235263
0.1960138727
0.1198302029
0.089484445
0.07018805554
0.05447663754
0.04934644146
0.05492275385
0.1039001392
0.176251313
0.2884295607
0.5066204803
0.264025212
0.1741935823
0.1619151735
0.1567217658
0.1579999736
0.150043773
0.1456666316
0.2586157322
0.9047974178
1.303792669
0.2106876194
0.1065889613
0.1016045643
0.1105316792
0.1232877683
0.1373503017
0.1487854971
0.146721306
0.1642728629
0.2354017563
0.2868010438
0.3292437539
0.256051184
0.1549694557
0.0996022075
0.07767507857
0.07019247198
0.07017543708
0.07831378864
0.124203875
0.1752004744
0.2495485655
0.3560377998
0.2145243873
0.1461969837
0.1389172417
0.1507213362
0.1728346605
0.1640820841
0.1504142885
0.1566044685
0.1843375139
0.2404148469
0.144199116
0.1134916508
0.1016098207
0.1054185382
0.1171604116
0.1273596564
0.1323886317
0.1290140157
0.1502777832
0.219744031
0.2830307222
0.3407283101
0.3212368085
0.1764746457
0.1080932748
0.07570460808
0.08293410695
0.09561758786
0.1070142238
0.1392474059
0.1946290459
0.2795176265
0.3828720877
0.1686431131
0.1287070765
0.1485353564
0.1812625603
0.1939843788
0.1975084242
0.2024476572
0.206040441
0.224922904
0.2445617502
0.3116964453
0.3019523822
0.1131479894
0.08486578763
0.09174322048
0.101913412
0.1136845903
0.1320553335
0.1851661309
0.2755968701
0.3619468603
0.4220387417
0.433599503
0.1883734331
0.1190138252
0.08146335179
0.09227946068
0.1208593186
0.1551386101
0.2164148349
0.3434590139
0.5781383397
0.8027183044
0.1432421883
0.1280383188
0.1571543789
0.1750680343
0.1806011861
0.1836237642
0.1987682193
0.2514356083
0.4323173318
0.8291198703
1.200751592
1.184680728
0.4116755556
0.09254484783
0.08584731329
0.09868986018
0.1063409047
0.1235959108
0.1645827704
0.2620976959
0.389934412
0.4751352778
0.3864714111
0.1717259557
0.1260853801
0.0952563137
0.1050673017
0.1420993061
0.2028602002
0.326413106
0.6270468378
1.217856226
1.719729864
0.1494383134
0.1329407371
0.1486118751
0.1584898198
0.1705882966
0.1882317784
0.2236617957
0.3371710056
0.6612417927
1.155159701
1.43591139
1.368068318
0.4903063199
0.1346219474
0.09100536778
0.0960151989
0.108838215
0.118279782
0.1335782243
0.1694700638
0.2648980146
0.3523701995
0.1914315125
0.1337855564
0.1201266232
0.1164064619
0.1241607905
0.157127547
0.2309485553
0.388652407
0.8093224644
1.679243718
2.483490404
0.1637077096
0.1366270395
0.136121067
0.1392597968
0.1479106545
0.1617223696
0.1922898853
0.2931965316
0.6101748003
1.100665623
1.29395738
1.057323416
0.3115725113
0.1235157999
0.09275908232
0.09716058262
0.1110911343
0.1204195146
0.1327559148
0.1270703458
0.1438739033
0.185366545
0.1566239508
0.1718445137
0.1677962967
0.1581042572
0.155216294
0.1767267765
0.2480038307
0.3706496829
0.676304019
1.568991751
2.816144966
0.1664876398
0.1386254203
0.1244645259
0.1226901157
0.1264913577
0.1344228943
0.1534920023
0.1962479699
0.3430062032
0.6322927581
0.6764959149
0.4390247133
0.1711111841
0.105242334
0.0999905839
0.1052504869
0.1072504956
0.1083503728
0.1188808345
0.1302568368
0.1457897803
0.1903458915
0.2436843387
0.2550279718
0.2417346636
0.2316235073
0.2298534657
0.2344924025
0.2619738303
0.361515298
0.5173905799
1.178968575
2.560612119
0.1686177372
0.1294263104
0.115040296
0.1091281838
0.1078297035
0.1096188537
0.1206134239
0.1415099624
0.1811006831
0.2667496769
0.2509164457
0.1747891342
0.1108679819
0.0852122378
0.08772509902
0.0944151769
0.0987831284
0.103663264
0.1228324987
0.1805070642
0.2638289855
0.3330909449
0.3786703783
0.372422016
0.3535644809
0.3486962036
0.3581592647
0.3769022614
0.4114908886
0.4596727402
0.4748623438
0.6473037949
1.531275717
0.1718138892
0.1235683367
0.1096578058
0.09837285622
0.09207689086
0.08816780498
0.09114836843
0.1005960846
0.1103519643
0.1207257199
0.111041066
0.09322068952
0.07817552559
0.06870527199
0.0752066247
0.08896038677
0.1138848231
0.1736028321
0.2835944477
0.3923030018
0.4905899705
0.5629896186
0.597066474
0.5837715825
0.5515363316
0.532249563
0.5330090058
0.5574794314
0.5739568954
0.617536592
0.550813793
0.5199762896
0.6863333844
0.16953883
0.1197228394
0.1030160105
0.08816947168
0.07948594796
0.07265721317
0.07102529891
0.07244738239
0.07329779932
0.0723033759
0.06711508634
0.06203278142
0.06098910118
0.06351223641
0.08054255104
0.1228301615
0.2104019658
0.3418203177
0.5036911597
0.7217168565
0.8771663531
0.9611884183
1.00611682
0.9618392104
0.8478851912
0.7603233249
0.7177966478
0.7050824989
0.6816223399
0.6793050421
0.6513854328
0.520880262
0.4815686196
0.1616931531
0.1117161335
0.09305738545
0.08121036683
0.07122191919
0.06261388415
0.05811153676
0.0551990027
0.05267837514
0.05137257398
0.05084229621
0.05135610102
0.05953040437
0.08074140237
0.1310275415
0.2220794549
0.3550996882
0.5783448338
0.8581310931
1.098962002
1.28620589
1.441992785
1.545252153
1.502464031
1.291229087
1.053564216
0.8876266152
0.8108156102
0.7557832296
0.7102121984
0.657760089
0.5448394357
0.428850222
0.1475416065
0.1006239993
0.08466261666
0.07492428894
0.06344911649
0.05386359994
0.04799932476
0.04417489356
0.04205197804
0.04236542609
0.04550910172
0.05404542226
0.07716229454
0.123406309
0.1928809033
0.2938829422
0.4939176909
0.7682088547
1.06304881
1.325779011
1.568540004
1.8149541
1.991186275
1.965895842
1.713837672
1.351274033
1.036880121
0.8845556286
0.7979843748
0.7194030162
0.6362425529
0.5310828045
0.4232302629
0.1284858085
0.08967136182
0.07670172993
0.0734371838
0.05622173669
0.04540477766
0.03940775323
0.03690969407
0.0367696353
0.03936757557
0.04620358614
0.06213848788
0.09467009906
0.1434105098
0.2084534526
0.3421569135
0.5610315724
0.8440569555
1.14625399
1.435234504
1.723415458
2.016059935
2.223399951
2.22364019
1.980922397
1.560892642
1.140488733
0.9189738416
0.8005608836
0.7026474287
0.6038747581
0.5057026201
0.4184040163
0.09982826075
0.1081819554
0.07021354253
0.06269682923
0.0515081665
0.03851559459
0.0336057769
0.03270800778
0.03439346994
0.03864124462
0.04757885004
0.06607610677
0.09911036235
0.1453185769
0.2130413164
0.3471825063
0.5570831732
0.8264253864
1.125643814
1.430495406
1.742437873
2.056436275
2.288932638
2.315825262
2.082250183
1.634696909
1.184409026
0.9304904181
0.7869143695
0.676206534
0.5732172046
0.4866598676
0.4098783172
0.05194996667
0.09110575875
0.09262874233
0.06122628707
0.0446719343
0.03418847434
0.03088719733
0.03111985603
0.0339365335
0.03912928851
0.04888101593
0.06731247132
0.09837280833
0.1423704591
0.2054324774
0.3228650297
0.5019184457
0.7334881044
1.002704342
1.295813468
1.61018973
1.937233046
2.194954487
2.246003959
2.013465516
1.559464902
1.146811914
0.9037252425
0.7555502964
0.6446327588
0.5483541403
0.4751258636
0.4039584538
0.03794519818
0.07138511581
0.07027008917
0.0466305035
0.03934724903
0.03275869962
0.0306046256
0.03150585401
0.03500914128
0.04116377533
0.05211322026
0.07136664225
0.1021857464
0.1457250358
0.2043247064
0.2944261271
0.4347671344
0.6146961272
0.8313264335
1.079953226
1.359185545
1.66280483
1.92106501
1.990955159
1.762347241
1.353005676
1.035794095
0.8407718932
0.7113232666
0.612452174
0.5303838392
0.465159198
0.4064161816
0.007960472521
0.04156523836
0.04755805289
0.04089488499
0.03777214069
0.03383513067
0.03270166041
0.03414444101
0.03851739191
0.04659912061
0.06080714402
0.08406037132
0.1181620393
0.163363205
0.2203638652
0.2933255324
0.3897894624
0.515643536
0.677198701
0.8674790665
1.087293534
1.33369306
1.558759883
1.638655358
1.425390695
1.120850729
0.9147006061
0.7792894863
0.6792640402
0.5967761987
0.526970535
0.4705067991
0.4167393206
0.006595020674
0.02710294666
0.03584046545
0.03565500232
0.03599520436
0.03519777057
0.03566362563
0.03802061982
0.04358972951
0.05457243512
0.07456823431
0.1065776516
0.1503050734
0.2025336381
0.2610178294
0.3268553946
0.4037294061
0.4964991504
0.6106755777
0.7490893289
0.9113320005
1.087602965
1.231800699
1.29982201
1.15464127
0.9863483056
0.8662070166
0.7772723393
0.7012936626
0.6297907068
0.562657115
0.5019628833
0.4431398956
0.004075173424
0.004506355932
0.02567633033
0.03209420597
0.03720053456
0.04017337063
0.04293272395
0.04709221318
0.05579126493
0.07506453109
0.1132758612
0.1738876473
0.2491562009
0.3277942182
0.4057610849
0.4863375009
0.5746548525
0.6739573271
0.7853157118
0.9100401083
1.05398959
1.228223085
1.424436226
1.553933458
1.328884808
1.201513599
1.131865794
1.068581389
0.9951194009
0.9083041353
0.8123456021
0.7135246624
0.615265451
0.1545368698
0.1062514099
0.09556295634
0.0906657636
0.09196541262
0.1018240013
0.123366092
0.1556555939
0.165625629
0.1582632423
0.1449275971
0.1290219295
0.1041650341
0.07254780967
0.04620905716
0.06137887835
0.0503264371
0.08134617537
0.1585429817
0.2485659338
0.363948114
0.4819471042
0.3392591801
0.1198425137
0.04181239972
0.01734764077
0.007596695201
0.01117271322
0.01776692186
0.1775353075
0.1297583206
0.1140389902
0.1043352
0.1057616146
0.1292122163
0.2090016349
0.3962930576
0.3110125943
0.3647971777
0.4318352152
0.4003482686
0.298480034
0.1784264241
0.1252818647
0.4628962859
0.07239923356
0.05101203729
0.09613113996
0.1936535461
0.4332515626
0.4405509595
0.3902731667
0.1465288696
0.04200430408
0.01414515269
0.007314700503
0.01372808572
0.01988173675
0.02363373412
0.02941016067
0.03695978184
0.1989516627
0.1620054096
0.1433363758
0.1317149877
0.1453140294
0.2563532148
0.894873956
2.708776037
1.535606638
1.355279468
1.433513114
1.150691933
0.7715576052
0.5198218654
0.9740607486
2.109024966
0.6552076524
0.1079162848
0.05265796129
0.08203652609
0.1222318166
0.2137552647
0.1286409097
0.04043865349
0.01189573148
0.005457026856
0.007414014311
0.01394547648
0.02255669295
0.02297840243
0.03063757764
0.04195212157
0.2222416381
0.2073996428
0.1938853144
0.1990487274
0.3456780396
1.567148474
5.041827553
4.342280744
4.175600999
1.597343555
1.218502069
1.053634713
0.8521933985
0.6671489811
0.5902591197
0.7516182264
0.1597467334
0.06931907705
0.04427920453
0.04011099858
0.04243865935
0.07114105879
0.04166536371
0.019048669
0.007988118717
0.005909318151
0.01084664982
0.01624110103
0.02182445755
0.02942653168
0.0343060409
0.04141002365
0.049409903
0.2474927807
0.2637577554
0.2729882966
0.3169809369
0.42286983
0.6241240597
1.386277109
2.998698073
1.165297175
1.180302776
1.38610582
1.089102933
0.7801954277
0.4648339088
0.2777269794
0.1618889474
0.06506037555
0.04518164569
0.0382964508
0.03820450011
0.1044579509
0.2534767145
0.1437521885
0.03547615687
0.01135191981
0.01231260716
0.02056827728
0.01980558647
0.02753505625
0.0329297772
0.03519916471
0.04650694332
0.05908198445
0.3848742459
0.3349639767
0.3670564372
0.4892676256
0.6763031117
0.8294056115
0.9017898708
1.09625518
0.5600668716
0.4627503849
0.3395394575
0.2295479609
0.2229553905
0.1527945491
0.09547639614
0.06250957253
0.05112080038
0.04872491166
0.04031815273
0.0394468108
0.1078570221
0.1729217506
0.1313324021
0.03031594508
0.01695667923
0.02693224882
0.03495374536
0.02580084685
0.02211710307
0.03054851659
0.03651734562
0.05021106333
0.06520564584
0.3729170947
0.3261727995
0.3634235545
0.4975249738
0.6875721413
0.8235449373
0.8732354628
0.8129056163
0.3836691969
0.1900078836
0.1231264317
0.1144107125
0.1044606153
0.09173640968
0.07118289677
0.05836527181
0.05208459686
0.06290440621
0.03600267557
0.03112417537
0.04196078063
0.07577754298
0.03208545995
0.02620683661
0.03055466677
0.03940709318
0.04436971725
0.036388891
0.02535857989
0.02485430273
0.03259792083
0.0477349148
0.06290944585
0.3540737086
0.2766848139
0.2710665169
0.3247963067
0.4896093449
0.6539428013
0.6884371363
0.4861819966
0.201410974
0.1281050468
0.1030916213
0.09822307444
0.0713968526
0.06548364234
0.05618103973
0.05834503734
0.06997758247
0.04926798199
0.04741579483
0.03027715262
0.02744268669
0.02650240073
0.02692688266
0.0389997264
0.04942106929
0.0399779061
0.0414010933
0.0215236724
0.0221099306
0.02693390376
0.03971095519
0.06150884989
0.09039456758
0.3196228166
0.2370343753
0.207494776
0.1780786545
0.2113356874
0.2576869001
0.281186835
0.1931123804
0.1188182513
0.1705042434
0.1494250714
0.07123768332
0.05768279531
0.05048172161
0.05169997743
0.06973249209
0.07696899496
0.07629083776
0.05879686353
0.0493543899
0.0462648636
0.0433645472
0.04724144763
0.05485829687