/*--------------------------------*- C++ -*----------------------------------*\
  =========                 |
  \\      /  F ield         | OpenFOAM: The Open Source CFD Toolbox
   \\    /   O peration     | Website:  https://openfoam.org
    \\  /    A nd           | Version:  8
     \\/     M anipulation  |
\*---------------------------------------------------------------------------*/
FoamFile
{
    version     2.0;
    format      ascii;
    class       volScalarField;
    location    "0.8";
    object      htcConv;
}
// * * * * * * * * * * * * * * * * * * * * * * * * * * * * * * * * * * * * * //

dimensions      [1 0 -1 1 0 0 0];

internalField   uniform 0;

boundaryField
{
    walls
    {
        type            calculated;
        value           uniform 0;
    }
    region0_to_wallFilmRegion_wallFilmFace
    {
        type            convectiveHeatTransfer;
        L               1;
        value           nonuniform List<scalar> 
983
(
2.682682499
2.760744162
2.720648351
2.53666789
2.245552323
2.042348106
2.328988987
2.610911951
2.85593171
2.947934697
2.949282031
2.885513619
2.758422533
2.454713002
2.105849745
2.03542327
2.016109559
1.697088066
2.123137098
2.363448524
2.464612903
2.509316455
2.569706087
2.603311921
2.371420399
1.706731224
1.742468908
1.662000297
1.466565552
1.600063709
2.614197906
2.713920377
2.709787989
2.56084138
2.159990561
2.098858879
2.619104438
2.670052338
2.747416316
2.771055749
2.743924079
2.643918185
2.465001802
2.199308524
1.980595455
2.126432751
2.209604694
2.352161107
2.512001796
2.579590732
2.590526034
2.582255952
2.532922683
2.377192097
1.182953995
1.907428606
1.979085576
1.82146997
1.781068677
1.84155158
2.649517095
2.821282688
2.927450739
2.910579186
2.321336673
2.374832867
2.935160946
2.908060717
2.869082344
2.820588921
2.762905334
2.588030294
2.31138245
2.09160518
2.16766485
2.428254147
2.523702536
2.606896974
2.703992327
2.749798901
2.750292385
2.707731021
2.604668786
2.345164164
1.880481011
1.654400103
2.01739681
2.123372828
2.086321268
2.011248736
2.703365936
2.974247508
3.224258333
3.399840608
2.432557825
2.553645813
3.093467026
3.105741227
3.123222252
2.992476871
2.903881193
2.598188555
2.226262434
2.148787477
2.268804927
2.559288044
2.655166677
2.721039606
2.774069155
2.806089537
2.809343519
2.754736246
2.610851582
2.270395783
1.739405465
1.93501902
2.192867614
2.265046336
2.138939118
2.091709246
2.834502185
3.186792599
3.571827664
4.113207633
2.617873183
2.694225957
3.133532995
3.157065241
3.236124663
3.016495154
3.01698005
2.650243395
2.246142724
2.167018553
2.243447337
2.678371299
2.797369568
2.847490752
2.864464305
2.866890919
2.851566679
2.790464816
2.663033587
2.413305184
2.088780176
2.150847487
2.26458428
2.277299289
2.177555969
2.167423013
2.978182905
3.362886371
4.000515068
4.912862546
3.214678809
2.642348369
2.983493804
3.065636516
3.158647277
2.713887849
3.165790706
2.806779227
2.373213243
2.166000152
2.176442174
2.891348605
3.040014044
3.055597794
3.013792467
2.954519898
2.890264025
2.804101468
2.680415461
2.507228765
2.353735013
2.309985372
2.309751164
2.302579327
2.234885294
2.240432291
3.100539599
3.505119781
4.558482998
5.22143759
4.233799022
2.889316777
2.879995013
2.884331698
2.957955034
2.075349349
4.024331661
3.348167347
2.796591877
2.392774834
2.201647867
3.209539667
3.387064574
3.355245832
3.250606737
3.116544808
2.976531809
2.843819651
2.709269318
2.565369182
2.441416532
2.39161606
2.378432291
2.379506908
2.331649868
2.32743816
3.168350739
3.602233764
4.408074544
4.963652254
4.171868464
3.345168234
3.361988035
3.106331978
3.207372439
2.624151617
5.307006985
4.220676238
3.10771618
2.625773886
2.355264754
3.502661849
3.70907939
3.685395269
3.525525391
3.328458904
3.121636471
2.928842019
2.765187987
2.626740113
2.524172429
2.476552612
2.45980304
2.46824749
2.433755894
2.422686768
3.210568771
3.540940818
3.615147978
3.339295998
3.374197699
3.32930439
3.359368226
2.90224479
2.734866645
4.018444904
5.962828348
5.009144655
3.203381741
2.400841379
2.573906806
3.662286994
3.855183717
3.914375597
3.769176079
3.520514543
3.265284202
3.023668005
2.823931567
2.679197259
2.590234968
2.557456567
2.551667092
2.573097536
2.551067425
2.554404247
3.388230119
3.659205704
3.682212435
3.159021116
3.568820748
3.592416477
3.48523626
2.857629404
2.207304807
3.163419997
4.77924849
3.116882374
1.992913368
2.15300015
2.866394182
3.667702547
3.789839842
3.912400076
3.813819546
3.586409652
3.314921892
3.051819664
2.835548083
2.698606263
2.640443429
2.640480625
2.657677343
2.696507854
2.689506716
2.740700245
3.214482874
3.451669857
3.40329525
3.290702771
3.359032917
3.444110575
3.241702687
2.608382841
2.288538025
1.825363923
3.007414486
1.699263065
1.755108988
2.299370107
2.826296244
3.644278127
3.766362189
3.832064096
3.59552315
3.283597311
3.061845494
2.872019124
2.722383647
2.673570274
2.702419483
2.75584553
2.798093034
2.849390587
2.855478052
2.970740016
2.953552741
3.215371245
3.152598742
3.070548697
3.155704225
3.238041979
2.881536101
2.416706485
2.124510593
2.107795432
1.72739931
1.679339373
1.435639138
1.495625515
1.431348517
3.049383752
3.177379202
2.958316138
2.381877333
2.350441329
2.484179564
2.544808462
2.58249946
2.713287681
2.843264406
2.931832503
2.981675072
3.031466589
3.041984757
3.201442984
2.668050178
3.028788624
2.941909407
2.885488354
2.959408777
2.972896575
2.455821946
2.095691091
1.788919264
2.06265823
1.496414776
1.884231864
1.708087602
1.989066899
1.574501186
2.378221437
2.692301176
2.531604773
2.695830174
2.761867731
2.707094834
2.634261377
2.678448745
2.897457154
3.062893628
3.150885801
3.190930382
3.226393859
3.227961375
3.392860811
2.367381058
2.810839307
2.736454594
2.743776166
2.749892661
2.560401833
2.210480315
1.944957105
1.936467253
2.124755023
1.880597803
1.984314754
1.95748172
2.075787866
1.899340176
1.691035379
2.26023833
2.407016296
2.493311373
2.612596316
2.626941117
2.63222276
2.814146068
3.112910328
3.282915835
3.362144215
3.390835916
3.408466147
3.38928809
3.530547899
2.044542897
2.307534699
2.168357094
2.569430572
2.351864108
2.026974727
2.066271554
1.948626726
2.09460391
2.124557723
1.958175717
1.994636989
2.057817685
2.215358773
2.139074923
1.991563798
2.229506741
2.227768225
2.35323811
2.535886035
2.570547618
2.675591566
2.988874131
3.296886002
3.448411955
3.527315897
3.553588302
3.557004656
3.510821864
3.615632917
1.888318823
2.381687619
2.29527672
2.706503748
1.930258446
2.094732643
2.193931588
2.214519089
2.12356636
2.110163268
1.952579943
1.972833236
2.163629069
2.370124764
2.393853905
2.260380074
2.299504175
2.124682064
2.166626411
2.373426983
2.502995439
2.773860453
3.147042792
3.377735083
3.524929978
3.618351608
3.66118271
3.662196783
3.586978659
3.651631006
1.760109869
1.917650698
2.647192292
2.399034513
2.072720082
2.16998316
2.388045717
2.702556582
2.223424511
2.163413513
1.930394133
2.078696786
2.3616916
2.583861841
2.64246345
2.543913822
2.424349994
2.213684116
2.128951633
2.315746272
2.555025201
2.921463479
3.190824619
3.375056572
3.537304587
3.656482756
3.712760786
3.723150664
3.617707141
3.640858622
1.582219158
1.740239223
1.987868604
2.290099183
2.134663759
2.339416395
2.932068881
3.431522083
1.613619203
2.132651484
2.036178199
2.30816349
2.56197938
2.756738792
2.797738978
2.686292311
2.456675902
2.268520629
2.095014149
2.358460254
2.681914916
2.966271673
3.14504967
3.302253892
3.492221032
3.64993208
3.728552699
3.746044083
3.60742193
3.586566088
1.583225074
1.707029184
1.824431944
2.219862026
2.105585112
2.299028011
2.455982248
2.54574188
2.487672769
2.421532573
2.367624774
2.46307826
2.588537175
2.732309308
2.808569135
2.714038339
2.399734728
2.235504426
2.133083405
2.47186647
2.784369171
2.923123203
3.019080754
3.166481047
3.399731508
3.609821121
3.71970175
3.739790873
3.564995341
3.496681751
1.624082295
1.634997844
1.736465619
2.140874981
2.078190967
2.235447688
2.504668655
2.497764708
2.412607295
2.570380444
2.512490012
2.484923102
2.455663331
2.561743315
2.676911961
2.624326269
2.334439808
2.079401824
2.177445763
2.542540989
2.793024994
2.814461662
2.828079896
2.976508538
3.275740179
3.548815884
3.696127178
3.720557752
3.503562824
3.381927232
2.003358487
1.921050239
1.266714854
1.818939159
2.022016296
2.039793038
2.036555325
2.351598415
2.522615953
2.835837994
2.484917715
2.410696626
2.307737442
2.384145142
2.521037617
2.492683292
2.304826916
1.961842325
2.249855322
2.627812065
2.773601407
2.683723508
2.609809518
2.759649682
3.143433868
3.472473933
3.656938426
3.688461587
3.430547509
3.244687856
2.564782058
2.469894882
1.956230924
1.517145376
2.191598897
2.399956242
1.342403215
1.754946921
1.694003661
2.289026432
2.425622065
2.384577896
2.202576726
2.304743362
2.513797065
2.384773502
2.016880485
1.525770917
2.301189766
2.722249373
2.79261173
2.612734758
2.434958047
2.578206649
3.033016221
3.381890847
3.593102351
3.634081069
3.348948497
3.072576007
2.439088847
2.232335379
1.910062446
1.838849476
2.112262033
1.914856986
1.710917563
1.865241569
1.399091772
2.057331301
2.434968199
2.501679767
2.348004866
2.275443233
2.263137595
1.782701183
1.758948997
2.255157021
2.592832388
2.852222071
2.833648241
2.621902069
2.40528903
2.539790892
2.977782483
3.298315997
3.517339039
3.568039739
3.279659432
2.873145782
2.313198303
2.057075712
1.849315375
1.929318756
1.966539757
1.926031357
1.796889349
1.786478702
1.587388885
1.872487095
2.411176568
2.489358573
2.344762606
2.189335869
1.979095686
1.670975635
2.145755951
2.357533386
2.604613873
2.74658857
2.686689097
2.490757278
2.334880962
2.542345897
2.968341264
3.255727828
3.460058878
3.509709959
3.212403515
2.704872594
1.938559755
1.829398885
1.836374295
1.863645006
1.862232517
1.727236832
1.365233054
1.352085275
1.531589223
1.840545758
2.301438569
2.289528454
1.984756929
1.770366382
1.505433717
1.938601261
2.119177423
2.297363789
2.462061372
2.488184487
2.363006159
2.112034457
1.975466726
2.335669949
2.827852806
3.128096021
3.293469978
3.287424555
2.929387753
2.552670765
1.64400451
1.674671906
1.716274036
1.714707464
1.806805121
1.781186122
1.660318702
1.803304715
1.890882413
2.065305828
2.276702563
2.121136571
1.565381445
1.896991858
1.906993261
2.069976148
2.181396394
2.254128545
2.355109119
2.303315798
2.113918472
1.789644805
1.672548325
2.165249361
2.733784371
3.052065891
3.198004893
3.186438203
2.84876072
2.574006366
1.588765983
1.65552618
1.751809078
1.86320388
1.933536941
1.806990326
1.788208628
1.947727818
2.163287489
2.118678859
1.990540281
2.015578989
2.14238603
2.270166416
2.29020683
2.360151747
2.327417136
2.230329589
2.238056921
2.121947684
1.85095192
1.433276029
1.511778884
2.087283768
2.671673551
2.994582031
3.122546423
3.1182426
2.846644018
2.66654461
1.67464924
1.837240819
1.979710319
2.077976809
1.937164815
1.75040191
1.099883295
2.289276465
2.447856722
2.39857074
2.276665996
2.41018887
2.582488894
2.674275171
2.688169252
2.639585522
2.606765069
2.348176087
2.12308195
1.868389317
1.515792392
1.023497479
1.51946697
2.105750013
2.62639961
2.936728648
3.060017343
3.074270321
2.872467203
2.767402043
2.087823845
2.226575318
2.113395055
1.857140059
1.802984047
2.073226301
2.506566365
2.652813584
2.675763621
2.549537541
2.668402597
2.83003396
2.9150064
2.939003783
2.883409594
2.93620583
2.696801248
2.2143636
1.481809542
1.314761966
1.539329566
1.817851128
2.247214055
2.645495359
2.917959295
3.03846214
3.072562207
2.927868787
2.877717423
2.191592573
2.186051829
2.071160866
1.944715743
1.766560322
2.122958356
2.554408991
2.740630024
2.835634309
2.746333495
2.730003646
2.928109438
3.036859564
3.085975426
3.091995646
3.266498988
3.114251534
2.715296603
1.820243176
1.465340557
1.928456749
2.231271461
2.495260131
2.753652387
2.959361818
3.063604756
3.105252863
2.996289653
2.982197183
2.432742977
2.442554326
2.296413998
2.170786869
2.094068626
2.184130628
2.488793755
2.764376396
2.919791245
2.872097429
2.79914209
2.945962836
3.041130051
3.096077012
3.192969133
3.491820585
3.54088884
3.315598205
2.784259363
2.110998529
2.193598473
2.479932762
2.696217056
2.88033049
3.029835568
3.112821885
3.147299519
3.055611884
3.066468198
2.571841687
2.484532251
2.177690903
2.198427272
2.120241987
2.002252181
2.333992048
2.726435632
2.946466075
3.033362511
2.83687921
2.860996584
2.884838777
2.926924264
3.150418879
3.527605575
3.729231729
3.849486847
3.518357996
3.023170233
2.596704941
2.657028458
2.833710956
2.975885528
3.088658937
3.154811392
3.174473049
3.089102712
3.122790298
2.340063967
2.098427861
1.720626037
1.907911076
2.242588354
2.679047786
2.997001717
3.435011335
2.88045277
2.633595472
2.520812812
2.61637621
2.998333989
3.429666616
3.728646779
4.139741896
4.07788947
3.614285798
3.164184585
2.942774313
2.957773745
3.046824417
3.132091555
3.169224734
3.168785876
3.084227427
3.145739618
)
;
    }
    region0_to_wallFilmRegion_mirrorFace
    {
        type            convectiveHeatTransfer;
        L               1;
        value           nonuniform List<scalar> 
428
(
3.781569033
4.015080428
4.196855911
4.195880556
4.177344985
4.113469961
3.937997291
3.803687039
4.005443509
4.086312319
4.323964748
4.502460448
4.605278887
4.70682359
4.683079454
4.51149208
4.467727336
4.545239313
4.170099623
4.388174251
4.563881506
4.720968219
4.863696881
4.889420299
4.801418747
4.786311437
4.832074912
3.972444058
3.786537285
3.94049471
4.407608148
4.946756588
4.900369988
4.133106104
4.371831897
4.105675642
2.357721017
2.133262972
2.224089157
2.430708344
2.28893753
2.325409828
2.394339132
2.328082214
2.346204816
2.752957945
2.504194013
2.895340027
3.113045034
2.878353312
3.317084169
3.77511243
3.37038124
3.161163466
3.103428101
3.592156813
3.177197896
3.428049334
3.763722241
3.887199932
2.082983571
2.138917822
1.896459878
2.09358459
1.919151473
1.694680562
1.854922833
1.596257228
1.832304902
1.926976095
2.191211941
1.982050167
1.705240129
1.90134553
1.778252189
1.572380397
1.70635138
1.634215483
1.434027974
1.565996983
1.501568352
1.596613222
1.862406691
1.166305306
1.340157164
1.184683645
1.427735676
1.811163411
1.834369791
2.033418833
1.997041611
2.305017435
2.106922616
1.847673726
2.004877041
1.889758609
1.708461308
1.815034138
1.751705396
1.593899654
1.699626203
1.657146016
1.256741013
1.566541761
1.6152751
1.884780355
1.81418499
2.081047095
2.238564262
2.205995997
2.265865863
2.228954651
2.33064073
2.221743661
1.963977284
2.018058983
1.85540485
1.851544751
1.808001781
1.753247233
1.804172695
1.711192124
1.688537711
2.170973833
2.017963707
2.127206181
2.296815616
2.211410188
2.273181065
2.40869043
2.322905392
2.525242423
2.088821601
1.927256704
2.050779028
2.245520046
2.141231451
2.250646035
2.643348591
2.449105057
2.818346516
2.021119727
1.897675689
2.059259766
2.375415214
2.283649426
2.662878626
2.281182966
3.080482221
2.278410999
2.183446187
2.224685271
1.761610569
2.046656243
1.814041707
1.64054059
1.503162243
2.408993036
2.02357427
1.583429664
1.643087868
2.233691915
1.961471371
1.776688463
1.647618739
2.413948367
1.766093794
1.520759189
2.121552391
2.330005936
2.088933952
1.896943775
1.821179001
2.381723604
1.98213186
2.382604464
2.44096313
2.426183987
2.155763432
2.005118845
2.069267651
2.069865916
2.246829568
2.318405285
2.668754603
1.972706098
2.175571564
2.342830812
3.103085433
1.88769032
2.144261707
2.699042512
3.673707468
4.129215494
4.062680186
4.32364263
4.509892668
4.389044666
4.70024327
4.8789334
4.831948251
4.99799997
4.95223044
4.954591598
4.938006959
4.943678062
4.883451481
2.610354276
3.640691469
3.957122513
4.10018851
4.166652249
5.432737384
5.648318888
5.037740503
4.709427129
3.690985601
3.674677499
3.764404444
3.718248683
3.401973407
2.724395111
2.624943193
2.872899496
2.443050662
3.278899247
2.850236622
3.927818766
3.95291582
4.074650363
2.449592343
2.676497911
2.516279726
4.122869489
4.176551585
4.279271866
2.398563179
2.424283102
2.4291071
4.210491756
4.353270169
4.387068629
2.516189628
2.481607876
2.177634322
4.177245669
4.402514865
4.42279242
2.001040465
2.273328815
1.946046319
4.181264191
4.455054645
4.466706571
2.045067134
1.772989282
1.822450584
4.002605037
4.408226657
4.288432117
2.167918506
1.758412911
1.310051449
3.867730074
4.206761912
4.125951289
3.828646963
4.113658951
4.103490744
4.240276485
4.212559629
4.160147542
4.288948962
4.423967013
4.399854276
4.49555861
4.558069198
4.577265057
4.648084166
4.65617288
4.715930695
4.784926363
4.727296575
4.846059033
4.874363959
4.582378016
4.847651906
4.772780245
4.472177805
4.718149269
4.692928464
4.485354345
4.692216623
4.7121426
4.607350023
4.751036584
4.798102148
4.123321756
4.205023433
4.285293892
4.399228488
4.479625618
4.304894977
4.490404195
4.64305932
4.577930317
4.667587068
4.754490124
4.798226077
4.898570276
4.828269212
4.879296528
4.901611162
4.863122557
4.838401516
4.849106664
4.838330826
4.784975772
4.803888489
4.83349578
4.842433226
4.856214605
4.875338395
4.867006458
4.014067144
4.104833483
4.009013262
4.200780065
4.29233675
4.292756331
4.404755915
4.595152102
4.53689906
4.931753019
4.974107513
5.223114145
5.092765666
4.934617469
5.088229365
5.223929175
4.919055437
4.973359773
4.834270195
4.8695325
4.786567404
4.219455721
4.41773007
4.603761046
4.489914804
4.793371632
4.707692183
4.950702352
4.951612281
4.948602997
4.976628506
4.940277544
4.902439424
4.950122911
3.748392209
3.919731897
3.820680317
3.84278174
3.972337289
3.871814915
4.059863548
3.940185002
4.041219227
4.201782845
4.491945105
4.471857223
4.840709578
5.114657675
5.195983859
5.474222364
5.434076353
5.4773191
5.185350689
2.864233938
5.323267006
5.385111269
7.583356212
5.221970912
4.834905523
4.647635771
4.031289284
4.454163313
4.34859992
3.891341113
4.191750287
4.303062435
4.704829259
4.760657422
5.061824983
5.272276239
5.668185678
4.898450655
4.61669887
3.886875672
3.738685011
3.655890451
3.71811384
3.728100993
3.71608367
3.772716926
3.845996979
4.115987398
3.782753503
3.96389369
4.134954643
4.731587759
3.568384324
4.321969369
4.449507575
4.997829985
3.076301654
4.432907823
4.096119998
4.49893233
2.463745308
3.737312101
3.446108862
2.752174801
3.523166149
3.483986535
4.222966318
2.96737736
3.488657328
3.50424132
)
;
    }
    procBoundary0to1
    {
        type            processor;
        value           uniform 0;
    }
    procBoundary0to2
    {
        type            processor;
        value           uniform 0;
    }
    procBoundary0to3
    {
        type            processor;
        value           uniform 0;
    }
}


// ************************************************************************* //
