/*--------------------------------*- C++ -*----------------------------------*\
  =========                 |
  \\      /  F ield         | OpenFOAM: The Open Source CFD Toolbox
   \\    /   O peration     | Website:  https://openfoam.org
    \\  /    A nd           | Version:  8
     \\/     M anipulation  |
\*---------------------------------------------------------------------------*/
FoamFile
{
    version     2.0;
    format      ascii;
    class       volScalarField;
    location    "0.8";
    object      nut;
}
// * * * * * * * * * * * * * * * * * * * * * * * * * * * * * * * * * * * * * //

dimensions      [0 2 -1 0 0 0 0];

internalField   nonuniform List<scalar> 
67286
(
0.0001387131101
0.0001535230387
0.0001528666021
0.0001499884384
0.0001555472671
0.0001748914652
0.0002047182908
0.0002376207886
0.0002644844149
0.000283700524
0.0002845873683
0.0002626099749
0.0002371062322
0.0002036098293
0.0001539359825
0.0001115738864
0.0001024041366
0.0001278802922
0.0001685509252
0.000198420489
0.0002241856433
0.0002688223255
0.0002320414626
0.0001932003438
0.0001574640879
0.0001205589
7.770712473e-05
7.579466683e-05
0.0001496307589
0.0001673145051
0.0001685425577
0.0001717497175
0.000189986341
0.0002195905383
0.0002498388456
0.0002763847023
0.0002920776935
0.0003086186462
0.0003118322688
0.0002861437584
0.000262264195
0.0002347719435
0.0001980177831
0.0001500909575
0.0001104218297
0.0001125807013
0.0001492914137
0.0001792540246
0.0002022642092
0.0002495036481
0.0002148574389
0.00017420447
0.0001362309179
9.856898621e-05
0.0003152118639
8.047810431e-05
8.678765974e-05
9.035403307e-05
9.585487196e-05
0.0001012997457
0.0001604322746
0.0001811462207
0.0001856078189
0.0001977494571
0.0002250531069
0.000255840387
0.0002873371874
0.000318873959
0.0003120840333
0.0003316111351
0.0003398731841
0.0003149582433
0.0002826069065
0.0002467815938
0.0002148793141
0.0002020116135
0.0001368594823
0.0001094218635
0.0001201981752
0.0001493058808
0.0001441429865
0.0001869059199
0.000157168998
0.0001204293898
8.783255026e-05
0.000284724249
7.805033027e-05
8.487973777e-05
8.898833523e-05
9.193520659e-05
9.76782344e-05
0.0001038599491
0.0001707629577
0.0001949023998
0.0002023449411
0.0002199228775
0.0002524825809
0.0002982856945
0.0003786007249
0.000442748022
0.0003523772443
0.0003467505084
0.0003421212974
0.000326982327
0.0003031052854
0.0002738812854
0.0002459929683
0.0002172637138
0.000188722548
0.0001533288035
0.0001242118225
0.000114426478
0.0001021188652
0.0001208783663
9.77970489e-05
8.285119541e-05
0.0002957175321
0.0003159362447
8.34809615e-05
8.697872405e-05
8.987064071e-05
9.349522059e-05
9.94242462e-05
0.0001061149799
0.0001133744912
0.0001805678116
0.0002089114823
0.0002135902781
0.000216592518
0.0002258767537
0.0002468536165
0.0002901467359
0.0003321034853
0.0003278475634
0.0003413735727
0.0003341898264
0.0003084182277
0.000281555443
0.0002498129931
0.000222456783
0.0001827207257
0.000141244046
0.0001186750781
0.0001088807332
0.0001060807864
0.0001124702586
0.0001370883367
0.0001092383805
9.10754424e-05
7.758389498e-05
8.131034329e-05
8.7800566e-05
8.759342254e-05
8.959172686e-05
9.429317676e-05
0.0001007852889
0.0001087539334
0.0001164589663
0.0001901110667
0.000225736991
0.0002330296559
0.0002430972543
0.0002574907066
0.0002670692838
0.0002759822035
0.0002984070694
0.0003128560089
0.000323694518
0.0003068513662
0.0002844990626
0.0002632974309
0.0002341686426
0.0001933324609
0.0001455712722
0.0001291262204
0.0001235836446
0.0001183491762
0.0001183062817
0.0001286439295
0.0001698891735
0.0001264325769
9.991211268e-05
8.208980454e-05
8.544797622e-05
9.186165915e-05
8.728740477e-05
8.908787518e-05
9.565147923e-05
0.0001028479228
0.0001111152687
0.0001168166872
0.0002043753721
0.0002416694305
0.0002592582812
0.000276832957
0.0002925846657
0.0002976255845
0.0002840947021
0.0002672211564
0.0002852081496
0.0002951002869
0.0002828753927
0.000261236955
0.0002312980758
0.0001938412638
0.0001441846051
0.0001354552787
0.0001336188469
0.0001307341142
0.0001286518705
0.0001267565725
0.0001212655865
0.0001194876329
9.513499907e-05
9.118839837e-05
8.141225847e-05
8.779767191e-05
9.580969248e-05
8.524052905e-05
9.289553175e-05
9.920838982e-05
0.0001069693808
0.0001148716993
0.0001236111812
0.0001979519165
0.0002299415934
0.0002469407609
0.0002656590501
0.0002823795188
0.0002903378752
0.0002761267554
0.0002395767301
0.0002450809323
0.0002536116749
0.0002386405707
0.0002166783059
0.0001620011794
0.0001390966978
0.0001394029479
0.0001399563028
0.0001386891046
0.0001341500058
0.0001401710516
0.0001404380383
0.0001356876215
0.0001154866658
0.0001019896113
9.863150107e-05
8.826443639e-05
8.904094805e-05
8.905991349e-05
9.607986427e-05
0.0001045073606
0.0001132694103
0.0001213761253
0.0001295422901
0.0001395208226
0.0001913310209
0.0002158832963
0.0002285531642
0.0002469512687
0.0002625074872
0.0002678709301
0.0002504457078
0.0002084955421
0.0001916660898
0.0001905429491
0.0001634598655
0.0001506181362
0.0001404878727
0.0001429145111
0.0001448514075
0.0001453607361
0.0001452462084
0.0001458662658
0.0001520338802
0.0001542192447
0.0001495646059
0.0001360432333
0.0001180579791
0.0001099073339
0.0001037973624
9.940917687e-05
9.498431783e-05
0.0001076652621
0.000120868916
0.0001323756507
0.0001415900879
0.0001520823556
0.0001735153922
0.0001847516123
0.0002028450202
0.0002100144254
0.0002249867884
0.0002389988688
0.0002425056432
0.0002145495981
0.0001790684607
0.0002288797664
0.0002349704947
0.0001497588856
0.0001438592091
0.0001454188192
0.0001485034222
0.0001510515254
0.0001527029657
0.0001533828277
0.0001562090882
0.0001649566617
0.0001715374967
0.0001683688124
0.0001661634288
0.0001555035163
0.0001375525706
0.0001250251217
0.0001154194346
0.0001055778288
0.0001204485655
0.000135690166
0.0001484845565
0.0001623756472
0.0001861308037
0.0002386300865
0.0001775114423
0.000190940111
0.0001932636268
0.000200776604
0.0002061434838
0.0002028041732
0.0002306358577
0.00032327983
0.0004302439373
0.0003942506432
0.0002511893759
0.0001679596176
0.000149226924
0.0001545295289
0.0001582559509
0.0001596245004
0.0001609936482
0.0001659118023
0.0001764694227
0.0001904244015
0.0002022868342
0.0002006232716
0.0001865790196
0.000171003998
0.0001541477861
0.0001346672031
0.0001154220515
0.0001268392576
0.0001402066904
0.0001581793091
0.0001818261978
0.0002204218663
0.0002885487867
0.0001683021686
0.0001777333227
0.00017482872
0.0001727826588
0.0001702120422
0.0001618415848
0.0001633677151
0.0002137933185
0.0002823295248
0.0002685482218
0.0001492068846
0.0001466538224
0.0001517312439
0.000156393392
0.000160707332
0.0001649845369
0.0001705609271
0.0001775358102
0.0001865912272
0.0001993443297
0.0002096812239
0.0002147885187
0.0002026019888
0.0001867263178
0.0001667668497
0.0001414801817
0.0001282428583
0.0001384700847
0.0001475323783
0.0001600114163
0.0001748636609
0.0001917156348
0.0002213941532
0.000156104164
0.000162560382
0.000158233458
0.0001577885731
0.0001608809675
0.0001576059531
0.000151468429
0.0001590734185
0.0001860403862
0.0001764996996
0.0001730966502
0.0001437247541
0.0001482962806
0.0001529383092
0.0001566941174
0.0001600885328
0.00016613239
0.0001751002323
0.0001853961543
0.0001993976393
0.0002134297573
0.0002191366355
0.0002080486295
0.000187571704
0.0001607352135
0.0001296227419
0.0001349669914
0.000147224854
0.0001565281692
0.0001662217178
0.0001765108434
0.000186615863
0.000198036797
0.0001411510656
0.000151846256
0.0001577887743
0.0001682209582
0.0001747438527
0.0001715358492
0.0001644657067
0.0001642610894
0.0001793786268
0.0002143398373
0.0002334543175
0.0001490403787
0.0001436184029
0.0001473253617
0.000150903375
0.0001551103954
0.0001639139385
0.0001776745824
0.0001939737712
0.0002139041945
0.0002332437601
0.000248122525
0.0002362038481
0.0002070967464
0.0001700888437
0.0001305910177
0.0001397950404
0.0001556694134
0.0001691574147
0.0001844742595
0.0002048866334
0.0002328467394
0.0002679030243
0.0001316579712
0.0001522013812
0.0001643894311
0.0001741998029
0.000178624658
0.0001778865354
0.0001788916924
0.0001943644797
0.0002304296228
0.0002760547252
0.000299838259
0.0002505054126
0.0001508985477
0.0001429516602
0.0001454733733
0.0001504827731
0.0001611542941
0.0001776980253
0.000196198727
0.0002176196827
0.0002407048867
0.0002575800365
0.0002363871786
0.0002088856046
0.000170857794
0.0001352028188
0.0001461127926
0.0001672443664
0.0001904525404
0.0002210993327
0.0002644232527
0.0003204801017
0.0003707191418
0.0001331692042
0.0001561375034
0.0001658602993
0.0001734156248
0.0001812068652
0.0001986561787
0.0002301636344
0.0002656211111
0.0003022981948
0.0003397572016
0.0003616115951
0.0003348742658
0.0002632238911
0.0001819633146
0.0001409427474
0.0001434501533
0.0001531036196
0.000169206796
0.0001872841524
0.0002048507699
0.0002234223047
0.0002371681764
0.0002024755211
0.0001635378825
0.0001490393954
0.0001483623938
0.0001565700862
0.00017927807
0.0002145191296
0.000262087438
0.0003215335903
0.0003897378859
0.0004472397095
0.0001359155293
0.0001567437432
0.000163809696
0.0001689086551
0.0001744885147
0.0001894312792
0.0002201462361
0.0002569922327
0.0002932695633
0.0003286767661
0.0003483419795
0.0003108128053
0.0002546282944
0.0001727361021
0.0001366042883
0.0001366770726
0.0001413926751
0.0001525344525
0.00016807134
0.0001843234668
0.0001996949007
0.0002071772186
0.0001716758219
0.0001796886059
0.0001798899708
0.0001747143501
0.0001719061119
0.0001896101252
0.0002354031013
0.0002903486118
0.000345430873
0.0004064622939
0.0004706743351
0.0001360578175
0.0001558609949
0.0001609624577
0.0001641413136
0.0001669316429
0.000175439258
0.0001986503104
0.0002325926936
0.0002654780519
0.00029302269
0.000303592219
0.0002504934232
0.0001998900914
0.0001429600453
0.0001318213812
0.000129934953
0.0001297547214
0.0001343529604
0.0001444190414
0.0001577003561
0.0001730227904
0.0001872300001
0.0002083367997
0.0002154049286
0.0002120779761
0.0002068060619
0.0001993441421
0.0001949814488
0.0002182095665
0.0002763922528
0.0003374464163
0.0003940322053
0.0004580872157
0.0001376642436
0.0001548051277
0.000158203165
0.0001597438464
0.0001604841819
0.000163333654
0.0001755178271
0.0002009002996
0.0002299894674
0.0002507326687
0.000250857353
0.0001799770688
0.0001500258804
0.0001313004615
0.0001314741524
0.0001307811191
0.0001281237512
0.0001312782361
0.000152573612
0.0001917730577
0.0002201266696
0.0002363725833
0.0002518842219
0.0002527307898
0.0002433147175
0.000237395646
0.0002316644509
0.0002257645817
0.0002203727543
0.0002427673083
0.0003029008252
0.0003661270538
0.0004220775524
0.0001383193457
0.0001533290726
0.000155418794
0.0001556659836
0.000154999022
0.000154539973
0.0001575763018
0.0001696819039
0.0001903560812
0.0002071958362
0.000201995154
0.00013564299
0.0001279212719
0.0001253167431
0.000128196191
0.0001332323029
0.0001515286697
0.0001950795413
0.0002428553838
0.000268444782
0.0002825879592
0.0002914278887
0.0002996724614
0.0002974204486
0.0002788187919
0.0002682113651
0.0002614184542
0.0002598784941
0.0002573372017
0.0002459383278
0.0002540379163
0.000314185769
0.000370759455
0.0001376575141
0.0001512338428
0.0001524520653
0.0001518877231
0.0001502141932
0.0001477747098
0.0001454551893
0.0001462349144
0.0001541314981
0.000164731487
0.0001602847285
0.0001194983391
0.0001196322626
0.0001247710242
0.0001388745901
0.0001694916403
0.0002184336157
0.0002661259541
0.000297074513
0.0003193995744
0.000335182455
0.0003456003454
0.0003547836839
0.000352362765
0.000321516092
0.000299143454
0.0002866538661
0.0002859381648
0.0002911103524
0.0002822996779
0.0002532995458
0.0002597498913
0.0003091418639
0.0001358082808
0.000148199135
0.0001487188359
0.0001476259598
0.0001450508291
0.0001410756407
0.000135932029
0.0001308981242
0.0001293820979
0.0001320390368
0.0001296292238
0.0001152954378
0.0001236091616
0.0001457834646
0.0001841841871
0.0002322962581
0.0002759190895
0.0003086920392
0.0003394837951
0.0003648060613
0.0003826952342
0.0003964999183
0.0004096914721
0.0004105874335
0.0003718179449
0.0003324589733
0.0003064560769
0.0002981194155
0.0003033209549
0.0002972976211
0.0002758591022
0.0002506714515
0.0002557437567
0.0001326872649
0.0001436463238
0.0001433550702
0.0001414682882
0.0001380880787
0.0001328991368
0.0001264689687
0.0001200673075
0.0001159051341
0.0001153584823
0.0001169212573
0.0001242634757
0.0001512285288
0.0001927332868
0.0002369945572
0.0002746465432
0.0003054590351
0.0003374965683
0.0003684781715
0.0003938823776
0.0004143019614
0.0004341421401
0.0004536956271
0.0004588313487
0.0004209798867
0.0003725238983
0.0003322290491
0.0003079089833
0.0003022966118
0.0002987085151
0.0002847182695
0.000261916668
0.0002433057827
0.0001270498265
0.0001357503446
0.0001348231194
0.0001318274004
0.0001283627276
0.0001228353426
0.0001167102532
0.0001116819472
0.000109262868
0.0001110286083
0.0001200016302
0.0001426392442
0.0001793575935
0.000219666241
0.000254604547
0.0002837116186
0.000314319944
0.0003474972363
0.0003795667118
0.0004082102056
0.0004351487164
0.0004621389122
0.0004852617378
0.0004918574729
0.0004633015945
0.0004160500307
0.000362350027
0.0003224032776
0.0003029586828
0.0002948465527
0.0002835167257
0.0002664580846
0.0002476297848
0.0001160812032
0.0001175894909
0.0001218433562
0.0001193700828
0.0001171885642
0.0001125708098
0.0001081220839
0.0001058127274
0.0001065754849
0.0001122327367
0.0001266453137
0.0001533405966
0.0001886647693
0.000224371438
0.0002552995376
0.0002829702402
0.0003128962118
0.0003453682183
0.0003780251817
0.0004096546756
0.0004413172176
0.000472472307
0.0004968166052
0.0005048070034
0.0004786867817
0.0004360053246
0.0003848163729
0.0003392233751
0.0003083583746
0.000291870171
0.0002793273236
0.000265208521
0.0002495521092
9.77384817e-05
0.0001150748502
0.000112649194
0.0001109100128
0.0001080805095
0.0001045868957
0.0001022916458
0.000102723099
0.0001064381112
0.0001151730054
0.0001317521873
0.0001572766447
0.0001885142721
0.0002203082612
0.0002492313377
0.0002755786844
0.0003034218756
0.0003336521274
0.0003652445211
0.0003976671599
0.0004311304521
0.0004636414598
0.000488870477
0.0004985321719
0.0004723488667
0.0004308201394
0.000382850969
0.000339554943
0.0003080129489
0.000288469742
0.0002746407124
0.0002616356806
0.0002480501018
8.310469777e-05
0.0001031792173
0.0001044265643
0.000104559739
0.0001017656134
9.942383965e-05
9.918987299e-05
0.0001017152983
0.0001075662054
0.000118237072
0.0001352978488
0.0001584744298
0.000185352403
0.0002130187752
0.0002394524483
0.00026415993
0.0002888478604
0.0003153033967
0.0003436832473
0.0003742139599
0.0004070083946
0.000439637033
0.0004658449312
0.0004773298093
0.0004483121393
0.0004069380643
0.0003631334486
0.000326264002
0.0003001177074
0.0002825439641
0.0002691825054
0.0002570425958
0.0002448190517
0.0001327762709
9.479295262e-05
9.917472481e-05
9.923170095e-05
9.737913037e-05
9.659313116e-05
9.793616085e-05
0.0001017620842
0.0001089112369
0.0001207078568
0.0001377772982
0.0001589043969
0.0001818910206
0.000205087869
0.000227724743
0.0002495764517
0.0002709980705
0.0002928441216
0.0003161091279
0.0003420721287
0.0003716081508
0.0004028306147
0.0004297024584
0.0004433613198
0.0004086940555
0.0003688980961
0.0003324977099
0.0003055442809
0.0002871927848
0.0002737975927
0.0002625577882
0.0002518811333
0.0002407046246
0.0001259013121
8.895413314e-05
9.355883637e-05
9.424828503e-05
9.417797064e-05
9.486315603e-05
9.706523504e-05
0.000101309048
0.0001087870977
0.0001209612969
0.000138094103
0.0001582367302
0.0001786738984
0.0001979670058
0.0002161362286
0.0002336081113
0.0002506393825
0.0002675083971
0.0002849337381
0.0003044417689
0.0003277558354
0.0003545222658
0.0003802553623
0.0003967547129
0.0003549926818
0.0003231254988
0.0002992298814
0.0002834335951
0.0002723891014
0.0002631471813
0.0002543280675
0.0002452873047
0.0002353887096
0.0002128575572
0.0001223830956
8.217981751e-05
8.62570019e-05
8.857773861e-05
9.038446096e-05
9.275804932e-05
9.677257407e-05
0.0001044374601
0.0001180066379
0.0001371849602
0.0001581304932
0.0001769825047
0.000192531186
0.0002054795042
0.0002169043444
0.0002274876528
0.0002375391722
0.0002474587511
0.0002583132168
0.0002719127849
0.0002894924897
0.0003093312883
0.00032549653
0.0002874344445
0.0002688078239
0.0002582243528
0.0002518951427
0.0002471514606
0.0002425647477
0.000237527533
0.0002316987593
0.0002246096586
0.0001251734619
0.0002559948734
0.0002865476769
0.0002791075211
0.0002604154513
0.0002408715646
0.0002274848036
0.0002250479802
0.0002341490956
0.0002571336502
0.0002522577857
0.0002091312723
0.0001714132194
0.0001558396272
0.0001427718022
0.0001390175946
0.000154076982
0.0001894612754
0.0002990869435
0.0004457642386
0.0005655259617
0.0006243335091
0.0005074608074
0.0002920309965
0.0001439271721
0.0001030069395
0.0001556128179
0.0001534863874
0.0001328361463
0.000304899736
0.0003437029937
0.0003326199094
0.0003140183007
0.0003033681018
0.0003011123526
0.0002889328849
0.0002987630788
0.0003106356392
0.0002960996073
0.0002514264674
0.0002086337829
0.0001687217569
0.0001500799743
0.0001267142892
0.0001289735709
0.0001418726223
0.0001955777523
0.0002980242583
0.000440449425
0.0005193383218
0.0003931093204
0.000207632389
0.0001199357312
9.699874805e-05
0.0001908111869
0.0001163855914
0.0001171294672
0.0001201963513
0.0001271396837
0.0001501314119
0.000140608027
0.0003565115837
0.0003965391555
0.0003802494515
0.0003627000311
0.0003541146247
0.0003950145237
0.0003650481509
0.0003507245795
0.0004089755792
0.0004534616011
0.0004234875148
0.000347610931
0.0002491401337
0.0001800823235
0.0003461226455
0.0001151099245
0.0001156621366
0.0001330384951
0.0001663299158
0.0001851304385
0.0002438318363
0.0001695486942
0.0001088235816
0.0001025031834
0.0001786232078
0.0001249298816
0.0001151718863
0.0001194943499
0.0001203285474
0.000135834425
0.0001639001235
0.0001490387877
0.0004138764443
0.0004492136361
0.000420410276
0.0003617826101
0.0003553777054
0.0004928259162
0.0005867964859
0.0004735108637
0.0004889398651
0.000513427761
0.0004984796445
0.0004520066103
0.0003744681581
0.0002890718915
0.0001782588929
0.0001493562089
0.0001311308597
0.0001193628244
0.000117836019
0.0001167982992
0.0001379386476
0.0001262121819
0.000119106281
0.0001826555117
0.0001924125713
0.0001099095236
0.0001169873493
0.0001174929137
0.0001222992996
0.0001427358804
0.0001703599086
0.0001891422661
0.0001587958321
0.0004645155641
0.0005046661871
0.0005025673158
0.0004669476707
0.0004158170224
0.0004604720763
0.000429708924
0.0003796053156
0.000404577437
0.0004190336607
0.0003903305907
0.0003443632396
0.0002597488619
0.000184389236
0.0001604330358
0.0001349929504
0.0001250854837
0.0001185595782
0.0001169665143
0.0001553057885
0.0003201657265
0.0002240499841
0.0001392408183
0.0001383087787
0.0001192132799
0.0001212265891
0.0001166871383
0.0001074106986
0.0001216215347
0.0001417091459
0.0001734443436
0.0001986120991
0.0001752520271
0.0004838813403
0.0004946625454
0.0004734146538
0.0004827299627
0.0005160395819
0.00052349465
0.0004503392824
0.0004117944778
0.0003602235331
0.0002450416006
0.000204927273
0.0002030237473
0.0001773705024
0.0001607731058
0.0001460022871
0.0001375977415
0.0001323911333
0.0001227219424
0.0001222318656
0.0002030224877
0.000407171901
0.0002893270974
0.0001385543545
0.0001155938015
0.0001295977345
0.0001345395234
0.0001154427335
0.000101836851
0.0001243256176
0.0001459325884
0.0001783613764
0.0002018713294
0.0001783965308
0.0004637433756
0.0004870481527
0.0004785834964
0.0004895602621
0.0005021589134
0.0005102437771
0.0004400151894
0.0003565642301
0.0002740956388
0.0001901899515
0.0001735306973
0.0001698969206
0.0001729437768
0.0001736029533
0.0001610211948
0.0001489521241
0.000141983778
0.0001257852178
0.0001220058752
0.0001443359729
0.0002044390105
0.0001692134729
0.0001360720357
0.0001286841619
0.0001322555025
0.0001333767612
0.0001162617573
0.0001016921751
0.0001099168937
0.0001331768988
0.0001654851432
0.000193198539
0.0001767065014
0.0004297591994
0.0004582127636
0.0004441347674
0.0004502839419
0.0004592420617
0.0004421176295
0.0003253337747
0.000244681512
0.0001873556915
0.0001708610421
0.0001649709522
0.000160975109
0.000176420776
0.0001960563071
0.0001789681327
0.0001707817652
0.0001513169375
0.0001483907412
0.0001273859863
0.000120030088
0.0001267491693
0.0001428839355
0.0001495533053
0.0001395277068
0.0001092182741
0.0001099619943
0.0001059084228
0.0001132942186
0.0001282447705
0.0001502108479
0.0001796568827
0.0002055433254
0.000172222307
0.0003917781886
0.0004233263624
0.0004062269598
0.0003803551508
0.0003549115308
0.0002890143574
0.000217390973
0.0001769403426
0.000184134521
0.0001750434664
0.0001638553006
0.0001756189203
0.000190441223
0.0002010233071
0.0001934850705
0.0001851947064
0.0001846429248
0.0001602549117
0.0001391326719
0.0001202055828
0.0001272992206
0.0001528239192
0.0001641961235
0.0001476475562
0.0001107837979
0.0001003426396
0.0001087482047
0.0001221166184
0.0001391740814
0.0001654895831
0.0002029121742
0.0002506049101
0.0001656870998
0.0003447371712
0.0003664497797
0.0003249312741
0.000290367876
0.0002513230666
0.000202884285
0.0001727988877
0.0002385983472
0.0003428497216
0.000208690268
0.0002038974274
0.0002161959789
0.0002259174107
0.0002348397822
0.0002406404574
0.0002369080541
0.0002222592382
0.0002004663842
0.0001886044859
0.0001805017002
0.0001685958928
0.0001639643035
0.0001631009759
0.0001390400303
0.0001194170766
0.0001093265534
0.0001154385325
0.0001363654362
0.000168230546
0.0002234250975
0.0003092908224
0.0004705376419
0.0001577858228
0.0002870165669
0.0002809071312
0.0002329940484
0.0002110879086
0.0001891573194
0.0001701087859
0.0002959637565
0.0006022138821
0.0005659844567
0.0004113741782
0.0002277908107
0.0002697599582
0.0002736582753
0.0002823362945
0.0002822368409
0.0002757667017
0.0002593382633
0.0002468584346
0.0002816999459
0.0003169159493
0.0003098593177
0.0002849682462
0.0002213191157
0.0001627202353
0.0001338891989
0.0001214306237
0.0001184307416
0.0001293501952
0.0001860292348
0.0002777775085
0.0003941031446
0.0005212344078
0.0001487607037
0.0002315532109
0.0002143938456
0.0001910939259
0.0001917549749
0.0001989840165
0.000201990832
0.0002199128961
0.0003279906481
0.0004108648071
0.0002733729141
0.000277824859
0.0002814608842
0.0002885612811
0.000296422794
0.0003001886615
0.0002949744955
0.0002748469137
0.0002737983514
0.0003260309837
0.0003676382987
0.0003912731817
0.0003638397841
0.0002698519433
0.0001743678306
0.000144144367
0.00013414269
0.0001373811922
0.0001539753527
0.0002085108902
0.0002827476354
0.0003789091731
0.0004793505008
0.000138855176
0.000195991155
0.0001988383517
0.0002350241519
0.0002997320612
0.0003053608207
0.0002872437536
0.0002878265369
0.0002816634064
0.0002576961653
0.0002668451365
0.0002538852401
0.0002778014331
0.0002797462898
0.0002851999169
0.000285615697
0.0002775905774
0.0002676334633
0.0002986121192
0.0003821606023
0.0004520367017
0.0004948635006
0.000442927072
0.0002778667013
0.0001800520035
0.0001588089322
0.0001490256656
0.0001613518157
0.0001842564783
0.0002335186676
0.0003083384123
0.0004096183139
0.0005106796773
0.0001281729438
0.0001874822844
0.0002396196483
0.0003423484002
0.0004050404313
0.0004145816914
0.0003906939971
0.0003602294009
0.0003307721899
0.0002953614958
0.0002853153841
0.0002488427996
0.0002368070669
0.0002415280246
0.0002427773873
0.0002350226391
0.0002306278716
0.000263555238
0.0003491055194
0.000458419104
0.0005469249077
0.0005776043345
0.000501367855
0.0002854668482
0.0001966630842
0.0001767646575
0.000165025144
0.0001811766114
0.0002169866263
0.0002840297386
0.000400907488
0.000572240422
0.0007075472976
0.0001213305971
0.0002067329081
0.000298356518
0.0003852672182
0.0004152598924
0.0004171673436
0.0004032345864
0.000369381953
0.000349134654
0.0004072861544
0.0004761462679
0.000438565268
0.0002534004042
0.0002042716204
0.0002084273362
0.0002052990701
0.0002016619755
0.0002355182251
0.0003226335742
0.0004422393218
0.0005472867013
0.0005671983566
0.000442500922
0.0002624822013
0.0002197722862
0.0002138878519
0.0001904299455
0.0001948450667
0.0002318814797
0.0003196292924
0.0005021713695
0.0007823989854
0.000980957297
0.0001229720026
0.0002374666263
0.000329860876
0.0003773947785
0.0003960778555
0.0003952910436
0.0003667417112
0.0003223056972
0.0003568896827
0.000469184947
0.0005319478278
0.000477816548
0.0002574612139
0.0002008579865
0.0002237425262
0.0002178785136
0.0002023594497
0.0002220700954
0.0002836923285
0.0003601031819
0.0004355008009
0.0004319025829
0.0002882321606
0.000212754334
0.0002346520637
0.0002511298167
0.000231091111
0.000217313227
0.0002369381137
0.0003157409409
0.0005183881854
0.0008702744309
0.001148947208
0.0001267362234
0.0002564702785
0.0003270620793
0.000351571237
0.0003615803854
0.0003601328584
0.0003377290448
0.0002871339374
0.0003044825758
0.0004016098909
0.0004453422747
0.0003776431132
0.0002131172637
0.0002147975264
0.000233700058
0.0002383216817
0.0002409685458
0.000264767549
0.0003041621345
0.0003137070367
0.0003196994974
0.0002831473951
0.0002106038784
0.0002335034384
0.0002743710097
0.0002945917739
0.0002795112091
0.0002502943723
0.0002416541529
0.0002758607321
0.0004301061872
0.0007761265957
0.001151830932
0.0001274560995
0.0002645383241
0.0003101069568
0.0003209001457
0.0003225400158
0.0003166374187
0.0002981597781
0.0002638684538
0.0002376538201
0.000268089198
0.0002703234755
0.0002219637903
0.000205218671
0.0002544025585
0.0002942281021
0.0003040166564
0.0003024264368
0.0003233889267
0.000361533717
0.0003156931444
0.0002242658858
0.0002201111509
0.0002631557535
0.000327452419
0.0003881910299
0.0004141382577
0.0003928490079
0.0003417423949
0.0003028413164
0.0002715433596
0.0003288675752
0.0005806203133
0.0009768083145
0.0001279901196
0.00025294559
0.000287277465
0.0002894935523
0.0002833230479
0.0002707043808
0.0002495369755
0.0002315046834
0.0002199268318
0.0002247163786
0.0002149313202
0.0001978331369
0.0002335974974
0.0002820430106
0.0003332424564
0.0003546831301
0.0003481629334
0.0003058253319
0.0002446394482
0.0002123808461
0.0002418637654
0.00031937034
0.0004400764652
0.0005525329642
0.0006429783627
0.0006802059638
0.000646452727
0.0005634673931
0.0005135010245
0.0004110800601
0.0003118219567
0.0003605779194
0.0006392041003
0.000128777167
0.0002342068766
0.0002612316303
0.0002590714718
0.0002470187482
0.000230873337
0.0002112550776
0.0001995691435
0.000201574391
0.0002169322543
0.0002204024749
0.0002117568828
0.000229851117
0.000261427721
0.0002976109356
0.0002965760608
0.0002604126766
0.0002313228486
0.0002482465593
0.0003324654907
0.0004896115424
0.0006728443194
0.0008397327495
0.0009528297806
0.0009926696154
0.0009866515482
0.0009516995036
0.0008926259337
0.0007990049639
0.0006570727938
0.0004459436661
0.000317698668
0.0003592941277
0.0001282138857
0.0002151680707
0.0002315653864
0.000227410275
0.0002144385525
0.0001975160573
0.0001828576513
0.0001768723794
0.000180780368
0.0001941937961
0.0002053540086
0.000201404375
0.0002014725133
0.0002103556212
0.0002180259145
0.0002177466331
0.0002371166617
0.0003263082889
0.0005436680154
0.0008139639261
0.001030193728
0.001194803389
0.001295671801
0.001318968489
0.001305674995
0.001250652693
0.001170527913
0.0010691659
0.0009464972172
0.0008237338655
0.0006230349841
0.0004003230697
0.0002941322791
0.0001262225918
0.0001994753891
0.0002006812289
0.0001901863093
0.0001799063194
0.0001684890099
0.0001612440344
0.000160338623
0.0001647970911
0.0001726942673
0.0001787429655
0.0001783755208
0.0001747914421
0.0001777528945
0.000194144809
0.0002429580847
0.0003705459675
0.0006104631117
0.0008897433085
0.001146196369
0.001364232819
0.001528611941
0.001606588276
0.001600362197
0.001567835356
0.00148244535
0.00135274549
0.001201606089
0.001049089052
0.0009066519275
0.0007429723713
0.0005077818534
0.0003279909529
0.000122458647
0.0001776388526
0.0001717177454
0.0001603499126
0.0001520185811
0.0001462248517
0.0001451150179
0.0001480361009
0.000153335283
0.0001589355739
0.0001623172828
0.0001631348921
0.00016603609
0.000182344407
0.0002276046609
0.0003384499095
0.0005374349735
0.0008066953373
0.001086704065
0.001339405402
0.001555239965
0.001710678586
0.001772535816
0.001753076476
0.001711249283
0.001619632849
0.001468663678
0.001288256825
0.001114309144
0.0009504858742
0.0007833433918
0.0005951739257
0.0003855386782
0.0001169856388
0.0001578040329
0.0001564454903
0.0001549877826
0.0001377803226
0.0001319615294
0.0001340259729
0.000139604847
0.0001462609838
0.0001522798509
0.0001568940364
0.000162045272
0.0001741051423
0.0002043142671
0.0002748283308
0.0004087188294
0.0006229389481
0.0008921591775
0.001168586962
0.001420029148
0.001631994343
0.001779935576
0.001838784363
0.001820791876
0.001767559083
0.001666024082
0.00150773243
0.001318232396
0.001135506445
0.0009623327403
0.0007926790189
0.0006275338445
0.000440017377
0.0001076228407
0.0001631283763
0.0001497008965
0.0001601610673
0.0001393325242
0.0001251638266
0.0001282963238
0.0001346299628
0.0001426713874
0.0001504622498
0.0001578773607
0.0001669701151
0.0001840324219
0.0002209099831
0.0002980023693
0.0004307740873
0.000633018417
0.0008862403681
0.001152244407
0.001399425897
0.001608993694
0.001758051729
0.001824806826
0.001814402501
0.001761015088
0.001647861416
0.00148140786
0.001295925182
0.001119730114
0.0009511212648
0.000787774898
0.0006356428332
0.0004723811033
8.665953502e-05
0.0001373008818
0.0001600107854
0.0001563502119
0.0001382325741
0.0001254018508
0.0001271328955
0.0001322139569
0.0001405650249
0.000149529603
0.0001586070168
0.0001693004036
0.0001873803871
0.000223858789
0.0002972658228
0.0004179605827
0.0005941872522
0.0008163317302
0.001058603948
0.00129361856
0.001500767385
0.001657758404
0.001738963262
0.001739880274
0.001694829359
0.001580534394
0.001416086197
0.001242700271
0.001079224198
0.0009234313382
0.0007735070182
0.0006338828413
0.0004751008208
7.794049472e-05
0.0001673222101
0.0001561954241
0.0001404611965
0.0001359352711
0.0001283014983
0.0001275218106
0.0001306867879
0.0001378822127
0.0001462146961
0.00015481814
0.0001654154221
0.0001831581761
0.0002165466989
0.0002805494965
0.0003896606468