/*--------------------------------*- C++ -*----------------------------------*\
  =========                 |
  \\      /  F ield         | OpenFOAM: The Open Source CFD Toolbox
   \\    /   O peration     | Website:  https://openfoam.org
    \\  /    A nd           | Version:  8
     \\/     M anipulation  |
\*---------------------------------------------------------------------------*/
FoamFile
{
    version     2.0;
    format      ascii;
    class       volVectorField;
    location    "0.8";
    object      U;
}
// * * * * * * * * * * * * * * * * * * * * * * * * * * * * * * * * * * * * * //

dimensions      [0 1 -1 0 0 0 0];

internalField   nonuniform List<vector> 
67286
(
(-0.08192172034 -0.4312095474 0.1258341896)
(-0.1364133875 -0.4032990947 0.08246867002)
(-0.1935681655 -0.3899820596 0.09517747584)
(-0.2312006706 -0.3743727357 0.1483453093)
(-0.2928859155 -0.3649187934 0.2049563264)
(-0.3585167205 -0.3724321638 0.2259618958)
(-0.393567152 -0.4347233186 0.172973273)
(-0.3472156207 -0.5337535031 0.02797619592)
(-0.2630947519 -0.5800063488 -0.1463786576)
(-0.1637905415 -0.6458568622 -0.2921787542)
(-0.02386247194 -0.5774815626 -0.307214296)
(0.08905744072 -0.4989416899 -0.2210347907)
(0.1565201057 -0.4164155737 -0.07679729506)
(0.2023842276 -0.2851870582 0.06392194288)
(0.1582605599 -0.06048630138 0.2032305888)
(0.1403384678 0.07996497581 0.1580363727)
(0.1072770379 0.1537049712 0.05956342109)
(0.01999930079 0.1536603819 0.03312145913)
(-0.07299301152 0.1396377993 -0.01648441056)
(-0.1006841771 0.09188071905 -0.09621874772)
(-0.1234316048 0.04140845782 -0.2179644141)
(0.061000975 -0.04966225248 -0.4084482455)
(0.2176560955 -0.03493873167 -0.3052135013)
(0.2844886735 0.0009621996491 -0.1842595945)
(0.2348595672 0.03053742286 -0.02507063925)
(0.1302029084 0.04705314708 0.1008507846)
(-0.02364913909 -0.02847517561 0.1557469894)
(-0.09357081062 -0.1093407261 0.1046087005)
(-0.1059921098 -0.4562635049 0.1198761136)
(-0.1734639583 -0.4286525284 0.06810399072)
(-0.251294944 -0.4289994112 0.09120983641)
(-0.3281342242 -0.4314258006 0.149437051)
(-0.4471328757 -0.4380953614 0.1584789853)
(-0.5458436173 -0.4630230538 0.07121499515)
(-0.5307582995 -0.5673070502 -0.08715571272)
(-0.3699378296 -0.6854032439 -0.2679441958)
(-0.2619025199 -0.6505602183 -0.3726214165)
(-0.1905746763 -0.6944268729 -0.4476573044)
(-0.0478214058 -0.6115218565 -0.4387054731)
(0.08314906056 -0.539055993 -0.3624285294)
(0.1576763695 -0.493109516 -0.2641526621)
(0.2197297734 -0.4219709297 -0.157979982)
(0.2008460529 -0.2703409095 0.02330750059)
(0.2146639631 -0.2608748707 0.1324294227)
(0.1440066271 0.08317321479 0.163535198)
(0.07250905716 0.1397952343 0.1088282826)
(-0.02284194695 0.1716486809 0.06299641871)
(-0.06804504856 0.1542905538 -0.01026914582)
(-0.1499815538 0.1173733612 -0.1350537486)
(0.06981968526 0.04874677515 -0.3764205066)
(0.2236650501 0.04216151934 -0.2185379233)
(0.2552672961 0.05575459564 -0.06014687581)
(0.1926650889 0.05751807628 0.06734040791)
(0.09289187106 0.02652559098 0.1492383425)
(-0.02273843963 -0.09846777949 0.141530389)
(-0.09343523287 -0.1841311077 0.05709594153)
(-0.1208776219 -0.248253855 -0.01742061193)
(-0.09281602115 -0.2897786366 -0.01630989415)
(-0.1313808063 -0.3509239121 0.02151145593)
(-0.1363186077 -0.3915310291 -0.06139183887)
(-0.1343960512 -0.4347035478 0.1157763751)
(-0.2206520003 -0.4059882625 0.06131862421)
(-0.3305578535 -0.4220496587 0.09624516698)
(-0.4538313064 -0.4624492926 0.1321824994)
(-0.6080617322 -0.5364934105 0.04712184675)
(-0.7226711944 -0.7060092311 -0.1515161365)
(-0.6644424491 -1.088354993 -0.3747302557)
(-0.394139018 -1.032585475 -0.544052504)
(-0.2781983761 -0.6194024677 -0.4724822576)
(-0.2206696946 -0.6237122347 -0.5453484607)
(-0.06025912322 -0.4723779207 -0.5567311806)
(0.06399212784 -0.4038728424 -0.4778760323)
(0.1280907282 -0.3600231595 -0.3921886816)
(0.1866910115 -0.2964571772 -0.3182599732)
(-0.03465094606 -0.2078805888 -0.2114006676)
(0.1936330804 -0.04842920208 -0.2717193526)
(0.4403878867 0.01027345307 0.0864075442)
(0.1911280222 0.08693629794 0.1381953842)
(0.1102441224 0.1134038849 0.1404902127)
(0.0578502357 0.1326522094 0.1247151988)
(-0.0517841358 0.07657556478 0.04189421501)
(0.09567186324 0.1467070026 -0.1669192652)
(0.2067204488 0.0982259052 -0.03277808213)
(0.186883444 0.007246066368 0.1095705583)
(0.1188143274 -0.0481125526 0.1711540601)
(0.009602204743 -0.08348145339 0.1669247452)
(-0.07253854036 -0.1616984767 0.08083839332)
(-0.1341967872 -0.2094897347 -0.006214002186)
(-0.1416714818 -0.2773350966 -0.05103303031)
(-0.1091793141 -0.2816172904 -0.02714126061)
(-0.1706386635 -0.3355968687 -0.03548963915)
(-0.1008587707 -0.2996232481 -0.2298615908)
(-0.1632565809 -0.3589940494 0.1043876225)
(-0.2731295934 -0.3114839489 0.04244696914)
(-0.4423140719 -0.299470233 0.07419604289)
(-0.6770534189 -0.2841936198 0.06943014947)
(-1.048246677 -0.2487498286 -0.1089292158)
(-1.458565483 -0.1868567579 -0.4709780636)
(-1.067948222 -0.04553948901 -1.388437425)
(-0.07162979261 -0.005195142147 -1.567176195)
(0.403584695 -0.04526496033 -0.579073176)
(-0.1472690812 -0.01936737526 -0.6092218572)
(0.01282461404 0.02459481759 -0.6832105511)
(0.06737522569 0.03984768271 -0.5907341)
(0.1592478438 0.02775113561 -0.5012213197)
(0.2297665115 0.04847800755 -0.4142573923)
(0.2600015483 0.05639809529 -0.3216027792)
(0.3385932523 0.2364781076 -0.215293729)
(0.3595884541 0.04428524392 -0.04593261848)
(0.3078671169 0.02755396513 0.1222446002)
(0.2281251713 -0.007472244195 0.2133121508)
(0.1656341055 -0.04207170554 0.2351461017)
(0.07089347784 -0.1151112163 0.1605354176)
(0.07946904034 -0.1185422619 0.03883982117)
(0.1632469169 -0.1216134139 0.06775585284)
(0.1305172559 -0.149407672 0.1282002931)
(0.06788246412 -0.1369356638 0.1587325019)
(-0.06479432738 -0.1335269875 0.1130742325)
(-0.1133707275 -0.1888215225 0.002094567931)
(-0.1811638615 -0.1993042848 -0.05413568327)
(-0.1421723273 -0.2238795348 -0.0976590026)
(-0.1051237691 -0.2496491066 -0.01728767318)
(-0.1794093414 -0.2784335432 -0.04357574239)
(-0.1292949399 -0.2375628339 -0.1312373332)
(-0.02671082281 -0.2859161517 -0.1945840014)
(-0.1676319761 -0.2582029509 0.08516010604)
(-0.2241384103 -0.1925465435 -0.008275584562)
(-0.2957045852 -0.1710831429 0.002356736444)
(-0.3415611215 -0.1455318537 0.0568565655)
(-0.426642613 -0.04118102809 0.08364511758)
(-0.5864951679 0.3093951427 -0.01807810022)
(-0.6554284031 0.8801745719 -0.3371543871)
(-0.2720775564 0.9092114553 -0.5614026771)
(-0.1288426802 0.543249256 -0.4544051425)
(-0.1831160976 0.5728211959 -0.5348821251)
(-0.01732019736 0.4672979499 -0.5388658176)
(0.08782092167 0.4297464382 -0.4524215104)
(0.1670439375 0.3719350515 -0.3754742376)
(0.2205904941 0.3047382871 -0.2958255001)
(0.2080956205 0.2032320146 -0.1949593806)
(0.2261930908 0.06457315669 0.02329733563)
(0.1857997036 -0.08693941004 0.1797571552)
(0.1004598555 -0.1807847233 0.2023669634)
(0.02287675703 -0.2134444145 0.1817921)
(-0.01147454928 -0.2406641683 0.1305544592)
(-0.1275946733 -0.2236207332 -0.0376830125)
(0.023716537 -0.1685577624 -0.2508107007)
(0.1992021293 -0.1819251416 -0.08981202761)
(0.1246496926 -0.2055034497 0.04915005365)
(0.03494938035 -0.1762639129 0.1268184494)
(-0.1145618286 -0.1667656998 0.04359665702)
(-0.1186159773 -0.192946245 -0.06930820397)
(-0.156298351 -0.1575732676 -0.08531340536)
(-0.1378835056 -0.14568747 -0.08422746813)
(-0.1346525107 -0.1958863571 -0.02952061142)
(-0.1917058111 -0.2227907077 -0.05250905041)
(-0.1508575993 -0.2211028758 -0.1486125068)
(-0.03411043161 -0.2077423771 -0.1829595218)
(-0.1964621828 -0.1756137472 0.01961389414)
(-0.2468014479 -0.07680911241 -0.1058775642)
(-0.3221330385 -0.08124804286 -0.1332020492)
(-0.3767036302 -0.1045960124 -0.1365836509)
(-0.4393579742 -0.09442509179 -0.1029653525)
(-0.4411367209 0.0520991425 -0.01222487402)
(-0.3705987408 0.3839611874 -0.01964431079)
(-0.1636634568 0.6482657752 -0.2444921333)
(-0.07689960792 0.5902089077 -0.3718321767)
(-0.09824542917 0.6553046642 -0.4776057717)
(0.03613194692 0.6066871348 -0.4407463095)
(0.09228939733 0.5659189934 -0.3347573578)
(0.162084375 0.4887385663 -0.219613834)
(0.1959406437 0.3572962328 -0.08026501733)
(0.1729094103 0.1438424203 0.1309598455)
(0.1052344385 -0.09703521207 0.2381908933)
(0.001168068296 -0.2454238017 0.1697940434)
(-0.01952475981 -0.3203901165 0.1323721557)
(-0.0588025152 -0.3111110945 0.1100088405)
(-0.1177391796 -0.291103681 0.04203952172)
(-0.1310635099 -0.1986056178 -0.1132628037)
(-0.01323309914 0.03430844613 -0.3625517305)
(0.1473288466 -0.1216470728 -0.1318297458)
(0.1263942363 -0.1980700689 0.003761373308)
(0.03695147452 -0.1675337409 0.07949220169)
(-0.1302574504 -0.1520703997 -0.01805822263)
(-0.0731895694 -0.1461363324 -0.1266905827)
(-0.1301763141 -0.1060608328 -0.09743275006)
(-0.1523773336 -0.09000718512 -0.1051159547)
(-0.1690673564 -0.0927079372 -0.04429460354)
(-0.2296330413 -0.1273914747 -0.09058628355)
(-0.1332739747 -0.1315256195 -0.2142348425)
(-0.02555914111 -0.1745752388 -0.06450185861)
(-0.2939498496 0.176043086 0.02822472293)
(-0.3621479048 0.1919970325 -0.1446067851)
(-0.4246943409 0.2201280481 -0.2627680829)
(-0.4149978434 0.2644423843 -0.3536530809)
(-0.3679459671 0.3062845879 -0.3964748205)
(-0.2691129893 0.3717898127 -0.3275090367)
(-0.1213982257 0.5115973509 -0.04934213872)
(-0.1091933104 0.7091272137 -0.0150615994)
(-0.1142516191 0.6573371608 -0.2556978631)
(-0.08189329406 0.6431397276 -0.4141386432)
(0.05305580285 0.5931316321 -0.297502429)
(0.06287703664 0.5085628154 -0.1196659328)
(0.1122215606 0.3604987781 0.05958792423)
(0.135979942 0.1824493309 0.2097200241)
(0.04544650971 -0.1275181465 0.2343397228)
(-0.0006130969164 -0.2818830217 0.1173808984)
(-0.08752255101 -0.3473615053 0.05062954476)
(-0.0702949058 -0.5373834251 -0.05394129502)
(-0.07331536906 -0.3721123223 0.0506384402)
(-0.125156254 -0.3763364812 0.03300474755)
(-0.105220054 -0.2408121085 -0.0132826495)
(-0.0290763713 0.07486659378 -0.08045998523)
(0.09548692118 -0.1558778422 0.03345563099)
(0.0332555583 -0.2018569122 -0.006620655085)
(0.004075239147 -0.1155245813 0.02500295187)
(-0.1134382938 -0.1309678545 -0.02234836488)
(-0.04493788251 -0.05160991502 -0.1903181478)
(-0.06494925923 0.04061328767 0.008597929208)
(-0.2634275272 0.06512658164 0.02502016859)
(-0.2842483955 -0.0002626807803 -0.02902897753)
(-0.2912339912 -0.05714981004 -0.05757422824)
(-0.2309859746 -0.07966151092 -0.069726898)
(-0.1462611121 -0.1713800153 -0.05080590294)
(-0.2378714832 0.3530303259 0.07423125765)
(-0.3034860678 0.3279481659 -0.06833239256)
(-0.3671080135 0.3502195813 -0.1733915558)
(-0.3665634198 0.4066385362 -0.2715207937)
(-0.3058181097 0.4386682016 -0.3352835217)
(-0.1929127341 0.4552278522 -0.3311667714)
(0.003372366123 0.5239670148 -0.06674359485)
(-0.04806718754 0.5822956143 0.1845132814)
(-0.1485471311 0.5101700003 0.05593326201)
(-0.08295332671 0.5037951219 -0.08869478351)
(0.03890987496 0.4265355917 0.05304165658)
(0.03480629267 0.3014083407 0.2122614521)
(-0.01344544834 0.005300497385 0.2780465368)
(-0.05227153832 -0.1337320281 0.1922679865)
(-0.09360696946 -0.2090189621 0.07452745986)
(-0.1407297859 -0.275589765 0.03183486286)
(-0.3387397632 -0.3096632301 -0.05915495069)
(-0.1092433562 -0.1939851331 -0.7079609244)
(0.1080308742 -0.3966178375 0.004733546582)
(-0.1235808281 -0.3757199854 -0.01121801387)
(-0.04431863501 -0.3435414416 -0.05602162879)
(0.01377436384 -0.1778431504 0.07927866845)
(0.04554763953 -0.2129959645 0.03555370002)
(-0.01615978648 -0.1689881149 -0.1097408975)
(0.05012222597 -0.1038965236 -0.01239802817)
(-0.06850485095 -0.1408573621 0.1341993174)
(-0.2232991014 0.03844283815 0.08119957942)
(-0.3236125243 0.04289299033 0.06254022956)
(-0.396243282 0.03008127706 0.02749254617)
(-0.4132761681 -0.0171390915 -0.00107978323)
(-0.3882986477 -0.05816309597 -0.005586160049)
(-0.3280663218 -0.1081388584 -0.006810198455)
(-0.2595130768 -0.1842565568 -0.02470457084)
(-0.1893026212 0.4732610825 0.08673478258)
(-0.2235001047 0.4226620667 -0.02344516341)
(-0.2604580335 0.4441336333 -0.08689699226)
(-0.2805117061 0.5234201982 -0.1721242208)
(-0.2551645314 0.5566107487 -0.2550463235)
(-0.1960714336 0.5417937113 -0.2589079439)
(-0.070907121 0.5496162513 0.02943722439)
(-0.1478669709 0.4940426255 0.3995297529)
(-0.1488521358 0.2130339314 0.3933446455)
(0.03405685256 0.1199253636 0.281509168)
(0.03131069419 0.04326616225 0.3277665858)
(-0.04770633752 -0.03074953727 0.2806104095)
(-0.08129850938 -0.1469100132 0.1142039384)
(-0.1417284942 -0.1875208386 0.03520089294)
(-0.1504087541 -0.2332545007 -0.01750698145)
(-0.1438217699 -0.2452388547 -0.02985306724)
(-0.1707883125 -0.2620418065 -0.01899469427)
(-0.1276705039 -0.1046758181 0.0105359034)
(-0.1273810919 -0.3685192918 -0.04716425158)
(-0.1449589052 -0.3202262814 -0.1134651833)
(-0.05275124337 -0.345227549 -0.2024527957)
(0.05601301459 -0.1677886735 -0.04395740289)
(0.04581576535 -0.1156340246 -0.005340902669)
(0.02095273252 -0.05847111633 -0.1467463483)
(0.1099499969 -0.09619018467 -0.02812660599)
(-0.007697986009 -0.1616376281 0.1589656096)
(-0.2152075324 -0.02051340298 0.2034242143)
(-0.3531870452 0.02721879893 0.1374884398)
(-0.4365825682 0.00372904873 0.09204964755)
(-0.4695557828 -0.05939562456 0.05275256367)
(-0.4674703802 -0.1255391642 0.02252863838)
(-0.4307834961 -0.1916088973 0.005733302608)
(-0.3707945343 -0.2632148264 -0.0279729324)
(-0.1527422579 0.5218288935 0.08850149535)
(-0.1665224367 0.4575141232 -0.005265344938)
(-0.1864964818 0.4681807412 -0.0253345837)
(-0.2028263476 0.5284063933 -0.04406339148)
(-0.1989748623 0.5284783569 -0.1158424812)
(-0.1453396568 0.4236913913 -0.1303647335)
(-0.02078856462 0.2113293929 0.173098265)
(-0.1957185459 -0.2942446247 0.2545212607)
(-0.3682508444 -0.828055244 -0.4698309724)
(-0.1533002559 -0.5322433595 -0.3055668807)
(0.0002389491542 -0.1570533295 0.1406743793)
(-0.1067945376 -0.2183664175 0.1411762111)
(-0.1737341152 -0.2048836235 0.02445090185)
(-0.1905643906 -0.2113114631 -0.03006840889)
(-0.1832556224 -0.2085157739 -0.0696055424)
(-0.1648177598 -0.2165538381 -0.07561331976)
(-0.1700033534 -0.2384301333 -0.05045105719)
(-0.1475276194 -0.2478285577 -0.01791850895)
(-0.1695070923 -0.3196174748 -0.08851061255)
(-0.1991461406 -0.3125346973 -0.1963128688)
(-0.03857585566 -0.2462126004 -0.4435756327)
(0.1901214066 -0.2063593113 -0.1784534227)
(0.2140823755 -0.1432889717 -0.0769385114)
(0.2121407246 -0.0667001818 0.01188621836)
(0.1668234191 -0.1129414943 0.07539808872)
(0.07352074766 -0.1912852003 0.1766602538)
(-0.1801941662 -0.06076792827 0.2118104001)
(-0.3414806227 -0.04502216883 0.1200735601)
(-0.4389704901 -0.1108157835 0.03321609975)
(-0.4808497981 -0.1669362888 -0.02948466413)
(-0.4908276137 -0.2191833487 -0.05743719315)
(-0.4810601178 -0.2579247603 -0.07291843066)
(-0.4705615334 -0.2771875237 -0.1629207185)
(-0.12666382 0.5281376617 0.09515382817)
(-0.1431114422 0.4552355388 0.01359034909)
(-0.1860325166 0.4462479467 0.02730965333)
(-0.2368413488 0.4693877501 0.09910250294)
(-0.338849211 0.4403550219 0.15660938)
(-0.539008289 0.2716373852 0.2003508934)
(-0.9849259919 0.1157123819 -0.2689063627)
(-1.080431333 0.1932621392 -1.396904278)
(-0.7105609069 0.3051810056 -2.091549346)
(-0.1685171784 0.1679800206 -1.423574322)
(0.5253698935 -0.03959544707 -0.2217619833)
(0.0939471088 -0.1108637595 0.1208200437)
(-0.0774779437 -0.1186197868 0.01238174829)
(-0.1778705163 -0.1149123846 -0.0731368765)
(-0.1785011225 -0.1074961724 -0.1254249608)
(-0.1728756231 -0.1084437435 -0.1299785168)
(-0.1731788708 -0.1215590441 -0.1063477307)
(-0.2022775238 -0.131284352 -0.1066954862)
(-0.2413559016 -0.1850611995 -0.1856589625)
(-0.2065863799 -0.1852759907 -0.2896258959)
(-0.003115733831 -0.1123736885 -0.3753448858)
(0.2168370579 -0.1374777557 -0.2712217193)
(0.2998150273 -0.1428413323 -0.1769245266)
(0.3291421835 -0.1431406619 -0.08510550025)
(0.2763054053 -0.1908222699 0.01853004902)
(0.177410329 -0.2256375399 0.1602485232)
(-0.1608916406 -0.06691359746 0.1807974311)
(-0.3274217301 0.00466385628 0.0262941403)
(-0.4027806674 -0.008799651843 -0.08696383635)
(-0.4586794173 -0.03719096564 -0.130301105)
(-0.5035141478 -0.0501866814 -0.1334137268)
(-0.560311689 -0.05349630893 -0.156072257)
(-0.6465874056 7.892708279e-05 -0.3766585676)
(-0.1070260755 0.5034190831 0.117253332)
(-0.139488814 0.4164406855 0.06000709751)
(-0.1983892598 0.3618513064 0.1015442587)
(-0.223061932 0.3091985092 0.1960453235)
(-0.2629689652 0.263045562 0.2471336904)
(-0.3267783766 0.2479771984 0.2886714601)
(-0.5878847208 0.3592977958 0.1824106503)
(-0.8060691644 0.6412677631 -0.4675906296)
(-0.6087630198 0.738172697 -1.257195492)
(0.02321928154 0.5083650999 -0.346256225)
(-0.04431778445 -0.0249351603 0.1757426015)
(-0.1510713987 0.09367315493 0.02000385013)
(-0.214040968 0.04302655828 -0.05567635367)
(-0.2191969924 0.0595755923 -0.1039441625)
(-0.212286531 0.07003770592 -0.1174369716)
(-0.2093579793 0.07773043105 -0.1060755078)
(-0.2399225319 0.07697184097 -0.1093930792)
(-0.2891020076 0.07202360363 -0.1609982718)
(-0.3008957413 0.05048726912 -0.2362711757)
(-0.20581009 0.04952066947 -0.3320238404)
(-0.003940861841 0.07594306048 -0.3598686012)
(0.2357233008 -0.01857984447 -0.2726084582)
(0.3496860889 -0.06800706693 -0.1751771625)
(0.3702863029 -0.08680946884 -0.09668431625)
(0.3079356622 -0.1249487501 0.008407037314)
(0.1891673096 -0.1611288068 0.1409521504)
(-0.2064131911 0.01786049997 0.1528387654)
(-0.3581623275 0.08299473151 -0.01721247989)
(-0.4182624503 0.1143378906 -0.1247944001)
(-0.4370798198 0.1158757365 -0.1371191626)
(-0.4741655725 0.1280570244 -0.0762324325)
(-0.485435778 0.1463847988 -0.06144142265)
(-0.4815685574 0.1899349251 -0.09840621668)
(-0.08681301324 0.4473207002 0.1586143538)
(-0.1478922847 0.3328741619 0.1256348838)
(-0.2397481087 0.19458019 0.1398020026)
(-0.2877315204 0.04797449845 0.1177303658)
(-0.3093920055 -0.02762730614 0.07785371086)
(-0.3285333055 -0.01210404521 0.1420523814)
(-0.4332275998 0.0760851659 0.2318234989)
(-0.5025832289 0.2956244761 0.1891238811)
(-0.3807107065 0.5121562244 -0.1331197338)
(-0.03922000321 0.1548451668 0.1942511944)
(-0.05593274971 -0.1228962031 0.1412719732)
(-0.09672564179 0.06981673974 0.05409158334)
(-0.1514992846 0.1057138392 -0.01501750628)
(-0.1888659502 0.1429256992 -0.05515525718)
(-0.1969862532 0.1740037223 -0.05635983721)
(-0.2182459453 0.1985762566 -0.03646862486)
(-0.2808000429 0.2100026756 -0.0506346997)
(-0.3470928436 0.1986108647 -0.117362913)
(-0.3450722313 0.1716866733 -0.1799099447)
(-0.2452510112 0.1639398047 -0.244047534)
(-0.04921601482 0.1371156588 -0.3043008893)
(0.2158232728 0.01494921514 -0.2191401675)
(0.3246005593 -0.05216650219 -0.1194172732)
(0.3401225754 -0.07477964052 -0.0174398011)
(0.2097355929 -0.09190762679 0.09981690951)
(0.01372484214 -0.06622665414 0.140138074)
(-0.2404882559 0.07052846038 0.1482267699)
(-0.4031143248 0.1242551402 0.02921414265)
(-0.4788992115 0.1636291069 -0.04121942866)
(-0.5156459677 0.1669284706 -0.04167815457)
(-0.5310053971 0.1446067484 0.00158126906)
(-0.502875846 0.1233271941 0.0376998041)
(-0.4144746904 0.1299653036 0.07120136855)
(-0.0634939419 0.3358145549 0.1715310421)
(-0.135514319 0.2285352231 0.1533572877)
(-0.2440826778 0.09186629053 0.09475679743)
(-0.2923338299 0.01350159672 0.008329230027)
(-0.2971349942 -0.004275599026 -0.01879747282)
(-0.2959222315 0.009653228476 0.03334998001)
(-0.3346976289 0.04615789055 0.1355988531)
(-0.3742526637 0.08022749725 0.2128588935)
(-0.3053321099 0.04726723963 0.1944802426)
(-0.1833744287 -0.2294950138 0.006976571282)
(-0.112082037 -0.2879913701 -0.1278058255)
(-0.04358665351 0.08275988031 0.1066409905)
(-0.1493357556 0.1894768225 0.06908154138)
(-0.1649201745 0.2180358448 0.005958453129)
(-0.1881883862 0.2482098641 0.004958364156)
(-0.2272904382 0.2744686549 0.01556052234)
(-0.3128793283 0.2859961441 -0.006161641207)
(-0.3871988469 0.2761356146 -0.08067702246)
(-0.370143107 0.251663252 -0.1546008232)
(-0.2712769447 0.2326525019 -0.2132431374)
(-0.1071322308 0.1948977584 -0.2833902466)
(0.1371733314 0.06239342803 -0.3010722021)
(0.2598256844 0.003479214448 -0.2006170554)
(0.2858986399 -0.04090841606 -0.09460815909)
(0.1548158227 -0.09042787081 0.08575116206)
(-0.09212517563 -0.05446872709 0.2015637592)
(-0.278743426 0.05938654233 0.160204646)
(-0.4300216534 0.1258383737 0.07048059352)
(-0.5150891605 0.1570762733 0.01890369687)
(-0.565387587 0.1487719616 0.01300646572)
(-0.5774730319 0.0988693947 0.02419188638)
(-0.5266752938 0.01925859009 0.02417501027)
(-0.3974606353 -0.06521205718 0.004524062941)
(-0.07392837744 0.2204252912 0.1585705425)
(-0.1709938157 0.146234229 0.1061004539)
(-0.2885525862 0.07303099064 0.0108605084)
(-0.3205595429 0.03692435302 -0.04808042673)
(-0.3124830828 0.01752549308 -0.06163080754)
(-0.2988684936 -0.002461270916 -0.02955054648)
(-0.3054113474 -0.03290922868 0.01582597458)
(-0.3427562745 -0.07988866744 0.002826520939)
(-0.3617044811 -0.1696897505 -0.1285668793)
(-0.3039453435 -0.2535755367 -0.3368582626)
(-0.2201074332 -0.2161662963 -0.3996923722)
(-0.07711940004 -0.0202345258 -0.1023894945)
(-0.07633885605 0.1172838588 0.07232915214)
(-0.1622767828 0.157291627 0.03777335837)
(-0.1859853072 0.2200715469 0.03760761999)
(-0.2286051265 0.278353898 0.05199566885)
(-0.3132491594 0.3119339303 0.03338322825)
(-0.3799185345 0.3171289069 -0.04441900558)
(-0.3687024533 0.3128604084 -0.1288848958)
(-0.2842603165 0.2957331427 -0.1951811195)
(-0.1379450201 0.263562061 -0.2714673874)
(0.06921168666 0.1842963557 -0.348237134)
(0.193502351 0.08810323797 -0.2450085337)
(0.2152352047 0.01514244364 -0.1224600723)
(0.1017764101 -0.02524762533 0.09824506864)
(-0.1202006473 -0.05371717126 0.1895111696)
(-0.278894739 0.03110682513 0.1789101775)
(-0.4307116937 0.1115634213 0.1100989124)
(-0.525684753 0.1452557097 0.05088950785)
(-0.588724949 0.1330774712 0.01510169083)
(-0.6020833289 0.07338000542 -0.03451061519)
(-0.5283896727 -0.01701857353 -0.1231084572)
(-0.3578410728 -0.0996106096 -0.2237115926)
(-0.1175607204 0.1820062573 0.1487988483)
(-0.2318866859 0.1603697124 0.05169980877)
(-0.3452500814 0.141916249 -0.01999286078)
(-0.3903905539 0.1352716204 -0.04219507845)
(-0.4352466529 0.1287057779 -0.03216014048)
(-0.5131585244 0.1235437789 -0.0511375666)
(-0.6085606065 0.1464418129 -0.1857879966)
(-0.6431712449 0.1937031623 -0.3900478136)
(-0.5892305182 0.2175934029 -0.5702900086)
(-0.426913187 0.1964347626 -0.7087527679)
(-0.2088956439 0.2215231719 -0.7818738425)
(0.103450044 0.2846108419 -0.5039674739)
(0.2227563675 0.2225811982 -0.1699699195)
(0.004876694696 0.1759151231 0.04427905623)
(-0.1262048723 0.2155064061 0.0328614199)
(-0.1630010455 0.2700313078 0.07647927484)
(-0.2624381834 0.3042464885 0.08600554448)
(-0.3341068105 0.3130248891 0.01407364947)
(-0.3297826047 0.3211357819 -0.08111091018)
(-0.2597571319 0.3146828447 -0.1556133483)
(-0.141149242 0.2960623331 -0.2179428584)
(-0.01235691094 0.2441402802 -0.2644710746)
(0.1064225519 0.1340115097 -0.1060857108)
(0.02939233872 -0.005404104619 0.1745370503)
(-0.1019475112 -0.06641722471 0.2048974865)
(-0.1998039212 -0.05959659777 0.174409822)
(-0.308725841 -0.01664856548 0.1710923014)
(-0.4201102323 0.05945149929 0.123569855)
(-0.5134845988 0.1121861358 0.04231965695)
(-0.5879926495 0.1389064711 -0.05016965584)
(-0.608727543 0.1395255849 -0.1659484528)
(-0.535093196 0.1061813338 -0.3127345012)
(-0.3404272292 0.04356816776 -0.4541596027)
(-0.1018739135 0.1871192874 0.143596361)
(-0.2307106657 0.2058323534 0.01948460294)
(-0.3354600207 0.2238096472 -0.02177589826)
(-0.3739876078 0.2427314059 -0.03356152086)
(-0.4177802904 0.2678951815 -0.01442136089)
(-0.5037192059 0.2995514206 -0.02251074763)
(-0.6227262864 0.341220507 -0.1585017132)
(-0.6796648175 0.3924470805 -0.3784920945)
(-0.6300306464 0.4385371587 -0.5429667591)
(-0.4474534654 0.4497719926 -0.6497214948)
(-0.2264956646 0.4517192744 -0.7404072219)
(0.2205814049 0.4030552943 -0.4438443298)
(0.2695747681 0.3498573157 -0.1258703475)
(0.02412313777 0.3143578604 0.07330001418)
(-0.1202147096 0.2866679541 0.05251932607)
(-0.1494051276 0.2838270601 0.09860820558)
(-0.223884997 0.2670061873 0.1332615246)
(-0.2724238382 0.2523857797 0.09398148742)
(-0.2676451778 0.248165428 0.01972214249)
(-0.2218323681 0.2571768123 -0.06491763547)
(-0.1471698426 0.2696612618 -0.1379153791)
(-0.07526547254 0.2074319207 -0.1327514727)
(-0.04699686681 -0.0582600833 0.1814159932)
(-0.1118653945 -0.1842722543 0.1966601751)
(-0.1563664114 -0.1893550694 0.1439979612)
(-0.2038630902 -0.1664913468 0.1475665269)
(-0.2701174407 -0.1046002833 0.1849200725)
(-0.3883596084 -0.0004816800576 0.187134192)
(-0.532343188 0.1033194752 0.07001230399)
(-0.6403665046 0.189487119 -0.1075671966)
(-0.6721877207 0.2646725594 -0.2730700449)
(-0.5986828909 0.3075605565 -0.4094234231)
(-0.3987540114 0.2951726711 -0.5548450195)
(-0.0683675002 0.1341444612 0.1041018677)
(-0.2278648493 0.2668300334 -0.00833965131)
(-0.3128246251 0.2958875184 -0.01750086266)
(-0.3444237439 0.3181584002 -0.02576104029)
(-0.3736942319 0.353588235 -0.00059132866)
(-0.4305719196 0.4063510144 0.02625132942)
(-0.5305121928 0.4760444715 -0.0481892741)
(-0.603725341 0.553432199 -0.2659868414)
(-0.577007425 0.6171687195 -0.4768535616)
(-0.4198097689 0.6399013849 -0.5930200375)
(-0.2824281682 0.5892606625 -0.6594120605)
(0.2219318603 0.446916667 -0.2419842388)
(0.05516503499 0.3922005467 0.09004465504)
(-0.08856883899 0.3430235185 0.09713095939)
(-0.156943387 0.2656557625 0.06258649515)
(-0.1580904647 0.2137664225 0.107086399)
(-0.2174388026 0.1754717523 0.1368147462)
(-0.2568449889 0.1602318328 0.1225960854)
(-0.2527315869 0.169761437 0.08858503594)
(-0.194678843 0.1865314224 0.05098962462)
(-0.1417500944 0.1892191949 0.06058452974)
(-0.06725998119 0.08762159396 0.0977279833)
(-0.08472101489 -0.260073842 0.1706210159)
(-0.1412554812 -0.303368273 0.1100522453)
(-0.1607931326 -0.2839027548 0.07381218372)
(-0.1787746405 -0.2550559237 0.082044731)
(-0.2035741797 -0.2025297956 0.1305864908)
(-0.2712933249 -0.09110985561 0.2014214191)
(-0.4145336963 0.06763399781 0.1913904582)
(-0.5782245069 0.2092482541 0.01944706469)
(-0.6874073511 0.3377205964 -0.2122111039)
(-0.6660692807 0.441758913 -0.3703175969)
(-0.5182659388 0.4935896729 -0.5124583911)
(-0.1328432814 0.2470844651 0.05369604011)
(-0.2273878325 0.3290620051 -0.00668627087)
(-0.303946738 0.3494862293 -0.0181155943)
(-0.3191251491 0.3681411197 -0.02782408478)
(-0.3313774407 0.4013328971 -0.007898294064)
(-0.3546898821 0.4531186885 0.03520596713)
(-0.4174090411 0.5233164986 0.04182861543)
(-0.4928191125 0.6099631461 -0.08420224616)
(-0.5010693899 0.6840627666 -0.3032112323)
(-0.3834410059 0.6946175733 -0.4674111961)
(-0.2771135917 0.581454889 -0.5042750029)
(0.0692846458 0.353400734 -0.01146842387)
(-0.1733406377 0.3909579775 0.1706861596)
(-0.2032262131 0.3325577567 0.05918908606)
(-0.2359910443 0.2595038679 0.01507524512)
(-0.2155586151 0.2037347928 0.0266382231)
(-0.226702653 0.1705777444 0.04727939894)
(-0.225881108 0.137650089 0.08762687621)
(-0.2269762177 0.09365948854 0.151954905)
(-0.2319818611 -0.0150532183 0.190573696)
(-0.2248103619 -0.146164852 0.1761251404)
(-0.1667007945 -0.2497522871 0.1502329834)
(-0.1600527946 -0.3861368832 0.08286069868)
(-0.1719595605 -0.3915807819 0.04426036514)
(-0.1613146818 -0.3480758648 0.02032065411)
(-0.1544410867 -0.314874659 0.02369671479)
(-0.1548959046 -0.271331983 0.05614979009)
(-0.1879006636 -0.1845600332 0.1110566879)
(-0.2475752621 -0.03705955368 0.1855156154)
(-0.3891851903 0.1659428773 0.2005319344)
(-0.5786328519 0.3893358305 -0.0004607097819)
(-0.6891437593 0.5714428254 -0.2838843131)
(-0.6414125391 0.6900566168 -0.5371584076)
(-0.1395732006 0.3143729895 0.08359620046)
(-0.2177567471 0.3612189985 0.008268680055)
(-0.2902300875 0.380938191 -0.02067277087)
(-0.3000055925 0.3975455486 -0.0348892143)
(-0.303232914 0.4233625426 -0.02327123764)
(-0.3054725822 0.4617606121 0.01662451284)
(-0.3344215392 0.5137347933 0.06640473514)
(-0.3874668238 0.5843570478 0.0536225218)
(-0.4121492323 0.6656838859 -0.0726804819)
(-0.3409740555 0.7000221032 -0.2411135284)
(-0.231290979 0.5789726309 -0.2783985683)
(-0.1090316443 0.328881396 0.05338519499)
(-0.2596226362 0.3839165564 0.1382387028)
(-0.2742586663 0.3320049055 0.04335382747)
(-0.2904041391 0.2856208775 0.01599446816)
(-0.2758827396 0.2211694874 0.05062111812)
(-0.2873229498 0.1381723726 0.1185163505)
(-0.3175703371 0.003298325557 0.1535262036)
(-0.3410408488 -0.1507453988 0.1047530597)
(-0.3185312563 -0.2543907006 0.04078900151)
(-0.283487469 -0.3331137257 0.01315017113)
(-0.2359206129 -0.405890741 0.01392833534)
(-0.2035140009 -0.4736081178 0.004191713002)
(-0.1727872592 -0.4454983184 -0.01203281111)
(-0.1419977954 -0.3651912366 -0.02011243374)
(-0.119921583 -0.31355654 -0.01787310298)
(-0.1078742323 -0.2640867834 -0.001165937345)
(-0.121625556 -0.1844539233 0.009240221814)
(-0.1266195443 -0.05554267854 0.018194198)
(-0.1409388087 0.08150056429 0.1351084356)
(-0.3040793912 0.3229253908 0.2140899411)
(-0.4952683462 0.6091353266 -0.02129292445)
(-0.5476209745 0.8239091594 -0.3636318494)
(-0.1368645939 0.342795799 0.1095923871)
(-0.2088983761 0.370203622 0.01891424837)
(-0.2756076178 0.3918716242 -0.0211505973)
(-0.2843282341 0.4099460753 -0.03858205705)
(-0.286088626 0.4277714901 -0.03209653448)
(-0.2816415207 0.4488582056 0.001706550613)
(-0.2929615581 0.4765246141 0.05719988956)
(-0.3238320245 0.518457504 0.09484380198)
(-0.3450399828 0.5784756058 0.06461495179)
(-0.3087330537 0.6238897752 -0.03420462984)
(-0.2116929832 0.5496936272 -0.07701785286)
(-0.1979471685 0.3330154296 0.05564295024)
(-0.2857491704 0.3458123979 0.1216236698)
(-0.3141946762 0.2920639167 0.0865885206)
(-0.3355891479 0.2330752951 0.09277558615)
(-0.3528110642 0.1303021285 0.1280537052)
(-0.3967264236 -0.004842233285 0.1180559464)
(-0.4339325142 -0.1390135453 0.0171862382)
(-0.4237426213 -0.2380531326 -0.07197122503)
(-0.3740660445 -0.3030599426 -0.1119288458)
(-0.3055536415 -0.3619194827 -0.1150646044)
(-0.2350169607 -0.4245903681 -0.09309767964)