/*--------------------------------*- C++ -*----------------------------------*\
  =========                 |
  \\      /  F ield         | OpenFOAM: The Open Source CFD Toolbox
   \\    /   O peration     | Website:  https://openfoam.org
    \\  /    A nd           | Version:  8
     \\/     M anipulation  |
\*---------------------------------------------------------------------------*/
FoamFile
{
    version     2.0;
    format      ascii;
    class       scalarField;
    location    "0.9/lagrangian/reactingCloud1";
    object      age;
}
// * * * * * * * * * * * * * * * * * * * * * * * * * * * * * * * * * * * * * //


196
(
0.2728249518
0.2677255459
0.2673834976
0.2622252162
0.2610726728
0.254648944
0.2545977746
0.2531200546
0.2516256778
0.2600318649
0.2492897843
0.24773074
0.2459318428
0.2459318428
0.2444327618
0.2402952981
0.2393358863
0.2387962171
0.236277761
0.2362177977
0.2324514823
0.2321539417
0.2281733825
0.2254142274
0.2235395649
0.2226207072
0.2163654889
0.2097267179
0.2173081472
0.2045806431
0.2029385541
0.2413746365
0.208472798
0.2370572831
0.1994561606
0.1992120926
0.1999453776
0.199239222
0.200208448
0.1975682727
0.1988316858
0.1796390032
0.197374095
0.16525657
0.1970124744
0.2005583429
0.1643603425
0.1637161789
0.2004466743
0.1616436527
0.2333956547
0.2301538518
0.1701298075
0.2009843379
0.1585348633
0.229304716
0.1918065502
0.1550059672
0.1760438884
0.1542497752
0.228359845
0.1984495974
0.1522332632
0.2498894167
0.1700457861
0.1981479095
0.1517291351
0.188209069
0.2016534848
0.1999180925
0.2233041692
0.1876187598
0.1795828205
0.2011036516
0.1814087589
0.1571905219
0.1437820831
0.1848084803
0.142756037
0.1772513799
0.200364784
0.2205670478
0.2218657707
0.201995874
0.1337892658
0.1337892658
0.133324407
0.1330472448
0.1327613969
0.1323158785
0.1500487084
0.2023620897
0.1296823989
0.1286132227
0.1269283343
0.2139866821
0.2132644939
0.2405951143
0.1958401126
0.2149264002
0.2086493146
0.2024134394
0.2059419852
0.2011036516
0.2026339795
0.209623849
0.1310545242
0.1326151363
0.1189815606
0.2091745053
0.200156336
0.2050374614
0.2098633546
0.2087196343
0.2079393393
0.1150077227
0.2103696711
0.2111582127
0.2062448454
0.2026339795
0.2121300851
0.1074481663
0.216528776
0.1071676509
0.2080466277
0.1015496103
0.1573585646
0.1457636204
0.09275177971
0.208860134
0.08978299576
0.1502447582
0.2195752958
0.1512530142
0.07944957441
0.07944957441
0.234247606
0.07864473068
0.07818481997
0.2664702056
0.07539255698
0.07432648994
0.09413454148
0.1222820255
0.2037484158
0.0921824718
0.2601477565
0.2601477565
0.08622040716
0.05912080806
0.08219678815
0.2203309163
0.05540907694
0.1260746362
0.1746681301
0.1461277128
0.1764931875
0.2327969795
0.07022384026
0.07415918803
0.04437231565
0.141408914
0.1426064608
0.1160999502
0.2543969044
0.140256512
0.06213885865
0.03796778353
0.1386862952
0.1089808862
0.110091646
0.05411553447
0.2229507657
0.04378968562
0.04819915734
0.0441400031
0.126621322
0.1323158785
0.133324407
0.01629290844
0.05216885337
0.1662928332
0.01172918802
0.01083350457
0.09760726278
0.07760993159
0.1574425859
0.03605572704
0.07268414741
0.1262864838
0.02807786674
0.002753810254
0.02405250949
0.06118853182
0.03809006302
0.02205087347
)


// ************************************************************************* //
