/*--------------------------------*- C++ -*----------------------------------*\
  =========                 |
  \\      /  F ield         | OpenFOAM: The Open Source CFD Toolbox
   \\    /   O peration     | Website:  https://openfoam.org
    \\  /    A nd           | Version:  8
     \\/     M anipulation  |
\*---------------------------------------------------------------------------*/
FoamFile
{
    version     2.0;
    format      ascii;
    class       scalarField;
    location    "0.9/lagrangian/reactingCloud1";
    object      d;
}
// * * * * * * * * * * * * * * * * * * * * * * * * * * * * * * * * * * * * * //


196
(
0.0005380312029
0.0007541753432
0.0005835652308
0.0009117126465
0.0005858459327
0.0005880987713
0.000709171271
0.0006833817644
0.0005359459351
0.0007005168229
0.000546396792
0.0005886754605
0.0007981773752
0.0006269447177
0.0005474166427
0.0005516653332
0.0005521946869
0.0005234640289
0.0007893807893
0.0005247982488
0.000533506078
0.0005665743101
0.0006201352731
0.000722058247
0.0009105329714
0.0007062206356
0.0005793205803
0.0005701707177
0.0007351772888
0.0008128028533
0.000746802102
0.0007316455987
0.001171960001
0.0005272422973
0.0008105892089
0.0006394293781
0.0006610790348
0.0007301990769
0.0006381193364
0.001029972214
0.0005597596124
0.000849148393
0.0005331210055
0.00072809097
0.000632160165
0.0006072478891
0.0005258571132
0.0005840297256
0.00114821645
0.0007001249046
0.0005024124484
0.0008283353735
0.0007605094543
0.000719952717
0.0007014659743
0.0005895893902
0.001079961443
0.0007198317345
0.0005212770924
0.0005542147371
0.000618010942
0.000846393237
0.0006557633465
0.0006286463945
0.0006362990015
0.0005497112485
0.000695264881
0.0009762013359
0.0007849637921
0.00053200974
0.0008329314519
0.0006088530777
0.0006679170894
0.000798412272
0.0008278298158
0.0009730315248
0.0006006217517
0.0008392779277
0.0007065396652
0.0006898733781
0.0005152252702
0.0006664293631
0.001035868636
0.0006251452602
0.0006197598923
0.0007677139732
0.0008369074052
0.0008248851971
0.0006318813039
0.0006008790845
0.0005880987713
0.0005509889141
0.0007260140523
0.0005251251211
0.0006246258127
0.0007838866682
0.0007113468745
0.0006332468146
0.0008282307095
0.0009494196694
0.0007596520716
0.0007687975909
0.001026681883
0.0009475471297
0.00074295505
0.0006935796377
0.0007531481036
0.0007313749466
0.0005227627559
0.0006516593492
0.0005945304816
0.0007035182967
0.001080711796
0.0005657371147
0.000658261236
0.0005659072505
0.0006877534905
0.0007099934585
0.0008133518931
0.0007302050388
0.0009692959135
0.001169019674
0.001198197942
0.0005250752483
0.0007223227446
0.0006842959714
0.0005378930204
0.0006821170552
0.000708214
0.0005549332298
0.001140543855
0.0009452905494
0.0007555906739
0.0005540952161
0.001158209207
0.0008758253129
0.0007753865217
0.0005266957624
0.0006960900498
0.000524537891
0.0006183914934
0.0008742928644
0.0008133518931
0.0005268657335
0.0005398100285
0.001147821696
0.0004193170202
9.815018386e-05
0.000798412272
0.0006623203703
0.0007301990769
0.000721850824
0.0007422786067
0.0008094891584
0.000538144517
0.000843937207
0.0006649311656
0.0006184742267
0.0009762013359
0.001011916923
0.0006862994587
0.0005779920539
0.0008206739365
0.0009895466867
0.0006103275135
0.0005725601378
0.0005542147371
0.0005982876307
0.000636827603
0.001122399794
0.0009745250784
0.0006246258127
0.0006856854143
0.0007438125387
0.000610056469
0.0006008790845
0.0007955793046
0.0005523243623
0.0009510957071
0.000920778852
0.0005738276944
0.0008018479559
0.0007722289343
0.0005913984501
0.0006505520864
0.0005494220659
0.001011916923
0.001177540182
0.00111843449
0.0007798457812
0.0008695499603
0.0006638904271
0.0008883715962
0.0005893332998
0.0008758253129
0.0006095619536
)


// ************************************************************************* //
