/*--------------------------------*- C++ -*----------------------------------*\
  =========                 |
  \\      /  F ield         | OpenFOAM: The Open Source CFD Toolbox
   \\    /   O peration     | Website:  https://openfoam.org
    \\  /    A nd           | Version:  8
     \\/     M anipulation  |
\*---------------------------------------------------------------------------*/
FoamFile
{
    version     2.0;
    format      ascii;
    class       scalarField;
    location    "0.9/lagrangian/reactingCloud1";
    object      nParticle;
}
// * * * * * * * * * * * * * * * * * * * * * * * * * * * * * * * * * * * * * //


196
(
185.8368331
100.1676687
100.1601507
100.041348
100.8141171
100.4116614
100.4342293
100.0994913
101.0338304
108.7305036
101.0613103
100.332745
100.0326194
100.5992538
100.4299342
100.3513055
100.5220283
100.2553276
100.0185321
100.1029487
100.1915829
100.8777029
100.0178227
100.2094299
1044.85042
102.0680171
211.7981793
100.0597112
100.002013
100.0155722
321.6393513
103.6323208
218.6929392
103.0210782
103.9703845
108.3380779
105.430519
100.053601
103.3777554
100.8370145
104.5992994
100.0579898
101.6576343
115.8364797
103.8829787
101.5106123
102.753355
100.0055175
100.3657321
100.0736749
101.627508
100.5916078
100.0316583
100.6425161
100.021273
101.4979599
100.1218526
100.0694608
6721.032966
100.0911398
101.9053139
100.9629455
100.345218
101.1492791
3685.397458
104.2226067
103.059362
100.1275438
100.3155093
104.7735192
100.2509296
101.5820223
100.6640167
101.9676374
170.8380357
100.0582083
100.0735752
100.2100243
131.1021637
100.6388425
102.4009542
101.2426411
100.0140677
100.5890082
232.120211
102.0511334
100.403835
100.2162015
259.7767689
103.4810606
4667.853755
107.1893088
100.4223941
100.4273127
100.0297558
102.50625
102.7886718
100.0632022
100.005024
100.6009644
101.5965888
128.8923702
100.4733286
100.0775854
260.1260932
101.1383856
154.7167962
119.5996165
157.702909
102.605673
100.2674636
103.287296
100.0847523
102.3044085
103.987874
100.1983987
101.3764751
102.4722935
100.6638964
328.3772679
100.9894882
743.9765496
100.2442478
123.668079
2564.468186
100.0027489
101.267146
169.5722441
100.6126286
223.5405687
100.0078247
100.0801962
102.9325258
100.5616558
100.191777
122.8671915
100.241272
114.4053345
104.9348723
100.494885
100.0551142
101.1298641
1851.204643
100.2495883
441.3963539
614.9890996
2381.372201
185686.9574
1833.401164
100.1391497
2396.708825
103.1481481
100.4550616
100.4027445
100.3103029
100.6425091
100.0517432
100.0094571
1020.366467
876.5687087
100.3937033
102.1837197
100.1968763
986.9848269
100.1544017
102.122665
5831.236801
100.2867782
101.6787144
110.7595895
367.4914415
3999.353739
100.0219384
100.1623068
4262.969919
4592.391766
100.1488313
100.4262484
100.2846479
100.0258528
4906.915171
100.0956887
2133.836715
100.2818605
216.875387
545.3661535
100.0521319
585.9270881
100.0707027
195.4593138
1433.232948
100.2080243
1360.464279
100.8522693
1390.803114
4219.956643
)


// ************************************************************************* //
