/*--------------------------------*- C++ -*----------------------------------*\
  =========                 |
  \\      /  F ield         | OpenFOAM: The Open Source CFD Toolbox
   \\    /   O peration     | Website:  https://openfoam.org
    \\  /    A nd           | Version:  8
     \\/     M anipulation  |
\*---------------------------------------------------------------------------*/
FoamFile
{
    version     2.0;
    format      ascii;
    class       labelField;
    location    "0.9/lagrangian/reactingCloud1";
    object      origId;
}
// * * * * * * * * * * * * * * * * * * * * * * * * * * * * * * * * * * * * * //


196
(
190
195
196
203
205
210
211
213
215
451
218
220
224
225
227
233
235
237
238
239
243
244
245
246
247
249
251
253
151
153
154
458
152
460
542
544
540
543
538
548
545
160
549
254
550
535
255
256
536
257
464
465
167
534
258
467
553
259
377
260
468
546
261
456
380
547
262
554
530
541
472
555
558
533
557
174
263
556
264
559
537
484
478
529
265
266
267
268
269
270
390
528
271
272
273
500
501
146
551
498
515
527
521
532
526
510
582
579
274
511
539
522
509
514
517
275
507
504
520
525
503
276
493
277
361
278
563
567
279
513
280
175
487
565
283
284
463
285
286
198
287
288
418
591
524
419
289
290
422
292
424
485
294
587
164
177
162
242
430
428
295
180
179
407
212
181
434
296
182
197
196
438
248
232
441
443
584
184
183
297
439
171
298
299
623
209
562
447
212
586
451
300
453
221
446
454
)


// ************************************************************************* //
