/*--------------------------------*- C++ -*----------------------------------*\
  =========                 |
  \\      /  F ield         | OpenFOAM: The Open Source CFD Toolbox
   \\    /   O peration     | Website:  https://openfoam.org
    \\  /    A nd           | Version:  8
     \\/     M anipulation  |
\*---------------------------------------------------------------------------*/
FoamFile
{
    version     2.0;
    format      ascii;
    class       Cloud<basicReactingMultiphaseParcel>;
    location    "0.9/lagrangian/reactingCloud1";
    object      positions;
}
// * * * * * * * * * * * * * * * * * * * * * * * * * * * * * * * * * * * * * //

196
(
(0.2889492708 0.6468016021 0.06207905213 0.002170074978) 1236 3635 2
(0.1366104393 0.4532224227 0.2296893497 0.1804777883) 1038 3047 2
(0.1316408437 0.6154151458 0.1738362226 0.07910778787) 74 222 1
(0.1489805316 0.2593903481 0.5462531409 0.04537597937) 1104 362 1
(0.3360295358 0.02000849741 0.0006991072034 0.6432628596) 1058 3106 2
(0.3182754005 0.1667214358 0.4497518228 0.0652513408) 3057 8975 2
(0.3469527121 0.3320360676 0.1136007877 0.2074104326) 3039 8918 1
(0.06103828298 0.3435220092 0.2363455497 0.3590941582) 1013 2975 1
(0.0004502211903 0.2517720561 0.4421706126 0.3056071101) 4993 11793 1
(0.07929494893 0.06157607465 0.8520428055 0.007086170892) 214 202502 1
(0.2492866353 0.07136493234 0.2888456148 0.3905028176) 2029 5865 2
(0.09296785879 0.2899790907 0.2125652384 0.4044878122) 4993 11793 1
(0.2260410134 0.553040131 0.07105254738 0.1498663082) 3227 6607 1
(0.4094216781 0.1626838157 0.2974683038 0.1304262025) 4104 12044 1
(0.7385547777 0.1038346155 0.01608385181 0.1415267549) 3012 5960 1
(0.2333726827 0.134296557 0.2738871078 0.3584436524) 5146 15094 2
(0.01576484203 0.08926965623 0.4673573743 0.4276081274) 5112 14994 2
(0.2022021033 0.1845872115 0.3998623634 0.2133483217) 3994 11713 1
(0.5292750661 0.009857466847 0.1448283485 0.3160391185) 4962 14557 2
(0.3265311346 0.4099934488 0.1780459241 0.08542949239) 7044 20659 1
(0.05280637895 0.2123413057 0.5904465097 0.1444058057) 8905 23303 2
(0.06184632361 0.1180140162 0.6727534764 0.1473861838) 6898 20229 1
(0.4095568621 0.06000128102 0.08396499958 0.4464768573) 7046 20665 2
(0.4672191145 0.06258315214 0.3810688327 0.08912890074) 7858 23044 1
(0.3214906609 0.3956958038 0.1532466986 0.1295668366) 6137 17998 2
(0.2366612562 0.09602030704 0.5347676895 0.1325507472) 6211 15390 2
(0.2954587555 0.04802060576 0.5343736484 0.1221469904) 8935 26208 2
(0.3891219684 0.1733967127 0.4231457219 0.01433559698) 9922 29008 1
(0.05747236774 0.3490692571 0.2300618277 0.3633965474) 8006 23484 2
(0.08270131204 0.2208404102 0.1417310295 0.5547272482) 9896 29021 1
(0.3148284474 0.3375053192 0.1461640766 0.2015021568) 10818 31721 2
(0.05990142642 0.3196932145 0.4347265471 0.185678812) 5129 12200 1
(0.7406097767 0.01556929724 0.1626392212 0.08118170484) 8843 25934 2
(0.2442165958 0.1074951008 0.5710483525 0.07723995085) 5266 12607 2
(0.5988559105 0.1733029991 0.0067936499 0.2210474405) 11370 33356 2
(0.2313194451 0.2936558735 0.05634366134 0.4186810201) 11371 33261 2
(0.2348903764 0.3481849994 0.2110907085 0.2058339156) 11338 33260 1
(0.2441098183 0.1240099383 0.1047871318 0.5270931116) 11536 33751 1
(0.4059732064 0.1214615041 0.1320930827 0.3404722067) 11306 33166 2
(0.6950110279 0.1393978842 0.054508808 0.1110822799) 11402 33452 1
(0.00552821898 0.3689096117 0.5630196942 0.06254247506) 12451 36404 2
(0.0389710206 0.1444779259 0.7710362099 0.04551484358) 13571 39754 1
(0.1459236379 0.004435183966 0.7238634576 0.1257777205) 12318 36009 2
(0.0644168521 0.01468703067 0.6759755758 0.2449205414) 15392 45082 1
(0.3126687479 0.5695188123 0.007550336213 0.1102621036) 12318 36107 2
(0.3882508552 0.3642136359 0.04979153685 0.1977439721) 11440 33560 2
(0.004816655473 0.1694197304 0.02526557378 0.8004980403) 16323 45170 1
(0.3992596281 0.1433399463 0.3489317854 0.1084686402) 16375 47882 2
(0.1695319664 0.1714203921 0.6348337017 0.0242139397) 10326 30289 1
(0.03708536029 0.2743926694 0.07645884618 0.6120631241) 16290 47718 2
(0.4013752714 0.04875706898 0.2170773955 0.3327902641) 5268 15460 2
(0.451186854 0.3121123274 0.143091304 0.09360951457) 5298 15548 1
(0.2310866196 0.4082527315 0.1226086131 0.2380520358) 15415 45151 1
(0.08667817041 0.05939072324 0.7727099892 0.08122111718) 10427 30589 2
(0.3938845 0.2296565759 0.08425263635 0.2922062878) 16407 48062 2
(0.06650344899 0.1150351811 0.05029667457 0.7681646953) 5300 15460 1
(0.3849161242 0.1541634524 0.2862887492 0.1746316743) 12288 33274 1
(0.1160051704 0.06771219598 0.6685483734 0.1477342602) 17202 50391 1
(0.2199273761 0.1721304016 0.09073195293 0.5172102694) 12980 38040 2
(0.08016231285 0.2831232487 0.3126418204 0.324072618) 17140 50210 2
(0.1257125109 0.6754849075 0.001094897336 0.1977076843) 5300 15556 1
(0.3964421014 0.3321712986 0.2172680618 0.05411853824) 11476 33670 1
(0.05016027712 0.1198754259 0.4898525196 0.3401117774) 17204 50394 1
(0.2624378798 0.3867621352 0.0314909505 0.3193090345) 5077 14802 2
(0.06300913654 0.3444676448 0.3892397429 0.2032834758) 15803 46302 2
(0.3945556371 0.3361338851 0.2476302114 0.02168026639) 11445 33481 1
(0.006276454267 0.6525741206 0.1518923231 0.1892571021) 17312 50718 2
(0.1759512747 0.01507965151 0.1830333697 0.6259357041) 12389 36220 1
(0.3745674838 0.1855627911 0.1506607668 0.2892089583) 10298 30210 1
(0.2917768711 0.04518772218 0.3071608261 0.3558745806) 11380 30606 1
(0.3087585407 0.2859496583 0.0152706336 0.3900211674) 6301 18484 2
(0.02716037553 0.346835812 0.04873652332 0.5772672891) 13241 38814 2
(0.03798664983 0.350643408 0.3709492022 0.24042074) 14026 38426 2
(0.5361710944 0.04668010322 0.3181154212 0.09903338124) 10463 30602 1
(0.4012203206 0.07515496725 0.4492760054 0.07434870682) 13043 38131 1
(0.2052263035 0.0852209678 0.2708860809 0.4386666478) 16290 47720 2
(0.689717862 0.1173660776 0.08255417383 0.1103618865) 18231 53410 2
(0.1761110709 0.0952160501 0.4349449265 0.2937279525) 13307 38912 2
(0.1914715559 0.1284364058 0.02319665879 0.6568953796) 18118 53077 1
(0.4936419301 0.3920437351 0.08098860559 0.03332572925) 14093 41297 2
(0.02007246747 0.494619227 0.09456857741 0.3907397281) 11316 33196 2
(0.2057257618 0.3821745442 0.3655913091 0.04650838485) 7329 21505 2
(0.4732985777 0.1737868388 0.06367105623 0.2892435273) 6334 18587 2
(0.3538358964 0.2230687568 0.2018236191 0.2212717277) 10367 30317 1
(0.2085395943 0.1640426071 0.3958673925 0.2315504061) 19084 55914 1
(0.3108575947 0.07895692687 0.4672814562 0.1429040223) 19085 55916 1
(0.03922827197 0.1822075799 0.2947491749 0.4838149732) 19032 55759 2
(0.01364228503 0.6927919298 0.1035982568 0.1899675283) 19885 55576 2
(0.04598664004 0.2308141278 0.7122229752 0.01097625703) 19998 58507 2
(0.0569858659 0.106898772 0.3629201796 0.4731951825) 19036 55771 2
(0.4509912708 0.08108174613 0.2996865163 0.1682404668) 19392 56823 2
(0.1931156111 0.4849162877 0.1327891963 0.1891789049) 10303 30127 1
(0.05454454359 0.1390816202 0.2110465095 0.5953273267) 19954 58458 1
(0.1851321465 0.2305387674 0.3035526749 0.2807764112) 19885 58254 2
(0.1409217069 0.3252470425 0.2324110599 0.3014201907) 20061 58691 1
(0.3034464672 0.4063456333 0.06038714838 0.2298207512) 8258 24231 1
(0.3237973116 0.2017470747 0.2509030844 0.2235525294) 8291 24231 1
(0.2236056529 0.608805031 0.05086333597 0.1167259801) 6952 17563 2
(0.1545725447 0.6314842128 0.1662843406 0.0476589019) 11520 33798 1
(0.1137297407 0.3249410001 0.4541014875 0.1072277718) 8258 24133 2
(0.4885995819 0.1531270314 0.215581245 0.1426921418) 9152 26756 2
(0.01355082351 0.1126133155 0.5016170893 0.3722187717) 10078 29556 1
(0.6629122775 0.08763451115 0.05553249416 0.1939207172) 9152 26852 1
(0.1575342818 0.3931960129 0.1562646214 0.293005084) 10175 29750 1
(0.4869811358 0.2217642783 0.2241348715 0.06711971453) 10111 29560 2
(0.03986460528 0.1629294748 0.2968081195 0.5003978004) 9120 26756 2
(0.0834295478 0.07909297376 0.8151282471 0.02234923135) 19147 56100 1
(0.09817657587 0.2126042292 0.167115211 0.522103984) 19148 56099 2
(0.2140344411 0.6190202332 0.06610934574 0.1008359799) 20859 61223 1
(0.05725796621 0.6490109884 0.0587185787 0.2350124667) 9251 27141 2
(0.3790074599 0.0623453606 0.5407951912 0.01785198832) 10081 29567 1
(0.04763465066 0.04134939891 0.208196846 0.7028191044) 10079 26757 2
(0.1339985256 0.01415632103 0.1479953366 0.7038498167) 8291 24330 1
(0.08041810035 0.4664114489 0.3073700685 0.1458003822) 9219 27048 1
(0.09930997232 0.4391460022 0.1165498548 0.3449941707) 9252 27048 1
(0.09491990763 0.3053219719 0.4609517476 0.1388063729) 20948 61611 2
(0.08721537916 0.3682851019 0.1585005581 0.3859989608) 9955 26387 2
(0.07410052175 0.3124588439 0.05153433629 0.5619062981) 9924 29103 2
(0.5003121853 0.08069953867 0.1358486732 0.2831396028) 9252 27048 1
(0.1028001369 0.2535660531 0.1470186144 0.4966151956) 10144 29753 2
(0.02266969658 0.1345010167 0.640065049 0.2027642378) 9026 23662 1
(0.04550816735 0.2196938307 0.09202760183 0.6427704001) 55769 169360 2
(0.1879648329 0.02601052634 0.699804781 0.08621985967) 7201 21031 1
(0.1112581541 0.2125817077 0.6734273221 0.00273281606) 55896 169684 1
(0.0228721869 0.1432654973 0.2712010505 0.5626612653) 5938 17410 2
(0.07129063972 0.4494983216 0.2484216106 0.2307894281) 22791 67711 2
(0.1826030812 0.1948488139 0.1298868746 0.4926612303) 18171 50554 1
(0.3405919842 0.1112902954 0.2254567924 0.322660928) 18171 53150 1
(0.3886129617 0.2826981786 0.3161556367 0.01253322295) 57113 170506 2
(0.1703210091 0.3274057148 0.03578517417 0.466488102) 9058 26574 1
(0.1160964832 0.4988831115 0.3834016313 0.001618774064) 57104 207735 2
(0.1394965174 0.09536023272 0.4658650757 0.2992781743) 17140 50205 2
(0.4302618513 0.1501729427 0.02484611518 0.3947190908) 8037 23575 1
(0.5251765842 0.4262094295 0.01103913854 0.03757484778) 18173 50560 2
(0.1462894721 0.0794446136 0.008616167989 0.7656497463) 24571 73724 1
(0.06230157258 0.006365904034 0.4745577484 0.456774775) 24566 70545 2
(0.4582825016 0.2306090527 0.227778977 0.08332946867) 6115 17934 2
(0.1069766998 0.3082110113 0.07719060792 0.5076216809) 24567 73705 2
(0.5253035051 0.08812995178 0.01806194134 0.3685046018) 58203 73716 1
(0.07416635193 0.09704367382 0.08339378119 0.7453961931) 4114 9204 1
(0.2281981928 0.1345306001 0.4671266343 0.1701445728) 58064 175054 1
(0.263977243 0.346015191 0.2756242869 0.1143832791) 24566 73702 2
(0.04726171951 0.1242700823 0.02940114233 0.7990670559) 55024 167469 1
(0.1770414129 0.255266094 0.2030497702 0.364642723) 20950 61613 1
(0.3538506547 0.4110555595 0.124468329 0.1106254568) 9289 27255 1
(0.5942695115 0.03505420338 0.2712306157 0.09944566941) 62993 187081 2
(0.2211183376 0.07589220754 0.2372991134 0.4656903414) 4329 9854 2
(0.1836079556 0.06717684776 0.5378959132 0.2113192834) 6171 18098 2
(0.18200881 0.03392716062 0.4904916582 0.2935723712) 64213 188132 2
(0.7306266581 0.1697335872 0.0741480787 0.02549167598) 58875 177060 2
(0.5120969453 0.01588987754 0.211313725 0.2606994522) 63995 189582 2
(0.1885760162 0.6593878904 0.1230671868 0.0289689066) 8968 23490 2
(0.04778241753 0.0105516993 0.8777445793 0.06392130391) 58881 177074 2
(0.3217206598 0.06425522924 0.4737933802 0.1402307308) 20032 58694 2
(0.2058084403 0.06318345244 0.6967960037 0.03421210356) 15355 44978 2
(0.3155964938 0.4755108686 0.08007896951 0.1288136681) 18055 206270 2
(0.3198910898 0.03588287994 0.03187768515 0.6123483451) 15355 42323 2
(0.120846426 0.4274228413 0.3081716694 0.1435590633) 6987 20491 2
(0.07628653988 0.8034890994 0.08285211284 0.03737224789) 36588 111545 2
(0.006084726166 0.4181998672 0.4528820266 0.12283338) 64737 191422 2
(0.08968980303 0.3546702884 0.02653041485 0.5291094937) 58883 79711 1
(0.1081743588 0.6807705396 0.081432946 0.1296221556) 18970 52893 1
(0.2400435938 0.09288229852 0.1518316734 0.5152424343) 18055 206270 2
(0.5252355252 0.1264429546 0.2061412689 0.1421802513) 58911 79778 1
(0.05596109328 0.4131787324 0.01085334303 0.5200068313) 4052 11886 2
(0.2502193641 0.6162475905 0.07166232445 0.06187072089) 18970 206300 1
(0.6753748203 0.0432549205 0.1640639862 0.1173062731) 36562 114324 1
(0.2666137503 0.3702742963 0.04909627858 0.3140156748) 54643 79707 2
(0.2032112332 0.571347384 0.1517694813 0.07367190153) 18970 206300 2
(0.2092747881 0.4836807024 0.1304480466 0.1765964629) 55345 64029 2
(0.1956762032 0.4878602845 0.05811999425 0.2583435181) 21719 64021 1
(0.03242872403 0.1171990066 0.4531749923 0.3971972771) 39290 122395 2
(0.4402108119 0.05660575019 0.0686488292 0.4345346087) 7830 22957 2
(0.01093714514 0.2196346088 0.07452940504 0.694898841) 58876 79706 2
(0.01908124929 0.01818270804 0.4536678901 0.5090681526) 39265 122321 1
(0.1829177127 0.3267232013 0.1581299991 0.3322290869) 40148 124908 1
(0.2328787853 0.5002035883 0.06967312799 0.1972444984) 20004 58611 1
(0.1025573698 0.8285487123 0.01520332547 0.05369059245) 19885 206330 1
(0.08353454281 0.1028205277 0.09498812275 0.7186568068) 18970 206300 2
(0.1493589983 0.2743877223 0.4204199822 0.1558332973) 54647 166484 1
(0.01370562463 0.5990144167 0.02960501636 0.3576749423) 39210 122158 2
(0.2375735367 0.1204129002 0.3580687277 0.2839448354) 15327 44895 1
(0.001962241589 0.7695052705 0.1504106446 0.07812184333) 59904 166813 2
(0.1966190395 0.1960088119 0.4436221985 0.1637499501) 54646 166484 1
(0.4897416792 0.1585670266 0.2300366638 0.1216546303) 56630 171495 1
(0.1676961336 0.4951756321 0.2328409952 0.1042872391) 24490 73382 1
(0.1807237796 0.1859863915 0.180869334 0.452420495) 16350 47897 1
(0.4031420985 0.001150745919 0.1630760979 0.4326310577) 41066 127550 2
(0.1542708868 0.1472049542 0.4752585771 0.223265582) 24490 73385 1
(0.1222008204 0.3554336801 0.1084760325 0.4138894669) 20064 203976 1
(0.1346371307 0.5839323231 0.2224781741 0.05895237202) 42866 132859 2
(0.3282241913 0.233022853 0.1672594331 0.2714935227) 54646 202942 1
(0.2295425221 0.1035347312 0.1390046392 0.5279181075) 43782 135541 2
(0.1879659205 0.3853942647 0.3554812374 0.0711585774) 58859 207810 2
(0.0794580534 0.5019434321 0.2516206315 0.166977883) 41047 207019 1
(0.07332581911 0.1576573831 0.7516125355 0.01740426227) 43784 135544 2
)


// ************************************************************************* //
