/*--------------------------------*- C++ -*----------------------------------*\
  =========                 |
  \\      /  F ield         | OpenFOAM: The Open Source CFD Toolbox
   \\    /   O peration     | Website:  https://openfoam.org
    \\  /    A nd           | Version:  8
     \\/     M anipulation  |
\*---------------------------------------------------------------------------*/
FoamFile
{
    version     2.0;
    format      ascii;
    class       scalarField;
    location    "1.7/lagrangian/reactingCloud1";
    object      d;
}
// * * * * * * * * * * * * * * * * * * * * * * * * * * * * * * * * * * * * * //


139
(
0.0009140200781
0.0008046219538
0.0005172473998
0.0007668429094
0.0007536711687
0.0006918466607
0.0007957128903
0.0005113229253
0.0007796077272
0.000596940665
0.0008320160871
0.000793884029
0.000824430909
0.000849254928
0.0008933080618
0.0006174105247
0.0006793349644
0.0008891440916
0.0008057331499
0.0006706856034
0.0008870750112
0.0005841098923
0.0007228588445
0.000879745235
0.000946187772
0.0005715532529
0.0007582275222
0.0007072745881
0.0006199344071
0.0008468186524
0.0008943482256
0.0009326540716
0.0005685702542
0.0006589655767
0.0007002532016
0.0007838283244
0.0006684691678
0.0006538732963
0.0009726846664
0.0005910301124
0.0008556227007
0.0009688251891
0.0006091770153
0.0008064647163
0.0005437989691
0.0007682525413
0.0006613584093
0.001129905436
0.0005177523114
0.0005220555772
0.0007858347835
0.001010702296
0.001111419328
0.001069276583
0.0005200112427
0.0006924538836
0.0009729157252
0.0005166676594
0.0005107811307
0.0005756580314
0.0005340027821
0.0005868592809
0.0007802988997
0.0005466646223
0.0005392031251
0.0005761503261
0.0007413208878
0.000663539356
0.001136688786
0.0005853897674
0.0006165039966
0.0006136764289
0.0005106605981
0.0006553966735
0.0006356319491
0.000706412993
0.0007414736905
0.0006874760828
0.0006622022498
0.0005539428024
0.001157474487
0.0005904805016
0.0007230150462
0.0006231593228
0.0005598175951
0.0006707810256
0.0009561788042
0.0005966588836
0.0007039664188
0.0005632156625
0.0008583642832
0.00101844561
0.0005119878168
0.0009240274182
0.0005145075061
0.0005569622393
0.0005953126515
0.0007072992886
0.0008964058964
0.0007288097101
0.0006658060969
0.0005728271538
0.0005915138011
0.001002402989
0.0005914941688
0.0007501986151
0.0005239631796
0.0007845626464
0.0008231458325
0.000741955914
0.0008023134376
0.0009697792972
0.0007368030903
0.0005651908682
0.0008180213576
0.0005017742077
0.0008416493647
0.0009508009289
0.0005975950133
0.0005437989691
0.0005808538406
0.0005426593129
0.0008050921292
0.0005316617117
0.0006397220411
0.0005220555772
0.0007259969264
0.0006244186034
0.0006711407057
0.0006268843828
0.0009415284998
0.0005718688557
0.0005546778591
0.000855646676
0.0005200112427
0.0007249309281
0.0006906261129
0.0009803363828
0.001075433201
)


// ************************************************************************* //
