/*--------------------------------*- C++ -*----------------------------------*\
  =========                 |
  \\      /  F ield         | OpenFOAM: The Open Source CFD Toolbox
   \\    /   O peration     | Website:  https://openfoam.org
    \\  /    A nd           | Version:  8
     \\/     M anipulation  |
\*---------------------------------------------------------------------------*/
FoamFile
{
    version     2.0;
    format      ascii;
    class       scalarField;
    location    "1.7/lagrangian/reactingCloud1";
    object      nParticle;
}
// * * * * * * * * * * * * * * * * * * * * * * * * * * * * * * * * * * * * * //


139
(
100.1313659
101.4787811
489.6668542
698.6898251
294.0420339
302.5440363
100.8392625
1750.811079
101.0884674
101.791436
100.2461379
100.9570007
100.0290135
100.1495684
100.4237234
103.4077464
104.2753569
121.1309951
101.3145405
102.1612803
320.6603256
103.1050184
101.798639
102.7702418
101.5425029
108.7962051
100.8549949
106.3351228
107.321729
103.5214827
451.4117242
100.0593405
100.1893718
3303.151203
100.2611258
100.0465805
3196.341873
101.3579051
344.7597672
4614.675927
127.5577125
117.6530509
103.5836805
100.8118008
5878.305082
2128.420474
379.066592
100.2219526
6767.501604
6780.781443
109.3773418
939.7977705
100.1096621
100.3400512
6727.887512
2840.136329
101.8809335
111.399724
118.2671577
105.8182444
104.9961025
107.197221
2017.152267
107.740387
473.1992526
101.1176319
101.4702165
100.9251118
100.5254379
103.1377129
4098.565026
100.392637
7296.592422
102.3221758
161.9292301
2729.125185
189.7467985
102.9048875
102.5795786
100.4760649
101.0238331
4840.309515
106.3346661
3998.876154
101.9222621
100.2580163
100.3452343
101.9818427
173.5241991
101.0673392
100.2425745
100.1179868
100.0684574
1185.53073
101.8528399
5431.934276
113.8718706
2659.864874
100.062994
100.5595945
3175.842391
5260.110426
4552.762052
153.0855934
100.4205439
100.5921457
106.3615596
100.0626932
100.0610337
101.4895466
1852.269381
1050.42352
2395.128659
5366.228531
100.0812708
100.5126633
100.1896149
100.4706691
103.0305609
102.3989412
100.0089762
100.434052
1820.439297
100.20734
3671.403288
102.0004464
1766.595796
3935.098997
100.301514
3794.614097
100.21181
100.4648502
101.0398554
100.7000433
100.2083429
2506.133421
100.0232938
148.9049171
100.0973012
)


// ************************************************************************* //
