/*--------------------------------*- C++ -*----------------------------------*\
  =========                 |
  \\      /  F ield         | OpenFOAM: The Open Source CFD Toolbox
   \\    /   O peration     | Website:  https://openfoam.org
    \\  /    A nd           | Version:  8
     \\/     M anipulation  |
\*---------------------------------------------------------------------------*/
FoamFile
{
    version     2.0;
    format      ascii;
    class       volVectorField;
    location    "0.5/wallFilmRegion";
    object      contactForce:contactAngle;
}
// * * * * * * * * * * * * * * * * * * * * * * * * * * * * * * * * * * * * * //

dimensions      [1 -2 -2 0 0 0 0];

internalField   nonuniform List<vector> 
1369
(
(0 -633.1162455 0)
(0 0 0)
(0 396.8808144 0)
(0 0 0)
(-866.2057078 -794.0218974 0)
(0 0 0)
(0 0 0)
(0 -638.1416217 -1.886930557e-12)
(0 0 0)
(-521.0136665 477.5958601 0)
(-659.1821614 -604.2503135 0)
(0 0 0)
(0 0 0)
(0 0 0)
(0 0 0)
(0 0 0)
(0 0 0)
(0 0 0)
(0 -505.8051647 0)
(0 0 0)
(0 0 0)
(0 0 0)
(0 0 0)
(0 0 0)
(0 0 0)
(0 0 0)
(0 0 0)
(0 0 0)
(0 0 0)
(0 0 0)
(0 0 0)
(0 -361.3940103 1.068611372e-12)
(0 0 0)
(0 0 0)
(0 0 0)
(0 0 0)
(0 0 0)
(0 0 0)
(0 0 0)
(0 0 0)
(0 0 0)
(0 0 0)
(0 0 0)
(0 0 0)
(0 0 0)
(0 0 0)
(0 0 0)
(0 0 0)
(0 -628.0821092 1.857185433e-12)
(0 0 0)
(0 0 0)
(0 0 0)
(0 0 0)
(0 0 0)
(0 0 0)
(0 0 0)
(0 0 0)
(0 0 0)
(0 0 0)
(0 0 0)
(0 0 0)
(0 0 0)
(0 0 0)
(0 0 0)
(0 0 0)
(0 0 0)
(0 0 0)
(0 -562.0332249 0)
(0 0 0)
(0 0 0)
(0 0 0)
(920.148315 843.4692872 0)
(456.0847703 0 0)
(333.281715 0 0)
(545.9791427 -500.4808799 0)
(0 0 0)
(0 0 0)
(0 0 0)
(0 0 0)
(0 0 0)
(0 0 0)
(0 0 0)
(0 0 0)
(0 0 0)
(0 0 0)
(0 0 0)
(0 0 0)
(0 0 0)
(0 0 0)
(0 0 0)
(0 -706.6464255 0)
(0 0 0)
(0 0 0)
(993.6134529 910.8123351 -2.693194661e-12)
(0 0 0)
(0 0 0)
(0 0 0)
(0 0 0)
(691.5501293 0 0)
(679.4251729 0 0)
(656.2610805 0 0)
(1102.100374 -1010.25868 0)
(0 0 0)
(0 0 0)
(0 0 0)
(0 0 0)
(0 0 0)
(0 0 0)
(0 0 0)
(0 0 0)
(0 0 0)
(0 0 0)
(0 0 0)
(0 0 0)
(0 0 0)
(0 -303.6148656 0)
(0 0 0)
(0 0 0)
(-390.8502731 358.2794163 0)
(0 0 0)
(0 0 0)
(0 0 0)
(0 0 0)
(0 0 0)
(0 0 0)
(0 0 0)
(0 0 0)
(579.6771897 0 0)
(584.0443161 0 0)
(596.237998 0 0)
(294.1008067 0 0)
(-1268.008343 0 0)
(1008.541334 0 0)
(485.4704304 0 0)
(-1.348888161e-11 -2085.398397 0)
(0 0 0)
(0 0 0)
(0 0 0)
(0 0 0)
(0 0 0)
(0 442.0275147 0)
(0 -398.4285969 0)
(0 0 0)
(0 0 0)
(0 0 0)
(0 439.4515337 0)
(0 0 0)
(0 0 0)
(-673.4676053 0 0)
(-699.3101267 0 0)
(-449.1726802 0 0)
(-597.9512618 0 0)
(-248.5969576 0 0)
(0 0 0)
(0 0 0)
(0 0 0)
(-775.0692286 -710.4801288 0)
(0 0 0)
(0 0 0)
(0 0 0)
(0 0 0)
(0 0 0)
(0 0 0)
(0 0 0)
(0 0 0)
(0 0 0)
(-569.693752 522.2192745 0)
(0 -768.9041798 0)
(0 0 0)
(0 0 0)
(0 0 0)
(-1069.142263 980.0470728 0)
(0 0 0)
(-962.2415392 -882.0547427 0)
(0 0 0)
(0 0 0)
(0 0 0)
(0 0 0)
(0 0 0)
(-728.6151401 667.8972106 0)
(-322.3162074 0 0)
(-743.2099501 -681.2757864 0)
(0 0 0)
(0 0 0)
(0 0 0)
(0 0 0)
(0 0 0)
(0 0 0)
(0 0 0)
(0 0 0)
(0 0 0)
(0 0 0)
(0 0 0)
(-13.46697444 -1212.0277 0)
(0 -450.1174819 -1.330959151e-12)
(0 0 0)
(0 0 0)
(0 0 0)
(0 0 0)
(-1768.186058 1.317986433e-11 0)
(0 0 0)
(0 0 0)
(0 0 0)
(0 0 0)
(0 0 0)
(0 0 0)
(0 0 0)
(0 0 0)
(0 0 0)
(0 0 0)
(0 0 0)
(0 0 0)
(0 0 0)
(0 0 0)
(0 0 0)
(0 0 0)
(0 0 0)
(0 0 0)
(0 0 0)
(0 0 0)
(-1935.613699 9.837171513e-12 -5.246491474e-12)
(0 -737.1698718 0)
(0 0 0)
(0 0 0)
(0 0 0)
(0 0 0)
(0 0 0)
(0 0 0)
(0 0 0)
(0 0 0)
(0 0 0)
(0 0 0)
(0 0 0)
(0 0 0)
(0 0 0)
(0 0 0)
(0 0 0)
(0 0 0)
(0 0 0)
(0 0 0)
(0 0 0)
(0 0 0)
(0 0 0)
(0 0 0)
(0 0 0)
(0 0 0)
(0 0 0)
(0 0 0)
(0 -325.0188819 0)
(0 0 0)
(0 0 0)
(0 0 0)
(0 0 0)
(0 0 0)
(0 0 0)
(0 0 0)
(0 0 0)
(0 0 0)
(0 0 0)
(0 0 0)
(0 0 0)
(0 0 0)
(0 0 0)
(0 0 0)
(0 0 0)
(0 0 0)
(0 0 0)
(0 0 0)
(0 0 0)
(0 0 0)
(0 0 0)
(0 0 0)
(0 0 0)
(0 0 0)
(0 0 0)
(0 0 0)
(0 -678.9888996 0)
(0 0 0)
(0 0 0)
(0 0 0)
(0 0 0)
(0 0 0)
(0 0 0)
(0 0 0)
(0 0 0)
(0 0 0)
(0 0 0)
(0 0 0)
(0 0 0)
(0 0 0)
(0 0 0)
(0 0 0)
(0 0 0)
(0 0 0)
(0 0 0)
(0 0 0)
(0 0 0)
(0 0 0)
(0 0 0)
(0 0 0)
(0 0 0)
(0 0 0)
(0 0 0)
(0 0 0)
(0 0 0)
(0 0 0)
(705.3722038 0 0)
(649.17116 0 0)
(4.981132485e-06 -837.1013561 0)
(0 0 0)
(0 0 0)
(0 0 0)
(0 0 0)
(0 0 0)
(0 0 0)
(0 0 0)
(0 0 0)
(0 0 0)
(0 0 0)
(0 0 0)
(0 0 0)
(0 0 0)
(0 0 0)
(0 0 0)
(0 0 0)
(0 0 0)
(0 0 0)
(0 0 0)
(0 0 0)
(0 0 0)
(0 0 0)
(2982.515021 455.6595932 0)
(0 0 0)
(0 0 0)
(0 0 0)
(-361.0185598 -330.9336793 0)
(0 0 0)
(0 0 0)
(0 0 0)
(0 0 0)
(0 0 0)
(0 0 0)
(0 0 0)
(0 0 0)
(0 0 0)
(0 0 0)
(0 0 0)
(0 0 0)
(0 0 0)
(0 0 0)
(0 0 0)
(0 0 0)
(0 0 0)
(0 0 0)
(0 0 0)
(0 0 0)
(0 0 0)
(0 0 0)
(0 0 0)
(0 0 0)
(0 0 0)
(0 0 0)
(0 0 0)
(0 -557.195897 -3.295161853e-12)
(0 0 0)
(0 0 0)
(0 0 0)
(0 0 0)
(0 0 0)
(0 0 0)
(0 0 0)
(0 0 0)
(0 0 0)
(0 0 0)
(0 0 0)
(0 0 0)
(0 0 0)
(0 0 0)
(0 0 0)
(0 0 0)
(0 0 0)
(0 0 0)
(0 0 0)
(0 0 0)
(0 0 0)
(0 0 0)
(0 0 0)
(0 0 0)
(0 0 0)
(0 0 0)
(0 0 0)
(0 0 0)
(0 0 0)
(0 0 0)
(0 0 0)
(0 0 0)
(0 0 0)
(0 -252.5182815 0)
(0 0 0)
(0 0 0)
(0 0 0)
(0 0 0)
(0 0 0)
(0 0 0)
(0 0 0)
(0 0 0)
(0 0 0)
(1796.958047 -9.436912507e-12 0)
(0 0 0)
(0 0 0)
(0 0 0)
(0 0 0)
(0 0 0)
(0 0 0)
(0 0 0)
(0 0 0)
(0 0 0)
(0 0 0)
(0 0 0)
(0 0 0)
(0 0 0)
(0 0 0)
(1091.92121 -0.002034753646 0)
(0 0 0)
(0 0 0)
(0 0 0)
(0 0 0)
(0 0 0)
(0 0 0)
(0 0 0)
(0 0 0)
(0 -299.5577465 0)
(0 0 0)
(0 0 0)
(0 0 0)
(0 0 0)
(0 0 0)
(0 0 0)
(0 0 0)
(0 0 0)
(622.0768 570.2370688 -1.686142545e-12)
(0 0 0)
(-1.184885355e-05 -1991.27874 -5.888041986e-12)
(0 0 0)
(0 0 0)
(0 0 0)
(0 0 0)
(0 0 0)
(0 0 0)
(0 0 0)
(0 0 0)
(0 0 0)
(0 0 0)
(0 0 0)
(0 0 0)
(0 0 0)
(0 0 0)
(0 0 0)
(0 0 0)
(0 0 0)
(0 0 0)
(0 0 0)
(0 0 0)
(0 0 0)
(0 0 0)
(0 -428.8997924 -1.268220246e-12)
(0 0 0)
(0 0 0)
(0 0 0)
(0 0 0)
(0 0 0)
(0 0 0)
(0 0 0)
(395.8684354 362.8793984 0)
(0 0 0)
(0 -506.8420757 0)
(0 0 0)
(0 0 0)
(0 0 0)
(0 0 0)
(0 0 0)
(0 0 0)
(0 0 0)
(0 0 0)
(0 0 0)
(0 0 0)
(0 0 0)
(0 0 0)
(0 0 0)
(0 0 0)
(0 0 0)
(1894.141902 -3.208801212e-13 -5.13408194e-12)
(0 0 0)
(0 0 0)
(0 0 0)
(0 0 0)
(0 0 0)
(0 0 0)
(0 -344.3325365 -1.018162044e-12)
(0 0 0)
(0 0 0)
(0 0 0)
(0 0 0)
(0 0 0)
(0 0 0)
(0 0 0)
(0 328.2186397 0)
(0 0 0)
(-1108.616304 -1016.231616 0)
(0 0 0)
(0 0 0)
(0 0 0)
(0 0 0)
(0 0 0)
(0 0 0)
(0 0 0)
(0 0 0)
(0 0 0)
(0 0 0)
(0 0 0)
(0 0 0)
(0 0 0)
(0 0 0)
(9.016400938e-06 1515.24777 0)
(0 -424.4725264 0)
(0 0 0)
(0 0 0)
(0 0 0)
(0 0 0)
(0 0 0)
(0 -655.2051958 -1.937386075e-12)
(0 0 0)
(0 0 0)
(0 0 0)
(582.0171367 533.5157106 0)
(592.8374861 -543.4343642 0)
(0 0 0)
(0 0 0)
(0 453.0013985 0)
(0 -278.6083689 0)
(0 0 0)
(0 0 0)
(0 0 0)
(877.6591054 8.920874144e-12 0)
(0 0 0)
(0 0 0)
(0 0 0)
(0 0 0)
(2119.040651 -2.153876697e-11 0)
(0 0 0)
(0 0 0)
(0 0 0)
(0 0 0)
(0 0 0)
(0 0 0)
(0 0 0)
(0 818.0115079 -436.2728042)
(0 0 0)
(0 0 0)
(0 0 0)
(0 0 0)
(0 0 0)
(0 -528.3103037 1.562168682e-12)
(0 0 0)
(0 0 0)
(0 0 0)
(-347.38883 318.4397602 0)
(-252.2980126 0 0)
(623.6525431 0 0)
(559.3780009 0 0)
(0 0 0)
(0 0 0)
(654.3800017 -599.8483338 0)
(0 0 0)
(4.628238757e-11 1751.301236 0)
(0 0 0)
(843.9532014 -773.6237666 0)
(0 0 0)
(0 0 0)
(0 0 0)
(0 1194.207591 0)
(0 0 0)
(0 0 0)
(0 0 0)
(0 0 0)
(0 0 0)
(0 0 0)
(0 0 0)
(0 -1151.591048 -594.369573)
(0 0 0)
(0 0 0)
(0 0 0)
(0 0 0)
(0 0 0)
(0 -514.3979261 1.521030946e-12)
(0 0 0)
(0 0 0)
(0 0 0)
(0 0 0)
(0 0 0)
(0 0 0)
(-987.9474695 905.618517 0)
(0 0 0)
(0 0 0)
(0 -617.9959827 0)
(0 0 0)
(0 0 0)
(0 307.1952986 0)
(0 -432.0314764 -1.277480355e-12)
(0 0 0)
(0 0 0)
(0 0 0)
(0 1248.80914 0)
(0 0 0)
(0 0 0)
(0 0 0)
(0 0 0)
(0 0 0)
(0 0 0)
(0 0 0)
(-1312.875684 1.312217773e-11 0)
(0 0 0)
(0 0 0)
(0 0 0)
(0 0 0)
(0 -452.5145197 0)
(0 0 0)
(0 0 0)
(0 0 0)
(0 0 0)
(0 0 0)
(0 0 0)
(0 0 0)
(0 402.8051309 -1.191060536e-12)
(0 0 0)
(0 -680.3911482 0)
(0 0 0)
(0 0 0)
(0 318.2524377 0)
(-538.9560416 -494.0430373 -1.46084327e-12)
(0 0 0)
(0 0 0)
(0 0 0)
(0 692.0080056 0)
(0 0 0)
(-1260.840912 0.004699053066 -0.0006265404088)
(0 0 0)
(0 0 0)
(0 0 0)
(0 0 0)
(0 0 0)
(0 0 0)
(0 0 0)
(0 0 0)
(0 0 0)
(0 0 0)
(0 0 0)
(918.438787 -841.9022199 0)
(0 0 0)
(0 0 0)
(0 0 0)
(0 0 0)
(0 0 0)
(0 0 0)
(-751.0649652 688.4762169 0)
(0 0 0)
(0 -303.710894 0)
(0 0 0)
(0 0 0)
(0 -1022.924977 0)
(0 0 0)
(0 0 0)
(0 0 0)
(0 0 0)
(-1883.463753 3.796946952e-11 0)
(0 0 0)
(0 0 0)
(1113.404403 1020.620701 0)
(308.5886737 0 0)
(794.9102512 -728.667729 0)
(0 0 0)
(0 0 0)
(-2007.588777 822.5537348 -223.0654196)
(0 0 0)
(2015.046438 -3.072259319e-11 0)
(0 0 0)
(0 0 0)
(0 0 0)
(0 0 0)
(365.4953368 0 0)
(861.4519266 -789.6642646 -2.334970113e-12)
(0 0 0)
(0 0 0)
(0 0 0)
(0 0 0)
(0 0 0)
(0 655.2709588 0)
(0 0 0)
(1010.444196 -926.2405118 0)
(0 0 0)
(0 854.2014252 0)
(0 0 0)
(0 0 0)
(0 0 0)
(0 0 0)
(0 0 0)
(0 0 0)
(0 0 0)
(-800.4122055 733.7111911 0)
(0 0 0)
(0 -373.8039849 0)
(0 0 0)
(0 0 0)
(0 0 0)
(548.1307714 502.4532062 0)
(0 0 0)
(4.882373109e-06 -820.5080244 0)
(0 0 0)
(0 0 0)
(-425.6567557 0 0)
(0 0 0)
(0 0 0)
(-1.186153274e-05 -1993.405167 0)
(0 0 0)
(0 0 0)
(0 0 0)
(0 0 0)
(-912.9053742 836.8299248 0)
(0 0 0)
(0 0 0)
(309.4556058 0 0)
(0 0 0)
(649.4934997 -595.3690435 -1.760455658e-12)
(0 0 0)
(0 0 0)
(0 0 0)
(0 0 0)
(0 0 0)
(0 0 0)
(0 0 0)
(-491.3286942 450.3846355 0)
(-546.4907265 -500.9498317 0)
(0 0 0)
(0 0 0)
(974.6472049 893.4266078 0)
(0 0 0)
(-691.9858347 -634.3203474 0)
(0 0 0)
(0 0 0)
(0 -250.1946305 7.398042652e-13)
(0 0 0)
(-679.427344 622.8083976 0)
(0 -578.6058446 0)
(0 0 0)
(0 0 0)
(0 0 0)
(0 0 0)
(0 0 0)
(0 0 0)
(-464.0267845 425.357885 0)
(-305.8485277 0 0)
(0 0 0)
(0 0 0)
(0 -321.8846547 0)
(0 0 0)
(0 0 0)
(0 0 0)
(0 0 0)
(0 0 0)
(0 0 0)
(0 0 0)
(0 0 0)
(0 0 0)
(2.905012317e-11 2183.215563 0)
(222.6460992 0 0)
(0 0 0)
(-570.5638042 -523.0168196 0)
(0 0 0)
(0 0 0)
(0 0 0)
(0 -271.6644665 8.032887373e-13)
(0 0 0)
(0 0 0)
(0 302.0229633 0)
(294.3140207 0 0)
(1052.622157 -964.9036423 0)
(0 0 0)
(0 0 0)
(0 0 0)
(0 0 0)
(0 0 0)
(0 0 0)
(-425.8969226 390.4055138 0)
(0 0 0)
(0 -258.655637 -7.648227343e-13)
(0 0 0)
(0 0 0)
(0 0 0)
(0 0 0)
(0 0 0)
(0 0 0)
(0 0 0)
(0 0 0)
(0 0 0)
(0 0 0)
(0 357.7463278 0)
(0 -627.3073153 0)
(0 0 0)
(0 0 0)
(887.7057907 813.7303067 0)
(597.8114547 -547.9938325 0)
(0 -305.5790861 0)
(0 0 0)
(467.2148489 428.2802797 0)
(0 0 0)
(0 0 0)
(0 0 0)
(376.2829987 0 0)
(507.2755535 0 0)
(-789.5435206 0 0)
(-4.415016049e-06 -741.9711874 0)
(0 0 0)
(0 0 0)
(0 0 0)
(-661.3042152 606.1955295 0)
(-704.9437877 -646.1984709 0)
(0 0 0)
(0 0 0)
(0 0 0)
(0 0 0)
(0 0 0)
(0 0 0)
(0 0 0)
(0 0 0)
(0 0 0)
(441.8606216 405.0389046 0)
(0 0 0)
(0 0 0)
(235.7824513 0 0)
(290.8637434 0 0)
(0 0 0)
(0 0 0)
(0 -273.3526021 0)
(0 0 0)
(-877.8884636 804.7310901 0)
(0 0 0)
(0 0 0)
(-278.6894506 0 0)
(-476.5657234 0 0)
(-358.2077718 -328.3571235 0)
(0 0 0)
(0 0 0)
(0 0 0)
(0 0 0)
(0 0 0)
(0 0 0)
(0 0 0)
(0 0 0)
(0 0 0)
(0 0 0)
(0 0 0)
(0 0 0)
(0 0 0)
(0 0 0)
(0 0 0)
(0 0 0)
(0 486.759515 0)
(0 0 0)
(-675.6629081 0 0)
(-628.3247483 0 0)
(-490.5279365 0 0)
(-619.7470114 0 0)
(-446.5270031 0 0)
(0 -621.1330791 1.836637722e-12)
(0 0 0)
(0 0 0)
(-979.8608768 898.205807 0)
(-922.0473128 -845.2100398 0)
(0 0 0)
(0 0 0)
(0 0 0)
(0 0 0)
(0 0 0)
(0 0 0)
(0 0 0)
(0 0 0)
(0 0 0)
(0 0 0)
(0 0 0)
(0 0 0)
(0 0 0)
(0 0 0)
(0 0 0)
(0 0 0)
(0 0 0)
(0 0 0)
(0 0 0)
(0 430.459934 0)
(0 -340.7098699 0)
(0 0 0)
(0 0 0)
(0 0 0)
(0 0 0)
(0 0 0)
(0 -373.7979874 0)
(0 0 0)
(0 0 0)
(0 0 0)
(0 0 0)
(0 0 0)
(0 0 0)
(0 0 0)
(0 0 0)
(0 0 0)
(0 0 0)
(0 0 0)
(0 0 0)
(0 0 0)
(0 0 0)
(0 0 0)
(0 0 0)
(-8.396721112e-06 1411.115518 0)
(-1.109045689e-05 -1863.804467 0)
(0 0 0)
(0 0 0)
(0 0 0)
(0 0 0)
(0 0 0)
(0 451.4536837 0)
(0 -260.7035723 0)
(0 0 0)
(0 0 0)
(0 0 0)
(0 0 0)
(0 0 0)
(0 -605.6190385 0)
(0 0 0)
(0 0 0)
(0 0 0)
(0 0 0)
(0 0 0)
(0 0 0)
(0 0 0)
(0 0 0)
(0 0 0)
(0 0 0)
(0 0 0)
(0 0 0)
(0 0 0)
(0 0 0)
(0 0 0)
(0 0 0)
(0 0 0)
(0 0 0)
(0 0 0)
(0 0 0)
(-5.423966053e-11 1365.084827 0)
(-516.3539339 0 0)
(322.6850598 0 0)
(0 0 0)
(0 0 0)
(-1077.932272 0 -239.540505)
(-871.2898374 0 0)
(-604.4300322 0 0)
(-7.996957902e-11 -1513.003433 0)
(0 0 0)
(0 0 0)
(737.3875149 -675.9385541 0)
(0 0 0)
(0 0 0)
(0 0 0)
(0 0 0)
(0 0 0)
(0 0 0)
(0 0 0)
(0 0 0)
(0 0 0)
(0 0 0)
(0 0 0)
(1441.9601 7.328326242e-12 0)
(0 0 0)
(0 0 0)
(0 0 0)
(0 0 0)
(0 0 0)
(0 0 0)
(0 0 0)
(0 0 0)
(0 0 0)
(0 435.6440698 0)
(0 0 0)
(0 -562.4124674 0)
(0 0 0)
(0 0 0)
(0 0 0)
(0 0 0)
(0 0 0)
(0 0 0)
(0 0 0)
(720.3471081 -660.3181848 0)
(0 0 0)
(0 0 0)
(0 0 0)
(0 0 0)
(0 0 0)
(0 0 0)
(0 0 0)
(0 0 0)
(0 0 0)
(0 0 0)
(0 766.5257775 0)
(0 0 0)
(0 0 0)
(0 0 0)
(0 0 0)
(0 0 0)
(0 0 0)
(0 0 0)
(0 0 0)
(0 0 0)
(0 576.3302218 0)
(0 0 0)
(0 -743.3528637 0)
(0 0 0)
(0 0 0)
(0 0 0)
(0 0 0)
(0 0 0)
(0 0 0)
(0 0 0)
(0 0 0)
(987.8106392 -905.4930843 0)
(0 0 0)
(0 0 0)
(0 0 0)
(0 0 0)
(0 0 0)
(0 0 0)
(0 0 0)
(0 0 0)
(356.9980385 327.2482014 0)
(-505.7697679 -463.6222864 0)
(0 0 0)
(0 0 0)
(0 0 0)
(0 0 0)
(0 0 0)
(0 0 0)
(0 0 0)
(0 0 0)
(0 0 0)
(0 750.5121453 0)
(-231.7173834 0 0)
(0 -401.8229978 0)
(0 0 0)
(0 0 0)
(0 0 0)
(0 0 0)
(0 0 0)
(0 0 0)
(0 0 0)
(0 0 0)
(0 -413.8386547 0)
(0 0 0)
(0 0 0)
(0 0 0)
(0 0 0)
(0 0 0)
(0 0 0)
(0 0 0)
(613.9431582 562.7812273 0)
(0 -478.080991 0)
(0 0 0)
(0 0 0)
(0 0 0)
(0 0 0)
(0 0 0)
(0 0 0)
(0 0 0)
(7.331755987e-06 1232.136716 -3.643323544e-12)
(496.6680162 0 0)
(537.8093848 0 0)
(-378.8834044 -347.3097886 0)
(0 0 0)
(0 -1243.299643 0)
(0 0 0)
(0 0 0)
(0 0 0)
(0 0 0)
(0 0 0)
(0 0 0)
(-601.3400498 0 0)
(-616.0721019 0 0)
(-730.6323871 -669.7463536 -1.980383043e-12)
(0 0 0)
(0 0 0)
(0 0 0)
(0 0 0)
(0 0 0)
(0 0 0)
(0 0 0)
(-468.5401642 429.4951497 0)
(0 -685.3177517 0)
(0 0 0)
(0 0 0)
(0 0 0)
(0 0 0)
(0 0 0)
(0 0 0)
(0 0 0)
(0 0 0)
(-659.6423248 604.67213 0)
(0 -685.1314322 0)
(0 0 0)
(0 0 0)
(-1100.383411 1.677709798e-11 0)
(0 0 0)
(0 0 0)
(0 0 0)
(0 0 0)
(0 0 0)
(0 -370.0918736 0)
(0 0 0)
(0 0 0)
(0 0 0)
(0 0 0)
(0 0 0)
(0 0 0)
(0 0 0)
(0 0 0)
(0 0 0)
(0 0 0)
(0 0 0)
(0 655.469936 0)
(0 0 0)
(0 0 0)
(0 0 0)
(0 0 0)
(0 0 0)
(0 0 0)
(0 0 0)
(0 0 0)
(0 0 0)
(0 601.5996594 0)
(459.0388696 -420.7856297 0)
(0 0 0)
(0 0 0)
(0 0 0)
(0 0 0)
(-6.319217484e-11 1590.39858 0)
(223.5312057 0 0)
(382.5042344 0 0)
(0 -544.521774 0)
(0 0 0)
(0 0 0)
(0 0 0)
(0 0 0)
(0 0 0)
(1104.595025 1012.545438 0)
(464.1387582 0 0)
(602.2346098 0 -1.632360172e-12)
(299.0805173 0 0)
(653.7267561 0 0)
(564.2015305 0 0)
(0 -656.4806551 0)
(0 0 0)
(0 0 0)
(0 0 0)
(0 0 0)
(0 0 0)
(0 0 0)
(0 0 0)
(0 0 0)
(0 0 0)
(-380.0827681 348.4092053 0)
(0 -655.6151748 0)
(0 0 0)
(0 0 0)
(0 0 0)
(0 0 0)
(0 0 0)
(-497.0015645 455.5847691 0)
(0 0 0)
(0 -474.1543607 -1.402034144e-12)
(0 0 0)
(0 0 0)
(0 0 0)
(0 0 0)
(0 0 0)
(0 501.7767465 0)
(0 0 0)
(0 0 0)
(0 0 0)
(0 0 0)
(0 0 0)
(0 0 0)
(551.0011159 0 0)
(411.0503897 0 0)
(1072.190096 -982.8409246 0)
(0 0 0)
(0 0 0)
(0 0 0)
(0 0 0)
(0 0 0)
(0 0 0)
(0 0 0)
(0 -656.1451847 0)
(0 0 0)
(0 0 0)
(0 0 0)
(0 0 0)
(0 0 0)
(0 0 0)
(-571.3190804 523.7091561 0)
(0 -704.7735498 0)
(0 0 0)
(0 0 0)
(0 0 0)
(0 0 0)
(0 0 0)
(0 699.3264736 0)
(0 0 0)
(0 0 0)
(0 0 0)
(0 0 0)
(0 0 0)
(0 0 0)
(0 0 0)
(0 0 0)
(0 -414.682736 0)
(0 0 0)
(0 0 0)
(0 0 0)
(0 0 0)
(0 0 0)
(0 0 0)
(0 0 0)
(-749.3598849 686.9132266 0)
(0 -1370.283823 0)
(0 0 0)
(0 0 0)
(0 0 0)
(0 0 0)
(0 0 0)
(0 0 0)
(0 -321.4564137 0)
(0 0 0)
(0 0 0)
(0 0 0)
(0 0 0)
(0 0 0)
(0 301.3922527 0)
(0 0 0)
(0 0 0)
(0 0 0)
(0 0 0)
(0 0 0)
(0 0 0)
(0 0 0)
(0 0 0)
(0 -675.5466374 0)
(0 0 0)
(0 0 0)
(0 0 0)
(0 0 0)
(0 0 0)
(0 0 0)
(0 0 0)
(0 0 0)
(0 0 0)
(0 0 0)
(0 0 0)
(0 0 0)
(0 0 0)
(0 0 0)
(0 0 0)
(0 -285.8751702 8.453085803e-13)
(0 0 0)
(0 0 0)
(0 0 0)
(0 0 0)
(0 0 0)
(-617.219358 565.7844104 0)
(0 0 0)
(0 0 0)
(0 0 0)
(0 0 0)
(0 0 0)
(0 0 0)
(0 0 0)
(0 0 0)
(0 -314.1191314 0)
(0 0 0)
(0 0 0)
(0 0 0)
(0 0 0)
(0 0 0)
(0 0 0)
(0 0 0)
(0 0 0)
(0 0 0)
(-5.393677243e-06 906.4413784 0)
(1001.135808 -917.707827 0)
(0 0 0)
(0 0 0)
(0 0 0)
(0 0 0)
(0 -530.3492126 1.568197562e-12)
(0 0 0)
(0 0 0)
(0 0 0)
(0 0 0)
(0 0 0)
(0 0 0)
(0 428.1811839 0)
(0 0 0)
(0 0 0)
(0 0 0)
(0 0 0)
(0 0 0)
(0 0 0)
(0 0 0)
(0 -321.7031567 0)
(0 0 0)
(0 0 0)
(0 0 0)
(0 0 0)
(0 0 0)
(0 0 0)
(0 0 0)
(0 0 0)
(0 0 0)
(0 0 0)
(0 780.5225507 -2.307938867e-12)
(1106.259575 -1014.071276 0)
(0 0 0)
(0 0 0)
(0 0 0)
(0 0 0)
(593.6326783 0 0)
(228.5256517 0 0)
(502.4907402 0 0)
(693.984494 0 0)
(589.3622018 0 0)
(513.3288476 0 0)
(0 0 0)
(0 0 0)
(0 0 0)
(0 0 0)
(0 0 0)
(0 0 0)
(0 0 0)
(0 0 0)
(0 0 0)
(641.9255061 0 0)
(440.5935136 0 0)
(551.3390787 0 0)
(523.0053808 0 0)
(393.4851516 0 -1.066543635e-12)
(528.8159181 0 0)
(567.8624043 0 0)
(242.7354435 0 0)
(314.5779723 0 0)
(687.2089429 0 0)
(0 0 0)
(0 0 0)
(433.220527 0 0)
(313.2786921 0 0)
(362.8100413 0 0)
)
;

boundaryField
{
    walls
    {
        type            calculated;
        value           uniform (0 0 0);
    }
    wallFilmFace_top
    {
        type            calculated;
        value           uniform (0 0 0);
    }
    region0_to_wallFilmRegion_wallFilmFace
    {
        type            calculated;
        value           uniform (0 0 0);
    }
    mirrorFace_top
    {
        type            calculated;
        value           nonuniform List<vector> 0();
    }
    region0_to_wallFilmRegion_mirrorFace
    {
        type            calculated;
        value           nonuniform List<vector> 0();
    }
    procBoundary1to0
    {
        type            processor;
        value           uniform (0 0 0);
    }
    procBoundary1to2
    {
        type            processor;
        value           uniform (0 0 0);
    }
}


// ************************************************************************* //
