/*--------------------------------*- C++ -*----------------------------------*\
  =========                 |
  \\      /  F ield         | OpenFOAM: The Open Source CFD Toolbox
   \\    /   O peration     | Website:  https://openfoam.org
    \\  /    A nd           | Version:  8
     \\/     M anipulation  |
\*---------------------------------------------------------------------------*/
FoamFile
{
    version     2.0;
    format      ascii;
    class       volScalarField;
    location    "0.5/wallFilmRegion";
    object      delta;
}
// * * * * * * * * * * * * * * * * * * * * * * * * * * * * * * * * * * * * * //

dimensions      [0 1 0 0 0 0 0];

internalField   nonuniform List<scalar> 
1369
(
0.001459209189
8.24423404e-05
0.0001119472506
0.0001156665656
0.0001052585327
8.544882852e-05
6.728913905e-05
0.00148572405
7.858071119e-05
0.0001103924991
0.0001122371172
9.684703904e-05
7.433154945e-05
5.551925462e-05
4.240048331e-05
3.353692069e-05
2.733043266e-05
2.262259229e-05
0.001493273178
6.426603614e-05
9.202657403e-05
9.284459023e-05
8.100373161e-05
6.128325296e-05
4.350497696e-05
3.098215691e-05
2.30628509e-05
1.819876936e-05
1.520925008e-05
1.322497949e-05
1.153204821e-05
0.001457288354
4.525800423e-05
6.914676148e-05
7.101192653e-05
6.586013225e-05
5.106073772e-05
3.372288176e-05
2.053481043e-05
1.30517298e-05
9.584324394e-06
8.73076893e-06
9.702275375e-06
1.169104761e-05
1.316064236e-05
1.375089997e-05
6.273579452e-05
1.0820297e-05
0.001379129772
3.167736547e-05
5.400067075e-05
6.191650444e-05
6.706005379e-05
5.880519315e-05
3.903928372e-05
2.342416795e-05
1.634452445e-05
1.391664907e-05
1.391549873e-05
1.493150581e-05
1.514071348e-05
1.272971123e-05
7.926665119e-06
2.902024721e-06
1.372042572e-06
1.09788366e-06
1.6825964e-06
0.001274484325
2.794192667e-05
5.459223278e-05
7.746983231e-05
0.0001123993108
0.0001436165018
0.0001426850094
0.0001030650476
7.145610691e-05
5.07998826e-05
3.772476808e-05
2.790281803e-05
1.922480888e-05
1.183117657e-05
6.988674834e-06
1.671785458e-06
1.855125992e-07
3.719884248e-08
4.02068098e-07
1.928666496e-06
3.125083178e-07
2.450410174e-07
5.127263837e-07
0.001162426929
2.627985573e-05
5.867112102e-05
0.0001042671599
0.0001921211495
0.0002950960666
0.0003691099015
0.0003988453375
0.0003526364552
0.0002610525207
0.0001740007495
0.0001030277583
5.420772639e-05
2.568695976e-05
1.114275825e-05
5.466473544e-06
2.822577457e-06
2.893223201e-06
4.145821292e-06
4.683087093e-06
1.334474907e-06
2.701886492e-06
7.878778902e-06
3.735088618e-05
8.716300106e-05
0.001066987842
2.379758662e-05
5.73262898e-05
0.0001149321936
0.0002205992361
0.0003187417002
0.0003662368267
0.0004031353098
0.0004527513638
0.0004929950613
0.0004710852909
0.0003627208378
0.0002007779806
0.0001014466461
0.0001007600075
0.0002287441597
0.0004154435913
0.0005077882069
0.0004421374527
0.0001953217041
2.338811378e-05
5.306971767e-05
6.799881681e-05
6.261222946e-05
5.835722182e-05
0.0001813105372
0.001000298787
1.761747573e-05
4.088673719e-05
8.360091859e-05
0.0001626383516
0.0002216292849
0.0001931825439
0.0001640458929
0.000149098005
0.0001366831548
0.0001376117955
0.0001577493506
0.000189380812
0.000195477196
0.0002047807283
0.0001782097337
8.639132602e-05
3.287400022e-05
1.586905474e-05
6.413826089e-06
2.080331633e-06
5.127031819e-06
7.940165103e-06
1.013785067e-05
1.535524081e-05
0.0002513415979
0.0009595341338
1.090158846e-05
2.20870847e-05
4.918358199e-05
0.0001172737674
0.0001843968066
0.0001165935811
8.164233197e-05
7.659413374e-05
7.281736791e-05
7.525582246e-05
9.113761507e-05
0.0001223907529
0.0001407511587
0.0001126569475
5.950534865e-05
2.272499104e-05
9.324170296e-06
4.464834367e-06
1.601364255e-06
8.517503008e-07
1.965198153e-06
3.26332784e-06
4.853369788e-06
6.822850526e-06
2.499161076e-05
0.0001192441531
0.0009208948537
6.1932006e-06
7.739181902e-06
1.664561721e-05
6.701240715e-05
0.0001718990855
9.87496888e-05
6.806784376e-05
6.522544644e-05
5.829785509e-05
4.853303718e-05
3.971959039e-05
3.403989177e-05
3.108848316e-05
2.761511769e-05
2.253366855e-05
1.640983365e-05
1.07600005e-05
6.200225777e-06
2.481069078e-06
1.172113592e-06
2.343096427e-06
3.430190431e-06
4.631165028e-06
6.135268655e-06
1.291047898e-05
0.000102669701
0.000852646566
7.995451388e-06
1.103892715e-05
1.666345289e-05
3.929840591e-05
8.41576377e-05
7.038419242e-05
5.735464693e-05
5.609118512e-05
4.982038623e-05
3.91027869e-05
2.809536047e-05
2.039442123e-05
1.67159898e-05
1.551493709e-05
1.487721962e-05
1.351122417e-05
1.094066146e-05
7.441610051e-06
3.7737744e-06
2.046156192e-06
3.151012635e-06
3.812079479e-06
4.490572606e-06
5.450542905e-06
9.041869887e-06
9.068787068e-05
0.0009868207073
1.867741882e-05
2.724730712e-05
3.04187852e-05
3.218313271e-05
3.447918802e-05
3.865292205e-05
4.396903701e-05
4.599943523e-05
4.395930335e-05
3.75519235e-05
2.870104998e-05
2.079937054e-05
1.607083655e-05
1.419700894e-05
1.352616943e-05
1.271203051e-05
1.121521707e-05
9.087089534e-06
6.454355389e-06
4.882648798e-06
4.993282097e-06
4.628663127e-06
4.56435633e-06
4.982082027e-06
6.436060478e-06
1.548123181e-05
5.390815851e-05
0.001731875023
5.873644139e-05
7.434471239e-05
5.7612196e-05
4.264530122e-05
3.363371483e-05
3.098263463e-05
3.134597612e-05
3.231631074e-05
3.220038277e-05
2.936647598e-05
2.336243257e-05
1.615232672e-05
1.07481859e-05
8.31039446e-06
7.901404619e-06
8.348354737e-06
9.005878453e-06
1.007408509e-05
1.218172258e-05
2.073693097e-05
9.703812109e-06
5.694035422e-06
4.240865952e-06
4.064072968e-06
5.887278314e-06
1.280151293e-05
3.849022783e-05
9.479527932e-05
0.004877242158
0.0003023962267
0.0002089485154
0.0001028223228
5.42613531e-05
3.331445065e-05
2.565035314e-05
2.311842763e-05
2.250423074e-05
2.236087437e-05
2.128175103e-05
1.782833196e-05
1.229246462e-05
7.390691397e-06
4.912192387e-06
4.325080399e-06
4.426965543e-06
4.549286542e-06
4.50141054e-06
4.44876948e-06
7.014953439e-06
5.687752987e-06
5.560765052e-06
7.994252374e-06
1.777089983e-05
2.291613217e-05
0.0001585881255
5.475011052e-05
2.397389021e-05
0.006356652063
0.0001911073204
9.21584662e-05
4.059939614e-05
2.836839153e-05
2.308613795e-05
2.041176356e-05
1.908513201e-05
1.881603338e-05
1.960013214e-05
2.104906878e-05
1.920676036e-05
1.224646029e-05
9.24774581e-06
7.038278962e-06
6.061198026e-06
5.671905062e-06
5.030252651e-06
3.9075039e-06
2.571479096e-06
3.795321585e-06
6.775272536e-06
1.241056826e-05
2.462142831e-05
3.627139859e-05
1.509465103e-05
6.192214922e-05
1.978329743e-05
6.376542446e-06
0.001122006905
2.031649132e-05
1.610877417e-05
1.42381012e-05
1.405442484e-05
1.433138308e-05
1.472409342e-05
1.575167111e-05
1.9353989e-05
3.002863717e-05
4.842747652e-05
4.960264332e-05
1.794130545e-05
1.354671093e-05
1.001422555e-05
8.037645782e-06
6.774396848e-06
5.273244192e-06
3.654550479e-06
2.076472358e-06
4.706171107e-06
1.463126255e-05
2.712799233e-05
2.780418114e-05
3.576475983e-05
4.85819114e-05
9.651410249e-05
5.690192357e-05
7.083483729e-06
2.983170396e-08
4.739431566e-11
4.564632524e-11
4.668658662e-11
6.74372723e-11
0.0008681165723
3.100439704e-05
2.472793047e-05
1.86462396e-05
1.448975375e-05
1.202124046e-05
1.132691047e-05
1.386296773e-05
2.627006301e-05
6.040657307e-05
0.0001028086713
9.063540935e-05
2.11297861e-05
1.953233182e-05
1.622631335e-05
1.406370616e-05
1.334522123e-05
1.007685401e-05
4.633494662e-06
2.263116417e-06
4.562073826e-06
1.262442192e-05
1.003274432e-05
3.016631657e-06
9.523931319e-05
0.0002456447533
7.381021752e-05
1.731960973e-05
4.420405252e-07
1.511043355e-12
1.308185659e-16
2.764693008e-16
1.744509287e-11
2.005298772e-08
0.0005919031354
4.248424898e-05
4.600702193e-05
3.882465933e-05
3.100870894e-05
2.508765243e-05
2.315505023e-05
2.984673792e-05
5.849725422e-05
0.0001113578874
0.000145068641
0.0001009276454
1.513016947e-05
1.733359993e-05
1.847505162e-05
1.946279841e-05
2.429032279e-05
4.200122278e-05
9.393713471e-06
1.91964619e-06
2.98817981e-07
9.509847462e-07
1.603436359e-07
2.790067145e-09
9.701577526e-08
2.004799067e-05
6.581253257e-06
4.153347906e-07
1.287257895e-10
1.233270558e-10
1.282630395e-10
1.541070824e-10
1.795424467e-10
5.766172926e-09
0.0006402863793
2.402429446e-05
3.424236094e-05
3.687588377e-05
3.750741409e-05
3.854339679e-05
4.171167228e-05
6.272971936e-05
0.0001065548043
0.0001511487888
0.0001521024935
9.385672751e-05
1.221113631e-05
1.13429583e-05
1.204147065e-05
1.551937846e-05
2.439540632e-05
9.513787601e-05
3.135000112e-05
2.454228016e-06
1.32618254e-10
9.084504591e-07
1.588119838e-05
3.379298146e-05
2.987089655e-05
6.997062295e-05
0.0001065125089
8.822006595e-06
4.202144477e-06
4.023500042e-06
4.415327558e-06
4.846099594e-06
5.346678041e-06
0.0007152056078
1.256524894e-05
1.79705773e-05
2.123715724e-05
2.739946746e-05
4.521723638e-05
4.961629634e-05
8.599204162e-05
0.0001258678262
0.0001420229349
0.0001255790062
8.407563573e-05
2.824207637e-05
1.761866684e-05
6.381734883e-06
8.001765871e-06
1.858647349e-05
9.563695394e-05
6.877252533e-05
7.320166069e-06
9.871401209e-06
5.538613692e-10
1.778626627e-06
2.449402696e-05
6.481237089e-05
0.0001533796229
0.0001550313942
2.660468469e-05
1.493366552e-05
1.136142835e-05
9.919418685e-06
9.707715092e-06
0.001207188018
9.566490439e-06
1.376955082e-05
2.737985941e-05
0.0001081334863
0.0003549840417
5.340689217e-05
8.606195931e-05
0.0001024942483
0.0001047083539
9.468619184e-05
7.71259393e-05
7.692486561e-05
0.000105888311
6.259540506e-06
4.810243771e-06
1.210174855e-05
7.502656215e-05
0.0001131613705
1.354224709e-05
2.07750368e-05
2.664986081e-11
1.404707714e-10
1.016383955e-06
1.369004552e-05
4.175357441e-05
0.000237753224
5.793761341e-05
3.016155693e-05
2.317845313e-05
1.935268573e-05
1.8709684e-05
0.002404106467
2.549698386e-05
5.941944564e-05
7.671061916e-05
0.0001066835017
0.0001347274571
0.0001372732595
0.0001348876282
0.0001290404846
0.0001196409391
9.984443855e-05
6.02513932e-05
0.0001178282314
0.000261849945
0.0001973739076
9.85982263e-05
3.49131078e-05
5.787264262e-05
0.0001517801756
1.621733982e-05
6.376012793e-06
1.085579329e-11
8.423461969e-12
9.430946054e-09
5.676891098e-06
8.442876077e-05
0.0003393197664
1.870348499e-05
3.978940836e-06
3.633571674e-06
3.970573096e-06
4.562724821e-06
0.002428847502
1.809560042e-05
3.227048052e-05
3.920166846e-05
5.941593457e-05
8.059921812e-05
9.829845676e-05
0.0001133498581
0.0001219860233
0.0001194573436
0.0001002314299
5.601786663e-05
6.476131557e-05
0.0002427077201
0.0002035767321
8.87245501e-05
2.750343831e-05
4.390810222e-05
0.000168599343
2.452627321e-05
6.266998987e-06
3.375649378e-06
2.927663334e-06
2.936112672e-06
2.962797124e-06
1.277879317e-05
0.0001454822564
2.974752812e-05
4.365498765e-06
2.908842527e-08
1.018600223e-08
0.002073345687
1.987612933e-05
1.982271274e-05
1.854962452e-05
2.777145597e-05
4.195644104e-05
6.189969263e-05
8.639750847e-05
0.0001093375646
0.000117588625
0.0001001152082
5.506255343e-05
2.925904032e-05
0.0002363167777
0.000147129505
4.581208357e-05
1.655585295e-05
3.665588555e-05
0.0001598332079
6.952199055e-05
0.0001329875374
9.723081135e-06
9.790063622e-06
2.884482465e-05
1.158401297e-05
8.743833533e-06
4.741244005e-05
1.669434001e-05
1.228892287e-05
1.268127689e-05
1.834238916e-05
0.002350798106
0.0001033527912
8.294691435e-05
4.57882836e-05
2.872150724e-05
2.57566177e-05
3.789652574e-05
6.665724241e-05
0.0001062911985
0.0001349976274
0.0001229058268
7.172529396e-05
3.177591964e-05
0.0002658418223
9.604957915e-05
2.134494841e-05
1.359017491e-05
3.255059967e-05
0.000125080656
6.641365267e-05
6.014014122e-05
0.0001157352646
0.0002572488131
0.0002046825716
2.410244471e-05
2.265331497e-05
0.0002518549257
7.600086808e-05
0.0001558641261
7.35107319e-05
4.796624485e-05
0.002281002008
0.0002145766271
0.0002005943881
0.0001257367094
6.725434411e-05
3.345738544e-05
2.738758774e-05
4.79201278e-05
9.597719239e-05
0.0001508213941
0.0001646630617
0.0001183344143
7.994399504e-05
0.000270926434
8.389767089e-05
1.880423904e-05
1.521396667e-05
2.767522364e-05
9.108937145e-05
4.427377971e-05
8.143037087e-06
0.0001113609648
0.0003631826551
0.00013873058
1.810812737e-05
2.018836201e-05
3.528990003e-05
0.0001002700847
0.0001789971088
0.0001625239635
8.476403665e-05
0.001582630943
0.0001797575212
0.0002113197732
0.0001652360666
0.0001000209653
4.718590524e-05
2.494413958e-05
2.82690714e-05
5.527457884e-05
0.0001081566943
0.0001617753936
0.0001628826318
0.0001392814733
0.0002679257782
0.0001000804917
2.425768813e-05
1.836382088e-05
2.434312699e-05
5.480839889e-05
2.147097426e-05
6.227540521e-06
2.158105839e-05
0.0001800043227
0.0001132169142
1.737257209e-05
2.856182978e-05
0.0003663519644
0.000415682173
0.0001668302771
6.144723434e-05
4.526793964e-05
0.00104653697
8.723766941e-05
0.0001269883561
0.0001189639993
8.645719221e-05
4.912546573e-05
2.578641659e-05
1.926059837e-05
2.662845341e-05
5.445877875e-05
0.0001055239404
0.0001449017945
0.0001587965846
0.0002571243213
0.0001212879955
3.122307354e-05
2.165696065e-05
2.894000128e-05
8.101959434e-05
4.834877497e-05
5.78917861e-05
6.604039894e-06
4.202961697e-05
3.548627575e-05
0.0001159371854
0.0002152429704
0.0003629716652
0.0001830904302
5.645313964e-05
7.391988971e-05
2.402616818e-05
0.0008841328172
4.807040698e-05
8.378273433e-05
0.0001021428167
0.000113352301
0.0001072163201
9.461094999e-05
8.70835706e-05
8.188925297e-05
7.428370285e-05
7.132146371e-05
8.796732621e-05
0.0001302434763
0.0002166344128
0.0001232963388
3.463014146e-05
2.130310879e-05
1.653750324e-05
1.948687071e-05
1.957302575e-05
5.687237084e-05
1.063048652e-05
1.20482393e-05
3.146013254e-05
8.885145864e-05
0.000260348103
0.0002463042178
2.42757293e-05
2.882383566e-05
0.000240137644
0.0001464637082
0.0009690710686
6.100346185e-05
0.0001466041459
0.0002650008197
0.0004315030357
0.000595404237
0.0006608109923
0.0005315155922
0.000296277684
0.000111473837
4.267394523e-05
4.460903844e-05
8.470281726e-05
0.0001459726023
0.000100519745
3.457899654e-05
2.268275294e-05
1.119850307e-05
8.489433535e-06
1.104667507e-05
3.323178346e-05
2.035495284e-05
3.232282906e-06
1.607000889e-05
0.0001123326848
0.0004086252514
0.0004472193847
0.0002170553128
0.0001885087477
0.000657630729
0.0003123983595
0.001172343783
7.766479247e-05
0.0002017170224
0.0003622228379
0.0005122511174
0.000492452257
0.0003030171996
0.0001272188176
4.514885932e-05
1.982563802e-05
1.514919798e-05
2.411003765e-05
4.633390348e-05
7.979284288e-05
6.694373035e-05
3.440100368e-05
4.472226241e-05
4.158985196e-05
7.590127802e-06
1.829211505e-05
3.658656896e-05
3.388827147e-05
5.8833293e-05
7.015999083e-05
0.0001638807994
0.0005732114271
0.0001918627604
0.0003100699189
0.000725632041
0.0008850798205
0.000137292604
0.001393863581
4.840824024e-05
9.787922263e-05
0.0001201708732
0.0001069567795
6.942380329e-05
3.683974114e-05
1.814583038e-05
1.143317137e-05
1.032780207e-05
1.135515676e-05
1.475122153e-05
2.297263822e-05
3.623506521e-05
3.411529249e-05
2.120141551e-05
3.351158364e-05
3.894907673e-05
1.682499573e-05
1.353517577e-05
6.61921412e-06
2.256854559e-06
2.102721265e-05
7.00233188e-05
0.0002082306012
0.0004294590856
4.544374537e-05
2.298023877e-05
3.341744244e-05
3.15342733e-05
3.825659999e-05
0.001638346011
5.237787015e-05
6.65036948e-05
5.800980962e-05
3.97246828e-05
2.037818161e-05
1.031669335e-05
7.334896859e-06
7.559163599e-06
9.146615554e-06
1.057240049e-05
1.114070704e-05
1.470290425e-05
3.522557461e-05
1.78397348e-05
1.267039719e-05
3.157454597e-05
0.0001022588541
0.0001033864723
3.665844783e-06
2.673257718e-06
2.164734297e-06
4.659654187e-06
2.072727325e-05
0.0002450920362
0.0003324978389
7.332384933e-06
4.984871506e-06
9.282899304e-06
1.15805331e-05
1.821855161e-05
0.001860531497
7.50778441e-05
7.388849621e-05
5.772238959e-05
4.097270099e-05
2.677949073e-05
1.789057049e-05
1.340865569e-05
1.132446453e-05
1.02302317e-05
9.313527312e-06
1.038325459e-05
2.051998045e-05
8.273087849e-05
1.11330719e-05
6.283258243e-06
1.501327523e-05
5.508307183e-05
4.984345195e-05
4.083004827e-06
2.375557357e-05
0.0001535877931
0.0002900101075
0.0004011200291
0.0004416958158
0.0004069696516
0.0002749552359
0.0002187487247
0.0001501991137
0.0002101686501
1.122099181e-05
0.0020444314
0.0001102058239
9.767023197e-05
7.129691443e-05
5.028529529e-05
3.520160503e-05
2.559170675e-05
1.985204083e-05
1.697519333e-05
1.799674986e-05
2.682822161e-05
3.841441162e-05
2.845919006e-05
0.0001541323894
8.542843552e-06
2.868732637e-06
6.07178281e-06
2.358288773e-05
2.0293738e-05
5.161968997e-06
5.506100755e-06
2.693227648e-05
9.464987905e-05
0.0001888282156
0.0002891191989
0.0004419091976
8.907829079e-05
1.195112824e-06
1.318289137e-06
7.62425624e-06
6.414376308e-06
0.002171552087
0.0001414506339
0.0001227787641
8.86147863e-05
6.208088307e-05
4.412371891e-05
3.264118177e-05
2.502800422e-05
1.990936626e-05
1.782481046e-05
2.123892142e-05
2.891486966e-05
3.677329181e-05
0.0001721530045
7.103467594e-06
1.371325627e-06
2.409935297e-06
9.531497957e-06
9.674536354e-06
5.361464839e-06
4.287063622e-06
6.131376774e-06
1.838663815e-05
0.0003564843256
0.0001697580999
0.0003806827967
9.458735652e-06
1.47641474e-07
2.709305077e-07
1.706504142e-06
4.599355419e-06
0.002191922591
0.0001505038927
0.0001347403453
0.0001017457608
7.361973655e-05
5.319985627e-05
3.952100334e-05
2.983464226e-05
2.237579833e-05
1.708944139e-05
1.569912873e-05
2.291926587e-05
0.0001019566785
0.0001330981188
5.788321118e-06
7.365741543e-07
9.478718223e-07
4.138608451e-06
5.280190215e-06
4.339706447e-06
4.351724995e-06
5.204033486e-06
4.234876944e-05
0.0006641837082
0.000101965395
0.0002912654681
1.522677611e-06
4.64913598e-07
5.393004979e-07
1.372923198e-06
3.843370559e-06
0.00207957664
0.0001316921893
0.0001282570585
0.0001067785176
8.398198959e-05
6.298428743e-05
4.716990825e-05
3.540599811e-05
2.617928565e-05
2.041313145e-05
2.756993353e-05
0.0001072169746
0.0002234019459
7.163846066e-05
4.61267917e-06
4.691792402e-07
4.130736243e-07
1.937502403e-06
3.003955152e-06
3.874794319e-06
0.0002573028024
0.00115804116
0.0003024678426
0.0001308920207
6.642483136e-05
0.0002084773895
2.109368477e-06
1.258767282e-06
1.16667618e-06
1.733383834e-06
3.651627335e-06
0.001883910531
0.0001006020337
0.0001083708076
0.0001020613538
9.069825374e-05
7.374445268e-05
5.693886339e-05
4.286061407e-05
3.265292352e-05
3.104120604e-05
6.15516865e-05
0.0001371353489
0.0001497298669
3.591922267e-05
3.643316852e-06
3.886696417e-07
2.270225204e-07
1.046750859e-06
1.836613442e-06
2.68655289e-06
2.730972881e-05
0.000213383098
0.0001391280669
6.346146914e-05
4.593243468e-05
0.0001394578088
4.377013866e-06
2.793775323e-06
2.393263923e-06
2.766397907e-06
4.390504142e-06
0.001672735402
7.408063032e-05
8.662121841e-05
9.086671383e-05
9.148425044e-05
8.343921448e-05
6.980524397e-05
5.577298778e-05
4.544891217e-05
4.299544831e-05
5.86859456e-05
9.068532109e-05
0.0001014433911
2.0490413e-05
3.525311407e-06
5.034184322e-07
1.741050798e-07
7.42666015e-07
1.369587188e-06
2.006000454e-06
8.96523893e-06
6.172047968e-05
0.0001380011702
0.0001089585234
3.90356567e-05
8.355834193e-05
2.717275312e-05
6.267323473e-05
0.0001092324585
0.0001729177402
0.0002864047056
0.001493328037
5.481988671e-05
6.822943645e-05
7.851087171e-05
8.877944585e-05
9.422164159e-05
0.0001010106164
0.0001211441585
0.0001552400916
0.0001912243363
0.0002290550129
0.0002722732675
0.0002787588666
3.980476673e-05
4.127568578e-05
2.082415426e-05
3.101848302e-06
1.081727501e-06
1.566788772e-06
2.163000095e-06
6.522304936e-06
3.364090638e-05
0.000126868122
0.0001256197542
4.654458692e-05
4.25258399e-05
2.087673805e-05
4.193033589e-05
8.213183989e-05
0.000135864131
0.0002278795072
0.001367374414
4.244549027e-05
5.329668622e-05
6.495133872e-05
8.036631742e-05
9.438756792e-05
0.0001117509919
0.0001417799665
0.0001828549882
0.0002297717047
0.0002904454937
0.0003700605555
0.0004100008706
0.0001803209484
0.0001875688362
0.0001558354735
1.992313101e-05
2.163231751e-05
2.022234883e-05
1.620314272e-05
1.355966547e-05
2.819776633e-05
9.431070738e-05
0.0001440925089
9.235447039e-05
3.569166369e-05
2.198176343e-05
2.280399637e-05
4.058801309e-05
7.915652021e-05
0.0001482056068
0.001292243901
3.587904522e-05
4.292051976e-05
5.313962433e-05
7.149498377e-05
9.363551457e-05
0.0001202512232
0.0001530438201
0.0001926511167
0.0002466996788
0.0003249061373
0.0004200629395
0.0004585377585
0.0002537063286
0.0002612330495
0.0002278068068
3.294476262e-05
3.93976373e-05
3.826084248e-05
2.908512279e-05
2.041930739e-05
2.922920134e-05
7.733080078e-05
0.0001028045367
0.0001128039329
5.516229111e-05
3.368123324e-05
2.317018462e-05
2.026584212e-05
3.620020486e-05
8.699079744e-05
0.001238221222
3.33285631e-05
3.692152554e-05
4.443401305e-05
6.40042139e-05
9.355869286e-05
0.0001292836266
0.0001630561467
0.0001958812127
0.0002467388957
0.0003304182329
0.0004272003962
0.0004428896439
0.0002458302467
0.000261774141
0.000226354434
3.723686848e-05
5.091161999e-05
5.303071453e-05
3.672053857e-05
2.479470538e-05
3.253698383e-05
7.02075043e-05
5.24442107e-05
8.484016262e-05
9.378307002e-05
6.044378746e-05
3.851449054e-05
1.946406457e-05
1.648555281e-05
4.268682269e-05
0.001656798199
3.496606857e-05
3.643635706e-05
3.920627325e-05
5.583507819e-05
8.584580268e-05
0.0001232147961
0.0001557336909
0.0001814045668
0.0002193653529
0.0002866882552
0.0003646758532
0.0003627069802
0.0001969544349
0.0002298162176
0.000195605667
3.803412513e-05
6.572599427e-05
7.804174039e-05
4.226872707e-05
2.841111114e-05
3.631028813e-05
6.0397811e-05
2.503075109e-05
4.784899919e-05
0.0001230124825
0.0001046026381
7.610703146e-05
3.083704564e-05
1.434446248e-05
3.47583623e-05
0.001345204703
2.697744518e-05
2.734742193e-05
2.811682583e-05
3.935410539e-05
6.4396189e-05
9.980117566e-05
0.0001340403098
0.0001605713996
0.0001888063402
0.0002312970687
0.00027645145
0.0002633843126
0.0001528944421
0.0002241033946
0.000200328365
3.280820963e-05
7.535306412e-05
9.259769142e-05
3.414946764e-05
2.128536297e-05
2.384668233e-05
3.014503208e-05
1.062640032e-05
1.876880449e-05
9.654116117e-05
0.0001244922245
0.0001283736353
5.63986643e-05
2.183711091e-05
6.413329697e-05
0.01421902311
0.001247876661
0.00129738719
0.0009193544204
0.0008583140454
0.0007975613887
0.0007599744971
0.0007529629553
0.0007783739066
0.0008437558367
0.0009516056793
0.001055050255
0.001043707485
0.000995838768
0.001600620938
0.001765555698
0.001354720345
0.001354289752
0.001222287504
0.0009480417249
0.0008307081147
0.0007455132049
0.0005901472292
0.0003377642181
0.0001367748565
0.0002248561672
0.0004214947559
0.0007480943049
0.0009710326196
0.001222198264
0.002790844997
)
;

boundaryField
{
    walls
    {
        type            zeroGradient;
    }
    wallFilmFace_top
    {
        type            zeroGradient;
    }
    region0_to_wallFilmRegion_wallFilmFace
    {
        type            zeroGradient;
    }
    mirrorFace_top
    {
        type            zeroGradient;
    }
    region0_to_wallFilmRegion_mirrorFace
    {
        type            zeroGradient;
    }
    procBoundary1to0
    {
        type            processor;
        value           nonuniform List<scalar> 
52
(
0.001450514964
8.020702507e-05
0.0001027030236
0.0001075427879
0.0001063473133
9.552072473e-05
8.097599077e-05
5.396539657e-05
5.396539657e-05
4.446991657e-05
3.744904903e-05
3.187807574e-05
1.855498166e-05
1.855498166e-05
1.448770614e-05
9.791250386e-06
9.791250386e-06
2.17275245e-05
0.0002029050819
2.541031545e-05
3.018819394e-06
3.018819394e-06
2.863288363e-06
3.819136849e-07
3.819136849e-07
3.114681853e-08
5.899408434e-08
2.850419412e-07
4.710486236e-05
4.710486236e-05
0.0001976075426
0.0001733754861
0.0001733754861
0.0001486768141
0.0001692097143
0.0001692097143
4.598053696e-05
8.046155574e-05
0.000125401176
0.000125401176
6.742769027e-05
6.742769027e-05
5.584698695e-05
1.06687248e-05
2.794837305e-06
2.794837305e-06
2.622391333e-06
2.662012988e-06
2.469574203e-06
2.549491936e-06
1.640894133e-06
0.0002107249736
)
;
    }
    procBoundary1to2
    {
        type            processor;
        value           nonuniform List<scalar> 
33
(
2.973157394e-05
5.926645213e-06
5.926645213e-06
1.087268762e-05
1.087268762e-05
2.419305391e-05
2.37215426e-05
1.123606321e-08
1.123606321e-08
1.004264835e-05
3.498473812e-05
6.694695078e-05
1.758690709e-05
1.810538817e-06
4.161818154e-05
0.0004497693157
0.0002641675008
4.029990574e-05
2.222023876e-05
8.888704017e-06
3.981691005e-06
2.748510048e-06
0.0001389251035
9.773402484e-05
9.49359163e-05
0.0006461240875
0.0005213573943
0.0003656947778
0.0002691766963
0.0002237360688
0.000229385555
0.0003422540962
0.006569857207
)
;
    }
}


// ************************************************************************* //
