/*--------------------------------*- C++ -*----------------------------------*\
  =========                 |
  \\      /  F ield         | OpenFOAM: The Open Source CFD Toolbox
   \\    /   O peration     | Website:  https://openfoam.org
    \\  /    A nd           | Version:  8
     \\/     M anipulation  |
\*---------------------------------------------------------------------------*/
FoamFile
{
    version     2.0;
    format      ascii;
    class       volScalarField;
    location    "0.5/wallFilmRegion";
    object      kappa;
}
// * * * * * * * * * * * * * * * * * * * * * * * * * * * * * * * * * * * * * //

dimensions      [1 1 -3 -1 0 0 0];

internalField   nonuniform List<scalar> 
1369
(
0.6088100024
0.608810004
0.6088100035
0.608810003
0.6088100025
0.6088100021
0.6088100019
0.6088100023
0.608810004
0.6088100035
0.608810003
0.6088100025
0.6088100022
0.6088100021
0.6088100022
0.6088100024
0.6088100027
0.608810003
0.6088100021
0.6088100042
0.6088100038
0.6088100033
0.6088100029
0.6088100026
0.6088100026
0.6088100027
0.608810003
0.6088100035
0.608810004
0.6088100045
0.608810005
0.608810002
0.6088100048
0.6088100044
0.608810004
0.6088100036
0.6088100034
0.6088100033
0.6088100036
0.6088100042
0.608810005
0.6088100055
0.6088100055
0.6088100053
0.6088100053
0.6088100055
0.6088100023
0.6088100103
0.6088100018
0.6088100054
0.6088100051
0.6088100047
0.6088100044
0.6088100042
0.6088100041
0.6088100042
0.6088100043
0.6088100044
0.6088100045
0.6088100048
0.6088100054
0.6088100067
0.6088100101
0.6088100202
0.6088100372
0.6088100435
0.608810038
0.6088100017
0.6088100055
0.608810005
0.6088100044
0.6088100039
0.6088100035
0.6088100032
0.6088100029
0.6088100026
0.6088100025
0.6088100027
0.6088100032
0.6088100043
0.6088100066
0.6088100108
0.6088100299
0.6088101664
0.6088105425
0.6088100853
0.608810026
0.608810092
0.6088101378
0.6088100946
0.6088100016
0.6088100056
0.6088100049
0.6088100041
0.6088100035
0.6088100031
0.6088100028
0.6088100026
0.6088100023
0.608810002
0.6088100018
0.6088100019
0.6088100026
0.6088100041
0.6088100076
0.608810013
0.6088100203
0.6088100182
0.6088100136
0.6088100143
0.608810045
0.6088100326
0.6088100187
0.6088100087
0.6088100084
0.6088100015
0.6088100059
0.608810005
0.6088100041
0.6088100035
0.6088100031
0.6088100029
0.6088100027
0.6088100025
0.6088100023
0.6088100021
0.608810002
0.6088100021
0.6088100024
0.6088100024
0.6088100019
0.6088100016
0.6088100014
0.6088100014
0.6088100016
0.6088100105
0.6088100092
0.6088100092
0.6088100098
0.6088100109
0.6088100059
0.6088100014
0.6088100068
0.6088100057
0.6088100046
0.608810004
0.6088100037
0.6088100035
0.6088100033
0.6088100032
0.6088100031
0.608810003
0.6088100027
0.6088100024
0.6088100022
0.608810002
0.6088100019
0.6088100023
0.6088100037
0.6088100062
0.6088100103
0.6088100331
0.6088100226
0.6088100181
0.6088100157
0.6088100138
0.6088100058
0.6088100013
0.6088100085
0.6088100071
0.6088100053
0.6088100045
0.6088100042
0.6088100041
0.6088100037
0.6088100034
0.6088100031
0.6088100029
0.6088100026
0.6088100023
0.6088100021
0.6088100021
0.6088100024
0.6088100036
0.608810006
0.6088100097
0.6088100184
0.6088100391
0.6088100272
0.6088100212
0.6088100174
0.6088100146
0.6088100106
0.6088100061
0.6088100013
0.6088100128
0.6088100122
0.6088100074
0.6088100049
0.6088100042
0.6088100042
0.6088100037
0.6088100033
0.6088100032
0.6088100032
0.6088100032
0.6088100032
0.6088100033
0.6088100034
0.6088100037
0.6088100043
0.6088100055
0.6088100078
0.6088100132
0.608810026
0.6088100202
0.6088100175
0.6088100155
0.6088100136
0.6088100105
0.6088100063
0.6088100015
0.6088100125
0.6088100111
0.6088100081
0.6088100058
0.6088100048
0.6088100044
0.6088100038
0.6088100035
0.6088100033
0.6088100034
0.6088100036
0.608810004
0.6088100041
0.6088100041
0.6088100041
0.6088100043
0.6088100048
0.608810006
0.6088100088
0.6088100142
0.6088100133
0.6088100136
0.6088100136
0.6088100129
0.6088100107
0.6088100064
0.6088100022
0.6088100095
0.6088100079
0.6088100071
0.6088100065
0.6088100058
0.608810005
0.6088100043
0.6088100039
0.6088100037
0.6088100037
0.6088100038
0.6088100041
0.6088100042
0.6088100041
0.6088100039
0.6088100037
0.6088100036
0.6088100036
0.6088100039
0.6088100035
0.6088100064
0.6088100091
0.608810011
0.6088100116
0.6088100109
0.6088100076
0.6088100063
0.6088100021
0.6088100056
0.6088100052
0.6088100055
0.608810006
0.6088100061
0.6088100057
0.6088100051
0.6088100047
0.6088100045
0.6088100045
0.6088100048
0.6088100053
0.6088100057
0.6088100057
0.6088100051
0.6088100043
0.6088100031
0.6088100015
0.6088099992
0.6088099949
0.6088100001
0.6088100049
0.6088100091
0.6088100115
0.6088100113
0.6088100063
0.6088100063
0.608810008
0.6088100019
0.608810003
0.6088100035
0.6088100042
0.6088100052
0.6088100059
0.608810006
0.6088100058
0.6088100055
0.6088100055
0.6088100058
0.6088100064
0.6088100076
0.6088100097
0.6088100116
0.608810012
0.6088100118
0.6088100114
0.6088100105
0.6088100086
0.6088100019
0.6088100069
0.6088100105
0.6088100125
0.6088100142
0.6088100177
0.6088099954
0.6088100131
0.6088100127
0.6088100015
0.6088100025
0.6088100035
0.6088100049
0.6088100059
0.6088100063
0.6088100063
0.6088100061
0.6088100059
0.6088100058
0.6088100058
0.6088100063
0.6088100076
0.6088100087
0.6088100099
0.6088100108
0.6088100119
0.6088100133
0.6088100153
0.6088100178
0.6088100116
0.6088100118
0.6088100124
0.6088100138
0.6088100161
0.6088100214
0.6088100021
0.6088100152
0.6088100129
0.6088100022
0.608810006
0.6088100069
0.6088100074
0.6088100073
0.6088100071
0.6088100067
0.6088100063
0.6088100056
0.6088100046
0.6088100037
0.6088100039
0.6088100066
0.6088100075
0.6088100085
0.6088100094
0.6088100111
0.6088100143
0.6088100186
0.6088100254
0.6088100205
0.608810017
0.6088100173
0.6088100196
0.608810003
0.6088099931
0.6088099904
0.6088099916
0.6088100019
0.6088105538
0.6088139208
0.6088139378
0.608814114
0.6088143456
0.6088100025
0.6088100045
0.6088100049
0.6088100056
0.6088100063
0.6088100069
0.6088100071
0.6088100062
0.6088100042
0.6088100027
0.608810002
0.6088100022
0.6088100069
0.6088100072
0.6088100075
0.6088100077
0.6088100078
0.6088100104
0.6088100191
0.608810033
0.6088100393
0.6088100301
0.6088100327
0.6088100463
0.6088100004
0.6088099941
0.6088099919
0.6088099977
0.6088100953
0.6088139269
0.60881
0.6088139628
0.608814138
0.6088120852
0.6088100026
0.608810005
0.6088100048
0.6088100048
0.6088100048
0.608810005
0.6088100048
0.6088100039
0.6088100026
0.6088100017
0.6088100013
0.6088100014
0.6088100076
0.6088100078
0.6088100076
0.6088100071
0.608810006
0.6088100052
0.6088100134
0.6088100396
0.6088102951
0.6088101267
0.6088103137
0.6088124071
0.6088108876
0.6088099961
0.6088100043
0.6088101198
0.6088140493
0.6088139577
0.6088139407
0.6088140418
0.6088142099
0.6088124971
0.6088100024
0.6088100072
0.6088100065
0.6088100059
0.6088100054
0.608810005
0.6088100042
0.6088100031
0.608810002
0.6088100013
0.608810001
0.6088100012
0.6088100078
0.6088100092
0.6088100092
0.6088100082
0.6088100061
0.6088100038
0.6088100068
0.6088100323
0.6088147491
0.608810118
0.6088100154
0.6088100064
0.6088100036
0.6088100001
0.6088100015
0.6088100384
0.6088100385
0.6088100274
0.6088100172
0.6088100085
0.6088100012
0.6088100024
0.6088100111
0.60881001
0.6088100084
0.6088100053
0.6088099979
0.6088100044
0.6088100027
0.6088100016
0.608810001
0.6088100008
0.6088100012
0.6088100045
0.6088100066
0.6088100122
0.6088100112
0.608810007
0.6088100037
0.6088100045
0.6088100111
0.6088099983
0.6088142811
0.6088100559
0.6088100098
0.6088100045
0.6088100028
0.6088100039
0.6088100194
0.6088100245
0.6088100271
0.6088100263
0.6088100219
0.6088100023
0.6088100141
0.6088100094
0.6088099937
0.6088099827
0.6088099802
0.6088100033
0.6088100015
0.6088100008
0.6088100006
0.6088100007
0.6088100013
0.6088100032
0.6088100032
0.6088100142
0.6088100153
0.6088100083
0.6088100039
0.6088100036
0.6088100046
0.6088099978
0.6088146965
0.6088143861
0.6088100729
0.608810013
0.6088100052
0.6088100003
0.6088100128
0.6088100183
0.6088100203
0.6088100227
0.608810024
0.6088100023
0.6088100085
0.6088100046
0.6088100018
0.6088100002
0.6088099991
0.6088100005
0.6088100003
0.6088100002
0.6088100002
0.6088100003
0.6088100004
0.6088100012
0.6088100016
0.6088100019
0.6088100024
0.608810004
0.6088100041
0.6088100032
0.6088100037
0.6088100034
0.6088147075
0.6088146797
0.6088114194
0.6088100111
0.6088099982
0.6088099971
0.6088100113
0.6088100482
0.6088100546
0.6088100499
0.6088100475
0.6088100024
0.6088100104
0.6088100075
0.6088100037
0.608810002
0.6088100011
0.6088100008
0.6088100005
0.6088100004
0.6088100003
0.6088100003
0.6088100004
0.6088100012
0.6088100019
0.6088100021
0.6088100026
0.6088100042
0.6088100044
0.6088100032
0.6088100032
0.608810007
0.6088100156
0.6088100233
0.6088100375
0.6088100631
0.6088100227
0.6088099972
0.6088100014
0.6088100273
0.6088109649
0.6088122674
0.6088100025
0.6088100098
0.6088100105
0.6088100076
0.6088100046
0.6088100027
0.6088100016
0.608810001
0.6088100006
0.6088100005
0.6088100004
0.6088100005
0.6088100027
0.6088100026
0.6088100026
0.6088100034
0.6088100054
0.6088100046
0.6088100032
0.6088100006
0.6088099967
0.6088100049
0.6088100126
0.6088099912
0.6088099973
0.6088100192
0.608809992
0.6088100048
0.6088100086
0.6088100137
0.6088100182
0.6088100026
0.6088100041
0.6088100046
0.6088100055
0.6088100064
0.6088100057
0.6088100036
0.6088100023
0.6088100016
0.6088100011
0.6088100009
0.608810001
0.6088100045
0.608810003
0.6088100029
0.608810005
0.6088100062
0.6088100049
0.6088100035
0.6088100008
0.6088099933
0.6088099853
0.6088099829
0.6088099784
0.6088099841
0.608809993
0.6088099824
0.60880999
0.6088099958
0.608809999
0.6088100062
0.6088100026
0.6088100033
0.6088100035
0.6088100039
0.6088100049
0.6088100065
0.6088100069
0.6088100052
0.6088100038
0.6088100027
0.6088100019
0.6088100019
0.6088100041
0.6088100031
0.6088100032
0.6088100059
0.6088100063
0.6088100052
0.6088100044
0.6088100049
0.6088100219
0.6088099901
0.6088099872
0.6088099809
0.6088099908
0.6088100004
0.6088099991
0.6088099968
0.6088099986
0.6088099979
0.6088100037
0.6088100027
0.6088100035
0.6088100036
0.6088100038
0.6088100045
0.608810006
0.6088100086
0.6088100084
0.6088100061
0.6088100042
0.608810003
0.6088100028
0.6088100038
0.6088100032
0.6088100033
0.6088100058
0.6088100064
0.6088100059
0.6088100063
0.6088100159
0.6088100477
0.6088100178
0.6088099948
0.6088099922
0.6088100038
0.6088100118
0.6088099925
0.6088099931
0.6088099891
0.6088099984
0.6088100061
0.6088100027
0.6088100042
0.6088100041
0.6088100043
0.6088100049
0.6088100063
0.6088100091
0.608810011
0.6088100092
0.6088100062
0.6088100043
0.6088100036
0.6088100038
0.6088100033
0.6088100034
0.6088100057
0.6088100053
0.608809996
0.6088099844
0.6088099966
0.6088099933
0.608810065
0.6088100142
0.6088099995
0.6088099936
0.6088099961
0.6088099949
0.6088099928
0.6088099903
0.6088099983
0.6088100049
0.6088100027
0.6088100054
0.6088100051
0.6088100051
0.6088100053
0.6088100059
0.6088100067
0.6088100072
0.6088100074
0.6088100073
0.6088100061
0.6088100043
0.608810004
0.6088100035
0.6088100038
0.6088100061
0.6088100062
0.6088099988
0.6088099838
0.6088099997
0.6088099975
0.6088100379
0.6088100374
0.6088100032
0.6088099937
0.6088099939
0.6088099943
0.6088099972
0.6088099962
0.6088099963
0.608809996
0.6088100026
0.6088100055
0.6088100047
0.6088100042
0.6088100037
0.6088100033
0.608810003
0.6088100027
0.6088100026
0.6088100034
0.6088100055
0.6088100053
0.6088100044
0.6088100039
0.6088100043
0.6088100069
0.6088100079
0.6088100071
0.6088100005
0.6088100125
0.6088100098
0.6088100224
0.6088100413
0.6088100012
0.6088099932
0.6088099915
0.6088099851
0.608809994
0.6088099928
0.6088099957
0.6088099955
0.6088100025
0.6088100051
0.6088100043
0.6088100037
0.6088100032
0.6088100028
0.6088100024
0.6088100023
0.608810003
0.6088100055
0.608810008
0.6088100069
0.6088100054
0.6088100047
0.6088100048
0.6088100051
0.6088100009
0.6088099964
0.6088100165
0.6088100187
0.6088100186
0.6088099874
0.6088099745
0.6088099802
0.6088099927
0.6088099955
0.6088100003
0.6088099939
0.6088099946
0.6088099879
0.6088099961
0.6088100023
0.6088100057
0.6088100048
0.6088100042
0.6088100038
0.6088100034
0.6088100032
0.608810004
0.6088100062
0.6088100087
0.6088100099
0.6088100091
0.608810007
0.6088100059
0.6088100056
0.6088100043
0.6088099998
0.6088099972
0.6088100095
0.6088100202
0.6088100281
0.6088100034
0.6088099889
0.6088099982
0.608810003
0.608810001
0.6088100061
0.6088100094
0.6088100069
0.6088099942
0.6088099938
0.6088100023
0.6088100047
0.6088100042
0.6088100037
0.6088100035
0.6088100037
0.6088100049
0.6088100064
0.6088100073
0.6088100079
0.6088100087
0.6088100092
0.6088100067
0.6088100055
0.6088100076
0.6088100038
0.6088099989
0.6088099969
0.6088099965
0.6088100203
0.6088100258
0.6088100253
0.6088100073
0.6088100059
0.6088100025
0.6088100004
0.6088100142
0.6088100157
0.608810009
0.6088099989
0.6088099882
0.6088100022
0.6088100035
0.6088100032
0.6088100029
0.6088100028
0.6088100031
0.6088100037
0.6088100047
0.6088100057
0.6088100067
0.6088100076
0.6088100076
0.6088100043
0.6088100031
0.6088100117
0.6088100067
0.6088100012
0.6088099982
0.6088099974
0.6088100111
0.6088100055
0.6088100028
0.6088100021
0.6088100015
0.6088100009
0.60881
0.6088100001
0.6088100002
0.6088100005
0.6088099972
0.6088099895
0.6088100022
0.6088100029
0.6088100026
0.6088100024
0.6088100024
0.6088100025
0.6088100029
0.6088100031
0.6088100026
0.60881
0.6088099958
0.6088099932
0.6088100017
0.6088100022
0.6088100162
0.6088100142
0.6088100076
0.6088100014
0.6088099997
0.6088100076
0.6088100124
0.6088100064
0.6088100042
0.608810003
0.6088100015
0.60881
0.6088100007
0.6088100438
0.6088100334
0.6088100047
0.6088099971
0.6088100021
0.6088100027
0.6088100025
0.6088100022
0.6088100021
0.6088100022
0.6088100025
0.6088100026
0.6088100022
0.6088100002
0.6088099964
0.6088099936
0.6088100014
0.6088100022
0.6088100192
0.6088100283
0.6088100206
0.6088100073
0.608810005
0.6088100111
0.6088100184
0.6088100217
0.6088100153
0.6088100046
0.6088100017
0.6088100001
0.6088100047
0.6088101903
0.6088101026
0.6088100277
0.6088100059
0.6088100021
0.6088100028
0.6088100025
0.6088100022
0.6088100021
0.6088100021
0.6088100023
0.6088100025
0.6088100025
0.6088100017
0.6088099992
0.6088099969
0.6088100019
0.6088100026
0.6088100214
0.6088100499
0.608810049
0.6088100186
0.6088100146
0.6088100201
0.6088100289
0.6088100393
0.6088100174
0.6088100036
0.6088100019
0.6088100002
0.6088100394
0.6088101033
0.6088100888
0.6088100466
0.6088100161
0.6088100021
0.6088100029
0.6088100026
0.6088100023
0.6088100021
0.6088100021
0.6088100022
0.6088100024
0.6088100028
0.6088100029
0.6088100023
0.6088100018
0.6088100013
0.6088100033
0.6088100232
0.6088100752
0.6088101074
0.6088100405
0.6088100307
0.608810036
0.6088100036
0.6088100028
0.608810004
0.6088100036
0.6088100024
0.6088100005
0.6088100376
0.6088100521
0.6088100554
0.6088100428
0.608810023
0.6088100021
0.6088100032
0.6088100029
0.6088100025
0.6088100022
0.6088100021
0.6088100022
0.6088100024
0.6088100029
0.6088100032
0.6088100026
0.6088100014
0.6088100007
0.6088100047
0.6088100255
0.6088100972
0.6088101992
0.6088100774
0.6088100548
0.6088100527
0.6088100106
0.6088100033
0.6088100027
0.6088100037
0.6088100035
0.6088100009
0.6088100216
0.6088100292
0.6088100336
0.6088100301
0.6088100228
0.6088100021
0.6088100036
0.6088100032
0.6088100028
0.6088100025
0.6088100023
0.6088100023
0.6088100025
0.6088100029
0.6088100032
0.6088100023
0.608810001
0.6088100006
0.6088100072
0.6088100302
0.6088101047
0.6088102997
0.6088101178
0.608810078
0.6088100655
0.6088100263
0.6088100066
0.6088100027
0.6088100026
0.6088100042
0.6088100021
0.6088100051
0.6088100019
0.6088100008
0.6088100003
0.6088100001
0.6088100022
0.608810004
0.6088100037
0.6088100032
0.6088100028
0.6088100025
0.6088100022
0.6088100018
0.6088100012
0.6088100007
0.6088100003
0.60881
0.60881
0.6088100022
0.6088100026
0.6088100046
0.6088100264
0.6088100995
0.608810078
0.6088100612
0.6088100337
0.6088100104
0.6088100036
0.6088100025
0.6088100036
0.6088100039
0.6088100064
0.6088100033
0.6088100013
0.6088100005
0.6088100002
0.6088100023
0.6088100045
0.6088100042
0.6088100037
0.6088100032
0.6088100029
0.6088100025
0.608810002
0.6088100012
0.6088100006
0.6088100003
0.6088100001
0.6088100001
0.6088100004
0.6088100003
0.6088100003
0.6088100029
0.608810004
0.6088100057
0.6088100094
0.6088100173
0.6088100115
0.6088100055
0.6088100025
0.6088100026
0.6088100041
0.6088100056
0.6088100057
0.6088100031
0.6088100013
0.6088100005
0.6088100024
0.6088100047
0.6088100047
0.6088100043
0.6088100037
0.6088100032
0.6088100027
0.6088100021
0.6088100013
0.6088100007
0.6088100003
0.6088100001
0.6088100001
0.6088100003
0.6088100002
0.6088100001
0.6088100015
0.608810002
0.6088100035
0.6088100067
0.6088100125
0.6088100108
0.6088100073
0.6088100031
0.6088100023
0.608810003
0.6088100039
0.6088100053
0.6088100058
0.6088100031
0.6088100012
0.6088100026
0.6088100048
0.608810005
0.6088100048
0.6088100042
0.6088100034
0.6088100027
0.6088100019
0.6088100012
0.6088100007
0.6088100004
0.6088100002
0.6088100002
0.6088100003
0.6088100002
0.6088100001
0.6088100016
0.6088100026
0.6088100044
0.6088100071
0.6088100109
0.6088100099
0.6088100082
0.6088100042
0.6088100024
0.6088100023
0.6088100026
0.6088100034
0.6088100056
0.6088100059
0.6088100028
0.6088100028
0.6088100047
0.6088100051
0.6088100052
0.6088100046
0.6088100037
0.6088100028
0.6088100019
0.6088100012
0.6088100007
0.6088100004
0.6088100003
0.6088100003
0.6088100005
0.6088100003
0.6088100002
0.6088100027
0.6088100043
0.6088100055
0.6088100074
0.6088100099
0.6088100092
0.6088100087
0.6088100062
0.6088100029
0.6088100019
0.6088100019
0.6088100021
0.6088100039
0.608810006
0.6088100039
0.608810003
0.6088100046
0.6088100051
0.6088100054
0.6088100051
0.6088100041
0.6088100031
0.6088100021
0.6088100014
0.6088100008
0.6088100005
0.6088100004
0.6088100004
0.6088100008
0.6088100005
0.6088100003
0.6088100044
0.6088100054
0.6088100056
0.6088100073
0.6088100095
0.6088100092
0.6088100093
0.6088100086
0.6088100037
0.6088100019
0.6088100016
0.6088100014
0.6088100026
0.6088100042
0.6088100031
0.6088100025
0.6088100027
0.6088100028
0.6088100029
0.6088100031
0.6088100033
0.6088100034
0.6088100034
0.6088100032
0.6088100028
0.6088100023
0.6088100021
0.6088100024
0.6088100035
0.6088100028
0.6088100024
0.6088100028
0.6088100026
0.6088100024
0.608810002
0.6088100019
0.6088100018
0.608810002
0.6088100019
0.6088100025
0.6088100017
0.6088100013
0.6088100008
0.6088100009
0.6088100009
0.6088100015
)
;

boundaryField
{
    walls
    {
        type            zeroGradient;
    }
    wallFilmFace_top
    {
        type            zeroGradient;
    }
    region0_to_wallFilmRegion_wallFilmFace
    {
        type            zeroGradient;
    }
    mirrorFace_top
    {
        type            zeroGradient;
    }
    region0_to_wallFilmRegion_mirrorFace
    {
        type            zeroGradient;
    }
    procBoundary1to0
    {
        type            processor;
        value           nonuniform List<scalar> 
52
(
0.6088100025
0.6088100042
0.6088100038
0.6088100032
0.6088100026
0.6088100021
0.6088100018
0.6088100019
0.6088100019
0.608810002
0.6088100021
0.6088100023
0.6088100035
0.6088100035
0.6088100041
0.6088100053
0.6088100053
0.6088100034
0.6088100014
0.6088100065
0.6088100234
0.6088100234
0.6088100273
0.6088100828
0.6088100828
0.6088106557
0.6088104707
0.608810155
0.6088100037
0.6088100037
0.6088100031
0.6088100055
0.6088100055
0.608810005
0.6088100052
0.6088100052
0.6088100065
0.6088100064
0.6088100062
0.6088100062
0.6088100064
0.6088100064
0.6088100129
0.6088100057
0.6088099837
0.6088099837
0.6088099528
0.608809942
0.6088099388
0.6088099384
0.6088100053
0.6088099803
)
;
    }
    procBoundary1to2
    {
        type            processor;
        value           nonuniform List<scalar> 
33
(
0.608809985
0.608809995
0.608809995
0.6088100152
0.6088100152
0.6088100211
0.6088100042
0.6088123287
0.6088123287
0.6088100271
0.6088100122
0.6088100091
0.6088100155
0.6088100662
0.6088099976
0.6088099946
0.6088099946
0.6088099753
0.6088099801
0.6088099885
0.6088100013
0.6088100125
0.6088099983
0.6088100004
0.6088100003
0.60881
0.60881
0.6088100001
0.6088100003
0.6088100007
0.6088100019
0.6088100031
0.6088100021
)
;
    }
}


// ************************************************************************* //
