/*--------------------------------*- C++ -*----------------------------------*\
  =========                 |
  \\      /  F ield         | OpenFOAM: The Open Source CFD Toolbox
   \\    /   O peration     | Website:  https://openfoam.org
    \\  /    A nd           | Version:  8
     \\/     M anipulation  |
\*---------------------------------------------------------------------------*/
FoamFile
{
    version     2.0;
    format      ascii;
    class       volScalarField;
    location    "0.5/wallFilmRegion";
    object      mu;
}
// * * * * * * * * * * * * * * * * * * * * * * * * * * * * * * * * * * * * * //

dimensions      [1 -1 -1 0 0 0 0];

internalField   nonuniform List<scalar> 
1369
(
0.0008861473766
0.0008861473541
0.0008861473611
0.0008861473691
0.000886147376
0.000886147381
0.0008861473837
0.0008861473785
0.0008861473547
0.0008861473615
0.0008861473688
0.0008861473748
0.0008861473789
0.0008861473806
0.0008861473799
0.0008861473772
0.0008861473732
0.0008861473681
0.0008861473805
0.0008861473512
0.0008861473575
0.0008861473643
0.0008861473698
0.0008861473734
0.0008861473745
0.0008861473726
0.0008861473678
0.0008861473612
0.0008861473542
0.0008861473475
0.0008861473408
0.0008861473826
0.0008861473431
0.0008861473485
0.0008861473545
0.0008861473595
0.000886147363
0.0008861473639
0.0008861473604
0.0008861473514
0.0008861473401
0.0008861473336
0.0008861473342
0.0008861473365
0.0008861473359
0.0008861473342
0.0008861473788
0.0008861472667
0.0008861473846
0.0008861473346
0.0008861473392
0.0008861473443
0.0008861473491
0.0008861473523
0.0008861473529
0.0008861473521
0.0008861473508
0.0008861473492
0.0008861473476
0.000886147344
0.0008861473355
0.0008861473163
0.0008861472699
0.0008861471286
0.0008861468914
0.0008861468035
0.0008861468801
0.0008861473863
0.0008861473329
0.0008861473402
0.0008861473483
0.0008861473557
0.0008861473612
0.0008861473655
0.0008861473698
0.0008861473743
0.0008861473759
0.0008861473732
0.0008861473657
0.0008861473503
0.0008861473182
0.0008861472594
0.0008861469926
0.0008861450873
0.0008861398365
0.0008861462191
0.0008861470478
0.0008861461257
0.0008861454862
0.0008861460894
0.000886147388
0.000886147332
0.0008861473424
0.0008861473534
0.0008861473617
0.0008861473673
0.0008861473711
0.0008861473741
0.0008861473779
0.0008861473824
0.0008861473849
0.0008861473832
0.0008861473745
0.0008861473531
0.0008861473039
0.0008861472293
0.0008861471275
0.0008861471562
0.0008861472202
0.0008861472103
0.0008861467815
0.0008861469557
0.0008861471492
0.0008861472883
0.0008861472937
0.0008861473896
0.0008861473282
0.0008861473412
0.0008861473535
0.0008861473616
0.0008861473668
0.0008861473705
0.0008861473731
0.0008861473751
0.0008861473776
0.0008861473808
0.0008861473828
0.0008861473815
0.0008861473762
0.0008861473775
0.0008861473844
0.0008861473886
0.0008861473908
0.0008861473913
0.0008861473881
0.0008861472642
0.0008861472819
0.0008861472815
0.000886147274
0.000886147258
0.0008861473274
0.0008861473911
0.000886147316
0.0008861473313
0.0008861473457
0.0008861473539
0.0008861473581
0.0008861473611
0.0008861473643
0.000886147366
0.0008861473672
0.0008861473691
0.0008861473726
0.0008861473768
0.0008861473796
0.0008861473826
0.0008861473832
0.000886147378
0.000886147358
0.0008861473237
0.0008861472664
0.0008861469487
0.0008861470952
0.0008861471575
0.0008861471906
0.000886147218
0.0008861473291
0.0008861473922
0.0008861472914
0.0008861473117
0.0008861473357
0.0008861473475
0.0008861473518
0.0008861473528
0.0008861473584
0.000886147363
0.0008861473665
0.00088614737
0.0008861473741
0.0008861473779
0.0008861473804
0.0008861473806
0.0008861473762
0.0008861473602
0.000886147327
0.0008861472756
0.0008861471535
0.0008861468647
0.000886147031
0.0008861471139
0.0008861471677
0.0008861472071
0.0008861472618
0.0008861473258
0.0008861473922
0.0008861472313
0.0008861472396
0.0008861473069
0.0008861473414
0.000886147351
0.0008861473519
0.0008861473593
0.0008861473639
0.0008861473661
0.0008861473663
0.0008861473655
0.000886147365
0.0008861473648
0.0008861473634
0.0008861473591
0.0008861473502
0.0008861473335
0.0008861473013
0.0008861472255
0.0008861470479
0.0008861471287
0.000886147166
0.0008861471933
0.0008861472204
0.0008861472641
0.0008861473217
0.0008861473896
0.0008861472356
0.0008861472549
0.000886147297
0.0008861473294
0.0008861473439
0.0008861473487
0.0008861473567
0.0008861473618
0.0008861473638
0.0008861473629
0.0008861473595
0.0008861473552
0.000886147353
0.0008861473532
0.0008861473531
0.0008861473508
0.0008861473439
0.0008861473271
0.0008861472871
0.0008861472127
0.0008861472244
0.0008861472208
0.0008861472206
0.0008861472306
0.0008861472609
0.0008861473207
0.0008861473799
0.0008861472782
0.0008861473002
0.0008861473116
0.0008861473195
0.0008861473292
0.0008861473405
0.0008861473499
0.0008861473561
0.0008861473589
0.0008861473589
0.0008861473566
0.0008861473532
0.0008861473513
0.0008861473527
0.0008861473556
0.0008861473581
0.0008861473598
0.0008861473594
0.0008861473558
0.000886147361
0.0008861473205
0.0008861472835
0.0008861472574
0.000886147248
0.0008861472585
0.0008861473044
0.0008861473224
0.0008861473812
0.0008861473322
0.000886147338
0.0008861473333
0.0008861473266
0.0008861473251
0.000886147331
0.000886147339
0.0008861473449
0.0008861473476
0.000886147347
0.0008861473434
0.0008861473369
0.0008861473303
0.0008861473309
0.0008861473386
0.0008861473506
0.0008861473671
0.0008861473894
0.0008861474221
0.0008861474811
0.0008861474094
0.0008861473415
0.0008861472834
0.0008861472492
0.0008861472524
0.0008861473227
0.0008861473224
0.0008861472992
0.0008861473844
0.0008861473684
0.0008861473621
0.000886147351
0.000886147338
0.0008861473278
0.0008861473259
0.0008861473297
0.0008861473331
0.000886147333
0.0008861473296
0.0008861473216
0.0008861473047
0.0008861472753
0.0008861472479
0.000886147243
0.0008861472452
0.0008861472519
0.0008861472633
0.0008861472904
0.0008861473842
0.0008861473146
0.000886147264
0.0008861472354
0.0008861472117
0.0008861471631
0.0008861474749
0.0008861472274
0.0008861472324
0.0008861473888
0.0008861473758
0.000886147362
0.0008861473415
0.0008861473277
0.0008861473223
0.0008861473228
0.0008861473258
0.0008861473286
0.0008861473298
0.0008861473291
0.000886147323
0.0008861473042
0.0008861472892
0.0008861472726
0.00088614726
0.0008861472437
0.000886147225
0.0008861471966
0.0008861471625
0.0008861472491
0.0008861472451
0.0008861472372
0.000886147218
0.0008861471852
0.0008861471111
0.0008861473807
0.000886147198
0.0008861472303
0.0008861473791
0.000886147326
0.0008861473142
0.0008861473076
0.0008861473078
0.0008861473115
0.0008861473165
0.0008861473226
0.000886147332
0.0008861473463
0.0008861473582
0.0008861473565
0.0008861473186
0.000886147306
0.000886147292
0.0008861472798
0.000886147256
0.0008861472111
0.0008861471501
0.0008861470556
0.000886147124
0.0008861471726
0.0008861471685
0.0008861471369
0.000886147369
0.0008861475064
0.000886147544
0.0008861475281
0.0008861473836
0.0008861396797
0.0008860926764
0.0008860924389
0.0008860899797
0.0008860867459
0.0008861473756
0.0008861473476
0.0008861473412
0.0008861473324
0.0008861473221
0.0008861473134
0.0008861473113
0.0008861473241
0.0008861473518
0.0008861473732
0.0008861473822
0.0008861473793
0.0008861473139
0.0008861473101
0.0008861473052
0.0008861473024
0.000886147301
0.0008861472657
0.0008861471436
0.0008861469495
0.0008861468622
0.0008861469903
0.0008861469545
0.0008861467638
0.0008861474054
0.0008861474925
0.0008861475234
0.0008861474421
0.0008861460802
0.0008860925908
0.0008861474103
0.0008860920896
0.0008860896442
0.0008861183
0.0008861473736
0.000886147341
0.0008861473434
0.000886147344
0.0008861473427
0.000886147341
0.0008861473433
0.0008861473563
0.0008861473746
0.0008861473869
0.0008861473926
0.0008861473903
0.000886147304
0.0008861473017
0.0008861473048
0.0008861473119
0.0008861473267
0.0008861473384
0.000886147223
0.0008861468579
0.0008861432905
0.0008861456415
0.0008861430309
0.0008861138066
0.0008861350193
0.0008861474644
0.0008861473502
0.0008861457374
0.000886090882
0.0008860921614
0.0008860923984
0.0008860909868
0.0008860886405
0.0008861125504
0.0008861473765
0.0008861473091
0.0008861473195
0.0008861473279
0.0008861473343
0.0008861473409
0.0008861473511
0.0008861473665
0.0008861473818
0.000886147392
0.0008861473966
0.0008861473937
0.0008861473018
0.0008861472813
0.0008861472824
0.0008861472955
0.0008861473253
0.0008861473569
0.0008861473159
0.0008861469599
0.0008860811134
0.0008861457634
0.000886147196
0.0008861473208
0.0008861473605
0.0008861474089
0.00088614739
0.0008861468739
0.0008861468725
0.0008861470281
0.0008861471703
0.0008861472912
0.0008861473935
0.000886147377
0.0008861472549
0.0008861472712
0.0008861472924
0.0008861473366
0.0008861474393
0.0008861473487
0.0008861473728
0.0008861473887
0.0008861473968
0.0008861473993
0.000886147394
0.0008861473473
0.0008861473177
0.0008861472398
0.0008861472543
0.0008861473132
0.0008861473587
0.0008861473477
0.0008861472551
0.0008861474347
0.0008860876462
0.0008861466306
0.0008861472739
0.0008861473474
0.0008861473706
0.0008861473552
0.0008861471389
0.0008861470688
0.0008861470324
0.0008861470438
0.000886147104
0.0008861473779
0.0008861472128
0.000886147279
0.0008861474982
0.0008861476512
0.000886147687
0.0008861473648
0.000886147389
0.0008861473985
0.0008861474017
0.0008861474006
0.0008861473927
0.000886147365
0.0008861473652
0.0008861472124
0.0008861471967
0.0008861472948
0.000886147356
0.0008861473602
0.0008861473466
0.0008861474409
0.0008860818485
0.0008860861804
0.0008861463931
0.0008861472287
0.0008861473383
0.0008861474065
0.0008861472316
0.0008861471552
0.0008861471271
0.000886147093
0.0008861470758
0.0008861473782
0.0008861472923
0.0008861473457
0.0008861473855
0.0008861474078
0.0008861474227
0.000886147404
0.0008861474062
0.000886147407
0.0008861474071
0.0008861474064
0.0008861474041
0.0008861473933
0.0008861473878
0.0008861473843
0.0008861473767
0.0008861473552
0.0008861473532
0.000886147365
0.0008861473592
0.0008861473627
0.0008860816939
0.0008860820827
0.0008861275949
0.000886147256
0.0008861474357
0.0008861474503
0.000886147253
0.0008861467368
0.0008861466474
0.000886146714
0.0008861467469
0.0008861473772
0.0008861472646
0.0008861473059
0.0008861473591
0.0008861473826
0.0008861473951
0.0008861473996
0.0008861474032
0.0008861474053
0.0008861474062
0.0008861474061
0.0008861474042
0.0008861473932
0.0008861473844
0.0008861473811
0.0008861473742
0.0008861473511
0.0008861473496
0.000886147366
0.0008861473658
0.0008861473123
0.0008861471931
0.0008861470852
0.0008861468875
0.00088614653
0.0008861470938
0.0008861474489
0.0008861473915
0.0008861470294
0.0008861339401
0.0008861157567
0.0008861473756
0.0008861472735
0.0008861472637
0.0008861473037
0.0008861473455
0.0008861473729
0.0008861473881
0.0008861473966
0.0008861474015
0.000886147404
0.0008861474048
0.0008861474032
0.0008861473731
0.0008861473745
0.0008861473744
0.0008861473635
0.0008861473344
0.000886147346
0.0008861473653
0.0008861474022
0.0008861474565
0.0008861473414
0.0008861472339
0.0008861475339
0.0008861474478
0.0008861471419
0.0008861475216
0.0008861473439
0.0008861472908
0.0008861472196
0.0008861471568
0.0008861473746
0.0008861473535
0.0008861473458
0.0008861473331
0.0008861473203
0.0008861473314
0.0008861473596
0.000886147378
0.0008861473881
0.0008861473946
0.0008861473982
0.0008861473958
0.0008861473473
0.0008861473688
0.0008861473695
0.0008861473407
0.0008861473244
0.0008861473424
0.0008861473608
0.0008861473986
0.0008861475042
0.0008861476154
0.0008861476497
0.0008861477125
0.0008861476319
0.0008861475076
0.0008861476555
0.00088614755
0.000886147469
0.0008861474238
0.0008861473243
0.0008861473738
0.000886147364
0.0008861473615
0.0008861473553
0.0008861473426
0.0008861473202
0.0008861473144
0.0008861473377
0.0008861473578
0.0008861473731
0.0008861473835
0.0008861473833
0.0008861473531
0.0008861473669
0.000886147366
0.0008861473282
0.000886147323
0.0008861473377
0.0008861473495
0.0008861473425
0.0008861471045
0.0008861475487
0.0008861475884
0.0008861476768
0.0008861475392
0.0008861474048
0.0008861474231
0.0008861474557
0.0008861474299
0.0008861474401
0.0008861473593
0.0008861473728
0.0008861473619
0.0008861473607
0.0008861473567
0.0008861473476
0.000886147326
0.000886147291
0.0008861472934
0.0008861473247
0.0008861473516
0.0008861473678
0.0008861473712
0.0008861473572
0.000886147366
0.0008861473643
0.0008861473292
0.0008861473207
0.000886147328
0.000886147322
0.0008861471887
0.0008861467448
0.0008861471618
0.0008861474829
0.0008861475189
0.0008861473573
0.0008861472453
0.0008861475145
0.0008861475062
0.0008861475622
0.000886147433
0.0008861473257
0.0008861473721
0.000886147352
0.0008861473524
0.0008861473498
0.0008861473419
0.0008861473223
0.0008861472837
0.0008861472566
0.0008861472824
0.0008861473235
0.0008861473501
0.0008861473604
0.0008861473578
0.0008861473644
0.0008861473622
0.0008861473305
0.0008861473365
0.0008861474665
0.0008861476285
0.0008861474573
0.0008861475034
0.0008861465025
0.0008861472117
0.0008861474167
0.0008861475002
0.0008861474644
0.0008861474815
0.0008861475107
0.0008861475454
0.0008861474337
0.000886147342
0.0008861473726
0.0008861473346
0.0008861473388
0.0008861473394
0.0008861473358
0.0008861473275
0.0008861473169
0.0008861473094
0.0008861473066
0.0008861473085
0.0008861473258
0.0008861473496
0.000886147355
0.0008861473612
0.0008861473579
0.0008861473252
0.0008861473242
0.0008861474276
0.0008861476358
0.0008861474151
0.0008861474446
0.0008861468812
0.0008861468877
0.000886147365
0.0008861474987
0.0008861474951
0.0008861474894
0.0008861474496
0.0008861474628
0.0008861474624
0.000886147466
0.0008861473738
0.0008861473339
0.0008861473442
0.0008861473524
0.0008861473584
0.0008861473638
0.0008861473689
0.0008861473729
0.0008861473736
0.0008861473635
0.0008861473331
0.000886147336
0.0008861473483
0.0008861473553
0.0008861473506
0.0008861473139
0.0008861473006
0.0008861473119
0.000886147403
0.0008861472361
0.0008861472739
0.0008861470977
0.0008861468343
0.0008861473935
0.0008861475052
0.0008861475292
0.0008861476183
0.0008861474948
0.0008861475106
0.0008861474708
0.0008861474735
0.0008861473757
0.0008861473398
0.0008861473508
0.0008861473593
0.0008861473654
0.0008861473708
0.0008861473762
0.0008861473785
0.0008861473682
0.0008861473329
0.0008861472981
0.0008861473135
0.0008861473351
0.0008861473454
0.0008861473432
0.0008861473393
0.0008861473978
0.0008861474605
0.0008861471806
0.0008861471498
0.0008861471506
0.0008861475863
0.000886147767
0.0008861476861
0.0008861475125
0.0008861474736
0.0008861474064
0.0008861474951
0.0008861474853
0.0008861475788
0.0008861474655
0.0008861473777
0.0008861473312
0.0008861473428
0.0008861473518
0.0008861473573
0.0008861473627
0.0008861473651
0.0008861473543
0.0008861473233
0.0008861472893
0.0008861472715
0.0008861472828
0.0008861473123
0.0008861473277
0.0008861473321
0.0008861473504
0.0008861474135
0.0008861474492
0.0008861472776
0.0008861471288
0.0008861470175
0.0008861473632
0.0008861475659
0.0008861474349
0.0008861473687
0.0008861473967
0.0008861473246
0.0008861472791
0.0008861473139
0.0008861474911
0.0008861474963
0.0008861473788
0.000886147345
0.0008861473523
0.0008861473585
0.0008861473619
0.0008861473588
0.0008861473424
0.0008861473212
0.0008861473088
0.0008861473002
0.0008861472885
0.0008861472818
0.0008861473164
0.000886147334
0.0008861473045
0.0008861473576
0.0008861474259
0.0008861474542
0.0008861474585
0.0008861471273
0.0008861470497
0.0008861470575
0.0008861473089
0.0008861473286
0.000886147376
0.0008861474055
0.000886147212
0.0008861471911
0.0008861472851
0.0008861474254
0.0008861475745
0.0008861473797
0.0008861473616
0.0008861473662
0.0008861473697
0.0008861473707
0.0008861473675
0.0008861473582
0.0008861473446
0.0008861473307
0.0008861473173
0.0008861473047
0.0008861473041
0.0008861473504
0.0008861473668
0.0008861472464
0.000886147317
0.000886147393
0.0008861474358
0.0008861474464
0.0008861472553
0.0008861473334
0.0008861473707
0.000886147381
0.0008861473889
0.0008861473976
0.0008861474104
0.0008861474088
0.0008861474079
0.0008861474028
0.0008861474487
0.0008861475563
0.0008861473803
0.0008861473696
0.0008861473737
0.0008861473765
0.0008861473771
0.0008861473749
0.0008861473702
0.0008861473665
0.0008861473741
0.0008861474104
0.0008861474689
0.0008861475055
0.000886147387
0.0008861473792
0.0008861471844
0.0008861472123
0.0008861473045
0.0008861473908
0.000886147415
0.000886147304
0.0008861472376
0.000886147321
0.0008861473519
0.0008861473691
0.00088614739
0.0008861474098
0.0008861474
0.0008861467991
0.0008861469447
0.0008861473449
0.0008861474514
0.0008861473807
0.0008861473721
0.0008861473761
0.0008861473792
0.0008861473804
0.0008861473791
0.000886147376
0.0008861473734
0.000886147379
0.0008861474078
0.0008861474608
0.0008861475001
0.0008861473913
0.0008861473797
0.0008861471424
0.0008861470147
0.000886147123
0.0008861473089
0.0008861473401
0.000886147256
0.0008861471534
0.0008861471072
0.0008861471968
0.0008861473462
0.000886147387
0.0008861474087
0.0008861473453
0.0008861447532
0.000886145978
0.0008861470231
0.0008861473274
0.0008861473809
0.0008861473717
0.0008861473758
0.0008861473794
0.0008861473814
0.0008861473812
0.0008861473787
0.0008861473754
0.0008861473751
0.0008861473871
0.0008861474213
0.0008861474538
0.0008861473835
0.0008861473742
0.0008861471115
0.0008861467133
0.0008861467257
0.0008861471506
0.0008861472058
0.0008861471292
0.0008861470076
0.0008861468614
0.000886147167
0.0008861473594
0.0008861473838
0.0008861474071
0.000886146861
0.0008861459679
0.0008861461707
0.0008861467601
0.0008861471858
0.0008861473811
0.0008861473695
0.0008861473738
0.0008861473781
0.0008861473809
0.0008861473817
0.00088614738
0.0008861473763
0.0008861473718
0.0008861473704
0.0008861473778
0.0008861473852
0.0008861473926
0.000886147364
0.0008861470861
0.0008861463598
0.0008861459112
0.0008861468448
0.0008861469816
0.0008861469077
0.0008861473601
0.0008861473718
0.0008861473549
0.0008861473595
0.0008861473762
0.0008861474041
0.0008861468859
0.0008861466829
0.0008861466376
0.0008861468122
0.0008861470893
0.0008861473809
0.0008861473658
0.0008861473704
0.0008861473754
0.0008861473791
0.0008861473809
0.0008861473801
0.0008861473766
0.0008861473705
0.0008861473658
0.0008861473746
0.0008861473909
0.0008861473999
0.0008861473447
0.0008861470537
0.0008861460539
0.0008861446298
0.0008861463303
0.0008861466448
0.0008861466752
0.0008861472629
0.0008861473638
0.0008861473722
0.0008861473594
0.0008861473617
0.0008861473973
0.0008861471082
0.0008861470025
0.0008861469418
0.0008861469903
0.0008861470923
0.0008861473804
0.0008861473605
0.0008861473653
0.0008861473712
0.0008861473759
0.0008861473787
0.0008861473789
0.000886147376
0.0008861473702
0.0008861473661
0.0008861473781
0.0008861473962
0.0008861474016
0.00088614731
0.000886146989
0.000886145948
0.0008861432265
0.0008861457661
0.0008861463208
0.0008861464966
0.0008861470432
0.0008861473177
0.0008861473724
0.0008861473744
0.0008861473511
0.0008861473811
0.0008861473392
0.0008861473839
0.0008861473998
0.0008861474058
0.0008861474083
0.0008861473794
0.0008861473542
0.0008861473588
0.0008861473655
0.0008861473714
0.0008861473756
0.0008861473793
0.0008861473852
0.0008861473934
0.000886147401
0.0008861474068
0.0008861474097
0.0008861474104
0.0008861473797
0.0008861473747
0.0008861473467
0.0008861470413
0.0008861460216
0.0008861463218
0.0008861465555
0.0008861469401
0.0008861472646
0.0008861473597
0.0008861473758
0.0008861473595
0.0008861473566
0.0008861473213
0.0008861473648
0.0008861473922
0.0008861474032
0.0008861474076
0.000886147378
0.0008861473481
0.0008861473513
0.0008861473581
0.000886147365
0.0008861473705
0.0008861473756
0.0008861473831
0.0008861473929
0.0008861474013
0.0008861474066
0.0008861474091
0.0008861474095
0.0008861474047
0.0008861474055
0.0008861474063
0.0008861473697
0.0008861473549
0.0008861473307
0.0008861472786
0.0008861471682
0.0008861472501
0.0008861473336
0.0008861473748
0.0008861473742
0.0008861473528
0.0008861473317
0.0008861473308
0.0008861473669
0.0008861473926
0.0008861474036
0.0008861473762
0.0008861473442
0.0008861473443
0.0008861473501
0.000886147358
0.0008861473655
0.0008861473728
0.0008861473817
0.000886147392
0.0008861474006
0.0008861474058
0.0008861474083
0.0008861474088
0.0008861474065
0.0008861474078
0.0008861474087
0.0008861473901
0.000886147382
0.0008861473611
0.0008861473171
0.0008861472354
0.0008861472595
0.0008861473081
0.0008861473672
0.000886147378
0.0008861473682
0.0008861473557
0.000886147336
0.0008861473291
0.0008861473667
0.0008861473935
0.0008861473741
0.0008861473435
0.0008861473401
0.0008861473433
0.0008861473521
0.0008861473625
0.0008861473728
0.0008861473832
0.0008861473931
0.0008861474008
0.0008861474053
0.0008861474075
0.0008861474079
0.000886147406
0.0008861474076
0.0008861474087
0.0008861473884
0.0008861473743
0.0008861473486
0.0008861473109
0.0008861472576
0.0008861472728
0.0008861472961
0.0008861473517
0.0008861473764
0.0008861473786
0.0008861473739
0.0008861473622
0.0008861473315
0.0008861473281
0.000886147371
0.0008861473714
0.0008861473452
0.0008861473392
0.0008861473381
0.0008861473462
0.0008861473588
0.0008861473716
0.0008861473834
0.0008861473934
0.0008861474005
0.0008861474047
0.0008861474065
0.0008861474066
0.0008861474038
0.0008861474063
0.0008861474078
0.0008861473733
0.0008861473509
0.0008861473339
0.0008861473077
0.0008861472726
0.0008861472824
0.0008861472894
0.000886147324
0.0008861473696
0.0008861473831
0.0008861473841
0.0008861473815
0.0008861473563
0.0008861473259
0.0008861473564
0.0008861473689
0.0008861473458
0.0008861473388
0.0008861473343
0.0008861473398
0.000886147353
0.0008861473674
0.0008861473804
0.0008861473911
0.0008861473987
0.0008861474032
0.0008861474051
0.0008861474047
0.0008861473989
0.0008861474032
0.0008861474056
0.0008861473485
0.0008861473354
0.0008861473316
0.0008861473085
0.0008861472774
0.0008861472821
0.0008861472805
0.0008861472901
0.0008861473582
0.0008861473838
0.0008861473879
0.0008861473912
0.0008861473744
0.0008861473516
0.0008861473676
0.0008861473758
0.0008861473724
0.0008861473713
0.0008861473694
0.0008861473673
0.0008861473646
0.0008861473624
0.0008861473624
0.0008861473655
0.0008861473714
0.0008861473775
0.0008861473808
0.0008861473769
0.0008861473622
0.0008861473709
0.0008861473762
0.0008861473719
0.0008861473734
0.0008861473765
0.0008861473822
0.0008861473843
0.0008861473846
0.0008861473831
0.000886147384
0.0008861473753
0.0008861473865
0.0008861473922
0.0008861473987
0.0008861473983
0.0008861473977
0.0008861473901
)
;

boundaryField
{
    walls
    {
        type            zeroGradient;
    }
    wallFilmFace_top
    {
        type            zeroGradient;
    }
    region0_to_wallFilmRegion_wallFilmFace
    {
        type            zeroGradient;
    }
    mirrorFace_top
    {
        type            zeroGradient;
    }
    region0_to_wallFilmRegion_mirrorFace
    {
        type            zeroGradient;
    }
    procBoundary1to0
    {
        type            processor;
        value           nonuniform List<scalar> 
52
(
0.0008861473748
0.000886147351
0.0008861473575
0.0008861473662
0.0008861473745
0.0008861473808
0.0008861473847
0.0008861473841
0.0008861473841
0.000886147383
0.0008861473807
0.0008861473777
0.0008861473618
0.0008861473618
0.0008861473535
0.0008861473357
0.0008861473357
0.0008861473629
0.0008861473912
0.0008861473199
0.0008861470838
0.0008861470838
0.0008861470285
0.0008861462547
0.0008861462547
0.0008861382563
0.0008861408393
0.000886145247
0.000886147358
0.000886147358
0.0008861473668
0.0008861473335
0.0008861473335
0.0008861473407
0.0008861473377
0.0008861473377
0.0008861473194
0.0008861473212
0.0008861473235
0.0008861473235
0.0008861473207
0.0008861473207
0.0008861472297
0.000886147331
0.0008861476379
0.0008861476379
0.0008861480691
0.0008861482197
0.0008861482651
0.0008861482705
0.0008861473362
0.0008861476847
)
;
    }
    procBoundary1to2
    {
        type            processor;
        value           nonuniform List<scalar> 
33
(
0.0008861476203
0.0008861474796
0.0008861474796
0.0008861471983
0.0008861471983
0.0008861471157
0.0008861473516
0.0008861149008
0.0008861149008
0.000886147032
0.0008861472397
0.0008861472834
0.0008861471936
0.0008861464864
0.0008861474439
0.0008861474855
0.0008861474862
0.0008861477548
0.0008861476881
0.000886147571
0.0008861473915
0.000886147236
0.0008861474345
0.0008861474053
0.0008861474065
0.000886147411
0.0008861474106
0.0008861474094
0.0008861474067
0.0008861473999
0.0008861473833
0.0008861473674
0.0008861473809
)
;
    }
}


// ************************************************************************* //
