/*--------------------------------*- C++ -*----------------------------------*\
  =========                 |
  \\      /  F ield         | OpenFOAM: The Open Source CFD Toolbox
   \\    /   O peration     | Website:  https://openfoam.org
    \\  /    A nd           | Version:  8
     \\/     M anipulation  |
\*---------------------------------------------------------------------------*/
FoamFile
{
    version     2.0;
    format      ascii;
    class       surfaceScalarField;
    location    "0.5/wallFilmRegion";
    object      phi;
}
// * * * * * * * * * * * * * * * * * * * * * * * * * * * * * * * * * * * * * //

dimensions      [1 0 -1 0 0 0 0];

internalField   nonuniform List<scalar> 
2656
(
-0.0009029980589
-0.009390571558
-0.00115147254
-0.0004857171913
-0.001334022029
-0.0006728604286
-0.001330022514
-0.0007048381169
-0.001130087225
-0.0006479724092
-0.0008856315365
-0.000520950756
-0.0004071971052
-0.0008663564282
-0.009153446581
-0.001125364023
-0.0003806053597
-0.001295696519
-0.000539460712
-0.0012329317
-0.000549141271
-0.0009934346951
-0.0004803525954
-0.0007427221589
-0.0003648772636
-0.0005479242429
-0.00026559838
-0.0004052145794
-0.0001970350311
-0.000299862642
-0.0001532091297
-0.0002191289268
-0.0001250305326
-0.0001057726486
-0.000696305629
-0.00867572615
-0.0008913332556
-0.0002481272092
-0.001018325818
-0.0003525519299
-0.0009720972982
-0.0003492959079
-0.00078245052
-0.0003083860564
-0.0005686739914
-0.0002306382719
-0.0004000554878
-0.0001509965461
-0.0002833792741
-9.579941957e-05
-0.0002053328762
-6.540619563e-05
-0.0001522386996
-5.102324713e-05
-0.0001133053071
-4.649748215e-05
-8.080547851e-05
-4.783224848e-05
-5.273657104e-05
-0.0004610718754
-0.007944644676
-0.0005688261943
-0.0001601851662
-0.0006654663632
-0.0002297372282
-0.000668999623
-0.0002224224008
-0.0005589695887
-0.0002075496263
-0.0003937466133
-0.0001513924545
-0.0002492727924
-7.819480338e-05
-0.0001579366157
-3.039287799e-05
-0.0001098821239
-1.051370893e-05
-8.947746595e-05
-4.594441969e-06
-8.364670727e-05
-6.223121643e-06
-8.079536119e-05
-1.401649311e-05
-6.885373593e-05
-2.758135646e-05
-4.150047218e-05
-3.978740407e-05
2.098868144e-06
-3.640252336e-05
-2.589102784e-05
-1.76681997e-05
-8.462307039e-06
-0.00029802753
-0.007022106238
-0.0003444983157
-0.0001324701991
-0.0004332090403
-0.000201894753
-0.0004829085805
-0.0002120456383
-0.0004506295696
-0.0002097245892
-0.0003272774466
-0.0001467595228
-0.0002112493799
5.29235928e-06
-0.0001489757239
4.757426957e-05
-0.0001221475065
5.873152183e-05
-0.0001163355863
6.391095305e-05
-0.0001200264792
6.281055847e-05
-0.0001182788187
4.998907743e-05
-9.654365563e-05
2.284582517e-05
-5.72385444e-05
-7.443903587e-06
-2.030100375e-05
-2.155156328e-05
-9.072989033e-06
-6.126147113e-06
-5.743082568e-06
-9.385784744e-07
-4.293828721e-06
-2.076066963e-07
-2.218968438e-06
-0.0002565179426
-0.005997830942
-0.000309850464
-0.0001172467058
-0.0004588467314
-0.0002024431236
-0.0006447835398
-0.000266444589
-0.0008576320954
-0.000359987408
-0.0009585949142
-0.0004044115914
-0.0008009396872
-0.0001718907269
-0.0005971932532
0.0001264152521
-0.0004215511505
0.0002159983792
-0.0003066596978
0.0002420852927
-0.0002200064148
0.0002114860658
-0.0001448126924
0.0001546809422
-8.241758669e-05
8.422287861e-05
-4.292637438e-05
2.717113841e-05
-9.861446143e-06
-1.241590137e-05
-1.155986379e-06
-2.118117265e-06
-2.119726288e-07
4.320620022e-09
-1.131765618e-08
-8.560383772e-08
8.020858088e-07
-6.840329622e-08
1.455686581e-06
9.823019675e-06
1.208487934e-06
2.070620752e-06
1.441124029e-06
1.342745022e-06
1.941672789e-06
-0.0002392588193
-0.005001452465
-0.0003112000085
-0.0001023799579
-0.0005525011356
-0.0002040816842
-0.0009840433398
-0.000353056956
-0.001608888712
-0.0006300444159
-0.00218017152
-0.0008861014126
-0.002475440017
-0.0009096432912
-0.002291206493
-0.000705361604
-0.001782386221
-0.0001310143636
-0.001236947854
0.0004548832202
-0.000758407217
0.0006130111452
-0.0003949284592
0.0004775957125
-0.0001701204118
0.000246847467
-5.991587588e-05
8.537690253e-05
-2.448687046e-05
1.051266122e-05
-1.179223647e-05
1.048087239e-05
-9.621047807e-06
8.141688578e-06
-8.659676344e-06
1.049567178e-05
-7.467517039e-06
1.833643624e-05
1.43875583e-06
2.573703057e-05
4.141799141e-06
6.525924285e-06
1.157438077e-05
9.456279903e-06
3.832142038e-05
1.532724608e-05
0.0001880533717
1.316580403e-05
-5.483918909e-05
-0.0002176332433
-0.00409298889
-0.0003018136194
-7.419882989e-05
-0.0005975103181
-0.0001565909809
-0.001158706842
-0.000315533544
-0.001860766694
-0.0006261311956
-0.002326259274
-0.0008662659072
-0.00264338006
-0.0007813668652
-0.002975208571
-0.0006534991629
-0.003228028089
-0.0005290957287
-0.003069112792
-0.0003534511587
-0.002350293701
-0.0001605020247
-0.001280764879
0.0001125951586
-0.0006084857016
0.0002848157468
-0.0004622164875
0.0001102299028
-0.0007652471886
-5.627856571e-06
-0.001410112629
-0.0001553409058
-0.001780192796
-0.0002048154715
-0.001499949897
-9.798757466e-05
-0.0007299957803
-4.775912756e-05
-1.07423247e-05
-1.929121759e-05
7.871256849e-05
-6.516248933e-06
0.0001980961426
-1.605507405e-05
0.0002827538914
-2.614157275e-05
0.0002922560622
-3.549791224e-05
0.0002357296833
-5.616942086e-05
0.0002336091453
-0.0001628434499
-0.003256919254
-0.0002200086288
-4.283447089e-05
-0.000451922892
-8.425310755e-05
-0.0008995561688
-0.0001968653552
-0.001400086047
-0.0005155300652
-0.00144605443
-0.0008489991732
-0.001332425515
-0.0006019304509
-0.001216815516
-0.0004255158408
-0.001100125674
-0.0003842528906
-0.001052137967
-0.0003368300175
-0.001096453663
-0.0002978838999
-0.001174794031
-0.0002811837972
-0.001105142476
-0.0002826024157
-0.001105786764
-0.000318765154
-0.0009809299176
-0.000324286222
-0.0005053023274
-0.0002310461317
-0.0001871980774
-0.0001221641077
-7.960386563e-05
-6.296985534e-05
-2.8822079e-05
-3.49939819e-05
-2.808561731e-07
-1.473128715e-05
9.152956382e-06
-7.204874747e-06
2.606499727e-05
-1.390757069e-05
4.519833871e-05
-2.011639169e-05
6.28325861e-05
-2.617358642e-05
7.235809428e-05
-3.181004475e-05
-3.458735164e-05
-0.0001028885921
-0.00241620357
-0.0001235572189
-2.048584741e-05
-0.0002605349195
-2.573348926e-05
-0.0006076835213
-6.165799066e-05
-0.001118660135
-0.0002970230907
-0.0009655657272
-0.0008418862961
-0.0007996415771
-0.0005614694076
-0.0007442589684
-0.0003690583726
-0.0006841253924
-0.0003413311359
-0.0006559728437
-0.0002874107417
-0.0007054952734
-0.0002230126829
-0.0008293919277
-0.0001737562016
-0.0009048521407
-0.000149002272
-0.0007480320494
-0.0001318694022
-0.0003985905821
-0.0001210247072
-0.0001451464219
-0.0001007139586
-5.432208465e-05
-7.761594972e-05
-2.31795293e-05
-5.463207732e-05
-7.391157371e-06
-3.373402271e-05
-3.694595554e-08
-1.549795657e-05
4.025607808e-06
-8.211924412e-06
1.09749264e-05
-1.378595333e-05
2.065080477e-05
-1.794388811e-05
3.383780624e-05
-2.173011857e-05
5.170131058e-05
-2.569932568e-05
0.0001206861551
-4.522680432e-05
0.000315571583
-6.221739777e-05
-0.001513234508
-5.76039998e-05
-1.921283512e-05
-0.0001106581259
-2.748296783e-05
-0.0003196718602
-5.115394299e-05
-0.0008660669388
-0.0001636813272
-0.0007671068809
-0.0004144307753
-0.0006701291409
-0.000400684522
-0.0006481021902
-0.0003040059251
-0.0005792579784
-0.0002890835911
-0.0004757695908
-0.0002436271467
-0.0003752594603
-0.0001793609197
-0.0003012742514
-0.000122093777
-0.0002528426081
-8.659855496e-05
-0.0002056267947
-7.129895466e-05
-0.0001538627519
-6.656076538e-05
-0.0001022269552
-6.324277593e-05
-6.028153787e-05
-5.612473853e-05
-3.074459744e-05
-4.451977329e-05
-1.069013439e-05
-3.042048917e-05
-1.171668439e-07
-1.643153728e-05
5.043288664e-06
-9.502104344e-06
1.251816375e-05
-1.361751612e-05
2.168756573e-05
-1.57838487e-05
3.325391008e-05
-1.757955003e-05
4.858023431e-05
-1.977417254e-05
7.607792969e-05
-2.947447819e-05
0.0002022340434
-8.331831466e-05
-0.0006736554871
-9.226701305e-05
-2.952296395e-05
-0.0001322397151
-5.694984137e-05
-0.0002403918561
-8.465729099e-05
-0.0004909943661
-0.0001211274986
-0.0005496645196
-0.000155521189
-0.0005422908524
-0.0001967722546
-0.0005426185043
-0.0002194791973
-0.0004859867434
-0.0002225662706
-0.0003828321346
-0.0001978103815
-0.0002719779746
-0.0001520464651
-0.0001895972079
-0.0001028882712
-0.0001435909276
-6.744758579e-05
-0.0001195131383
-5.007360873e-05
-0.0001017213514
-4.433646854e-05
-8.193912858e-05
-4.220994901e-05
-5.846238255e-05
-3.881798067e-05
-3.428360473e-05
-3.287600379e-05
-1.411485025e-05
-2.512714393e-05
-9.94619268e-07
-1.667996999e-05
6.242304436e-06
-1.052502618e-05
1.432160176e-05
-1.248862371e-05
2.257307686e-05
-1.273499462e-05
3.193142647e-05
-1.297044742e-05
4.396104139e-05
-1.383385796e-05
6.199516581e-05
-1.6677223e-05
-4.13450991e-07
-0.0002085194182
-0.0005339158072
-0.0002845539557
-6.403277062e-05
-0.0003184758298
-0.0001441908078
-0.0003219645939
-0.0001480761027
-0.000330819625
-0.0001350509066
-0.0003598435348
-0.0001272565253
-0.0004046851454
-0.0001326710671
-0.0004241776881
-0.0001409756921
-0.0004085671852
-0.0001424562019
-0.0003520097935
-0.0001313666831
-0.0002693497308
-0.0001058002704
-0.0001912072051
-7.18062963e-05
-0.0001391997832
-4.223705928e-05
-0.0001110061046
-2.541947301e-05
-9.293867451e-05
-1.947112345e-05
-7.583468187e-05
-1.835379597e-05
-5.702016875e-05
-1.812101275e-05
-3.764115826e-05
-1.714342236e-05
-1.944728919e-05
-1.537544276e-05
-3.992805156e-06
-1.297160534e-05
7.840397811e-06
-8.873295508e-06
1.681869561e-05
-8.591444389e-06
2.381154087e-05
-7.481777587e-06
3.077767335e-05
-6.90670495e-06
3.974125137e-05
-7.103911881e-06
5.465812292e-05
-9.81433055e-06
0.0001139485521
-1.824624987e-05
3.136015719e-06
-0.0005798632746
-0.001113245252
-0.0006951935809
-0.0003624577752
-0.0005864134826
-0.0003921924342
-0.0004303239771
-0.0002467163788
-0.0003258120517
-0.000152277523
-0.0002854188248
-0.000106507809
-0.0002788166309
-9.152926875e-05
-0.0002820606568
-8.724576339e-05
-0.0002789679296
-8.376323958e-05
-0.0002552609963
-7.655586054e-05
-0.0002053565686
-6.252864325e-05
-0.0001432288262
-4.149371111e-05
-9.380075784e-05
-2.014910314e-05
-6.754964812e-05
-6.520150254e-06
-5.60720678e-05
-7.879792705e-07
-4.953987656e-05
1.424820318e-06
-4.301763931e-05
2.014410579e-06
-3.584490803e-05
2.890122586e-06
-2.718332245e-05
4.257123963e-06
-1.497671148e-05
6.452461769e-06
1.406267751e-05
1.216464676e-05
2.098345535e-05
5.956780379e-06
2.378177861e-05
3.152339817e-06
2.652772568e-05
1.708228859e-06
3.143142998e-05
8.142320619e-07
4.51221803e-05
-9.020381681e-07
7.829425092e-05
8.169484267e-06
0.0001768407855
-4.768961238e-05
-2.117293836e-05
-0.00266935969
-0.003266683729
-0.001884221246
-0.0004782511557
-0.001098560436
-0.0002863489192
-0.0005844834847
-0.0001261612863
-0.0003366475084
-8.51085065e-05
-0.0002427883387
-6.723233966e-05
-0.0002067962005
-5.958978187e-05
-0.0001915526224
-5.585104765e-05
-0.0001821963446
-5.267630698e-05
-0.0001682460951
-4.86292642e-05
-0.0001396179824
-4.266060605e-05
-9.72537521e-05
-2.579344024e-05
-5.940345212e-05
-2.532925763e-06
-3.912544987e-05
7.74234921e-06
-3.205869657e-05
1.143737758e-05
-2.856680833e-05
1.278488567e-05
-2.471589482e-05
1.298875185e-05
-1.98019787e-05
1.287051898e-05
-1.375090498e-05
1.205393328e-05
-6.229314714e-06
1.112522371e-05
1.027563642e-05
1.203313634e-05
1.806229716e-05
1.119171223e-05
2.424336205e-05
1.150422096e-05
3.61567145e-05
1.538911925e-05
6.025082637e-05
2.782409308e-05
3.555911889e-05
1.863799888e-05
-6.251630171e-05
0.0002684739979
-8.088965806e-05
-1.365014667e-05
-5.740626652e-06
-0.001284103794
0.002826888889
-0.0006938176896
-5.217822943e-05
-0.0004286396844
-4.578560783e-05
-0.0002951247975
-3.701583204e-05
-0.0002342215855
-3.311323781e-05
-0.0001992047334
-3.126394827e-05
-0.000177128101
-3.061216941e-05
-0.0001645633151
-3.098555732e-05
-0.0001610002644
-3.496665436e-05
-0.0001634702426
-5.851699783e-05
-0.0001440410495
-0.0001216975607
-9.167191225e-05
-0.0001090060452
-6.998149139e-05
1.799755017e-05
-5.268868513e-05
2.474857001e-05
-4.265771712e-05
2.628670424e-05
-3.551768417e-05
2.592723506e-05
-2.744681301e-05
2.450140774e-05
-1.832447947e-05
2.17873056e-05
-9.64416237e-06
1.717628132e-05
-2.004404591e-06
1.165793184e-05
1.029405099e-05
9.583791935e-06
2.430745347e-05
1.624335377e-05
4.780322246e-05
2.635593933e-05
8.558073122e-05
4.154430719e-05
7.734236102e-05
3.857338815e-05
7.628017467e-06
2.128483597e-05
-2.641086285e-05
6.32530848e-06
-1.972183716e-05
-1.633616178e-05
-2.784394359e-06
-0.0002411287348
0.0008496487803
-0.0001926778586
-1.89522509e-05
-0.0001694014338
-1.133382666e-05
-0.000160980027
-7.417663077e-06
-0.000156489951
-5.706885893e-06
-0.0001520675726
-5.151166773e-06
-0.0001522214137
-5.493208975e-06
-0.0001721858545
-9.573378271e-06
-0.0002410358682
-4.505011444e-05
-0.0003498893503
-0.0002220851292
-0.0003357553663
-0.0005706544932
-0.0001237619028
-0.0005276330729
-9.662343606e-05
4.57708116e-05
-7.040216933e-05
4.981828068e-05
-5.358544608e-05
4.707701868e-05
-4.103346629e-05
4.253281548e-05
-2.846322606e-05
3.72735096e-05
-1.733668663e-05
3.0778205e-05
-8.124720803e-06
2.204220959e-05
-1.890590903e-06
1.281285345e-05
1.276849403e-05
7.441264427e-06
4.023092994e-05
2.259021236e-05
6.726749708e-05
2.96192776e-05
5.034968337e-05
1.908132187e-05
6.108851643e-05
8.303103742e-06
0.0001169332032
6.084138629e-05
0.000206573961
-1.297713265e-05
4.770844772e-05
7.698420312e-06
5.119696815e-07
1.712593622e-07
3.561296436e-15
-2.481542538e-19
-6.845102295e-20
1.574330024e-18
-5.86621091e-19
2.761474689e-18
-3.48944808e-18
4.475639111e-18
-2.709265212e-14
-0.0004244164612
-0.000111797195
-0.0003376772967
1.877259819e-05
-0.0002543611257
2.166004022e-05
-0.0001923727776
2.065535039e-05
-0.0001527483208
1.834419309e-05
-0.0001350656105
1.592614963e-05
-0.0001502463651
1.263231017e-05
-0.0002426709846
-1.548968715e-06
-0.0004574388541
-0.0001694662212
-0.0006799653505
-0.0006733009451
-0.0005705246063
-0.001189440494
-0.0001307602291
-0.0008807779095
-0.000117174988
6.055283389e-05
-9.090727445e-05
7.564939877e-05
-6.914180681e-05
7.965966086e-05
-5.344115008e-05
7.879683172e-05
-3.376049267e-05
7.970995119e-05
-1.715568866e-05
7.154208853e-05
-8.652991566e-06
3.468413897e-05
-6.501220653e-06
1.786765746e-05
3.646337097e-06
1.2576648e-06
9.812346667e-06
5.201681776e-06
2.660941148e-06
1.765565032e-06
7.285373756e-06
4.910244538e-08
0.0002318938661
-2.430943811e-09
7.200470016e-05
6.965003213e-05
3.171921023e-05
1.498165024e-05
2.816521165e-06
2.169053053e-06
3.316560985e-11
2.109232989e-11
1.714003229e-22
-3.567388867e-17
-7.217560702e-26
-4.832809111e-17
-2.431346101e-20
-8.384059111e-17
-6.650629999e-11
-9.444594899e-17
-1.135232015e-14
-0.000535651906
0.0003550193378
-0.0005184647938
4.077588966e-05
-0.0004425212423
5.905398418e-05
-0.000349980255
6.323062969e-05
-0.0002745731353
5.973062843e-05
-0.0002386561204
5.179316279e-05
-0.0002758370239
3.663955742e-05
-0.0004611651636
-3.178301063e-05
-0.0007642948843
-0.0004149872711
-0.0009362776955
-0.001026156636
-0.0006461851217
-0.001334493599
-9.188485876e-05
-0.000857160071
-9.240616621e-05
5.675598394e-05
-8.372178086e-05
7.316471426e-05
-6.855414809e-05
9.01325648e-05
-5.472678821e-05
0.000105294858
-4.375322072e-05
0.0001375804483
-1.926229781e-05
0.0002711993471
-7.044512152e-06
7.670189602e-05
-5.601686615e-07
1.867741658e-05
4.54555487e-10
7.549651001e-11
1.255800054e-09
1.157738921e-09
4.321081175e-12
1.655960402e-08
9.179209627e-14
4.982866237e-10
1.093811808e-08
3.552601839e-08
3.469467039e-06
1.52140599e-05
3.943829537e-07
1.468193813e-05
2.831401947e-11
1.871192917e-07
4.151418009e-18
6.246712573e-11
9.631962967e-19
6.386898107e-11
-4.927693364e-18
6.842800651e-11
-2.347410226e-17
7.549246647e-11
-4.185467025e-15
5.826326585e-11
-0.0002953942908
0.0008365458489
-0.0003408827798
3.398991883e-05
-0.0003685655472
5.398008449e-05
-0.0003654314158
6.497471322e-05
-0.0003577923364
5.878874742e-05
-0.000356686784
2.002462359e-05
-0.0004818819818
3.133955555e-05
-0.0007544945208
-0.00015191828
-0.001043470269
-0.0005618417064
-0.001040632235
-0.0009526883015
-0.0006122622684
-0.001004440391
-7.027946557e-05
-0.0006323625663
-5.614084903e-05
6.39103986e-05
-4.88902658e-05
6.202566667e-05
-3.877606633e-05
7.137604007e-05
-2.052901022e-05
8.495077749e-05
2.864336195e-05
0.0001296700333
3.4679767e-05
0.0005062341355
-6.846672067e-06
0.0002650712444
-2.52128498e-10
2.315199561e-05
-4.236129591e-10
1.78102234e-10
-5.015967322e-06
1.746401334e-10
-3.361008684e-05
1.663767757e-06
-3.531426676e-05
1.554318329e-05
-2.740412571e-05
2.17487826e-05
-4.767411724e-05
8.219957575e-05
-2.679609526e-05
0.0003530357838
-2.452162436e-05
6.934971907e-06
-2.751315458e-05
3.416556812e-06
-3.093315622e-05
3.299765806e-06
-3.352171664e-05
3.475396185e-06
-3.405018214e-05
3.198667012e-06
-0.0001517804523
0.001265745363
-0.0001708361643
2.906210114e-05
-0.0002001187071
3.976754276e-05
-0.0002436265087
3.374864619e-05
-0.0003667061066
1.175594342e-05
-0.0003768792851
-0.0003179355836
-0.0006608362235
-4.761031457e-05
-0.0009948124952
-0.0002492708524
-0.001135710242
-0.0004383547081
-0.0009587570435
-0.0005582111448
-0.0005538787887
-0.0005364570952
-0.0001279544679
-0.0003392382037
-5.734218738e-05
0.0001625314788
-2.302571768e-05
0.0001207266138
-1.123667697e-05
5.186013838e-05
9.576351034e-06
5.385873373e-05
3.878480968e-05
0.0001032673381
9.201575515e-05
0.0005134477289
-1.335549516e-05
0.0006260738785
-1.759046798e-05
5.853093122e-05
-2.234064345e-10
2.475491926e-05
-4.745837708e-09
-2.772500878e-18
-9.45964221e-06
2.332421022e-09
-5.660500851e-05
5.078785426e-06
-6.078508304e-05
3.345913646e-05
-0.0002097689473
0.0001553610124
-0.0001018384846
0.0002529481724
-7.328653735e-05
1.540942418e-05
-5.763205835e-05
7.5172352e-06
-5.004911953e-05
5.422578647e-06
-4.66606621e-05
4.128902411e-06
2.909610641e-06
-9.9963438e-05
0.002396783789
-0.0001187857984
3.058579734e-05
-0.0002545377271
3.73414457e-05
-0.0008828904614
5.137087024e-05
-0.002530117794
0.0001138229961
-0.0003970008397
0.0002931274102
-0.000807146883
7.443239676e-06
-0.001066134961
-8.515252105e-05
-0.001023993069
-0.0001328380568
-0.0008083121541
-0.0001493928744
-0.0005027630472
-0.0001214938865
-0.0002505172966
-3.200963401e-05
-0.0001347391956
0.0003184504688
-1.648511533e-05
0.0005952630591
-5.479831941e-06
4.240338048e-05
9.894018443e-06
2.961008015e-05
3.423792501e-05
6.867175373e-05
8.347078707e-05
0.0004231267386
-2.235533615e-05
0.001036821999
-3.113962529e-05
0.0001088481753
4.334295037e-11
2.954686656e-05
4.461351984e-19
-1.099485538e-18
-7.398203274e-10
-3.1320802e-19
-2.438317076e-06
4.062969501e-10
-1.821687043e-05
2.110559158e-06
3.078026032e-06
2.96935253e-05
-3.270593158e-05
0.0001825062573
-6.439916353e-05
2.124645369e-05
-5.826087789e-05
5.640049937e-06
-4.934279532e-05
4.290492126e-06
-4.729200213e-05
3.382669735e-06
2.663644491e-06
-0.0001936067973
0.00509293502
-0.0005940757386
0.0001028676535
-0.001299473592
0.0002038003391
-0.001893837904
0.0002237043584
-0.002333634992
0.0002933520676
-0.002324285727
0.0003690755718
-0.002167722553
0.0003655209284
-0.001836340843
0.0003578689381
-0.001450598044
0.0003704554069
-0.00100416834
0.0003624934389
-0.0004815120219
0.0003156920631
-2.615785671e-05
0.0001923677862
0.0007050451568
0.0003286318273
0.001491496848
0.00105200607
0.001164679587
0.0008749815096
0.0005248810022
0.0004778061029
0.0001430468272
0.0002128065267
9.111301748e-05
0.0003603509979
-2.236364358e-05
0.001310235433
-8.390739097e-06
0.0001442164823
1.991804836e-13
1.581455907e-05
2.020363957e-18
1.67132915e-11
2.606253826e-18
9.192928212e-12
-1.816703058e-07
8.291006295e-09
-3.705304278e-05
3.805794725e-06
-0.0002949369228
5.336845851e-05
-7.409199113e-06
-0.000232586427
2.616542049e-07
-1.334958504e-05
-3.78726635e-07
-1.089803496e-07
-4.718999326e-07
2.937565893e-08
-5.972161554e-07
3.753374031e-08
-8.970706867e-05
0.005851346905
-0.0001943997218
9.496106772e-05
-0.0005407146252
0.0001631652225
-0.000917696301
0.0001818124471
-0.001275168246
0.0002442798942
-0.001501116877
0.0003159982682
-0.001599277322
0.0004003291752
-0.001550934099
0.0005046464729
-0.001339410516
0.0006241895044
-0.0009641089643
0.0006829895994
-0.0004496237504
0.0006123479309
4.708489452e-07
0.0003547478237
0.000420658286
0.0002001736089
0.001329646058
0.001133042491
0.00102271627
0.001049456085
0.0003681047399
0.0005267069445
9.019963328e-05
0.0002118565969
6.953873026e-05
0.0003089235946
-3.074668603e-05
0.001367052877
-1.470555799e-07
0.0001582718414
2.658346006e-05
-6.582574041e-05
2.15045682e-05
3.600563727e-06
1.866021476e-05
4.331741591e-06
1.533589796e-05
1.767870709e-06
7.650409848e-06
2.517686987e-06
6.720989235e-06
1.274082102e-05
5.142234058e-05
-0.0001069006526
6.862880555e-06
-7.541504836e-06
2.288563909e-07
-7.068280506e-06
3.404135954e-14
2.083741343e-09
2.817689607e-09
-0.000130575677
0.005544221719
-0.0001265959645
0.000109378109
-0.000187978624
0.0001121739454
-0.0003096634141
0.0001054610665
-0.0005122599397
0.0001512066512
-0.0007699282778
0.0002202629895
-0.001028068038
0.0003321063896
-0.00119872232
0.0005148043257
-0.001174523282
0.0007447737576
-0.00090245889
0.0009315626461
-0.0004283545985
0.0008773078261
-6.98743974e-06
0.0005072549375
0.0001556962969
0.000124665606
0.000860567017
0.001380352451
0.000448406357
0.001022185639
9.974044015e-05
0.000362908286
3.306670688e-05
0.0001536997514
4.67687673e-05
0.0002866521354
-6.707358716e-05
0.001176625369
-0.0002470373588
0.000233173533
8.763658404e-06
-0.0002581515502
3.24827699e-05
1.14364098e-06
2.801015475e-05
9.359429636e-06
5.68310903e-05
3.149596669e-06
4.260584657e-05
5.41743415e-06
2.394000526e-05
9.792464923e-06
6.950775741e-05
-0.000273802578
3.523383393e-05
-3.211930598e-06
3.426068934e-05
8.405722994e-06
3.541452968e-05
9.865788306e-06
1.497301243e-05
-0.0007642151387
0.006421502193
-0.0005363375132
0.0004564406511
-0.0003270563526
0.000394858605
-0.0002092186411
0.0002420477837
-0.0002042693297
0.0001629130935
-0.0003278515971
0.0001491243018
-0.0005931865393
0.000215479502
-0.0009159504343
0.0003950324194
-0.001104363551
0.0007348470905
-0.0009533085464
0.001141903308
-0.0004961085682
0.001240259729
-7.417933481e-05
0.0007833220091
5.057605672e-05
0.0001910123413
0.0002918856431
0.001882779244
3.585403726e-05
0.000907087667
3.434050307e-06
0.0002065478055
1.376894916e-05
0.0001375834409
2.445137702e-05
0.0002760656462
-5.674652076e-05
0.0008965065291
-0.0001015912791
0.0002448393087
-0.0001852334311
-4.010987706e-06
-0.0004072607772
0.0001065173186
-0.0004148059004
0.0002377346344
-1.35908972e-06
0.0002331686313
5.222616105e-05
2.367904894e-05
3.730467135e-05
2.745838161e-05
0.0002517833911
-2.296909271e-05
7.314623511e-05
8.846901382e-05
0.000203997223
0.0003477803552
0.0001632040544
0.0001092063687
5.604894823e-05
-0.00153781938
0.006021928356
-0.001214211766
0.000710227272
-0.0008085532059
0.0007598033144
-0.0004382606004
0.0005624600644
-0.0002156822294
0.0003370676753
-0.0001722963887
0.0001823409407
-0.0002969408874
0.000148280066
-0.0005944604059
0.0002347297585
-0.0009274124658
0.0005310113947
-0.001001088585
0.001103214497
-0.0006663090369
0.001559298008
-0.0002445829683
0.00125517057
-0.0001223692281
0.0005630101022
-8.853752926e-05
0.002195986187
-3.583428556e-05
0.0009390900372
-1.694263826e-05
0.0001927274202
3.632226637e-06
0.0001593690693
1.060706886e-05
0.0002495480426
-9.52288363e-06
0.0006244038684
2.246837939e-05
0.0001590931394
5.954915191e-07
9.680214212e-06
-0.000410881141
9.110034623e-05
-0.0002190599849
-4.658077457e-05
-1.504217755e-06
-3.693885628e-05
4.440388519e-05
1.332817405e-05
5.161398753e-05
1.859301003e-05
6.944128337e-05
3.112847307e-05
0.0001725216138
0.0001982098939
9.841659213e-05
0.0001934464902
0.0001057746159
0.0002396818879
9.478152247e-05
-0.001318428507
0.004289362484
-0.001239235946
0.0004996702578
-0.001006778542
0.0006461579924
-0.0006527906646
0.0006045184838
-0.0003086436767
0.0004402058078
-0.0001466886851
0.0002391392926
-0.0001502740319
0.0001354470953
-0.000279589672
0.0001338786463
-0.0005442018532
0.0002432077896
-0.0007956947008
0.000627942968
-0.0007307055056
0.001272127768
-0.0004157321494
0.001466525374
-0.0004335291479
0.001007551704
-0.0002595634762
0.002332411191
-7.458378624e-05
0.00114485312
-3.242989191e-05
0.0002463877179
-1.401156048e-05
0.0001915121808
-2.490522665e-06
0.0001899799606
1.629512145e-05
0.0002162209408
2.423941356e-05
5.285659494e-05
7.716421794e-06
8.625874263e-06
9.949872933e-06
1.452614464e-05
-0.0001631102317
-1.022319893e-05
-1.128054618e-05
-1.903299243e-05
2.036860882e-05
8.059644482e-06
2.181945436e-05
2.920151798e-05
0.0001828369292
0.0006290402033
-6.556885647e-05
0.0002260003049
-1.61747902e-05
8.863042412e-05
5.816361208e-05
0.0001557159744
5.536296553e-05
-0.0006812987308
0.003249736916
-0.0007064613547
0.0002633328025
-0.0006987980953
0.0004062627133
-0.000534417999
0.0004552640771
-0.0002994749724
0.0004123209677
-0.0001466915711
0.0002640272939
-9.67160234e-05
0.0001467047715
-0.0001169669941
0.0001016135467
-0.0002278195588
0.0001223582535
-0.0004395782817
0.0002684934649
-0.0005479557148
0.0006592338889
-0.0004577673896
0.001087539526
-0.000602479257
0.001132918812
-0.0003997543688
0.002263401606
-0.0001094355824
0.001297139394
-4.968768736e-05
0.0003092598369
-4.654626619e-05
0.0002237934852
-0.0001195686745
0.0002027102995
-9.59188494e-05
0.0001648307775
-0.0001605299328
0.0001108538883
-4.78782702e-06
0.000142528988
5.510533789e-06
3.851939139e-06
-1.361899065e-05
2.013272274e-05
4.155181556e-05
3.221021529e-05
0.0001729076124
0.0001083902581
-8.058808474e-05
0.0002954522749
-0.0001763646476
0.0004760382393
-6.027983546e-05
-2.025769597e-06
-1.183645187e-06
5.400142494e-05
4.182641871e-05
0.0002364939547
5.495486226e-05
-0.0004022119902
0.003263710742
-0.0004715062768
0.0001759912499
-0.000584255168
0.0003192631022
-0.0006482772141
0.0003861455173
-0.0006480923584
0.0004328439617
-0.0006067935115
0.0003787505276
-0.0005552369617
0.0002740069027
-0.0004971378151
0.0001743286424
-0.000411451137
9.355031151e-05
-0.0003429864443
8.617573019e-05
-0.0003470524772
0.000253973142
-0.0003946292874
0.0005850077176
-0.0005948167201
0.0009257770027
-0.0004520915339
0.001822036879
-0.0001300147219
0.001219078671
-5.711991932e-05
0.0003313871697
-3.325692894e-05
0.0002200935696
-8.909116753e-06
0.0001215398603
2.310379356e-05
6.963098182e-05
-3.872928812e-06
6.151337339e-05
-3.095196384e-06
0.0001327262632
6.172783404e-06
1.113473727e-05
-5.912078147e-06
1.569618337e-06
1.688095457e-06
1.821162622e-05
3.860347875e-05
9.985758732e-05
-0.00011953166
4.6226359e-05
-1.849925681e-05
0.0001995038315
-1.507434587e-05
1.374627229e-06
3.337777248e-06
3.576403439e-05
0.0001570000787
0.0003914549133
0.0003656500313
-0.000530780041
0.004069787883
-0.0008652770037
0.0002097133237
-0.001685188195
0.0004509724441
-0.00297214359
0.0006435125825
-0.004382671005
0.0006591739378
-0.005132022084
0.0001901211994
-0.004322404666
-0.0003774546327
-0.002533866135
-0.0003742061898
-0.001022848336
-0.0001712598844
-0.0003540387572
-5.214905839e-05
-0.0002503009363
6.877416991e-05
-0.0003143737662
0.0002775457904
-0.000473920529
0.0006036884503
-0.0003811279269
0.00117153101
-0.0001308225772
0.0009268573113
-6.368413874e-05
0.0002892260609
-9.197565142e-06
0.0001750973169
2.805798557e-05
5.181328659e-05
3.82584274e-05
3.618151265e-05
3.476089386e-05
3.751444381e-05
5.159958629e-05
7.418653156e-05
1.602951901e-05
2.12173596e-05
-2.105179597e-06
1.640980277e-06
-1.891629728e-05
7.351206434e-06
-0.0001189825661
-0.0001155030976
-0.000238816335
-0.002715264339
-8.85192079e-05
-0.0001354837323
-0.0001058775002
1.490374484e-05
-4.906715599e-05
0.0002384342125
0.0005498199062
0.0005740917709
0.0004019263097
-0.0006757018617
0.005360053231
-0.001197980174
0.000229909516
-0.002337234296
0.0004270015856
-0.003539391611
0.0003944063386
-0.003576486653
-1.484878981e-05
-0.002314869497
-0.0001038961349
-0.001046327943
-0.0001134163821
-0.0003941478581
-7.748850309e-05
-0.0001743652564
-4.315688659e-05
-0.0001270223787
-1.303620658e-05
-0.0001671290639
3.872191014e-05
-0.0002298163447
0.0001461378406
-0.0003115503491
0.0003211585844
-0.0002657221721
0.0006197043339
-0.0001321452743
0.0005681673168
-0.0001519418334
0.0002390431409
-0.0001552756989
0.0002078874106
4.120782834e-07
8.461136285e-05
3.04901624e-05
1.126125318e-05
5.836458306e-05
3.873703049e-05
2.78324688e-05
4.204480934e-05
-0.0001047203435
1.38237646e-05
-0.0001690218949
2.530891861e-05
-0.0002919183439
-5.652446064e-05
-0.0009230882862
-0.001004985826
-0.0004134453872
-0.005157180322
-0.0004784188286
-0.0001415422799
-0.0005906667953
-4.01254656e-05
-0.0001898657042
-1.543987223e-05
0.002135003734
0.00393410664
0.0001325390764
-0.0004075956294
0.006776000678
-0.000554602349
0.0001680745535
-0.0007350520913
0.0002623066944
-0.0006960532875
0.0002008130623
-0.0004981892571
8.472036817e-05
-0.0002849404063
2.333716261e-05
-0.0001498800478
5.600718359e-06
-9.798931348e-05
4.618675315e-06
-8.919781975e-05
9.246168101e-06
-9.695437696e-05
2.154602561e-05
-0.0001177939665
4.531467724e-05
-0.0001513196075
8.874468006e-05
-0.000184695913
0.0001516385037
-0.0001540489766
0.0002681111002
-8.627820421e-05
0.0002702932962
-0.0001052349728
0.0001429859554
-0.0001144417676
0.0001233051431
-2.62346449e-05
6.570148094e-05
1.497123024e-05
-6.866565342e-06
1.326067438e-05
2.94211726e-05
9.473885447e-07
1.839099004e-05
-1.471970894e-05
5.915845952e-06
-0.0001269764848
3.383077541e-05
-0.000472755944
-2.884989109e-05
-0.001038531612
-0.001507874625
-0.0001412511199
-0.00431570895
-7.137524407e-05
-3.651397458e-05
-7.146210487e-05
-2.417259977e-05
-3.822825101e-05
-3.304061056e-05
7.394072886e-07
8.407680671e-05
6.235449919e-05
-0.0005120913902
0.008373495241
-0.0005700734765
0.0002440386537
-0.0005333485021
0.0002809214096
-0.0003819587977
0.000219922507
-0.0002102049809
0.0001471071456
-0.0001108452663
8.431938577e-05
-7.55408237e-05
5.079519601e-05
-6.808663862e-05