/*--------------------------------*- C++ -*----------------------------------*\
  =========                 |
  \\      /  F ield         | OpenFOAM: The Open Source CFD Toolbox
   \\    /   O peration     | Website:  https://openfoam.org
    \\  /    A nd           | Version:  8
     \\/     M anipulation  |
\*---------------------------------------------------------------------------*/
FoamFile
{
    version     2.0;
    format      ascii;
    class       scalarField;
    location    "1.4/lagrangian/reactingCloud1";
    object      rho;
}
// * * * * * * * * * * * * * * * * * * * * * * * * * * * * * * * * * * * * * //


64
(
994.5114695
994.5114692
994.5114706
994.51147
1000
994.5114695
994.5114693
994.5114695
1000
1000
1000
994.5114699
1000
1000
994.511479
1000
1000
994.5114691
994.5114729
1000
994.5114715
994.5114709
1000
1000
1000
1000
1000
1000
994.511473
994.5114732
1000
1000
1000
994.5114697
994.5114714
1000
1000
994.5114734
1000
994.5114704
994.5114725
1000
994.5114718
994.5114721
994.5114716
994.5114718
994.5114704
994.511471
1000
994.5114687
994.5114718
994.5114686
1000
994.5114708
1000
994.5114699
1000
994.5114699
994.5114715
1000
994.5114699
1000
1000
1000
)


// ************************************************************************* //
