/*--------------------------------*- C++ -*----------------------------------*\
  =========                 |
  \\      /  F ield         | OpenFOAM: The Open Source CFD Toolbox
   \\    /   O peration     | Website:  https://openfoam.org
    \\  /    A nd           | Version:  8
     \\/     M anipulation  |
\*---------------------------------------------------------------------------*/
FoamFile
{
    version     2.0;
    format      ascii;
    class       volScalarField;
    location    "0.8/wallFilmRegion";
    object      alpha;
}
// * * * * * * * * * * * * * * * * * * * * * * * * * * * * * * * * * * * * * //

dimensions      [0 0 0 0 0 0 0];

internalField   nonuniform List<scalar> 
1342
(
0.05076874225
0.3122632918
0.7020886292
0.1715108742
0.01215859305
0.002511686985
0.1707233968
0.122848626
0.05896240578
0.02677113691
0.01289354777
0.008491932226
0.03231975877
0.05669383267
0.1638443406
0.1527566165
0.1148651857
0.1062560367
0.1277315343
0.1571258621
0.1612512087
0.1244217717
0.0787456254
0.06197834895
0.04217356204
3.368607032
0.005626446502
0.06973998446
0.1628423163
0.3680536884
0.07187225798
0.01291634852
0.01089112918
0.2032298791
0.1049054306
0.07905944569
0.04148102128
0.0179721852
0.009062317459
0.03717168698
0.06626802912
0.2290463118
0.2095726636
0.1336006184
0.0846862567
0.07880473524
0.1094594482
0.1379829601
0.1253944962
0.09580346644
0.08955396882
0.06903678421
3.984153399
0.03938939217
0.118288919
0.7204428129
0.5826217058
0.3227960289
0.1891595181
0.03897144211
0.05061647171
0.2316618704
0.0003384838937
0.0003225702543
0.002832291862
0.003169563021
0.003497959477
0.04196326355
0.08130748638
0.2693854678
0.2538897021
0.1747783912
0.1069256704
0.07724466723
0.1073439651
0.2283347537
0.3971096746
0.4945155707
0.5619343839
0.4847562248
6.196607549
0.01203021558
0.130356401
0.4111127317
0.6333050775
0.1838600267
0.08290433904
0.09228304836
0.08970634736
0.2077353518
0.0003694067553
0.007793083994
0.05619034906
0.0224260287
0.008584756463
0.09248233453
0.1854853044
0.2842016366
0.25888294
0.2040838136
0.1473315719
0.1064427532
0.09152873633
0.1063369091
0.1574656487
0.2503312342
0.5055722841
0.6530687285
7.572749045
0.02757963265
0.01261381472
0.05120307074
0.177784502
0.9259886967
0.9258318604
0.5679480291
0.2402744442
0.141886815
0.2504827009
0.2716970287
0.2561312868
0.2631707493
0.3148509709
0.5464555102
0.2740168768
0.2407150265
0.2836136019
0.2755144249
0.2641691074
0.2254029454
0.1613651113
0.09412384471
0.04663819926
0.02814223584
0.1032469315
0.1198314694
5.418538658
0.04842390096
0.07591061609
0.08017876553
0.1326526808
0.09640471121
0.4118320216
0.2264218899
0.3550351193
0.292117711
0.2347624047
0.306917858
0.1851993511
0.1054470734
0.06578178471
0.0536173274
0.21733599
0.1562253804
0.2338620825
0.2434816007
0.2398014312
0.3460813828
0.2700795903
0.06760696706
0.01338216999
0.004420138093
0.002966305342
0.009609348219
0.05158945699
3.599377936
0.1674761002
0.2808045233
0.225728206
0.1909479982
0.04071129564
0.0369990645
0.02913035088
0.09167183106
0.1277412816
0.3310676747
0.3102921521
0.06427164556
0.01805900412
0.01032423881
0.01218181491
0.07830255834
0.09775680944
0.2289160825
0.2187458584
0.1949139939
0.2133526113
0.1630448444
0.09131030273
0.0510632037
0.0366686365
0.04017079247
0.06123607858
0.07417800557
2.592792142
0.04519942967
0.02030551175
0.008686521963
0.01202153132
0.04879235743
0.01423091395
0.01815031044
0.03018471406
0.03661449345
0.3490587594
0.3067060664
0.04295164148
0.007296592849
0.008905083636
0.00947664798
0.04171596239
0.06748568728
0.2026160442
0.1880690732
0.1472767602
0.1147233782
0.07812659799
0.05345000703
0.04022351145
0.03717157946
0.04052430389
0.04992763564
0.05721545041
2.071442387
0.0003713745945
3.443812141e-05
3.568161304e-06
2.032176662e-06
0.004201343429
0.01229872377
0.03804589838
0.0858195959
0.1030972733
0.3305047621
0.2021054894
0.03845599036
0.01017399833
0.0108043826
0.008432687793
0.0297466922
0.0517344787
0.157653275
0.1424636805
0.09836351222
0.06250713214
0.04224588853
0.03387147661
0.03040321582
0.02997651639
0.03128456799
0.0348178551
0.03524775274
1.715656827
0.004940589728
0.003479530493
0.003402350579
0.00254717975
0.004806932934
0.01400795381
0.03259190472
0.06154276043
0.08887890975
0.2499170759
0.1002646209
0.02517515436
0.0118667711
0.01157314703
0.008316664379
0.02385144335
0.03975938069
0.1021424667
0.08765188688
0.05479703122
0.03388157422
0.02658619925
0.02507787846
0.02474575673
0.02446280721
0.02370420063
0.02425061468
0.02169306361
1.505103213
0.01305756958
0.0129538097
0.02169019006
0.04051551613
0.06132497017
0.0461445864
0.03438393025
0.1126516157
0.1073374607
0.1154518758
0.03036164272
0.01202449256
0.01159295184
0.01150963737
0.00911421815
0.01898549046
0.02795289884
0.05319952449
0.04307420161
0.0281463904
0.02170139121
0.02099292744
0.0219409743
0.02269502131
0.0222432197
0.01921690516
0.01521558238
0.01045469488
1.528666749
0.02448586352
0.01702662215
0.02391167089
0.03430916099
0.03605958654
0.02465118024
0.02870475497
0.1720545016
0.1259009873
0.03012136808
0.008636345795
0.006000323042
0.009819250801
0.01094442848
0.01011918414
0.01504746661
0.01918952676
0.02592260455
0.02248104934
0.01951339203
0.01997233647
0.02184533706
0.02358734721
0.02448673547
0.02366221424
0.02064075879
0.02004768218
0.01584737783
2.133949151
0.08005739033
0.03406095098
0.0364672408
0.05003472059
0.05516710756
0.03153243222
0.02990598732
0.1739143012
0.1075821805
0.009037165856
0.003568305814
0.003998641488
0.008008664656
0.01012742978
0.01076886078
0.01969209349
0.01996284227
0.01921543296
0.01830560404
0.02021193746
0.02602715559
0.02950037737
0.02899517787
0.02706314599
0.02508459408
0.02345159108
0.03142434349
0.03218315158
3.334392921
0.3896135893
0.2179962328
0.202047039
0.2832125348
0.3832075043
0.161896567
0.04635898497
0.1455142203
0.5705866284
0.05108087121
0.004640312861
0.00656234016
0.01338607848
0.01620064065
0.01530493094
0.104365424
0.08973340992
0.04353228093
0.02753896342
0.02710069009
0.04202600915
0.04486047343
0.03519536539
0.0272363429
0.02433829625
0.02473515662
0.04063858067
0.05181950943
4.246734634
0.7055391122
0.5822519505
0.4414405657
0.1056129958
0.002167331818
0.00730693706
0.17843357
0.4154519159
0.3115533613
0.5205310148
0.6188050349
0.5986995156
0.4679451795
0.2249413845
0.07108392245
0.1229526123
0.1897725494
0.1443540566
0.06722132303
0.04317776006
0.06434120916
0.06247208703
0.03958450048
0.02590162048
0.02287819882
0.02503324274
0.04431932351
0.06625781902
4.448049926
0.5298725138
0.1532679381
0.03235918693
0.04035506643
0.001574602201
0.001321745706
0.003320137658
0.00392685752
0.005360512615
0.01010861056
0.02122162497
0.04328812562
0.1056235065
0.1832512651
0.1084314507
0.08069966486
0.09179073105
0.09594964005
0.07353219917
0.05418929911
0.07709866682
0.07095688098
0.04158764422
0.02556389261
0.022592515
0.02563763638
0.04442781
0.07197834302
4.045523568
0.2075729361
0.07437438651
0.04235236639
0.03929895304
0.02812116614
0.02443226418
0.02411290325
0.02584870098
0.02955444702
0.03538143369
0.041108738
0.03408915446
0.02358741245
0.02233969041
0.03123567485
0.0365019971
0.04062436595
0.04130147359
0.04254072503
0.05006350872
0.07527230125
0.06941410462
0.04249003992
0.02702704343
0.02393440731
0.02723358895
0.04403212143
0.0720280247
3.349861113
0.06968653813
0.05324539826
0.0458489111
0.04625715486
0.04623233396
0.04797749182
0.05084060056
0.05397975103
0.05584045803
0.05457607291
0.06090862239
0.08147834413
0.04104010646
0.03478475996
0.02676227865
0.05333769225
0.07925519966
0.08706837193
0.0901169784
0.09600952356
0.1064838731
0.09574278363
0.06526289994
0.03934602499
0.02933136137
0.03045408076
0.04481347427
0.07052087153
2.660034713
0.0388638656
0.04406335032
0.04704567738
0.05131506372
0.05592121446
0.06076908688
0.06388435096
0.06272571565
0.05500478013
0.03879278601
0.0248371604
0.06366302886
0.0746034869
0.05343673418
0.031663389
0.07865036529
0.1237931988
0.1316933421
0.1257944434
0.1232977184
0.1298400452
0.1259945617
0.09844295422
0.06497410886
0.04680468311
0.04473472365
0.05845176865
0.08327834439
2.243099721
0.03404877906
0.04364925256
0.04934582234
0.05409130857
0.05877604888
0.06256635485
0.0611320024
0.05215893273
0.0380951967
0.02210349981
0.01077747678
0.01791302111
0.06774048027
0.07864770669
0.05346193197
0.1253200886
0.1770897397
0.1808092545
0.1675343361
0.1619458466
0.183810197
0.2299226024
0.2498462306
0.2233809151
0.1812389586
0.1521995071
0.150853399
0.1577324612
2.229328141
0.03968923838
0.04871370196
0.05328637288
0.05583273658
0.05730758634
0.05704124689
0.04647204547
0.03148203082
0.01984719969
0.01079260135
0.004914190143
0.004876443056
0.02539482849
0.09077281302
0.2273171503
0.3589750704
0.4063068159
0.3830850253
0.3269498316
0.2815559073
0.28031429
0.3255083534
0.3761734344
0.386268173
0.3582065888
0.3236364987
0.3099307669
0.2728251998
2.345768869
0.05319345468
0.05742450563
0.05760033786
0.05489660184
0.05054422192
0.04451399669
0.02848372879
0.01388757221
0.009114590998
0.005247710306
0.002740725902
0.002946769823
0.009700131866
0.0226690883
0.03888392294
0.3032028661
0.4623990542
0.4689183126
0.39830985
0.3254290022
0.2795466344
0.2504424949
0.2420906001
0.2640094705
0.295064555
0.3130767464
0.3248059509
0.2729719848
2.270318819
0.07243483126
0.06525509349
0.05768659677
0.0471911668
0.03589037416
0.02161925673
0.01132434019
0.00638461482
0.004467958847
0.003094988212
0.00240045626
0.00361561929
0.007096683348
0.01001269842
0.01226716688
0.07994947216
0.1871196083
0.240945427
0.2437266021
0.2246889517
0.1883725677
0.1410272232
0.111359587
0.1152993772
0.1438361714
0.1748514584
0.1969804699
0.1650025847
2.122790682
0.08762277795
0.06611278631
0.04750883596
0.03037912231
0.01786222982
0.008389158707
0.0005343898082
0.002825011805
0.002795077133
0.002917165541
0.003276987292
0.005051630862
0.008195743178
0.00948848046
0.007673584446
0.01812398118
0.09704651051
0.1599674898
0.1715637963
0.1539232577
0.1167639083
0.07946164435
0.05749997149
0.0541430927
0.06391573425
0.08966841085
0.1035680614
0.08785422099
2.54459571
0.09578288086
0.06139499952
0.03909743502
0.02556967161
0.01880392377
0.01348864734
0.05248835956
0.05265719268
0.03863640331
0.02827006281
0.02295829252
0.02174184535
0.02171671138
0.01715935374
0.009902923955
0.01481175473
0.117701953
0.2052841807
0.1849411499
0.1275840438
0.08093849852
0.0522095513
0.0376870156
0.03479002178
0.05031721497
0.08374802028
0.08940550974
0.09244710572
4.126329796
0.0904776157
0.06202451315
0.05574678599
0.05431280483
0.029989515
0.02639884503
0.1244143244
0.1472029956
0.1983085158
0.1626704253
0.1059673916
0.06758170491
0.04419825569
0.02386511323
0.0113660235
0.01508441783
0.1397139407
0.2721206704
0.2422156049
0.1431839446
0.07473972178
0.0444161352
0.03211704727
0.05475528761
1.412519684
3.674758449
1.61213816
0.5372806203
13.73659387
0.07924767501
0.06915961391
0.1211367275
0.4261213416
0.04594747145
0.03500370959
0.1685622668
0.3325198266
1.653943059
0.6197756214
0.2174708822
0.09893772653
0.04849496646
0.02043494285
0.01006352734
0.01488329673
0.1354829847
0.3052111034
0.3093493595
0.2053445926
0.1060750282
0.05672696132
0.05453943795
2.582056556
4.566662362
3.186665654
2.914814983
2.044640008
11.00619506
0.09431292443
0.07586522883
0.1179993513
0.511446539
0.07078650743
0.04070050219
0.1747052694
0.388338619
0.3883014547
0.3018301021
0.2236663355
0.1218303908
0.06900892306
0.03913147602
0.03146939784
0.04671636523
0.1768629455
0.3684353507
0.4149925435
0.3197198318
0.1869773871
0.0960502994
0.08925099031
1.388980811
3.14282431
2.265910433
3.19795359
4.373078769
8.324760702
0.1941010771
0.09428598992
0.07863618683
0.5029433171
0.07482000467
0.0402551202
0.1836097266
0.3171006345
0.1363159776
0.1685944244
0.03238522258
0.02905880659
0.1135568123
0.1711103019
0.1821811077
0.1602102767
0.2443162625
0.4348666909
0.5223048734
0.4396372208
0.2802438566
0.146261622
0.1115595599
0.2856104301
0.3471039363
0.3488179612
1.385984191
4.729690038
12.1414498
4.633796169
4.17019413
2.254780399
2.040246979
4.027391353
3.789612464
1.104499136
0.6560455531
0.9778750861
2.245394511
4.007123613
5.859432996
6.767366656
6.829359198
6.625587381
6.412563476
6.261244782
6.061328392
5.427461864
4.31981135
3.12809236
2.238060386
1.793032997
1.921254229
2.391679947
3.919708126
11.9930094
14.07559665
11.96970059
11.62667604
0.02532127741
0.3226071976
0.00674630236
0.2369189843
0.01299336578
0.03538471976
0.0685854963
0.1962623907
0.007578478856
0.02411637696
0.04202437038
0.07189129179
0.001036057751
0.003561110061
0.008017229617
0.01726656526
0.0003407382079
0.002255652637
0.01180397341
0.1787154363
0.05438684726
0.06974701163
0.09898716936
0.7217026408
1.839320498
0.2533250616
1.622586867
0.01828211816
0.002687973815
1.642208501
0.0005556301387
0.000304759418
1.464858832
0.0002329127719
0.000194815486
3.80574289
0.0001601377876
0.0001765980301
5.268689068
0.0002472741908
0.0003066643574
1.107160575
0.0003922322649
0.0004973868649
0.5094068013
0.0006211525002
0.0008664021672
1.687345047
0.002104951633
0.0110890389
11.12608211
0.1548134154
1.070773461
0.3701005938
1.214899902
0.5593170889
0.6044590961
0.2305409199
0.4338336061
0.7261994697
0.6518569899
0.4575448421
0.2726618012
0.5830002558
0.10458978
0.4713385146
0.230565826
0.1839817819
0.2269705635
0.4068400504
0.4239713899
0.09227709238
0.3464287161
0.2266973395
0.2884604292
0.4190223147
0.7826954377
0.1698342887
0.06921210506
0.1959407681
0.5562105377
0.4050747365
6.201643505
0.4445675646
0.01869020543
0.06400380975
0.008093563446
0.01349106609
0.006269693714
0.006671787658
0.2538144549
2.992885845
0.1261474816
0.004325871857
0.0657214854
0.02292192366
0.06445653154
1.729303137
0.03542405909
0.02724357491
0.02241202735
0.02516329151
0.04784308716
6.273389331
0.9303555212
0.03361148534
0.2611603846
0.08847991222
0.7977385856
8.953037545
4.054820036
0.844348126
3.051197935
2.192094758
1.777613478
5.723569063
0.4592295262
3.150939176
0.4556859202
0.6603835071
0.2091884004
5.646692579
0.2181739572
0.3172219705
0.3713929758
9.328103877
0.7431896018
0.3912766234
0.0638071331
0.25101805
0.05490306471
0.08435354267
0.0717200223
0.08114676514
0.08339019278
0.08435167784
0.08041667532
0.07225868211
0.003793057562
0.060551286
0.01160150387
0.0002747733789
0.002223016543
0.0006809823551
0.0001847730574
0.0004508078959
0.0002947483088
0.0001599748416
0.0002112828294
0.0002554767005
0.0002405271824
0.0003608346522
0.0004863747483
0.0004121564522
0.0006601116577
0.0009865485546
0.0008008294664
0.001425654968
0.002467920665
0.01732273971
0.008478938949
0.038071148
0.03558105024
0.06987407187
0.07814846455
0.1648379403
0.06856620366
0.06890755013
0.02444957444
0.153973413
0.04949172814
0.00161181104
0.01470746325
0.004816810567
0.0004204285015
0.001938777807
0.0006084297653
0.0003998098948
0.0004392616632
0.0006591517848
0.0007218272199
0.0009065660394
0.001206787389
0.001729625511
0.001683503409
0.003618798184
0.005009185045
0.004878043262
0.0112929981
0.06086336288
0.03461662454
0.0935247595
0.00263323281
0.1635921445
0.00111989735
0.01531670148
0.003629335312
0.007346671919
0.03347925129
0.01384209497
0.08900668796
0.03689805286
0.00104290495
0.01509851318
0.002995530713
0.001160301112
0.001431738654
0.002161902203
0.00233408254
0.003845667546
0.004415592901
0.007609491109
0.003647334521
0.01325319473
0.02804086367
0.02987034892
0.08438878642
0.02804443695
0.0001362143143
0.002136258196
0.0004519242863
0.0009534396946
0.005459948222
0.001751486615
0.01413118443
0.138696143
0.05472926243
0.004154906923
0.02115667543
0.009994420774
0.006504136876
0.01320237268
0.01738380002
0.04525190528
0.0378283251
0.224354701
7.111355358e-05
10.06396002
22.09171782
19.52843284
0.5397703162
0.1904475867
0.5990098945
0.2273449904
0.6675244549
0.2251890865
1.053048131
7.184466284
0.0587192904
0.01566949052
1.70578901
4.467437065
0.09831183574
1.535883994
2.095915582
0.03792411328
2.027088941
2.312059634
0.03071557657
6.369468914
4.35087316
1.715484277
1.619588976
7.578959261
2.02146564
0.7973262906
4.955949159
0.2419959969
0.5868884142
7.54144888
1.196621899
7.720447112
0.2442844045
1.451666883
0.315958092
0.07667247802
0.08680725785
0.02867381566
0.0006049488669
0.0002220727974
0.0001406319274
0.0002094200323
0.0003152847178
0.0005286262244
0.002504445483
0.1778500044
0.58958204
0.1645866082
0.05570967337
0.03400442079
0.07838094881
0.06230513189
0.07223409367
0.100944345
0.005779521957
0.0008417389424
0.0003011122625
0.0005545973968
0.0009936964803
0.002581483597
0.01788014319
0.289446087
0.2685049616
0.03692009093
0.005352124094
0.000692930025
0.00172008595
0.002798805391
0.01094963041
0.07954612064
0.331244309
0.3352048065
0.3254580271
0.04556108375
0.07537543557
0.08454253414
0.1090450119
0.2005677152
0.04859260302
0.004627080463
0.007202851432
0.009000127584
0.09062535012
0.5752468273
0.2889851799
0.07519815223
0.1044724256
0.2231699563
0.01592000141
0.007186206194
0.001802334571
0.02725807139
0.02946131531
0.08130430789
0.0847283203
0.003560073628
0.03766168514
0.07611581659
0.08937877088
0.1194638068
0.03400788821
0.04009225335
0.04684764845
0.06496281047
0.3174553331
0.06168592423
0.03241986649
0.03797663428
0.05436090791
0.8048994414
0.1933268668
5.215437304
0.09721724815
0.5163964559
0.06257032485
0.5421415235
0.2079514532
0.0452754577
0.03688405633
0.07502374921
0.08369389946
0.6421727611
0.2328593297
0.03364617755
0.03184727038
0.08769795041
0.08614100438
0.03110823108
0.07998602368
1.080697355
9.074870054
2.995544179
0.07922439005
0.5782076395
0.02379095431
1.348596134
0.006579463844
0.01925402897
0.3026382533
0.01745040245
0.008036469184
0.01108271946
0.01915404247
0.03228236426
0.04906531993
0.0177335869
0.04926445377
0.2585207822
0.02221013989
0.01834840474
0.03679267491
0.02149806275
0.02320771304
0.05213547391
0.05152828742
0.06742639751
0.0840878649
0.01189160316
0.0173831411
0.02355545176
0.0003163477921
0.3061420604
0.05139471858
0.07174125003
0.05846937415
0.0712541792
0.09882713509
0.1157847854
0.1205629509
0.1383375445
0.0374764439
0.06108613447
0.09035818506
0.1001446204
0.003095065784
0.005306692961
7.755036752e-05
0.000876038522
0.000492029303
0.001590412741
0.005500690504
0.005306655624
0.01443535873
0.05980229819
0.2274933747
0.08158293254
0.05997271176
0.08151712981
0.07586888746
0.09074432816
0.0840916001
0.09721257963
0.1138656275
0.1452910072
0.1361124454
0.08410079066
0.08554720737
0.1219679016
0.0001528204975
0.005343668491
0.0007292949088
0.007650118832
0.008240992289
0.03053346185
0.05639777514
0.0690922725
0.08793768118
0.1002631058
0.00706002011
0.02673993474
0.03775483086
0.0665042159
0.0505985013
0.0503911146
0.0809738566
0.05545677199
0.06259745475
0.07229883587
0.03400374268
0.04772605615
0.03681999161
0.04119480838
0.03722540771
0.03796618337
0.05457273669
0.04318218979
0.05069222773
0.06093400968
0.03458831679
0.07177743197
0.02944475608
0.03317704261
0.0253293481
0.02631354843
0.04491322908
0.03046339524
0.03625779386
0.08228005927
0.044041583
)
;

boundaryField
{
    walls
    {
        type            zeroGradient;
    }
    wallFilmFace_top
    {
        type            zeroGradient;
    }
    region0_to_wallFilmRegion_wallFilmFace
    {
        type            zeroGradient;
    }
    mirrorFace_top
    {
        type            zeroGradient;
    }
    region0_to_wallFilmRegion_mirrorFace
    {
        type            zeroGradient;
    }
    procBoundary2to0
    {
        type            processor;
        value           nonuniform List<scalar> 
26
(
0.04735528596
0.3217569902
0.6610006597
0.795738466
0.01746997623
0.002455572528
0.1198632168
0.1453171017
0.06518825554
0.02231884657
0.01036786907
0.007997604626
0.03005454391
0.05638690697
0.1261420519
0.1587520571
0.1814316935
0.2023644666
0.2162083358
0.2067804962
0.1578383936
0.09605531874
0.05286861413
0.03713199057
0.0333035108
2.885388463
)
;
    }
    procBoundary2to1
    {
        type            processor;
        value           nonuniform List<scalar> 
33
(
0.01239000274
0.01239000274
0.1320284747
0.1320284747
0.02937884992
0.01399939875
0.0047472271
0.0047472271
0.05416579622
0.3010477986
0.2345420567
0.009185150206
0.0249458988
0.1177782587
0.8683375524
1.084493927
0.6690130603
0.3324887831
0.1245313463
0.01078275669
0.005702558095
0.008104859517
0.01506644507
0.02829962872
0.04948591414
0.08131977328
0.120987245
0.1634355244
0.203661809
0.2395008438
0.2807986203
0.3806976735
2.800587782
)
;
    }
    procBoundary2to3
    {
        type            processor;
        value           nonuniform List<scalar> 
64
(
0.02011055872
0.006933089907
0.009789058005
0.02824006613
0.08797227015
0.0483714157
0.01143706139
0.02148186374
0.1222072252
0.01170798823
0.002470882858
0.007205752834
0.002706694061
0.002470882858
0.006400743693
0.01248535802
0.01608393051
0.01952042362
0.01699418446
0.05989089744
0.4843915086
2.019343075
0.9592133049
0.149699591
0.149699591
0.06092907923
0.5934043726
0.5934043726
0.008416674694
0.5934043726
0.07590092062
0.06228734855
0.07590092062
0.06332655393
0.06484412973
0.6742271398
0.2080872919
0.01170798823
0.1237574664
0.07590092062
0.1345130123
0.04694625333
0.1012037967
0.1007628421
0.07867398966
0.06719763704
0.03113106141
0.07112959147
0.8624230595
0.005889364166
0.006933089907
0.01636339407
0.06804044292
0.1049755907
0.02985266617
0.1485554988
0.1694994279
0.008759839358
0.1778252688
0.1670391531
0.1133691998
0.0849098644
0.07468609994
0.05462386324
)
;
    }
}


// ************************************************************************* //
