/*--------------------------------*- C++ -*----------------------------------*\
  =========                 |
  \\      /  F ield         | OpenFOAM: The Open Source CFD Toolbox
   \\    /   O peration     | Website:  https://openfoam.org
    \\  /    A nd           | Version:  8
     \\/     M anipulation  |
\*---------------------------------------------------------------------------*/
FoamFile
{
    version     2.0;
    format      ascii;
    class       volVectorField;
    location    "0.8/wallFilmRegion";
    object      contactForce:contactAngle;
}
// * * * * * * * * * * * * * * * * * * * * * * * * * * * * * * * * * * * * * //

dimensions      [1 -2 -2 0 0 0 0];

internalField   nonuniform List<vector> 
1342
(
(0 0 0)
(0 575.0428294 -1.700352771e-12)
(0 0 0)
(-662.6291756 -607.4100765 -1.79605997e-12)
(0 0 0)
(0 0 0)
(0 595.325003 -1.760325434e-12)
(0 -477.2348206 -1.411142802e-12)
(0 0 0)
(0 0 0)
(0 0 0)
(0 0 0)
(0 0 0)
(0 0 0)
(0 654.9456297 0)
(0 0 0)
(0 0 0)
(-710.9950088 0 1.927155822e-12)
(-421.9547358 0 -2.287421194e-12)
(0 0 0)
(0 0 0)
(988.534015 -906.1561837 2.679426817e-12)
(0 0 0)
(0 0 0)
(0 0 0)
(0 337.1870482 9.970334422e-13)
(0 0 0)
(0 0 0)
(0 475.9747067 0)
(0 -733.8104244 0)
(0 0 0)
(0 0 0)
(0 0 0)
(0 323.1674766 0)
(-728.7080027 -667.9823345 0)
(0 0 0)
(0 0 0)
(0 0 0)
(0 0 0)
(0 0 0)
(0 0 0)
(0 637.0861144 -1.883809512e-12)
(0 0 0)
(0 -385.4358496 0)
(0 0 0)
(0 0 0)
(0 779.468828 0)
(0 0 0)
(0 -631.1931545 0)
(0 0 0)
(0 0 0)
(0 0 0)
(0 520.3792919 0)
(0 0 0)
(933.6046694 855.8042787 0)
(632.3223388 0 0)
(0 0 0)
(0 0 0)
(9.522868279e-06 -1600.360104 0)
(0 0 0)
(0 0 0)
(0 -745.5496938 0)
(0 0 0)
(0 0 0)
(0 0 0)
(0 0 0)
(0 0 0)
(0 0 0)
(0 0 0)
(0 760.7944103 0)
(0 0 0)
(0 0 0)
(478.7215162 -438.8280557 0)
(0 0 0)
(-830.6941053 761.4695993 0)
(0 0 0)
(0 0 0)
(439.0678079 0 0)
(512.5522409 0 0)
(344.1552495 0 9.328346678e-13)
(0 0 0)
(0 0 0)
(-672.6324468 616.5797418 0)
(-454.1631891 0 0)
(0 0 0)
(0 -490.2940637 0)
(0 0 0)
(0 0 0)
(0 0 0)
(0 -1032.422993 0)
(0 0 0)
(0 0 0)
(0 0 0)
(0 0 0)
(0 0 0)
(0 0 0)
(744.4203659 682.3853379 0)
(0 0 0)
(0 0 0)
(0 0 0)
(0 0 0)
(526.0437422 -482.2067654 0)
(0 0 0)
(-1007.112523 923.1864782 0)
(-705.1783399 0 0)
(-677.0677582 0 0)
(0 0 0)
(0 0 0)
(0 0 0)
(0 0 0)
(0 0 0)
(0 0 0)
(-970.6896141 889.7988113 0)
(0 0 0)
(569.9926697 0 0)
(476.6882843 0 0)
(224.2082102 0 0)
(0 0 0)
(230.2072989 0 0)
(294.0790928 0 0)
(599.0781991 0 0)
(1375.031205 0 0)
(600.1002311 0 0)
(263.6138511 0 0)
(0 0 0)
(0 0 0)
(0 0 0)
(0 0 0)
(0 0 0)
(0 0 0)
(2.206933325e-11 -829.2927285 0)
(0 0 0)
(0 0 0)
(0 0 0)
(-517.2784571 474.1719182 0)
(-430.102923 0 0)
(0 0 0)
(0 0 0)
(0 0 0)
(0 0 0)
(1531.381525 -1.556556719e-11 0)
(0 0 0)
(-819.3034682 751.0281819 -2.2207265e-12)
(-283.5106612 0 0)
(-293.0670218 0 0)
(0 0 0)
(0 0 0)
(0 0 0)
(-409.0886687 0 0)
(-405.6560002 -371.8513349 0)
(0 0 0)
(0 0 0)
(-1032.159661 946.1463595 0)
(-389.0205057 0 0)
(0 0 0)
(0 0 0)
(0 0 0)
(0 0 0)
(0 -428.0254845 0)
(0 0 0)
(0 0 0)
(0 0 0)
(0 0 0)
(0 0 0)
(0 0 0)
(0 713.3697102 0)
(-631.1981377 0 0)
(-1049.233318 0 0)
(-1386.553638 0 0)
(-836.2107894 -766.5265555 0)
(0 0 0)
(0 0 0)
(0 0 0)
(0 0 0)
(-687.5642871 630.267262 0)
(0 0 0)
(0 -371.8157633 0)
(0 0 0)
(0 0 0)
(0 0 0)
(0 0 0)
(0 0 0)
(0 0 0)
(0 381.2539407 0)
(0 0 0)
(0 0 0)
(0 0 0)
(-823.2527886 -754.6483882 0)
(0 0 0)
(0 0 0)
(0 0 0)
(0 0 0)
(0 0 0)
(0 0 0)
(0 761.8926684 0)
(0 0 0)
(0 0 0)
(0 0 0)
(0 0 0)
(0 0 0)
(0 0 0)
(0 0 0)
(0 0 0)
(0 0 0)
(0 476.0832147 0)
(0 -527.5472796 0)
(0 0 0)
(0 0 0)
(0 0 0)
(0 0 0)
(0 0 0)
(0 0 0)
(0 669.2862244 0)
(0 0 0)
(-433.6801908 0 0)
(-618.53954 -566.9945773 0)
(0 0 0)
(0 0 0)
(0 0 0)
(0 0 0)
(0 0 0)
(0 0 0)
(0 0 0)
(0 517.4179083 0)
(0 0 0)
(0 0 0)
(0 0 0)
(0 0 0)
(0 0 0)
(0 0 0)
(0 0 0)
(0 0 0)
(9.680241603e-06 1626.81825 0)
(0 0 0)
(-842.9806822 -772.7322949 0)
(0 0 0)
(0 0 0)
(0 0 0)
(0 0 0)
(0 0 0)
(0 0 0)
(0 254.8800181 0)
(-1024.306648 -938.9477641 0)
(0 0 0)
(0 0 0)
(0 0 0)
(0 0 0)
(0 0 0)
(0 0 0)
(0 0 0)
(0 0 0)
(0 0 0)
(0 468.0915608 0)
(0 0 0)
(0 0 0)
(0 0 0)
(0 0 0)
(0 0 0)
(0 0 0)
(0 0 0)
(0 0 0)
(0 0 0)
(0 -1496.810797 0)
(0 0 0)
(0 0 0)
(0 0 0)
(0 0 0)
(0 0 0)
(0 0 0)
(0 0 0)
(-847.3250894 1.693800943e-11 0)
(0 0 0)
(0 0 0)
(0 0 0)
(0 0 0)
(0 0 0)
(0 0 0)
(0 0 0)
(0 0 0)
(0 0 0)
(0 0 0)
(0 395.9607837 0)
(0 0 0)
(0 0 0)
(0 0 0)
(0 0 0)
(0 0 0)
(0 0 0)
(0 0 0)
(485.3651865 444.9180868 0)
(555.6514031 0 0)
(-371.3905192 -340.4413087 0)
(0 0 0)
(0 0 0)
(0 0 0)
(0 0 0)
(0 0 0)
(0 0 0)
(0 0 0)
(0 0 0)
(0 0 0)
(0 0 0)
(0 0 0)
(0 0 0)
(0 0 0)
(0 0 0)
(0 0 0)
(0 0 0)
(0 0 0)
(0 0 0)
(0 617.4106285 0)
(0 0 0)
(0 0 0)
(0 0 0)
(0 0 0)
(0 0 0)
(0 0 0)
(0 0 0)
(0 332.4499127 0)
(0 -316.2136691 0)
(0 0 0)
(0 0 0)
(0 0 0)
(0 0 0)
(0 0 0)
(0 0 0)
(0 0 0)
(0 0 0)
(0 0 0)
(0 0 0)
(0 0 0)
(0 0 0)
(0 0 0)
(0 0 0)
(0 0 0)
(0 0 0)
(0 0 0)
(0 0 0)
(0 0 0)
(0 712.921032 0)
(0 0 0)
(0 0 0)
(0 0 0)
(0 0 0)
(0 0 0)
(0 0 0)
(0 0 0)
(0 596.7663416 0)
(0 -586.0294814 0)
(0 0 0)
(0 0 0)
(0 0 0)
(0 0 0)
(0 0 0)
(0 0 0)
(0 0 0)
(0 0 0)
(0 0 0)
(0 0 0)
(0 0 0)
(0 0 0)
(0 0 0)
(0 0 0)
(0 0 0)
(0 0 0)
(0 0 0)
(0 0 0)
(0 0 0)
(0 320.512163 0)
(321.635622 0 0)
(262.9939335 0 0)
(486.121594 0 0)
(653.0317501 0 0)
(-571.6391853 0 0)
(-3.431166643e-11 -1298.335435 3.839067572e-12)
(0 0 0)
(0 747.4457947 0)
(0 -555.0695485 0)
(0 0 0)
(0 0 0)
(0 0 0)
(0 0 0)
(0 0 0)
(0 0 0)
(869.6104995 -3.535625992e-11 0)
(0 0 0)
(0 0 0)
(0 0 0)
(0 0 0)
(0 0 0)
(0 0 0)
(0 0 0)
(0 0 0)
(0 0 0)
(0 0 0)
(0 0 0)
(0 0 0)
(0 302.9848144 0)
(0 0 0)
(0 0 0)
(-278.3528272 0 0)
(-439.7572097 -403.1107771 0)
(0 0 0)
(0 0 0)
(8.50100308e-06 1428.65022 0)
(-409.2636135 0 0)
(-434.8665771 0 0)
(1370.067997 0 0)
(1204.032033 0 0)
(828.8550489 0 0)
(585.2492908 0 0)
(568.4535913 -521.0824578 0)
(0 0 0)
(-353.4189985 323.9674165 0)
(886.7464697 0 0)
(5.996989678e-06 -1007.831827 0)
(0 0 0)
(0 0 0)
(0 0 0)
(0 0 0)
(0 0 0)
(0 0 0)
(0 0 0)
(0 0 0)
(0 0 0)
(0 0 0)
(0 517.5120121 0)
(0 0 0)
(-658.8647012 -603.9593083 0)
(0 0 0)
(0 0 0)
(0 0 0)
(0 0 0)
(0 0 0)
(0 0 0)
(0 0 0)
(0 0 0)
(0 0 0)
(0 0 0)
(-809.1510725 741.7218151 0)
(-453.8575365 0 0)
(-1.127327293e-05 -1894.531814 0)
(0 0 0)
(0 0 0)
(0 0 0)
(0 0 0)
(0 0 0)
(0 0 0)
(0 0 0)
(0 0 0)
(0 0 0)
(0 0 0)
(0 0 0)
(0 0 0)
(0 0 0)
(0 762.9215335 0)
(-1397.625489 -1.420601812e-11 0)
(0 0 0)
(0 0 0)
(0 0 0)
(0 0 0)
(0 0 0)
(0 0 0)
(0 0 0)
(0 0 0)
(0 0 0)
(0 0 0)
(0 0 0)
(0 0 0)
(0 0 0)
(0 0 0)
(0 0 0)
(0 0 0)
(0 0 0)
(0 0 0)
(0 0 0)
(0 0 0)
(0 0 0)
(0 0 0)
(0 0 0)
(0 0 0)
(0 0 0)
(0 0 0)
(0 0 0)
(0 258.8935997 0)
(0 0 0)
(0 0 0)
(0 0 0)
(0 0 0)
(0 0 0)
(0 0 0)
(0 0 0)
(0 0 0)
(0 0 0)
(0 0 0)
(0 0 0)
(0 0 0)
(0 0 0)
(0 0 0)
(0 0 0)
(0 0 0)
(0 0 0)
(0 0 0)
(0 0 0)
(0 0 0)
(1592.516718 -6.474787786e-11 0)
(0 0 0)
(0 0 0)
(0 0 0)
(0 0 0)
(0 0 0)
(0 0 0)
(0 0 0)
(0 580.1639708 0)
(0 0 0)
(0 0 0)
(0 0 0)
(0 0 0)
(0 0 0)
(0 0 0)
(0 0 0)
(0 0 0)
(0 0 0)
(0 0 0)
(0 0 0)
(0 0 0)
(0 0 0)
(0 0 0)
(0 0 0)
(0 0 0)
(758.2673571 695.0784132 0)
(422.3960995 0 0)
(266.5156597 0 0)
(577.1422524 0 0)
(0 0 0)
(423.1543122 -387.8914543 0)
(0 0 0)
(0 0 0)
(0 0 0)
(0 0 0)
(0 0 0)
(0 0 0)
(0 470.7301556 0)
(0 0 0)
(0 0 0)
(0 0 0)
(0 0 0)
(0 0 0)
(0 0 0)
(0 0 0)
(0 0 0)
(0 0 0)
(0 0 0)
(0 0 0)
(0 0 0)
(0 0 0)
(0 0 0)
(0 0 0)
(1060.101439 971.7596508 0)
(0 0 0)
(0 0 0)
(0 0 0)
(0 0 0)
(0 0 0)
(0 0 0)
(667.6925797 0 0)
(501.1908692 0 0)
(334.654054 0 0)
(445.3413083 0 0)
(315.8547352 0 0)
(686.5099796 0 0)
(0 0 0)
(0 0 0)
(0 0 0)
(0 0 0)
(0 0 0)
(0 0 0)
(0 0 0)
(0 0 0)
(0 0 0)
(0 0 0)
(0 0 0)
(0 0 0)
(0 0 0)
(0 0 0)
(0 0 0)
(9.922050142e-06 1667.455463 0)
(0 0 0)
(0 0 0)
(0 0 0)
(0 0 0)
(0 0 0)
(0 0 0)
(0 0 0)
(0 0 0)
(0 0 0)
(0 0 0)
(0 0 0)
(0 0 0)
(0 0 0)
(0 0 0)
(0 0 0)
(0 0 0)
(0 0 0)
(0 0 0)
(0 0 0)
(0 0 0)
(0 0 0)
(0 0 0)
(0 0 0)
(0 0 0)
(0 0 0)
(0 0 0)
(0 0 0)
(0 0 0)
(0 0 0)
(-611.1806506 560.2489287 0)
(0 0 0)
(0 0 0)
(0 0 0)
(0 0 0)
(0 0 0)
(0 0 0)
(0 0 0)
(0 0 0)
(0 0 0)
(0 0 0)
(0 0 0)
(0 0 0)
(0 0 0)
(0 0 0)
(0 0 0)
(0 0 0)
(0 0 0)
(0 0 0)
(0 0 0)
(0 0 0)
(0 0 0)
(0 0 0)
(0 0 0)
(0 0 0)
(0 0 0)
(0 0 0)
(0 0 0)
(0 0 0)
(0 0 0)
(-1086.540984 995.9959 0)
(0 0 0)
(0 0 0)
(0 0 0)
(0 0 0)
(-662.7620395 0 0)
(-524.5737604 0 0)
(-648.702678 0 0)
(-628.1668429 0 0)
(-388.1180027 0 0)
(0 0 0)
(-515.0231129 0 0)
(0 0 0)
(0 0 0)
(0 0 0)
(0 0 0)
(0 0 0)
(0 0 0)
(0 0 0)
(0 0 0)
(0 0 0)
(0 0 0)
(0 0 0)
(0 0 0)
(0 0 0)
(0 0 0)
(0 0 0)
(0 0 0)
(0 0 0)
(0 0 0)
(0 338.6062768 0)
(0 0 0)
(0 0 0)
(-852.5711218 -781.5235312 0)
(0 0 0)
(0 0 0)
(0 0 0)
(0 0 0)
(0 0 0)
(-1706.515999 -1.763479837e-11 0)
(0 0 0)
(0 621.6576318 0)
(0 0 0)
(0 0 0)
(0 0 0)
(0 0 0)
(0 0 0)
(0 0 0)
(0 0 0)
(0 0 0)
(0 0 0)
(0 0 0)
(0 0 0)
(0 0 0)
(0 0 0)
(0 0 0)
(0 0 0)
(0 0 0)
(535.4902468 490.8660614 0)
(0 0 0)
(0 0 0)
(0 -242.8441791 0)
(0 0 0)
(0 0 0)
(0 0 0)
(0 0 0)
(0 0 0)
(0 0 0)
(0 0 0)
(0 0 0)
(0 370.7466015 0)
(0 0 0)
(0 0 0)
(0 0 0)
(0 0 0)
(0 0 0)
(0 0 0)
(709.9683059 650.8042792 0)
(398.2931853 0 0)
(278.6567385 0 0)
(691.0571633 0 0)
(559.7980861 -513.1482446 0)
(0 0 0)
(0 0 0)
(0 0 0)
(0 0 0)
(0 0 0)
(0 735.5242448 0)
(0 0 0)
(0 0 0)
(0 -405.3013616 0)
(0 0 0)
(0 0 0)
(0 0 0)
(0 0 0)
(495.7614937 454.448035 0)
(371.7244624 0 0)
(325.2809384 0 0)
(588.0848515 0 0)
(0 0 0)
(0 0 0)
(0 0 0)
(739.3705387 677.7563259 0)
(390.4556452 -357.9176741 0)
(0 0 0)
(0 0 0)
(0 300.6212167 0)
(0 0 0)
(0 0 0)
(0 0 0)
(0 -274.2373094 0)
(0 0 0)
(0 0 0)
(0 0 0)
(0 0 0)
(0 0 0)
(0 505.756569 0)
(0 0 0)
(0 0 0)
(0 0 0)
(489.3275588 -448.5502614 0)
(0 0 0)
(0 0 0)
(381.7726911 349.9582996 0)
(0 0 0)
(0 0 0)
(0 0 0)
(0 0 0)
(0 0 0)
(0 0 0)
(0 0 0)
(-429.2691471 393.4967175 0)
(0 -540.4610215 0)
(0 0 0)
(0 0 0)
(0 580.7130778 0)
(0 0 0)
(0 0 0)
(0 0 0)
(-590.8101783 0 0)
(-5.414080691e-06 -909.8723408 0)
(0 0 0)
(0 0 0)
(0 0 0)
(0 0 0)
(0 408.6787654 0)
(0 0 0)
(0 0 0)
(0 0 0)
(0 -256.4841055 0)
(0 0 0)
(0 0 0)
(0 632.271961 0)
(0 0 0)
(0 0 0)
(0 0 0)
(0 0 0)
(0 0 0)
(1032.920378 -946.843678 0)
(0 0 0)
(0 0 0)
(0 0 0)
(0 0 0)
(0 0 0)
(0 455.7302328 0)
(0 0 0)
(0 0 0)
(0 -326.624468 0)
(0 0 0)
(0 0 0)
(982.9672493 901.0533102 0)
(406.962659 0 0)
(563.1303284 0 0)
(279.5583588 0 0)
(0 0 0)
(0 0 0)
(0 0 0)
(0 0 0)
(0 0 0)
(594.9509539 0 0)
(551.6976397 0 0)
(0 0 0)
(0 0 0)
(0 0 0)
(0 0 0)
(0 0 0)
(0 0 0)
(0 0 0)
(548.8915312 0 0)
(457.4447306 0 0)
(0 0 0)
(551.4207462 0 0)
(517.8687888 0 -1.403686157e-12)
(0 0 0)
(0 0 0)
(0 0 0)
(0 0 0)
(243.8648873 0 0)
(421.0237258 0 0)
(0 0 0)
(0 0 0)
(0 0 0)
(0 0 0)
(0 0 0)
(0 0 0)
(0 0 0)
(0 0 0)
(0 0 0)
(0 0 0)
(0 0 0)
(0 0 0)
(0 0 0)
(0 0 0)
(0 0 0)
(0 0 0)
(0 0 0)
(-593.9324945 -46.31401021 -111.9533541)
(0 0 0)
(-1465.812344 2.681706086 -30.61525601)
(0 0 0)
(-1240.751358 -9.892567446 49.64022483)
(0 0 0)
(0 0 0)
(0 0 0)
(-2161.219565 -48.99112645 -69.99395937)
(0 0 0)
(0 0 0)
(0 0 0)
(0 0 0)
(0 0 0)
(0 0 0)
(0 0 0)
(0 0 0)
(0 0 0)
(0 0 0)
(0 0 0)
(-883.0807092 735.9940945 -309.4528534)
(0 0 0)
(0 0 0)
(975.8473612 727.0810568 -304.3673099)
(0 0 0)
(0 0 0)
(-0.0488383152 -1070.207357 -47.80234025)
(0.001229556039 -2.646417387 -796.0791341)
(0 0 0)
(0 0 0)
(0 -1.927792556 -1145.244514)
(0 0 0)
(0 0 0)
(0 -1.588810072 -1665.769646)
(0 0 0)
(0 0 0)
(1.458124882e-12 -0.8679673249 -1005.049659)
(0 0 0)
(0 0 0)
(1.767631047e-12 -1.030871927 -1218.942808)
(0 0 0)
(0 0 0)
(-2.217596071e-12 -0.8062115201 -1531.031005)
(0 0 0)
(0 0 0)
(8.38629558e-05 0.8078453431 -839.4375719)
(0 0 0)
(0 0 0)
(0.01482984114 4.172051615 -1282.534702)
(0 0 0)
(0 0 0)
(0 0 0)
(-0.03520919008 781.6620257 -35.3050882)
(0 0 0)
(-0.006088786222 -731.7517889 -49.79353496)
(0 0 0)
(0.243423308 -1033.196236 -101.2593347)
(0 0 0)
(0.2530001941 1075.134445 -105.7000668)
(0 0 0)
(0 0 0)
(0 0 0)
(0 0 0)
(0.6054989231 1422.19855 102.2050661)
(0 0 0)
(0.06154496412 -1774.001763 1639.048597)
(-644.1755922 633.9983106 -384.7683075)
(-0.00061964634 -805.2796892 -22.40937989)
(-0.02040714939 814.7841103 703.1269396)
(0.01130539977 820.223184 757.7080045)
(0 0 0)
(-1431.163353 1122.922438 -1184.540034)
(0 0 0)
(-1545.36035 784.4686052 -1302.705251)
(-1000.746012 764.092521 83.3598633)
(3.770452235e-12 1486.913753 1479.777712)
(-1.923102261e-12 39.4044226 718.0243242)
(0 0 0)
(-2488.491931 -2965.204059 1110.03293)
(0 0 0)
(-2042.377916 2440.182672 618.5078974)
(-1675.441732 -493.1370833 -1099.59288)
(-830.481933 811.4218316 -1.291598011)
(0 0 0)
(-591.3601172 -4.467016223 0.007499680631)
(0 0 0)
(0 0 0)
(0 0 0)
(0 0 0)
(0 0 0)
(0 0 0)
(-1225.495187 -3.106114705 0.005805429024)
(0 0 0)
(-1528.274768 -1488.179167 2.370549845)
(0 0 0)
(0 0 0)
(0 0 0)
(0 0 0)
(-1416.524329 0.1876332183 -0.0008654918195)
(0 0 0)
(0 0 0)
(0 0 0)
(0 0 0)
(0 0 0)
(0 0 0)
(-0.1337092396 751.9969088 -1.197556601)
(0 0 0)
(-663.6217972 646.7733706 -1.030078202)
(0 0 0)
(0 0 0)
(0 0 0)
(0 0 0)
(-909.4178792 864.2180694 -1.376728289)
(0 0 0)
(0 0 0)
(0 0 0)
(0 0 0)
(0 0 0)
(0 0 0)
(0 0 0)
(0 0 0)
(0 0 0)
(0 0 0)
(0 0 0)
(-530.0675454 0.8604165332 -0.001582457511)
(0 0 0)
(0 0 0)
(0 0 0)
(-693.1360849 7.767685976 -0.01236617217)
(0 0 0)
(-793.9510167 -0.8110627076 -4.415068132)
(0 0 0)
(0 0 0)
(0 0 0)
(0 0 0)
(0 0 0)
(0 0 0)
(0 0 0)
(0 0 0)
(0 0 0)
(0 0 0)
(0 0 0)
(0 0 0)
(0 0 0)
(0 0 0)
(0 0 0)
(0 0 0)
(0 0 0)
(0 0 0)
(0 0 0)
(0 0 0)
(0 0 0)
(0 0 0)
(0 0 0)
(0 0 0)
(0 0 0)
(0 0 0)
(0 0 0)
(0 0 0)
(0 0 0)
(0 0 0)
(0 0 0)
(0 0 0)
(0 0 0)
(0 0 0)
(0 0 0)
(-1052.029316 -15.73571403 -29.15021072)
(0 0 0)
(0 0 0)
(0 0 0)
(-0.1831355171 -1352.342724 -6.901397496)
(0 0 0)
(0 0 0)
(0 0 0)
(0 0 0)
(0 0 0)
(0 0 0)
(0 0 0)
(0 0 0)
(0 0 0)
(0 0 0)
(0 0 0)
(0 0 0)
(0 0 0)
(0 0 0)
(0 0 0)
(0 0 0)
(0 0 0)
(0 0 0)
(0 0 0)
(0 0 0)
(0 0 0)
(0 0 0)
(0 0 0)
(-1411.723214 -602.3803514 -745.0774369)
(0 0 0)
(0 0 0)
(0 0 0)
(0 0 0)
(0 0 0)
(0 0 0)
(0 0 0)
(0 0 0)
(0 0 0)
(0 0 0)
(0 0 0)
(0 0 0)
(0 0 0)
(0 0 0)
(0 0 0)
(0 0 0)
(0 0 0)
(0 0 0)
(0 0 0)
(0 0 0)
(0 0 0)
(0 0 0)
(0 0 0)
(0 0 0)
(0 0 0)
(0 0 0)
(0 0 0)
(0 0 0)
(0 0 0)
(0 0 0)
(0 0 0)
(2.296043956e-12 -906.7504004 919.275723)
(0 0 0)
(0 0 0)
(0 0 0)
(0 0 0)
(0 0 0)
(0 0 0)
(0 0 0)
(0 0 0)
(0 0 0)
(3.011573805e-12 1181.675787 1210.535197)
(0 0 0)
(0 0 0)
(0 0 0)
(0 0 0)
(-10.30661563 -931.9961823 1.484958147)
(-10.50810735 -2.375136911 -1486.524434)
(-0.9343191044 -662.2537037 1.053977719)
(-1.800129035 -2.694851691 -1691.418021)
(0.2648019794 -1790.752079 2.851149616)
(-0.05877255572 -1.196843919 -751.2473157)
(0.02005003109 -6.131518335 -1719.704578)
(0 0 0)
(0 0 0)
(0 0 0)
(5.300626208e-05 -1.331985596 -531.3947118)
(0 0 0)
(0 0 0)
(-1.126994137e-12 -0.9167733433 -776.9279856)
(-537.4935855 -0.02985701581 0.0001013102275)
(0 0 0)
(0 -0.5567114746 -634.1921032)
(-1072.961767 0.1769276989 -0.0003890275133)
(0 0 0)
(0 -0.9109995013 -1055.929537)
(0 0 0)
(0 0 0)
(0 -0.4464269897 -582.286014)
(0 0 0)
(0 0 0)
(-1.138729787e-12 0.01565698853 -787.4856385)
(0 0 0)
(0 0 0)
(0.001330576149 1.814903437 -860.3682394)
(0 0 0)
(0 0 0)
(0 0 0)
(0 0 0)
(0 0 0)
(-883.1439922 -1.465907773 -18.66439647)
(0 0 0)
(0 0 0)
(0 0 0)
(0 0 0)
(0 0 0)
(0 0 0)
(0 0 0)
(0 0 0)
(0 0 0)
(0 0 0)
(-0.003619400761 488.1378818 -33.43173432)
(0 0 0)
(-1143.848348 9.773552735 45.25479944)
(0 0 0)
(0 0 0)
(0 0 0)
(0 0 0)
(0 0 0)
(-0.0851631225 -1048.676857 1114.362157)
(0 0 0)
(0 0 0)
(0 0 0)
(0 0 0)
(0 0 0)
(0 0 0)
(0 0 0)
(0.6508940611 1339.881083 92.26928171)
(0 0 0)
(0 0 0)
(0 0 0)
(0 0 0)
(0 0 0)
(0 0 0)
(0 0 0)
(0 0 0)
(0 0 0)
(-1835.959737 39.6736998 -58.5603891)
(-625.3743162 1.807057232 3.062269169)
(0 0 0)
(0 0 0)
(0 0 0)
(1114.368285 -367.0120688 815.77506)
(0 -857.6388558 850.5858947)
(0 0 0)
(0 0 0)
(0 0 0)
(0 0 0)
(0 0 0)
(0 0 0)
(-608.0588262 2.780068679 2.397572946)
(0 0 0)
(2140.728948 444.0795498 -92.43730459)
(-3027.356168 893.7571209 -2724.1069)
(0 0 0)
(0 0 0)
(0 0 0)
(0 0 0)
(0 0 0)
(0 0 0)
(0 0 0)
(0 0 0)
(0 0 0)
(0 0 0)
(0 0 0)
(0 0 0)
(0 0 0)
(0 0 0)
(0 0 0)
(0 0 0)
(-2034.774932 -471.4977876 854.1250501)
(0 0 0)
(0 0 0)
(0 0 0)
(0 0 0)
(-34.85375068 -1205.368608 1.919858574)
(-11.88760035 -1.097064991 -683.8447079)
(-1237.519578 -77.53923233 0.1237172613)
(0 0 0)
(-1334.655748 -1.893975379 -83.89070537)
(0 0 0)
(-7.635134538 -1789.35636 2.84964623)
(-4.590223366 -2.552733927 -1600.684297)
(0 0 0)
(0 0 0)
(0 0 0)
(0 0 0)
(-0.2037415592 -803.261404 1.278392095)
(-0.2618583749 -1.31456845 -825.4408696)
(0 0 0)
(0 0 0)
(0 0 0)
(0 0 0)
(0 0 0)
(0 0 0)
(0 0 0)
(0 0 0)
(-0.3919755055 -754.0671157 -751.6684029)
(0 0 0)
(-531.6795936 0.6475716195 -33.16013785)
(0 0 0)
(-0.3675983445 -725.9777923 -723.6661756)
(0 0 0)
(0 0 0)
(-525.3115419 0.8356259202 -2.917275431)
(0 0 0)
(0 0 0)
(0 0 0)
(0 0 0)
(0 0 0)
(0 0 0)
(0 0 0)
(0 0 0)
(-1065.338914 16.13033895 -29.80478318)
(0 0 0)
(0 0 0)
(0 0 0)
(0 0 0)
(0 0 0)
(0 0 0)
(0 0 0)
(0 0 0)
(0 0 0)
(0 0 0)
(0 0 0)
(0 0 0)
(0 0 0)
(-583.4007726 2.328385744 3.230786411)
(0 0 0)
(0 0 0)
(0 0 0)
(0 0 0)
(0 0 0)
(731.7683576 -295.5454519 371.3572851)
(806.4563623 0.6627795707 0.5708907746)
(0 0 0)
(0 0 0)
(0 0 0)
(0 0 0)
(0 0 0)
(0 0 0)
(0 0 0)
(0 0 0)
(0 0 0)
(0 0 0)
(0 0 0)
(0 0 0)
(0 0 0)
(0 0 0)
(0 0 0)
(-1257.012396 -37.27960192 29.59334938)
(0 0 0)
(0 0 0)
(0 0 0)
(0 0 0)
(0 0 0)
(0 0 0)
(0 0 0)
(2342.031247 1710.087291 -957.2239554)
(0 0 0)
(0 0 0)
(0 0 0)
(0 0 0)
(0 0 0)
(0 0 0)
(0 0 0)
(0 0 0)
(0 0 0)
(0 0 0)
(0 0 0)
(0 0 0)
(0 0 0)
(0 0 0)
(0 0 0)
(0 0 0)
(0 0 0)
(0 0 0)
(0 0 0)
(0 0 0)
(0 0 0)
(0 0 0)
(0 0 0)
(0 0 0)
(0 0 0)
(0 0 0)
(0 0 0)
(0 0 0)
(0 0 0)
(0 0 0)
(0 0 0)
(0 0 0)
(0 0 0)
(0 0 0)
(0 0 0)
(0 0 0)
(0 0 0)
(0 0 0)
(0 0 0)
(0 0 0)
(0 0 0)
(0 0 0)
(0 0 0)
(0 0 0)
(0 0 0)
(0 0 0)
)
;

boundaryField
{
    walls
    {
        type            calculated;
        value           uniform (0 0 0);
    }
    wallFilmFace_top
    {
        type            calculated;
        value           uniform (0 0 0);
    }
    region0_to_wallFilmRegion_wallFilmFace
    {
        type            calculated;
        value           uniform (0 0 0);
    }
    mirrorFace_top
    {
        type            calculated;
        value           uniform (0 0 0);
    }
    region0_to_wallFilmRegion_mirrorFace
    {
        type            calculated;
        value           uniform (0 0 0);
    }
    procBoundary2to0
    {
        type            processor;
        value           uniform (0 0 0);
    }
    procBoundary2to1
    {
        type            processor;
        value           uniform (0 0 0);
    }
    procBoundary2to3
    {
        type            processor;
        value           uniform (0 0 0);
    }
}


// ************************************************************************* //
