/*--------------------------------*- C++ -*----------------------------------*\
  =========                 |
  \\      /  F ield         | OpenFOAM: The Open Source CFD Toolbox
   \\    /   O peration     | Website:  https://openfoam.org
    \\  /    A nd           | Version:  8
     \\/     M anipulation  |
\*---------------------------------------------------------------------------*/
FoamFile
{
    version     2.0;
    format      ascii;
    class       volScalarField;
    location    "0.8/wallFilmRegion";
    object      kappa;
}
// * * * * * * * * * * * * * * * * * * * * * * * * * * * * * * * * * * * * * //

dimensions      [1 1 -3 -1 0 0 0];

internalField   nonuniform List<scalar> 
1342
(
0.6088100021
0.6088099962
0.6088099987
0.6088099685
0.6088100092
0.6088100187
0.6088099957
0.6088099807
0.6088099763
0.6088099777
0.6088099827
0.6088099921
0.6088100004
0.608810001
0.6088100006
0.6088100008
0.6088100014
0.608810002
0.6088100023
0.6088100024
0.6088100025
0.6088100026
0.608810003
0.6088100034
0.6088100038
0.608810002
0.6088100142
0.6088100001
0.6088099962
0.6088099998
0.6088100039
0.6088100021
0.6088099994
0.6088099987
0.6088099792
0.6088099685
0.6088099702
0.6088099767
0.6088099888
0.6088100004
0.6088100008
0.6088100003
0.6088100004
0.6088100008
0.6088100015
0.6088100023
0.6088100026
0.6088100027
0.6088100027
0.6088100029
0.6088100031
0.6088100033
0.6088100023
0.6088099998
0.6088099928
0.6088099981
0.6088099992
0.60881
0.6088100006
0.6088099976
0.6088099982
0.6088100001
0.6088102292
0.6088101225
0.6088100229
0.6088100293
0.6088100288
0.6088100018
0.6088100009
0.6088100002
0.6088100002
0.6088100004
0.6088100008
0.6088100017
0.6088100025
0.6088100026
0.6088100027
0.6088100027
0.6088100028
0.6088100028
0.6088100027
0.6088100081
0.6088099965
0.6088099995
0.6088099994
0.6088099988
0.6088099962
0.6088099965
0.6088099987
0.6088100001
0.6088101718
0.6088100092
0.6088100023
0.6088100022
0.6088100038
0.6088100004
0.6088100003
0.6088100001
0.6088100001
0.6088100002
0.6088100004
0.6088100007
0.6088100013
0.608810002
0.6088100026
0.6088100028
0.6088100029
0.6088100029
0.6088100032
0.6088100024
0.6088100094
0.6088099999
0.6088099992
0.6088099977
0.6088099946
0.608809995
0.6088099982
0.6088100001
0.6088100001
0.6088100002
0.6088100002
0.6088100004
0.6088100006
0.6088100001
0.6088100001
0.60881
0.60881
0.6088100001
0.6088100002
0.6088100004
0.6088100009
0.6088100017
0.6088100032
0.6088100049
0.6088100043
0.6088100046
0.6088100036
0.6088100017
0.6088100015
0.6088100002
0.6088099997
0.6088100005
0.6088099983
0.6088099936
0.6088099866
0.6088099845
0.6088099975
0.6088099858
0.608809987
0.6088099902
0.6088099931
0.6088099887
0.6088099967
0.6088099985
0.6088099997
0.6088099995
0.6088099975
0.6088099872
0.6088099848
0.6088099881
0.6088099966
0.6088100117
0.6088100252
0.6088100273
0.6088100066
0.6088100038
0.6088099886
0.6088099935
0.6088099949
0.6088100027
0.6088100041
0.6088100012
0.6088100015
0.6088099936
0.6088099833
0.6088099953
0.6088099771
0.6088099878
0.6088099877
0.6088099744
0.6088099522
0.6088099899
0.6088099937
0.6088099986
0.6088099979
0.6088099932
0.6088099813
0.6088099772
0.608809981
0.60880999
0.608809999
0.6088100039
0.6088100053
0.6088100055
0.6088100038
0.6088099567
0.6088099718
0.6088099891
0.6088100074
0.6088100059
0.6088100057
0.6088100032
0.6088099998
0.6088099905
0.6088099938
0.6088099814
0.6088099999
0.6088099782
0.6088099687
0.6088099588
0.6088099846
0.6088099882
0.6088099964
0.6088099947
0.6088099874
0.608809976
0.6088099736
0.6088099819
0.6088099927
0.6088100002
0.6088100033
0.6088100042
0.6088100041
0.6088100037
0.6088099579
0.608810493
0.608812423
0.60881342
0.6088099792
0.608809933
0.6088099191
0.6088099272
0.6088099425
0.6088099902
0.6088099831
0.6088100015
0.6088099863
0.6088099806
0.6088099735
0.6088099821
0.6088099835
0.6088099927
0.6088099897
0.6088099812
0.6088099727
0.6088099756
0.6088099868
0.6088099965
0.6088100018
0.608810004
0.6088100044
0.6088100038
0.6088100035
0.6088099656
0.6088099928
0.6088100021
0.6088100072
0.608809948
0.6088099145
0.6088099032
0.6088099029
0.6088099024
0.608809975
0.6088099763
0.608810003
0.6088099936
0.6088099905
0.6088099861
0.6088099818
0.6088099806
0.6088099877
0.6088099842
0.6088099772
0.6088099754
0.6088099837
0.6088099937
0.6088100003
0.6088100037
0.6088100052
0.6088100053
0.6088100035
0.6088100032
0.6088099732
0.6088099924
0.6088099973
0.6088099958
0.6088099902
0.6088099822
0.6088099253
0.6088099584
0.6088099579
0.6088099654
0.6088099775
0.6088100056
0.6088099996
0.6088099979
0.6088099956
0.608809985
0.6088099815
0.608809984
0.6088099817
0.6088099804
0.6088099854
0.6088099932
0.6088099993
0.6088100032
0.6088100054
0.6088100066
0.6088100073
0.6088100044
0.6088099944
0.6088099795
0.6088099946
0.6088100001
0.6088099996
0.6088099945
0.6088099806
0.6088099427
0.6088099747
0.6088099736
0.6088099649
0.608809986
0.6088100094
0.6088100044
0.6088100031
0.6088100017
0.6088099924
0.608809988
0.6088099868
0.6088099876
0.6088099909
0.6088099955
0.6088099998
0.6088100029
0.6088100049
0.608810006
0.6088100065
0.608810006
0.608810003
0.6088099932
0.6088099909
0.6088099983
0.6088100027
0.6088100026
0.6088099996
0.6088099885
0.608809966
0.6088099804
0.6088099819
0.6088099886
0.6088100008
0.6088100143
0.6088100084
0.6088100067
0.6088100053
0.6088100006
0.6088099976
0.6088099961
0.6088099972
0.6088099993
0.6088100011
0.6088100028
0.6088100043
0.6088100054
0.6088100058
0.6088100056
0.6088100044
0.6088100014
0.6088099977
0.6088099949
0.6088099963
0.6088099975
0.6088099976
0.6088099971
0.6088099971
0.6088099862
0.6088099848
0.6088099934
0.6088100063
0.6088100264
0.6088100187
0.6088100116
0.6088100091
0.6088100074
0.6088100025
0.6088100028
0.6088100029
0.6088100028
0.608810003
0.6088100031
0.6088100037
0.6088100046
0.6088100054
0.6088100055
0.608810005
0.6088100035
0.6088100011
0.6088100004
0.6088099963
0.6088099972
0.6088099978
0.608809998
0.6088100289
0.608810016
0.6088099943
0.608809993
0.6088099936
0.6088099941
0.608809995
0.6088099962
0.6088099976
0.6088099991
0.6088100015
0.6088100013
0.6088100016
0.6088100024
0.6088100033
0.608810004
0.6088100036
0.6088100038
0.6088100046
0.6088100053
0.6088100052
0.6088100045
0.6088100031
0.6088100013
0.6088100016
0.6088099968
0.6088099983
0.6088100029
0.6088099992
0.6088100222
0.608810029
0.6088100228
0.6088100199
0.6088100152
0.6088100092
0.6088100049
0.6088100021
0.6088100002
0.60881
0.6088100011
0.6088100011
0.6088100012
0.608810002
0.6088100031
0.6088100041
0.6088100039
0.608810004
0.6088100046
0.6088100052
0.608810005
0.6088100042
0.608810003
0.6088100016
0.6088100022
0.6088099974
0.6088099986
0.6088099996
0.6088099998
0.6088100002
0.6088100006
0.6088100007
0.6088100009
0.6088100011
0.6088100014
0.6088100019
0.6088100028
0.6088100039
0.6088100034
0.6088100028
0.6088100016
0.6088100013
0.6088100019
0.6088100032
0.6088100043
0.6088100041
0.6088100042
0.6088100047
0.6088100052
0.6088100049
0.6088100041
0.608810003
0.608810002
0.6088100026
0.6088099983
0.6088099991
0.6088099995
0.6088099997
0.60881
0.6088100001
0.6088100002
0.6088100003
0.6088100007
0.6088100012
0.6088100025
0.6088100015
0.6088100011
0.6088100011
0.6088100015
0.6088100004
0.6088100003
0.6088100004
0.6088100008
0.6088100016
0.6088100024
0.6088100031
0.6088100039
0.6088100046
0.6088100048
0.6088100041
0.6088100031
0.6088100023
0.608810003
0.6088099995
0.6088099996
0.6088099997
0.6088099999
0.60881
0.6088100001
0.6088100002
0.6088100005
0.608810001
0.6088100017
0.6088100033
0.6088100022
0.6088100012
0.608810001
0.6088100011
0.6088100003
0.6088100003
0.6088100003
0.6088100006
0.608810001
0.6088100017
0.6088100025
0.6088100034
0.6088100043
0.6088100045
0.608810004
0.6088100032
0.6088100026
0.6088100033
0.6088100002
0.60881
0.60881
0.6088100002
0.6088100004
0.6088100005
0.6088100008
0.6088100012
0.6088100018
0.6088100031
0.6088100059
0.6088100058
0.608810003
0.6088100021
0.6088100016
0.6088100004
0.6088100003
0.6088100004
0.6088100006
0.608810001
0.6088100017
0.6088100023
0.6088100026
0.6088100028
0.6088100029
0.6088100029
0.6088100028
0.6088100027
0.6088100036
0.6088100004
0.6088100003
0.6088100005
0.6088100007
0.6088100011
0.6088100015
0.6088100018
0.6088100024
0.6088100036
0.6088100063
0.6088100126
0.608810016
0.6088100056
0.6088100026
0.6088100016
0.6088100008
0.6088100006
0.6088100006
0.6088100008
0.6088100012
0.6088100017
0.6088100021
0.6088100022
0.6088100023
0.6088100024
0.6088100025
0.6088100027
0.6088100029
0.6088100038
0.6088100004
0.6088100007
0.6088100011
0.6088100017
0.6088100025
0.6088100033
0.6088100037
0.6088100047
0.6088100076
0.6088100134
0.6088100236
0.6088100252
0.6088100093
0.6088100048
0.6088100032
0.6088100009
0.6088100007
0.6088100008
0.6088100009
0.6088100012
0.6088100016
0.6088100019
0.6088100021
0.6088100023
0.6088100024
0.6088100026
0.6088100028
0.6088100031
0.6088100038
0.6088100007
0.6088100015
0.6088100024
0.6088100036
0.608810005
0.608810006
0.60881001
0.6088100107
0.6088100163
0.6088100241
0.6088100295
0.6088100216
0.6088100116
0.6088100083
0.6088100068
0.6088100018
0.608810001
0.6088100009
0.6088100011
0.6088100013
0.6088100016
0.608810002
0.6088100023
0.6088100026
0.6088100027
0.6088100029
0.6088100031
0.6088100034
0.6088100038
0.6088100014
0.6088100029
0.6088100046
0.6088100069
0.6088100094
0.6088100116
0.6088100773
0.6088100248
0.6088100286
0.6088100281
0.6088100247
0.6088100168
0.6088100108
0.6088100091
0.6088100098
0.608810005
0.6088100014
0.608810001
0.6088100011
0.6088100014
0.6088100018
0.6088100022
0.6088100028
0.6088100032
0.6088100033
0.6088100034
0.6088100035
0.6088100038
0.6088100037
0.6088100028
0.608810005
0.6088100061
0.6088100067
0.6088100067
0.6088100059
0.6088100006
0.6088100013
0.608810002
0.6088100028
0.6088100037
0.6088100046
0.6088100053
0.6088100064
0.6088100083
0.608810006
0.6088100012
0.6088100009
0.608810001
0.6088100014
0.6088100019
0.6088100026
0.6088100034
0.6088100038
0.6088100039
0.6088100038
0.6088100039
0.608810004
0.6088100035
0.6088100046
0.6088100061
0.6088100052
0.608810004
0.6088100034
0.6088100027
0.6088100003
0.6088100004
0.6088100006
0.6088100009
0.6088100013
0.6088100022
0.6088100035
0.6088100052
0.6088100078
0.6088100061
0.6088100011
0.6088100008
0.6088100009
0.6088100012
0.6088100019
0.6088100027
0.6088100036
0.6088100039
0.6088100034
0.6088100035
0.6088100034
0.6088100033
0.6088100031
0.6088100062
0.608810006
0.6088100035
0.6088100016
0.6088100024
0.6088100018
0.6088100002
0.6088100003
0.6088100007
0.6088100008
0.6088100011
0.608810002
0.6088100034
0.6088100055
0.6088100082
0.608810006
0.6088100011
0.6088100007
0.6088100007
0.608810001
0.6088100015
0.6088100023
0.608810003
0.6088100034
0.6088100033
0.6088100032
0.6088100031
0.6088100031
0.6088100033
0.6088100068
0.608810006
0.6088100035
0.6088100011
0.6088100024
0.6088100017
0.6088100002
0.6088100003
0.6088100006
0.608810001
0.6088100017
0.6088100028
0.608810004
0.6088100055
0.6088100057
0.6088100039
0.6088100012
0.6088100007
0.6088100006
0.6088100007
0.608810001
0.6088100016
0.6088100024
0.6088100033
0.6088100033
0.6088100031
0.608810003
0.608810003
0.6088100033
0.6088100059
0.6088100055
0.6088100032
0.6088100009
0.6088100033
0.6088100022
0.6088100002
0.6088100004
0.6088100007
0.6088100013
0.6088100022
0.6088100017
0.6088100015
0.6088100014
0.6088100014
0.6088100013
0.6088100008
0.6088100006
0.6088100005
0.6088100006
0.6088100008
0.6088100012
0.6088100019
0.6088100032
0.6088100035
0.6088100028
0.6088100028
0.6088100028
0.6088100028
0.6088100034
0.6088100025
0.6088100015
0.6088100007
0.6088100014
0.6088100015
0.6088100006
0.6088100005
0.6088100005
0.6088100007
0.6088100009
0.6088100011
0.6088100011
0.6088100011
0.6088100012
0.6088100012
0.6088100012
0.6088100012
0.6088100012
0.6088100013
0.6088100015
0.6088100018
0.6088100021
0.6088100024
0.6088100027
0.6088100025
0.6088100022
0.6088100026
0.6088100027
0.6088099901
0.6088099978
0.6088099996
0.6088099964
0.6088099996
0.608809998
0.6088099993
0.6088099997
0.6088099989
0.6088099988
0.6088099989
0.6088099988
0.6088099995
0.6088099974
0.6088099986
0.608809999
0.6088099995
0.6088099937
0.6088099982
0.6088099992
0.6088099998
0.6088099999
0.6088099999
0.6088099999
0.6088099916
0.6088099919
0.6088099928
0.6088099932
0.6088099913
0.6088099914
0.6088099935
0.6088099893
0.608809987
0.6088099935
0.6088099873
0.6088099878
0.6088099893
0.6088099832
0.6088099823
0.6088099811
0.6088099833
0.6088099844
0.6088099796
0.6088099851
0.6088099861
0.6088099808
0.608809987
0.6088099887
0.6088099895
0.6088099923
0.6088099962
0.6088099911
0.6088099984
0.6088099985
0.6088099939
0.6088099943
0.6088099949
0.6088099986
0.6088099989
0.6088099988
0.6088099958
0.608809997
0.6088099995
0.6088099991
0.6088099985
0.6088099992
0.6088099993
0.6088099995
0.6088099994
0.6088099996
0.6088099995
0.6088099996
0.6088099997
0.6088099998
0.6088099998
0.6088099997
0.6088099997
0.6088099997
0.6088099998
0.6088099997
0.6088099997
0.6088099998
0.6088099932
0.6088099929
0.6088099935
0.6088099905
0.6088099956
0.6088099953
0.60880999
0.6088099952
0.6088099954
0.6088099936
0.6088099935
0.6088099937
0.6088099969
0.6088099948
0.6088099951
0.6088099937
0.6088099936
0.6088099937
0.6088099949
0.6088099945
0.6088099947
0.6088099937
0.6088099915
0.6088099921
0.6088099947
0.6088099936
0.6088099947
0.6088099836
0.6088099816
0.6088099835
0.6088099953
0.6088099851
0.6088099923
0.6088099798
0.6088099812
0.6088099807
0.6088099861
0.6088099801
0.6088099802
0.6088099828
0.6088099854
0.6088099856
0.6088099827
0.6088099882
0.6088099879
0.6088099906
0.608809987
0.6088099989
0.6088099988
0.6088099988
0.6088099991
0.6088099989
0.608809999
0.6088099992
0.608809999
0.6088099991
0.6088099991
0.6088099936
0.608809995
0.6088099953
0.6088099907
0.6088099945
0.6088099937
0.6088099922
0.6088099947
0.6088099948
0.6088099872
0.6088099916
0.6088099907
0.6088099869
0.6088099899
0.6088099888
0.6088099874
0.6088099881
0.6088099887
0.6088099901
0.6088099893
0.6088099916
0.6088099973
0.608809996
0.608809998
0.6088099988
0.6088099989
0.6088099989
0.608809999
0.6088099988
0.6088099988
0.6088099973
0.6088099981
0.6088099986
0.6088099967
0.6088099987
0.6088099985
0.6088099966
0.6088099985
0.6088099979
0.6088099934
0.6088099961
0.6088099953
0.6088099905
0.6088099937
0.6088099919
0.6088099905
0.6088099907
0.6088099929
0.6088099945
0.6088099941
0.6088099973
0.6088099986
0.6088099987
0.6088099991
0.6088099984
0.6088099989
0.6088099975
0.6088099989
0.6088099986
0.6088099988
0.6088099988
0.6088099993
0.6088099996
0.6088099996
0.6088099987
0.6088099996
0.6088099993
0.6088099967
0.6088099986
0.6088099976
0.6088099932
0.6088099961
0.6088099954
0.6088099962
0.6088099964
0.6088099988
0.6088099988
0.6088099991
0.6088099995
0.6088099996
0.6088099875
0.6088099982
0.6088099951
0.6088099969
0.6088099988
0.6088099979
0.6088099996
0.6088099998
0.6088099998
0.6088099983
0.6088099996
0.6088099994
0.6088099982
0.6088099994
0.6088099995
0.6088099996
0.6088099996
0.6088099997
0.6088099761
0.6088099897
0.6088099893
0.6088099907
0.6088099874
0.6088099991
0.6088099895
0.6088099993
0.6088099902
0.6088099994
0.6088099929
0.6088099923
0.6088099923
0.6088099903
0.6088099934
0.6088099933
0.608809995
0.6088099935
0.6088099936
0.6088099946
0.6088099935
0.6088099936
0.6088099943
0.6088099843
0.6088099822
0.6088099946
0.6088099795
0.6088099801
0.60880998
0.6088099798
0.6088099831
0.6088099815
0.6088099864
0.608809987
0.6088099923
0.6088099886
0.6088099955
0.608809993
0.6088099988
0.608809999
0.6088099992
0.6088099933
0.6088099922
0.6088099917
0.6088099883
0.6088099871
0.6088099868
0.6088099882
0.6088099943
0.6088099987
0.6088099968
0.6088099986
0.6088099988
0.6088099988
0.6088099989
0.6088099988
0.6088099989
0.6088099967
0.6088099972
0.6088099971
0.6088099943
0.6088099921
0.6088099894
0.6088099911
0.6088099977
0.6088099991
0.608809999
0.6088099993
0.6088099993
0.6088099975
0.6088099949
0.6088099926
0.6088099975
0.6088099993
0.6088099993
0.6088099997
0.6088099997
0.6088099995
0.6088099998
0.6088099998
0.6088099999
0.6088099997
0.6088099998
0.6088099992
0.6088099977
0.608809999
0.6088099996
0.6088099996
0.6088099998
0.6088099998
0.6088099999
0.6088099998
0.6088099994
0.608809999
0.6088099981
0.6088099993
0.6088099994
0.6088099996
0.6088099997
0.6088099981
0.6088099992
0.6088099996
0.6088099997
0.6088099997
0.608809999
0.6088099996
0.6088099998
0.6088099999
0.6088099998
0.6088099994
0.6088099998
0.6088099999
0.6088099999
0.6088099848
0.6088099989
0.6088099912
0.6088099845
0.6088099987
0.6088099989
0.6088099888
0.6088099992
0.6088099814
0.6088099801
0.608809999
0.6088099992
0.60880999
0.6088099994
0.6088099795
0.6088099792
0.6088099993
0.6088099993
0.608809979
0.6088099994
0.6088099956
0.6088099909
0.6088099989
0.6088099987
0.6088099995
0.6088099987
0.6088099985
0.6088099966
0.6088099987
0.6088099996
0.6088099988
0.6088099969
0.6088099978
0.6088099986
0.6088099991
0.6088099994
0.6088099988
0.6088099988
0.6088099997
0.6088099992
0.6088099989
0.6088099993
0.6088099988
0.6088099989
0.6088099995
0.6088099995
0.6088099997
0.6088099998
0.6088099989
0.6088099989
0.6088099989
0.6088099938
0.6088099998
0.6088099996
0.6088099998
0.6088099997
0.6088099998
0.6088099999
0.6088099999
0.6088099999
0.6088099999
0.6088099995
0.6088099997
0.6088099998
0.6088099999
0.6088099985
0.6088099989
0.6088099778
0.6088099967
0.6088099955
0.6088099978
0.6088099989
0.6088099988
0.6088099992
0.6088099999
0.6088099998
0.6088099999
0.6088099999
0.6088099999
0.6088099999
0.6088099999
0.6088099999
0.6088099999
0.6088099999
0.6088099999
0.6088099999
0.6088099999
0.6088099999
0.6088099999
0.6088099888
0.6088099986
0.6088099971
0.6088099989
0.6088099989
0.6088099992
0.6088099994
0.6088099994
0.6088099996
0.6088099996
0.6088099989
0.6088099989
0.6088099992
0.6088099994
0.6088099994
0.6088099996
0.6088099997
0.6088099997
0.6088099998
0.6088099998
0.6088099993
0.6088099992
0.6088099995
0.6088099997
0.6088099997
0.6088099998
0.6088099998
0.6088099998
0.6088099999
0.6088099999
0.6088099996
0.6088099995
0.6088099997
0.6088099998
0.6088099998
0.6088099998
0.6088099999
0.6088099999
0.6088099999
0.6088099999
0.6088099999
)
;

boundaryField
{
    walls
    {
        type            zeroGradient;
    }
    wallFilmFace_top
    {
        type            zeroGradient;
    }
    region0_to_wallFilmRegion_wallFilmFace
    {
        type            zeroGradient;
    }
    mirrorFace_top
    {
        type            zeroGradient;
    }
    region0_to_wallFilmRegion_mirrorFace
    {
        type            zeroGradient;
    }
    procBoundary2to0
    {
        type            processor;
        value           nonuniform List<scalar> 
26
(
0.6088100002
0.608809994
0.6088099977
0.6088099915
0.6088100107
0.6088100369
0.6088099921
0.6088099884
0.6088099891
0.6088099892
0.6088099914
0.6088099982
0.6088100011
0.6088100013
0.6088100011
0.6088100014
0.6088100017
0.6088100018
0.608810002
0.6088100022
0.6088100024
0.6088100027
0.6088100033
0.6088100039
0.608810004
0.6088100018
)
;
    }
    procBoundary2to1
    {
        type            processor;
        value           nonuniform List<scalar> 
33
(
0.6088100116
0.6088100116
0.6088099966
0.6088099966
0.6088100085
0.6088100171
0.6088100175
0.6088100175
0.6088100025
0.6088099934
0.6088099694
0.6088098928
0.6088099289
0.6088099702
0.6088099936
0.6088099962
0.6088099966
0.6088099971
0.6088099978
0.6088100023
0.608810008
0.6088100066
0.6088100037
0.6088100018
0.6088100008
0.6088100002
0.60881
0.6088099999
0.60881
0.6088100004
0.608810001
0.6088100019
0.6088100031
)
;
    }
    procBoundary2to3
    {
        type            processor;
        value           nonuniform List<scalar> 
64
(
0.6088099975
0.6088099967
0.6088099975
0.608809999
0.6088099998
0.6088099987
0.608809999
0.6088099994
0.6088099999
0.6088099898
0.6088099968
0.6088099956
0.6088099968
0.6088099968
0.6088099959
0.6088099953
0.6088099951
0.6088099951
0.6088099952
0.6088099954
0.608809994
0.6088099872
0.6088099833
0.6088099806
0.6088099806
0.6088099819
0.6088099837
0.6088099837
0.6088099859
0.6088099837
0.6088099993
0.6088099991
0.6088099993
0.6088099989
0.6088099988
0.6088099902
0.6088099995
0.6088099898
0.6088099931
0.6088099993
0.6088099999
0.6088099995
0.6088099996
0.6088099998
0.6088099999
0.6088099999
0.6088099789
0.6088099994
0.608809998
0.6088099964
0.6088099967
0.6088099984
0.6088099996
0.6088099998
0.6088099988
0.6088099999
0.6088099999
0.6088099991
0.6088099999
0.6088099999
0.6088099997
0.6088099999
0.6088099999
0.6088099999
)
;
    }
}


// ************************************************************************* //
