/*--------------------------------*- C++ -*----------------------------------*\
  =========                 |
  \\      /  F ield         | OpenFOAM: The Open Source CFD Toolbox
   \\    /   O peration     | Website:  https://openfoam.org
    \\  /    A nd           | Version:  8
     \\/     M anipulation  |
\*---------------------------------------------------------------------------*/
FoamFile
{
    version     2.0;
    format      ascii;
    class       volScalarField;
    location    "0.8/wallFilmRegion";
    object      mu;
}
// * * * * * * * * * * * * * * * * * * * * * * * * * * * * * * * * * * * * * //

dimensions      [1 -1 -1 0 0 0 0];

internalField   nonuniform List<scalar> 
1342
(
0.0008861473808
0.0008861474638
0.0008861474283
0.00088614785
0.000886147282
0.000886147149
0.0008861474703
0.00088614768
0.0008861477407
0.0008861477217
0.0008861476519
0.0008861475211
0.0008861474045
0.0008861473966
0.000886147402
0.0008861473985
0.0008861473909
0.0008861473828
0.0008861473788
0.0008861473773
0.000886147376
0.0008861473734
0.0008861473688
0.0008861473622
0.0008861473571
0.0008861473822
0.0008861472116
0.0008861474084
0.0008861474634
0.0008861474125
0.0008861473566
0.0008861473816
0.0008861474192
0.0008861474282
0.0008861477008
0.00088614785
0.0008861478265
0.0008861477353
0.000886147566
0.0008861474054
0.000886147399
0.0008861474058
0.0008861474043
0.0008861473992
0.0008861473892
0.0008861473779
0.0008861473737
0.0008861473732
0.0008861473724
0.0008861473702
0.0008861473673
0.0008861473647
0.0008861473784
0.0008861474126
0.0008861475115
0.0008861474375
0.0008861474213
0.0008861474107
0.0008861474019
0.0008861474433
0.0008861474354
0.0008861474092
0.0008861442102
0.0008861457007
0.0008861470902
0.0008861470007
0.0008861470088
0.0008861473848
0.0008861473981
0.0008861474075
0.0008861474071
0.0008861474044
0.0008861473986
0.0008861473872
0.0008861473758
0.0008861473735
0.0008861473732
0.0008861473726
0.0008861473719
0.0008861473717
0.0008861473733
0.0008861472976
0.0008861474596
0.0008861474176
0.0008861474181
0.0008861474264
0.0008861474639
0.0008861474595
0.0008861474288
0.0008861474085
0.0008861450125
0.0008861472822
0.0008861473784
0.0008861473797
0.0008861473571
0.0008861474053
0.0008861474067
0.0008861474089
0.0008861474086
0.0008861474071
0.0008861474043
0.0008861474
0.0008861473927
0.0008861473819
0.0008861473739
0.0008861473716
0.0008861473702
0.00088614737
0.000886147366
0.0008861473763
0.0008861472798
0.0008861474114
0.0008861474222
0.000886147443
0.0008861474864
0.0008861474806
0.000886147435
0.0008861474091
0.0008861474089
0.0008861474082
0.0008861474072
0.0008861474054
0.0008861474021
0.0008861474083
0.0008861474089
0.0008861474102
0.00088614741
0.0008861474091
0.0008861474074
0.0008861474043
0.0008861473984
0.000886147387
0.0008861473655
0.0008861473422
0.0008861473507
0.0008861473457
0.0008861473596
0.0008861473864
0.0008861473893
0.0008861474079
0.0008861474146
0.0008861474034
0.000886147434
0.0008861474991
0.0008861475967
0.0008861476274
0.0008861474449
0.000886147609
0.0008861475919
0.0008861475465
0.0008861475066
0.0008861475674
0.0008861474568
0.0008861474315
0.000886147414
0.0008861474179
0.0008861474452
0.0008861475885
0.0008861476229
0.0008861475771
0.0008861474573
0.0008861472472
0.0008861470589
0.0008861470286
0.0008861473179
0.0008861473569
0.0008861475699
0.0008861475012
0.0008861474809
0.0008861473729
0.0008861473537
0.0008861473938
0.0008861473901
0.0008861474992
0.0008861476441
0.0008861474757
0.0008861477296
0.00088614758
0.000886147582
0.0008861477672
0.0008861480771
0.0008861475518
0.0008861474981
0.0008861474299
0.0008861474402
0.0008861475055
0.000886147672
0.0008861477292
0.0008861476749
0.00088614755
0.0008861474239
0.0008861473563
0.0008861473361
0.0008861473338
0.0008861473566
0.0008861480147
0.0008861478043
0.0008861475631
0.0008861473072
0.0008861473279
0.0008861473301
0.0008861473653
0.0008861474128
0.0008861475432
0.000886147497
0.0008861476694
0.0008861474115
0.0008861477151
0.0008861478477
0.0008861479851
0.0008861476257
0.0008861475749
0.0008861474609
0.0008861474848
0.0008861475867
0.0008861477453
0.0008861477786
0.0008861476635
0.0008861475125
0.0008861474082
0.0008861473643
0.000886147352
0.0008861473526
0.0008861473591
0.0008861479979
0.0008861405285
0.0008861135848
0.0008860996669
0.0008861477002
0.0008861483455
0.0008861485396
0.0008861484272
0.0008861482131
0.0008861475478
0.0008861476457
0.0008861473896
0.0008861476022
0.0008861476808
0.0008861477809
0.0008861476599
0.0008861476409
0.0008861475127
0.0008861475539
0.0008861476732
0.0008861477915
0.0008861477506
0.0008861475939
0.0008861474597
0.0008861473851
0.000886147355
0.0008861473484
0.000886147358
0.0008861473616
0.0008861478907
0.0008861475109
0.0008861473813
0.0008861473092
0.0008861481366
0.0008861486043
0.0008861487624
0.0008861487657
0.0008861487728
0.0008861477596
0.0008861477415
0.0008861473679
0.0008861474992
0.0008861475424
0.0008861476046
0.0008861476643
0.0008861476816
0.0008861475815
0.0008861476312
0.0008861477281
0.0008861477538
0.0008861476373
0.0008861474985
0.0008861474064
0.0008861473582
0.0008861473378
0.0008861473367
0.0008861473615
0.0008861473661
0.0008861477843
0.000886147517
0.0008861474477
0.0008861474687
0.0008861475471
0.0008861476582
0.0008861484535
0.0008861479914
0.0008861479984
0.0008861478927
0.0008861477249
0.0008861473323
0.0008861474156
0.0008861474399
0.0008861474722
0.0008861476195
0.0008861476682
0.0008861476333
0.0008861476661
0.0008861476839
0.0008861476145
0.0008861475055
0.0008861474194
0.000886147365
0.000886147335
0.0008861473176
0.000886147309
0.0008861473482
0.0008861474887
0.0008861476964
0.0008861474858
0.0008861474092
0.0008861474163
0.0008861474868
0.0008861476805
0.0008861482099
0.0008861477635
0.0008861477785
0.0008861479005
0.0008861476061
0.0008861472792
0.0008861473491
0.0008861473673
0.0008861473867
0.0008861475168
0.0008861475775
0.0008861475951
0.0008861475829
0.000886147537
0.0008861474728
0.0008861474131
0.0008861473696
0.0008861473415
0.0008861473266
0.0008861473202
0.0008861473267
0.000886147369
0.0008861475051
0.0008861475374
0.0008861474345
0.0008861473729
0.0008861473744
0.0008861474154
0.0008861475707
0.0008861478855
0.0008861476834
0.0008861476631
0.0008861475698
0.0008861473993
0.0008861472101
0.0008861472924
0.0008861473167
0.0008861473361
0.0008861474021
0.0008861474435
0.0008861474641
0.000886147449
0.0008861474204
0.0008861473953
0.0008861473708
0.00088614735
0.0008861473349
0.0008861473291
0.0008861473316
0.0008861473484
0.0008861473913
0.0008861474426
0.0008861474821
0.000886147462
0.0008861474455
0.0008861474433
0.0008861474501
0.0008861474508
0.0008861476034
0.0008861476225
0.0008861475025
0.0008861473226
0.0008861470416
0.0008861471487
0.0008861472484
0.0008861472832
0.0008861473063
0.0008861473753
0.0008861473719
0.0008861473698
0.0008861473715
0.0008861473682
0.0008861473667
0.000886147359
0.0008861473459
0.0008861473346
0.0008861473335
0.0008861473412
0.0008861473608
0.0008861473956
0.0008861474052
0.0008861474624
0.00088614745
0.0008861474413
0.000886147438
0.000886147007
0.0008861471876
0.00088614749
0.0008861475083
0.0008861475002
0.0008861474921
0.0008861474806
0.0008861474637
0.0008861474441
0.0008861474222
0.0008861473898
0.0008861473919
0.0008861473879
0.0008861473766
0.0008861473637
0.0008861473545
0.0008861473595
0.0008861473567
0.0008861473461
0.000886147336
0.0008861473374
0.0008861473476
0.0008861473665
0.0008861473925
0.0008861473881
0.0008861474546
0.0008861474336
0.0008861473696
0.0008861474216
0.0008861471007
0.0008861470054
0.0008861470914
0.0008861471321
0.0008861471983
0.0008861472814
0.0008861473425
0.0008861473816
0.0008861474075
0.0008861474099
0.0008861473953
0.000886147395
0.0008861473938
0.0008861473831
0.0008861473669
0.0008861473532
0.0008861473565
0.0008861473549
0.0008861473462
0.0008861473376
0.0008861473405
0.0008861473515
0.0008861473684
0.0008861473876
0.0008861473794
0.0008861474473
0.0008861474298
0.0008861474165
0.0008861474131
0.0008861474077
0.0008861474022
0.0008861474005
0.0008861473981
0.0008861473957
0.0008861473913
0.0008861473833
0.0008861473713
0.0008861473563
0.000886147363
0.0008861473713
0.0008861473882
0.0008861473923
0.0008861473845
0.0008861473661
0.0008861473505
0.0008861473525
0.0008861473514
0.0008861473443
0.000886147338
0.0008861473419
0.0008861473531
0.0008861473681
0.0008861473828
0.0008861473738
0.0008861474334
0.0008861474235
0.0008861474177
0.0008861474144
0.0008861474099
0.0008861474083
0.0008861474079
0.0008861474055
0.0008861474009
0.0008861473935
0.0008861473756
0.0008861473893
0.0008861473952
0.0008861473955
0.0008861473897
0.0008861474043
0.0008861474057
0.0008861474045
0.0008861473991
0.0008861473884
0.0008861473765
0.0008861473667
0.0008861473561
0.0008861473454
0.0008861473438
0.0008861473531
0.0008861473666
0.0008861473783
0.000886147369
0.0008861474173
0.0008861474161
0.0008861474142
0.0008861474124
0.0008861474098
0.0008861474084
0.0008861474069
0.0008861474031
0.000886147397
0.0008861473872
0.0008861473646
0.000886147379
0.0008861473929
0.0008861473968
0.0008861473955
0.0008861474058
0.0008861474064
0.0008861474055
0.0008861474026
0.0008861473968
0.0008861473872
0.0008861473756
0.0008861473627
0.0008861473507
0.0008861473469
0.0008861473541
0.0008861473651
0.0008861473739
0.0008861473642
0.0008861474075
0.0008861474105
0.0008861474097
0.0008861474081
0.0008861474053
0.0008861474028
0.0008861473995
0.000886147394
0.0008861473849
0.0008861473676
0.0008861473276
0.0008861473293
0.0008861473681
0.0008861473804
0.0008861473877
0.0008861474053
0.0008861474059
0.0008861474049
0.0008861474022
0.0008861473966
0.000886147387
0.0008861473781
0.0008861473737
0.0008861473717
0.0008861473704
0.0008861473699
0.0008861473706
0.000886147372
0.0008861473602
0.000886147405
0.0008861474062
0.000886147404
0.0008861474003
0.0008861473953
0.0008861473896
0.000886147385
0.0008861473769
0.0008861473597
0.0008861473222
0.0008861472346
0.0008861471874
0.0008861473315
0.0008861473742
0.0008861473885
0.0008861473996
0.0008861474024
0.0008861474019
0.0008861473993
0.000886147394
0.0008861473863
0.0008861473813
0.0008861473799
0.0008861473789
0.0008861473771
0.0008861473749
0.0008861473725
0.0008861473704
0.0008861473579
0.0008861474042
0.0008861474007
0.0008861473945
0.0008861473861
0.0008861473758
0.0008861473647
0.0008861473589
0.0008861473448
0.0008861473041
0.0008861472227
0.0008861470816
0.0008861470589
0.0008861472799
0.0008861473431
0.0008861473658
0.0008861473978
0.0008861474003
0.0008861473998
0.0008861473974
0.0008861473929
0.0008861473873
0.0008861473833
0.0008861473809
0.0008861473789
0.0008861473767
0.0008861473741
0.0008861473709
0.0008861473677
0.0008861473568
0.0008861474008
0.00088614739
0.0008861473769
0.00088614736
0.0008861473404
0.0008861473268
0.0008861472709
0.0008861472605
0.0008861471823
0.0008861470739
0.0008861469983
0.0008861471087
0.0008861472487
0.0008861472947
0.0008861473155
0.0008861473854
0.0008861473957
0.0008861473971
0.0008861473955
0.0008861473919
0.0008861473874
0.0008861473827
0.0008861473779
0.0008861473744
0.0008861473725
0.0008861473704
0.0008861473672
0.0008861473634
0.0008861473572
0.0008861473915
0.0008861473703
0.0008861473463
0.0008861473138
0.000886147279
0.0008861472478
0.0008861463317
0.0008861470645
0.0008861470104
0.0008861470178
0.0008861470653
0.000886147176
0.0008861472599
0.0008861472837
0.0008861472742
0.0008861473408
0.000886147391
0.0008861473958
0.0008861473947
0.0008861473911
0.0008861473859
0.0008861473791
0.0008861473711
0.0008861473656
0.0008861473641
0.0008861473632
0.000886147361
0.0008861473571
0.000886147359
0.0008861473718
0.0008861473402
0.000886147325
0.0008861473163
0.0008861473168
0.0008861473282
0.0008861474017
0.0008861473929
0.0008861473829
0.0008861473718
0.0008861473589
0.0008861473464
0.0008861473362
0.0008861473213
0.0008861472944
0.0008861473267
0.000886147393
0.0008861473975
0.0008861473957
0.0008861473908
0.0008861473835
0.0008861473738
0.0008861473634
0.0008861473567
0.000886147356
0.0008861473573
0.0008861473564
0.0008861473542
0.0008861473616
0.0008861473455
0.0008861473247
0.0008861473382
0.0008861473541
0.0008861473627
0.0008861473731
0.000886147406
0.0008861474043
0.0008861474018
0.0008861473982
0.0008861473919
0.0008861473799
0.0008861473618
0.0008861473371
0.0008861473017
0.0008861473247
0.0008861473943
0.0008861473991
0.0008861473978
0.0008861473929
0.0008861473842
0.0008861473722
0.0008861473606
0.0008861473561
0.000886147363
0.0008861473615
0.0008861473624
0.0008861473643
0.0008861473664
0.0008861473234
0.0008861473267
0.0008861473619
0.0008861473887
0.0008861473774
0.0008861473848
0.0008861474072
0.0008861474058
0.0008861474009
0.0008861473992
0.0008861473945
0.0008861473827
0.0008861473629
0.0008861473331
0.0008861472954
0.0008861473261
0.0008861473944
0.0008861474002
0.0008861473999
0.0008861473968
0.00088614739
0.0008861473788
0.0008861473679
0.0008861473635
0.0008861473637
0.0008861473659
0.0008861473668
0.0008861473672
0.0008861473649
0.0008861473157
0.0008861473263
0.0008861473618
0.0008861473954
0.0008861473762
0.0008861473865
0.0008861474077
0.0008861474056
0.0008861474017
0.0008861473963
0.0008861473865
0.0008861473715
0.0008861473544
0.0008861473337
0.0008861473301
0.0008861473563
0.0008861473941
0.0008861474011
0.0008861474018
0.0008861474002
0.000886147396
0.0008861473881
0.0008861473772
0.0008861473639
0.0008861473639
0.0008861473671
0.0008861473685
0.0008861473686
0.0008861473637
0.000886147328
0.0008861473341
0.0008861473653
0.0008861473975
0.0008861473642
0.0008861473803
0.0008861474077
0.0008861474047
0.0008861474
0.0008861473918
0.000886147379
0.0008861473867
0.0008861473893
0.0008861473902
0.0008861473908
0.0008861473926
0.0008861473988
0.0008861474026
0.0008861474033
0.0008861474022
0.0008861473993
0.0008861473935
0.0008861473835
0.0008861473663
0.0008861473618
0.0008861473706
0.0008861473716
0.0008861473718
0.0008861473712
0.0008861473632
0.0008861473748
0.0008861473896
0.0008861474001
0.0008861473902
0.0008861473894
0.000886147402
0.0008861474036
0.0008861474028
0.0008861474002
0.0008861473981
0.0008861473957
0.0008861473946
0.0008861473944
0.000886147394
0.0008861473934
0.0008861473932
0.0008861473934
0.0008861473931
0.0008861473919
0.0008861473893
0.0008861473855
0.0008861473815
0.0008861473764
0.0008861473722
0.0008861473757
0.0008861473791
0.0008861473739
0.000886147372
0.0008861475481
0.0008861474416
0.0008861474162
0.0008861474607
0.0008861474156
0.000886147438
0.0008861474208
0.0008861474151
0.0008861474264
0.0008861474271
0.0008861474259
0.0008861474271
0.0008861474172
0.0008861474469
0.0008861474296
0.0008861474249
0.0008861474174
0.0008861474981
0.0008861474354
0.0008861474213
0.0008861474136
0.0008861474117
0.0008861474117
0.0008861474118
0.000886147528
0.0008861475234
0.0008861475114
0.0008861475046
0.0008861475312
0.0008861475308
0.0008861475016
0.0008861475592
0.0008861475912
0.0008861475011
0.0008861475882
0.0008861475806
0.0008861475592
0.0008861476444
0.0008861476581
0.0008861476746
0.0008861476441
0.0008861476286
0.0008861476952
0.0008861476185
0.0008861476049
0.0008861476787
0.0008861475916
0.0008861475683
0.0008861475563
0.0008861475178
0.000886147464
0.000886147535
0.0008861474328
0.0008861474315
0.0008861474954
0.0008861474906
0.0008861474813
0.0008861474295
0.0008861474259
0.000886147427
0.0008861474688
0.0008861474526
0.0008861474172
0.0008861474224
0.0008861474313
0.0008861474212
0.00088614742
0.000886147417
0.0008861474188
0.0008861474166
0.0008861474171
0.0008861474153
0.0008861474139
0.0008861474134
0.0008861474132
0.0008861474149
0.0008861474141
0.0008861474142
0.0008861474132
0.0008861474151
0.000886147414
0.0008861474136
0.0008861475049
0.0008861475095
0.0008861475007
0.0008861475427
0.0008861474724
0.0008861474753
0.0008861475493
0.0008861474772
0.0008861474749
0.0008861474991
0.0008861475012
0.0008861474981
0.000886147453
0.0008861474832
0.0008861474785
0.0008861474978
0.0008861475002
0.0008861474979
0.0008861474822
0.0008861474878
0.000886147484
0.0008861474983
0.0008861475297
0.0008861475213
0.0008861474845
0.0008861474991
0.0008861474839
0.0008861476395
0.0008861476672
0.000886147641
0.0008861474762
0.0008861476179
0.0008861475184
0.000886147692
0.0008861476726
0.0008861476799
0.0008861476041
0.0008861476877
0.000886147687
0.0008861476506
0.0008861476148
0.0008861476116
0.0008861476516
0.0008861475755
0.0008861475793
0.0008861475422
0.0008861475923
0.0008861474264
0.0008861474264
0.0008861474272
0.0008861474232
0.0008861474263
0.0008861474249
0.000886147421
0.0008861474238
0.000886147423
0.0008861474225
0.0008861475001
0.00088614748
0.0008861474757
0.0008861475399
0.0008861474874
0.0008861474987
0.0008861475186
0.0008861474844
0.0008861474832
0.0008861475884
0.000886147527
0.0008861475404
0.0008861475934
0.000886147552
0.0008861475665
0.0008861475858
0.0008861475758
0.0008861475677
0.0008861475485
0.0008861475596
0.0008861475273
0.0008861474475
0.0008861474666
0.0008861474379
0.0008861474275
0.0008861474264
0.0008861474252
0.0008861474247
0.0008861474264
0.0008861474267
0.0008861474486
0.0008861474362
0.0008861474305
0.0008861474567
0.0008861474291
0.000886147431
0.0008861474572
0.0008861474313
0.0008861474398
0.0008861475026
0.0008861474641
0.0008861474756
0.0008861475426
0.0008861474979
0.0008861475237
0.0008861475433
0.0008861475401
0.0008861475088
0.0008861474872
0.0008861474931
0.0008861474476
0.0008861474294
0.000886147428
0.0008861474228
0.0008861474331
0.0008861474255
0.0008861474453
0.0008861474259
0.0008861474297
0.0008861474266
0.0008861474264
0.0008861474197
0.0008861474159
0.0008861474156
0.0008861474278
0.0008861474155
0.0008861474199
0.000886147457
0.0008861474305
0.000886147444
0.0008861475047
0.0008861474654
0.0008861474752
0.0008861474637
0.0008861474609
0.0008861474271
0.0008861474265
0.0008861474224
0.000886147418
0.0008861474155
0.0008861475844
0.0008861474353
0.0008861474787
0.0008861474531
0.0008861474266
0.0008861474391
0.0008861474159
0.0008861474129
0.0008861474138
0.0008861474343
0.0008861474155
0.000886147419
0.0008861474353
0.0008861474185
0.0008861474176
0.0008861474159
0.0008861474156
0.0008861474139
0.0008861477434
0.0008861475548
0.0008861475593
0.0008861475397
0.0008861475864
0.0008861474231
0.0008861475563
0.0008861474202
0.0008861475471
0.0008861474184
0.00088614751
0.000886147518
0.0008861475173
0.0008861475464
0.0008861475026
0.0008861475041
0.0008861474806
0.0008861475012
0.0008861475002
0.0008861474856
0.000886147501
0.0008861475001
0.0008861474895
0.0008861476289
0.0008861476586
0.0008861474855
0.0008861476959
0.0008861476877
0.0008861476899
0.0008861476925
0.0008861476458
0.0008861476683
0.0008861476
0.0008861475922
0.0008861475176
0.0008861475701
0.0008861474725
0.000886147508
0.0008861474264
0.0008861474248
0.0008861474219
0.0008861475036
0.0008861475194
0.0008861475261
0.0008861475735
0.0008861475901
0.000886147595
0.0008861475755
0.0008861474897
0.0008861474289
0.0008861474549
0.0008861474294
0.0008861474273
0.0008861474275
0.0008861474257
0.0008861474265
0.0008861474251
0.0008861474561
0.00088614745
0.0008861474513
0.0008861474906
0.0008861475207
0.0008861475577
0.0008861475344
0.0008861474425
0.0008861474234
0.0008861474248
0.0008861474197
0.0008861474203
0.0008861474449
0.0008861474811
0.0008861475137
0.0008861474453
0.0008861474202
0.0008861474196
0.0008861474149
0.0008861474146
0.0008861474172
0.0008861474135
0.0008861474126
0.0008861474122
0.0008861474141
0.0008861474138
0.0008861474213
0.0008861474427
0.0008861474248
0.0008861474156
0.0008861474153
0.0008861474131
0.0008861474127
0.0008861474115
0.0008861474131
0.0008861474188
0.0008861474249
0.0008861474367
0.0008861474208
0.0008861474187
0.0008861474165
0.0008861474139
0.0008861474373
0.0008861474211
0.0008861474163
0.0008861474139
0.0008861474144
0.0008861474236
0.0008861474162
0.0008861474133
0.0008861474121
0.0008861474138
0.0008861474185
0.0008861474137
0.0008861474123
0.0008861474117
0.0008861476229
0.0008861474253
0.0008861475332
0.0008861476274
0.000886147429
0.0008861474255
0.0008861475673
0.0008861474215
0.0008861476707
0.0008861476884
0.0008861474237
0.0008861474221
0.0008861475499
0.0008861474192
0.0008861476966
0.0008861477008
0.0008861474208
0.0008861474198
0.0008861477029
0.0008861474191
0.0008861474719
0.0008861475372
0.0008861474255
0.0008861474283
0.0008861474172
0.000886147428
0.000886147431
0.0008861474572
0.0008861474281
0.0008861474158
0.0008861474273
0.0008861474542
0.0008861474407
0.0008861474296
0.0008861474225
0.0008861474183
0.0008861474276
0.0008861474268
0.0008861474151
0.0008861474221
0.0008861474252
0.0008861474197
0.0008861474268
0.0008861474257
0.0008861474166
0.0008861474173
0.0008861474147
0.0008861474135
0.0008861474256
0.0008861474256
0.000886147426
0.0008861474972
0.0008861474137
0.0008861474155
0.0008861474133
0.0008861474147
0.0008861474134
0.0008861474118
0.0008861474116
0.0008861474118
0.0008861474115
0.0008861474175
0.0008861474148
0.0008861474127
0.0008861474121
0.0008861474307
0.0008861474256
0.00088614772
0.0008861474565
0.0008861474738
0.0008861474407
0.0008861474258
0.0008861474267
0.0008861474213
0.0008861474122
0.0008861474131
0.0008861474119
0.0008861474117
0.0008861474118
0.0008861474116
0.0008861474116
0.0008861474115
0.0008861474115
0.0008861474116
0.0008861474115
0.0008861474117
0.0008861474122
0.0008861474121
0.0008861474115
0.0008861475666
0.0008861474297
0.0008861474503
0.0008861474257
0.0008861474253
0.0008861474212
0.0008861474182
0.0008861474184
0.0008861474165
0.0008861474152
0.000886147425
0.0008861474254
0.0008861474214
0.0008861474183
0.0008861474183
0.0008861474157
0.0008861474149
0.0008861474144
0.0008861474134
0.0008861474126
0.0008861474196
0.0008861474209
0.0008861474177
0.0008861474143
0.0008861474148
0.0008861474134
0.0008861474126
0.0008861474127
0.0008861474122
0.0008861474118
0.0008861474159
0.0008861474167
0.0008861474146
0.0008861474128
0.000886147413
0.0008861474125
0.000886147412
0.0008861474122
0.000886147412
0.0008861474117
0.0008861474118
)
;

boundaryField
{
    walls
    {
        type            zeroGradient;
    }
    wallFilmFace_top
    {
        type            zeroGradient;
    }
    region0_to_wallFilmRegion_wallFilmFace
    {
        type            zeroGradient;
    }
    mirrorFace_top
    {
        type            zeroGradient;
    }
    region0_to_wallFilmRegion_mirrorFace
    {
        type            zeroGradient;
    }
    procBoundary2to0
    {
        type            processor;
        value           nonuniform List<scalar> 
26
(
0.0008861474072
0.0008861474947
0.0008861474418
0.000886147529
0.0008861472603
0.0008861468956
0.0008861475203
0.0008861475726
0.0008861475622
0.0008861475618
0.0008861475305
0.0008861474358
0.0008861473945
0.0008861473918
0.0008861473945
0.0008861473908
0.0008861473872
0.0008861473846
0.0008861473823
0.00088614738
0.000886147377
0.0008861473722
0.0008861473647
0.0008861473552
0.0008861473543
0.0008861473846
)
;
    }
    procBoundary2to1
    {
        type            processor;
        value           nonuniform List<scalar> 
33
(
0.0008861472486
0.0008861472486
0.0008861474572
0.0008861474572
0.000886147292
0.0008861471722
0.0008861471655
0.0008861471655
0.0008861473753
0.0008861475026
0.0008861478374
0.0008861489064
0.0008861484031
0.0008861478257
0.0008861475004
0.0008861474634
0.0008861474571
0.0008861474504
0.000886147441
0.0008861473782
0.0008861472986
0.0008861473185
0.0008861473593
0.0008861473852
0.0008861473993
0.000886147407
0.0008861474109
0.000886147412
0.0008861474097
0.0008861474049
0.0008861473967
0.0008861473838
0.0008861473675
)
;
    }
    procBoundary2to3
    {
        type            processor;
        value           nonuniform List<scalar> 
64
(
0.0008861474455
0.0008861474562
0.0008861474448
0.0008861474244
0.0008861474137
0.000886147428
0.0008861474243
0.000886147419
0.0008861474118
0.0008861475529
0.0008861474551
0.0008861474722
0.0008861474543
0.0008861474551
0.000886147468
0.000886147476
0.0008861474787
0.0008861474791
0.0008861474767
0.0008861474742
0.0008861474946
0.0008861475889
0.0008861476437
0.0008861476812
0.0008861476812
0.0008861476627
0.0008861476383
0.0008861476383
0.0008861476067
0.0008861476383
0.0008861474203
0.0008861474224
0.0008861474203
0.0008861474254
0.0008861474273
0.0008861475469
0.0008861474178
0.0008861475529
0.0008861475061
0.0008861474203
0.0008861474118
0.0008861474172
0.0008861474155
0.0008861474131
0.0008861474117
0.0008861474116
0.0008861477042
0.0008861474186
0.0008861474379
0.00088614746
0.0008861474562
0.0008861474328
0.0008861474156
0.0008861474127
0.0008861474268
0.0008861474116
0.0008861474115
0.0008861474226
0.0008861474116
0.0008861474117
0.0008861474144
0.0008861474121
0.0008861474116
0.0008861474117
)
;
    }
}


// ************************************************************************* //
