/*--------------------------------*- C++ -*----------------------------------*\
  =========                 |
  \\      /  F ield         | OpenFOAM: The Open Source CFD Toolbox
   \\    /   O peration     | Website:  https://openfoam.org
    \\  /    A nd           | Version:  8
     \\/     M anipulation  |
\*---------------------------------------------------------------------------*/
FoamFile
{
    version     2.0;
    format      ascii;
    class       surfaceScalarField;
    location    "0.8/wallFilmRegion";
    object      phi;
}
// * * * * * * * * * * * * * * * * * * * * * * * * * * * * * * * * * * * * * //

dimensions      [1 0 -1 0 0 0 0];

internalField   nonuniform List<scalar> 
2598
(
4.342854739e-05
-6.339819291e-05
0.0003016878712
9.859664998e-05
-5.993030622e-05
-0.0003279793938
-1.621307276e-05
-7.223031269e-05
-4.344666016e-06
-1.843213821e-05
3.020303666e-06
-2.143606439e-05
0.000620339929
-0.00348174359
0.0003674391666
-0.0008582030262
0.0001734302786
-0.0001584936652
9.556167407e-05
-4.407386559e-05
6.32940577e-05
-3.04212016e-05
5.270929549e-05
-2.772400843e-05
0.0002265196258
-0.000210608733
0.0004389868356
-0.0003776079377
0.001384761285
-0.00291096514
0.001365160344
-0.002420839599
0.001040841743
-0.001215633995
0.0009225924096
-0.0005815863271
0.001038723335
-0.000410400492
0.001204763174
-0.0004089237418
0.001159799708
-0.0003529673641
0.0008793673043
-0.0001821898824
0.0005999388316
-6.316052661e-05
0.0003286806544
1.756089493e-05
0.0002499553357
5.533119205e-05
0.0072213722
-3.266721834e-06
2.155897352e-06
5.054209626e-05
-9.431626654e-06
0.0001390209281
5.832066806e-05
-5.49844811e-05
-0.0001608892116
-4.075200504e-05
-2.102941236e-05
-4.123340103e-05
-7.205745609e-05
3.468068118e-06
-0.0001984581701
0.0007484561899
-0.003445958564
0.0003318234514
-1.730794843e-06
0.0002411331745
-7.711522457e-07
0.000139799212
-4.256452966e-06
8.08113219e-05
-4.673191558e-06
5.450515658e-05
-7.517845154e-06
0.0002629555425
-0.0001477007449
0.0005126267182
-0.0002791473091
0.001954616364
-0.003280495669
0.001970455465
-0.002922039607
0.001351761296
-0.00160703813
0.0008768567905
-0.0006917553101
0.0007781942162
-0.0003336432057
0.0009855380516
-0.0003007997526
0.00112183683
-0.0002881328255
0.0009702892702
-6.757469424e-05
0.0007649187787
8.046715308e-05
0.0005114900222
0.0001634694436
0.0004091838141
0.0001849602704
0.008626274194
1.74516153e-05
1.082024517e-05
0.000156853454
0.0001671269045
0.0003429212912
0.0001896911106
-0.0002569055136
4.185938278e-05
-0.0005081516607
-4.39965559e-05
-0.0001843608667
-6.716923222e-05
-0.0002633329088
-0.0002502983147
-0.0001140308579
-0.000466716232
-1.103807704e-07
-0.002219673945
4.668335978e-08
-1.480354165e-07
1.780122243e-06
-5.931780392e-06
1.783536797e-05
-2.729468953e-05
1.717923922e-05
-6.7245781e-06
1.948279422e-05
-2.768535645e-06
0.0003026812397
-4.109894327e-05
0.0006316510884
-9.057147206e-05
0.002329157061
-0.002588134876
0.002532200537
-0.002367617212
0.001929448736
-0.001516766961
0.001260223089
-0.0007440120885
0.0008915112947
-0.0002945969028
0.001083059613
-0.000133460671
0.002002741828
-9.880981782e-05
0.003264528689
-0.000132009317
0.003977345522
-0.0001180923078
0.003861577959
0.0001454451055
0.003265931781
0.0005430620569
0.01241684938
-4.068264331e-05
2.212439695e-05
-0.0002694518396
-9.986878451e-07
-0.00136616561
0.0002015289278
-0.0007020835783
-3.008914317e-05
-0.000458969342
-6.368184853e-05
-0.000675223511
-0.0002051721642
-0.0006660364775
-0.0002870336534
-0.0002452619113
-0.0002631141
-2.044190523e-07
-0.0004128146109
-5.755669827e-06
4.519344733e-07
-9.895781846e-05
1.348737368e-05
-0.0001710928021
9.533979031e-05
-6.298183082e-05
3.874641863e-05
1.283496247e-06
1.535994839e-05
0.000670540647
0.0001839389246
0.001414814186
0.0003182080076
0.002513042693
-0.0005991450574
0.002826567963
-0.0007663864194
0.002525076327
-0.0005582935037
0.001949026372
-0.000254854483
0.001502881799
1.758966172e-05
0.001338206025
6.382451529e-05
0.001432529666
1.477983473e-05
0.001794604566
-4.191055644e-05
0.002484022937
-5.052439774e-05
0.003719352383
-0.0003019445612
0.004104516971
-7.33185033e-05
0.01522399744
-1.828292753e-06
0.0001116564513
-3.105837543e-05
1.946419253e-05
7.610525805e-05
0.0001352066769
9.837301998e-05
6.180351338e-05
-0.004184611259
-0.0001676206114
-0.005629062168
0.0001932008676
-0.002735022069
0.0009200439366
-0.0004425100258
0.0006272607441
0.001050921291
0.0009528293134
0.003162473208
0.001116000926
0.004410084619
0.0009610188686
0.004874390359
0.000737479614
0.004377318373
0.000647844704
0.0004636658893
0.0006880695564
-0.002655387957
0.001627106063
-0.0002172951706
0.0008000934479
0.002316750555
0.001298054167
0.003893705117
0.001443177387
0.004771870636
0.001294246131
0.005210422731
0.0008919481143
0.004630240949
0.0006156430887
0.003221386956
0.0003854763133
0.001670215145
0.0001822399016
0.0006606591638
6.484380071e-05
0.0003207973703
1.817704707e-05
0.0001439958869
-6.752972841e-06
-0.000288640277
7.039909678e-05
0.01166492376
1.38446671e-05
7.358959467e-05
9.915224641e-05
0.0002029674625
0.0001032762968
0.0001839211724
0.0001159795952
0.000260537909
9.020023603e-05
4.619176655e-05
-0.0001121702243
-6.718719563e-05
-0.00130014749
-1.441805965e-05
-0.001597664454
0.0003726184773
-0.0002273633299
0.0004342638336
0.001120558086
0.003138368796
0.002222402105
0.001899017845
0.001917803261
0.0007779924285
0.001405302913
0.0003090139119
0.0008678064654
0.0001447969009
0.0002206804751
9.563563058e-05
-0.0007422143127
0.0009428156412
9.173230087e-05
0.0007159449004
0.002094063892
0.002587606068
0.003030484539
0.002544155807
0.003126713916
0.002196302594
0.003791127923
0.001912784594
0.002411438567
0.0008969492106
0.0005610578824
0.0001546467367
0.0001178388257
2.294982379e-05
3.987409572e-05
6.318032494e-06
2.749199916e-05
2.933866451e-06
4.985938299e-06
6.749940482e-06
-0.0001783315901
6.794386835e-06
0.007140445929
-0.0003334535087
-5.314723974e-05
5.707953989e-05
8.61641841e-05
-9.810116513e-05
-9.096293235e-06
-2.96868832e-05
-1.444198983e-05
-8.839105921e-06
6.227382378e-06
4.552673165e-06
-1.104581654e-05
-1.984215922e-05
9.600609174e-06
-0.0001478288615
8.222611545e-05
0.000119927289
6.460959012e-05
0.000894074042
0.005612148054
0.0007546091586
0.001835918668
0.0002798354024
0.0001965228508
0.0001165502196
4.402891684e-05
7.727217983e-05
2.171312067e-05
6.44150984e-05
2.453137447e-05
0.0001597869572
0.0004773981341
0.0004215446338
0.0006301127575
0.001961789197
0.003320947459
0.002480931937
0.003024039692
0.002301291243
0.00226912069
0.002085138362
0.001490287628
0.001267624535
0.0006073923091
0.0005983337266
0.000201113754
0.0003182047631
8.070160531e-05
0.0002513813882
2.866488673e-05
0.000317465232
-1.503621823e-05
0.0004581241481
-6.627620703e-05
0.0005734969381
-9.871312569e-05
0.004730923651
-9.919973317e-05
-3.502646525e-07
-3.203172606e-05
-1.782913948e-08
-2.12758804e-05
-4.693175125e-09
-2.323892649e-05
-7.438722386e-10
-1.435227465e-05
3.12281269e-05
-1.941766845e-05
1.708362567e-05
-1.116981283e-05
2.461120623e-05
-4.838474696e-06
6.433425305e-05
5.118061897e-05
6.454451041e-05
0.0007637142602
0.006485432101
-1.431427333e-05
0.001814140363
7.667087288e-06
0.0001082321916
2.205140993e-05
2.085023133e-05
4.008135722e-05
2.538730775e-05
5.321382534e-05
2.867226136e-05
0.0002399444326
0.0003217186261
0.0004416787211
0.000548663483
0.001723231877
0.003248538401
0.001961272495
0.002834819342
0.001608988255
0.001804272264
0.001120129294
0.0008812010643
0.0006527113227
0.0003467945122
0.0003983910078
0.0001634751223
0.0002979851885
9.411658713e-05
0.0002965327071
4.372752003e-05
0.0003504922264
-8.992016848e-06
0.0004187882086
-5.421870428e-05
0.0005006563481
-8.020786279e-05
0.003919771015
-4.947131988e-07
3.454843934e-07
-4.973446179e-08
3.311584553e-08
-4.073250509e-09
3.999708986e-09
1.810117506e-08
3.607524217e-09
3.591560221e-05
5.421233591e-06
0.0001042138696
1.670469085e-05
0.0002795595619
6.182217889e-05
0.0004854285797
0.000195743226
0.0003911053522
0.0001514508586
0.0006566613186
0.005725269522
-1.458293752e-05
0.001191473373
-2.519771444e-06
0.000110918971
1.980773359e-05
3.563109569e-05
3.390742271e-05
3.982207788e-05
4.458537743e-05
3.553539339e-05
0.0002054044686
0.0002555007207
0.0003866024746
0.0004639358107
0.001335321265
0.002458603404
0.001383229669
0.002034090976
0.0009979840865
0.001091244873
0.0005905351687
0.0004508923806
0.0003591514225
0.0002077329155
0.0002713154716
0.0001365575882
0.0002469692163
9.838064646e-05
0.0002554783436
5.730734721e-05
0.0002793054727
1.017811764e-05
0.0002954119955
-2.672736314e-05
0.0003183560072
-4.328864564e-05
0.003729190115
-2.742462019e-05
9.248599231e-06
-1.898393225e-05
6.399654004e-06
-9.022134158e-06
5.649596449e-06
1.82243302e-06
3.580842953e-06
2.843369151e-05
4.368321808e-06
0.0001135146398
7.587956618e-06
0.000269236974
6.226844789e-05
0.0004713587946
0.0001854965798
0.00046071396
0.0002106716421
0.0005717486558
0.003480929829
3.19413349e-06
0.0005545956149
-1.061777747e-06
9.296193813e-05
1.936018801e-05
5.012795776e-05
3.018775777e-05
5.253909248e-05
4.01109056e-05
4.383226463e-05
0.0001630275727
0.0002006217954
0.000301520175
0.0003501073589
0.0008524139517
0.001373098087
0.0007935057411
0.001039322704
0.0005031511255
0.00049293896
0.0002975994565
0.000226402558
0.0002234787107
0.0001503711696
0.0002086200099
0.0001279790181
0.000210295863
0.0001053088145
0.0002144486754
7.215624056e-05
0.0002145435197
3.370289556e-05
0.000206468392
-2.167764134e-06
0.0002002376472
-1.274919162e-05
0.003735274358
-7.191988631e-05
2.959497978e-05
-7.9930153e-05
2.480065425e-05
-0.0001004686648
3.164279167e-05
-0.0001181104518
4.23364774e-05
-7.481814761e-05
4.711219649e-05
3.485347698e-05
3.70920248e-05
0.0001092855697
9.998486963e-05
0.0003146269725
0.0005556445565
0.0002506942834
0.0004716713425
0.0001379395259
0.001158343862
-1.266659209e-06
0.000170791667
7.627551937e-06
6.606740033e-05
2.047138864e-05
6.021991875e-05
3.006466329e-05
6.244722322e-05
3.928951148e-05
5.582645196e-05
0.0001144520364
0.0001478198906
0.0001970037371
0.0002293448309
0.0004127276109
0.0005564259894
0.000346980179
0.0003988384237
0.0002294428959
0.0002196809005
0.0001782560145
0.0001525922219
0.000174349863
0.0001390494216
0.0001855002881
0.0001340080569
0.0001965572244
0.0001184336311
0.0001971088971
9.008250811e-05
0.0001764009929
5.579228748e-05
0.000132991751
2.890638753e-05
0.0001028965934
1.3672743e-05
0.004049436123
-8.042607964e-05
7.246165012e-05
-8.706337998e-05
3.849275439e-05
-9.68235402e-05
4.493024553e-05
-9.211627883e-05
6.131037629e-05
-5.813914088e-05
6.903914283e-05
-2.595550794e-05
6.484869161e-05
3.143601957e-05
0.0001144800043
0.0002512094648
0.0009024562182
1.396556664e-05
0.0005829484655
-1.559743625e-05
0.0002062586653
-2.395213912e-06
5.347240693e-05
1.186346752e-05
4.639212388e-05
2.224531282e-05
6.288326409e-05
3.168282282e-05
6.943272897e-05
4.010318855e-05
6.943191067e-05
7.709548658e-05
0.0001149035364
0.0001164974029
0.0001538360482
0.0001741612011
0.0002246093975
0.0001597862496
0.0001867356035
0.0001447085249
0.0001564071242
0.0001513494913
0.0001559165997
0.0001679083328
0.0001635832916
0.0001848488697
0.0001621032536
0.0001969663929
0.0001443045896
0.0001970019256
0.0001150292687
0.0001819806662
8.580087686e-05
0.0001433590791
7.790630739e-05
0.0001312656941
6.242547192e-05
0.005829291292
-0.0001519499263
0.000225161948
-0.0001454001604
7.691414054e-05
-0.0001711693656
6.604365888e-05
-0.0001791275252
6.31516619e-05
-9.619976932e-05
2.980729446e-05
-5.65819957e-05
7.392015866e-05
-7.890383383e-06
0.0001311553642
0.0001178269031
0.0008985531188
-1.359463688e-05
0.0002346910236
-1.098516967e-05
3.122513556e-05
4.975954568e-07
1.870440329e-05
1.117254004e-05
3.402016323e-05
2.261796501e-05
5.936920939e-05
3.297406861e-05
7.312265928e-05
4.2675781e-05
8.09371165e-05
9.337731873e-05
4.5995373e-05
0.0001092135362
8.041217218e-05
0.0001175107983
0.0001366793458
0.0001224363326
0.0001529407837
0.0001379831112
0.0001729659304
0.0001699605951
0.0002210277183
0.0001892393524
0.0002391348312
0.0001926995722
0.000212908155
0.0001934295095
0.0001697086636
0.0001960123355
0.0001347891687
0.0002029593605
0.0001154167715
0.000171967807
0.0001512080733
0.0001892116058
0.0001588355433
0.009771331246
-0.0006303837073
0.0007150016675
-0.000476890527
0.0003278063205
-0.0004760460926
0.000189658897
-0.0006226788963
9.811688177e-06
-0.0004896229647
-6.757927268e-06
-0.0001341711676
-1.473408281e-05
-7.433221368e-05
0.0001170234375
0.0001564502929
0.000361273537
0.0004124321485
-0.0003290533591
-3.562855611e-06
-0.0001615039095
2.80079528e-06
5.214032804e-06
1.833733493e-05
2.080502948e-05
4.178298224e-05
4.287266592e-05
5.65455582e-05
6.590274423e-05
6.875841687e-05
8.192251363e-05
0.0005496688215
-0.0005792837812
0.0004838406403
-0.0006263679635
0.0002527603822
6.088459301e-05
0.0001773970419
0.0001456833429
0.0001702364811
0.0002163267316
0.0002288093971
0.0003687104649
0.0002299451975
0.0003746392871
0.0001942619344
0.0002655602643
0.0001759060102
0.0001783111724
0.0001837786647
0.0001429314355
0.0002141173009
0.0001388524609
0.0002012718263
0.0002262160568
0.0002495639178
0.0002940944597
0.01389216128
-0.001133454252
0.001035006226
-0.0007842534178
0.0003131396587
-0.0002268830159
4.129727321e-05
-7.91285935e-07
3.162001362e-05
5.184957443e-06
-5.491463211e-06
2.021994615e-05
-5.873843895e-06
0.0003746979151
-2.954998219e-06
0.00072357603
-4.854958e-06
0.0006587083245
-1.178908002e-05
0.001295841214
-2.19006988e-05
0.001728116629
-5.064336732e-05
0.001768951962
-0.0001232271083
0.001295190789
-0.000301123822
0.0006185745511
-0.000171639371
0.0003018134792
0.0001152453135
0.0006820192426
-0.0004665845817
0.001032785898
-0.0006400926405
0.0008035809895
-0.0003987589147
0.0004142040679
7.094189465e-05
0.0002556804438
0.0002773933354
0.0003132161207
0.0005507560683
0.0002733875471
0.00051792653
0.0001912059266
0.0003023701851
0.0001575482553
0.0001797287811
0.0001705539732
0.0001495772318
0.0002174709324
0.0001600902749
0.000244198002
0.0002803507143
0.0003402738732
0.0004182871197
0.01613779773
-0.0002756311506
0.0006399781174
-4.616611955e-05
0.0001322893709
-4.9453172e-05
3.313864242e-05
5.915954295e-06
6.939486462e-05
5.911980126e-06
8.185694461e-07
5.901977618e-06
-3.96558829e-07
1.442465833e-05
1.573826652e-06
2.324650442e-05
2.046217383e-06
3.702673586e-05
1.448880615e-06
7.136791905e-05
1.236942859e-06
0.0001378776382
-1.801723513e-05
0.0002355467157
-5.316784308e-05
0.0004032849704
-6.960858438e-05
0.0004666941297
-5.093906957e-05
0.0003939047565
2.862691979e-05
0.0004321160174
-0.0001805699337
0.0005270074752
-0.0002751800804
0.0005582858203
-0.0002104700916
0.0004562392823
-5.502608888e-06
0.0003189712993
0.0003068282145
0.0003719166025
0.0006372835208
0.0003026817226
0.0005843044116
0.0001952087901
0.0003260926884
0.0001534074748
0.0001918028484
0.0001680634103
0.0001656795126
0.0002229258079
0.0001858703507
0.0002889294753
0.0003164950943
0.0004398142081
0.0004988021527
0.01592431033
6.001866859e-05
0.0003378407983
0.0001394333427
0.0001655423793
0.000143698041
0.0001173987566
0.0001942642285
0.0001207878021
0.0002003999817
9.78964806e-05
0.0002189053538
9.062360976e-05
0.0002505064411
9.023221513e-05
0.0002957854322
9.320052022e-05
0.0003568931123
9.72335574e-05
0.0004311560808
9.386830827e-05
0.0004756531804
5.092240337e-05
0.0003243567719
8.505093739e-05
0.0001516959934
4.239129386e-05
9.613922873e-05
3.361342847e-05
0.0001422218517
7.958890145e-05
0.0002083062713
3.066932244e-05
0.0002499859049
1.009916743e-05
0.0002601054052
3.038827218e-05
0.0002752252723
0.0001283286594
0.0003047752888
0.0003105709545
0.0003863412596
0.0006038998032
0.0003216375314
0.0005662552188
0.0002128747372
0.0003438370509
0.0001668201179
0.0002183812083
0.0001796254801
0.0001941661192
0.000237091991
0.0002204008744
0.0003303077282
0.0003493243251
0.0005202531507
0.0005464603826
0.01405155771
0.0001220187783
0.000235513483
0.0001802581392
0.0002006299737
0.0002311035441
0.0001867069054
0.0003025379763
0.0001937559388
0.0003702063637
0.0001990123956
0.0004441359873
0.0002064916861
0.0005205164117
0.0002121939678
0.000589324585
0.0002123495679
0.000623648301
0.0002004773187
0.0005466033302
0.0001701855033
4.406734622e-05
0.0001364354398
-0.0003129806843
0.0003666856416
-0.0002406642059
0.0002196029272
-0.0001303633574
0.0001932410887
3.136581776e-05
0.0001473717082
0.0003660501606
0.0003828639848
0.0006636704037
0.0005810484046
0.0008477740177
0.0006194803308
0.0009692784259
0.0006237051618
0.001024140717
0.0006963385907
0.001025503186
0.000848031472
0.0008133466433
0.0007951512289
0.0004899541653
0.000550917092
0.000283757913
0.0003395421174
0.0002285562167
0.0002591684895
0.0002671259357
0.0002716816286
0.0003714556671
0.0003938787972
0.0005775619259
0.0005922598012
0.01182944236
0.0001043841209
0.0002173655462
0.0001838638086
0.0002395273183
0.0002648015489
0.0002505881841
0.0003570432033
0.0002642006707
0.000455497673
0.0002789558023
0.0005524728406
0.0002919030799
0.0006233875903
0.0002929865538
0.0006340883237
0.0002743670544
0.0005475166384
0.0002362709405
0.0003485361088
0.0001825313137
4.382525775e-05
0.0001318949679
-0.0004623402924
0.0003277364157
-0.000390280978
0.0004062788123
-0.0001986651807
0.0003090133928
1.228239337e-05
0.0001903769337
0.0005527738573
0.0007161105732
0.001035579535
0.001122792645
0.001293850569
0.001168964832
0.001416038128
0.001090472416
0.001486371191
0.001051111343
0.001520134816
0.001078422496
0.001331970091
0.0009995136192
0.0009088309343
0.0007446621403
0.0005387684715
0.0004924431539
0.0003874973474
0.0003721947595
0.0003999574402
0.000376815622
0.0005206364064
0.0005081044798
0.0007475446096
0.00071362275
0.0104068388
0.0001006151035
0.0002637888797
0.0001882526997
0.0003038007078
0.0002762234624
0.0003180084925
0.0003658975588
0.0003242259851
0.0004545749803
0.0003300574525
0.0005253682553
0.0003315864082
0.0005343235511
0.0003110729241
0.0004530510336
0.0002690701298
0.0003028346061
0.0002181689389
0.0001571337949
0.0001492776088
5.957414831e-05
7.794285577e-05
4.537012764e-06
9.882024185e-05
-0.0003074724433
0.0002340717644
-0.0001904121059
0.0001980581936
8.242617259e-05
0.000124273034
0.0008443720031
0.001009448206
0.001434691722
0.001651995876
0.001727690099
0.001715529914
0.001830697172
0.001552181983
0.001867275214
0.001433361062
0.001960590335
0.001446300592
0.002081323861
0.001456675494
0.001975916585
0.001333760214
0.001677261258
0.001162055562
0.001388576485
0.001036162187
0.001240757267
0.0009909961815
0.001259661184
0.001081322921
0.001406076543
0.001168906082
0.01020155158
0.0001093284965
0.0003729338216
0.0001964234237
0.00039624296
0.000275225293
0.0003891443133
0.000341684681
0.0003706524464
0.0003884616505
0.0003509785672
0.0003951822631
0.0003316673306
0.0003142351781
0.0002769134683
0.0001995012737
0.0002154474942
0.0001137074432
0.0001520148244
6.289793366e-05
8.890103252e-05
3.390099336e-05
3.985954502e-05
3.146955513e-05
2.612047927e-05
0.0001600741678
1.852857792e-05
0.0006680294486
-3.522798875e-05
0.001627875731
-0.0001016456178
0.002572278713
0.001832570828
0.003194702029
0.002930543823
0.00336054243
0.002908512786
0.003137254446
0.002442008263
0.002754325416
0.00201634898
0.002508427309
0.001754120302
0.002538351928
0.001554611086
0.002690316969
0.001406406713
0.002708074702
0.001421011654
0.002563274115
0.001527571511
0.00241272034
0.001623227934
0.002343202435
0.001739907214
0.002301545814
0.001614450515
0.01002554604
0.0001236732257
0.0005500844985
0.0002000926351
0.0005053756302
0.0002523660628
0.0004479231224
0.0002723251201
0.0003848677493
0.0002508810978
0.000331714519
0.0001614374429
0.0002931520949
9.501162159e-05
0.0001374339393
6.00486657e-05
0.0001204330886
4.309136953e-05
8.180187651e-05
2.84412079e-05
4.666443334e-05
1.775994327e-05
2.366800869e-05
2.089618709e-05
1.697346726e-05
6.790012727e-05
1.355178256e-05
0.0001561865041
-1.214591056e-05
0.0002715615136
-3.668566069e-05
0.002205411388
0.0009373350553
0.003545431961
0.002201055217
0.003820442254
0.002383007785
0.003388610096
0.002071122944
0.002755147385
0.001718066134
0.002217134493
0.001362796817
0.001824784128
0.0009915813599
0.001674028511
0.0007776513048
0.001806670845
0.0008104772273
0.002050328182
0.001035725016
0.002232447883
0.001291230063
0.002302394179
0.001486050047
0.002219101314
0.001299104898
0.009090029968
0.0001232860644
0.0007653317862
0.0001743311157
0.0005833192391
0.000178680108
0.0004546777789
0.0001345650615
0.0003427083196
5.393439845e-05
0.0002591185034
2.847844031e-05
0.0001632371843
3.285924429e-05
8.738870081e-07
2.521935175e-05
6.102276987e-05
2.032673658e-05
4.280804066e-05
1.618426277e-05
2.896418654e-05
1.469486015e-05
2.186570344e-05
2.401241345e-05
2.469400777e-05
4.645791441e-05
2.78508353e-05
6.42813556e-05
1.469495282e-05
8.213367397e-05
-6.92861852e-06
0.0005727577476
0.0001127332406
0.001369353778
0.0006619022835
0.001768548625
0.0009862211252
0.00179355106
0.001090687357
0.001616406254
0.001060770976
0.00128994279
0.0008425614866
0.000936092851
0.0005724730582
0.0007477921135
0.0004068221783
0.0007973871143
0.0003923891074
0.001015162789
0.000504019561
0.001246375633
0.0006757849296
0.001355090475
0.0008040899138
0.001321233926
0.0006967481539
0.008355816388
9.316500365e-05
0.0009014457592
9.502499423e-05
0.0005779000125
4.361979398e-05
0.0003825750878
-1.017782033e-05
0.0002412140195
-2.068978961e-05
0.0001480933336
-1.110709073e-07
7.241026461e-05
1.765065377e-06
1.777467696e-06
1.098998759e-05
2.734714926e-05
1.215036297e-05
2.707791157e-05
1.426582575e-05
2.788011726e-05
1.850848036e-05
3.088242108e-05
3.095978888e-05
4.182334507e-05
4.99504928e-05
5.262062007e-05
5.775612488e-05
4.205704007e-05
5.00567981e-05
1.838247747e-05
0.0001169290702
3.941778389e-05
0.0005606707989
0.0004108825113
0.0008902584532
0.0007750479486
0.0009670511336
0.0008889221268
0.0008720391435
0.0008098243322
0.0006754796805
0.0005899079143
0.0004855685272
0.0003940950984
0.000376604432
0.0002757401182
0.0003788844718
0.0002486498337
0.0004670246949
0.0002835021299
0.0006717874569
0.0001742365264
0.0007160006985
0.0003451132033
0.0006886139775
0.0003723183265
0.006815664489
-3.161643352e-05
0.0009382807083
-8.228539475e-05
0.0005321269112
-9.796218995e-05
0.0003384486189
-8.49429701e-05
0.0002289845353
-5.270863336e-05
0.0001751668064
-9.186527356e-07
0.0001289041911
0.0001915482641
0.0005202884823
0.0002477093517
0.000525817988
0.0002390676935
0.0003830812023
0.0002193074857
0.0002837632737
0.0002014741538
0.0002325279375
0.0001859903951
0.0002102129946
0.0001590684756
0.0001840297119
0.0001118249533
0.000115165063
6.851313511e-05
5.519073415e-05
9.324134733e-05
6.512496054e-05
0.0005579815129
0.0006458901228
0.0008654770783
0.001226791601
0.0007705958911
0.001147888379
0.000568592261
0.000799109807
0.000408674518
0.0005012204337
0.0003006093437
0.0003230215646
0.0002476824573
0.0002337265838
0.0002554387527
0.000190351885
0.0003407916663
9.102879997e-05
0.0006086727522
-0.001669457084
0.000658080441
7.050591238e-05
0.000697095668
0.0001885295182
0.002591060811
-0.0001694821506
0.0008397561267
-0.0002948410406
0.0004783525722
-0.000349414129
0.0002794955366
-0.0001710712951
8.288905196e-05
-0.0001071588992
0.0003012805419
1.622821937e-06
0.0002693486798
0.0004778339267
0.001313912698
0.000752905244
0.001490954095
0.001261587653
0.001121206448
0.001156394659
0.001077145989
0.0008103687241
0.0008634685933
0.0005176092705
0.0006092875498
0.000298297929
0.0003852383078
0.0001492032364
0.0001840263663
8.05020744e-05
8.421777267e-05
9.844059972e-05
9.441050649e-05
0.0006590920722
0.0008838987076
0.001078480522
0.001827308078
0.0008799593044
0.00168436486
0.0005387952356
0.001026357787
0.0003341693419
0.0005604097475
0.000242916616
0.0003338424264
0.00021088076
0.0002453197323
0.0001459146516
0.000126613973
-0.007332590781
-0.006417957142
-0.005049793382
-0.004181212363
-0.003016623957
-0.005060268329
-0.002775761814
-0.002712514163
-0.01034796955
-0.0002506262313
0.0007181833503
-0.0005177493347
0.0004297425042
-0.0009952062469
-7.413015416e-05
-0.0001335427519
-0.003660839883
-0.0001419511015
0.000492945401
1.42485105e-06
0.0003838062007
0.0006388143162
0.001924313105
0.001117377199
0.003150681473
0.004721093539
0.002099907811
0.002415008867
0.001957595996
0.001109789966
0.001276565416
0.0005647240516
0.0007181239457
0.0002642101561
0.0003593252529
0.000119144432
0.0001766987355
7.319853746e-05
9.28203433e-05
0.000103135373
0.0001242564541
0.0007031115391
0.0009882961118
0.001337111821
0.002245675515
0.00125598498
0.002324791149
0.0007904520248
0.001590722743
0.0004408265957
0.000877214849
0.0002672584989
0.0004773518723
4.435560244e-05
0.0004727831979
-0.01422306358
-0.0004751374088
-0.0106088672
-0.003085939913
-0.0109541383
-0.004587523713
-0.008684435676
-0.008638838171
-0.001085875581
-0.009742234162
-0.0008948280023
-0.0002620448138
0.0006977189338
-0.0003467238095
0.000287651645
-0.0003488125434
-0.0002395368263
-0.0001539827591
-0.003246381668
-0.0001639929183
0.0005593634319
1.389600151e-06
0.0003889883756
0.0006542275448
0.00221314167
0.001400306713
0.003514646959
0.0009743224405
0.001074597684
0.0006817008198
0.001210937795
0.0005920475728
-9.078215589e-05
0.0003901280911
-6.685896172e-05
0.0002785485297
-0.000212070106
0.0002053275391
1.134194989e-05
0.000215827159
3.892245362e-05
0.0003348915637
5.49903211e-05
0.00106555769
0.0007409482426
0.001906593104
0.002300521592
0.001998590326
0.002892971888
0.001448924963
0.002364402055
0.0008474730528
0.00146726019
0.000485098053
0.0008001392071
0.0001072920565
0.0007859335941
-0.009519767532
0.001989505989
-0.00660253013
-6.424974389e-05
-0.00863930879
-0.001641272867
-0.01052677801
-0.006571555971
-0.006314726936
-0.01255262747
0.001860478412
-0.0002790370884
0.001113525926
-0.0002190552567
0.0003763497246
-0.0001937596067
6.765711265e-05
-0.0001384156451
-0.000406564726
-0.0001571543824
0.0004387642761
1.151516681e-06
0.0003322696996
0.0006580711229
0.002403981317
0.001166680761
0.002601636729
0.0002586688072
0.0008452260408
0.0001070004032
0.0012625296
7.751002658e-05
-7.990489498e-06
0.0001156643311
-1.537653248e-05
0.0004762780188
-0.0005942608981
0.0007792250344
-0.0007372340291
0.001006152798
-0.0007769922114
0.001037990863
-0.0007230184149
0.001567369473
0.0008668800523
0.002540415386
0.002517932589
0.002844857469
0.003467010899
0.002264574775
0.003167683887
0.001387393813
0.002185473094
0.0007592541927
0.001249205254
0.0002767173791
0.001027582869
-0.0004777253987
0.001785022412
-0.0008349832022
0.001528421196
-0.003613394683
0.0003089985802
-0.01180984163
0.0002985069334
-0.02014717902
-0.004383528188
-0.007539643866
-0.01391441027
-0.01348730009
-0.00585133973
0.007542437637
0.01342946459
-0.0002972812986
0.001133903212
0.002663569425
0.005353313219
0.01283465537
0.02129512859
0.02569705608
0.02457004643
0.02343213344
0.02411999002
0.02571133626
0.02736387726
0.02782794244
0.02517661315
0.01974840501
0.0141116735
0.01030816752
0.008381320486
0.008061240558
0.007764448446
0.003380759172
-0.008335251236
0.007676499259
0.004740951882
0.01013637113
-0.000488051147
-0.01114860245
0.0001764050723
0.0001108480327
-8.144968558e-05
0.0001379556571
0.01109875493
-0.0002181414619
-0.01010317836
7.868447242e-05
6.993675573e-05
-8.999756928e-05
-0.002006948198
0.008942088429
-0.006345237301
-0.0001567184812
0.0001406324789
0.0001253818743
-0.0002169417411
-0.000249842509
0.0004421555989
0.0003614087626
-0.0007065377652
-0.0005184580838
0.00110299565
0.0006373498139
-0.001381090539
-0.0008386332868
0.004440151741
-1.896036005e-05
-0.003663583149
1.448252759e-05
2.152558684e-05
-9.248525639e-05
0.0001667732338
-7.867934663e-05
0.0001547363956
0.0004554518493
-0.0002561419823
0.0006895196823
-0.0002429961289
-0.000436918034
-0.000818400021
0.0001601466105
0.001653572662
-0.0006365038274
-4.71044125e-06
3.033433392e-05
1.748065043e-05
-1.43015086e-05
-6.486647592e-07
-4.832710761e-05
9.682593792e-05
-4.493833725e-05
8.664706831e-05
-0.0001696582812
0.0001696320647
-0.0001170776434
1.749666572e-05
0.0003560956697
-0.0002238461345
-7.898007325e-07
9.976541441e-06
-2.466543866e-07
4.690472766e-06
-1.307780033e-05
5.213154545e-05
-1.660237291e-05
5.080253359e-05
-0.0001091364615
-0.0004940713589
0.0002230292063
-0.0001270344719
0.0008480499486
0.0005430980506
-0.002030163331
0.001991576714
-0.0009215855173
0.001889244146
-0.001881715647
0.000413664397
5.231986417e-06
0.001914707229
0.000518392411
7.802330346e-06
-0.001939336349
0.000724295634
0.001946609802
1.0910559e-05
-0.002288300445
0.00243070756
-0.001627389632
0.001094910354
-0.002164312754
0.01394230648
-0.01341507646
-0.001310931739
-0.000183316934
-0.004655953489
-2.430020892e-05
0.0006865404321
-0.0002703413476
0.001156419178
-2.477851151e-05
0.0001143852905
-0.0002866385054
-3.252771195e-06
-4.63413667e-05
-3.570080918e-06
0.001015051831
-0.00160849974
0.001846238469
-9.853761114e-07
6.627644917e-06
-9.173391146e-06
-5.13151604e-07
-4.451353799e-06
-2.014898129e-06
0.0008598624191
-0.001971844261
0.002044466523
-1.236585588e-07
2.415365705e-06
-3.456986256e-06
2.293090138e-07
-3.236855283e-06
-1.517805083e-06
0.002468588493
-0.001739746942
0.0001152924951
4.88968766e-07
1.519251827e-06
-2.274930442e-06
8.914358842e-07
-2.316192807e-06
-4.192321287e-06
-0.0008477226181
0.002219507906
-0.001454707663
1.558494695e-06
2.33339656e-06
-3.344720612e-06
2.194890771e-06
-5.004888943e-06
-8.203576545e-06
0.0005560078001
0.001356289627
-0.0009221002622
3.105868692e-06
5.742361072e-06
-6.581757443e-06
4.329952804e-06
-9.188003576e-06
-1.409264096e-05
0.0001940608468
0.0004363855432
-0.0003309897004
5.973763085e-06
1.071919295e-05
-1.193003483e-05
8.888858377e-06
-1.655756774e-05
-8.732282063e-05
0.0006739823359
0.001191260999
-0.001356514173
1.992075727e-05
2.33228298e-05
-3.558754792e-05
0.0001047394443
-0.000197762742
-0.008412202067
-0.0002992384688
0.021148026
0.001326209633
0.001637232768
-0.003147691418
-0.007588757658