/*--------------------------------*- C++ -*----------------------------------*\
  =========                 |
  \\      /  F ield         | OpenFOAM: The Open Source CFD Toolbox
   \\    /   O peration     | Website:  https://openfoam.org
    \\  /    A nd           | Version:  8
     \\/     M anipulation  |
\*---------------------------------------------------------------------------*/
FoamFile
{
    version     2.0;
    format      ascii;
    class       volScalarField;
    location    "0.8/wallFilmRegion";
    object      sigma;
}
// * * * * * * * * * * * * * * * * * * * * * * * * * * * * * * * * * * * * * //

dimensions      [1 0 -2 0 0 0 0];

internalField   nonuniform List<scalar> 
1342
(
0.07244713452
0.07244713538
0.07244713501
0.07244713939
0.07244713349
0.07244713211
0.07244713545
0.07244713762
0.07244713825
0.07244713806
0.07244713733
0.07244713597
0.07244713476
0.07244713468
0.07244713474
0.0724471347
0.07244713462
0.07244713454
0.0724471345
0.07244713448
0.07244713447
0.07244713444
0.07244713439
0.07244713432
0.07244713427
0.07244713453
0.07244713276
0.0724471348
0.07244713537
0.07244713485
0.07244713427
0.07244713453
0.07244713492
0.07244713501
0.07244713784
0.07244713939
0.07244713914
0.0724471382
0.07244713644
0.07244713477
0.07244713471
0.07244713478
0.07244713476
0.07244713471
0.0724471346
0.07244713449
0.07244713444
0.07244713444
0.07244713443
0.07244713441
0.07244713438
0.07244713435
0.07244713449
0.07244713485
0.07244713587
0.07244713511
0.07244713494
0.07244713483
0.07244713474
0.07244713517
0.07244713508
0.07244713481
0.07244710159
0.07244711707
0.0724471315
0.07244713057
0.07244713065
0.07244713456
0.0724471347
0.07244713479
0.07244713479
0.07244713476
0.0724471347
0.07244713458
0.07244713447
0.07244713444
0.07244713444
0.07244713443
0.07244713442
0.07244713442
0.07244713444
0.07244713365
0.07244713534
0.0724471349
0.0724471349
0.07244713499
0.07244713538
0.07244713533
0.07244713501
0.0724471348
0.07244710993
0.07244713349
0.07244713449
0.07244713451
0.07244713427
0.07244713477
0.07244713479
0.07244713481
0.07244713481
0.07244713479
0.07244713476
0.07244713472
0.07244713464
0.07244713453
0.07244713445
0.07244713442
0.07244713441
0.0724471344
0.07244713436
0.07244713447
0.07244713347
0.07244713483
0.07244713495
0.07244713516
0.07244713561
0.07244713555
0.07244713508
0.07244713481
0.07244713481
0.0724471348
0.07244713479
0.07244713477
0.07244713474
0.0724471348
0.07244713481
0.07244713482
0.07244713482
0.07244713481
0.07244713479
0.07244713476
0.0724471347
0.07244713458
0.07244713436
0.07244713412
0.0724471342
0.07244713415
0.0724471343
0.07244713457
0.07244713461
0.0724471348
0.07244713487
0.07244713475
0.07244713507
0.07244713575
0.07244713676
0.07244713708
0.07244713518
0.07244713689
0.07244713671
0.07244713624
0.07244713582
0.07244713645
0.07244713531
0.07244713504
0.07244713486
0.0724471349
0.07244713519
0.07244713667
0.07244713703
0.07244713656
0.07244713531
0.07244713313
0.07244713117
0.07244713086
0.07244713386
0.07244713427
0.07244713648
0.07244713577
0.07244713556
0.07244713443
0.07244713424
0.07244713465
0.07244713461
0.07244713575
0.07244713725
0.0724471355
0.07244713814
0.07244713659
0.07244713661
0.07244713853
0.07244714175
0.07244713629
0.07244713574
0.07244713503
0.07244713513
0.07244713581
0.07244713754
0.07244713813
0.07244713757
0.07244713627
0.07244713496
0.07244713426
0.07244713405
0.07244713403
0.07244713427
0.0724471411
0.07244713891
0.07244713641
0.07244713375
0.07244713397
0.07244713399
0.07244713436
0.07244713485
0.0724471362
0.07244713572
0.07244713751
0.07244713484
0.07244713799
0.07244713936
0.07244714079
0.07244713706
0.07244713653
0.07244713535
0.0724471356
0.07244713665
0.0724471383
0.07244713865
0.07244713745
0.07244713588
0.0724471348
0.07244713435
0.07244713422
0.07244713422
0.07244713429
0.07244714092
0.07244706336
0.07244678359
0.07244663906
0.07244713783
0.07244714453
0.07244714655
0.07244714538
0.07244714316
0.07244713625
0.07244713727
0.07244713461
0.07244713682
0.07244713763
0.07244713867
0.07244713741
0.07244713722
0.07244713589
0.07244713631
0.07244713755
0.07244713878
0.07244713836
0.07244713673
0.07244713534
0.07244713456
0.07244713425
0.07244713418
0.07244713428
0.07244713432
0.07244713981
0.07244713587
0.07244713452
0.07244713377
0.07244714236
0.07244714722
0.07244714886
0.0724471489
0.07244714897
0.07244713845
0.07244713826
0.07244713438
0.07244713575
0.0724471362
0.07244713684
0.07244713746
0.07244713764
0.0724471366
0.07244713712
0.07244713812
0.07244713839
0.07244713718
0.07244713574
0.07244713478
0.07244713428
0.07244713407
0.07244713406
0.07244713432
0.07244713436
0.07244713871
0.07244713593
0.07244713521
0.07244713543
0.07244713624
0.0724471374
0.07244714566
0.07244714086
0.07244714093
0.07244713983
0.07244713809
0.07244713401
0.07244713488
0.07244713513
0.07244713547
0.072447137
0.0724471375
0.07244713714
0.07244713748
0.07244713766
0.07244713694
0.07244713581
0.07244713492
0.07244713435
0.07244713404
0.07244713386
0.07244713377
0.07244713418
0.07244713564
0.07244713779
0.07244713561
0.07244713481
0.07244713489
0.07244713562
0.07244713763
0.07244714313
0.07244713849
0.07244713865
0.07244713991
0.07244713686
0.07244713346
0.07244713419
0.07244713438
0.07244713458
0.07244713593
0.07244713656
0.07244713674
0.07244713662
0.07244713614
0.07244713547
0.07244713485
0.0724471344
0.07244713411
0.07244713395
0.07244713389
0.07244713395
0.07244713439
0.07244713581
0.07244713614
0.07244713507
0.07244713443
0.07244713445
0.07244713488
0.07244713649
0.07244713976
0.07244713766
0.07244713745
0.07244713648
0.07244713471
0.07244713274
0.0724471336
0.07244713385
0.07244713405
0.07244713474
0.07244713517
0.07244713538
0.07244713522
0.07244713493
0.07244713467
0.07244713441
0.0724471342
0.07244713404
0.07244713398
0.07244713401
0.07244713418
0.07244713463
0.07244713516
0.07244713557
0.07244713536
0.07244713519
0.07244713517
0.07244713524
0.07244713524
0.07244713683
0.07244713703
0.07244713578
0.07244713391
0.07244713099
0.07244713211
0.07244713314
0.0724471335
0.07244713374
0.07244713446
0.07244713442
0.0724471344
0.07244713442
0.07244713439
0.07244713437
0.07244713429
0.07244713415
0.07244713404
0.07244713403
0.07244713411
0.07244713431
0.07244713467
0.07244713477
0.07244713536
0.07244713524
0.07244713515
0.07244713511
0.07244713064
0.07244713251
0.07244713565
0.07244713584
0.07244713576
0.07244713567
0.07244713555
0.07244713538
0.07244713517
0.07244713495
0.07244713461
0.07244713463
0.07244713459
0.07244713447
0.07244713434
0.07244713424
0.0724471343
0.07244713427
0.07244713416
0.07244713405
0.07244713407
0.07244713417
0.07244713437
0.07244713464
0.07244713459
0.07244713528
0.07244713507
0.0724471344
0.07244713494
0.07244713161
0.07244713062
0.07244713151
0.07244713193
0.07244713262
0.07244713348
0.07244713412
0.07244713453
0.07244713479
0.07244713482
0.07244713467
0.07244713466
0.07244713465
0.07244713454
0.07244713437
0.07244713423
0.07244713426
0.07244713425
0.07244713416
0.07244713407
0.0724471341
0.07244713421
0.07244713439
0.07244713459
0.0724471345
0.07244713521
0.07244713503
0.07244713489
0.07244713485
0.0724471348
0.07244713474
0.07244713472
0.0724471347
0.07244713467
0.07244713463
0.07244713454
0.07244713442
0.07244713426
0.07244713433
0.07244713442
0.07244713459
0.07244713464
0.07244713455
0.07244713436
0.0724471342
0.07244713422
0.07244713421
0.07244713414
0.07244713407
0.07244713411
0.07244713423
0.07244713439
0.07244713454
0.07244713444
0.07244713506
0.07244713496
0.0724471349
0.07244713487
0.07244713482
0.0724471348
0.0724471348
0.07244713477
0.07244713473
0.07244713465
0.07244713446
0.0724471346
0.07244713467
0.07244713467
0.07244713461
0.07244713476
0.07244713478
0.07244713476
0.07244713471
0.0724471346
0.07244713447
0.07244713437
0.07244713426
0.07244713415
0.07244713413
0.07244713423
0.07244713437
0.07244713449
0.07244713439
0.0724471349
0.07244713488
0.07244713486
0.07244713484
0.07244713482
0.0724471348
0.07244713479
0.07244713475
0.07244713468
0.07244713458
0.07244713435
0.0724471345
0.07244713464
0.07244713468
0.07244713467
0.07244713478
0.07244713478
0.07244713477
0.07244713474
0.07244713468
0.07244713458
0.07244713446
0.07244713433
0.0724471342
0.07244713417
0.07244713424
0.07244713435
0.07244713445
0.07244713434
0.07244713479
0.07244713482
0.07244713482
0.0724471348
0.07244713477
0.07244713475
0.07244713471
0.07244713465
0.07244713456
0.07244713438
0.07244713396
0.07244713398
0.07244713438
0.07244713451
0.07244713459
0.07244713477
0.07244713478
0.07244713477
0.07244713474
0.07244713468
0.07244713458
0.07244713449
0.07244713444
0.07244713442
0.07244713441
0.0724471344
0.07244713441
0.07244713443
0.0724471343
0.07244713477
0.07244713478
0.07244713476
0.07244713472
0.07244713467
0.07244713461
0.07244713456
0.07244713448
0.0724471343
0.07244713391
0.072447133
0.07244713251
0.072447134
0.07244713445
0.0724471346
0.07244713471
0.07244713474
0.07244713474
0.07244713471
0.07244713465
0.07244713457
0.07244713452
0.07244713451
0.0724471345
0.07244713448
0.07244713446
0.07244713443
0.07244713441
0.07244713428
0.07244713476
0.07244713472
0.07244713466
0.07244713457
0.07244713447
0.07244713435
0.07244713429
0.07244713414
0.07244713372
0.07244713288
0.07244713141
0.07244713117
0.07244713347
0.07244713412
0.07244713436
0.07244713469
0.07244713472
0.07244713471
0.07244713469
0.07244713464
0.07244713458
0.07244713454
0.07244713452
0.0724471345
0.07244713447
0.07244713445
0.07244713441
0.07244713438
0.07244713427
0.07244713472
0.07244713461
0.07244713448
0.0724471343
0.0724471341
0.07244713396
0.07244713338
0.07244713327
0.07244713246
0.07244713133
0.07244713054
0.07244713169
0.07244713314
0.07244713362
0.07244713384
0.07244713456
0.07244713467
0.07244713469
0.07244713467
0.07244713463
0.07244713459
0.07244713454
0.07244713449
0.07244713445
0.07244713443
0.07244713441
0.07244713438
0.07244713434
0.07244713427
0.07244713463
0.07244713441
0.07244713416
0.07244713382
0.07244713346
0.07244713314
0.07244712362
0.07244713123
0.07244713067
0.07244713075
0.07244713124
0.07244713239
0.07244713326
0.07244713351
0.07244713341
0.0724471341
0.07244713462
0.07244713467
0.07244713466
0.07244713462
0.07244713457
0.0724471345
0.07244713442
0.07244713436
0.07244713434
0.07244713433
0.07244713431
0.07244713427
0.07244713429
0.07244713442
0.07244713409
0.07244713394
0.07244713385
0.07244713385
0.07244713397
0.07244713473
0.07244713464
0.07244713454
0.07244713442
0.07244713429
0.07244713416
0.07244713405
0.0724471339
0.07244713362
0.07244713395
0.07244713464
0.07244713469
0.07244713467
0.07244713462
0.07244713454
0.07244713444
0.07244713434
0.07244713427
0.07244713426
0.07244713427
0.07244713426
0.07244713424
0.07244713432
0.07244713415
0.07244713393
0.07244713407
0.07244713424
0.07244713433
0.07244713444
0.07244713478
0.07244713476
0.07244713473
0.0724471347
0.07244713463
0.07244713451
0.07244713432
0.07244713406
0.0724471337
0.07244713393
0.07244713466
0.07244713471
0.07244713469
0.07244713464
0.07244713455
0.07244713443
0.07244713431
0.07244713426
0.07244713433
0.07244713432
0.07244713433
0.07244713435
0.07244713437
0.07244713392
0.07244713396
0.07244713432
0.0724471346
0.07244713448
0.07244713456
0.07244713479
0.07244713478
0.07244713473
0.07244713471
0.07244713466
0.07244713454
0.07244713433
0.07244713402
0.07244713363
0.07244713395
0.07244713466
0.07244713472
0.07244713472
0.07244713468
0.07244713461
0.0724471345
0.07244713438
0.07244713434
0.07244713434
0.07244713436
0.07244713437
0.07244713438
0.07244713435
0.07244713384
0.07244713395
0.07244713432
0.07244713467
0.07244713447
0.07244713458
0.0724471348
0.07244713477
0.07244713473
0.07244713468
0.07244713458
0.07244713442
0.07244713424
0.07244713403
0.07244713399
0.07244713426
0.07244713465
0.07244713473
0.07244713473
0.07244713472
0.07244713467
0.07244713459
0.07244713448
0.07244713434
0.07244713434
0.07244713438
0.07244713439
0.07244713439
0.07244713434
0.07244713397
0.07244713403
0.07244713436
0.07244713469
0.07244713434
0.07244713451
0.0724471348
0.07244713477
0.07244713472
0.07244713463
0.0724471345
0.07244713458
0.0724471346
0.07244713461
0.07244713462
0.07244713464
0.0724471347
0.07244713474
0.07244713475
0.07244713474
0.07244713471
0.07244713465
0.07244713454
0.07244713437
0.07244713432
0.07244713441
0.07244713442
0.07244713442
0.07244713442
0.07244713433
0.07244713445
0.07244713461
0.07244713472
0.07244713461
0.07244713461
0.07244713474
0.07244713475
0.07244713475
0.07244713472
0.0724471347
0.07244713467
0.07244713466
0.07244713466
0.07244713465
0.07244713465
0.07244713465
0.07244713465
0.07244713465
0.07244713463
0.07244713461
0.07244713457
0.07244713452
0.07244713447
0.07244713443
0.07244713446
0.0724471345
0.07244713444
0.07244713443
0.07244713625
0.07244713515
0.07244713488
0.07244713535
0.07244713488
0.07244713511
0.07244713493
0.07244713487
0.07244713499
0.072447135
0.07244713499
0.072447135
0.07244713489
0.0724471352
0.07244713502
0.07244713498
0.0724471349
0.07244713573
0.07244713508
0.07244713494
0.07244713486
0.07244713484
0.07244713484
0.07244713484
0.07244713605
0.072447136
0.07244713587
0.0724471358
0.07244713608
0.07244713607
0.07244713577
0.07244713637
0.0724471367
0.07244713577
0.07244713667
0.07244713659
0.07244713637
0.07244713725
0.0724471374
0.07244713757
0.07244713725
0.07244713709
0.07244713778
0.07244713698
0.07244713684
0.07244713761
0.07244713671
0.07244713646
0.07244713634
0.07244713594
0.07244713538
0.07244713612
0.07244713506
0.07244713504
0.07244713571
0.07244713566
0.07244713556
0.07244713502
0.07244713499
0.072447135
0.07244713543
0.07244713526
0.07244713489
0.07244713495
0.07244713504
0.07244713494
0.07244713492
0.07244713489
0.07244713491
0.07244713489
0.07244713489
0.07244713488
0.07244713486
0.07244713486
0.07244713485
0.07244713487
0.07244713486
0.07244713486
0.07244713485
0.07244713487
0.07244713486
0.07244713486
0.07244713581
0.07244713585
0.07244713576
0.0724471362
0.07244713547
0.0724471355
0.07244713627
0.07244713552
0.07244713549
0.07244713575
0.07244713577
0.07244713573
0.07244713527
0.07244713558
0.07244713553
0.07244713573
0.07244713576
0.07244713573
0.07244713557
0.07244713563
0.07244713559
0.07244713574
0.07244713606
0.07244713598
0.07244713559
0.07244713575
0.07244713559
0.0724471372
0.07244713749
0.07244713722
0.07244713551
0.07244713698
0.07244713595
0.07244713775
0.07244713755
0.07244713762
0.07244713684
0.0724471377
0.0724471377
0.07244713732
0.07244713695
0.07244713691
0.07244713733
0.07244713654
0.07244713658
0.07244713619
0.07244713671
0.07244713499
0.07244713499
0.072447135
0.07244713496
0.07244713499
0.07244713497
0.07244713493
0.07244713496
0.07244713496
0.07244713495
0.07244713576
0.07244713555
0.0724471355
0.07244713617
0.07244713562
0.07244713574
0.07244713595
0.07244713559
0.07244713558
0.07244713667
0.07244713603
0.07244713617
0.07244713672
0.07244713629
0.07244713645
0.07244713665
0.07244713654
0.07244713646
0.07244713626
0.07244713637
0.07244713604
0.07244713521
0.07244713541
0.07244713511
0.072447135
0.07244713499
0.07244713498
0.07244713497
0.07244713499
0.07244713499
0.07244713522
0.07244713509
0.07244713503
0.07244713531
0.07244713502
0.07244713504
0.07244713531
0.07244713504
0.07244713513
0.07244713578
0.07244713538
0.0724471355
0.0724471362
0.07244713573
0.072447136
0.0724471362
0.07244713617
0.07244713585
0.07244713562
0.07244713568
0.07244713521
0.07244713502
0.07244713501
0.07244713495
0.07244713506
0.07244713498
0.07244713519
0.07244713498
0.07244713502
0.07244713499
0.07244713499
0.07244713492
0.07244713488
0.07244713488
0.07244713501
0.07244713488
0.07244713492
0.07244713531
0.07244713503
0.07244713517
0.0724471358
0.0724471354
0.0724471355
0.07244713538
0.07244713535
0.072447135
0.07244713499
0.07244713495
0.0724471349
0.07244713488
0.07244713663
0.07244713508
0.07244713553
0.07244713527
0.07244713499
0.07244713512
0.07244713488
0.07244713485
0.07244713486
0.07244713507
0.07244713488
0.07244713491
0.07244713508
0.07244713491
0.0724471349
0.07244713488
0.07244713488
0.07244713486
0.07244713828
0.07244713632
0.07244713637
0.07244713617
0.07244713665
0.07244713496
0.07244713634
0.07244713493
0.07244713624
0.07244713491
0.07244713586
0.07244713594
0.07244713593
0.07244713624
0.07244713578
0.0724471358
0.07244713555
0.07244713577
0.07244713576
0.07244713561
0.07244713577
0.07244713576
0.07244713565
0.07244713709
0.0724471374
0.0724471356
0.07244713779
0.0724471377
0.07244713773
0.07244713775
0.07244713727
0.0724471375
0.07244713679
0.07244713671
0.07244713594
0.07244713648
0.07244713547
0.07244713584
0.07244713499
0.07244713497
0.07244713494
0.07244713579
0.07244713596
0.07244713603
0.07244713652
0.07244713669
0.07244713674
0.07244713654
0.07244713565
0.07244713502
0.07244713529
0.07244713502
0.072447135
0.072447135
0.07244713498
0.07244713499
0.07244713498
0.0724471353
0.07244713523
0.07244713525
0.07244713566
0.07244713597
0.07244713635
0.07244713611
0.07244713516
0.07244713496
0.07244713497
0.07244713492
0.07244713493
0.07244713518
0.07244713556
0.0724471359
0.07244713519
0.07244713493
0.07244713492
0.07244713487
0.07244713487
0.07244713489
0.07244713486
0.07244713485
0.07244713484
0.07244713486
0.07244713486
0.07244713494
0.07244713516
0.07244713497
0.07244713488
0.07244713488
0.07244713485
0.07244713485
0.07244713484
0.07244713485
0.07244713491
0.07244713498
0.0724471351
0.07244713493
0.07244713491
0.07244713489
0.07244713486
0.0724471351
0.07244713494
0.07244713489
0.07244713486
0.07244713487
0.07244713496
0.07244713488
0.07244713485
0.07244713484
0.07244713486
0.07244713491
0.07244713486
0.07244713484
0.07244713484
0.07244713703
0.07244713498
0.0724471361
0.07244713708
0.07244713502
0.07244713498
0.07244713645
0.07244713494
0.07244713753
0.07244713771
0.07244713496
0.07244713495
0.07244713627
0.07244713492
0.0724471378
0.07244713784
0.07244713493
0.07244713492
0.07244713786
0.07244713491
0.07244713546
0.07244713614
0.07244713498
0.07244713501
0.07244713489
0.07244713501
0.07244713504
0.07244713531
0.07244713501
0.07244713488
0.072447135
0.07244713528
0.07244713514
0.07244713502
0.07244713495
0.07244713491
0.072447135
0.07244713499
0.07244713487
0.07244713495
0.07244713498
0.07244713492
0.07244713499
0.07244713498
0.07244713489
0.0724471349
0.07244713487
0.07244713486
0.07244713498
0.07244713498
0.07244713499
0.07244713573
0.07244713486
0.07244713488
0.07244713485
0.07244713487
0.07244713485
0.07244713484
0.07244713484
0.07244713484
0.07244713484
0.0724471349
0.07244713487
0.07244713485
0.07244713484
0.07244713503
0.07244713498
0.07244713804
0.0724471353
0.07244713548
0.07244713514
0.07244713498
0.07244713499
0.07244713494
0.07244713484
0.07244713485
0.07244713484
0.07244713484
0.07244713484
0.07244713484
0.07244713484
0.07244713484
0.07244713484
0.07244713484
0.07244713484
0.07244713484
0.07244713484
0.07244713484
0.07244713484
0.07244713645
0.07244713503
0.07244713524
0.07244713498
0.07244713498
0.07244713494
0.0724471349
0.07244713491
0.07244713489
0.07244713487
0.07244713498
0.07244713498
0.07244713494
0.07244713491
0.07244713491
0.07244713488
0.07244713487
0.07244713487
0.07244713486
0.07244713485
0.07244713492
0.07244713493
0.0724471349
0.07244713486
0.07244713487
0.07244713486
0.07244713485
0.07244713485
0.07244713484
0.07244713484
0.07244713488
0.07244713489
0.07244713487
0.07244713485
0.07244713485
0.07244713485
0.07244713484
0.07244713484
0.07244713484
0.07244713484
0.07244713484
)
;

boundaryField
{
    walls
    {
        type            zeroGradient;
    }
    wallFilmFace_top
    {
        type            zeroGradient;
    }
    region0_to_wallFilmRegion_wallFilmFace
    {
        type            zeroGradient;
    }
    mirrorFace_top
    {
        type            zeroGradient;
    }
    region0_to_wallFilmRegion_mirrorFace
    {
        type            zeroGradient;
    }
    procBoundary2to0
    {
        type            processor;
        value           nonuniform List<scalar> 
26
(
0.07244713479
0.0724471357
0.07244713515
0.07244713606
0.07244713327
0.07244712948
0.07244713597
0.07244713651
0.0724471364
0.0724471364
0.07244713607
0.07244713509
0.07244713466
0.07244713463
0.07244713466
0.07244713462
0.07244713458
0.07244713456
0.07244713453
0.07244713451
0.07244713448
0.07244713443
0.07244713435
0.07244713425
0.07244713424
0.07244713456
)
;
    }
    procBoundary2to1
    {
        type            processor;
        value           nonuniform List<scalar> 
33
(
0.07244713314
0.07244713314
0.07244713531
0.07244713531
0.07244713359
0.07244713235
0.07244713228
0.07244713228
0.07244713446
0.07244713578
0.07244713926
0.07244715036
0.07244714513
0.07244713914
0.07244713576
0.07244713537
0.07244713531
0.07244713524
0.07244713514
0.07244713449
0.07244713366
0.07244713387
0.07244713429
0.07244713456
0.07244713471
0.07244713479
0.07244713483
0.07244713484
0.07244713482
0.07244713477
0.07244713468
0.07244713455
0.07244713438
)
;
    }
    procBoundary2to3
    {
        type            processor;
        value           nonuniform List<scalar> 
64
(
0.07244713519
0.0724471353
0.07244713518
0.07244713497
0.07244713486
0.07244713501
0.07244713497
0.07244713491
0.07244713484
0.0724471363
0.07244713529
0.07244713547
0.07244713528
0.07244713529
0.07244713542
0.07244713551
0.07244713553
0.07244713554
0.07244713551
0.07244713549
0.0724471357
0.07244713668
0.07244713725
0.07244713764
0.07244713764
0.07244713744
0.07244713719
0.07244713719
0.07244713686
0.07244713719
0.07244713493
0.07244713495
0.07244713493
0.07244713498
0.072447135
0.07244713624
0.0724471349
0.0724471363
0.07244713582
0.07244713493
0.07244713484
0.07244713489
0.07244713488
0.07244713485
0.07244713484
0.07244713484
0.07244713788
0.07244713491
0.07244713511
0.07244713534
0.0724471353
0.07244713506
0.07244713488
0.07244713485
0.07244713499
0.07244713484
0.07244713484
0.07244713495
0.07244713484
0.07244713484
0.07244713487
0.07244713484
0.07244713484
0.07244713484
)
;
    }
}


// ************************************************************************* //
