/*--------------------------------*- C++ -*----------------------------------*\
  =========                 |
  \\      /  F ield         | OpenFOAM: The Open Source CFD Toolbox
   \\    /   O peration     | Website:  https://openfoam.org
    \\  /    A nd           | Version:  8
     \\/     M anipulation  |
\*---------------------------------------------------------------------------*/
FoamFile
{
    version     2.0;
    format      ascii;
    class       scalarField;
    location    "1.3/lagrangian/reactingCloud1";
    object      d;
}
// * * * * * * * * * * * * * * * * * * * * * * * * * * * * * * * * * * * * * //


90
(
0.0005627372131
0.0005489652286
0.0006601051816
0.001064322095
0.0005266625119
0.001102642935
0.001015940404
0.0005955221275
0.000525075133
0.000655197264
0.0005678551806
0.0006038187384
0.0008178471679
0.0005061152528
0.0005118889032
0.0005270073815
0.0009440332603
0.0006274044324
0.0005105164778
0.0005993054756
0.0006187923486
0.0005093675108
0.0006038187384
0.0006073244648
0.0009830943845
0.0008686117933
0.0009197758663
0.000760467852
0.001050944168
0.0005193781378
0.0006431606586
0.0009481634937
0.0009162381261
0.0005158257975
0.0007399995816
0.0008314952291
0.001129503681
0.0009748530079
0.000901817466
0.0009331211369
0.0005450410771
0.0009586998557
0.0007726005037
0.0005541507973
0.000907388557
0.001101941221
0.0007576567763
0.0006439520622
0.0007015414347
0.0009668847712
0.0006727261644
0.0008317807535
0.0005988501972
0.0005162845292
0.0006783508475
0.0005108120407
0.0006110263173
0.0005232250394
0.0008903346635
0.0008757202221
0.001145533631
0.0006964082316
0.001048111275
0.0006601345864
0.0005016996882
0.0008300277188
0.0009596533239
0.0007188564253
0.0007271205567
0.001066209218
0.000703049839
0.0005190520976
0.0008892429358
0.0007838283244
0.001009081441
0.0007001574882
0.0007197712253
0.0007772549941
0.0008005106003
0.0005662779457
0.001146683079
0.0005890997639
0.0008304222102
0.0008391093154
0.00102038709
0.0006190743176
0.0009209654153
0.001148252512
0.0006486753298
0.0006658782366
)


// ************************************************************************* //
