/*--------------------------------*- C++ -*----------------------------------*\
  =========                 |
  \\      /  F ield         | OpenFOAM: The Open Source CFD Toolbox
   \\    /   O peration     | Website:  https://openfoam.org
    \\  /    A nd           | Version:  8
     \\/     M anipulation  |
\*---------------------------------------------------------------------------*/
FoamFile
{
    version     2.0;
    format      ascii;
    class       scalarField;
    location    "1.3/lagrangian/reactingCloud1";
    object      mass0;
}
// * * * * * * * * * * * * * * * * * * * * * * * * * * * * * * * * * * * * * //


90
(
9.279515989e-08
8.614754972e-08
1.497779367e-07
6.27809167e-07
7.60686375e-08
6.980927313e-07
5.460257411e-07
1.099770656e-07
7.538288805e-08
1.464618932e-07
9.535010935e-08
1.152705543e-07
2.864277455e-07
6.788079186e-08
6.984503912e-08
7.621816922e-08
4.380970268e-07
1.286030195e-07
6.928475905e-08
1.120864605e-07
1.233795617e-07
6.881801478e-08
1.146378883e-07
1.166462406e-07
4.94759412e-07
3.431435082e-07
4.051860164e-07
2.290081807e-07
6.044318643e-07
7.295573093e-08
1.393018988e-07
4.438723664e-07
4.005285666e-07
7.146898152e-08
2.110099044e-07
3.010079093e-07
7.503629309e-07
4.824205798e-07
3.819129157e-07
4.254149067e-07
8.431330636e-08
4.588348586e-07
2.41470223e-07
8.91009859e-08
3.890346754e-07
6.967607959e-07
2.264779649e-07
1.390493725e-07
1.807834217e-07
4.732850456e-07
1.594092724e-07
2.996643083e-07
1.124483826e-07
7.205530427e-08
1.625442211e-07
6.978820042e-08
1.18792266e-07
7.458886123e-08
3.675092422e-07
3.516371553e-07
7.827659939e-07
1.76843992e-07
6.028660128e-07
1.497979536e-07
6.575668505e-08
2.994169692e-07
4.602052135e-07
1.934349278e-07
2.012880029e-07
6.311545565e-07
1.819520536e-07
7.281842314e-08
3.661589805e-07
2.521514568e-07
5.350410149e-07
1.797156244e-07
1.952459636e-07
2.445113268e-07
2.685962122e-07
9.507964817e-08
7.894576431e-07
1.070446997e-07
2.998440883e-07
3.093529414e-07
5.562800538e-07
1.235483022e-07
4.090049717e-07
7.92703608e-07
1.421315731e-07
1.545906006e-07
)


// ************************************************************************* //
