/*--------------------------------*- C++ -*----------------------------------*\
  =========                 |
  \\      /  F ield         | OpenFOAM: The Open Source CFD Toolbox
   \\    /   O peration     | Website:  https://openfoam.org
    \\  /    A nd           | Version:  8
     \\/     M anipulation  |
\*---------------------------------------------------------------------------*/
FoamFile
{
    version     2.0;
    format      ascii;
    class       scalarField;
    location    "1.3/lagrangian/reactingCloud1";
    object      nParticle;
}
// * * * * * * * * * * * * * * * * * * * * * * * * * * * * * * * * * * * * * //


90
(
110.0676103
107.9007419
317.533683
101.4539018
654.6323852
121.4275583
100.2100254
101.3612478
108.264941
100.0902664
101.6158789
4384.84258
1764.644811
7446.042112
102.5912308
102.8580613
100.2084643
102.0176341
102.9668582
107.7388978
108.6769295
117.1191359
107.7079629
107.0950718
100.3348394
1439.776996
116.3718353
102.2306889
109.8229873
1688.782287
3714.234807
112.9671999
100.1361066
102.772614
195.9688373
1670.472021
100.4602991
100.4033022
100.7737339
1179.667872
102.1888097
100.6640236
2051.628713
5560.06466
100.3500562
100.0524587
100.8533525
829.752163
2748.715545
1049.942749
3113.617213
167.562775
4213.000918
6852.915398
100.0201321
7456.099307
103.1621192
105.6361782
100.2212719
1438.474441
100.6476226
2821.961134
815.8375818
101.1324496
609.262596
1692.798154
100.0720233
101.8634221
2518.04621
105.7953052
2692.783071
100.3973532
100.1609965
1990.589126
108.8105185
2707.128822
2569.210549
101.2111983
1841.015926
5275.871324
635.4083639
4686.154388
1672.962746
1621.539421
901.566172
100.4266008
1226.459393
632.8064919
101.3623585
3124.699516
)


// ************************************************************************* //
