/*--------------------------------*- C++ -*----------------------------------*\
  =========                 |
  \\      /  F ield         | OpenFOAM: The Open Source CFD Toolbox
   \\    /   O peration     | Website:  https://openfoam.org
    \\  /    A nd           | Version:  8
     \\/     M anipulation  |
\*---------------------------------------------------------------------------*/
FoamFile
{
    version     2.0;
    format      ascii;
    class       scalarField;
    location    "1.3/lagrangian/reactingCloud1";
    object      T;
}
// * * * * * * * * * * * * * * * * * * * * * * * * * * * * * * * * * * * * * //


90
(
299.9999993
299.9999992
299.9999992
299.9999995
299.9999916
299.9999991
299.9999925
299.9999927
299.9999927
299.9999991
299.9999927
300
300
300
299.9999827
299.9999983
299.9999935
299.9999987
299.9999987
299.9999987
299.9999987
299.9999987
299.9999986
299.9999986
299.9999955
300
299.9999951
299.9999963
299.9999978
299.9999976
300
299.9999958
299.9999996
299.9999972
299.9999974
300
299.9999917
299.9999987
299.9999915
300
299.9999996
299.9999939
300
300
299.9999979
299.9999957
299.9999966
299.999996
300
300
300
299.9999997
300
300
299.9999984
300
299.9999935
299.9999935
299.9999931
300
299.999999
300
300
299.9999942
299.9999997
300
299.9999935
299.9999917
300
299.9999595
300
299.9999919
299.9999936
300
299.9999887
300
300
299.9999936
300
300
300
300
300
300
300
299.9999936
300
300
299.9999936
300
)


// ************************************************************************* //
