/*--------------------------------*- C++ -*----------------------------------*\
  =========                 |
  \\      /  F ield         | OpenFOAM: The Open Source CFD Toolbox
   \\    /   O peration     | Website:  https://openfoam.org
    \\  /    A nd           | Version:  8
     \\/     M anipulation  |
\*---------------------------------------------------------------------------*/
FoamFile
{
    version     2.0;
    format      ascii;
    class       volScalarField;
    location    "2/wallFilmRegion";
    object      alpha;
}
// * * * * * * * * * * * * * * * * * * * * * * * * * * * * * * * * * * * * * //

dimensions      [0 0 0 0 0 0 0];

internalField   nonuniform List<scalar> 
1369
(
9.7876096
4.130469245
3.964423431
3.056248472
3.316434835
3.246731794
3.300943446
6.853576603
0.9689516798
0.8823981999
0.9999874876
1.43565776
1.896598026
2.469140522
3.10376541
3.617574903
2.986124756
1.547252368
4.440620596
0.4197334434
0.3746654509
0.3350938069
0.3235633561
0.2787003038
0.2109014319
0.1505470927
0.1404711041
0.09449852432
0.1030293934
0.1248009237
0.1767942727
3.899866096
0.40351558
0.3407982559
0.2964567534
0.284391513
0.2528708548
0.1953822401
0.131494136
0.09752201952
0.09895523351
0.1284776254
0.1770646171
0.2231940317
0.258702343
0.2610648093
0.1004437627
0.1085117195
4.026883324
0.4682278062
0.3891899222
0.3589561685
0.3823921008
0.3866735128
0.3395728431
0.2466418917
0.1734345571
0.1609193107
0.1920509587
0.2359479693
0.2704422941
0.294614597
0.2845626919
0.1551305635
0.2075641992
0.2261647142
0.1835675797
4.440238618
0.4641114621
0.361458642
0.3436955041
0.4119701339
0.482576389
0.5017549619
0.423336427
0.2980243337
0.2314271004
0.2443463614
0.2838428939
0.3087400065
0.3103656956
0.2948353028
0.2171375554
0.2810444554
0.2173444799
0.1456143925
0.03690989637
0.6225461074
2.101699128
1.813834963
4.89096139
0.3873441532
0.2614024527
0.241708084
0.3157683327
0.3991381193
0.446497098
0.4060168874
0.2933827958
0.2037220566
0.1696693343
0.1665851627
0.1856995941
0.2420888208
0.2924179834
0.1422731775
0.1228121934
0.1111878516
0.09968674144
0.04130561245
0.268166638
1.403584791
1.671275021
1.828583541
1.822106923
5.066755877
0.2652803685
0.1398666581
0.1236600313
0.1944155617
0.3078835183
0.4294668642
0.4683127013
0.3832282416
0.2896928885
0.2270525621
0.1893584958
0.2192679662
0.3398603611
0.4158400267
0.1483236959
0.1171946996
0.09002771044
0.07158191475
0.06515761436
0.1009511528
0.7662685921
1.936013981
1.575927058
1.553492601
1.291058201
4.500900316
0.1433208645
0.05273348104
0.04201593383
0.07992419301
0.1775697901
0.3718541358
0.5520445034
0.5297763748
0.3763562619
0.2358828041
0.1516100371
0.153000746
0.2344103389
0.3212442834
0.1843966644
0.1315506662
0.07915430762
0.05231734138
0.08086924613
0.1164664938
0.179495103
1.083664385
2.182965068
1.639907906
1.974679555
3.634545831
0.07344713291
0.02183266607
0.01515248234
0.0253812596
0.06473089471
0.2239136747
0.5363692058
0.6773895361
0.4957205364
0.2627099314
0.1321046906
0.1257051842
0.1955476781
0.2779501715
0.2639314402
0.1724641532
0.07442536383
0.03778171202
0.1324788377
0.2699103182
0.321114167
0.4327936263
0.9104945234
1.624795119
2.321846402
1.393009133
3.22442555
0.05366490476
0.02355694081
0.01969612177
0.02247015053
0.02456991119
0.04807547523
0.1529639635
0.3369781577
0.3721330655
0.3741473792
0.2793343821
0.154376345
0.1315162444
0.1783835341
0.2550376161
0.2569499577
0.1105223634
0.07462761984
0.07038780518
0.1785225176
0.2510614344
0.6787099211
1.304279399
1.884733254
1.49343295
0.9904376571
3.263903148
0.05254217713
0.05145410298
0.04890780405
0.04285527917
0.03111269905
0.03907419447
0.0518452014
0.07738938971
0.1335963214
0.2705553247
0.4931082366
0.5499956371
0.3841049961
0.3471057538
0.4514396109
0.5655327872
0.3391698688
0.1992578623
0.06408428051
0.2462533726
0.4969929268
0.5295797663
0.9343409312
1.190679941
1.802136467
1.405811312
3.360917366
0.09492326535
0.09991168785
0.08099446088
0.05560650966
0.0291166574
0.03103619056
0.02931680539
0.02886552249
0.03593319412
0.06533307048
0.1684462637
0.4493048266
0.69987447
0.6342705771
0.6498165413
0.9345611928
1.842836141
1.496178091
0.3986986847
0.8828833701
1.323519354
0.7134274782
1.662836079
1.113179615
1.400697585
1.246556299
0.8049473383
3.212233167
0.1306948682
0.1283495363
0.08746398075
0.0527445996
0.02351766297
0.02551664887
0.02347458627
0.0216671012
0.02421307183
0.03558197052
0.06834748247
0.1653927344
0.38041557
0.5260982448
0.4953862809
0.8285814153
1.395119457
1.76948822
0.6896272383
1.149766636
1.782255871
1.568657565
2.003262371
1.519388586
1.385166641
1.417719319
1.132494967
0.6963382638
3.055162467
0.1616625202
0.1232151205
0.08126546309
0.04727205196
0.02038388694
0.0221101718
0.02198224121
0.02297211973
0.0275383847
0.03751039343
0.05495358357
0.08651341533
0.166788205
0.3892337041
0.7965437013
1.037862533
0.6268139911
0.4488754218
0.9827742923
0.8519501758
1.531187243
2.118487899
1.139713835
1.376993198
1.336715496
1.471816453
1.34553201
1.112760631
2.877552747
0.16506223
0.1069692661
0.07508533075
0.04545112153
0.02060343946
0.0237681485
0.02838075094
0.03620264535
0.05033487947
0.07369131443
0.107262688
0.1544261137
0.2449381596
0.4506190366
0.7618957536
0.7959377964
0.1961585205
0.1082069016
0.3731399294
0.4751520269
0.9215392726
1.389771414
0.9403201411
0.8786428714
0.7562473512
0.9558496939
1.021939711
1.159607067
2.852505738
0.1546295787
0.0953835881
0.07223331934
0.04708351919
0.02660218205
0.03630201879
0.05149450618
0.0710782372
0.1043874969
0.1535387542
0.1985989314
0.2100206594
0.1823159289
0.1556029442
0.1433987791
0.08859870915
0.02049007663
0.004257146091
0.03241434558
0.1494796135
0.5547957335
1.442673202
1.199747867
0.4180392939
0.3899191222
0.6710962211
0.7650532252
0.7989210118
0.635396488
0.7652574417
1.2010456
1.798036904
1.518137692
2.766142979
0.145574916
0.08762061029
0.07037586572
0.04667011916
0.03275146132
0.06607518218
0.105048002
0.1176761672
0.156179755
0.2160654182
0.2517945394
0.2280693428
0.1466337543
0.06730102766
0.04193192973
0.0229685039
0.008511556151
0.0007575560462
0.01052960818
0.05326356315
0.2720236975
1.164943049
1.332349128
0.8003766738
0.6991144587
0.6981941071
0.729367168
0.8296598531
1.436136301
1.480174705
1.534022408
1.675702645
1.532992641
3.017337651
0.154991028
0.09120150563
0.07437235624
0.0386433283
0.02411853
0.1211665584
0.2513815749
0.1279700973
0.1437861901
0.2040354008
0.2324775778
0.2051560248
0.1394923776
0.07367835501
0.05167979369
0.03775551785
0.02079994636
0.00141849467
0.0224368036
0.09221888055
0.3554589764
1.286550628
1.975877898
1.867608512
1.603247944
0.9467855334
1.13566295
1.741943993
1.721478845
1.313876477
1.328800258
1.633783317
1.796589859
2.757032054
0.1341362789
0.07991737897
0.06605310425
0.04019920109
0.0157154437
0.01989441749
0.03025792327
0.06131593354
0.1179055657
0.1728736357
0.178635524
0.1375197199
0.08749027029
0.05256085834
0.05373897454
0.06680180302
0.2808818868
0.04210931105
0.1644009238
0.5836564689
0.6637548079
0.6622601581
1.059831269
1.840762946
2.277245431
1.353917069
1.646158837
1.59595709
1.067060011
1.160151392
1.287999979
1.583720861
3.082339214
0.188206949
0.124063712
0.1096889977
0.07950745724
0.04435154337
0.04539667575
0.05867264402
0.09745313992
0.1557348034
0.1825780724
0.14957938
0.09904381191
0.06884466336
0.05545740734
0.04288621112
0.05104137032
0.1168755497
0.03311170858
0.003745977328
0.01667003206
0.05204461834
0.1614810073
0.5668994948
1.771016586
3.109521964
2.687634628
2.231416747
1.838718403
1.687575873
1.597579553
1.628550137
4.53064015
0.4407338344
0.3698396637
0.4203940691
0.51732927
0.6193826937
0.6259510793
0.5290493647
0.4023956665
0.2956694758
0.2117123514
0.1239271354
0.06765913667
0.05434151096
0.06298886463
0.06359109415
0.07547251504
0.08915376601
0.03394641224
0.02133187174
0.2283573012
0.4541467522
0.6685284026
0.8668199633
1.675717558
2.749415374
2.411283724
2.25640277
1.874255268
1.52137646
1.793802289
1.621252616
6.074058264
0.7811011573
0.6547745309
0.6811292864
0.7827016968
0.9623268161
1.37405046
1.75483796
1.721581575
1.179759609
0.554152415
0.1334407649
0.03848893062
0.01492274532
0.05005503913
0.1328089714
0.274431555
0.3607348777
0.0662349177
0.02361634916
0.09082097399
0.2852937864
1.006347205
2.470058038
3.397562116
2.891987577
2.159815763
1.717904121
1.469896698
1.411863005
2.278989434
1.60109698
5.997778809
0.9815709174
0.7863875739
0.6926025813
0.5567548498
0.3534978495
0.3523092148
0.6067332136
1.049538494
1.340244093
1.100613871
0.357038058
0.2126603336
0.2618009139
0.5550248413
0.4023480708
0.3186435478
0.3047384554
0.07633487424
0.08338631775
0.2818841815
0.9251669826
1.805808414
1.651534007
1.744733338
1.994398021
2.270810666
1.934862562
1.402118317
1.170389238
2.211374691
5.889520677
1.162206381
0.851823264
0.5143461266
0.2343904063
0.1313462708
0.1646150492
0.241551358
0.3492190059
0.4963480143
0.6188498656
0.459041679
0.2785358075
0.1618005373
0.0156837472
0.2519569777
0.7275480026
0.2034598642
0.0795698067
0.01790320688
0.1627738001
0.5023965943
0.9259374771
1.681649617
3.371203818
3.746552823
3.124095782
2.640566248
1.915723064
1.147517118
0.921707949
7.496521874
1.153902308
0.5263871779
0.1434079437
0.08790737418
0.1364248727
0.2251064823
0.2982627136
0.3258901293
0.3360382017
0.3048064128
0.5540663706
0.7417580995
0.2184535809
0.1014090639
0.3417261957
0.6841913137
0.2100245433
0.1752765454
0.3321581594
1.048362433
1.637932156
1.584012769
2.147424604
2.924263521
2.50323477
2.000822855
2.171141964
1.72797276
1.151518139
0.2820264483
9.22829565
2.729456756
1.412946616
0.05745584647
0.03044537812
0.0435003258
0.07620688961
0.1445286817
0.2328858216
0.2882990929
0.2857759688
0.3560735334
0.6082456994
0.2520858775
0.1905420057
0.4938856678
0.6480675529
0.2889615357
0.3816859359
0.7953668242
1.328443835
1.134640737
1.338663969
1.883380109
2.016427666
1.437197422
1.453730879
2.466984172
2.140767686
0.5885709012
0.01790056826
7.328081315
2.572404763
2.168719597
0.05423954584
0.0214870553
0.0246894145
0.03508658844
0.06597074488
0.1443801826
0.2291930005
0.2544301885
0.2070134553
0.4858194632
0.3024714094
0.3164867451
0.6099641876
0.6572299202
0.3443672969
0.4061883739
0.7323636271
1.136214936
1.093761149
1.038909818
1.220661534
1.132778439
0.7626448846
0.6794643694
1.05255653
1.190835038
1.356362749
0.3211380354
6.087649256
2.178498728
3.77651419
0.162837091
0.05793615122
0.04379896805
0.04238161934
0.05076325432
0.08901212835
0.1641053663
0.2033747157
0.09901994724
0.3303171935
0.4200060599
0.5163770269
0.7796942653
0.937838351
0.4687535046
0.2935101455
0.3084036288
0.3529524381
0.6338598034
0.8431061915
1.063408894
1.128333445
1.048095218
0.3609430992
0.5299956109
0.7586100535
0.9431058606
0.82278506
7.340687423
3.157714403
3.284752299
0.2967856579
0.09196458628
0.06792853369
0.06266231784
0.05856106828
0.06431617391
0.1009379406
0.1552874481
0.08143332527
0.1848473787
0.2969572168
0.4551458278
0.8589688629
1.566830266
0.812716738
0.2900917348
0.1917413698
0.2383266001
0.2744811138
0.1736074909
0.1438017082
0.1366146775
0.2947428059
0.09490506783
0.3317560653
0.9133265401
1.352984471
1.804737459
7.204476588
3.964019374
3.588898648
0.7125201693
0.1491743959
0.1014855994
0.09217842414
0.08014060146
0.06756158397
0.06642665876
0.1089904025
0.07519437151
0.09904041403
0.1262005823
0.2203703153
0.7137405398
1.959597891
1.136375113
0.3437178219
0.1908097189
0.3559805694
0.2483159207
0.152437453
0.1738720038
0.01429659538
0.005400732992
0.002263320265
0.0216956001
0.4853574191
1.058169657
2.446728065
7.165156544
4.505814699
5.272621387
2.942090027
0.3761998364
0.1716661349
0.151845968
0.1327286796
0.1068271695
0.08219054507
0.08301134436
0.06179721387
0.05234024361
0.0502989996
0.07137731772
0.3525013632
1.811110939
1.205693969
0.3899122456
0.2336978153
0.6283820724
0.2075912946
0.1472050042
0.2305784101
0.01023961797
0.003151779378
0.00050931035
0.0002581817217
0.004932854172
0.0525991075
1.043230293
5.995787472
4.275365832
5.156984654
5.638944309
2.257164269
0.3278752706
0.2371267979
0.2157221111
0.179414093
0.1326939053
0.08948784557
0.06453038469
0.04712940552
0.03993661501
0.04073061008
0.06544436217
1.205941254
1.113206074
0.4111844919
0.5038920511
0.7021988754
0.1558384247
0.1577665503
0.2920226235
0.007825639048
0.002272742877
0.0009225501184
0.00155470972
0.000678377894
0.003116118109
0.149638885
5.662068739
4.429532321
4.916764387
5.469982271
5.659287278
0.8679218029
0.3058616868
0.2757764895
0.241326756
0.1827294336
0.120461407
0.1008347546
0.08166335398
0.0651943536
0.04381945623
0.006498762226
0.3416010759
0.8079033729
0.6252292215
1.809106446
0.3915191216
0.3573196267
0.4140483766
0.6192863752
0.4124882595
0.2754946935
0.1540787726
0.04708706779
0.003664297359
0.00213205893
0.009878638985
5.3846289
4.634186328
4.752248916
4.507369556
5.973779929
5.382386671
0.5093442634
0.3185980771
0.2256197564
0.1797490496
0.1279559055
0.1198341104
0.09248259783
0.05693120062
0.02231062039
0.001613747222
0.03662709218
0.3897698202
1.011452384
0.5325218698
0.09163856372
0.1491905943
0.2858618575
0.531625818
0.007574155883
0.004744134329
0.01051869062
0.0003524496757
0.0005189775593
0.003131749802
0.004087115782
5.346862887
4.767322938
4.769258466
3.954141133
5.168734934
6.484716532
2.057688469
1.778614487
0.219440321
0.1225114068
0.09639296988
0.0914019252
0.06701575747
0.03489263219
0.00915282181
0.002151747503
0.02122475527
0.1531338106
0.2206086549
0.2999760585
0.0358736672
0.04516137479
0.1726777466
0.4115146964
0.003761369163
0.00142302276
0.0009616746522
0.001114478407
0.002635593028
0.01078894294
0.08141684602
5.39735407
4.64932194
4.948429523
3.888065521
4.70458126
6.548993692
5.188327932
3.744795254
1.213048459
0.1006772127
0.06603319653
0.06086728493
0.04272462535
0.02027469335
0.004974842519
0.001023896427
0.006370542146
0.005112448752
0.03114197102
0.4111741149
0.01329311719
0.01142538533
0.08204408908
0.3007554124
0.0023440369
0.001568040984
0.001449758748
0.002511609128
0.006126803409
0.02075012087
0.07845781719
5.305670897
4.426294206
4.912412598
3.90063746
4.148634611
4.674284928
4.78587374
3.948329175
0.7220797917
0.08143280108
0.04823906221
0.04353205363
0.03068338189
0.01551463111
0.004829925055
0.001045987291
0.005083562318
0.04751814017
1.166343318
0.04574906572
0.002547515105
0.002183006282
0.01751430904
0.1763422268
0.0008424771283
0.001377586182
0.002576815817
0.005662784812
0.01604875919
0.04123291059
0.09415314828
5.076303685
4.275299049
4.813598195
3.977716223
4.028611685
4.164734799
4.890700176
6.378859919
1.040328275
0.08678971829
0.04217364411
0.03990000117
0.03500446463
0.04130952467
0.1144043269
0.4370972251
0.9781495685
0.8611030759
0.3054545022
0.0124796794
0.003023756884
0.002392976628
0.00510995045
0.06534897878
0.001498229649
0.001938610702
0.003307743137
0.00616665779
0.01958684114
0.09677009472
0.1657366443
4.893468523
4.158816132
4.729154941
4.074352324
3.913265776
3.63427213
4.134118983
6.881831841
4.377468322
0.3817594989
0.05602078985
0.04960280225
0.06388524968
0.130557577
0.3304086796
0.6325162805
0.6848936004
0.436221785
0.1847287928
0.03464788188
0.01101881739
0.008026638743
0.007542275642
0.0156129775
0.004147262594
0.006750091418
0.009792537979
0.01567003685
0.04329656872
0.1393782859
0.1199565714
4.955713039
4.176436713
4.711242276
4.200660925
3.858092606
3.345091702
3.234504934
5.417045715
6.672715932
3.014923616
0.1265445357
0.08940056716
0.1054755055
0.1628404463
0.2432732668
0.3010107629
0.357666979
0.4181219445
0.2891575225
0.08886907075
0.0258897681
0.01614822805
0.01355574568
0.009622953078
0.01022526082
0.01717304249
0.02406987898
0.03690164291
0.07930668082
0.1304830186
0.06194583231
5.386497704
4.467412503
4.824608188
4.358328558
3.84303901
3.123647162
2.685590579
3.479798277
6.406092962
5.633947026
0.496992307
0.3490505324
0.4762085139
0.7193473475
0.4815658839
0.3128491515
0.3548145042
0.5169708796
0.4973623515
0.2021103432
0.05869125734
0.03752176225
0.04182866874
0.04002383757
0.02208496235
0.0357645286
0.04667536935
0.0656419986
0.1008421795
0.0848271581
0.02944357582
5.986701209
5.01185294
5.081267438
4.571950259
3.870127955
3.01889031
2.405149751
3.266272817
5.934069253
7.20301945
1.662599009
0.433909366
0.2988076316
0.08860904014
0.1595126726
0.2808875882
0.4364901763
0.6508273812
0.8020256461
0.3838922301
0.1491716499
0.1413659162
0.3022765666
0.4667703251
0.03977600389
0.05399245666
0.05794876746
0.06505010679
0.06407486199
0.02394611438
0.007185749011
6.170004529
5.583449221
5.385493329
4.8277709
3.963338874
3.171846176
2.82816291
5.058585175
6.566029209
7.571671055
6.143773689
0.5392857041
0.1649840196
0.02431532296
0.09033065094
0.2953826858
0.5373160958
0.7871547243
1.317205867
0.4216231169
0.2117702159
0.1697876505
0.1780988458
0.05758412622
0.04797358963
0.08353862645
0.07623957221
0.05880580142
0.04310435881
0.02685084767
0.02075559248
5.98319297
5.955903651
5.665842052
5.088459811
4.311985921
3.368530985
3.291253022
4.651464351
5.310454123
5.371418461
4.045309414
0.6373396192
0.1083749962
0.07299908309
0.3004659711
0.6889867102
0.7901647856
1.280518165
2.832402554
0.5915219129
0.2036081272
0.1222442369
0.06674079995
0.01033337481
0.03017674549
0.07833983414
0.1271135094
0.1021509254
0.06058216895
0.04573197504
0.04274646629
6.065501664
6.145353026
5.992659313
5.679756302
4.465979996
3.590628966
3.750943565
4.761146416
6.075460031
6.963122277
5.993088738
2.525279738
0.6839003033
0.6519306499
1.091042961
1.67768662
2.021384969
2.041822086
1.290869255
0.8401461724
0.2860736124
0.1094028868
0.05942312246
0.0265930962
0.02823901354
0.05536514963
0.1404733627
0.2034268752
0.1142108744
0.08321944426
0.08373890297
6.108868224
6.227641821
6.359851428
5.793578043
3.901806818
3.206366103
3.526242579
4.304274314
4.953515086
5.398879742
5.574793418
4.847664411
3.356514317
2.220646138
1.751576332
1.618984112
1.529029141
1.379658577
1.236054771
1.008989625
0.4818034795
0.1317149837
0.05757559872
0.03442179923
0.03811013671
0.06305058961
0.1253558742
0.24290932
0.1839559207
0.1579662188
0.1930375628
6.145705605
6.370841014
7.012933288
6.874507862
4.320572352
3.38978191
3.447641181
3.865032666
4.371413906
4.83568626
4.930956892
4.601209633
4.689170709
4.433167005
3.730262138
2.728413866
1.92942804
1.690690178
1.455118468
1.461330961
1.515461384
1.17413588
0.8539631537
0.6592385521
0.1672978814
0.1973034867
0.2369014631
0.3078614321
0.419056908
0.7962671987
1.777090442
)
;

boundaryField
{
    walls
    {
        type            zeroGradient;
    }
    wallFilmFace_top
    {
        type            zeroGradient;
    }
    region0_to_wallFilmRegion_wallFilmFace
    {
        type            zeroGradient;
    }
    mirrorFace_top
    {
        type            zeroGradient;
    }
    region0_to_wallFilmRegion_mirrorFace
    {
        type            zeroGradient;
    }
    procBoundary1to0
    {
        type            processor;
        value           nonuniform List<scalar> 
52
(
7.694298271
2.917548562
3.38660783
2.073681766
2.815603667
2.915665258
3.273516961
3.299728795
3.299728795
3.458197223
3.280367181
5.106285217
0.1212631586
0.1212631586
0.1288669965
0.2238216716
0.2238216716
0.2334700495
0.07100639804
0.05149981576
0.1755847399
0.1755847399
0.2157787227
0.1371757518
0.1371757518
1.603610786
2.864748682
1.725301653
2.31639708
2.31639708
2.215664365
2.305825717
2.305825717
0.492629232
0.6630629302
0.6630629302
0.9231620511
0.5717855431
0.6750790409
0.6750790409
0.3332575186
0.3332575186
0.8773077727
1.503857949
0.9523574308
0.9523574308
0.7575056693
1.523391859
1.63807707
1.158546742
1.107586757
1.316574993
)
;
    }
    procBoundary1to2
    {
        type            processor;
        value           nonuniform List<scalar> 
33
(
1.664590134
1.928304608
1.928304608
1.480861666
1.480861666
1.39310138
1.268406979
1.481492458
1.481492458
1.346754544
0.5592771913
0.08444307513
0.4096577868
1.127418398
2.002705148
2.105634318
1.060484662
0.9082517153
0.6226014927
0.318292742
0.2827247351
0.2583404984
0.206782866
0.2198554142
0.2363176954
0.162784993
0.08872479832
0.03542452811
0.02102910705
0.04947941041
0.1027968603
0.3081067991
3.914754215
)
;
    }
}


// ************************************************************************* //
