/*--------------------------------*- C++ -*----------------------------------*\
  =========                 |
  \\      /  F ield         | OpenFOAM: The Open Source CFD Toolbox
   \\    /   O peration     | Website:  https://openfoam.org
    \\  /    A nd           | Version:  8
     \\/     M anipulation  |
\*---------------------------------------------------------------------------*/
FoamFile
{
    version     2.0;
    format      ascii;
    class       volScalarField;
    location    "2/wallFilmRegion";
    object      mu;
}
// * * * * * * * * * * * * * * * * * * * * * * * * * * * * * * * * * * * * * //

dimensions      [1 -1 -1 0 0 0 0];

internalField   nonuniform List<scalar> 
1369
(
0.0008861473789
0.0008861473686
0.0008861473657
0.0008861473642
0.0008861473632
0.0008861473625
0.0008861473617
0.0008861473822
0.0008861473888
0.0008861473841
0.0008861473766
0.0008861473712
0.0008861473679
0.0008861473656
0.0008861473642
0.0008861473637
0.0008861473647
0.0008861473674
0.0008861473815
0.0008861474038
0.0008861474041
0.0008861474019
0.0008861473983
0.0008861473937
0.0008861473883
0.0008861473825
0.0008861473769
0.0008861473839
0.0008861473895
0.0008861473969
0.0008861474031
0.0008861473813
0.0008861474067
0.0008861474093
0.0008861474099
0.0008861474088
0.0008861474057
0.0008861473999
0.000886147392
0.0008861473875
0.0008861473901
0.0008861473961
0.0008861474022
0.0008861474068
0.0008861474097
0.0008861474113
0.000886147453
0.0008861476498
0.0008861473818
0.0008861474073
0.000886147411
0.0008861474131
0.0008861474133
0.0008861474116
0.0008861474074
0.0008861474011
0.0008861473958
0.0008861473966
0.0008861474013
0.0008861474061
0.0008861474092
0.0008861474106
0.0008861474112
0.0008861474717
0.0008861476176
0.0008861481366
0.0008861483121
0.0008861473823
0.000886147407
0.0008861474113
0.0008861474146
0.000886147416
0.0008861474155
0.0008861474128
0.0008861474079
0.0008861474024
0.0008861474008
0.0008861474043
0.0008861474086
0.0008861474109
0.0008861474111
0.0008861474115
0.0008861475566
0.0008861476979
0.0008861481598
0.0008861483676
0.0008861478192
0.0008861474446
0.0008861474552
0.0008861474626
0.0008861473831
0.0008861474065
0.0008861474102
0.0008861474148
0.0008861474178
0.0008861474194
0.0008861474192
0.0008861474163
0.0008861474093
0.0008861474007
0.0008861474011
0.0008861474134
0.0008861474272
0.0008861474446
0.0008861475075
0.000886148052
0.0008861483073
0.0008861483775
0.0008861484087
0.0008861480521
0.0008861475056
0.0008861474616
0.0008861474656
0.0008861474614
0.000886147456
0.0008861473852
0.0008861474075
0.000886147407
0.0008861474128
0.0008861474178
0.0008861474206
0.0008861474212
0.0008861474193
0.0008861474141
0.000886147408
0.0008861474133
0.0008861474442
0.0008861474889
0.0008861475093
0.0008861475725
0.0008861481241
0.0008861483166
0.0008861483969
0.0008861484304
0.0008861482106
0.0008861480084
0.0008861474984
0.000886147466
0.0008861474678
0.0008861474678
0.0008861474648
0.0008861473901
0.0008861474137
0.0008861473997
0.0008861474065
0.0008861474165
0.0008861474214
0.0008861474222
0.0008861474206
0.0008861474175
0.0008861474162
0.0008861474329
0.0008861475098
0.0008861476555
0.0008861477747
0.0008861478545
0.0008861481583
0.0008861483023
0.0008861483968
0.0008861484335
0.0008861483256
0.000886148293
0.0008861481781
0.000886147528
0.0008861474657
0.0008861474702
0.0008861474726
0.0008861473968
0.0008861474285
0.0008861473972
0.0008861474075
0.0008861474219
0.0008861474253
0.0008861474228
0.0008861474202
0.0008861474185
0.000886147422
0.0008861474506
0.0008861475831
0.0008861478087
0.0008861479643
0.000886148073
0.0008861481745
0.0008861482784
0.0008861483943
0.000886148436
0.00088614839
0.0008861483649
0.0008861483631
0.0008861483075
0.0008861478736
0.0008861475312
0.000886147483
0.0008861474775
0.0008861473976
0.000886147437
0.0008861474227
0.0008861474346
0.0008861474456
0.0008861474458
0.0008861474268
0.0008861474157
0.0008861474137
0.0008861474172
0.0008861474237
0.0008861474395
0.0008861475119
0.0008861476627
0.0008861478152
0.0008861479642
0.000886148135
0.0008861483674
0.000886148334
0.0008861475024
0.000886147538
0.0008861475278
0.0008861474719
0.0008861474817
0.0008861474798
0.0008861474888
0.0008861474844
0.0008861473806
0.0008861474259
0.0008861474275
0.0008861474257
0.0008861474344
0.0008861474415
0.0008861474149
0.0008861473918
0.0008861473858
0.0008861473981
0.0008861474191
0.00088614744
0.0008861474695
0.000886147528
0.0008861476156
0.0008861477286
0.0008861479128
0.0008861482814
0.0008861483402
0.0008861474495
0.0008861474634
0.0008861474667
0.0008861474672
0.0008861474703
0.0008861474697
0.000886147479
0.0008861474776
0.0008861473725
0.000886147405
0.0008861474028
0.0008861474007
0.0008861474041
0.0008861474149
0.0008861473899
0.0008861473637
0.0008861473477
0.0008861473552
0.0008861473816
0.0008861474137
0.000886147448
0.0008861474937
0.0008861475576
0.0008861475982
0.0008861475988
0.000886147726
0.0008861479823
0.000886147484
0.0008861474619
0.0008861474673
0.000886147473
0.0008861474813
0.0008861474751
0.0008861474783
0.000886147478
0.0008861474783
0.0008861473701
0.0008861473844
0.0008861473871
0.0008861473882
0.0008861473826
0.0008861473714
0.0008861473602
0.0008861473447
0.0008861473356
0.0008861473456
0.0008861473675
0.0008861473895
0.0008861474096
0.0008861474339
0.0008861474649
0.000886147459
0.0008861474385
0.0008861474457
0.0008861475347
0.0008861474659
0.0008861474692
0.0008861474685
0.000886147473
0.0008861474936
0.0008861474794
0.0008861474736
0.0008861474732
0.0008861474766
0.0008861474674
0.0008861473686
0.0008861473838
0.0008861473896
0.0008861473889
0.0008861473752
0.0008861473292
0.0008861473311
0.0008861473348
0.0008861473458
0.0008861473646
0.000886147384
0.0008861474003
0.0008861474137
0.0008861474239
0.0008861474293
0.0008861474315
0.0008861474316
0.0008861474258
0.0008861474354
0.00088614746
0.0008861474611
0.000886147474
0.0008861474749
0.0008861475142
0.0008861474841
0.0008861474704
0.0008861474686
0.0008861474736
0.0008861474698
0.0008861473672
0.0008861473883
0.0008861473943
0.000886147392
0.0008861473748
0.0008861473126
0.0008861473337
0.0008861473536
0.0008861473722
0.0008861473885
0.0008861474017
0.0008861474128
0.0008861474239
0.0008861474346
0.0008861474404
0.0008861474411
0.0008861474383
0.0008861474206
0.0008861474276
0.0008861474426
0.0008861474759
0.0008861474733
0.000886147494
0.0008861474795
0.0008861474847
0.0008861474656
0.0008861474637
0.0008861474716
0.0008861474713
0.0008861473686
0.0008861473941
0.0008861473987
0.0008861473962
0.0008861473821
0.0008861473407
0.0008861473631
0.0008861473786
0.0008861473895
0.0008861473981
0.0008861474047
0.0008861474104
0.0008861474174
0.0008861474296
0.0008861474463
0.0008861474527
0.0008861474468
0.0008861473903
0.0008861473238
0.0008861474318
0.000886147473
0.0008861474605
0.0008861474717
0.0008861474809
0.0008861475309
0.0008861474771
0.0008861474644
0.00088614747
0.0008861474702
0.0008861474687
0.0008861474833
0.0008861474843
0.000886147487
0.0008861474796
0.0008861473694
0.0008861473992
0.0008861474021
0.0008861474004
0.0008861473915
0.0008861473666
0.0008861473841
0.0008861473921
0.0008861473961
0.0008861474003
0.0008861474034
0.0008861474052
0.0008861474055
0.0008861474038
0.0008861473993
0.000886147395
0.0008861473871
0.0008861473661
0.0008861470182
0.0008861473886
0.0008861474214
0.0008861474355
0.0008861474637
0.0008861474747
0.0008861475143
0.0008861474801
0.0008861474694
0.0008861474738
0.0008861474788
0.000886147497
0.000886147504
0.0008861475064
0.0008861475094
0.0008861475119
0.0008861473738
0.0008861474046
0.0008861474059
0.0008861474058
0.0008861474041
0.0008861473996
0.0008861474033
0.0008861474011
0.0008861473999
0.000886147403
0.0008861474053
0.0008861474067
0.0008861474065
0.000886147404
0.0008861473982
0.0008861473963
0.0008861473993
0.0008861474095
0.0008861471665
0.0008861474194
0.0008861474361
0.0008861474436
0.0008861474611
0.0008861474761
0.0008861476433
0.0008861474873
0.0008861475141
0.0008861474936
0.0008861475037
0.0008861475149
0.0008861475104
0.0008861475044
0.0008861475129
0.0008861475226
0.000886147371
0.0008861474019
0.0008861474046
0.0008861474053
0.0008861474052
0.0008861474066
0.000886147408
0.0008861474038
0.0008861474037
0.0008861474054
0.0008861474072
0.000886147408
0.0008861474073
0.0008861474045
0.000886147397
0.0008861473989
0.0008861474221
0.0008861474726
0.0008861474239
0.0008861474517
0.0008861474686
0.0008861474931
0.0008861475331
0.000886147482
0.0008861474904
0.0008861474884
0.0008861474966
0.0008861475043
0.0008861475133
0.0008861475065
0.0008861474982
0.0008861474888
0.0008861474909
0.0008861473713
0.0008861474004
0.0008861474048
0.0008861474064
0.0008861474073
0.0008861474075
0.0008861474056
0.0008861474041
0.0008861474054
0.0008861474076
0.0008861474089
0.0008861474089
0.0008861474072
0.0008861474047
0.0008861474025
0.0008861474003
0.0008861474091
0.0008861474328
0.0008861474009
0.000886147178
0.0008861473954
0.0008861474294
0.0008861474842
0.0008861474671
0.0008861474721
0.0008861474808
0.0008861474912
0.0008861475056
0.0008861475074
0.0008861474904
0.0008861474669
0.0008861474581
0.0008861473723
0.0008861473967
0.0008861474027
0.0008861474047
0.0008861474056
0.0008861474062
0.0008861474076
0.0008861474088
0.0008861474097
0.0008861474103
0.0008861474105
0.0008861474092
0.0008861474054
0.0008861474019
0.0008861474009
0.0008861474009
0.0008861474033
0.0008861474114
0.000886147396
0.0008861473797
0.0008861474284
0.0008861474364
0.0008861474429
0.0008861474498
0.0008861474657
0.0008861474819
0.0008861474964
0.0008861474988
0.0008861474845
0.0008861474581
0.0008861474412
0.0008861474446
0.0008861473719
0.0008861473875
0.0008861473949
0.0008861473981
0.0008861474
0.0008861474037
0.0008861474096
0.000886147414
0.0008861474162
0.0008861474168
0.000886147416
0.0008861474123
0.0008861474039
0.0008861473923
0.0008861474055
0.0008861474096
0.0008861474109
0.00088614741
0.0008861474003
0.000886147386
0.0008861474175
0.0008861474283
0.0008861474359
0.0008861474428
0.0008861474549
0.0008861474742
0.0008861474909
0.0008861474854
0.0008861474704
0.0008861474445
0.0008861474348
0.0008861474289
0.0008861473733
0.0008861473811
0.0008861473861
0.0008861473881
0.0008861473881
0.0008861473895
0.0008861473984
0.0008861474073
0.0008861474119
0.0008861474141
0.0008861474148
0.0008861474161
0.0008861474165
0.000886147419
0.0008861474208
0.0008861474178
0.000886147413
0.0008861474093
0.0008861474052
0.0008861474249
0.000886147438
0.0008861474434
0.0008861474489
0.0008861474592
0.0008861474695
0.0008861474725
0.0008861474797
0.0008861474788
0.0008861474707
0.0008861474463
0.0008861474627
0.0008861473759
0.0008861473818
0.0008861473853
0.0008861473866
0.0008861473858
0.0008861473893
0.0008861473984
0.0008861474038
0.0008861474073
0.0008861474098
0.0008861474119
0.0008861474151
0.0008861474154
0.0008861474154
0.0008861473647
0.0008861473982
0.0008861474177
0.0008861474077
0.000886147405
0.0008861473856
0.0008861474414
0.0008861474453
0.0008861474495
0.0008861474535
0.0008861474591
0.0008861474667
0.0008861474755
0.0008861474778
0.0008861474713
0.0008861474511
0.0008861474925
0.0008861473777
0.0008861473841
0.0008861473854
0.0008861473849
0.0008861473879
0.0008861473995
0.0008861474051
0.0008861474076
0.0008861474088
0.0008861474095
0.0008861474099
0.0008861474119
0.0008861474131
0.0008861474146
0.0008861474165
0.0008861474207
0.0008861474204
0.0008861474127
0.0008861474291
0.0008861474619
0.0008861474668
0.0008861474697
0.0008861474684
0.0008861474654
0.0008861474695
0.0008861474797
0.0008861474773
0.0008861474856
0.000886147478
0.0008861474552
0.0008861475049
0.000886147377
0.0008861473795
0.0008861473804
0.0008861473779
0.0008861473775
0.0008861473902
0.000886147399
0.0008861474045
0.0008861474074
0.0008861474087
0.0008861474092
0.0008861474088
0.0008861474126
0.0008861474147
0.0008861474201
0.0008861474231
0.0008861474237
0.0008861474272
0.0008861474526
0.0008861474745
0.0008861474776
0.0008861474794
0.0008861474761
0.0008861474735
0.0008861474777
0.0008861474904
0.0008861474726
0.0008861474914
0.0008861474968
0.0008861475034
0.000886147574
0.0008861473777
0.0008861473795
0.0008861473799
0.0008861473798
0.0008861473781
0.0008861473887
0.0008861473961
0.000886147402
0.0008861474059
0.0008861474077
0.000886147408
0.0008861474021
0.000886147413
0.0008861474172
0.0008861474249
0.0008861474267
0.0008861474281
0.0008861474376
0.0008861474618
0.0008861474764
0.0008861474771
0.0008861474763
0.0008861474759
0.0008861474806
0.0008861474982
0.00088614754
0.0008861474622
0.000886147481
0.0008861474927
0.0008861474907
0.0008861475189
0.0008861473807
0.0008861473798
0.0008861473798
0.0008861473968
0.0008861474001
0.0008861474009
0.0008861474012
0.0008861474018
0.0008861474041
0.0008861474064
0.0008861474073
0.0008861474
0.0008861474086
0.000886147414
0.0008861474287
0.0008861474314
0.0008861474345
0.0008861474427
0.0008861474592
0.0008861474633
0.0008861474353
0.0008861474481
0.0008861474699
0.000886147481
0.0008861474892
0.0008861474996
0.0008861474511
0.0008861474786
0.0008861474982
0.0008861474962
0.0008861475208
0.0008861473886
0.0008861473789
0.0008861473798
0.0008861473962
0.0008861474013
0.0008861474021
0.0008861474024
0.0008861474024
0.0008861474027
0.0008861474044
0.0008861474059
0.0008861474001
0.0008861474033
0.0008861474092
0.0008861474295
0.0008861474355
0.0008861474413
0.000886147447
0.0008861474532
0.0008861474271
0.0008861473728
0.000886147367
0.0008861473665
0.0008861473781
0.0008861474415
0.0008861474524
0.0008861474019
0.0008861474813
0.0008861475075
0.0008861475115
0.0008861475166
0.000886147394
0.0008861473773
0.0008861473802
0.0008861473919
0.0008861474013
0.0008861474026
0.0008861474033
0.0008861474034
0.0008861474028
0.0008861474022
0.0008861474028
0.000886147398
0.0008861473981
0.0008861474064
0.0008861474292
0.0008861474385
0.0008861474463
0.0008861474501
0.0008861474509
0.0008861474169
0.0008861473881
0.0008861473723
0.0008861473726
0.0008861473895
0.0008861472605
0.0008861469891
0.0008861460898
0.0008861473317
0.0008861474762
0.0008861474624
0.0008861475021
0.0008861473919
0.0008861473749
0.0008861473775
0.0008861473841
0.0008861473995
0.0008861474035
0.0008861474044
0.0008861474048
0.0008861474045
0.0008861474031
0.0008861474009
0.000886147398
0.0008861473959
0.000886147405
0.000886147423
0.0008861474379
0.0008861474492
0.0008861474521
0.0008861474518
0.0008861474201
0.0008861473929
0.000886147377
0.0008861473873
0.0008861474035
0.0008861472514
0.0008861470018
0.0008861442818
0.000886142286
0.0008861470871
0.0008861473621
0.0008861474734
0.0008861473929
0.0008861473701
0.0008861473727
0.0008861473781
0.0008861473883
0.0008861474045
0.0008861474057
0.0008861474063
0.0008861474065
0.0008861474061
0.0008861474052
0.0008861474036
0.0008861474021
0.000886147406
0.0008861474133
0.0008861474197
0.0008861474496
0.0008861474533
0.0008861474542
0.0008861474433
0.0008861473898
0.0008861473871
0.0008861474013
0.0008861474087
0.0008861472483
0.0008861470266
0.0008861462487
0.000886146639
0.0008861454152
0.0008861468192
0.0008861474482
0.0008861473943
0.000886147367
0.0008861473687
0.0008861473732
0.0008861473806
0.0008861474008
0.0008861474064
0.0008861474074
0.000886147408
0.0008861474087
0.00088614741
0.0008861474106
0.0008861474116
0.0008861474131
0.0008861474128
0.0008861473823
0.0008861474497
0.0008861474539
0.0008861474556
0.000886147427
0.000886147391
0.0008861474057
0.0008861474095
0.000886147411
0.0008861474088
0.0008861474072
0.0008861473854
0.0008861473422
0.0008861471178
0.00088614683
0.0008861473174
0.0008861473922
0.0008861473669
0.000886147367
0.0008861473691
0.0008861473731
0.0008861473835
0.0008861474053
0.0008861474072
0.0008861474084
0.0008861474095
0.0008861474111
0.0008861474124
0.000886147413
0.0008861474121
0.0008861474042
0.000886147288
0.0008861474428
0.0008861474503
0.0008861474269
0.0008861473908
0.0008861473772
0.0008861473971
0.0008861474069
0.0008861474095
0.0008861471019
0.0008861471208
0.000886147315
0.000886144913
0.000886146257
0.0008861471532
0.0008861471671
0.0008861473886
0.000886147369
0.0008861473676
0.0008861473688
0.0008861473698
0.000886147377
0.0008861473912
0.0008861473885
0.0008861474061
0.0008861474077
0.0008861474088
0.0008861474099
0.0008861474094
0.0008861474048
0.0008861473798
0.0008861473332
0.000886147408
0.000886147391
0.0008861473947
0.0008861473963
0.0008861473632
0.0008861473802
0.0008861474025
0.0008861474079
0.0008861470062
0.0008861465482
0.0008861466314
0.0008861469619
0.0008861472101
0.0008861473562
0.0008861474087
0.0008861473854
0.0008861473717
0.0008861473695
0.0008861473701
0.0008861473692
0.00088614737
0.0008861473789
0.0008861473847
0.0008861473874
0.0008861474024
0.0008861474035
0.000886147404
0.0008861474012
0.0008861473895
0.0008861473363
0.000886147231
0.0008861473824
0.0008861473238
0.000886147381
0.0008861473985
0.0008861473369
0.0008861473438
0.0008861473943
0.0008861474054
0.0008861469347
0.0008861466605
0.0008861466978
0.0008861470884
0.0008861472844
0.0008861473817
0.0008861474196
0.000886147383
0.000886147374
0.0008861473717
0.0008861473716
0.0008861473705
0.0008861473688
0.0008861473689
0.0008861473824
0.0008861473881
0.000886147397
0.0008861473965
0.0008861473957
0.0008861473893
0.0008861473681
0.0008861472915
0.0008861470816
0.0008861473477
0.0008861474264
0.0008861474299
0.0008861473773
0.0008861472358
0.000886147244
0.0008861473775
0.000886147402
0.0008861468235
0.0008861469118
0.000886147063
0.0008861472718
0.0008861473591
0.0008861473947
0.0008861474114
0.0008861473812
0.0008861473755
0.0008861473736
0.0008861473731
0.0008861473718
0.00088614737
0.0008861473682
0.0008861473819
0.0008861474102
0.0008861473953
0.0008861473925
0.0008861473932
0.0008861473963
0.0008861474144
0.0008861474377
0.000886147441
0.0008861474343
0.0008861474221
0.0008861474124
0.0008861473596
0.0008861472906
0.0008861472763
0.0008861473416
0.0008861473963
0.0008861472493
0.0008861472466
0.0008861472416
0.0008861472982
0.0008861473534
0.0008861473833
0.000886147398
0.0008861473799
0.0008861473765
0.0008861473752
0.0008861473744
0.000886147373
0.0008861473712
0.000886147369
0.0008861473774
0.0008861474054
0.0008861474168
0.0008861473983
0.0008861474034
0.0008861474168
0.000886147431
0.000886147433
0.0008861474239
0.0008861474048
0.0008861473913
0.0008861473928
0.0008861473796
0.0008861473572
0.0008861473463
0.0008861473458
0.0008861473758
0.0008861473379
0.0008861473613
0.0008861473605
0.0008861473652
0.0008861473744
0.0008861473813
0.0008861473853
0.0008861473792
0.0008861473773
0.0008861473764
0.0008861473755
0.0008861473739
0.0008861473721
0.0008861473699
0.0008861473694
0.0008861473903
0.0008861474087
0.000886147415
0.0008861474172
0.0008861474247
0.0008861474272
0.0008861474176
0.0008861473949
0.0008861473818
0.0008861473844
0.0008861473867
0.0008861473867
0.0008861473791
0.0008861473716
0.0008861473692
0.0008861473652
0.0008861473776
0.0008861473839
0.000886147385
0.0008861473835
0.0008861473807
0.0008861473779
0.0008861473704
0.0008861473789
0.000886147378
0.0008861473773
0.0008861473764
0.0008861473746
0.0008861473725
0.0008861473704
0.000886147368
0.0008861473786
0.0008861474005
0.0008861474348
0.0008861474334
0.000886147433
0.0008861474292
0.000886147415
0.0008861473922
0.0008861473852
0.0008861473871
0.0008861473871
0.0008861473877
0.0008861473883
0.0008861473875
0.0008861473901
0.0008861473928
0.0008861473887
0.0008861473877
0.0008861473866
0.0008861473827
0.0008861473771
0.0008861473678
0.0008861473557
0.0008861473789
0.0008861473785
0.0008861473781
0.0008861473769
0.0008861473748
0.0008861473724
0.00088614737
0.0008861473675
0.0008861473759
0.0008861473989
0.0008861474402
0.0008861474346
0.0008861474272
0.0008861473671
0.0008861473772
0.0008861473844
0.0008861473884
0.0008861473902
0.0008861473902
0.0008861473878
0.0008861473923
0.0008861473982
0.0008861474019
0.0008861474033
0.0008861473803
0.0008861473792
0.0008861473781
0.0008861473737
0.0008861473669
0.0008861473437
0.0008861473202
0.0008861473791
0.0008861473788
0.0008861473786
0.0008861473773
0.0008861473745
0.0008861473712
0.0008861473678
0.000886147368
0.0008861473759
0.000886147388
0.0008861474087
0.0008861474361
0.0008861474256
0.0008861473646
0.0008861473825
0.0008861473888
0.000886147391
0.0008861473923
0.0008861473928
0.0008861473888
0.0008861473911
0.0008861473974
0.0008861474002
0.0008861473951
0.0008861473643
0.0008861473747
0.0008861473811
0.0008861473826
0.0008861473824
0.0008861473856
0.0008861473926
0.0008861473786
0.000886147379
0.0008861473791
0.0008861473773
0.0008861473735
0.0008861473691
0.000886147366
0.0008861473677
0.0008861473726
0.0008861473792
0.0008861473905
0.0008861474287
0.0008861474119
0.0008861473829
0.0008861473902
0.0008861473921
0.0008861473929
0.0008861473941
0.0008861473942
0.0008861473931
0.0008861473927
0.0008861473964
0.0008861473977
0.0008861473792
0.0008861473625
0.0008861473754
0.0008861473856
0.0008861473915
0.000886147396
0.0008861473987
0.000886147401
0.0008861473779
0.0008861473793
0.0008861473798
0.000886147377
0.0008861473722
0.0008861473707
0.000886147371
0.0008861473737
0.000886147379
0.0008861473854
0.0008861473917
0.0008861473959
0.000886147392
0.0008861473917
0.0008861473926
0.0008861473932
0.0008861473938
0.0008861473944
0.0008861473945
0.0008861473944
0.0008861473952
0.0008861473976
0.0008861473986
0.0008861473938
0.000886147377
0.0008861473805
0.0008861473854
0.0008861473879
0.0008861473959
0.0008861474008
0.000886147403
0.0008861473772
0.0008861473799
0.0008861473808
0.0008861473784
0.0008861473773
0.0008861473783
0.00088614738
0.0008861473821
0.000886147384
0.0008861473855
0.0008861473867
0.0008861473879
0.0008861473897
0.0008861473915
0.0008861473926
0.0008861473933
0.0008861473941
0.000886147395
0.0008861473952
0.0008861473948
0.0008861473955
0.0008861473986
0.0008861473998
0.0008861473982
0.0008861473889
0.0008861473872
0.0008861473843
0.0008861473801
0.0008861473878
0.0008861473952
0.000886147399
0.0008861473755
0.0008861473806
0.0008861473827
0.000886147382
0.0008861473823
0.0008861473827
0.000886147383
0.0008861473832
0.0008861473834
0.0008861473837
0.0008861473843
0.000886147386
0.0008861473883
0.0008861473902
0.0008861473916
0.0008861473931
0.0008861473947
0.0008861473958
0.0008861473962
0.0008861473959
0.000886147396
0.0008861473985
0.0008861474022
0.0008861474045
0.0008861473911
0.0008861473824
0.0008861473698
0.0008861473618
0.0008861473724
0.0008861473882
0.0008861473957
)
;

boundaryField
{
    walls
    {
        type            zeroGradient;
    }
    wallFilmFace_top
    {
        type            zeroGradient;
    }
    region0_to_wallFilmRegion_wallFilmFace
    {
        type            zeroGradient;
    }
    mirrorFace_top
    {
        type            zeroGradient;
    }
    region0_to_wallFilmRegion_mirrorFace
    {
        type            zeroGradient;
    }
    procBoundary1to0
    {
        type            processor;
        value           nonuniform List<scalar> 
52
(
0.0008861473795
0.000886147366
0.0008861473629
0.0008861473606
0.00088614736
0.0008861473602
0.0008861473602
0.0008861473609
0.0008861473609
0.00088614736
0.00088614736
0.0008861473637
0.0008861473904
0.0008861473904
0.0008861473978
0.0008861474078
0.0008861474078
0.0008861474114
0.0008861474489
0.0008861477328
0.000886148147
0.000886148147
0.0008861482189
0.0008861475361
0.0008861475361
0.0008861474374
0.0008861474532
0.000886147463
0.0008861474537
0.0008861474537
0.0008861474523
0.0008861474547
0.0008861474547
0.0008861474696
0.0008861474731
0.0008861474731
0.0008861474802
0.0008861474807
0.0008861474762
0.0008861474762
0.0008861474645
0.0008861474645
0.0008861474686
0.0008861474724
0.0008861474686
0.0008861474686
0.0008861474632
0.0008861474728
0.0008861474797
0.0008861474729
0.0008861474655
0.0008861474974
)
;
    }
    procBoundary1to2
    {
        type            processor;
        value           nonuniform List<scalar> 
33
(
0.0008861475063
0.0008861475017
0.0008861475017
0.0008861474726
0.0008861474726
0.0008861474589
0.0008861474394
0.0008861474281
0.0008861474281
0.0008861474509
0.0008861474667
0.0008861475583
0.0008861475227
0.0008861475133
0.000886147508
0.0008861474974
0.0008861474851
0.000886147484
0.000886147484
0.00088614747
0.0008861474375
0.0008861474327
0.0008861474199
0.0008861474004
0.0008861473977
0.0008861473996
0.0008861473997
0.000886147396
0.0008861474002
0.0008861474042
0.0008861474055
0.0008861474045
0.0008861473994
)
;
    }
}


// ************************************************************************* //
