/*--------------------------------*- C++ -*----------------------------------*\
  =========                 |
  \\      /  F ield         | OpenFOAM: The Open Source CFD Toolbox
   \\    /   O peration     | Website:  https://openfoam.org
    \\  /    A nd           | Version:  8
     \\/     M anipulation  |
\*---------------------------------------------------------------------------*/
FoamFile
{
    version     2.0;
    format      ascii;
    class       surfaceScalarField;
    location    "2/wallFilmRegion";
    object      phi;
}
// * * * * * * * * * * * * * * * * * * * * * * * * * * * * * * * * * * * * * //

dimensions      [1 0 -1 0 0 0 0];

internalField   nonuniform List<scalar> 
2656
(
-0.006605649213
-0.006011401752
-0.008205184277
-0.0005733304139
-0.007286050477
0.0003772940317
-0.006344555332
0.001561902387
-0.004781717389
0.003121457569
-0.003459909961
0.003730390252
0.004452506423
-0.003597903092
-0.006553599614
-0.004656842262
-0.001330544011
-0.005399559913
-0.0009741431399
-0.006024334579
-0.0006870657752
-0.006198147315
-0.0004952721518
-0.006354267246
-0.0003036872587
-0.00630459473
-0.0001094480315
-0.005943927181
0.0004902349457
-0.004477057392
0.002336355876
-0.00207260639
-5.16183852e-05
-0.0002336810953
-0.001774699514
-0.008009842755
-0.002277181654
-0.001904391999
-0.002470003195
-0.001574713529
-0.002541471517
-0.001278625753
-0.002384587822
-0.00111787184
-0.001990279939
-0.000873798477
-0.001527422104
-0.0005441741917
-0.001338203976
-0.0002584675725
-0.0009022468315
-0.0001566271691
-0.001075221427
-0.0003415317582
-0.001330866847
-0.0008109713067
-0.001903986127
-0.001694663612
-0.002842100575
-0.001776088463
-0.009475033092
-0.001911448055
-0.002273844288
-0.001885735304
-0.001881503108
-0.001849671119
-0.001613161013
-0.00176017126
-0.001551438803
-0.001535347108
-0.001379456413
-0.001212270479
-0.001006996984
-0.001016485822
-0.0005854935283
-0.001107864541
-0.000416854606
-0.001540697393
-0.0006291228495
-0.002263875039
-0.001236193411
-0.002845567953
-0.002107060691
-0.002866329825
-0.002932232677
-0.00209004846
-0.003600167215
-4.928615928e-05
-0.003732340209
0.0005224819284
-0.001438327569
-0.001850857637
-0.002117173237
-0.01110673743
-0.002112627946
-0.002311379442
-0.002152302473
-0.001827930391
-0.002306580441
-0.001610719116
-0.002493575005
-0.001720700151
-0.002509309279
-0.001741584064
-0.002197504807
-0.001464420205
-0.00186380274
-0.0009365911768
-0.002014820527
-0.0006293056396
-0.002718443648
-0.0008305874458
-0.003580381004
-0.001374683601
-0.003957081861
-0.001946408764
-0.003592458054
-0.002293586783
-0.002386653626
-0.002448523671
0.0001149575656
-0.002388737143
0.001165902601
-0.001676254449
0.0007248769533
-0.002271025346
-0.0003055235918
-0.002866167135
-0.002456202681
-0.002043382787
-0.01257561797
-0.001858241567
-0.001959438778
-0.00196194761
-0.001391312815
-0.002310456704
-0.001198945488
-0.002872357633
-0.001396309183
-0.003441612572
-0.001546260495
-0.003554239303
-0.001459387812
-0.003127827164
-0.00105861715
-0.003007028621
-0.0006415766516
-0.003741081228
-0.0005524967731
-0.00465400669
-0.000657878771
-0.004821329753
-0.0006708822534
-0.004010126274
-0.0003405359155
-0.002550360431
0.0002632661121
-6.65955711e-05
0.0002643589975
0.001367785467
-0.001128443866
0.0008471456011
-0.001087249057
-0.0002605684195
-0.001380339378
-1.9166389e-06
-0.001508217148
7.786584739e-05
-0.0002730466619
0.0006736341983
-0.0007403362921
-0.0002608691027
-0.00171342338
-0.00117992389
-0.001573296572
-0.01284535271
-0.001232798301
-0.001355299995
-0.001307794832
-0.0008022142007
-0.001571773705
-0.0006673522777
-0.001948687116
-0.0009256896637
-0.002257267648
-0.001268701852
-0.002238076635
-0.00151201909
-0.001849334913
-0.001331836311
-0.001520522373
-0.0008268048679
-0.001486817694
-0.0006175309686
-0.001581138972
-0.0007059172446
-0.001688570231
-0.0006150620426
-0.001953288111
7.265447627e-05
-0.002072926209
0.001462224239
-0.001045588092
0.002183994874
-0.0009387013215
-0.001135505552
-0.0006906572997
-0.001007888453
-0.0003932293218
-0.0009524141589
1.359636589e-05
-0.0008735163757
8.688765331e-05
-0.0003473779526
0.0001493293955
-0.0003298400852
-0.0007599667155
-0.0008585613505
-0.001659624387
-0.001227540195
-0.00222801953
-0.0003318234951
0.0007866275724
-0.0009335982877
-0.01093966392
-0.0005840352847
-0.0007456480265
-0.0006454805099
-0.0003142451694
-0.0008685312973
-0.0002377486423
-0.001314478329
-0.0004007969298
-0.00192440803
-0.0007741120613
-0.002387431447
-0.001300955775
-0.002361545338
-0.001527090274
-0.002232370827
-0.001130156122
-0.002143611177
-0.0008307645917
-0.001986873687
-0.0007549814659
-0.002207232024
-0.000600624296
-0.002955808383
-0.0003747534792
-0.003160344958
0.0003924362217
-0.001221344583
0.001480706266
-0.001035036861
-0.0009256818814
-0.0006502134808
-0.0007426581727
-0.0003057122542
-0.0005581522163
5.067535103e-05
-0.0004341585543
0.0002911491217
-0.0003318316249
0.0002811335539
-0.0003466019884
-7.704675199e-05
-0.0002821647768
-0.001267277331
-0.0006230031405
-0.001304210984
-0.0004381514329
-0.0008415231823
-0.0003070501769
-0.0001548957591
-0.0004326691995
-0.008123631797
-0.0002028395345
-0.0003590396984
-0.0002219598086
-0.0001193359072
-0.0003123345243
-8.246679482e-05
-0.0006061883051
-0.0001259175301
-0.001399684251
-0.0002883585896
-0.002650752738
-0.0008121460245
-0.00335708802
-0.001464294367
-0.003183495794
-0.001377556301
-0.002523278316
-0.0008818139416
-0.001818326859
-0.0005974122688
-0.001774535528
-0.0003927712857
-0.002452333142
-0.0003578126386
-0.003122692551
-0.0003806316841
-0.001831200781
-0.0002297816152
-0.001315099439
-0.0005813540234
-0.0006491826977
-0.0003913596691
-0.0002392511709
-0.0001980657108
7.829226594e-05
-0.0001189820567
0.0005144575736
-0.000233136749
0.0009010782268
-0.0003472584026
0.0008315079819
-0.0003503473222
0.0002521971442
-0.0001708780354
-0.0002129674655
0.000608451685
0.0005166693399
-0.000509239028
-0.002419186131
-0.000165913556
-0.005940311535
-7.853472533e-05
-0.0002033339156
-9.614495639e-05
-0.0001007638769
-0.0001138402104
-9.372331581e-05
-0.0002140465379
-0.0001024428337
-0.0007459230609
-0.0001028843232
-0.002453275773
-0.0001975354224
-0.00443914743
-0.0005579546138
-0.00446134657
-0.0009115704446
-0.002992927646
-0.0006056518819
-0.001695395092
-0.0003326586999
-0.001579868457
2.440234861e-06
-0.002285571586
0.0001282124879
-0.003198084162
0.0002135865263
-0.003048183247
0.000268266648
-0.001934798746
0.0002833153266
-0.0007023244947
0.0002649722181
-0.0001956321099
0.0002215154593
9.247894833e-05
0.0001256857472
0.001035539036
-5.720626377e-05
0.002395920279
-0.0001074472134
0.003298244076
6.990557811e-05
0.003921512974
-9.032996366e-05
0.003842424984
0.0002261372043
0.0014648123
0.0001334296504
0.002265926179
0.0005529991478
0.0004543213829
-9.685043254e-05
-0.004233700003
-8.208921535e-05
-0.0001248196393
-0.0001471081235
-0.0002019241668
-0.0001389811125
-0.0002659195804
-0.000117231506
-0.0002218799697
-0.0001661369151
-0.000123588368
-0.0004301355856
-0.0001767292652
-0.001176383003
-0.0002529492304
-0.00178994996
-0.000336845539
-0.002158326143
-0.0004196340513
-0.001928936674
-0.0003447499451
-0.001285254636
0.000253846086
-0.001141554284
0.0004780570359
-0.001413043769
0.0005401100113
-0.001863266875
0.000667139167
-0.001819981352
0.0007472384169
-0.000747861782
0.0007994856926
-0.0003343007119
0.0009014681924
-0.000122142218
0.0007151916681
-0.0001290006336
-6.79376013e-07
-9.832983319e-06
-3.140302101e-05
-0.0002457118004
2.783085934e-05
-0.001303556752
-6.047811107e-05
-0.001729555518
-0.0001524519779
-0.0008464476161
0.0003498506679
0.0009270198765
0.001732994444
0.0005517219565
-0.0001059230582
-0.002863452104
-0.0001899541854
-0.0001732705402
-0.0003963094603
-0.0005997201569
-0.0003200225998
-0.0006842764819
-0.0001957010238
-0.0004250986179
-0.0002077822177
-0.00011318844
-0.0002535634015
-0.0001416273138
-0.000352958526
-0.0001543585143
-0.000563044176
-0.0001623074986
-0.001137059115
-0.0001836459465
-0.002297916759
-0.0002178235945
-0.002983511902
-0.0002308317929
-0.002370738546
0.000536996876
-0.002091901432
0.001178189162
-0.002332848163
0.0011661302
-0.002522201881
0.0007459105131
-0.001544782043
0.0002945686803
-0.0007312870736
0.001970029441
-8.940758785e-05
0.002105581766
-7.177509879e-05
6.086243049e-05
-0.0002952670562
0.0001179264182
-0.0005489076793
-0.0009469207612
-0.0009390230555
-0.0002895756581
-0.0007196890721
-0.001228529059
8.087990147e-05
3.981190319e-05
0.001538827166
0.001620405283
0.0006758468431
-0.000327417781
-0.001818692252
-0.0006018096791
-0.0004343399398
-0.000745999079
-0.001157872542
-0.0004834993856
-0.0009964596871
-0.0002217495182
-0.0005405143259
-0.00021350766
-8.576181345e-05
-0.0001976721809
-0.0001120593959
-0.0001856245994
-0.0001215452891
-0.000204753644
-0.0001271041539
-0.000297371385
-0.0001409888381
-0.00059347825
-0.0001623038181
-0.001541491765
-0.0001892775533
-0.002868373274
-0.0001516388336
-0.002876929088
0.0005904484144
-0.002707858859
0.0009567199157
-0.002972021176
-0.000253323982
-0.00479964114
-0.002249015718
-0.003452099751
-0.002711429628
-0.0005214797332
0.004368832811
-0.0006235612493
0.0001266049779
-0.0007552059691
-0.0001038610027
-9.912496644e-05
-0.001724060508
-0.0003098620787
-0.001596504243
-0.0003111916463
-0.002411042834
0.0002958408499
-2.411223329e-05
0.001245148568
0.0008893242414
0.001318258152
0.0007784485409
0.0007125815017
-0.0006524131998
-0.0007855090486
-0.001021912922
-0.0009532928887
-0.0008820921591
-0.001335442478
-0.000493752259
-0.00100622392
-0.0001931130455
-0.0005257131598
-0.0001901271429
-6.564409956e-05
-0.0001731740836
-8.992284276e-05
-0.0001580580422
-0.0001058413787
-0.0001685098495
-0.0001253165152
-0.0002176866267
-0.0001541683826
-0.0003316637161
-0.0001824139897
-0.0006093338101
-0.0001984006676
-0.001265910268
-0.0002070579083
-0.00186061248
-0.0001913780902
-0.00161589015
-0.0002460680355
-0.002171885005
-0.001425220752
-0.003194427298
-0.003646419646
-0.003633625455
-0.003615861301
-0.001037680828
-0.001848570644
-0.001615709506
-0.0007868916365
-0.001978854414
-0.0005772718107
4.364605e-05
-0.0006739392115
0.0004364285141
-0.001978616687
6.777629889e-05
-0.001236791973
0.000566958878
-2.076266337e-05
0.001093809121
0.0008548400775
0.001251362774
0.001270899403
0.0005401158645
0.001239891752
0.0008331568471
-0.00104197249
-6.552462964e-05
-0.001177690221
-0.001219572297
-0.0008589109447
-0.001158971747
-0.000458388251
-0.0008574831969
-0.0001768730082
-0.0004569513804
-0.0001797562107
-5.411137749e-05
-0.0001780382945
-8.536170148e-05
-0.0001867469132
-0.0001199461793
-0.0002220609035
-0.0001670980926
-0.0002884280796
-0.000237297954
-0.0003771590728
-0.0003353859179
-0.0004839409969
-0.0004452965954
-0.0006868992282
-0.0005361977079
-0.001188199902
-0.0006951956545
-0.002073076075
-0.001130257868
-0.002514524014
-0.001990349057
-0.001470739814
-0.002686206195
-0.0009214233539
-0.001307885559
-0.001307599312
-0.0006464894072
-0.0005721811808
-0.0008175833728
-0.001492739753
-0.0005902127052
-0.002060530186
-0.0001752203037
0.0003006162367
-0.0001925870381
0.0009634355881
-1.102767264e-05
0.001156425386
-5.644850748e-05
0.0009938917599
0.001066483134
0.0009464875785
0.001451194327
0.0005329214443
0.001450437634
0.001159682631
-0.001219317158
0.0001520459884
-0.001151194512
-0.001098489366
-0.00081681814
-0.00087238016
-0.0004448541081
-0.0006643744316
-0.0001864541348
-0.0003722106323
-0.0002083182096
-5.458840376e-05
-0.000249024719
-0.0001070767603
-0.0003229057449
-0.000179628833
-0.0004461401157
-0.000275553014
-0.000622889484
-0.0004343578975
-0.0008275427745
-0.000684981512
-0.001024970851
-0.0009320013188
-0.001307435184
-0.0009437140428
-0.001871109416
-0.0007281159856
-0.002550600924
-0.0005918979058
-0.00227905135
-0.0005835235917
-0.000521439721
-0.0004123498513
-0.0002262264272
-0.0001493605445
-0.0003507692051
-3.458469955e-05
-0.0002143629024
-9.098284778e-05
-0.0008425787926
-0.0003017147013
-0.0008839021794
5.862358391e-05
0.0006707933511
0.0009826792845
0.0005693533035
0.000628838993
0.0002397788926
-0.0002299032637
0.0002528376316
0.0004666295604
0.0003189798932
0.000803373005
0.0003925258761
0.0009983617921
0.001019340079
-0.001308486518
0.0003804187024
-0.001112892425
-0.0007784207277
-0.0008007104427
-0.000554222423
-0.000457738714
-0.0004384537798
-0.0002330055884
-0.0002502294922
-0.0003030765058
-4.944288299e-05
-0.0004479305702
-0.0001457637127
-0.0006673877278
-0.0003012263184
-0.0009855192297
-0.0004438862193
-0.001384878859
-0.0007148954508
-0.001718074775
-0.001174063333
-0.001739790663
-0.001531690962
-0.001405068931
-0.001387644397
-0.001061823354
-0.0007432906606
-0.0008583950229
-0.0002512788139
-0.0004928011961
-0.0001685166851
-0.0001060120645
-0.0001018964113
-1.718063051e-05
-4.726468771e-05
-1.842770793e-06
-6.390856772e-06
9.247958299e-05
-2.627556406e-05
0.0001588092608
-0.0001042564137
-0.0008399623878
-6.746520554e-05
-0.0006416458299
0.0009730238697
-9.357495865e-05
0.0008171697778
0.0001280823218
-0.0005548981399
0.0002087585201
0.0001713926337
0.0002513527851
0.0003240411815
0.0003322748405
0.0005722440718
0.0005408336487
0.0004676101664
0.0004068984038
-7.084292217e-05
-0.0001260201274
-0.0009471302768
-0.001679285481
-0.0003406552425
-0.001898115052
0.0009005208364
0.0002810963946
-0.001328488539
0.001290491862
-0.001093746126
-0.0003041709313
-0.0007895149512
-0.0002131778819
-0.0004394627599
-0.0001711719624
-0.0002176584208
-7.77345853e-05
-0.0003038881613
-1.825016355e-05
-0.0006169089277
-0.000122399198
-0.001006347223
-0.0005311616774
-0.001478480925
-0.0005460797718
-0.001955140065
-0.0007829104794
-0.002203930232
-0.00133597782
-0.001947273872
-0.001704158382
-0.001251362907
-0.001505513716
-0.0005787455203
-0.0008038901658
-0.0003399381658
-0.000174497726
-0.0001638370824
-0.0001179684711
-5.279223889e-05
-8.420669056e-05
-3.94334288e-06
-4.764379508e-05
3.738151768e-07
-5.727248348e-06
6.155715334e-05
-3.324775345e-05
0.0003076138966
-8.575210529e-05
0.0008802715597
-0.0002820678469
0.0003643585292
-0.0002450456412
7.015785024e-05
0.0007400814143
0.0004805136156
-0.003564738862
0.000430430979
0.0004598620532
0.0003226561706
0.0002102430454
0.0003423433265
0.0003670571655
0.0002637325643
0.0002501994443
0.0001663788562
-0.0006823363601
0.0001926956491
-0.0007619550514
-9.188308515e-05
-0.0007155934645
-0.0005128793142
0.0003401997344
0.0005476458615
-0.001687484112
0.003299820935
-0.00123725242
0.0003638167824
-0.0008714417668
0.0002169812407
-0.0003924256804
0.0001767390108
-1.761109549e-06
8.510962753e-05
0.0002503565167
3.612348637e-06
0.0007021062242
-1.978913614e-06
-0.0005866718038
-4.853138191e-05
-0.001268924783
-0.0002525394616
-0.001682577836
-0.0006451437757
-0.001869207491
-0.001147115618
-0.001612789426
-0.001358069834
-0.001080389448
-0.001084190933
-0.000570395708
-0.0005607263811
-0.0003586471104
-9.296438505e-05
-0.0002022107298
-9.050526938e-05
-8.351171793e-05
-8.953869374e-05
-5.85511618e-06
-2.490282102e-05
-1.629850521e-05
9.282328714e-07
8.769361726e-05
-0.0001111831737
0.0004547967839
-0.0002677872203
0.001630361652
-0.0002973410098
0.002956746428
-0.0003131436766
0.001254322526
0.001119663367
0.001074641933
-0.001735741899
0.0007339902366
0.0009748999361
0.0003062736665
0.0005210315782
0.0001468962424
0.0004337771713
-0.0003530583285
0.000484878072
4.607172071e-05
-9.482440803e-05
0.0003338659077
-0.0003935404581
0.0002358929237
-0.0004291877729
6.261298478e-05
-8.444096034e-05
-0.001317011448
0.004327840473
-0.001037105132
0.0008462727562
-0.0007496642343
0.0005454617328
-0.0003925515314
0.000447416989
-0.0001230925342
0.0002351143817
-0.000142934759
2.153873245e-05
-0.000236239225
1.079947863e-05
-0.0004685337277
-5.903244227e-05
-0.000863740283
-0.0002621705437
-0.001289410393
-0.0006217520953
-0.001375229633
-0.000972293929
-0.00104198803
-0.0009630348099
-0.0005968309322
-0.000687829196
-0.0002578501003
-0.0003685344467
-0.0001564016448
-4.517978507e-05
-0.00010164177
-1.279106095e-05
-0.0001760715026
3.561272159e-05
-3.918439483e-05
0.0003423556899
-6.918758246e-05
0.0001390383142
-0.0001675216891
-2.028961818e-07
-0.000757355258
4.98619885e-05
-0.0005996067471
5.447497194e-05
-0.0002181591716
0.0001548435357
0.0002702217174
0.0008989854322
0.0004314649623
0.002287608342
0.0004882750902
0.001412110908
0.0001279943374
0.0009982495929
-1.900832964e-05
0.0005804632251
0.0002018326973
0.0003544951162
0.0001866423342
3.046727124e-05
0.0002034497404
-0.0003225574915
0.0003823769486
-0.0003315182897
-0.001706534383
0.004647330343
-0.001514304265
0.001421990246
-0.001224906371
0.001002780881
-0.0008079499887
0.0008114054218
-0.0004292052967
0.0004268918702
-0.0004198705417
6.964959943e-05
-0.0004955007039
4.643293213e-05
-0.0007532756084
1.297365711e-05
-0.001164384594
-0.0002896918029
-0.001432426404
-0.0005757404543
-0.001243948115
-0.0007067159974
-0.0008098580277
-0.0005449894994
-0.0004908922781
-0.0003268949216
-0.0003154629143
-0.0001577614304
-0.0001884749818
4.896454798e-05
-0.0001490924097
9.101081375e-05
-0.0002142721418
0.0001695762308
-7.097392334e-05
0.0003533124834
-1.127483895e-05
0.0001715984613
-2.199405368e-05
3.655329864e-06
1.5667074e-05
1.114494041e-05
8.413715304e-05
9.019924442e-06
0.0003279092694
1.682345429e-05
0.001026483882
3.043224472e-05
0.002325397234
0.001356736902
0.002838349889
0.002898360665
0.001392293263
0.002187093115
0.0001426622907
0.0007056888444
-0.0003329432664
0.0002863948081
-0.0003327016561
6.781136888e-05
-0.0001599288653
0.0001560218675
0.0001607593889
-0.003202699366
0.005747598737
-0.003670169428
0.002393802479
-0.003933083131
0.002062427975
-0.004295321924
0.001879629958
-0.004626508917
0.001186407758
-0.004376028053
0.0002879875708
-0.003581992918
0.0003877617719
-0.002720252862
0.0004511642971
-0.002128074521
0.0003254226946
-0.001730564773
7.977656499e-05
-0.001127817109
-0.0002222733903
-0.0005971330008
-9.072985932e-05
-0.0003891010899
-2.870042673e-05
-0.0003423622542
1.37748737e-05
-0.000274337914
0.0001178771957
-0.0002535840149
0.0001788906815
-0.0002490393558
0.0002697417278
-9.854862304e-05
0.0003768170998
-3.856580927e-05
0.0002202673337
1.228049865e-06
4.032092008e-05
0.000149613969
0.0002024333818
0.0004930729604
7.794055723e-05
0.001043623361
-0.0001926304702
0.001303417085
-0.0004646520154
0.001622486655
0.0009563871677
0.001292899537
0.002955665654
0.0003452851117
0.001713073765
-0.0003108846316
0.0005797136756
-0.0003682282644
0.0004447978829
-0.000416379764
0.0004908201261
-0.0005766571404
-7.664465689e-06
0.0005093362138
-0.003949484053
0.007972308904
-0.004890254747
0.002482434332
-0.005379863082
0.001902252355
-0.005667040254
0.001325831898
-0.006571290206
0.0002273008906
-0.009668264239
-0.0004805708444
-0.01362174054
-0.0005126222329
-0.01508508297
-0.0003351615972
-0.0117715989
7.166416789e-05
-0.006193749473
-4.903564377e-05
-0.001609557709
-0.0005172680519
-0.0004433130388
0.000396068935
-0.0001334622052
0.0001252373927
-2.636480069e-05
3.809118772e-05
0.0003564055285
8.477796927e-05
0.001054349686
0.000320420739
0.001732273588
0.0008543331476
0.0005674936976
0.001696372976
2.515772139e-05
0.0004766093036
7.721659986e-05
2.891363146e-05
0.0004338673585
7.323987996e-05
0.001453604667
0.0001846426831
0.004308473553
0.0005043995439
0.007942764004
0.0005367455665
0.005977437683
0.001172770121
0.001302076589
0.00177389607
1.569291424e-05
0.0006964003858
-6.011626494e-05
0.0003905582148
-0.0002832580286
0.0005004592338
-0.0007525512545
0.0007133432946
-0.0008105878916
-0.002323861755
-0.003886912908
0.007476314606
-0.004581772379
0.002077248625
-0.004646496009
0.001106307407
-0.003756231707
0.0001351505176
-0.002515844095
-0.0004351703043
-0.002706816379
-0.0005917079322
-0.004850393984
-0.0008118322681
-0.008502610464
-0.001044062242
-0.01105503426
-0.001469145253
-0.00912473029
-0.002316936912
-0.002991823244
-0.002709343336
-0.001577609896
0.001657834829
-0.001308757923
0.001114308453
-0.001671053798
0.001068581259
-0.0003157617645
-9.737690347e-06
0.0009632502513
-6.890389783e-05
0.001022108156
0.001089592624
-1.609313041e-05
0.001892247102
-0.0001071128258
0.0005974382385
5.533948764e-05
4.006401419e-05
0.0003506326852
8.858480232e-05
0.001117861303
0.0004256778655
0.001062242161
0.001055440285
0.0003381462963
9.025845935e-05
-0.0001908192227
0.0001725808167
-0.0008734762213
6.643785511e-05
-0.0003874600487
-0.0006368586518
-1.897552148e-05
-0.0002436465021
-0.0001042229508
0.000484807364
-9.840540849e-05
0.0006638214534
-0.002120010902
-0.004820418324
0.005183528987
-0.005136951959
0.00145367006
-0.00373300872
0.0002444146335
-0.001919390001
-0.0002133724925
-0.001339174566
-0.0003245513908
-0.002040707529
-0.0006495851232
-0.003147135725
-0.0008683826345
-0.004211704073
-0.0008859827322
-0.005090927479
-0.0008686122055
-0.005180231448
-0.0008890891404
-0.003449960703
-0.0005439102098
-0.00195254945
0.002175168626
-0.0009189632116
0.001706823044
-5.252341636e-05
0.001024331082
1.165691747e-05
3.319055002e-06
0.0002836627347
5.66267259e-05
-0.0001406468776
0.002683436681
-0.0001460983657
0.001526252494
-3.399150554e-05
0.0005797275974
6.77115969e-06
1.64368598e-05
0.0001773442162
3.650806535e-05
0.0005121762181
7.7412927e-06
0.00103893872
0.0002831096442
0.001820196639
0.0006602529108
0.001938013112
0.001307614887
-0.0002915723076
-0.0006448283426
-0.0001549923056
-0.001355252409
0.0007073026133
-0.00117670296
0.0004331760387
-0.0003666772765
0.0002720212892
0.0006122725454
-0.000711684999
-0.005044657569
0.001606298701
-0.003385063514
-0.0004326311794
-0.001247337856
-0.001032667108
-0.001005536748
-0.0001125106461
-0.002040952109
-0.0001336862629
-0.003987238151
-0.000181191512
-0.005511864909
-0.0001363927729
-0.005591157189
0.0004706229498
-0.004686869206
0.001322214414
-0.002973855598
0.00181076796
-4.646379932e-05
0.001827087006
0.002481825783
0.002438661585
-0.0003835893839
0.004953874886
-0.0003687063263
0.001676989583
-0.000744848149
0.0003444070194
-0.001484343286
0.001187422654
-0.0004521487135
0.002742745905
-0.0004109199533
0.001511808244
-0.0005889924811
0.0008532220173
-0.0009406211191
0.0002546771157
-0.001041250579
0.0003323748868
-0.0004582921103
0.0002329845582
-3.93868268e-06
0.0004444873647
-0.0001231793623
0.001422336673
-0.001004208253
0.001281640257
-0.0009860624965
-0.0008927293301
-6.81869246e-05
-0.001483895452
0.0005524953355
-0.001468796857
0.0004060051971
-0.0008114034188
0.0005117587684
0.0004552846309
-1.477005406e-05
-0.007768975769
-0.0007213904113
-0.005056236077
-0.002754168206
-0.0003716814427
-0.002654124127
-0.0002856108629
-5.155825522e-06
-0.0004530780557
-6.515089493e-05
-0.0008187756257
-0.000110088279
-0.001664003724
-9.071945832e-05
-0.002866522308
0.0003843928441
-0.003327860049
0.001724752917
-0.002496239725
0.002951553728
-0.0001821821509
0.0032682083
0.0007843480908
0.001512790276
-0.0007903871908
0.004402566163
-0.0006728585579
0.001930263538
-0.001158575781
0.0007221681931
-0.001566162801
0.001881652611
-0.0007243251949
0.002742037307
-0.0008651235513
0.001720958611
-0.001279762743
0.001153932978
-0.0014537607
0.0004325569196
-0.0009281125591
0.0004447096143
-0.0009505672057
0.0004199105485
-0.00117027657
0.0005758937383
-0.001088488798
0.001018892153
-0.0007362474974
0.0005473763039
-0.0004426410662
-0.0003404271985
-0.0009100472787
-0.0009375790146
-0.00232348472
-0.0006220108447
-0.001106513036
0.0006232618666
-6.461829426e-06
0.0001793760216
2.496064981e-05
-0.005018820121
0.001999876816
-0.005891456736
-0.002165935833
-0.000312983767
-0.003722344321
-0.0002107068412
0.0001477181065
-0.0002812580932
3.037744644e-05
-0.0003839053766
8.886478926e-06
-0.0006886609161
3.552214872e-05
-0.001483268316
0.0002866911587
-0.002251683033
0.001324478446
-0.002010414305
0.00304455561
-0.0004410986368
0.003932359206
-0.0003519416881
0.0009013606595
-0.001175712145
0.003140320406
-0.001028952533
0.001989535724
-0.001493228365
0.001240011574
-0.001644952084
0.002478729068
-0.0008659221066
0.002845031637
-0.000881372974
0.001802653457
-0.001216672511
0.001121859601
-0.001620936357
0.0003454136529
-0.001375540643
-0.0002557414167
-0.001113412948
-0.0003902053812
-0.001162131259
-2.198012119e-05
-0.0011045673
0.0003154863823
-0.0005851224875
0.0004265852294
7.186393743e-05
0.0002833197432
0.0002043854568
-0.0005917979811
2.763733067e-05
-0.0005802457671
0.0001846014211
0.0006515185645
0.0006741181431
0.000497825501
0.0007889811055
-0.002758980002
0.002076865603
-0.007583391346
-0.00292881087
-0.001388070791
-0.0002405973552
-0.0008997322066
0.0007495853283
-0.0007070464513
0.0003159082766
-0.000594555091
0.0002443103456
-0.0005956247112
0.0002461722645
-0.0008694636386
0.0003351341315
-0.001397529126
0.0008497263621
-0.001448397791
0.002337216643
-4.784872438e-05
0.003613962145
0.0003351567779
0.0005586522744
0.000246840194
0.001669054543
-0.000544850972
0.002191883146
-0.001656682002
0.00198351167
-0.001987304378
0.003153567729
-0.001037302259
0.003866700267
-0.0006044356426
0.002347225791
-0.0004992204695
0.0009991450323
-0.0005671439882
2.671333784e-05
-0.001124086015
-0.0007635691086
-0.001316616155
-0.001094591717
-0.001143126803
-0.0006578928639
-0.000721970835
-0.0007792468142
-0.0001470053677
-0.000121672315
0.0003549718745
-0.0001237370177
2.768716418e-05
-0.0002175904738
-6.966725708e-07
-0.0005450432477
0.0002809188259
5.478481701e-05
0.0005214468449
0.0003887586631
0.002015792704
-0.002486892471
0.001164127708
-0.006047689222
-0.003285148827
-0.002307573786
0.001763017412
-0.001332286387
0.001368507845
-0.001052475318
0.0006737063804
-0.0008525320527
0.0005322699995
-0.0006837781622
0.0005135033634
-0.0006176796851
0.0005040130036
-0.0007693534875
0.0006287573586
-0.0008841184549
0.00130932664
0.0001314267069
0.002567287182
0.0005083771936
0.0004895987594
0.0008123834423
0.0008123707563
0.000168533028
0.001298243035
-0.001347611726
0.001615694822
-0.00224716647
0.003218719277
-0.001373317436
0.00597676238
-0.0005638224456
0.003947656545
-0.0003832366183
0.001177896477
-0.0006067097653
-9.588104183e-05
-0.0009281659412
-0.001611223082
-0.0006990154125
-0.001767853691
-0.000510380381
-0.00137721087
-0.0001147414087
-0.002587882065
0.0001266098353
-5.31876304e-05
0.0001799934635
-1.248500042e-05
1.656038229e-05
-8.548504377e-06
-0.0003737375562
-5.424738392e-05
-0.0002340121138
-0.0004212420381
0.0006072916139
-0.0001430707364
0.002904739599
-0.004232133349
0.001200831584
-0.008114484858
-0.003234931792
-0.004121617202
0.0004020532666
-0.001711125799
0.001868337378
-0.001412939378
0.001134245061
-0.001165783044
0.0009413827794
-0.0008911258663
0.0009187074774
-0.00062973189
0.0008435797363
-0.0004660890723
0.000735703062
-0.0004114661705
0.0007487675352
0.0001295672755
0.001262285869
0.0003382614331
0.000407969225
0.0003317347399
0.0004615920679
5.221312742e-05
0.0005448240511
-0.0007506439102
0.000746665119
-0.001932455122
0.001947470142
-0.001689137482
0.0071753843
-0.0006510112054
0.005354293293
-0.0003896102358
0.001506881239
-0.0008513264395
-0.0001742559315
-0.0008412923628
-0.002774423686
-0.0007114763485
-0.001727578054
-0.000738672827
-0.001762478578
-4.566902552e-05
-0.004231911106
-5.824586064e-06
-5.658841559e-05
3.097184356e-06
-1.332856228e-05
3.192227799e-07
-2.597703047e-06
-1.885284513e-05
-9.703566213e-07
-5.451644242e-05
-5.221935064e-06
0.0002645340829
-5.911587578e-05
0.001918586109
-0.004698193086
0.00314033263
-0.009707022027
-0.003269301792
-0.009273195417
-0.002539322269
-0.002694672179
0.001303815365
-0.001886207169
0.001719276363
-0.001690776484
0.001585068893
-0.001337968182
0.001566694838
-0.0009384340719
0.001479357368
-0.0005764102563
0.001223510882
-0.0003375894056
0.0008575224815
-8.162530036e-05
0.000602494115
-6.899992547e-06
0.0003465334485
-1.759578524e-05
0.0002810221596
-7.079216667e-05
0.0002422084574
-0.0001522014799
0.0002511089469
-0.0005853444811
-5.145265732e-05
-0.001678985718
0.006217903243
-0.000688543927
0.005446733451
-0.0003593732519
0.001767933937
-0.001213542386
0.0001229717917
-0.0008036727283
-0.003317534986
-0.0008813627596
-0.001281608179
-0.001132454151
-0.001757341487
-3.317336239e-05
-0.004209418131
-6.118175086e-06
-4.587127768e-05
-2.361727157e-07
-1.108107888e-05
-2.188143577e-07
-4.648859012e-06
1.519265385e-07
-6.871665637e-06
1.020471079e-05
-1.420186836e-06
6.487478314e-05
-7.707122591e-06
-0.0001042375443
-0.002972326705
0.003749204441
-0.00631611836
-0.004421754358
-0.01013389963
-0.003785112463
-0.007410805862
-0.002434474118
-0.002335283349
0.002518732001
-0.002282969626
0.00220211722
-0.001976976103
0.002249207753
-0.001478891421
0.002247290623
-0.0009501100381
0.001921679817
-0.0005250936233
0.001260057335
-0.0003045768718
0.0005330777851
-0.0001874040987
0.0003860306603
-0.0001329661749
0.0002589944027
-9.590586593e-05
0.0001761093714
-2.550789487e-05
0.0001109900048
1.796457357e-05
-3.144467132e-05
-0.001036730374
0.003037575396
-0.0005270038463
0.004467228812
-5.057551374e-05
0.001674877353
-0.0009490375679
0.0003949805635
-0.001044054635
-0.001419520785
-0.00150359031
-0.0006217637127
-0.001792414507
-0.0007478229166
-8.371207103e-06
-0.001519283159
-1.819042728e-07
2.155855427e-07
-5.519582737e-07
1.713651627e-06
-1.098680527e-06
2.863413116e-07
6.528402969e-07
-5.751258067e-05
9.917592467e-07
-1.258096479e-05
4.718979491e-06
-7.011392979e-06
-1.710647676e-05
-0.001065375694
0.003414594684
-0.003259350972
-0.00618585592
-0.006472082102
-0.00517325955
-0.01004305125
-0.004803329407
-0.003814019276
-0.00197249654
-0.002357829048
0.002048857567
-0.002356238272
0.002382787554
-0.001898695165
0.002419676815
-0.001291411326
0.002231102619
-0.0007588607193
0.001462543511
-0.0005884391192
0.0006240407731
-0.0004416754914
0.0005313356732
-0.0003107218748
0.0003792589367
-0.000172730391
0.0002225151766
-1.643149695e-05
6.734615249e-05
-9.853919097e-05
-9.337708497e-06
0.0001083747489
0.0004730093495
9.232587236e-05
0.002337367862
0.0002605951711
0.001058077558