/*--------------------------------*- C++ -*----------------------------------*\
  =========                 |
  \\      /  F ield         | OpenFOAM: The Open Source CFD Toolbox
   \\    /   O peration     | Website:  https://openfoam.org
    \\  /    A nd           | Version:  8
     \\/     M anipulation  |
\*---------------------------------------------------------------------------*/
FoamFile
{
    version     2.0;
    format      ascii;
    class       volScalarField;
    location    "1.2";
    object      alphat;
}
// * * * * * * * * * * * * * * * * * * * * * * * * * * * * * * * * * * * * * //

dimensions      [1 -1 -1 0 0 0 0];

internalField   nonuniform List<scalar> 
67286
(
0.0002310714811
0.00023693584
0.0002281901358
0.0002351657712
0.0002465554802
0.0002562481096
0.0002571474977
0.0002519579375
0.0002432176359
0.0002323044461
0.0002190956099
0.0002014085028
0.0001760861237
0.0001709311749
0.0001752091888
0.0001798753214
0.0001847235294
0.000189746352
0.0001937906275
0.0001961372919
0.0001977607266
0.0002025797424
0.000194749146
0.000207850369
0.0002387718806
0.0002747641541
0.0002991800511
0.000293404679
0.0002397020909
0.0002552627795
0.000246002672
0.0002555176648
0.0002769068812
0.0002983568516
0.0002975890578
0.0002742043395
0.0002563498992
0.0002414387221
0.0002255324058
0.0002058824047
0.0001885334034
0.0001893056297
0.0001936236784
0.000196109372
0.0001978331347
0.0001996817631
0.0002011011923
0.000201422592
0.000201387335
0.0002062471216
0.0001905913781
0.0001984472529
0.0002163211037
0.0002391829678
0.0002624583175
0.0002727350543
0.0002753423582
0.0003052904955
0.0002436341353
0.0002084024213
0.0002476838347
0.000273776194
0.0002680116627
0.0002876754098
0.0003272645527
0.0003629736016
0.0003624742187
0.0003094198273
0.0002716791064
0.0002474837476
0.0002264573314
0.000208074947
0.0002036055716
0.0002109242995
0.0002158339721
0.0002165617338
0.0002153255433
0.0002143796583
0.0002136272143
0.0002129871426
0.0002145297637
0.0002214960993
0.0001977525142
0.000200789573
0.0002125467328
0.0002314740026
0.0002581240416
0.0002894140975
0.0003175753157
0.0004288292451
0.0003138716908
0.0002327575905
0.0002561116916
0.0002937194656
0.0002980946682
0.0003375590226
0.0003961509753
0.0004408114198
0.0004424163624
0.0003672616046
0.0002974881954
0.0002524304916
0.0002236352658
0.0002165448653
0.0002240748162
0.0002366158224
0.0002442388647
0.000243347443
0.0002404700465
0.0002400537223
0.0002408054644
0.0002399935893
0.0002359242733
0.0002290357742
0.0002249432699
0.0002199912656
0.0002172527352
0.0002256997312
0.0002486872203
0.0002837790379
0.0003499640383
0.0004560175203
0.0003565423287
0.0002649830321
0.0002266319734
0.0002651932177
0.0003160630551
0.000342254307
0.0004033429797
0.0004731132355
0.0005198334927
0.0005189434108
0.0004387283818
0.0003352345349
0.0002564920942
0.0002255573924
0.000234207465
0.0002501253379
0.0002673790656
0.0002844785738
0.0002768165555
0.0002705453002
0.0002735209016
0.0002798561362
0.0002836425001
0.0002836685602
0.0002812488246
0.0002777301097
0.0002685621661
0.0002501380882
0.000242824823
0.0002736318422
0.0003237703736
0.0003680202325
0.0004177529645
0.0003285147938
0.0002665906331
0.0002492055092
0.0002764822564
0.0003507345286
0.0004143149436
0.0004815728409
0.0005409458309
0.0005703156609
0.0005573436882
0.0004780133073
0.0003508474212
0.0002609887405
0.0002372293927
0.0002608063014
0.0002771905045
0.000310432631
0.0003571482651
0.0003224116243
0.0003041567729
0.0003130189725
0.0003267008476
0.0003338883543
0.0003373616784
0.0003412990906
0.0003434545031
0.0003352877859
0.0003064207196
0.0002741344712
0.0002975356119
0.0003344882987
0.0003628402016
0.00032433751
0.0002776382972
0.0002713878914
0.0002778323382
0.0002631979464
0.0003114648432
0.0003492399551
0.0004125533028
0.0004717207815
0.0005052490565
0.0004839506158
0.0003413457595
0.0002479914744
0.0002350940177
0.0002545575744
0.0002820053103
0.0003194059508
0.0003857488239
0.0004843578547
0.0003814777927
0.0003409823892
0.000361635876
0.0003832470178
0.0003888440833
0.0003908404734
0.0003990910669
0.0004085988038
0.0004037524441
0.0003763072897
0.0003253715451
0.000325263771
0.0003571332358
0.0002954917298
0.0002827110967
0.0002952315053
0.0003078284858
0.0003132752897
0.0002531470634
0.0002858056923
0.0002965825755
0.0003423015395
0.0003921939495
0.0004148504214
0.0003794311003
0.0002561742414
0.0002328457225
0.0002516351272
0.0002804562491
0.0003064713006
0.0003282224413
0.000344823848
0.0003595793845
0.0003661915803
0.0003893063392
0.0004272716128
0.0004535571472
0.0004502796626
0.0004424217794
0.0004506726321
0.0004624890583
0.0004665449112
0.0004491774814
0.0003942596873
0.0003534579229
0.0003719497258
0.0003234497079
0.0003231180382
0.0003370258467
0.0003458549793
0.0003473716145
0.0002433467054
0.0002673100194
0.0002574608589
0.0002773099563
0.0003150523839
0.0003298898377
0.0002899608555
0.0002299415632
0.0002458402635
0.0002770928122
0.0003073640155
0.0003328356065
0.0003533643246
0.000367909621
0.0003816262879
0.0004085006449
0.0004562966918
0.0005105204596
0.0005390103411
0.0005224917338
0.0004941769405
0.0004943070634
0.0005081106332
0.0005182490526
0.0005148134643
0.0004745075746
0.0004001280922
0.0003510129533
0.0003450003996
0.000359848277
0.0003750226103
0.0003814743624
0.0003794968938
0.0002319892072
0.0002542713113
0.0002372127037
0.0002310861886
0.0002498124946
0.0002562811364
0.0002353499696
0.0002358342823
0.0002674114391
0.0003006068131
0.0003297770815
0.0003544987876
0.0003749996891
0.0003940658455
0.0004215176508
0.0004716409201
0.0005411587515
0.0006050481922
0.0006334460145
0.0006050981426
0.0005481325509
0.0005280812606
0.000538863204
0.0005506816136
0.0005535554634
0.0005272651987
0.0004614507852
0.0004337742725
0.0003860449499
0.0003925070735
0.0004069174272
0.0004097245615
0.0004049475066
0.0002235160863
0.0002461945206
0.0002294548745
0.0002071936579
0.0002114572241
0.0002161299669
0.0002226652351
0.00025024762
0.0002859152757
0.0003195757573
0.0003479120918
0.0003703986158
0.000393026103
0.0004249603837
0.0004762265905
0.000548666669
0.0006282594553
0.0006942690305
0.0007206126928
0.0006872768546
0.0006051143421
0.0005522214127
0.0005545742395
0.0005652689441
0.0005689479072
0.000545889317
0.0005065343266
0.0005810006168
0.000455109909
0.0004253287681
0.0004298109311
0.0004296393319
0.0004236610487
0.0002153086403
0.000237062239
0.0002200082525
0.0001923705552
0.0001920031462
0.0002005848933
0.0002224437539
0.0002608265068
0.0003076121912
0.0003525036657
0.0003820953765
0.0003936709753
0.0004130880797
0.0004659871647
0.0005423999933
0.0006236172952
0.0006974590637
0.0007548576394
0.0007760685939
0.000741163648
0.0006595359707
0.0005637927566
0.0005445625758
0.0005564172787
0.0005549556111
0.0005234860134
0.0006056113656
0.0007685392794
0.0006044431596
0.0004692233477
0.0004451864862
0.0004421510429
0.0004362764528
0.0002054051411
0.0002234345204
0.0002027192046
0.0001767719125
0.0001785280909
0.0001976143549
0.0002411349003
0.0003086440927
0.0003847313324
0.0004485453865
0.0004802855919
0.0004631471484
0.0004265849671
0.0004407157289
0.0004937109365
0.0005672034421
0.0006420327106
0.0007016039373
0.000729458548
0.0006931933448
0.0005957024454
0.000526240969
0.000516300025
0.0005247084857
0.000513985156
0.0004430801215
0.0004777417044
0.0006506708067
0.0004854695604
0.000450476617
0.0004510998136
0.0004492273874
0.0004434436094
0.0001952853863
0.0002041720418
0.0001777763575
0.0001611187021
0.0001768150671
0.0002235833166
0.0003015059472
0.0003971883475
0.0004949159925
0.0005742504386
0.0006111004146
0.0005894244354
0.0005156709377
0.0004721111444
0.0004891134488
0.0005262311486
0.0005776773493
0.0006288428233
0.0006553527766
0.000616714095
0.0005333668581
0.0004897044927
0.0004753423372
0.0004758427217
0.0004576761967
0.0004015824302
0.0004150583266
0.0004930043369
0.000448721659
0.0004512893217
0.0004541595372
0.0004517041832
0.0004444266161
0.0001842436774
0.0001786658072
0.0001580652462
0.0001696888606
0.0002099526136
0.000271232333
0.0003514397943
0.0004413112132
0.0005298688703
0.0006042134031
0.0006427649068
0.0006210094542
0.0005230869575
0.0004878333363
0.0005004784602
0.0005160888948
0.000536170223
0.0005625278898
0.0005786563928
0.0005397195318
0.0004800153174
0.0004485153836
0.000426691145
0.0004235888567
0.0004101963701
0.0003876982712
0.0004105065118
0.000440512497
0.0004485887207
0.0004564807643
0.0004581737962
0.0004535836829
0.0004436688415
0.0001698041036
0.0001580431976
0.000167821628
0.0002004560369
0.0002359637752
0.000274514439
0.0003233178692
0.0003873668785
0.0004614692463
0.0005290862628
0.0005677721921
0.0005527607666
0.0004819743734
0.0004771024982
0.0004953095317
0.0005085912736
0.0005156146642
0.0005184206056
0.000513239421
0.0004729601341
0.0004314696878
0.0004033650764
0.0003815894111
0.0003812249978
0.0003827032185
0.0003902095575
0.0004185343799
0.0004398299437
0.0004552893689
0.0004681556364
0.0004687770763
0.00045840979
0.0004430642371
0.0001530660188
0.000162968198
0.0001888786517
0.0002172181638
0.0002447443172
0.0002731223534
0.0003047188836
0.0003442213387
0.0003943370049
0.0004472593702
0.0004818583411
0.0004774726652
0.000443915216
0.0004578101894
0.0004788880565
0.0004926951012
0.0004961200614
0.0004866873091
0.0004604152518
0.0004161485704
0.00038676501
0.0003634939197
0.000348747879
0.0003583634649
0.0003760122268
0.0004006066735
0.000427845574
0.0004486599764
0.0004718525894
0.0004929956062
0.0004896996253
0.0004698102337
0.0004450148232
0.000146153858
0.0001774698524
0.0002000308692
0.0002214959398
0.0002441281738
0.0002686643542
0.0002938662051
0.000319883311
0.0003495010647
0.0003830472864
0.0004105721404
0.0004167116983
0.0004104648331
0.0004311355011
0.0004524315334
0.0004660854035
0.0004676679937
0.0004518306682
0.0004124125126
0.0003709694562
0.0003502641832
0.0003352993831
0.000334175196
0.0003542859964
0.0003813381337
0.0004106894693
0.0004348809853
0.0004535380034
0.0004750510791
0.000498379972
0.000497474931
0.0004723079727
0.0004420720865
0.000151145138
0.0001868350704
0.0002058688214
0.0002237597119
0.0002432977458
0.0002648746633
0.0002867261947
0.0003069547014
0.0003255848982
0.0003442832181
0.0003617632116
0.0003717167048
0.0003780923003
0.0003980123047
0.000417348592
0.0004297029617
0.0004293412114
0.0004098420295
0.0003682485911
0.0003373210555
0.0003251630132
0.0003214107504
0.0003327752992
0.0003588172052
0.0003895997329
0.0004174661207
0.0004388847147
0.0004542117819
0.0004677399733
0.0004845817705
0.0004845709625
0.0004608683949
0.0004314464695
0.0001551483672
0.0001904637783
0.000207960894
0.0002243289828
0.0002421272749
0.0002614849175
0.0002809094248
0.0002979497004
0.0003112929147
0.0003216858165
0.0003305292958
0.0003376758512
0.0003454712829
0.0003608368425
0.0003765069684
0.0003867144699
0.0003851171128
0.0003663354626
0.0003341005559
0.0003161731628
0.0003119810206
0.000317079097
0.0003354611337
0.0003638612544
0.0003941154888
0.0004198972472
0.0004397473256
0.000453509385
0.0004625690597
0.0004694946746
0.0004660485082
0.0004448414898
0.0004176289781
0.0001545913461
0.0001897543792
0.0002069424612
0.0002226585744
0.0002393246651
0.0002570839331
0.0002743379157
0.0002887418384
0.0002987285386
0.0003043318273
0.0003072366655
0.0003100254291
0.0003147997872
0.0003245430095
0.0003354344954
0.0003430341502
0.0003421245216
0.0003296243625
0.0003119582806
0.00030485005
0.0003056300051
0.0003149335107
0.0003356534773
0.0003642232692
0.0003929284667
0.0004173174333
0.0004364619762
0.0004497620953
0.0004571719255
0.0004569355337
0.0004486381081
0.0004286642343
0.0004025139479
0.0001498938454
0.0001852359567
0.0002028611458
0.0002183217746
0.0002340240251
0.0002502073666
0.0002656250358
0.0002779643283
0.0002855608953
0.0002880192715
0.0002869149108
0.0002855703696
0.000286436476
0.0002916707758
0.0002992375792
0.0003056817004
0.0003074533578
0.0003034418606
0.0002977801315
0.0002969453979
0.0002997820581
0.0003100826171
0.0003306099782
0.0003580290405
0.0003855698561
0.0004091989846
0.000428059198
0.000441304438
0.0004481419977
0.0004440282639
0.0004319506397
0.0004114711982
0.0003848208837
0.000141218225
0.0001765887675
0.0001953051453
0.0002108781512
0.0002257818197
0.0002404290477
0.0002541214096
0.0002648931703
0.0002709384493
0.0002715407594
0.0002679534894
0.0002631361924
0.0002602154858
0.000262247921
0.000268470247
0.0002756324633
0.0002809670641
0.0002836774003
0.0002850979728
0.0002872318006
0.0002909079742
0.0003009180721
0.0003199814719
0.0003453292344
0.0003719567265
0.0003951559186
0.0004138442573
0.0004270567179
0.0004335674427
0.0004271071987
0.0004123606011
0.000390323392
0.0003627560031
0.0001288564138
0.0001633316413
0.0001837156126
0.0001999135946
0.0002143833629
0.0002278717815
0.0002398923544
0.0002493210457
0.0002544239912
0.0002541932207
0.0002493768613
0.0002418870903
0.0002355247451
0.0002352354245
0.0002416475369
0.0002506036538
0.0002588535314
0.0002653776573
0.0002701073309
0.0002738421396
0.0002785853692
0.0002884347596
0.0003043855041
0.0003274817321
0.0003522956088
0.0003750163601
0.0003934510368
0.0004064697274
0.0004125652016
0.0004038536407
0.000386872817
0.0003631643167
0.0003362148396
0.000114188338
0.0001461878225
0.0001681924851
0.0001853663538
0.0001997617391
0.0002125427133
0.0002235296879
0.0002318244698
0.0002362410719
0.0002358115425
0.0002303631681
0.0002211270931
0.0002121415252
0.0002100771306
0.0002168940614
0.0002273235138
0.0002372335438
0.0002454070949
0.0002514665309
0.0002561041097
0.0002615546535
0.0002709645675
0.0002850047476
0.0003057580692
0.0003278611535
0.0003489654493
0.000366810617
0.0003793828906
0.0003847945146
0.0003731526773
0.0003544454739
0.000331286161
0.0003051475277
9.984455167e-05
0.0001282807653
0.0001507875031
0.0001684980976
0.0001826697347
0.0001947875406
0.0002050206875
0.0002126512946
0.0002166713053
0.0002161508409
0.0002106605911
0.0002011596642
0.0001917102967
0.0001890341036
0.0001950510261
0.0002047539943
0.0002142861055
0.0002223911062
0.0002286556898
0.0002337821321
0.0002398401966
0.0002492131397
0.0002622816774
0.0002806819911
0.000300196963
0.000318757448
0.0003345574478
0.0003459847035
0.0003500183304
0.0003361905352
0.0003179053851
0.0002956434365
0.0002720828187
0.0001512984277
0.0001137363332
0.0001352749666
0.0001523659349
0.0001655354104
0.0001763764775
0.000185436003
0.0001922416996
0.000195906301
0.0001955934104
0.0001910261753
0.0001834364509
0.0001766175525
0.0001751227374
0.0001791930627
0.0001854518183
0.0001917270629
0.0001972887288
0.0002019615174
0.0002065460868
0.0002129520899
0.0002228780279
0.0002359096454
0.0002524739203
0.0002695432003
0.0002856451215
0.0002992789739
0.0003086193615
0.0003104904631
0.0002963668931
0.0002791649123
0.0002597410968
0.0002431968717
0.0001393500688
0.000105066846
0.0001243871383
0.0001397731853
0.0001512404988
0.000160156205
0.0001673344825
0.000172693343
0.000175671055
0.0001757255131
0.000172939473
0.000168747092
0.0001658916548
0.0001661963694
0.0001686327139
0.0001711974556
0.0001729863802
0.0001739296448
0.0001745301637
0.0001763099775
0.0001817432298
0.0001922449108
0.0002061064078
0.0002216666071
0.0002365720418
0.0002499966024
0.0002609757253
0.0002679119631
0.0002677408267
0.0002551245616
0.0002426373847
0.0002306807435
0.0002240485059
0.0001469801074
0.0001055442062
0.00011949327
0.0001312031183
0.0001401386972
0.0001468189913
0.0001518488178
0.0001553974027
0.0001573238267
0.0001575141859
0.0001563293363
0.0001549062435
0.0001546494664
0.0001558746958
0.0001574426085
0.0001580087647
0.0001569034435
0.0001541061492
0.0001505392335
0.0001487200599
0.0001522686802
0.0001625089181
0.0001764325726
0.0001906426187
0.000203128596
0.0002134926678
0.0002213756866
0.0002258798412
0.0002251926096
0.0002178857109
0.0002126486278
0.0002092256292
0.0002090511477
9.173170704e-05
0.0001095045063
0.0001163976761
0.0001223282292
0.0001272307808
0.0001309232027
0.0001334920953
0.0001350265702
0.000135588021
0.0001353251509
0.0001346455535
0.0001342287438
0.0001346273553
0.0001357034468
0.0001366294271
0.0001364657238
0.0001345859926
0.0001309775246
0.0001273000506
0.0001274661876
0.0001336128131
0.0001430903439
0.0001530615106
0.0001621941685
0.0001697513205
0.0001755451046
0.0001795307673
0.0001815251374
0.0001811530628
0.0001787169583
0.0001773290207
0.0001764590543
0.0001763452619
0.0001871793078
0.0003741990414
0.0004590502868
0.000588547639
0.0007006549741
0.0007547822527
0.0007624213873
0.0007642218574
0.000666492376
0.0005130426419
0.0003429681999
0.0002491333299
0.0002307909407
0.0002584411319
0.0003047959816
0.0003569371792
0.0004137519245
0.0004629715057
0.0005022700558
0.0005371550875
0.0006051523417
0.000711591381
0.0006307122629
0.0005889705764
0.00077577015
0.0009805786649
0.001092506611
0.001131374525
0.0002053824157
0.000488528659
0.000587598103
0.0007213928318
0.0008498994018
0.000911592786
0.0009077637821
0.0008608964557
0.0007540043964
0.0005847368474
0.0003998646896
0.0002884191649
0.0002765433383
0.0003220714573
0.0003827054188
0.0004442186843
0.0005008615543
0.0005491509027
0.0005866819804
0.0006218146039
0.0006779970961
0.0007322689292
0.0006088084184
0.0006395021418
0.0007996201178
0.001023457084
0.001171208965
0.001267729048
0.001352999439
0.001369341485
0.0008414741739
0.0005015112303
0.0002256472653
0.0006273262167
0.0007410596575
0.000867855847
0.0009910938129
0.001041260097
0.001039792664
0.000970437231
0.0008268721804
0.0006167490213
0.0004323504235
0.0003331739599
0.0003424895239
0.0004099312342
0.000478399172
0.0005367590357
0.0005753377659
0.0006015067741
0.0006226613257
0.0006621369522
0.0007484741675
0.0007801710738
0.0006323269161
0.0006553276339
0.0007948653022
0.001024674664
0.001251838231
0.001458583888
0.001846089729
0.001810599158
0.00130875703
0.0006183779869
0.0002435924765
0.0007499195004
0.0009044602605
0.001022464418
0.001145374748
0.001253170054
0.001260274879
0.001134886077
0.0009012754786
0.0006324235456
0.0004574878281
0.0004043717267
0.0004525584364
0.0005496143751
0.0006191728463
0.0006694076398
0.0006774553989
0.0006764179374
0.000668751703
0.0006620351509
0.0006636806558
0.0006619899293
0.0006436326603
0.0006767004816
0.000787945769
0.001021518026
0.001340435728
0.001606203198
0.001796067196
0.001864857852
0.001337620802
0.0006795945757
0.0005152253304
0.0002581636312
0.0008285486341
0.00102740044
0.001161700357
0.001363200269
0.001512355462
0.001490495743
0.001295535689
0.0009714886724
0.0006790450901
0.0005163088434
0.0005549087018
0.0006629364187
0.0008131195295
0.0008770740288
0.0008886786089
0.0008305582907
0.0007910931006
0.0007650373912
0.0007418590236
0.0007170476517
0.000696638645
0.0006919469476
0.0006958836308
0.0007800341645
0.00103647217
0.001432852376
0.001680344068
0.001734308045
0.001640261626
0.001097599556
0.0006522641999
0.0005996770085
0.0002627207576
0.0008258256955
0.0009963206099
0.001145057694
0.001395369352
0.001544558746
0.001494162854
0.001236239803
0.0008977594541
0.0007058977374
0.0006196265066
0.0007348813768
0.0007976531773
0.00106612848
0.001397297916
0.001293507514
0.001050541098
0.0009357154431
0.0008988381377
0.0008804524614
0.0008546563292
0.0008298703343
0.0008250082248
0.0007747967184
0.0008135355341
0.001025019879
0.001396444643
0.001596886464
0.001540712298
0.00119436791
0.000754933369
0.0006557589433
0.0007446632772
0.0002491415634
0.000728521869
0.0008441164907
0.0009576194835
0.001182889572
0.001332433753
0.00126670946
0.001019656658
0.0007032698269
0.0005837113242
0.000613785358
0.0007700460323
0.001051847288
0.001553086317
0.001904452916
0.001837512255
0.001312821448
0.001109236976
0.00108013928
0.001086573028
0.001080750568
0.001087887888
0.001190633103
0.0009928737801
0.0009696112059
0.001070966366
0.001318694623
0.001453863087
0.001276498271
0.0008241620113
0.0007277828215
0.0008304411705
0.0009836736938
0.0002275429471
0.0005390781294
0.0005386936356
0.0005781583774
0.0007368805747
0.0008354334043
0.000786236976
0.0006345292487
0.0005418389586
0.0005686076848
0.0006965466356
0.0008888567854
0.001112120146
0.001379661683
0.001721779613
0.001570005693
0.001354835869
0.001301518925
0.001337407994
0.00136635793
0.00137009265
0.001344020984
0.001323241808
0.001281605691
0.001252301438
0.001231267839
0.001262821506
0.001290161275
0.001047177857
0.0008730308433
0.0009621949385
0.001128249088
0.001257375231
0.0002064944341
0.0004383616419
0.0004018025242
0.0004069718236
0.0004793696799
0.0005261347198
0.0004907756867
0.0004697999003
0.0005110389265
0.0006464978254
0.0008555669225
0.001072165164
0.001223835589
0.00135052074
0.001453318243
0.001502856535
0.001526364981
0.001582301603
0.001637447425
0.001656116161
0.001649817725
0.001598724715
0.001561377813
0.001545595294
0.001524488487
0.001471756432
0.001312286326
0.001136246503
0.001060748915
0.001135214295
0.001304801492
0.001405995199
0.001462767877
0.000205185124
0.0004565594651
0.0003752719488
0.0003357827353
0.0003607326238
0.0003694578588
0.0003646289302
0.0004071269288
0.0005400532922
0.0007580447117
0.001008707177
0.001211241093
0.001358035545
0.001472702629
0.001566433352
0.001651388779
0.001754157107
0.001894056198
0.001988149967
0.001988810479
0.00194356893
0.001837641401
0.001750493332
0.001716795172
0.001705788065
0.001699980372
0.001685986057
0.001535975711
0.001443853717
0.001494267167
0.001548714691
0.001590024445
0.001613961432
0.0002088827935
0.0004724082139
0.0003707811256
0.0002999542372
0.000302305179
0.0003038032438
0.0003261589601
0.0004283198002
0.0006287858992
0.0008920141686
0.001158189213
0.001373244273
0.001525382235
0.001632827675
0.001713599212
0.001803150239
0.001959209927
0.002144476802
0.002222824286
0.002212922559
0.002159009943
0.002030956486
0.001893254933
0.001827379484
0.001820271733
0.001894294842
0.002166123501
0.002539384533
0.002096266448
0.001796434814
0.001725414389
0.001717935791
0.001722941234
0.0001992121389
0.0004236461287
0.0003312245215
0.0002662172137
0.0002626512932
0.0002730877836
0.0003357563202
0.0004917388477
0.0007369408126
0.001040904109
0.001342729503
0.001577078164
0.00173664034
0.001829497702
0.001876768721
0.001943968292
0.002082881682
0.002227916656
0.002271167278
0.002274921279
0.002236241388
0.002144588011
0.002001863233
0.00191230105
0.001913264884
0.002116496228
0.002734581412
0.002855033723
0.002735922807
0.002045667699
0.001850074451
0.001803160544
0.001798622263
0.0001804837216
0.0003420845474
0.0002709538851
0.0002347916848
0.0002351257135
0.0002634977051
0.0003705255064
0.0006041579893
0.0009901372974
0.001467670273
0.001831813836
0.002005683482
0.002069576224
0.002070949647
0.002085196929
0.002117648327
0.002186839263
0.002268480559
0.002294299233
0.002288909711
0.002259387209
0.0021343903
0.001991151241
0.001891976431
0.001848091739
0.00191942889
0.002310215937
0.002902130467
0.002317033838
0.001984689455
0.001875341815
0.001847610973
0.001844622523
0.0001580210416
0.0002590813134
0.000223591134
0.0002137435578
0.0002285719351
0.000302131273
0.0004922831565
0.0008432208043
0.00131818277
0.001754129723
0.002044105612
0.002165242617
0.002192025721
0.0021841482
0.002152967381
0.002162767111
0.002201958766
0.002225799937
0.002215937479
0.002193437601
0.002146267575
0.002008747799
0.001873320866
0.001760021964
0.001699906202
0.001708735984
0.001952690052
0.002119692539
0.00203830849
0.001933262754
0.001900809447
0.00188491153
0.001872138507
0.00014040056
0.0002119268099
0.0002056757118
0.0002171377204
0.0002578643254
0.0003549716393
0.0005481939939
0.0008955849239
0.001338739567
0.001759722712
0.002022451918
0.002120234009
0.002159148314
0.002131102085
0.002077363628
0.002085656129
0.002129828224
0.002152972456
0.002127841341
0.002075194543
0.001987285955
0.00182660367
0.001643510708
0.00149946387
0.001508938203
0.001660648329
0.001861380503
0.001967665921
0.001972272489
0.001966627622
0.001960209242
0.001933901193
0.001893110638
0.0001318746043
0.0002009760585
0.00022609696
0.0002701975418
0.0003441362359
0.0004695264509
0.0006643052161
0.0009370375223
0.001260776913
0.001585563608
0.001829517391
0.001945768889
0.002007680085
0.001997457954
0.001971401173
0.001991150623
0.002031633857
0.002054294795
0.002028271111
0.001949797823
0.001819376312
0.001622911176
0.001397741214
0.001320318203
0.001450170142
0.001706544411
0.001857994665
0.001944895025
0.002003165245
0.002047104436
0.002038577136
0.001988434022
0.001906488607
0.0001275108429
0.0002192352134
0.0002827495245
0.000362285531
0.0004590168277
0.000592433067
0.0007706478125
0.0009793754736
0.001212494007
0.00143309777
0.001612587235
0.001737330377
0.001822423448
0.001846499868
0.001858097374
0.001888598266
0.001919001558
0.001928036596
0.001892367495
0.001788337797
0.001624360591
0.001422790191
0.001276537672
0.001298255894
0.00150821149
0.00174460217
0.001873021897
0.001957880119
0.00203688145
0.002091053622
0.002080775329
0.002015540148
0.001897298056
0.0001285893117
0.0002499208053
0.0003458875347
0.0004492810958
0.0005595918651
0.0006940443137
0.0008583188219
0.001032331403
0.001201358541
0.001361153835
0.001486929928
0.001584300598
0.001657008643
0.001696297604
0.001728457481
0.001762812662
0.001785114838
0.00178156517
0.001731518441
0.001590977048
0.001447921757
0.001313788086
0.001266786823
0.00136758758
0.00159419348
0.001767461643
0.001878481753
0.001958849531
0.002033087118
0.002090126869
0.002069385389
0.001993070918
0.001852032484
0.0001334392366
0.0002718001643
0.0003865777448
0.000503299816
0.000623388241
0.0007573671925
0.0009066862834
0.001053395138
0.00118372132
0.001291794961
0.001375506505
0.001439630399
0.001490592264
0.001530476451
0.001568976311
0.001605009915
0.001626897893
0.001622315521
0.001568481882
0.001442332149
0.001350210277
0.001288622408
0.001313682178
0.001460299738
0.001634020337
0.001769130551
0.001866679678
0.001939678802
0.002005872687
0.002050697508
0.002019389857
0.001930522923
0.001776403579
0.0001356712906
0.0002737302918
0.0003923905569
0.0005155691278
0.0006419527445
0.0007747726033
0.0009073692089
0.001029146769
0.001126945897
0.001196246732
0.001240543733
0.00126924343
0.001295010829
0.001327652758
0.001371009926
0.001416766722
0.001452334797
0.001464369842
0.00142669149
0.001356677081
0.0013129135
0.001298334278
0.001362136781
0.001503988456
0.001635464511
0.001749877258
0.001839024691
0.001903249514
0.001952727584
0.001978141746
0.001938685876
0.001840078954
0.001679636597
0.0001339259294
0.0002573974308
0.0003678185236
0.0004918513867
0.0006219453132
0.0007507601655
0.0008724683934
0.0009758199333
0.001046540798
0.00108019865
0.001080818646
0.001058687831
0.00104720966
0.001068120184
0.001124734958
0.00119723614
0.001263016785
0.00130733248
0.001310788263
0.001294506571
0.001283337317
0.001292795201
0.00136843781
0.001489931799
0.001602335702
0.001707482718
0.001792940335
0.001851539927
0.001885981882
0.001891470434
0.0018419933
0.001733875252
0.001567043185
0.0001288473872
0.00023147134
0.0003240000539
0.0004397515015
0.0005691614879
0.000697234012
0.0008090641445
0.0008979154003
0.0009479902472
0.0009530597982
0.0009163458133
0.0008497026457
0.0008017290207
0.0008060265568
0.0008658352139
0.0009588334082
0.001057440052
0.001139011622
0.001187710054
0.001208911294
0.00121854835
0.001239790232
0.001311910205
0.001426376331
0.001533798217
0.001636523583
0.0017212482
0.001777373216
0.001802523747
0.001792946062
0.001731006841
0.001612164876
0.001435468846
0.0001210620437
0.000204255721
0.0002750331024
0.0003719042679
0.0004905510053
0.0006167070203
0.0007240592989
0.0008003499359
0.0008369008229
0.0008260307909
0.0007641767633
0.0006694239589
0.0005975616018
0.0005864352045
0.0006402612525
0.0007380830371
0.0008518753041
0.0009563429444
0.001032355433
0.00107914279
0.001111594804
0.001144971556
0.001199657389
0.001315355507
0.001427101068
0.001531321319
0.001616313183
0.001671146338
0.001690831445
0.00167181707
0.001597758913
0.001465880991
0.001275503728
0.0001112294855
0.0001805886501
0.0002331061225
0.0003066348158
0.0004028743854
0.0005145027407
0.0006219726284
0.0006955676348
0.000725830643
0.0007080116519
0.0006357696716
0.0005363795519
0.0004592799728
0.0004374141744
0.0004746066819
0.0005544554809
0.0006548167309
0.0007544558825
0.0008364331089
0.0009013772747
0.0009642602967
0.001014470783
0.001037664368
0.001152747401
0.001282184447
0.001389042292
0.001473722848
0.001526699792
0.001542295972
0.001517468824
0.001432466221
0.001288212149
0.00108078255
0.0001003652189
0.000162496511
0.0002037315973
0.0002588047109
0.0003309025203
0.0004172876318
0.000507613714
0.0005801055794
0.0006136649682
0.0005981472307
0.0005382241923
0.000458448371
0.0003948263588
0.0003711957318
0.0003896200605
0.0004371097361
0.0004998162163
0.0005666397817
0.0006282642412
0.0006857386178
0.0007508887789
0.0008129486818
0.0008423522468
0.0009525440977
0.001094399831
0.001213014649
0.00129379123
0.001344063479
0.001355533563
0.001324952544
0.001235782826
0.001066950365
0.0009111223291
8.986909878e-05
0.0001504752188
0.0001860006474
0.0002310628184
0.0002875665598
0.000352553097
0.0004199795676
0.0004775832565
0.0005103339614
0.000509115511
0.0004775813184
0.0004325247885
0.0003957196987
0.0003807378349
0.000386289564
0.0004020587375
0.0004212976295
0.0004427671508
0.0004668514006
0.0004970392612
0.0005405452956
0.0005957346666
0.0006481092873
0.0007460136688
0.0008679406271
0.0009873846784
0.001084068874
0.001136893392
0.001145614068
0.001104220409
0.0009979950959
0.000882151315
0.0008145896178
0.000350091357
0.0001482401761
0.0001767878312
0.0002172720632
0.00026699321
0.0003206408924
0.0003725307324
0.0004158351737
0.0004438749022
0.0004532965715
0.0004474287621
0.0004357549907
0.0004282467612
0.0004282727507
0.0004303416953
0.0004260654717
0.0004131424394
0.0003959616828
0.0003817799801
0.0003786263065
0.0003937842859
0.0004300465982
0.0004833652142
0.0005618395373
0.0006544306086
0.0007471902762
0.0008270727197
0.0008804604394
0.0008956244996
0.0008671357326
0.0008147651291
0.0007818382414
0.00079323504
0.0003398401053
0.0001497337089
0.000173470231
0.000210023796
0.0002549077845