/*--------------------------------*- C++ -*----------------------------------*\
  =========                 |
  \\      /  F ield         | OpenFOAM: The Open Source CFD Toolbox
   \\    /   O peration     | Website:  https://openfoam.org
    \\  /    A nd           | Version:  8
     \\/     M anipulation  |
\*---------------------------------------------------------------------------*/
FoamFile
{
    version     2.0;
    format      ascii;
    class       volScalarField;
    location    "1.2";
    object      nut;
}
// * * * * * * * * * * * * * * * * * * * * * * * * * * * * * * * * * * * * * //

dimensions      [0 2 -1 0 0 0 0];

internalField   nonuniform List<scalar> 
67286
(
0.0002003608659
0.0002054457651
0.0001978623988
0.0002039110127
0.0002137870963
0.0002221916677
0.0002229716182
0.0002184719242
0.0002108932958
0.0002014305247
0.0001899771698
0.0001746406538
0.0001526836065
0.0001482137689
0.0001519232367
0.0001559691946
0.0001601729028
0.0001645283327
0.0001680351371
0.0001700699171
0.0001714775791
0.0001756560284
0.0001688662302
0.0001802262325
0.0002070382103
0.0002382469541
0.0002594177764
0.0002544098406
0.0002078445686
0.0002213371356
0.0002133077197
0.0002215581975
0.0002401047789
0.0002587040685
0.0002580384198
0.0002377617212
0.0002222802376
0.0002093508154
0.0001955584873
0.0001785199513
0.0001634766116
0.0001641462191
0.0001678904066
0.0001700457376
0.0001715403813
0.0001731433476
0.0001743741391
0.0001746528202
0.0001746222535
0.0001788359317
0.0001652610838
0.0001720728599
0.0001875712385
0.0002073946429
0.0002275765155
0.0002364872731
0.0002387480457
0.0002647155472
0.0002112541412
0.0001807049256
0.0002147655801
0.0002373901343
0.0002323916932
0.0002494420956
0.0002837697438
0.0003147330059
0.0003143001101
0.0002682969394
0.0002355721197
0.0002145924066
0.0001963604599
0.0001804210781
0.0001765456604
0.0001828917342
0.0001871489064
0.0001877799345
0.000186708017
0.0001858878362
0.0001852353822
0.0001846803664
0.0001860179565
0.0001920583063
0.0001714704479
0.0001741038443
0.000184298446
0.0002007101545
0.0002238181874
0.0002509490984
0.0002753675673
0.000371830803
0.0002721562786
0.0002018230549
0.0002220733554
0.0002546828836
0.0002584765419
0.0002926959425
0.0003435007895
0.0003822256983
0.0003836175297
0.0003184512687
0.0002579510321
0.0002188816504
0.0001939134088
0.0001877653048
0.0001942945472
0.0002051688354
0.0002117787115
0.0002110057495
0.0002085107483
0.0002081497419
0.00020880156
0.0002080975701
0.0002045690598
0.0001985960233
0.0001950474423
0.0001907535641
0.0001883789823
0.0001957033082
0.0002156356109
0.0002460633128
0.000303451881
0.0003954085382
0.0003091557657
0.000229765618
0.0001965116265
0.0002299479383
0.000274056952
0.0002967672099
0.0003497369068
0.0004102342452
0.0004507450781
0.0004499736374
0.0003804197279
0.0002906806622
0.0002224033698
0.0001955800153
0.0002030803264
0.0002168822889
0.0002318432867
0.0002466702967
0.0002400267034
0.0002345889042
0.0002371690258
0.0002426622681
0.0002459453914
0.0002459679518
0.0002438697585
0.0002408186678
0.0002328691595
0.0002168936761
0.000210552326
0.0002372649055
0.0002807391604
0.0003191082599
0.0003622305238
0.0002848533843
0.0002311595195
0.0002160850389
0.0002397365554
0.0003041203542
0.0003592506407
0.0004175696738
0.0004690515204
0.0004945179488
0.0004832705382
0.0004144834884
0.000304218399
0.0002263022338
0.0002057007057
0.000226143988
0.0002403509579
0.0002691753019
0.0003096824558
0.0002795621755
0.0002637332358
0.0002714176195
0.0002832811251
0.0002895133858
0.0002925250561
0.0002959390978
0.0002978078684
0.0002907265993
0.0002656960436
0.0002377007111
0.0002579916769
0.0002900329643
0.0003146168266
0.0002812311238
0.0002407387636
0.0002353192009
0.0002409072609
0.0002282178877
0.000270069899
0.0003028244659
0.000357723217
0.0004090270182
0.0004380992179
0.0004196317032
0.0002959796441
0.0002150324982
0.0002038491499
0.0002207259141
0.0002445256757
0.0002769554638
0.0003344805448
0.0004199764272
0.000330777491
0.000295663954
0.0003135729565
0.0003323120047
0.000337165223
0.0003388961967
0.0003460499287
0.0003542925269
0.000350091712
0.0003262942731
0.0002821280302
0.0002820345541
0.0003096683369
0.0002562193655
0.0002451372781
0.0002559938181
0.0002669167241
0.0002716397279
0.0002195028478
0.0002478210072
0.0002571655068
0.0002968082739
0.0003400698528
0.0003597152343
0.0003290032786
0.0002221277309
0.0002018996315
0.0002181918564
0.0002431825938
0.0002657401671
0.0002846005059
0.0002989953504
0.0003117892719
0.0003175231243
0.0003375658033
0.0003704854124
0.0003932775377
0.0003904356378
0.0003836220086
0.0003907760982
0.0004010217314
0.0004045388109
0.0003894796819
0.0003418605094
0.0003064814822
0.0003225155889
0.0002804615756
0.0002801740308
0.0002922335933
0.0002998893744
0.000301204496
0.0002110049828
0.0002317834722
0.0002232432173
0.0002404543272
0.0002731806907
0.0002860462189
0.0002514239336
0.0001993814534
0.0002131671656
0.0002402661839
0.0002665142751
0.0002886005917
0.0003064008837
0.0003190128114
0.0003309060274
0.0003542089606
0.0003956527105
0.0004426698657
0.000467373223
0.000453049919
0.0004284981893
0.0004286108745
0.0004405797535
0.000449370832
0.0004463920851
0.0004114429471
0.0003469489302
0.0003043613924
0.0002991482092
0.0003120227461
0.0003251804696
0.0003307747475
0.0003290600988
0.0002011568757
0.0002204776049
0.0002056860846
0.0002003738544
0.0002166114098
0.000222220351
0.0002040710102
0.0002044909698
0.0002318714503
0.0002606550992
0.0002859485602
0.000307384633
0.000325160792
0.0003416927999
0.0003654959137
0.0004089574849
0.0004692358158
0.0005246335237
0.0005492567214
0.0005246763799
0.0004752818825
0.0004578955139
0.0004672444583
0.0004774922279
0.0004799844524
0.000457188372
0.0004001213182
0.0003761231427
0.0003347377877
0.0003403409946
0.0003528362454
0.0003552702264
0.0003511280443
0.0001938098465
0.0002134742341
0.0001989592766
0.000179656698
0.0001833536701
0.0001874053888
0.0001930720955
0.0002169887113
0.0002479160627
0.0002771029756
0.0003016732922
0.0003211712107
0.0003407913005
0.0003684812119
0.0004129337106
0.0004757458118
0.0005447594313
0.0006019946395
0.0006248364654
0.0005959314949
0.000524689414
0.0004788266549
0.0004808669616
0.0004901404133
0.0004933306886
0.0004733367334
0.0004392126215
0.0005037823688
0.000394624099
0.000368800492
0.0003726869452
0.0003725380407
0.0003673542675
0.000186693207
0.000205555674
0.0001907681314
0.0001668036144
0.0001664850756
0.0001739262739
0.000192880017
0.0002261615918
0.0002667293078
0.0003056545042
0.000331313274
0.0003413503158
0.0003581866649
0.0004040550579
0.0004703120067
0.0005407344116
0.0006047605945
0.0006545285437
0.0006729200802
0.0006426551086
0.0005718772565
0.0004888596749
0.0004721855569
0.0004824648
0.0004811975852
0.0004539104034
0.0005251198033
0.0006663878397
0.0005241082663
0.0004068606231
0.0003860187238
0.0003833866814
0.0003782928473
0.0001781059139
0.0001937391158
0.0001757768407
0.0001532780715
0.0001548008658
0.0001713504797
0.0002090869785
0.0002676239677
0.0003335989213
0.0003889317227
0.0004164533133
0.0004015924739
0.0003698894552
0.000382142014
0.0004280936415
0.0004918179789
0.0005567007294
0.0006083529463
0.0006325050706
0.0006010607203
0.0005165282273
0.0004562991915
0.0004476795236
0.0004549705142
0.000445672619
0.0003841914914
0.0004142443103
0.0005642090058
0.0004209555038
0.0003906061749
0.0003911470249
0.0003895226229
0.0003845073703
0.0001693310869
0.0001770366468
0.0001541489772
0.0001397052163
0.0001533154618
0.0001938680127
0.0002614344662
0.0003444004084
0.0004291396403
0.0004979298641
0.0005298818526
0.0005110864858
0.0004471350931
0.0004093645532
0.0004241069424
0.000456291102
0.0005008991598
0.0005452636612
0.0005682500821
0.0005347473466
0.0004624781828
0.0004246191329
0.0004121657907
0.0004125997045
0.0003968478097
0.0003482093576
0.000359894636
0.000427483973
0.0003890845776
0.0003913103015
0.0003937992007
0.0003916699022
0.0003853594817
0.0001597568218
0.0001549202393
0.0001370575418
0.0001471363249
0.0001820488366
0.0002351842568
0.0003047319231
0.0003826591713
0.0004594468971
0.0005239099799
0.0005573372681
0.0005384734194
0.000453565406
0.0004229971278
0.0004339615643
0.0004474969829
0.0004649090602
0.0004877633631
0.000501748294
0.0004679867781
0.0004162179625
0.0003889046993
0.0003699809659
0.0003672909854
0.0003556785475
0.0003361706771
0.0003559478211
0.0003819662162
0.0003889691034
0.0003958115654
0.0003972795863
0.0003932994221
0.0003847023263
0.0001472362818
0.0001370384435
0.0001455172751
0.0001738144476
0.0002046030812
0.0002380302467
0.0002803475454
0.0003358841637
0.0004001378277
0.000458767729
0.0004923116552
0.0004792953771
0.0004179170338
0.0004136925698
0.000429479725
0.0004409960726
0.0004470858854
0.0004495188404
0.0004450263085
0.0004101006122
0.0003741246572
0.0003497553581
0.0003308737441
0.0003305577602
0.0003318395781
0.0003383483303
0.0003629086635
0.000381373839
0.0003947786448
0.0004059345514
0.0004064733634
0.0003974839976
0.0003841780796
0.0001327227323
0.0001413089077
0.0001637757846
0.0001883488767
0.0002122166966
0.000236823196
0.0002642204432
0.0002984728516
0.0003419278616
0.0003878164149
0.0004178167747
0.0004140139063
0.0003849164454
0.0003969645712
0.0004152409811
0.0004272128748
0.000430182607
0.0004220035433
0.0003992231865
0.000360839896
0.0003353616538
0.0003151834395
0.0003023972108
0.0003107348419
0.0003260380121
0.0003473637049
0.0003709823173
0.0003890301402
0.0004091398535
0.0004274726264
0.0004246148487
0.0004073691649
0.0003858694783
0.0001267292261
0.00015388326
0.0001734458616
0.0001920581442
0.0002116824539
0.0002329576794
0.000254810114
0.0002773694343
0.0003030508247
0.0003321385357
0.0003560051121
0.000361328636
0.000355912003
0.0003738353302
0.0003923009269
0.0004041400439
0.0004055122922
0.0003917798583
0.0003576005351
0.000321665501
0.0003037121092
0.0002907362268
0.0002897614639
0.0003071994513
0.0003306562169
0.0003561065403
0.0003770827291
0.0003932598585
0.0004119131485
0.0004321410952
0.0004313564919
0.0004095349449
0.0003833179753
0.0001310571472
0.0001620038192
0.0001785079394
0.000194021062
0.0002109623999
0.0002296716524
0.00024861903
0.0002661590824
0.0002823132281
0.0002985264288
0.0003136832182
0.0003223138219
0.0003278420652
0.0003451145481
0.0003618808982
0.0003725932579
0.000372279571
0.0003553719232
0.0003193063997
0.0002924892835
0.0002819471281
0.0002786935775
0.0002885477491
0.0003111285749
0.0003378199303
0.0003619826427
0.0003805544408
0.0003938442503
0.0004055741933
0.000420177351
0.0004201679518
0.0003996160464
0.0003741047677
0.0001345283235
0.0001651502552
0.0001803219641
0.0001945146748
0.0002099474931
0.0002267324205
0.0002435753301
0.0002583508797
0.0002699207156
0.0002789323452
0.000286600478
0.0002927972191
0.000299556603
0.0003128799863
0.0003264674568
0.0003353183003
0.0003339332144
0.0003176477094
0.0002896969321
0.0002741521654
0.0002705171879
0.000274937721
0.000290876727
0.0003155023512
0.0003417356205
0.0003640907626
0.0003813025313
0.0003932353963
0.0004010908874
0.0004070959491
0.0004041077742
0.0003857195419
0.0003621238962
0.0001340453184
0.0001645351217
0.0001794388714
0.000193066264
0.0002075173624
0.0002229163491
0.0002378772054
0.0002503667835
0.0002590262039
0.0002638847882
0.0002664035606
0.0002688216856
0.0002729615129
0.0002814098113
0.0002908537615
0.0002974433708
0.0002966546145
0.0002858157614
0.0002704975613
0.0002643340368
0.0002650103316
0.0002730773692
0.0002910435845
0.0003158163336
0.0003407064449
0.0003618539199
0.0003784539535
0.0003899863246
0.0003964113254
0.0003962063107
0.0003890116636
0.000371692566
0.0003490178814
0.0001299721218
0.0001606171909
0.0001758999573
0.0001893058289
0.0002029211945
0.0002169537081
0.000230322307
0.0002410216536
0.0002476086005
0.0002497402444
0.0002487826547
0.0002476168053
0.0002483678021
0.0002529064425
0.0002594675886
0.0002650552548
0.0002665914428
0.0002631130822
0.0002582038123
0.0002574800075
0.000259939656
0.0002688712316
0.0002866704417
0.0003104454067
0.0003343259032
0.0003548145504
0.0003711680756
0.0003826529023
0.0003885817256
0.000385014703
0.000374542266
0.0003567847257
0.0003336764085
0.0001224495214
0.0001531192205
0.0001693481513
0.0001828514715
0.0001957743989
0.0002084749623
0.0002203475594
0.0002296877081
0.0002349295396
0.0002354517929
0.0002323412758
0.0002281642042
0.0002256316629
0.0002273939824
0.0002327893496
0.0002389996894
0.0002436253048
0.000245975427
0.0002472071955
0.0002490574194
0.0002522450064
0.0002609247229
0.0002774545396
0.0002994334995
0.0003225220793
0.0003426379589
0.0003588424834
0.0003702989175
0.0003759443595
0.0003703426917
0.0003575559862
0.000338447659
0.0003145440947
0.0001117306509
0.0001416239976
0.0001592988836
0.0001733441201
0.0001858908209
0.0001975865919
0.0002080095934
0.0002161851767
0.0002206099155
0.000220409805
0.0002162335416
0.0002097391683
0.0002042223861
0.0002039715174
0.0002095314529
0.0002172972871
0.0002244507373
0.0002301077878
0.0002342088677
0.0002374472986
0.0002415601256
0.0002501004884
0.0002639313458
0.0002839580169
0.0003054740409
0.0003251750957
0.0003411596998
0.000352448138
0.0003577335237
0.0003501797418
0.0003354557261
0.0003148981789
0.0002915303646
9.901203741e-05
0.0001267586527
0.0001458388177
0.0001607302365
0.0001732124418
0.0001842947937
0.0001938215698
0.0002010139485
0.0002048435638
0.0002044711089
0.0001997468248
0.0001917382346
0.0001839468633
0.0001821568312
0.0001880677787
0.0001971111344
0.000205704097
0.0002127913598
0.0002180454745
0.0002220666988
0.0002267928415
0.0002349521372
0.0002471263546
0.0002651215013
0.0002842870193
0.0003025864766
0.0003180599454
0.0003289613114
0.0003336537316
0.0003235591041
0.000307338122
0.0002872567361
0.000264591985
8.657461532e-05
0.0001112315212
0.0001307470177
0.0001461038187
0.000158392009
0.0001688993284
0.0001777724628
0.0001843889386
0.0001878746727
0.0001874233703
0.0001826627794
0.0001744245433
0.0001662310201
0.000163910501
0.0001691277559
0.0001775411678
0.0001858064283
0.0001928342445
0.0001982662395
0.0002027113569
0.0002079642844
0.0002160915314
0.0002274232344
0.0002433780938
0.0002602994693
0.0002763932059
0.0002900933322
0.000300001866
0.0003034994194
0.0002915093405
0.0002756543034
0.0002563510097
0.0002359216558
0.0001311899447
9.862011144e-05
0.0001172961612
0.0001321156778
0.0001435348922
0.0001529351525
0.0001607906406
0.0001666918374
0.0001698693972
0.0001695980841
0.0001656378423
0.0001590568129
0.0001531441694
0.0001518480221
0.0001553773857
0.0001608043247
0.0001662455572
0.0001710680459
0.0001751197918
0.0001790950461
0.000184649666
0.0001932564148
0.0002045560971
0.0002189189295
0.000233719648
0.0002476815685
0.0002595034335
0.0002676024484
0.0002692248686
0.0002569783317
0.0002420625159
0.0002252201737
0.0002108747321
0.0001208295741
9.110283492e-05
0.00010785537
0.0001211965528
0.000131139826
0.0001388706105
0.0001450948729
0.000149741521
0.0001523234807
0.0001523706959
0.0001499549262
0.0001463197267
0.00014384379
0.00014410801
0.0001462205553
0.000148444428
0.0001499955868
0.0001508134723
0.0001513341621
0.0001528774156
0.0001575885575
0.0001666945222
0.0001787137785
0.0001922059713
0.0002051304165
0.0002167707972
0.0002262907461
0.0002323051232
0.00023215672
0.0002212171835
0.0002103895856
0.0002000220282
0.0001942712515
0.0001274455126
9.151673734e-05
0.0001036119119
0.000113765479
0.0001215134933
0.0001273059591
0.0001316673073
0.0001347442722
0.0001364146641
0.0001365797195
0.0001355523372
0.0001343183777
0.0001340957287
0.0001351581229
0.0001365176552
0.0001370085647
0.0001360501379
0.0001336246031
0.0001305317299
0.0001289543175
0.0001320312996
0.0001409105588
0.0001529836981
0.0001653051662
0.0001761316986
0.000185118332
0.0001919536539
0.0001958591781
0.0001952632767
0.0001889274954
0.0001843864471
0.0001814183928
0.0001812671168
7.953997183e-05
9.495069235e-05
0.0001009277341
0.0001060700945
0.0001103210803
0.0001135227685
0.0001157502479
0.0001170807858
0.0001175676165
0.0001173396808
0.0001167504025
0.000116388987
0.0001167346205
0.0001176676947
0.0001184706082
0.0001183286612
0.0001166987519
0.0001135698598
0.0001103811301
0.000110525176
0.0001158548753
0.0001240727875
0.0001327187289
0.0001406376019
0.0001471903612
0.0001522141136
0.0001556700561
0.0001573993646
0.0001570767492
0.0001549644321
0.0001537609762
0.0001530066531
0.0001529080025
0.0001623024772
0.0003244665319
0.0003980407002
0.0005103275839
0.0006075359304
0.0006544699797
0.000661094108
0.0006626555179
0.0005779145269
0.0004448584477
0.000297387088
0.000216022945
0.0002001182021
0.0002240936092
0.0002642878287
0.0003094993736
0.0003587630554
0.0004014415477
0.0004355172616
0.0004657660659
0.0005247264436
0.0006170193739
0.0005468892876
0.000510695092
0.0006726687652
0.000850257873
0.0009473103408
0.0009810125188
0.0001780864312
0.0004236016168
0.0005095043974
0.0006255176184
0.0007369456514
0.0007904402044
0.0007871203089
0.0007464819083
0.0006537960532
0.0005070243722
0.0003467219328
0.0002500876188
0.0002397900283
0.0002792673647
0.0003318429844
0.0003851810232
0.0004342958992
0.0004761675546
0.0005087107214
0.0005391742119
0.0005878900586
0.0006349493944
0.0005278963952
0.0005545109016
0.0006933489133
0.0008874374235
0.001015552481
0.001099244827
0.001173182083
0.001187353617
0.0007296409055
0.0004348594028
0.0001956580996
0.0005439527857
0.0006425707042
0.0007525155443
0.0008593751595
0.0009028745299
0.0009016023194
0.0008414644716
0.0007169795476
0.0005347820553
0.0003748902485
0.000288894434
0.000296971901
0.0003554504933
0.0004148189369
0.0004654226265
0.0004988741109
0.0005215652107
0.0005399082861
0.0005741375589
0.0006490004897
0.0006764849344
0.0005482891509
0.000568233034
0.0006892258763
0.0008884930366
0.001085465727
0.001264734823
0.001600734725
0.001569969395
0.00113482118
0.0005361943806
0.0002112183913
0.0006502532287
0.0007842550992
0.0008865764046
0.0009931518837
0.001086621234
0.001092782053
0.0009840576794
0.0007814944089
0.0005483733948
0.0003966868549
0.0003506300066
0.0003924127515
0.0004765697683
0.0005368837771
0.0005804421128
0.000587420207
0.0005865205617
0.0005798731464
0.0005740492042
0.000575475984
0.0005740099173
0.0005580923266
0.0005867653259
0.0006832258151
0.0008857557119
0.001162288252
0.001392734445
0.001557364193
0.001617016199
0.001159849048
0.0005892752571
0.0004467506498
0.0002238530519
0.0007184325114
0.0008908564015
0.001007307668
0.00118202796
0.001311360536
0.001292406413
0.001123356669
0.000842375982
0.000588798883
0.0004476904932
0.0004811606406
0.0005748320559
0.0007050548419
0.0007605100084
0.0007705717863
0.0007201755706
0.000685955244
0.000663362334
0.00064326438
0.0006217504584
0.0006040538232
0.0005999855934
0.0006033989804
0.0006763655754
0.0008987222589
0.001242422536
0.001457022994
0.001503813711
0.001422268155
0.0009517265583
0.0005655768791
0.0005199784316
0.0002278045952
0.0007160716888
0.0008639075423
0.0009928773632
0.001209922501
0.001339284935
0.001295586931
0.00107194155
0.0007784454459
0.0006120828427
0.0005372770674
0.0006372147544
0.0006916440588
0.0009244393486
0.001211597994
0.001121598631
0.0009109224609
0.0008113570568
0.0007793807683
0.0007634385533
0.0007410707897
0.0007195791253
0.0007153634433
0.0006718244416
0.0007054144446
0.000888791808
0.001210853196
0.001384655976
0.001335947854
0.001035633805
0.0006546008128
0.0005686068233
0.0006456955656
0.0002160300956
0.0006316997297
0.0007319316209
0.0008303499622
0.001025681224
0.00115535086
0.001098361573
0.00088414215
0.000609803733
0.0005061347969
0.0005322119991
0.0006677056332
0.0009120560716
0.001346681815
0.001651363671
0.001593302933
0.001138345101
0.0009618171936
0.0009365866781
0.0009421652836
0.0009371165465
0.000943305725
0.001032392593
0.000860917906
0.0008407469393
0.0009286315951
0.001143436039
0.00126064069
0.001106847702
0.0007146282854
0.0006310582819
0.0007200731993
0.0008529408788
0.0001973019822
0.0004674334178
0.0004671000299
0.000501320045
0.0006389478968
0.0007244028481
0.0006817446647
0.000550198933
0.0004698273116
0.0004930384498
0.0006039741734
0.0007707261406
0.0009643176691
0.001196302291
0.001492951442
0.001361348631
0.001174775627
0.001128544677
0.001159664016
0.001184766187
0.001188004275
0.001165397349
0.001147378663
0.001111276765
0.001085867006
0.001067628334
0.001094988249
0.001118695166
0.0009080045322
0.0007570022698
0.0008343164191
0.0009783016972
0.001090266743
0.0001790508222
0.0003801022646
0.0003484018793
0.0003528843141
0.0004156605002
0.0004562103963
0.0004255505286
0.0004073623627
0.0004431206315
0.0005605768487
0.0007418603917
0.0009296724837
0.001061185811
0.001171034331
0.001260169692
0.001303123851
0.001323508069
0.001372010644
0.001419827298
0.001436014327
0.001430552323
0.001386249365
0.001353865611
0.001340181014
0.001321879427
0.00127615509
0.001137878575
0.0009852351752
0.0009197717508
0.0009843407478
0.001131389637
0.001219134506
0.001268361948
0.0001779155325
0.0003958815336
0.0003253971867
0.0002911562627
0.0003127903607
0.0003203560065
0.0003161687874
0.0003530186806
0.0004682788862
0.0006572989103
0.0008746479593
0.001050264819
0.001177549982
0.001276977456
0.001358251032
0.001431915668
0.001521025932
0.00164233197
0.001723919969
0.001724491493
0.001685261407
0.001593411747
0.001517846145
0.00148862698
0.001479082997
0.001474046758
0.001461911506
0.001331838806
0.0012519605
0.001295674323
0.001342885868
0.001378705451
0.001399461073
0.0001811217664
0.0004096239548
0.0003215031727
0.0002600893716
0.0002621279324
0.0002634269034
0.0002828114675
0.0003713949056
0.000545218692
0.0007734634656
0.001004263336
0.001190737072
0.001322655375
0.001415820889
0.001485857656
0.001563507198
0.001698826082
0.001859470168
0.001927404636
0.001918817087
0.001872067457
0.0017610326
0.001641632832
0.001584513019
0.001578350066
0.001642534614
0.00187823412
0.002201887128
0.001817664359
0.001557682553
0.00149610123
0.001489616581
0.001493956664
0.0001727363315
0.0003673424329
0.0002872037263
0.0002308360465
0.0002277440804
0.0002367935251
0.0002911332387
0.000426385339
0.0006389994894
0.0009025654617
0.001164277471
0.001367480247
0.001505835815
0.001586352229
0.001627341277
0.001685610229
0.001806061565
0.001931820724
0.001969323003
0.001972575941
0.001939033634
0.001859560402
0.00173580484
0.001658146265
0.001658981726
0.001835201224
0.002371137639
0.002475600398
0.002372306779
0.001773790471
0.001604192866
0.001563514215
0.001559578994
0.000156496923
0.0002966205192
0.0002349431892
0.0002035870302
0.0002038766741
0.000228477934
0.0003212814586
0.0005238637279
0.0008585457897
0.001272613746
0.001588361276
0.001739121953
0.001794521897
0.001795712362
0.001808066294
0.001836204932
0.001896199901
0.001966990358
0.001989377527
0.001984702842
0.001959102071
0.001850717723
0.001726516059
0.001640522122
0.00160246916
0.001664321459
0.002003165179
0.00251632846
0.00200908957
0.001720913249
0.001626101763
0.00160205671
0.001599465248
0.000137019548
0.0002246485742
0.0001938750458
0.000185336231
0.000198193861
0.0002619769448
0.0004268572491
0.0007311549149
0.001142994125
0.001521003199
0.001772440142
0.001877475992
0.001900697152
0.001893865557
0.001866828812
0.001875326133
0.00190930893
0.001929981371
0.001921429666
0.001901919017
0.001861017067
0.001741774379
0.001624346273
0.001526105313
0.001473978976
0.001481634329
0.001693165212
0.00183797305
0.001767407878
0.001676323475
0.00164818419
0.001634399167
0.001623323579
0.0001217408455
0.0001837609825
0.0001783406097
0.0001882792758
0.0002235931895
0.0003077947412
0.0004753376308
0.0007765600105
0.001160818912
0.001525852732
0.001753664318
0.001838449426
0.001872189075
0.001847869494
0.001801273251
0.001808463408
0.001846764483
0.001866832552
0.001845041485
0.00179939107
0.001723165567
0.001583838774
0.001425079562
0.001300177206
0.001308392323
0.001439939174
0.001613992943
0.001706151876
0.001710148499
0.001705254198
0.001699689064
0.001676877384
0.001641507956
0.0001143479865
0.0001742655845
0.0001960478266
0.0002342873198
0.0002983993528
0.0004071249253
0.0005760172776
0.000812503128
0.001093217004
0.001374838795
0.001586370187
0.001687170474
0.001740851589
0.001731987663
0.001709394073
0.001726518558
0.001761621059
0.00178126991
0.001758704638
0.001690660442
0.001577572466
0.001407218453
0.001211974421
0.001144841293
0.001257435404
0.001479736386
0.001611058343
0.001686409282
0.001736935856
0.001775035142
0.001767641294
0.00172416235
0.001653107798
0.0001105641505
0.0001900980439
0.000245171141
0.0003141365948
0.0003980120226
0.0005136969085
0.0006682265593
0.0008492139952
0.001051350666
0.001242635623
0.0013982702
0.001506433899
0.001580216746
0.001601093096
0.001611149254
0.001637596324
0.001663958669
0.001671792538
0.001640863542
0.001550659549
0.001408475635
0.001233694787
0.001106879767
0.001125711634
0.001307763377
0.001512736846
0.001624089227
0.001697669575
0.001766172712
0.00181314439
0.001804232158
0.001747666496
0.001645139062
0.0001114992694
0.0002167054465
0.0002999179578
0.0003895702337
0.0004852203723
0.0006018037107
0.0007442457263
0.0008951316462
0.001041694698
0.001180252741
0.001289312673
0.0013737421
0.001436786507
0.00147085369
0.001498739361
0.001528528513
0.001547866489
0.001544788251
0.001501392409
0.001379529278
0.001255486627
0.001139179868
0.001098425288
0.001185829367
0.001382318583
0.001532558819
0.001628824058
0.001698510788
0.001762882953
0.001812341793
0.001794357295
0.001728184421
0.001605890099
0.0001157046201
0.0002356769864
0.000335200333
0.0004364097275
0.0005405380377
0.0006567107803
0.0007861849427
0.0009133958003
0.001026401263
0.001120111575
0.001192697515
0.001248298974
0.001292487647
0.001327071021
0.001360454076
0.001391698611
0.001410677466
0.001406703823
0.00136002444
0.001250640278
0.001170761761
0.00111735919
0.001139088525
0.00126622021
0.00141685281
0.001534006446
0.001618590996
0.001681888298
0.001739285023
0.00177815257
0.001751006324
0.001673949618
0.001540312985
0.0001176400204
0.0002373505874
0.00034024059
0.0004470483995
0.0005566352569
0.0006718029474
0.0007867770686
0.0008923700329
0.000977171354
0.00103726187
0.00107567162
0.00110055698
0.001122899755
0.001151203439
0.001188798268
0.001228473766
0.001259314605
0.001269749933
0.001237078868
0.001176369485
0.001138422238
0.001125780693
0.001181103736
0.001304102952
0.001418105475
0.001517312438
0.001594611924
0.001650301081
0.001693203428
0.001715239962
0.001681028157
0.001595526199
0.001456406985
0.000116126611
0.0002231883903
0.0003189342177
0.000426482778
0.0005392868434
0.000650981814
0.0007565146515
0.000846130454
0.0009074522868
0.0009366368844
0.0009371744489
0.0009179848618
0.0009080321645
0.0009261636175
0.0009752541071
0.0010381196
0.0010951577
0.001133583559
0.001136579886
0.001122461996
0.001112777154
0.001120978085
0.001186567642
0.001291914786
0.001389379934
0.001480552648
0.001554652757
0.001605464372
0.00163532901
0.001640088033
0.00159718654
0.001503437567
0.001358777855
0.0001117230096
0.0002007079276
0.0002809393145
0.0003813070746
0.0004935181015
0.0006045694107
0.0007015369853
0.0007785796354
0.0008219993675
0.0008263951412
0.0007945605068
0.0007367743912
0.0006951765999
0.0006989029865
0.0007507628961
0.0008314013296
0.0009169028042
0.0009876331929
0.001029859372
0.001048242843
0.001056599071
0.001075017852
0.001137552943
0.001236806261
0.001329951539
0.001419024482
0.001492489051
0.001541155018
0.001562963116
0.001554658217
0.001500950741
0.001397903063
0.001244690309
0.0001049723527
0.0001771093205
0.0002384801843
0.0003224768975
0.0004253551399
0.0005347446512
0.0006278294928
0.0006939808696
0.0007256740128
0.0007162486063
0.0006626151234
0.0005804552264
0.0005181435859
0.000508495925
0.0005551683372
0.0006399893104
0.0007386582248
0.0008292417732
0.0008951519396
0.0009357210823
0.0009638600971
0.0009928009786
0.00104021897
0.001140540566
0.001237434902
0.001327804074
0.001401500391
0.001449046201
0.001466115228
0.001449627785
0.001385411959
0.001271060806
0.001105985087
9.644656936e-05
0.0001565876546
0.0002021253984
0.0002658819164
0.0003493309656
0.0004461235838
0.0005393103994
0.0006031243976
0.0006293653382
0.0006139145093
0.0005512736708
0.0004650927766
0.000398239959
0.0003792801955
0.0004115297137
0.0004807663676
0.0005677892952
0.0006541860902
0.0007252682848
0.0007815811687
0.0008361068501
0.0008796442189
0.0008997553336
0.0009995435825
0.00111177816
0.001204434376
0.001277860752
0.001323797027
0.001337320516
0.001315792825
0.001242087089
0.001117004612
0.0009371428598
8.702620185e-05
0.0001409000027
0.0001766548132
0.0002244085468
0.0002869243451
0.0003618286206
0.000440150093
0.000503007558
0.0005321067789
0.0005186513649
0.0004666922494
0.0003975188559
0.0003423523944
0.0003218623521
0.0003378380397
0.0003790161958
0.0004333887865
0.000491331284
0.0005447656542
0.0005946015084
0.0006510930238
0.0007049049881
0.0007304007492
0.0008259478428
0.0009489505958
0.00105180123
0.001121842453
0.001165433453
0.001175379166
0.00114886231
0.001071543315
0.0009251490207
0.0007900308577
7.792505487e-05
0.0001304763675
0.0001612803416
0.0002003536089
0.0002493478333
0.0003056974678
0.0003641627571
0.0004141107325
0.0004425087495
0.0004414522067
0.000414108974
0.0003750405682
0.0003431269698
0.0003301362373
0.0003349501329
0.0003486235431
0.000365305527
0.0003839216743
0.0004048050404
0.0004309808312
0.0004687047783
0.000516559317
0.0005619732068
0.0006468658357
0.0007525883737
0.0008561579936
0.0009399926111
0.0009857966253
0.0009933582949
0.0009574658543
0.0008653580546
0.0007649101313
0.0007063274751
0.0003035624435
0.0001285383489
0.0001532919205
0.0001883956635
0.0002315087144
0.0002780264579
0.0003230199802
0.0003605691225
0.000384882269
0.0003930517443
0.0003879637543
0.000377841433
0.0003713310465
0.0003713535714
0.0003731475496
0.0003694396563
0.0003582341392
0.0003433367582
0.0003310398431
0.0003283052959
0.0003414487275
0.0003728916634
0.0004191240735
0.0004871689247
0.0005674543665
0.0006478859982
0.0007171518252
0.0007634441446
0.0007765928205
0.0007518901968
0.0007064796927
0.0006779287886
0.0006878108308
0.0002946735871
0.0001298333626