/*--------------------------------*- C++ -*----------------------------------*\
  =========                 |
  \\      /  F ield         | OpenFOAM: The Open Source CFD Toolbox
   \\    /   O peration     | Website:  https://openfoam.org
    \\  /    A nd           | Version:  8
     \\/     M anipulation  |
\*---------------------------------------------------------------------------*/
FoamFile
{
    version     2.0;
    format      ascii;
    class       volScalarField;
    location    "1.2";
    object      p_rgh;
}
// * * * * * * * * * * * * * * * * * * * * * * * * * * * * * * * * * * * * * //

dimensions      [1 -1 -2 0 0 0 0];

internalField   nonuniform List<scalar> 
67286
(
100004.1023
100004.0982
100004.1002
100004.0773
100004.0166
100003.9446
100003.8901
100003.8266
100003.793
100003.78
100003.7844
100003.8062
100003.8095
100003.805
100003.8064
100003.8419
100003.9782
100003.8543
100003.8341
100003.8371
100003.8435
100003.8911
100003.854
100003.8705
100003.8543
100003.877
100003.9339
100003.9912
100004.0276
100004.014
100004.0025
100003.9768
100003.9396
100003.8928
100003.8525
100003.8136
100003.7906
100003.7853
100003.791
100003.8082
100003.8063
100003.7969
100003.7929
100003.8039
100003.8292
100003.8132
100003.811
100003.82
100003.828
100003.9372
100003.8411
100003.8606
100003.8564
100003.8853
100003.9403
100004.0271
100004.0445
100004.2025
100003.9557
100003.8999
100003.9905
100003.9737
100003.9582
100003.9337
100003.9068
100003.8781
100003.8457
100003.8113
100003.7957
100003.7994
100003.8039
100003.8067
100003.7958
100003.7772
100003.7752
100003.7811
100003.7929
100003.7943
100003.8002
100003.8086
100003.8154
100003.864
100003.8411
100003.8631
100003.874
100003.9162
100003.9811
100004.2239
100004.2251
100005.2596
100004.1592
100003.9721
100003.9869
100003.9698
100003.953
100003.9316
100003.926
100003.9258
100003.8855
100003.8305
100003.815
100003.8279
100003.8223
100003.8035
100003.7644
100003.7432
100003.7682
100003.7685
100003.774
100003.7752
100003.7817
100003.7924
100003.8094
100003.8406
100003.8418
100003.8574
100003.8768
100003.9079
100003.9465
100004.057
100004.0842
100004.3861
100004.0804
100003.9387
100003.9134
100003.9858
100003.965
100003.9455
100003.9414
100003.9789
100004.0153
100003.9569
100003.8681
100003.8473
100003.8686
100003.8513
100003.8834
100004.0326
100003.8705
100003.834
100003.7693
100003.7667
100003.762
100003.7689
100003.7801
100003.8006
100003.8293
100003.8555
100003.8717
100003.8982
100003.9299
100003.9609
100004.2067
100004.1082
100004.201
100004.0408
100003.9583
100003.9208
100004.0127
100003.9644
100003.9289
100003.9425
100004.023
100004.0716
100003.988
100003.8927
100003.877
100003.8887
100003.8553
100003.8677
100003.8181
100003.7079
100003.5981
100003.705
100003.7882
100003.7721
100003.7715
100003.7783
100003.8017
100003.8433
100003.9365
100003.9166
100003.933
100003.9551
100003.9858
100004.0715
100004.038
100004.0866
100004.0141
100003.9605
100003.9153
100003.9627
100003.9409
100003.9102
100003.8863
100003.9094
100003.9346
100003.8884
100003.8631
100003.8807
100003.8784
100003.8707
100003.8986
100003.9547
100004.056
100005.2815
100003.9388
100004.0323
100003.8374
100003.7939
100003.7965
100003.8433
100003.9806
100004.5481
100004.0487
100003.9946
100003.9996
100004.0179
100004.0543
100004.0166
100004.0446
100003.9895
100003.9415
100003.9006
100003.9271
100003.9141
100003.8934
100003.858
100003.8365
100003.8411
100003.8592
100003.8781
100003.8848
100003.8711
100003.8479
100003.8398
100003.844
100003.9136
100004.1034
100003.9098
100003.8826
100003.8241
100003.8056
100003.8222
100003.8722
100003.9578
100004.101
100004.0335
100004.0164
100004.0383
100004.0428
100004.0596
100004.0103
100004.0055
100003.9549
100003.9226
100003.8984
100003.909
100003.9018
100003.8927
100003.8716
100003.8528
100003.853
100003.8794
100003.8858
100003.873
100003.8485
100003.8298
100003.828
100003.8517
100003.9291
100004.0687
100003.9306
100003.8879
100003.8672
100003.8856
100003.9273
100003.9844
100004.054
100004.1231
100004.1252
100004.0973
100004.0867
100004.052
100004.0587
100003.9821
100003.9856
100003.9425
100003.9331
100003.9228
100003.9147
100003.9052
100003.9057
100003.8969
100003.8878
100003.8928
100003.905
100003.8964
100003.8704
100003.842
100003.8246
100003.8252
100003.8465
100003.8907
100003.9416
100003.9335
100003.9616
100004.0436
100004.1264
100004.1585
100004.1887
100004.2357
100004.277
100004.2895
100004.2499
100004.2022
100004.1118
100004.0539
100003.9474
100003.988
100003.961
100003.9759
100003.9739
100003.9191
100003.9084
100003.9191
100003.9216
100003.9191
100003.9226
100003.9192
100003.8971
100003.8649
100003.8384
100003.8278
100003.8377
100003.8638
100003.8974
100003.9326
100003.9907
100004.1388
100004.3587
100004.4842
100004.4431
100004.3827
100004.3767
100004.3767
100004.3802
100004.3558
100004.3219
100004.2027
100003.9361
100003.798
100003.9874
100004.0057
100004.0353
100004.0374
100003.9201
100003.913
100003.9332
100003.9422
100003.9435
100003.9409
100003.9234
100003.8904
100003.8529
100003.8317
100003.8388
100003.8711
100003.9085
100003.9307
100003.9641
100004.0822
100004.351
100004.6868
100004.8042
100004.6423
100004.4466
100004.4201
100004.4046
100004.4019
100004.4081
100004.3885
100004.4305
100004.7166
100004.0962
100004.1265
100004.0864
100004.098
100004.0938
100003.927
100003.9257
100003.9515
100003.9617
100003.9636
100003.9539
100003.9223
100003.8712
100003.828
100003.8271
100003.8684
100003.9264
100003.9792
100004.0142
100004.0476
100004.1363
100004.3221
100004.5602
100004.6458
100004.5293
100004.3924
100004.3674
100004.35
100004.3444
100004.3387
100004.2919
100004.7479
99999.61344
100001.6165
100003.9023
100003.7898
100004.0661
100004.1177
100003.9436
100003.9492
100003.9722
100003.978
100003.9714
100003.941
100003.8817
100003.8144
100003.7989
100003.8656
100003.9596
100004.0161
100004.0506
100004.0889
100004.1334
100004.1945
100004.2817
100004.3746
100004.3935
100004.3373
100004.2863
100004.2675
100004.2519
100004.2479
100004.2371
100004.2097
100004.0618
100002.9373
100003.8367
100004.0996
100004.0684
100004.1599
100004.1862
100003.9686
100003.9766
100003.9937
100003.9931
100003.9781
100003.9361
100003.8655
100003.7974
100003.8288
100003.9612
100004.0737
100004.0868
100004.0831
100004.1096
100004.1472
100004.1993
100004.2411
100004.253
100004.2225
100004.1903
100004.1768
100004.171
100004.1706
100004.175
100004.1724
100004.1486
100004.0514
100003.8782
100003.9134
100004.1587
100004.1622
100004.1996
100004.2016
100003.9943
100003.9935
100003.9956
100003.9791
100003.9557
100003.9243
100003.8859
100003.8515
100003.851
100003.9268
100004.0135
100004.0475
100004.061
100004.0879
100004.1168
100004.1534
100004.1728
100004.1595
100004.1193
100004.0972
100004.0992
100004.1035
100004.1098
100004.1149
100004.1116
100004.0965
100004.0718
100004.0915
100004.0883
100004.2116
100004.221
100004.215
100004.1861
100004.0136
100003.9996
100003.9871
100003.9672
100003.9453
100003.9206
100003.8954
100003.8726
100003.8562
100003.8694
100003.9104
100003.9514
100003.9861
100004.0203
100004.0526
100004.0815
100004.0886
100004.0706
100004.0453
100004.0374
100004.048
100004.0543
100004.0583
100004.0585
100004.0547
100004.0552
100004.0731
100004.1324
100004.2147
100004.2765
100004.2625
100004.2089
100004.1484
100004.024
100003.9975
100003.9781
100003.958
100003.9385
100003.919
100003.9021
100003.8899
100003.8803
100003.873
100003.88
100003.9021
100003.9298
100003.9562
100003.9823
100004.0041
100004.0079
100003.9955
100003.9892
100003.9944
100004.0056
100004.0102
100004.0091
100004.0049
100004.0042
100004.019
100004.0565
100004.1243
100004.2283
100004.2894
100004.27
100004.1762
100004.0935
100004.0301
100003.9933
100003.972
100003.9516
100003.9337
100003.9173
100003.9044
100003.8964
100003.8915
100003.8855
100003.8804
100003.8849
100003.8974
100003.9103
100003.925
100003.9393
100003.9447
100003.9431
100003.9502
100003.9597
100003.9675
100003.9687
100003.9637
100003.9585
100003.963
100003.9878
100004.0322
100004.0922
100004.1577
100004.1942
100004.1808
100004.0982
100004.028
100004.0362
100003.9924
100003.9699
100003.9484
100003.9307
100003.9159
100003.9055
100003.8991
100003.8952
100003.8901
100003.8833
100003.8796
100003.8814
100003.8845
100003.8899
100003.8985
100003.9061
100003.9128
100003.9233
100003.9312
100003.935
100003.9333
100003.9269
100003.9231
100003.932
100003.96
100004.0022
100004.0496
100004.0822
100004.0903
100004.0719
100004.0141
100003.9678
100004.0428
100003.9956
100003.9714
100003.9483
100003.9301
100003.9158
100003.9059
100003.9001
100003.8961
100003.8913
100003.8849
100003.88
100003.8777
100003.8772
100003.8788
100003.8833
100003.8904
100003.8985
100003.9059
100003.9102
100003.9109
100003.9075
100003.9007
100003.8977
100003.9078
100003.9337
100003.9697
100004.0056
100004.0203
100004.0163
100003.9945
100003.9525
100003.9234
100004.0478
100004.0014
100003.9762
100003.9517
100003.9325
100003.9177
100003.9078
100003.902
100003.8979
100003.8938
100003.8894
100003.8858
100003.8836
100003.8825
100003.8828
100003.8854
100003.8897
100003.8942
100003.8974
100003.8984
100003.897
100003.8926
100003.8852
100003.881
100003.8884
100003.9091
100003.9375
100003.9632
100003.9693
100003.9615
100003.9421
100003.912
100003.8965
100004.0505
100004.0092
100003.9843
100003.9591
100003.9389
100003.9232
100003.9124
100003.9062
100003.9023
100003.8995
100003.8976
100003.8969
100003.8968
100003.8967
100003.8964
100003.8968
100003.8977
100003.8983
100003.898
100003.896
100003.8927
100003.8879
100003.88
100003.8734
100003.8756
100003.8892
100003.9094
100003.9266
100003.9282
100003.9196
100003.9061
100003.8888
100003.8876
100004.0514
100004.0185
100003.9952
100003.9704
100003.9495
100003.933
100003.9212
100003.9139
100003.9101
100003.9085
100003.9093
100003.9118
100003.9147
100003.9163
100003.9159
100003.9145
100003.9128
100003.9106
100003.9078
100003.9035
100003.8985
100003.893
100003.8852
100003.8768
100003.8732
100003.8789
100003.8906
100003.9011
100003.9002
100003.8937
100003.8882
100003.885
100003.8932
100004.0516
100004.0281
100004.0077
100003.9843
100003.9637
100003.9467
100003.9342
100003.9261
100003.922
100003.9214
100003.9238
100003.9285
100003.9337
100003.9369
100003.9374
100003.9357
100003.9331
100003.9298
100003.9261
100003.9209
100003.9145
100003.9087
100003.9007
100003.892
100003.8851
100003.8835
100003.8872
100003.8924
100003.8905
100003.8889
100003.8937
100003.9008
100003.9128
100004.0516
100004.0359
100004.0192
100003.9984
100003.9792
100003.9628
100003.9503
100003.9419
100003.9375
100003.9369
100003.9396
100003.9447
100003.9504
100003.9547
100003.9566
100003.9566
100003.9553
100003.9533
100003.9508
100003.9468
100003.9407
100003.9344
100003.9267
100003.9186
100003.9109
100003.9064
100003.9049
100003.9063
100003.9055
100003.9101
100003.9204
100003.9305
100003.9402
100004.0504
100004.0405
100004.0271
100004.0099
100003.9933
100003.9787
100003.9672
100003.959
100003.9545
100003.9533
100003.9552
100003.9593
100003.964
100003.9682
100003.9714
100003.9737
100003.9753
100003.9764
100003.9771
100003.9765
100003.9734
100003.9684
100003.9616
100003.9549
100003.9486
100003.9444
100003.9425
100003.943
100003.9445
100003.9497
100003.9592
100003.966
100003.9688
100004.0506
100004.0418
100004.0316
100004.0182
100004.005
100003.9931
100003.9833
100003.9761
100003.9716
100003.9699
100003.9705
100003.9729
100003.9761
100003.9797
100003.9835
100003.9874
100003.9914
100003.9957
100003.9999
100004.0032
100004.0042
100004.0028
100003.9994
100003.9963
100003.9937
100003.9924
100003.9925
100003.9939
100003.9959
100003.9985
100004.0011
100004.0002
100003.9951
100004.0515
100004.0405
100004.033
100004.0231
100004.0131
100004.0038
100003.9959
100003.9899
100003.9859
100003.9838
100003.9834
100003.9844
100003.9865
100003.9895
100003.9933
100003.9977
100004.0027
100004.0084
100004.0146
100004.02
100004.0239
100004.0268
100004.0292
100004.0324
100004.0356
100004.0389
100004.042
100004.044
100004.044
100004.041
100004.0362
100004.0278
100004.0171
100004.0639
100004.0456
100004.0388
100004.0322
100004.0256
100004.019
100004.013
100004.0082
100004.0047
100004.0023
100004.001
100004.0012
100004.0029
100004.0061
100004.0102
100004.0146
100004.0189
100004.0237
100004.0291
100004.0351
100004.0422
100004.0521
100004.0645
100004.0776
100004.0889
100004.0974
100004.1024
100004.1025
100004.0967
100004.085
100004.0722
100004.0574
100004.0432
100004.0397
100004.0397
100004.0438
100004.0076
100003.9259
100003.8491
100003.8088
100003.7737
100003.7543
100003.7492
100003.7548
100003.773
100003.7874
100003.7848
100003.7762
100003.7722
100003.8625
100003.7759
100003.7707
100003.7574
100003.7431
100003.7598
100003.7738
100003.7825
100003.7738
100003.7843
100003.8087
100003.8245
100003.9751
100003.9609
100003.9541
100003.9175
100003.8662
100003.8162
100003.7882
100003.7676
100003.754
100003.7516
100003.7561
100003.7693
100003.7751
100003.7695
100003.7621
100003.7643
100003.7837
100003.769
100003.7615
100003.7525
100003.7386
100003.6992
100003.793
100003.7903
100003.7937
100003.811
100003.8499
100003.8537
100003.8931
100003.6922
100003.7245
100003.761
100003.9367
100003.9154
100003.9023
100003.8666
100003.8283
100003.7937
100003.7724
100003.7629
100003.7529
100003.7523
100003.7555
100003.7544
100003.7436
100003.7366
100003.7337
100003.7459
100003.762
100003.7598
100003.7582
100003.7543
100003.7478
100003.741
100003.7978
100003.805
100003.8114
100003.826
100003.8656
100003.8242
100004.1595
100003.3869
100003.6671
100003.7355
100003.9192
100003.8959
100003.8745
100003.839
100003.8098
100003.7847
100003.7639
100003.762
100003.7578
100003.7495
100003.7482
100003.709
100003.6549
100003.6666
100003.6741
100003.7094
100003.7323
100003.7423
100003.7481
100003.7543
100003.7621
100003.772
100003.7934
100003.8087
100003.8256
100003.8424
100003.8678
100003.8681
100003.9243
100003.7178
100003.709
100003.7269
100003.8023
100003.9073
100003.8816
100003.8544
100003.8229
100003.8049
100003.7882
100003.7632
100003.7641
100003.7711
100003.7452
100003.734
100003.6464
100003.479
100003.6143
100003.5839
100003.6653
100003.7027
100003.7207
100003.7279
100003.7342
100003.7414
100003.7494
100003.7709
100003.8005
100003.8316
100003.8478
100003.847
100003.757
100003.8851
100003.7484
100003.7537
100003.7803
100003.8237
100003.8926
100003.852
100003.8104
100003.7868
100003.7803
100003.7727
100003.7497
100003.7589
100003.781
100003.7353
100003.7315
100003.6708
100003.6349
100003.5391
100003.3618
100003.6058
100003.6697
100003.7025
100003.708
100003.7134
100003.7136
100003.6781
100003.6382
100003.7776
100003.8413
100003.8655
100003.8716
100003.8621
100003.8519
100003.7981
100003.8317
100003.8445
100003.8439
100003.8707
100003.8401
100003.8015
100003.7687
100003.762
100003.7574
100003.7529
100003.7912
100003.8134
100003.8073
100003.7724
100003.6954
100003.5447
100003.3579
100002.583
100003.626
100003.6675
100003.6945
100003.6921
100003.7066
100003.7232
100003.6669
100003.9592
100003.8869
100003.8915
100003.8971
100003.9006
100003.8812
100003.9042
100003.9039
100003.8893
100003.865
100003.8434
100003.859
100003.8399
100003.8088
100003.758
100003.7471
100003.7586
100003.7665
100003.8148
100003.825
100003.8044
100003.7695
100003.7296
100003.689
100003.6865
100003.6791
100003.717
100003.691
100003.6699
100003.668
100003.7003
100003.7387
100003.7813
100003.9246
100003.8645
100003.8784
100003.9182
100003.9335
100003.8943
100003.9167
100003.9071
100003.8781
100003.8552
100003.8422
100003.8663
100003.8558
100003.8484
100003.8089
100003.7787
100003.7804
100003.8076
100003.8344
100003.8249
100003.7956
100003.7638
100003.7356
100003.7085
100003.6908
100003.6878
100003.708
100003.6834
100003.6694
100003.6883
100003.7435
100003.8064
100003.8607
100003.9223
100003.9115
100003.9127
100003.9358
100003.9632
100003.9449
100003.9274
100003.899
100003.8699
100003.8613
100003.8574
100003.8813
100003.87
100003.8792
100003.8644
100003.8437
100003.8417
100003.8552
100003.8501
100003.8229
100003.7898
100003.764
100003.7468
100003.7399
100003.7378
100003.7303
100003.7124
100003.6936
100003.7064
100003.7544
100003.8354
100003.9192
100003.9702
100003.9993
100004.0015
100003.9922
100003.9874
100004.0048
100003.9172
100003.9181
100003.8933
100003.8859
100003.8875
100003.8882
100003.8917
100003.878
100003.8949
100003.9013
100003.8932
100003.8883
100003.881
100003.8556
100003.8195
100003.788
100003.7696
100003.7634
100003.7669
100003.7648
100003.7476
100003.729
100003.7432
100003.8056
100003.8765
100003.9564
100004.0416
100004.0819
100004.0861
100004.0833
100004.0803
100004.0762
100004.1012
100004.0796
100003.9149
100003.9112
100003.9217
100003.9258
100003.9269
100003.9023
100003.8845
100003.9061
100003.9233
100003.9217
100003.9128
100003.8901
100003.8507
100003.8057
100003.7728
100003.7678
100003.7867
100003.8005
100003.7841
100003.7459
100003.7335
100003.783
100003.8702
100003.9365
100003.9947
100004.0851
100004.1511
100004.1599
100004.157
100004.1775
100004.1932
100004.0846
100003.7397
100003.827
100003.9451
100003.9708
100003.9658
100003.9617
100003.9135
100003.8946
100003.9221
100003.9408
100003.9393
100003.922
100003.8806
100003.8156
100003.7551
100003.7323
100003.7632
100003.8289
100003.8867
100003.9002
100003.8822
100003.8655
100003.8814
100003.9277
100003.9698
100004.0329
100004.1195
100004.1587
100004.1666
100004.1769
100004.2513
100004.5154
100004.7158
100009.1066
100003.9808
100004.2545
100004.011
100003.9891
100003.9865
100003.9244
100003.9112
100003.9433
100003.954
100003.9422
100003.9019
100003.8267
100003.7389
100003.6947
100003.7015
100003.7507
100003.831
100003.9174
100003.9571
100003.964
100003.9642
100003.9627
100003.9643
100003.9719
100004.0321
100004.1019
100004.1255
100004.1373
100004.1464
100004.1817
100004.2494
100004.2559
100004.2512
100004.0532
100004.0828
100004.0333
100004.0289
100004.0234
100003.9341
100003.9367
100003.9614
100003.9569
100003.929
100003.8642
100003.7696
100003.6992
100003.6828
100003.6981
100003.7424
100003.8185
100003.9288
100003.9693
100003.9817
100004.0014
100004.011
100004.001
100003.9876
100004.0257
100004.0672
100004.0829
100004.0993
100004.108
100004.1192
100004.1354
100004.1471
100004.2074
100004.0565
100004.0526
100004.0465
100004.0477
100004.0427
100003.9476
100003.9584
100003.9612
100003.9426
100003.9132
100003.8666
100003.8046
100003.7417
100003.717
100003.7205
100003.7545
100003.8225
100003.9159
100003.9462
100003.9585
100003.9791
100003.995
100003.9962
100003.9903
100004.011
100004.0327
100004.0471
100004.0685
100004.0716
100004.0637
100004.0559
100004.051
100004.0571
100004.0174
100004.0417
100004.0451
100004.0429
100004.0363
100003.9686
100003.9669
100003.9531
100003.9332
100003.909
100003.8762
100003.8354
100003.7909
100003.7613
100003.7537
100003.7728
100003.8229
100003.8863
100003.9084
100003.9212
100003.938
100003.9521
100003.9626
100003.9732
100003.9895
100004.0032
100004.0191
100004.0334
100004.0251
100004.0077
100003.9955
100003.9872
100003.9835
100003.9014
100003.973
100003.9891
100003.9964
100003.9981
100003.9865
100003.9667
100003.9489
100003.9303
100003.91
100003.886
100003.8603
100003.8352
100003.8135
100003.8028
100003.8079
100003.8337
100003.8662
100003.8779
100003.8866
100003.8984
100003.9103
100003.9256
100003.9482
100003.9664
100003.9779
100003.9883
100003.9896
100003.9734
100003.9568
100003.9501
100003.9471
100003.945
100003.8861
100003.9154
100003.9144
100003.9291
100003.9431
100003.9941
100003.9638
100003.9468
100003.9289
100003.9111
100003.8921
100003.8735
100003.8575
100003.8462
100003.8382
100003.837
100003.845
100003.8559
100003.859
100003.8626
100003.8705
100003.8818
100003.8998
100003.9258
100003.9438
100003.9513
100003.9532
100003.9439
100003.9271
100003.9163
100003.9152
100003.921
100003.9298
100003.9154
100003.9088
100003.8866
100003.8918
100003.9023
100003.9988
100003.9637
100003.9469
100003.9287
100003.9121
100003.8959
100003.8808
100003.8692
100003.8615
100003.8562
100003.8528
100003.8518
100003.852
100003.8505
100003.8514
100003.8575
100003.8685
100003.886
100003.9085
100003.9215
100003.9242
100003.9198
100003.9061
100003.8916
100003.8846
100003.8862
100003.8951
100003.9069
100003.907
100003.8958
100003.8717
100003.8688
100003.8742
100004.0049
100003.9676
100003.9497
100003.9303
100003.9138
100003.8989
100003.8859
100003.8766
100003.8702
100003.8656
100003.8625
100003.8594
100003.8561
100003.8527
100003.8518
100003.8577
100003.867
100003.8804
100003.8956
100003.9027
100003.9021
100003.8947
100003.8801
100003.8672
100003.8609
100003.8622
100003.8697
100003.8784
100003.8778
100003.8708
100003.8554
100003.8503
100003.8543
100004.0127
100003.9755
100003.9557
100003.9348
100003.9177
100003.9034
100003.8919
100003.8834
100003.8777
100003.8728
100003.8726
100003.8711
100003.8689
100003.8665
100003.8657
100003.8685
100003.8743
100003.8822
100003.8894
100003.8918
100003.8893
100003.8809
100003.8658
100003.8526
100003.8454
100003.8448
100003.8492
100003.8541
100003.8515
100003.8477
100003.84
100003.8372
100003.8429
100004.0218
100003.9872
100003.9657
100003.9433
100003.9249
100003.9103
100003.8998
100003.8922
100003.8876
100003.8852
100003.8854
100003.8865
100003.8872
100003.8866
100003.8854
100003.8857
100003.8875
100003.89
100003.8915
100003.8903
100003.8861
100003.8776
100003.8633
100003.8479
100003.8392
100003.8361
100003.837
100003.8385
100003.8351
100003.8335
100003.8316
100003.8333
100003.8417
100004.0307
100004.0018
100003.9797
100003.9562
100003.9363
100003.9205
100003.9095
100003.9027
100003.8989
100003.8981
100003.9001
100003.9045
100003.9087
100003.91
100003.9085
100003.9065
100003.905
100003.9037
100003.9015
100003.8971
100003.8903
100003.8828
100003.8713
100003.8553
100003.8435
100003.8382
100003.836
100003.8349
100003.8317
100003.8324
100003.8352
100003.8415
100003.8572
100004.0382
100004.0164
100003.996
100003.9727
100003.9521
100003.9349
100003.9225
100003.915
100003.9116
100003.9118
100003.9159
100003.9229
100003.9299
100003.9331
100003.932
100003.9292
100003.9263
100003.9234
100003.9198
100003.9139
100003.9055
100003.8975
100003.889
100003.8734
100003.8606
100003.8525
100003.8483
100003.8457
100003.8432
100003.8467
100003.8528
100003.8654
100003.8847
100004.0435
100004.0284
100004.011
100003.9897
100003.97
100003.9528
100003.9396
100003.931
100003.927
100003.9275
100003.9322
100003.9398
100003.9475
100003.9519
100003.9522
100003.9506
100003.9487
100003.9468
100003.9444
100003.94
100003.9326
100003.9245
100003.9165
100003.9026
100003.8893
100003.8794
100003.8734
100003.8702
100003.869
100003.8746
100003.8864
100003.9025
100003.9193
100004.0461
100004.0353
100004.0216
100004.0036
100003.9862
100003.9707
100003.9583
100003.9495
100003.945
100003.9447
100003.9483
100003.9542
100003.9605
100003.9647
100003.9667
100003.9676
100003.9685
100003.9694
100003.9701
100003.9691
100003.965
100003.9586
100003.9509
100003.9399
100003.9284
100003.9188
100003.9122
100003.9093
100003.91
100003.9185
100003.932
100003.9447
100003.9527
100004.0469
100004.0372
100004.0275
100004.0133
100003.9992
100003.9862
100003.9755
100003.9677
100003.9632
100003.962
100003.9638
100003.9674
100003.9715
100003.9748
100003.9777
100003.9806
100003.984
100003.988
100003.9922
100003.9952
100003.9953
100003.9924
100003.9873
100003.9805
100003.9736
100003.9676
100003.9632
100003.9615
100003.9633
100003.9704
100003.9783
100003.9823
100003.9813
100004.0514
100004.0375
100004.0303
100004.019
100004.0078
100003.9971
100003.9882
100003.9817
100003.9777
100003.9761
100003.9767
100003.9787
100003.9813
100003.984
100003.9869
100003.9903
100003.9947
100004.0002
100004.0063
100004.0114
100004.0144
100004.0155
100004.0154
100004.0145
100004.0135
100004.0126
100004.0121
100004.0121
100004.0131
100004.015
100004.015
100004.011
100004.0044
100004.061
100004.0427
100004.0349
100004.0265
100004.0182
100004.01
100004.0029
100003.9975
100003.994
100003.9923
100003.9923
100003.9937
100003.9961
100003.9989
100004.0019
100004.0051
100004.0088
100004.0134
100004.0189
100004.0247
100004.0305
100004.0373
100004.045
100004.0525
100004.0586
100004.0624
100004.0641
100004.0637
100004.0612
100004.0567
100004.0505
100004.0418
100004.0326
100003.9756
100003.9644
100003.9544
100003.9076
100003.8118
100003.7826
100003.7789
100003.7452
100003.7357
100003.7318
100003.7363
100003.7411
100003.7407
100003.7332
100003.7188
100003.6862
100003.5999
100003.6989
100003.7207
100003.7257
100003.7263
100003.7222
100003.7782
100003.7699
100003.7766
100003.7889
100003.809
100003.8327
100003.8272
100003.9314
100003.9166
100003.9073
100003.8908
100003.8445
100003.7964
100003.7747
100003.7519
100003.741
100003.737
100003.7393
100003.7394
100003.7341
100003.7254
100003.719
100003.7229
100003.7778
100003.7314
100003.7264
100003.7315
100003.7439
100003.7618
100003.7774
100003.7738
100003.7832
100003.8037
100003.8417
100003.8822
100003.8599
100003.5806
100003.7415
100003.7472
100003.9093
100003.8948
100003.8824
100003.8602
100003.8303
100003.7989
100003.7754
100003.756
100003.749
100003.7437
100003.7423
100003.7353
100003.7227
100003.7103
100003.706
100003.7088
100003.7224
100003.7185
100003.7208
100003.7282
100003.7396
100003.7523
100003.7654
100003.7733
100003.7876
100003.8115
100003.8454
100003.8374
100003.9234
100003.5182
100003.7241
100003.7462
100003.9021
100003.8824
100003.8704
100003.8518
100003.8288
100003.8043
100003.7816
100003.7647
100003.7611
100003.755
100003.7473
100003.7326
100003.7129
100003.692
100003.6869
100003.6889
100003.7001
100003.7062
100003.7113
100003.7189
100003.7287
100003.7373
100003.7453
100003.7662
100003.7912
100003.8221
100003.8578
100003.8818
100003.919
100003.8173
100003.8119
100003.8051
100003.8044
100003.8981
100003.8745
100003.863
100003.8453
100003.826
100003.8077
100003.7886
100003.778
100003.7814
100003.7764
100003.7613
100003.7474
100003.7255
100003.6833
100003.6775
100003.6722
100003.6861
100003.6933
100003.6963
100003.6995
100003.7016
100003.6994
100003.7009
100003.7498
100003.7906
100003.8282
100003.8541
100003.8476
100003.8799
100003.8375
100003.8513
100003.8332
100003.8208
100003.8941
100003.8685
100003.8557
100003.8352
100003.8196
100003.8083
100003.7966
100003.7945
100003.8013
100003.7944
100003.7834
100003.7783
100003.7619
100003.71
100003.6802
100003.6851
100003.6966
100003.6926
100003.6873
100003.6825
100003.6692
100003.6262
100003.5567
100003.7115
100003.7898
100003.8454
100003.8759
100003.8841
100003.8943
100003.8966
100003.8785
100003.849
100003.8289
100003.8791
100003.8599
100003.8503
100003.8322
100003.8149
100003.8059
100003.8042
100003.8109
100003.8129
100003.7993
100003.7767
100003.7492
100003.7282
100003.7114
100003.8134
100003.7598
100003.7505
100003.7116
100003.6915
100003.6805
100003.657
100003.5583
100003.2554
100003.7091
100003.8113
100003.8773
100003.9013
100003.9007
100003.9156
100003.911
100003.8822
100003.8524
100003.8322
100003.8715
100003.8589
100003.8507
100003.8418
100003.8389
100003.8341
100003.8386
100003.831
100003.8179
100003.7979
100003.7759
100003.7597
100003.7577
100003.769
100003.806
100003.7825
100003.7562
100003.7223
100003.7021
100003.6995
100003.7078
100003.7196
100003.7489
100003.7967
100003.8588
100003.9655
100003.947
100003.9354
100003.9332
100003.9089
100003.8779
100003.8549
100003.8397
100003.8757
100003.8654
100003.8575
100003.846
100003.8404
100003.8407
100003.8384
100003.8305
100003.8135
100003.7907
100003.7693
100003.7543
100003.7494
100003.75
100003.7691
100003.7582
100003.7393
100003.7207
100003.7164
100003.7311
100003.7592
100003.7906
100003.8235
100003.8595
100003.8963
100003.9415
100003.9672
100003.9733
100003.9427
100003.9085
100003.8802
100003.8601
100003.8474
100003.8861
100003.873
100003.8694
100003.8614
100003.8572
100003.8557
100003.8498
100003.8338
100003.8096
100003.7852
100003.7676
100003.7603
100003.759
100003.7645
100003.7695
100003.7601
100003.7488
100003.7519
100003.7719
100003.805
100003.8471
100003.8872
100003.9199
100003.9446
100003.966
100003.9812
100003.9987
100003.995
100003.947
100003.9129
100003.8944
100003.8797
100003.8697
100003.8918
100003.8791
100003.8798
100003.8776
100003.8733
100003.8679
100003.8556
100003.8329
100003.805
100003.7811
100003.7689
100003.7687
100003.775
100003.7813
100003.7799
100003.7753
100003.7806
100003.8106
100003.8531
100003.8985
100003.9461
100003.9841
100004.009
100004.0315
100004.0578
100004.0702
100004.0799
100004.0524
100003.971
100003.9472
100003.9314
100003.9132
100003.9014
100003.8998
100003.8882
100003.8905
100003.8916
100003.8871
100003.8769
100003.8555
100003.8229
100003.7887
100003.7674
100003.7695
100003.7865
100003.8117
100003.8259
100003.822
100003.8231
100003.8468
100003.8947
100003.941
100003.9781
100004.0194
100004.057
100004.08
100004.104
100004.1483
100004.1608
100004.1161
100004.0682
100003.9595
100003.983
100003.9754
100003.9467
100003.9325
100003.9118
100003.9015
100003.9025
100003.9024
100003.8952
100003.8789
100003.8478
100003.8049
100003.7676
100003.7556
100003.7738
100003.8182
100003.8665
100003.8905
100003.889
100003.8924
100003.9117
100003.9483
100003.9847
100004.02
100004.0592
100004.0909
100004.1151
100004.1479
100004.2104
100004.2981
100004.3357
100004.7655
100004.0573
100004.0756
100004.0138
100003.9804
100003.9631
100003.9267
100003.9149
100003.9145
100003.9097
100003.8962
100003.8668
100003.8207
100003.7742
100003.7457
100003.7483
100003.7804
100003.8324
100003.8873
100003.9207
100003.9313
100003.9428
100003.9602
100003.9814
100004.0018
100004.0301
100004.0635
100004.0892
100004.1119
100004.1391
100004.1758
100004.2058
100004.1973
100004.2054
100004.0659
100004.0538
100004.0228
100004.0024
100003.9896
100003.9394
100003.9259
100003.924
100003.9138
100003.8948
100003.8631
100003.8256
100003.7939
100003.7695
100003.7741
100003.8034
100003.8487
100003.8994
100003.9301
100003.9438
100003.9598
100003.9774
100003.9923
100004.0041
100004.0242
100004.0492
100004.0697
100004.0901
100004.1092
100004.1255
100004.1333
100004.1312
100004.1473
100004.068
100004.043
100004.0233
100004.0107
100004.0047
100003.9442
100003.9333
100003.927
100003.9132
100003.8939
100003.8668
100003.836
100003.8101
100003.792
100003.7937