/*--------------------------------*- C++ -*----------------------------------*\
  =========                 |
  \\      /  F ield         | OpenFOAM: The Open Source CFD Toolbox
   \\    /   O peration     | Website:  https://openfoam.org
    \\  /    A nd           | Version:  8
     \\/     M anipulation  |
\*---------------------------------------------------------------------------*/
FoamFile
{
    version     2.0;
    format      ascii;
    class       volVectorField;
    location    "1.2";
    object      U;
}
// * * * * * * * * * * * * * * * * * * * * * * * * * * * * * * * * * * * * * //

dimensions      [0 1 -1 0 0 0 0];

internalField   nonuniform List<vector> 
67286
(
(-0.04338135134 -0.5337095079 -0.05307029627)
(-0.07559089193 -0.4333001829 0.07547015778)
(-0.1785003009 -0.3686704168 0.114287704)
(-0.2108478465 -0.333977496 0.09137832906)
(-0.1924172321 -0.3007145876 0.07695923133)
(-0.11736094 -0.2765405764 0.07199449708)
(0.02613176228 -0.2347628718 0.07644636584)
(0.1166914758 -0.2709836073 0.01811473012)
(0.1205550336 -0.3036090371 0.01313164339)
(0.1206275796 -0.3373353004 0.01199118062)
(0.0796309103 -0.3564330956 0.02496396425)
(0.01747544584 -0.369148807 0.08762657713)
(-0.1417436108 -0.3577170476 0.1622799325)
(-0.2919289565 -0.3231687966 0.1401563989)
(-0.3740477205 -0.2731664516 0.1107630256)
(-0.4245762421 -0.2289102747 0.09201013782)
(-0.4287228349 -0.1912630371 0.06617272776)
(-0.4220764937 -0.15919291 0.09426451727)
(-0.4279936468 -0.1312349835 0.1049735769)
(-0.428147999 -0.1087435442 0.1146412708)
(-0.4295945169 -0.09200817137 0.09921715821)
(-0.2706157359 -0.08333590116 0.01707785267)
(-0.1323065848 -0.1204087765 0.01076545852)
(-0.2621166123 -0.152992552 0.08457471122)
(-0.3184377639 -0.1532993728 -0.02348531545)
(-0.28941786 -0.1539440716 -0.1435485725)
(-0.1881642242 -0.1462641237 -0.2456147518)
(-0.0186760558 -0.1867810348 -0.250225288)
(-0.04392502965 -0.5003495808 -0.0708462621)
(-0.0732070923 -0.4419113142 0.03883072415)
(-0.1686707107 -0.404314786 0.09665270377)
(-0.2082974231 -0.3983447616 0.07442685415)
(-0.192569949 -0.4070662029 0.03068031978)
(-0.1139638287 -0.4121764934 -0.01218772574)
(0.01013035944 -0.3515003072 -0.007777479078)
(0.08001471094 -0.3137799286 -0.01331904475)
(0.09473555833 -0.3277386083 0.002360129402)
(0.1006295454 -0.3668504061 0.01245701224)
(0.06174788252 -0.3867998726 0.02701916195)
(-0.01623933188 -0.4033345135 0.09935526464)
(-0.1772730494 -0.3868904659 0.1596063775)
(-0.3108878274 -0.37488308 0.1301645822)
(-0.3781067652 -0.3478924954 0.1011163074)
(-0.4134614279 -0.3139295025 0.08587579029)
(-0.4200053789 -0.274853617 0.07726976544)
(-0.4148751498 -0.2546628412 0.07774606783)
(-0.4080372256 -0.2336499038 0.07982368987)
(-0.4039351752 -0.2159049677 0.06949080666)
(-0.4224975594 -0.1942354332 -0.03115810597)
(-0.2546459191 -0.1359237331 -0.4284889711)
(-0.1927207491 -0.1888792952 0.118531824)
(-0.3055756195 -0.2077889719 0.09957661782)
(-0.3309051972 -0.184026902 0.04417592408)
(-0.3194507118 -0.1542799217 -0.01453627188)
(-0.2484108457 -0.1327050366 -0.07215298592)
(-0.0905938563 -0.2374425987 -0.1140878463)
(0.0381549827 -0.2475140601 -0.0973471435)
(0.2832816544 -0.5615764893 -0.188452513)
(0.4977019141 -0.3664373136 -0.001940186123)
(0.4526967981 -0.2982143363 0.08385924692)
(-0.0414650803 -0.438216251 -0.0731974837)
(-0.07007120398 -0.4102594211 0.01169823334)
(-0.166062838 -0.399216188 0.0794340265)
(-0.228761813 -0.4186514142 0.04314524718)
(-0.2229596851 -0.4567762127 -0.05259216619)
(-0.1400152658 -0.4737069448 -0.1359755581)
(-0.01232421152 -0.4088993873 -0.1152125564)
(0.0721307233 -0.3201004149 -0.04173441272)
(0.07806474627 -0.3356288795 0.007691690249)
(0.07148196624 -0.3959076498 0.03071309211)
(0.01687575591 -0.407336496 0.05141444167)
(-0.09688259716 -0.4385204715 0.1259675125)
(-0.2384954947 -0.4329431796 0.1497887816)
(-0.3405763149 -0.4486180104 0.1199615409)
(-0.3881001679 -0.4412044019 0.09733521904)
(-0.413551469 -0.4198739031 0.08659297854)
(-0.4227899295 -0.3940335275 0.08784231975)
(-0.4277749889 -0.3732326949 0.09396728556)
(-0.4321902639 -0.3482846851 0.09711567444)
(-0.4409888032 -0.3120496309 0.07023584803)
(-0.4393094716 -0.2486702025 -0.03823019558)
(-0.2590964554 -0.1379891886 -0.1943849954)
(-0.1845732834 -0.2830679097 0.1337042627)
(-0.3181973469 -0.2687880377 0.1214972534)
(-0.3519385098 -0.2396526485 0.07617628334)
(-0.3750683875 -0.2067079042 0.01862878747)
(-0.375800414 -0.1885222125 -0.07142421494)
(-0.152449871 -0.2052734789 -0.2517188267)
(-0.2366087228 -0.2429225581 -0.1439070083)
(0.2877349497 -0.1910840378 -1.231290762)
(0.7295743471 -0.3490911858 -0.2427945093)
(0.5772964698 -0.3492663083 0.06175547983)
(-0.04171638197 -0.3411534444 -0.07469548291)
(-0.08022281187 -0.3284299712 -0.009162709728)
(-0.1915059013 -0.3422388457 0.0406099887)
(-0.2855213416 -0.3813250487 -0.04694884964)
(-0.2822850531 -0.4274272575 -0.1974844762)
(-0.1897117389 -0.440840784 -0.2951890287)
(-0.05629057707 -0.386366213 -0.2664807626)
(0.07670700237 -0.3074108778 -0.100676695)
(0.07022958967 -0.3351661438 0.009097322936)
(0.02939848696 -0.4250610048 0.04250810243)
(-0.06904630465 -0.4202637775 0.08882095015)
(-0.2175375038 -0.4990046225 0.1102324061)
(-0.3111111626 -0.532909669 0.06612627102)
(-0.3671307499 -0.5544003452 0.103313016)
(-0.3844508771 -0.5496659245 0.09138522015)
(-0.395613469 -0.5221010023 0.078469825)
(-0.4032715012 -0.5054878594 0.08687265575)
(-0.4062367003 -0.4916269247 0.09491610781)
(-0.4011578865 -0.4712279738 0.1029424149)
(-0.3939315257 -0.4387884818 0.1113204151)
(-0.3821156678 -0.3845964932 0.1210885725)
(-0.3286139898 -0.3035477997 0.1281938115)
(-0.2997859885 -0.3801241079 0.1178164871)
(-0.3227591905 -0.3480995096 0.1139843263)
(-0.3390445099 -0.3023398004 0.1038905516)
(-0.3544088868 -0.2413211064 0.06717882434)
(-0.3586496345 -0.201861249 0.02871287902)
(-0.2304503133 -0.1728681247 -0.002144572714)
(-0.3103463348 -0.1654081491 -0.2180669268)
(0.2523002576 0.200791832 -1.026480288)
(0.6168873944 -0.1023317572 -0.4869114242)
(0.5913176362 -0.2695231502 -0.05510660963)
(0.41118819 -0.36167939 0.1199205827)
(-0.0484753818 -0.229019049 -0.08700049086)
(-0.1145389125 -0.2200596606 -0.0429333095)
(-0.2634671124 -0.2313603294 -0.06543437507)
(-0.3717110568 -0.2521260099 -0.2222695264)
(-0.3589781531 -0.2763004899 -0.3845749971)
(-0.2527194253 -0.2760455331 -0.4716767815)
(-0.1110546874 -0.2442366246 -0.4450237438)
(0.07505399598 -0.2321837005 -0.2156189681)
(0.06092908043 -0.3046617312 -0.02240393099)
(-0.05083591902 -0.427510546 -0.01865484361)
(-0.2180808097 -0.4061819241 0.07863416259)
(-0.4043824458 -0.4738873906 -0.06438454331)
(-0.4220041865 -0.3834520127 -0.4521523616)
(-0.3513156568 -0.5036040169 0.006057907473)
(-0.3492258189 -0.6315031333 0.0508444452)
(-0.3552392496 -0.6062001935 0.05972559559)
(-0.3819000686 -0.6144168464 0.08504256016)
(-0.3937723414 -0.6106345733 0.09258021977)
(-0.394205249 -0.6040894759 0.09411102321)
(-0.3893582841 -0.5881499866 0.09503977116)
(-0.3796155298 -0.5634584944 0.1021816357)
(-0.3495271078 -0.5317038969 0.1061982457)
(-0.3210318328 -0.5293007333 0.09284043612)
(-0.3158514602 -0.4794726788 0.09884336744)
(-0.330198965 -0.4064771967 0.1064219573)
(-0.3591399816 -0.3194401723 0.06840341494)
(-0.3798790004 -0.2601582036 -0.01721625279)
(-0.1719250811 -0.1475263183 -0.2817114587)
(-0.1169676133 -0.1479405026 -0.2950569383)
(0.2415849946 0.1825175299 -0.6252913792)
(0.5328865421 -0.01490310196 -0.3129437386)
(0.5053996973 -0.2222897478 -0.008065364947)
(0.3650564971 -0.3596283491 0.1074832757)
(-0.1029743521 0.02959131132 -0.03724004113)
(-0.2811999049 0.03083662003 -0.06593784075)
(-0.4665086137 0.04557932109 -0.2500996561)
(-0.5119377512 0.06207869253 -0.4400027142)
(-0.4496140946 0.06528567114 -0.5578727148)
(-0.3071016761 0.05646318281 -0.6069935943)
(-0.144696216 0.02396917537 -0.5633442572)
(0.06721122043 -0.06683689691 -0.2942027318)
(-0.03884061801 -0.146688616 -0.04726660034)
(-0.1940312099 -0.1798062795 -0.18793695)
(-0.3312566015 -0.2554607826 -0.02501901053)
(-0.3987755168 -0.2621081166 -0.25488722)
(-0.3659807582 -0.3983581241 0.0966025707)
(-0.5136145765 -0.58338604 0.007815875333)
(-0.4069019498 -0.9016760587 -0.2574456166)
(-0.3032926698 -0.6998925629 0.02044897023)
(-0.3615487722 -0.7132717557 0.09253163021)
(-0.380592355 -0.704486533 0.09221730357)
(-0.3937020299 -0.7076387581 0.0793116887)
(-0.392998078 -0.695841952 0.06682930236)
(-0.3903307477 -0.6799288129 0.0636292027)
(-0.3790317173 -0.6640489933 0.05662388342)
(-0.3361937245 -0.6702871568 0.03622808662)
(-0.2978614173 -0.5911901199 0.05064520228)
(-0.3020981847 -0.4908063365 0.0731257691)
(-0.324099549 -0.3615264518 0.05471797361)
(-0.3071707948 -0.264665172 -0.05746227307)
(-0.1452455284 -0.1276500731 -0.1738349723)
(0.0259954953 -0.05260009966 -0.3163669428)
(0.2674461505 0.1899741935 -0.2236049451)
(0.4116393407 -0.06683340791 0.03523816235)
(0.3515192917 -0.2884957488 0.1252089122)
(0.2702590245 -0.4041752451 0.09592897664)
(-0.05572705639 0.2671147915 -0.05508932903)
(-0.1462982609 0.2649761971 -0.003567765849)
(-0.3295525017 0.2898958762 -0.06383335499)
(-0.4323308083 0.3113703721 -0.256242926)
(-0.3980273484 0.3207174509 -0.4023793825)
(-0.2849660486 0.3020037724 -0.4516578202)
(-0.1443628713 0.228930506 -0.366346968)
(-0.01420485011 0.1144557121 -0.03687332229)
(-0.1720216067 0.02877029796 0.09618983901)
(-0.2959407725 -0.01162958422 0.1207675874)
(-0.4571690376 -0.17681693 0.1186999776)
(-0.57088695 -0.2235664711 0.08848757467)
(-0.7163598602 -0.379910021 0.02362931915)
(-0.9162087443 -0.3540266252 -0.3185164545)
(-0.3187574979 -0.05149968135 -1.85553716)
(0.1033889776 -0.54972352 -0.0214656005)
(-0.3008648142 -0.6722276874 0.1123503179)
(-0.3672061921 -0.7444252634 0.08178761357)
(-0.4100264444 -0.7818216975 0.0457061036)
(-0.4123423175 -0.7722255304 0.02524291095)
(-0.4194308551 -0.7572496853 0.0123642195)
(-0.4316772909 -0.7327252705 -0.01924745754)
(-0.3389173402 -0.6842926448 -0.09760723783)
(-0.2484926485 -0.6565310741 -0.04368712625)
(-0.2570879046 -0.5631455929 -0.002918084941)
(-0.2567813153 -0.4303239503 0.04157688927)
(-0.2404091114 -0.3112498384 -0.08159373088)
(-0.04101822307 -0.2078801858 -0.2537490147)
(0.1306217422 -0.1238704792 -0.02931559953)
(0.2141332533 -0.1567782951 0.1523355853)
(0.2597339029 -0.3153766183 0.1552420934)
(0.2219380108 -0.4151648492 0.09559531105)
(0.1999314075 -0.4596104188 0.03690119769)
(-0.03375179397 0.3603749664 -0.0620057254)
(-0.06929649118 0.3453551427 0.02295259017)
(-0.2126747871 0.3641875483 0.07726711177)
(-0.3367090375 0.4125078563 -0.05239875077)
(-0.3457782582 0.4484360311 -0.2234300885)
(-0.2749975445 0.4173296231 -0.2750297633)
(-0.1758288614 0.2950120695 -0.1365594876)
(-0.2032711312 0.0561599075 0.1035689464)
(-0.3308313127 -0.0609362576 0.1441262793)
(-0.4220041555 -0.1528505996 0.1278298592)
(-0.5189842947 -0.230463456 0.07650246518)
(-0.5788816512 -0.2742011972 0.03201063032)
(-0.6261232737 -0.2985340667 -2.688634378e-05)
(-0.6585266468 -0.2332811346 0.002837828797)
(-0.5166131362 0.0310514305 0.02637766814)
(-0.3963462762 -0.465265514 0.04603046186)
(-0.4532785253 -0.6378316826 0.06391073534)
(-0.4796640541 -0.779877603 0.01992358493)
(-0.4645449128 -0.8351986655 -0.03272627686)
(-0.4335214441 -0.8107374381 -0.03532404972)
(-0.4246101605 -0.7823025926 -0.03837050135)
(-0.4074120202 -0.7335453714 -0.08001005138)
(-0.3415121771 -0.6512478438 -0.1310279679)
(-0.2592100688 -0.643050285 -0.1471579938)
(-0.2064317734 -0.5784618608 -0.1117297389)
(-0.1511618543 -0.4812320265 0.01050677622)
(-0.1771649893 -0.3581564333 -0.01554168106)
(-0.002557849107 -0.2103743765 -0.2241539852)
(0.1824811203 -0.2722859054 0.01139782636)
(0.1762135064 -0.339299249 0.1116282457)
(0.1761166826 -0.4164931908 0.06927836996)
(0.1561272293 -0.4650487634 0.01447041482)
(0.1674628354 -0.4764084893 -0.02064090642)
(-0.01137060761 0.3854876369 -0.07173427837)
(-0.003776319325 0.3631913709 0.02174313495)
(-0.1264117226 0.3599721941 0.1366819392)
(-0.2553754558 0.3858633397 0.09251513992)
(-0.2948963365 0.4207349299 -0.02876268503)
(-0.2628778709 0.3872274762 -0.07614996065)
(-0.2184711143 0.2301283644 0.03451712104)
(-0.3146649129 0.03593262816 0.1201072339)
(-0.439083051 -0.06516022703 0.1089942663)
(-0.5418493006 -0.1539533216 0.06273873146)
(-0.6121016992 -0.2269230171 0.00817935229)
(-0.6471453941 -0.2758774724 -0.03070775651)
(-0.6633400982 -0.3169222093 -0.04265179742)
(-0.6624572371 -0.3405434887 -0.01891487703)
(-0.5825420297 -0.3628951277 0.02857489909)
(-0.5360058102 -0.5276848731 0.02443867815)
(-0.5801048631 -0.6844450636 -0.01865846681)
(-0.5728102017 -0.8037193121 -0.1192713888)
(-0.50674437 -0.8325551693 -0.180135654)
(-0.4345082517 -0.7834776153 -0.129508888)
(-0.4079747825 -0.7406680749 -0.09182740106)
(-0.3927844787 -0.6775432624 -0.1390022005)
(-0.3286979358 -0.6068803681 -0.2087033306)
(-0.2318364422 -0.5662299332 -0.2525850752)
(-0.1373385292 -0.5231393681 -0.2504845624)
(0.009145498643 -0.5013326533 -0.09805877784)
(-0.01497112412 -0.4725630551 0.08772193737)
(0.02278666922 -0.4090614568 0.1679452266)
(0.1141740426 -0.4279854266 0.1172453261)
(0.05771818691 -0.459767473 0.05683904169)
(0.1039528803 -0.4649774358 -0.02520340788)
(0.1211303326 -0.4663205211 -0.05837331042)
(0.1620835431 -0.4546926958 -0.07168684963)
(0.02113490284 0.3404744178 -0.06621939542)
(0.05862557526 0.3439812316 0.007034066702)
(-0.03013735759 0.3348725895 0.1303864876)
(-0.1849270307 0.3267258543 0.1484451988)
(-0.2555522033 0.333489811 0.08740999231)
(-0.2706236696 0.2843688699 0.066815062)
(-0.3047470355 0.1434007608 0.1127811679)
(-0.4291695522 -0.003193431736 0.1211780383)
(-0.5486614619 -0.09752927756 0.07950867071)
(-0.6349709396 -0.1661293045 0.02252186013)
(-0.6831228834 -0.2145252877 -0.02489605549)
(-0.6983564599 -0.2456570793 -0.05312597258)
(-0.6998526834 -0.2711553804 -0.05804987526)
(-0.6967588748 -0.3005070633 -0.03808220368)
(-0.6899022458 -0.3531028503 -0.0196025378)
(-0.7086055181 -0.4931356655 -0.06602738996)
(-0.7213572638 -0.6276927625 -0.1968581554)
(-0.6520022675 -0.7133795847 -0.3485159173)
(-0.5224848773 -0.7146899374 -0.4064839948)
(-0.3892760509 -0.6546724867 -0.2828536134)
(-0.3351058628 -0.6069955186 -0.1568800601)
(-0.3488048547 -0.527338334 -0.1823861033)
(-0.302737006 -0.4463926658 -0.268967404)
(-0.207206433 -0.396504082 -0.3334384859)
(-0.09627776559 -0.3734667588 -0.3503884906)
(0.06728808126 -0.4071544862 -0.2112293058)
(0.06460612428 -0.4676804622 -0.01619277249)
(0.09219373343 -0.6511116693 0.1019599261)
(0.1529974118 -0.5060592614 0.07316254452)
(0.04920817469 -0.4881911983 0.002545612865)
(0.1033982013 -0.4446367433 -0.0847749765)
(0.1301199205 -0.4212517898 -0.1097827427)
(0.1833361281 -0.3981504576 -0.1118489591)
(0.03182825369 0.3152318595 -0.08583030828)
(0.07763955322 0.333917211 -0.02330554118)
(0.03182734376 0.3286237367 0.08961786704)
(-0.1328425148 0.290930747 0.1533839956)
(-0.2337223008 0.2602444186 0.1207450353)
(-0.2937659766 0.1949017857 0.1162580658)
(-0.3853353764 0.07721910315 0.1260361615)
(-0.5230799664 -0.03257171563 0.1033052632)
(-0.6457932818 -0.1065780308 0.06107687881)
(-0.7280491579 -0.1648985012 0.02270392643)
(-0.7667276336 -0.2066332778 -0.007485200673)
(-0.777910628 -0.2267341057 -0.02731905187)
(-0.7867838048 -0.2411410247 -0.03519251201)
(-0.8081438613 -0.2689619757 -0.04469795422)
(-0.8455699017 -0.3125670132 -0.1063404535)
(-0.8772808812 -0.3789806232 -0.2601290945)
(-0.8372544413 -0.4364256105 -0.4708942038)
(-0.6939047791 -0.460362166 -0.6563134051)
(-0.4980390884 -0.4336989776 -0.7183479945)
(-0.28386038 -0.3873520522 -0.5229943276)
(-0.1822042475 -0.3684184198 -0.256179432)
(-0.246779422 -0.3010326042 -0.210911624)
(-0.251250287 -0.2270985437 -0.3046681447)
(-0.18423402 -0.1785858369 -0.3777252564)
(-0.08415915472 -0.1813036796 -0.3884818865)
(0.06163533528 -0.3066764668 -0.2297269504)
(0.01411838967 -0.4235499099 -0.0908008422)
(0.09886994949 -0.846146657 -0.3849761844)
(0.2272771393 -0.5214975892 -0.06188509615)
(0.07733994555 -0.4636582119 -0.03772422041)
(0.1326707965 -0.378250517 -0.1233090778)
(0.1610155483 -0.3321795057 -0.1476933228)
(0.2154838827 -0.3017199311 -0.1435813196)
(0.0213148707 0.3368687355 -0.1150376224)
(0.06154721132 0.3424437926 -0.05382714635)
(0.03101792222 0.3283598684 0.06679714919)
(-0.1196916171 0.268977069 0.1533176657)
(-0.2325783482 0.210683042 0.1337846049)
(-0.3261756069 0.1349476562 0.1375080459)
(-0.4578213522 0.04184710722 0.1414250624)
(-0.6141631729 -0.03654523588 0.1274733653)
(-0.7469108358 -0.1100235023 0.1058986438)
(-0.8294788102 -0.1843532787 0.07826288033)
(-0.8611089621 -0.2242270934 0.05584169582)
(-0.8820621316 -0.2087595941 0.0518677702)
(-0.9360242684 -0.1752576324 0.03774245362)
(-1.01857409 -0.1590123154 -0.04616366382)
(-1.08761622 -0.1327189008 -0.2384294361)
(-1.079714243 -0.08538880405 -0.503918464)
(-0.9547984699 -0.01439308881 -0.7580324805)
(-0.7191266615 0.05660346087 -0.9531645559)
(-0.4368063013 0.1011032809 -1.035648332)
(-0.06550521161 0.06732914612 -0.7735881718)
(0.08425383035 0.02021910633 -0.3670880002)
(-0.006675011864 0.0572034947 -0.1430178857)
(-0.1275066144 0.139460003 -0.176624271)
(-0.1534483605 0.1586557076 -0.2537960562)
(-0.1701227504 0.1164577177 -0.242443501)
(-0.2022786463 -0.01762586556 -0.0479395551)
(-0.6110434133 -0.1439298734 -0.3781005446)
(0.0306635238 0.1510661237 -1.825552904)
(0.6624083072 -0.03760095053 -0.4772242034)
(0.2988829432 -0.2367250479 -0.0727966329)
(0.2410613883 -0.2065069475 -0.1329388482)
(0.2227355142 -0.1856319412 -0.1706096248)
(0.2578721653 -0.1677297999 -0.1671084781)
(0.0002043001417 0.3740378786 -0.132982053)
(0.03939916396 0.3529542253 -0.0591408104)
(-0.01227593726 0.3079622955 0.09107596998)
(-0.1352144182 0.2292325198 0.1627025464)
(-0.2484670605 0.1586695566 0.1557900463)
(-0.3753360221 0.08540872081 0.1706829894)
(-0.5448704885 0.01057109033 0.1779617268)
(-0.7199973059 -0.07150237383 0.1487515363)
(-0.8507877289 -0.1709680908 0.07613662652)
(-0.8985994602 -0.2600570265 -0.01018777049)
(-0.8699722304 -0.2820713331 -0.04862714311)
(-0.8370746215 -0.2269019981 0.004204155701)
(-0.855325241 -0.1332872662 0.08510958081)
(-0.9153621123 -0.04412896635 0.07175289684)
(-0.9843054083 0.06082310454 -0.02569730105)
(-1.009515052 0.1822169502 -0.2132295959)
(-0.9246242697 0.3097830884 -0.462112426)
(-0.7077692098 0.4138886613 -0.6859683131)
(-0.4238771505 0.4515464619 -0.7976126321)
(-0.06230795507 0.4025078331 -0.5470429944)
(0.03580149899 0.3656876676 -0.2055673629)
(-0.0400298026 0.358205045 -0.1012442767)
(-0.09603588251 0.3781726261 -0.1049168739)
(-0.1318613009 0.3893649021 -0.1496439566)
(-0.1577237884 0.3569809167 -0.1281718622)
(-0.2236593155 0.3164582924 0.09025264258)
(-0.4522759299 0.3655234562 -0.2023679916)
(-0.9624166233 0.3876040041 0.7715288629)
(0.2859734806 0.1828353949 -0.4156686387)
(-0.05210006384 0.04930953393 -0.1183891952)
(0.1720552169 -0.0002512647176 -0.194108283)
(0.2063882503 -0.004817172202 -0.1984848647)
(0.2730930903 0.002590215614 -0.1803006647)
(-0.02211646977 0.4099229516 -0.1370102603)
(0.01364382685 0.33581363 -0.0104411817)
(-0.07409968665 0.2460695707 0.1445771157)
(-0.17607477 0.1563375065 0.1776872608)
(-0.3024359599 0.09066221435 0.1802717536)
(-0.4671059414 0.0293811829 0.1770057948)
(-0.6667726012 -0.03559449435 0.1230491604)
(-0.8424007104 -0.09591414008 -0.00136883495)
(-0.9273844766 -0.1370239947 -0.1724399022)
(-0.8958409501 -0.1502505107 -0.3283273896)
(-0.8029703242 -0.1393278628 -0.3873704713)
(-0.7093003695 -0.1026151361 -0.2845622593)
(-0.6747675343 -0.07497012722 -0.06637818577)
(-0.7496484764 -0.03363585992 0.01917115224)
(-0.8093263445 0.09590160141 -0.002647520364)
(-0.8293615952 0.2534526749 -0.06374826898)
(-0.7775820106 0.452018465 -0.2042542034)
(-0.6202817323 0.6204710907 -0.3932720581)
(-0.3889180663 0.684158067 -0.512707725)
(-0.1130339749 0.6062529346 -0.3161027411)
(-0.05079854615 0.5474941037 -0.1058513866)
(-0.07056019592 0.5230169953 -0.07004818978)
(-0.09081941447 0.5352486383 -0.03433889369)
(-0.1493970535 0.541666786 -0.04304237483)
(-0.1766169453 0.4799207738 -0.01784979484)
(-0.2360177659 0.3885796839 0.1133677026)
(-0.3927103917 0.4182865228 0.009381927641)
(-0.1595673584 0.5882502046 -0.4592922881)
(0.0813154305 0.03872730667 -0.137505407)
(-0.0003511921454 0.1424391146 -0.1419757078)
(0.1690850965 0.111009533 -0.1941326515)
(0.2342154484 0.1331675834 -0.1894157976)
(0.2985804306 0.1514124308 -0.1637676424)
(-0.03107300674 0.4304790824 -0.1030933277)
(-0.01995222063 0.2798069009 0.07856501192)
(-0.1502209125 0.1585342938 0.1828174768)
(-0.2770562193 0.08338142328 0.1801363373)
(-0.4464165714 0.05440077309 0.1695043333)
(-0.6493963606 0.04546558689 0.1276585747)
(-0.8642821758 0.06003908047 -0.0004558699254)
(-1.019128968 0.1089219732 -0.2227211567)
(-1.028621993 0.1715583516 -0.4453736335)
(-0.9226576985 0.2180582707 -0.6017373234)
(-0.7602362597 0.2441371137 -0.651644604)
(-0.6005473668 0.2483146015 -0.518757232)
(-0.4771799809 0.2267812289 -0.1349246663)
(-0.6665837133 0.2354672685 -0.06363150281)
(-0.6833703513 0.2835636488 -0.1167874685)
(-0.679093369 0.3684887889 -0.1161437617)
(-0.6140924982 0.5088726046 -0.1285061939)
(-0.4970775544 0.6740402163 -0.1950620747)
(-0.3254140718 0.7698064334 -0.2698615036)
(-0.1433181545 0.6943424525 -0.156094013)
(-0.1142655818 0.6460864125 -0.05708450957)
(-0.110565819 0.6134195061 -0.0334209921)
(-0.1274292981 0.6107457147 0.03760628657)
(-0.204773557 0.5964856758 0.04930914595)
(-0.2414937084 0.512983255 0.05079495073)
(-0.3104232258 0.4037214694 0.07083581894)
(-0.3677599699 0.3696676976 0.005954548423)
(-0.2031165728 0.4738527847 -0.06299631136)
(-0.07047564083 0.2234442191 -0.1290190039)
(-0.01845590221 0.2418485393 -0.1634397526)
(0.1652160007 0.2245822151 -0.1822287759)
(0.2682050816 0.2554667472 -0.1711608742)
(0.3427936033 0.2840715785 -0.1447486741)
(-0.01796948829 0.4160001006 -0.0196363707)
(-0.05608964273 0.1982243274 0.1437392083)
(-0.2226531345 0.1000878798 0.1486827259)
(-0.3642313131 0.06051318722 0.1054791737)
(-0.5093816587 0.06735204252 0.08194738544)
(-0.6527374417 0.09523451273 0.06414048288)
(-0.8014665866 0.1408265231 0.02445015123)
(-0.9334588039 0.2163578406 -0.07997128858)
(-0.9820728746 0.317597267 -0.2488377267)
(-0.9125928216 0.4063396935 -0.4061771861)
(-0.7701772348 0.4490195658 -0.4711398166)
(-0.6257925409 0.4389316921 -0.3657710903)
(-0.5485635734 0.4093109475 -0.08306226824)
(-0.6598124783 0.4174746084 -0.09010696093)
(-0.6313112562 0.4357994001 -0.1615130406)
(-0.5874685747 0.4925591561 -0.1723345578)
(-0.4988767234 0.579394296 -0.1535042819)
(-0.3913298056 0.6936370277 -0.1298617093)
(-0.2597534567 0.7855225699 -0.1173863444)
(-0.1608287334 0.7358091529 -0.05438113299)
(-0.1590314843 0.6968511387 -0.01838328722)
(-0.1633955244 0.6513899592 0.01524996972)
(-0.2016954701 0.6177454268 0.09218156742)
(-0.2841490663 0.5851100338 0.09647446485)
(-0.3270758382 0.5050727827 0.06461105784)
(-0.3757783771 0.4154575878 0.0230622518)
(-0.3729520721 0.3790204745 -0.03664679528)
(-0.2706410176 0.3977467307 -0.07071013446)
(-0.1536781263 0.2654749656 -0.1329599647)
(-0.02371039773 0.2563404501 -0.18894696)
(0.1803760512 0.2759525525 -0.1951972079)
(0.3096804996 0.3430288435 -0.1637627801)
(0.3908513477 0.3897319672 -0.1287697931)
(-0.005961400783 0.3374834677 0.08604963056)
(-0.1159770364 0.1571395336 0.1251182403)
(-0.2699601503 0.1249333042 0.06928248609)
(-0.3910932477 0.1053913858 0.03637102456)
(-0.5093827688 0.1036837206 0.03159107106)
(-0.6198358431 0.1252620479 0.03287415484)
(-0.7223702673 0.1763112459 0.03278895053)
(-0.8121442309 0.2642472655 0.01087078174)
(-0.8662682517 0.389127433 -0.06769327767)
(-0.8444214347 0.5140674814 -0.1862177192)
(-0.7530518022 0.583158549 -0.2587463337)
(-0.6521767915 0.5747350309 -0.2033898123)
(-0.6164829498 0.5359467422 -0.05407689718)
(-0.6541654216 0.5521146994 -0.09685884276)
(-0.603254842 0.5651619802 -0.1654224288)
(-0.535989995 0.6054074198 -0.1880340163)
(-0.4358043086 0.6570429769 -0.1743048834)
(-0.3311804247 0.7232527942 -0.1220157816)
(-0.221962688 0.7865871152 -0.04099009591)
(-0.1870774755 0.758698309 0.01574204275)
(-0.2009994401 0.7148019851 0.02401086162)
(-0.2252207616 0.6516120234 0.05949216493)
(-0.283839721 0.5977513631 0.110043876)
(-0.3605147404 0.5585102042 0.09136831076)
(-0.3999717912 0.4980567089 0.03942284994)
(-0.4219660424 0.4413771534 -0.01734202101)
(-0.407130756 0.4190200117 -0.06551175911)
(-0.3524308773 0.4178810516 -0.1179496623)
(-0.2523067491 0.3995058511 -0.4249574092)
(-0.05106482541 0.3691581055 -0.4291848719)
(0.2126192556 0.383220427 -0.3625174821)
(0.3674108394 0.4455002055 -0.2277565582)
(0.4485213656 0.488312857 -0.1366730001)
(-0.04381308276 0.2325933145 0.1418945231)
(-0.1763991412 0.1705420508 0.07186883469)
(-0.2934382317 0.1628541793 0.01920403456)
(-0.3800096795 0.1530931254 0.006142580856)
(-0.4717652875 0.153376331 0.01146921621)
(-0.5641353511 0.1722205343 0.01470828669)
(-0.6452769432 0.2150829792 0.01653760802)
(-0.7070858102 0.2861715959 0.01999597064)
(-0.7443266996 0.3883290989 0.007664601274)
(-0.7434560118 0.5078289931 -0.03899564012)
(-0.6953287572 0.5980934081 -0.08966796234)
(-0.6337106445 0.6177170517 -0.08332925326)
(-0.6183847772 0.6010142358 -0.03663770651)
(-0.6244168083 0.6364149264 -0.08357652511)
(-0.5733904273 0.6592505497 -0.1408700461)
(-0.5033286783 0.6918274157 -0.1670629583)
(-0.4072024377 0.7200770671 -0.1592049951)
(-0.3120562967 0.7493636283 -0.1027215517)
(-0.2242161706 0.7795910174 0.00515276594)
(-0.2280902517 0.7549181552 0.05981136468)
(-0.2453472517 0.7051548606 0.05738306679)
(-0.2825994202 0.6375875405 0.07970757855)
(-0.3473389427 0.5819281941 0.09254214558)
(-0.4109916392 0.5486228239 0.05532421004)
(-0.4384989809 0.5122092421 -0.0003673041747)
(-0.4383124535 0.4873337256 -0.05174860388)
(-0.4155959627 0.4893023897 -0.08784343958)
(-0.3748069787 0.5178921169 -0.1398926186)
(-0.2945908807 0.5795708099 -0.4124492101)
(-0.07648785637 0.5837233199 -0.5612955272)
(0.2182216854 0.5903130554 -0.5650091203)
(0.4127118648 0.5926128295 -0.3102999955)
(0.4923173564 0.5953393876 -0.1510405604)
(-0.1032132465 0.1928480769 0.1359419084)
(-0.2156336535 0.1998873147 0.0368996158)
(-0.3116493119 0.2045493349 -0.005553065473)
(-0.3764297813 0.2053846466 -0.009808519374)
(-0.4474582295 0.2099861284 -0.002361281877)
(-0.5196991293 0.2259896182 3.5180173e-05)
(-0.5803551611 0.259586196 -0.001733008791)
(-0.6207848232 0.3144110011 0.001006035556)
(-0.641524285 0.3918359954 0.007133733477)
(-0.6417068758 0.4861006042 0.00416342945)
(-0.6179191406 0.573998562 -0.01178598595)
(-0.5846613577 0.6204960341 -0.02055704746)
(-0.5790780504 0.6361245939 -0.0206904671)
(-0.5789225275 0.6846891696 -0.05613904146)
(-0.539509328 0.7162362228 -0.09873111704)
(-0.4796887857 0.7433019936 -0.1221244368)
(-0.3985224836 0.7544401672 -0.1156085751)
(-0.3200216374 0.7547148293 -0.06217298892)
(-0.2581813542 0.7538906824 0.0362477906)
(-0.2722237016 0.7279310844 0.07569903)
(-0.2867370199 0.6806067134 0.06914387775)
(-0.3268331834 0.6246005872 0.07408928834)
(-0.3860424728 0.582067741 0.05930905143)
(-0.4341097746 0.5611578555 0.01412969339)
(-0.4446411724 0.5453223168 -0.0376350675)
(-0.4275441195 0.5423977152 -0.08040372495)
(-0.3842628369 0.5604817595 -0.1085867446)
(-0.316206769 0.6023614384 -0.1292467134)
(-0.2210671863 0.6748876014 -0.2005116163)
(-0.03592853688 0.7420872312 -0.3390461192)
(0.2287801796 0.7438883441 -0.4217434824)
(0.42005346 0.709005025 -0.2409687619)
(0.4951310425 0.6798608704 -0.1175671612)
(-0.1354309173 0.2044304241 0.1254921909)
(-0.2363585914 0.229833067 0.0247739499)
(-0.3259247292 0.2443407095 -0.01405207526)
(-0.3802514992 0.2541578888 -0.01795409134)
(-0.4360217668 0.263252137 -0.01310651241)
(-0.4887970784 0.2775947175 -0.01300499986)
(-0.5293172425 0.3032668149 -0.01707074955)
(-0.5520742693 0.3451076126 -0.01810658864)
(-0.5593609546 0.4050125997 -0.01207978684)
(-0.5552838772 0.4799211885 -0.002782511036)
(-0.5422210865 0.5577725976 0.002316668361)
(-0.527358711 0.616866775 0.001620828192)
(-0.5290008755 0.6541772404 -0.004111211848)
(-0.5316435687 0.7041941976 -0.02372028796)
(-0.5067201433 0.7365929105 -0.05083519606)
(-0.4620285688 0.7564282648 -0.06785642986)
(-0.3997971116 0.7544699198 -0.06198661243)
(-0.340374494 0.7348754679 -0.02046981927)
(-0.3012722247 0.7135857966 0.04554310871)
(-0.3084360885 0.6915614293 0.06643052595)
(-0.3188311638 0.656113985 0.0607900904)
(-0.3553996023 0.6204124686 0.05578863981)
(-0.4047400027 0.596693179 0.02901404108)
(-0.4378522033 0.5891993885 -0.01662279022)
(-0.4361930236 0.5880710176 -0.06271615379)
(-0.406378238 0.5978079889 -0.09981312868)
(-0.3461550874 0.6213877663 -0.1268539066)
(-0.254540041 0.6599943835 -0.1445236861)
(-0.1402278056 0.7172795764 -0.1622877211)
(0.03194374342 0.7940884666 -0.2094836254)
(0.2403528594 0.8124489012 -0.2562527827)
(0.4015636297 0.7663751816 -0.1580455031)
(0.4711874119 0.726240327 -0.08284813365)
(-0.1442808813 0.2296767668 0.1276337915)
(-0.2444044566 0.2566049181 0.0289274124)
(-0.3343337317 0.2785248535 -0.0117994245)
(-0.3850470784 0.2951223185 -0.02031100458)
(-0.4307602196 0.3080777108 -0.02051738321)
(-0.4675874261 0.3215513464 -0.02351329003)
(-0.4916324315 0.3415674134 -0.02905739195)
(-0.5002493412 0.3735257046 -0.03164204306)
(-0.4965379353 0.4203461099 -0.02696893783)
(-0.4866528525 0.4811354435 -0.01531667682)
(-0.4766247079 0.5488963239 -0.001275190984)
(-0.4723118251 0.6080960179 0.009068625837)
(-0.4809511235 0.6515012876 0.01209913959)
(-0.4897130181 0.6942420378 0.005705749367)
(-0.4786266174 0.7214833574 -0.00893029693)
(-0.4488320772 0.7340574839 -0.02031486509)
(-0.4041388324 0.7246902397 -0.0184533247)
(-0.360993434 0.6980881142 0.003519969251)
(-0.3343176415 0.6730439014 0.03506736979)
(-0.3319855803 0.6594640153 0.04487551038)
(-0.3388532073 0.6400885029 0.04488334773)
(-0.3694901006 0.6245337826 0.03905270246)