/*--------------------------------*- C++ -*----------------------------------*\
  =========                 |
  \\      /  F ield         | OpenFOAM: The Open Source CFD Toolbox
   \\    /   O peration     | Website:  https://openfoam.org
    \\  /    A nd           | Version:  8
     \\/     M anipulation  |
\*---------------------------------------------------------------------------*/
FoamFile
{
    version     2.0;
    format      ascii;
    class       volScalarField;
    location    "0.4/wallFilmRegion";
    object      delta;
}
// * * * * * * * * * * * * * * * * * * * * * * * * * * * * * * * * * * * * * //

dimensions      [0 1 0 0 0 0 0];

internalField   nonuniform List<scalar> 
1369
(
0.0006688581506
7.252549025e-05
7.42990347e-05
7.595092212e-05
8.162330291e-05
8.927186868e-05
9.457352887e-05
0.0006728872467
5.97255941e-05
6.332369272e-05
7.053172796e-05
8.396760396e-05
0.000101345928
0.0001169168181
0.0001176235119
9.875848601e-05
7.40336868e-05
5.488550497e-05
0.000708153243
4.943974891e-05
5.545646406e-05
6.67958428e-05
8.643741268e-05
0.0001132463461
0.0001387924934
0.0001446324589
0.0001236590146
8.831754982e-05
5.844903747e-05
3.908030701e-05
2.87097337e-05
0.0007628436327
4.231733994e-05
5.068015023e-05
6.428913044e-05
8.689166943e-05
0.0001181326954
0.0001498690489
0.000163423565
0.0001464406235
0.0001077375166
6.824239541e-05
3.914622434e-05
2.455221431e-05
1.895989127e-05
1.626543643e-05
1.505164937e-05
2.201913325e-05
0.0008254223844
3.873759983e-05
4.943079288e-05
6.444915099e-05
8.789357659e-05
0.0001194363617
0.0001528588652
0.0001705536601
0.000158203601
0.0001230263775
8.352100473e-05
4.243774399e-05
2.003725492e-05
1.381985378e-05
1.344501384e-05
1.769281118e-05
4.310827896e-05
0.0001321001314
1.752001688e-05
0.0009033392022
3.854463492e-05
5.202944507e-05
6.86288344e-05
9.217550075e-05
0.0001212193238
0.0001493956111
0.0001632633528
0.0001543152342
0.0001302717152
0.0001049323198
5.290576667e-05
1.56135014e-05
7.661664181e-06
1.016642788e-05
2.267262092e-05
7.570240418e-05
0.0001813992719
1.80641964e-05
8.791165174e-06
6.955037953e-06
9.610717982e-06
1.82335803e-05
0.001029493152
4.111623273e-05
5.714616105e-05
7.436226931e-05
9.593212009e-05
0.0001194610307
0.0001386737318
0.000145486055
0.0001398274881
0.0001360761195
0.000145618704
9.521309601e-05
2.688258737e-05
1.202786878e-05
1.535748897e-05
3.746192103e-05
0.0001268352072
0.0001917417812
2.895088418e-05
1.530702069e-05
8.958063598e-06
9.404303514e-06
1.820511319e-05
2.873573457e-05
1.636642897e-05
0.00120316937
4.596284057e-05
6.25283445e-05
7.805982485e-05
9.550863502e-05
0.0001126718917
0.0001239689746
0.000124258549
0.000118596728
0.0001400646871
0.0002269809882
0.0002823230654
0.000201719999
8.023661722e-05
5.38378262e-05
9.242327537e-05
0.0002073106734
0.0001617932351
3.717404159e-05
2.887773787e-05
1.686677936e-05
1.280887472e-05
1.753700969e-05
3.099095458e-05
4.521242847e-05
3.179991784e-05
0.001298339772
5.327054022e-05
6.744228949e-05
8.014944227e-05
9.389390792e-05
0.0001068138975
0.0001129453513
0.0001054942343
8.415484812e-05
8.195206824e-05
0.0001749758572
0.0003393639752
0.0005398543232
0.0005839540418
0.0004426824038
0.0003327010357
0.0002703376091
0.000111291574
3.300568613e-05
3.56667465e-05
2.305240483e-05
1.412148797e-05
1.247712112e-05
1.708430855e-05
2.830047444e-05
4.400096196e-05
0.00117402808
6.332524204e-05
7.29350651e-05
8.384234744e-05
9.607978594e-05
0.0001068498175
0.0001104060728
9.756675698e-05
6.213316774e-05
2.935129948e-05
6.358176128e-05
8.894499674e-05
9.476238363e-05
0.0001273046538
0.000187071921
0.0002226358812
0.0001926202901
6.391322212e-05
2.320092821e-05
3.289037514e-05
2.425084965e-05
1.303437843e-05
8.099508985e-06
7.614482784e-06
1.068547096e-05
1.803505168e-05
2.93675832e-05
0.0009356801869
7.422609051e-05
7.859817574e-05
8.878057119e-05
0.0001004350029
0.0001100030662
0.0001126898568
9.723689083e-05
5.536695196e-05
2.194650564e-05
8.097824406e-05
0.0001646590256
0.0001136826925
9.989100596e-05
0.0001109851825
0.0001069748314
7.855903111e-05
3.359956672e-05
1.91706296e-05
3.147991334e-05
2.649670369e-05
1.352848261e-05
6.802333638e-06
4.440303279e-06
4.113934584e-06
5.252710218e-06
7.905433209e-06
0.0007873315621
7.207314566e-05
7.128868847e-05
7.965564423e-05
8.883357399e-05
9.727570304e-05
0.0001002956104
8.639569339e-05
4.974496141e-05
2.8074222e-05
0.0001128826258
0.0003010099783
0.000160208379
0.0001115499737
9.96880795e-05
8.014961039e-05
5.308896569e-05
2.183742966e-05
2.441708505e-05
4.285949889e-05
4.661321025e-05
3.396258838e-05
1.778045229e-05
1.064288381e-05
8.309211913e-06
7.444295558e-06
7.610615134e-06
0.0008136823244
6.327540764e-05
6.202392502e-05
6.334024118e-05
6.541008542e-05
6.887924807e-05
7.374821638e-05
7.874578783e-05
8.727097092e-05
0.0001064191891
0.0001229978004
0.0001205907742
0.0001123003917
0.0001030884504
8.921980469e-05
6.89829324e-05
4.45986983e-05
1.1787188e-05
2.454252095e-05
4.681584374e-05
6.822517996e-05
8.980742553e-05
0.0001012516551
9.491662744e-05
7.889433982e-05
5.816066623e-05
3.721326381e-05
2.141398325e-05
0.00131316375
0.0003911169287
0.0003750206193
0.0002688428665
0.0001725828727
0.0001243585521
0.0001090244092
0.0001016842531
8.424550899e-05
5.649469377e-05
3.839626565e-05
2.327967342e-05
1.411426682e-05
1.036308921e-05
9.288693825e-06
5.392744112e-06
1.475255417e-05
6.482900075e-05
1.204117224e-05
1.783324445e-05
2.299204867e-05
3.231927934e-05
3.607828462e-05
1.269743142e-05
5.331054775e-07
1.990671803e-10
9.185207265e-11
7.036065866e-11
1.620216094e-09
0.0008578862422
0.0001747330596
0.0002715904437
0.0003550475949
0.0003853533957
0.0003605561698
0.0003311873179
0.000299761463
0.0002294944145
0.0001191549207
4.885712296e-05
2.936309236e-05
1.59776472e-05
1.085284242e-05
1.136198024e-05
1.663362244e-05
4.361228087e-05
8.561977963e-05
1.45131083e-05
2.616157087e-05
3.466452899e-05
2.56401747e-05
5.555980824e-06
9.35766347e-08
3.69427772e-12
8.915527898e-16
7.758128597e-18
6.040545991e-09
4.78164773e-06
0.0006169896091
7.868014141e-05
0.0001405120625
0.0002443202032
0.0004008257217
0.0005618805173
0.0006446069711
0.0005879668665
0.0003894045826
0.0001580995694
4.669050178e-05
2.511660283e-05
1.321090385e-05
1.175546939e-05
1.950184603e-05
3.469109293e-05
7.525978897e-05
0.0001042554763
1.872860948e-05
2.150089141e-05
1.03524728e-05
1.160108679e-06
5.08156557e-09
3.015675435e-15
1.997824406e-20
2.069320769e-09
7.293032772e-11
1.313617105e-06
2.006553781e-05
0.0005067191288
5.383757429e-05
8.127896621e-05
0.0001140392665
0.0001465698471
0.0001652873701
0.000163471354
0.0001452794743
0.000112423213
6.892211213e-05
3.917562663e-05
2.080948222e-05
1.224784878e-05
1.351976594e-05
2.780728293e-05
5.492899532e-05
0.0001078047967
0.0001228054229
2.091603368e-05
2.09038767e-06
8.778592675e-08
3.086355113e-11
1.962661558e-18
1.393280918e-10
1.304041695e-07
0.0003559631227
3.700706288e-06
2.942956637e-09
3.918440665e-12
5.951630473e-11
8.595904585e-11
9.674300547e-11
1.097213506e-10
1.390186363e-10
0.0007100705207
4.976283075e-05
6.600306145e-05
7.454593504e-05
7.734959415e-05
7.637457593e-05
7.397257485e-05
7.518039651e-05
8.182614902e-05
8.110398092e-05
5.311396305e-05
2.63904115e-05
1.336206812e-05
1.24910725e-05
3.032578602e-05
7.181339042e-05
0.0001380201386
0.0001418821107
2.048899658e-05
5.39930971e-10
6.391877331e-15
2.853664291e-22
6.074573384e-30
2.903808661e-21
4.92252406e-13
1.39964626e-05
9.906126166e-09
3.249971377e-18
1.071266585e-17
2.714918232e-17
5.887300061e-17
1.483432751e-16
2.050039416e-16
2.481254961e-16
0.0008639902901
9.176173302e-05
8.370536574e-05
7.215190471e-05
6.226441733e-05
5.56629682e-05
5.091340435e-05
4.615203893e-05
4.07313138e-05
3.930576412e-05
7.035503911e-05
0.0001114409922
0.000168749589
0.0002055522914
3.390732011e-05
7.577997375e-05
0.0001552683564
0.000158604339
2.016892087e-05
4.953139782e-11
2.250056029e-19
4.223728799e-29
3.634335127e-39
1.941772908e-21
1.060632297e-15
6.188246873e-08
1.157796441e-10
1.902890352e-10
2.034888374e-10
2.148115363e-10
2.320464585e-10
2.817486897e-10
3.109169545e-10
3.02998139e-10
0.0008362128314
7.258483082e-05
7.097529673e-05
6.408957179e-05
5.764845206e-05
5.227357532e-05
4.712713629e-05
3.990377173e-05
2.895188729e-05
1.620768312e-05
3.638999494e-05
0.0001151280201
0.0002306929184
0.0002006349668
1.410403299e-05
5.474010618e-05
0.0001478325288
0.0001647445551
2.213191559e-05
3.700484969e-11
4.692936285e-20
7.393553868e-30
5.814848108e-30
1.10418787e-09
2.84545976e-06
3.059198997e-05
5.576799361e-05
4.297525806e-05
2.476533054e-05
1.309113108e-05
7.624341435e-06
5.563011937e-06
5.156882904e-06
0.0008505876695
8.676907225e-05
0.0001006665571
9.318005648e-05
7.73898434e-05
6.195243045e-05
5.13674895e-05
4.274242163e-05
3.017626556e-05
1.510316458e-05
2.215645886e-05
0.0001189685401
0.000205844604
8.039715911e-05
3.204543536e-06
1.580768485e-05
8.897574694e-05
0.0001456661356
2.85442431e-05
2.536183201e-11
1.148812214e-20
2.749067094e-27
1.536984559e-28
1.539154217e-29
1.581176553e-10
4.871559627e-07
9.79353328e-06
3.900877816e-05
5.68022841e-05
5.363520474e-05
4.233810486e-05
3.054165312e-05
0.001028438575
0.0002557008585
0.0003837726388
0.000389465
0.0002750780351
0.0001294872723
6.24866397e-05
4.896226801e-05
3.500804489e-05
2.027412247e-05
2.201186538e-05
0.0001091499323
0.0001142218111
1.797946777e-05
4.399504381e-07
1.124557749e-06
9.557372091e-06
4.751991998e-05
2.258071258e-05
3.611505371e-12
1.874438392e-17
4.210883053e-18
5.825774556e-19
8.510756107e-20
8.285343593e-21
6.907599841e-13
1.363830933e-08
8.528602529e-07
3.944061085e-06
9.131557726e-06
1.50815409e-05
1.811938462e-05
0.001072545846
0.0003237427631
0.0004257656791
0.0004335781992
0.0003701063921
0.0002066713703
8.537034358e-05
6.145999896e-05
4.314282936e-05
2.812518701e-05
2.800503552e-05
6.966620646e-05
4.525424005e-05
4.5709589e-06
2.68418744e-07
3.9438659e-08
8.722054585e-08
1.062171634e-06
3.033464006e-06
8.636301014e-11
5.964426087e-11
4.263597575e-11
2.63736468e-11
1.88152463e-11
1.238636775e-11
3.488604124e-12
1.699779469e-14
7.445620491e-12
2.04890122e-09
4.138284719e-08
2.410581458e-07
5.916681672e-07
0.0006937683665
8.513349965e-05
9.465454197e-05
0.0001096674074
0.0001388966745
0.0001749501843
0.0001380011946
0.0001002350079
5.560201701e-05
3.554291324e-05
2.838194671e-05
3.748906104e-05
1.704613752e-05
2.092189813e-06
3.268843622e-07
5.948103608e-08
2.035272849e-08
4.402614035e-09
1.427885545e-07
3.710779898e-08
4.607910361e-08
1.280257752e-07
4.356321045e-07
1.856447621e-06
8.035308682e-06
1.287682614e-05
2.539954895e-06
2.145549293e-09
3.479646881e-11
8.624911126e-13
1.136446554e-13
0.0008372109884
6.533099972e-05
6.064465288e-05
6.656507372e-05
8.823820201e-05
0.0001469689651
0.0002758397298
0.0007895293361
0.0001040876903
4.227732155e-05
2.545008276e-05
2.095941857e-05
8.247035846e-06
1.800025824e-06
4.713734803e-07
1.429750081e-07
4.759884459e-08
9.047152576e-09
2.107204245e-08
4.779428249e-08
1.481772748e-07
4.190787638e-07
1.153075645e-06
3.214973355e-06
7.662335374e-06
1.135843005e-05
1.413978755e-05
2.229793333e-05
3.072289611e-05
1.296270691e-05
3.520913954e-07
0.0008838392536
7.913774747e-05
7.310796793e-05
7.374034369e-05
8.651400648e-05
0.0001666908779
0.0005257726628
0.0009295332434
0.0001327779663
4.856485319e-05
2.432432661e-05
1.499092007e-05
6.112378644e-06
1.940837862e-06
6.300287094e-07
2.28850457e-07
7.429010214e-08
1.39103376e-08
3.381399858e-08
1.607640371e-07
5.029456906e-07
1.287959867e-06
2.993116887e-06
6.568556826e-06
1.310409703e-05
2.310262503e-05
3.850304084e-05
5.763982082e-05
5.896927933e-05
1.795145992e-05
4.917994919e-07
0.0008859516916
8.488769923e-05
8.873550945e-05
0.0001045655794
0.0001492363074
0.0002361990884
0.0002815010602
0.0002281337702
0.0001376313151
5.717416359e-05
2.649182202e-05
1.388420005e-05
6.104280486e-06
2.377789825e-06
9.485075618e-07
3.901231006e-07
1.383309999e-07
5.696171467e-08
2.49389841e-07
1.11739136e-06
2.877668806e-06
6.061545207e-06
1.15335551e-05
2.051273451e-05
3.405460566e-05
5.146804241e-05
6.7033908e-05
6.240783775e-05
2.118533015e-05
7.631146353e-07
7.69691263e-12
0.0009155733432
0.0001472095905
0.0002093386958
0.0002660963675
0.0002775749963
0.0002349828925
0.000178849694
0.0001290714757
0.000153525544
0.0002121600113
0.0001678537867
2.179303307e-05
7.463557071e-06
3.638852221e-06
1.792953498e-06
7.814657206e-07
2.662606897e-07
1.280464219e-07
3.625906274e-07
5.070495817e-06
8.842801655e-06
1.420887892e-05
2.113857117e-05
2.880515295e-05
3.51651775e-05
3.50824667e-05
2.152896289e-05
5.757704436e-06
2.119899316e-07
2.416001717e-12
2.814034097e-26
0.0009202311318
0.0001405379954
0.0002076087017
0.0002740044012
0.0003088185449
0.000287087119
0.000216865789
0.0001349673497
9.40507221e-05
0.0001835101848
0.0001125702016
2.558819727e-05
1.525114979e-05
1.272036212e-05
8.43987715e-06
1.793282765e-06
4.66285759e-07
1.072876583e-07
1.977177715e-09
8.885276262e-07
2.666351562e-06
4.459873602e-06
5.593437722e-06
5.684137279e-06
4.472411026e-06
2.239802052e-06
3.840661138e-07
5.244259423e-09
4.626173615e-14
6.236942598e-27
1.00293859e-29
0.0009934333129
0.0001274268895
0.0001989155336
0.0002796444625
0.0003293998983
0.0002974897165
0.0002295591307
0.0001388309377
5.790357134e-05
0.0001073639441
7.584736611e-05
7.183964902e-05
0.0001499106115
0.0002279305818
0.000150219979
3.993999709e-06
8.648761921e-07
9.788098744e-08
2.81892289e-11
1.852947104e-10
4.298554265e-09
1.802457508e-08
2.666307289e-08
1.902795798e-08
5.676443033e-09
3.554444499e-10
5.242027245e-13
1.86580893e-24
9.948147326e-22
1.665413284e-20
4.68472637e-20
0.001138115361
9.566587015e-05
0.0001276806559
0.0001388013253
0.0001393256458
0.0001774130042
0.0002023578471
0.0001327935055
4.418875098e-05
7.230759467e-05
0.000115714108
0.0001932294606
0.0002225008911
0.0001587854731
7.360904e-05
8.005886274e-06
1.641464773e-06
9.507661506e-08
1.790858742e-11
1.992209296e-17
1.594206961e-16
1.197701448e-15
8.270949498e-16
8.851194667e-17
3.492402475e-19
1.436577418e-22
1.088800874e-15
5.895634571e-14
3.541018882e-12
7.032624544e-12
4.641825154e-12
0.001410604844
0.0001335987706
0.000134798257
0.0001410822126
0.0001492077116
0.0001730365408
0.0001829842074
0.0001160802546
4.013265393e-05
0.0001099987018
0.0001142032466
8.223195654e-05
6.356354445e-05
4.348031765e-05
2.701509725e-05
1.428394426e-05
2.93634189e-06
9.680611832e-08
1.135011009e-11
5.922697371e-18
4.997728991e-21
7.003633757e-23
1.170169636e-26
4.051562816e-28
2.00820892e-25
7.571332287e-16
4.780157324e-08
3.877009469e-06
4.791736631e-06
1.073371125e-06
9.516736789e-07
0.001403352958
0.000134683487
0.0001343084541
0.0001512447406
0.0001671831678
0.0001734999458
0.0001594473
0.0001103592377
6.15890259e-05
9.749586898e-05
4.573132817e-05
3.351689239e-05
2.67118294e-05
2.282959619e-05
2.456831881e-05
2.486094159e-05
5.719105474e-06
1.466420631e-07
4.856053159e-11
4.783790116e-11
3.50152885e-11
1.423223941e-11
2.188985446e-13
1.517587505e-19
8.096801967e-14
1.858626803e-07
6.779492074e-06
1.023879135e-05
3.895791544e-06
1.31317778e-06
1.317321902e-06
0.00115227289
0.0001141567604
0.0001199632473
0.0001434795101
0.0001710091559
0.0001961019912
0.0002124791832
0.0002246673489
0.0002170418384
0.0002126304375
0.0001769418085
0.0001279749256
7.224461371e-05
3.333197986e-05
2.145457133e-05
3.513118653e-05
1.965871562e-05
1.458173055e-05
1.409347881e-05
1.562831935e-05
2.133906926e-05
2.832889825e-05
1.114816745e-05
2.001962441e-07
1.537041726e-07
1.021617162e-05
2.772277525e-05
1.972643917e-05
8.051986384e-06
4.089491713e-06
3.397914216e-06
0.0008378506627
9.127362931e-05
0.0001026148981
0.0001270640118
0.0001551250046
0.0001750188943
0.0001700340298
0.000149198041
0.0001471129597
0.0001658599641
0.0001953143772
0.0002200178872
0.0001832734247
8.234445137e-05
2.168501445e-05
3.232593853e-05
3.318738862e-05
3.336509794e-05
3.531909371e-05
4.081026151e-05
5.316070668e-05
5.072093366e-05
1.122800398e-05
1.232305466e-07
4.558527713e-07
1.707922625e-05
5.125221244e-05
4.250837666e-05
2.125514363e-05
1.136324483e-05
8.623570806e-06
0.0005878791386
7.196933092e-05
8.994384334e-05
0.0001150540815
0.0001443270034
0.0001623065319
0.0001484663075
0.0001145906592
0.0001021587842
9.25703009e-05
8.890681729e-05
9.870628444e-05
0.0001092291519
8.120023542e-05
2.588815595e-05
2.516125721e-05
3.663915931e-05
4.295589889e-05
4.92697862e-05
6.060793756e-05
7.247918237e-05
3.595301235e-05
2.298138601e-06
5.584084716e-10
1.498912233e-06
8.635512159e-06
5.709521721e-05
7.377653564e-05
4.875600242e-05
2.698843272e-05
1.765703725e-05
0.0004387980114
5.477796028e-05
8.008972689e-05
0.0001083459012
0.0001424798875
0.0001670611925
0.0001619185562
0.0001380535947
0.0001242701297
0.0001066326416
9.450069936e-05
9.437039156e-05
9.97128037e-05
8.396528387e-05
3.462870518e-05
2.328482292e-05
3.908117803e-05
4.853191603e-05
5.657379279e-05
6.432023143e-05
4.488338706e-05
5.944623657e-06
1.116103361e-08
1.326548075e-06
2.336207746e-05
5.560574709e-07
2.289240102e-05
7.893259423e-05
8.008954976e-05
5.505469382e-05
3.476734879e-05
0.0003710270137
3.880125629e-05
6.664228697e-05
9.665051844e-05
0.0001321995481
0.0001611141827
0.0001662255947
0.0001572474173
0.0001477742021
0.0001246902226
0.0001050723496
9.800169891e-05
9.94027989e-05
8.912511463e-05
4.641785328e-05
2.928676114e-05
4.733182021e-05
5.5745779e-05
5.772889695e-05
4.992285834e-05
2.291208475e-05
4.919194857e-06
9.264550292e-07
2.404964832e-05
5.008109104e-05
5.496149687e-10
1.026552469e-06
2.563098471e-05
7.388085564e-05
7.841985181e-05
5.883694739e-05
0.0003532981853
2.641474644e-05
4.894242231e-05
7.453613092e-05
0.0001041604429
0.0001296498623
0.0001443419463
0.0001555862731
0.0001568949019
0.0001340673786
0.0001099495574
9.806700543e-05
9.600418121e-05
8.959325598e-05
5.866569104e-05
4.287898369e-05
6.207822709e-05
7.116863132e-05
6.080647845e-05
3.83940954e-05
1.447284813e-05
6.236074686e-06
8.884389223e-06
6.757738951e-05
5.187479794e-05
8.325544949e-05
3.433444472e-08
6.572038047e-07
1.531918158e-05
5.315686954e-05
7.091676468e-05
0.000361637026
1.976964332e-05
3.42847911e-05
5.078756352e-05
7.130191394e-05
9.036460867e-05
0.0001089532178
0.0001338579747
0.000148863514
0.0001338786426
0.0001099144898
9.398603591e-05
8.768660883e-05
8.277422078e-05
6.809612833e-05
6.343608861e-05
0.0001104779802
0.0001732909682
8.703211845e-05
3.823776405e-05
1.669167673e-05
1.613999649e-05
2.55217119e-05
7.808409205e-05
3.211927218e-05
6.717904152e-05
4.358406885e-11
2.870387794e-12
1.484530168e-07
5.617902319e-06
3.014082908e-05
0.0003810154199
1.753795408e-05
2.654570248e-05
3.545536537e-05
4.76477579e-05
6.116868542e-05
7.816471156e-05
0.0001030683462
0.0001246815634
0.0001227308957
0.0001041539964
8.72532285e-05
7.787358148e-05
7.20779569e-05
7.214179504e-05
9.979670509e-05
0.0005057397123
9.866807959e-05
5.994551574e-05
3.822438541e-05
3.098930634e-05
3.99422675e-05
5.114352214e-05
6.921616986e-05
1.856814788e-05
9.781226732e-06
1.151061303e-13
5.505071308e-24
2.58325601e-14
7.240129717e-09
1.331203577e-06
0.0004023980325
1.718227012e-05
2.304676897e-05
2.793565034e-05
3.475579749e-05
4.328633919e-05
5.54601229e-05
7.456523622e-05
9.508815901e-05
0.0001026880129
9.392285482e-05
8.030628952e-05
6.944039016e-05
6.169887414e-05
7.303527386e-05
0.0001425744763
4.437537057e-06
3.404986984e-06
3.687491151e-05
4.488087348e-05
5.362632683e-05
6.748894221e-05
5.323799184e-05
5.443475796e-05
1.958814316e-05
0.00010651943
1.659038145e-08
3.20108295e-13
1.006972616e-24
9.036961776e-19
5.503251039e-11
0.0004199322865
1.708731927e-05
2.070090957e-05
2.350460409e-05
2.724879884e-05
3.192007968e-05
3.88152601e-05
5.092776858e-05
6.811128229e-05
8.139327398e-05
8.230532209e-05
7.381635765e-05
6.326334339e-05
5.398677379e-05
6.958555142e-05
0.0001486538496
9.368853713e-07
2.330237733e-06
2.971979874e-05
5.131225332e-05
6.572782774e-05
5.598472222e-05
1.527041954e-05
4.537411811e-05
1.506012506e-05
9.692132254e-05
3.21388496e-09
3.319000576e-15
1.641321981e-26
1.886705522e-21
4.193351828e-11
0.0004300806578
1.676472641e-05
1.850285237e-05
1.991770398e-05
2.176006124e-05
2.387146536e-05
2.695208679e-05
3.332100369e-05
4.560511726e-05
6.070439371e-05
6.909205727e-05
6.685233858e-05
5.822925786e-05
4.811096524e-05
5.910956853e-05
0.0001121561892
2.450934931e-07
9.60650162e-07
8.543055738e-06
1.934886003e-05
1.928103122e-05
6.63807916e-06
1.133368358e-07
4.479965681e-05
4.072769888e-05
0.0001360225637
8.69994455e-08
1.460537265e-10
4.807571297e-20
5.409790181e-16
3.244186362e-08
0.0004314645254
1.64322967e-05
1.666835987e-05
1.707650994e-05
1.771148482e-05
1.832673069e-05
1.924849381e-05
2.191400741e-05
2.904472088e-05
4.160440313e-05
5.365638293e-05
5.733247605e-05
5.188117527e-05
4.140496599e-05
4.039852966e-05
5.816441454e-05
1.091009038e-08
7.766345622e-09
2.257717367e-06
5.367732518e-06
5.344808156e-06
2.678530183e-06
1.020523295e-06
4.21966283e-05
2.850874356e-05
0.0002193428006
9.057803698e-09
8.183805976e-14
2.167507685e-23
8.831779533e-12
5.866366225e-07
0.0004281022302
1.700405967e-05
1.604860137e-05
1.570742698e-05
1.557820261e-05
1.537527802e-05
1.523325859e-05
1.593575367e-05
1.926261843e-05
2.715845882e-05
3.797223635e-05
4.480247286e-05
4.265598044e-05
3.277399532e-05
2.26106957e-05
2.188834885e-05
5.67631366e-09
3.397735469e-09
1.013013587e-06
2.304859159e-06
2.432018138e-06
1.504086178e-06
7.952246007e-07
3.054080493e-05
6.554133621e-06
6.151563718e-05
3.069485258e-11
5.989473888e-14
2.251553914e-14
8.458272519e-09
4.978901585e-06
0.0003871257202
1.691403086e-05
1.453460395e-05
1.324549697e-05
1.23422239e-05
1.153676076e-05
1.08637668e-05
1.067345268e-05
1.182577395e-05
1.564207547e-05
2.262754271e-05
2.97814307e-05
3.136866803e-05
2.451779755e-05
1.316328215e-05
7.335108489e-06
7.81369355e-09
3.293845871e-09
4.665181657e-07
1.051517995e-06
1.114905421e-06
7.411498031e-07
6.004335685e-07
8.555539992e-06
1.881494341e-06
5.459719945e-06
6.451854043e-10
6.122343742e-10
6.160462765e-10
9.783523386e-09
3.952804834e-06
0.00256847831
0.000712869593
0.0007088563175
0.0006673243233
0.0006354796685
0.0006327847573
0.0006616833415
0.0007119651793
0.0007670427662
0.0008054139147
0.0008013891589
0.0007336703231
0.0006035788122
0.0004462336923
0.0003133294668
0.0002365619515
0.0002071879903
0.0002075287957
0.0002199496721
0.0002347107046
0.0002468276978
0.0002533490123
0.0002456490962
0.0001887945281
5.9283303e-05
2.255356846e-05
4.434453726e-05
6.268334844e-05
7.734744619e-05
8.769745731e-05
9.119454805e-05
)
;

boundaryField
{
    walls
    {
        type            zeroGradient;
    }
    wallFilmFace_top
    {
        type            zeroGradient;
    }
    region0_to_wallFilmRegion_wallFilmFace
    {
        type            zeroGradient;
    }
    mirrorFace_top
    {
        type            zeroGradient;
    }
    region0_to_wallFilmRegion_mirrorFace
    {
        type            zeroGradient;
    }
    procBoundary1to0
    {
        type            processor;
        value           nonuniform List<scalar> 
52
(
0.00069062588
8.559488575e-05
8.785681758e-05
8.313182149e-05
8.082714478e-05
8.039661859e-05
7.927353006e-05
9.249865046e-05
9.249865046e-05
8.102794619e-05
6.718665997e-05
5.561109978e-05
4.176621151e-05
4.176621151e-05
3.350603137e-05
2.309332713e-05
2.309332713e-05
1.849675054e-05
1.377443443e-05
1.108004409e-05
7.405420285e-05
7.405420285e-05
2.180900633e-05
1.186843031e-05
1.186843031e-05
1.21126882e-05
1.63383382e-05
2.609807158e-05
2.808570667e-05
2.808570667e-05
1.742382592e-05
2.849561001e-06
2.849561001e-06
8.437926676e-06
4.721485217e-05
4.721485217e-05
3.973532242e-05
1.244072562e-05
8.57619333e-06
8.57619333e-06
1.223695407e-05
1.223695407e-05
1.174735557e-06
3.796077863e-05
3.556332284e-05
3.556332284e-05
2.11332898e-05
8.816099703e-06
3.383182648e-06
1.392390521e-06
1.550615762e-10
3.22260751e-16
)
;
    }
    procBoundary1to2
    {
        type            processor;
        value           nonuniform List<scalar> 
33
(
2.954906263e-10
5.624605759e-06
5.624605759e-06
2.156215172e-05
2.156215172e-05
1.752362895e-05
9.283091859e-07
4.049605571e-12
4.049605571e-12
5.869672077e-13
1.792808923e-12
1.098498536e-38
3.930326271e-39
5.631049512e-29
1.458012639e-19
2.829396509e-12
9.715345613e-07
1.364811298e-06
3.364692434e-06
8.043081356e-06
1.449128802e-05
2.427131276e-05
4.038595844e-05
5.95323822e-05
5.888839931e-05
1.430806907e-05
1.970232814e-07
7.197782579e-07
4.073574412e-06
9.558878474e-06
3.807130517e-05
2.369258129e-05
0.0005766660819
)
;
    }
}


// ************************************************************************* //
