/*--------------------------------*- C++ -*----------------------------------*\
  =========                 |
  \\      /  F ield         | OpenFOAM: The Open Source CFD Toolbox
   \\    /   O peration     | Website:  https://openfoam.org
    \\  /    A nd           | Version:  8
     \\/     M anipulation  |
\*---------------------------------------------------------------------------*/
FoamFile
{
    version     2.0;
    format      ascii;
    class       volScalarField;
    location    "0.4/wallFilmRegion";
    object      kappa;
}
// * * * * * * * * * * * * * * * * * * * * * * * * * * * * * * * * * * * * * //

dimensions      [1 1 -3 -1 0 0 0];

internalField   nonuniform List<scalar> 
1369
(
0.6088100024
0.6088100023
0.6088100022
0.6088100022
0.6088100021
0.608810002
0.608810002
0.6088100024
0.6088100025
0.6088100024
0.6088100023
0.6088100021
0.608810002
0.6088100019
0.6088100019
0.6088100019
0.608810002
0.6088100022
0.6088100023
0.6088100027
0.6088100026
0.6088100023
0.6088100021
0.6088100019
0.6088100018
0.6088100018
0.6088100018
0.6088100019
0.6088100022
0.6088100026
0.608810003
0.6088100022
0.6088100029
0.6088100027
0.6088100024
0.6088100021
0.6088100018
0.6088100017
0.6088100016
0.6088100017
0.6088100018
0.6088100021
0.6088100026
0.6088100034
0.608810004
0.6088100046
0.608810005
0.6088100042
0.6088100022
0.608810003
0.6088100027
0.6088100023
0.608810002
0.6088100017
0.6088100015
0.6088100015
0.6088100016
0.6088100017
0.6088100019
0.6088100026
0.6088100039
0.608810005
0.6088100051
0.6088100045
0.6088100029
0.6088100018
0.6088100059
0.6088100021
0.6088100029
0.6088100025
0.6088100021
0.6088100017
0.6088100014
0.6088100013
0.6088100013
0.6088100014
0.6088100016
0.6088100017
0.6088100023
0.6088100044
0.6088100066
0.6088100055
0.6088100037
0.6088100021
0.6088100014
0.608810006
0.6088100098
0.6088100132
0.6088100116
0.6088100088
0.608810002
0.6088100026
0.6088100022
0.6088100017
0.6088100014
0.6088100011
0.608810001
0.608810001
0.6088100013
0.6088100015
0.6088100015
0.6088100017
0.6088100031
0.6088100047
0.6088100042
0.6088100025
0.6088100015
0.6088100011
0.6088100043
0.6088100069
0.6088100117
0.6088100132
0.60881001
0.6088100093
0.6088100116
0.6088100019
0.6088100022
0.6088100018
0.6088100014
0.6088100011
0.6088100009
0.6088100008
0.6088100008
0.6088100011
0.6088100015
0.6088100013
0.6088100012
0.6088100013
0.6088100017
0.6088100019
0.6088100015
0.6088100012
0.6088100008
0.6088100034
0.6088100048
0.6088100076
0.6088100101
0.6088100088
0.6088100071
0.6088100067
0.6088100075
0.6088100018
0.6088100018
0.6088100014
0.608810001
0.6088100008
0.6088100006
0.6088100006
0.6088100006
0.608810001
0.6088100017
0.6088100014
0.6088100012
0.608810001
0.608810001
0.608810001
0.6088100011
0.608810001
0.6088100007
0.6088100032
0.608810004
0.6088100059
0.6088100084
0.6088100093
0.6088100075
0.6088100058
0.6088100052
0.6088100017
0.6088100014
0.608810001
0.6088100008
0.6088100006
0.6088100005
0.6088100004
0.6088100005
0.6088100008
0.6088100024
0.608810002
0.6088100021
0.6088100019
0.6088100016
0.6088100013
0.6088100011
0.6088100009
0.6088100008
0.6088100031
0.6088100036
0.608810005
0.6088100076
0.6088100106
0.6088100114
0.6088100091
0.6088100068
0.6088100057
0.6088100016
0.608810001
0.6088100008
0.6088100006
0.6088100004
0.6088100004
0.6088100003
0.6088100004
0.6088100005
0.608810002
0.6088100013
0.6088100016
0.6088100015
0.6088100011
0.6088100009
0.6088100008
0.6088100007
0.608810001
0.6088100027
0.608810003
0.6088100042
0.6088100069
0.6088100119
0.6088100182
0.6088100207
0.6088100175
0.608810013
0.6088100016
0.6088100008
0.6088100006
0.6088100005
0.6088100004
0.6088100003
0.6088100003
0.6088100003
0.6088100005
0.6088100016
0.6088100008
0.6088100011
0.6088100011
0.6088100009
0.6088100008
0.6088100007
0.6088100009
0.6088100014
0.608810002
0.608810002
0.6088100024
0.6088100038
0.6088100066
0.6088100098
0.6088100117
0.6088100126
0.6088100121
0.608810002
0.6088100022
0.6088100016
0.6088100011
0.6088100008
0.6088100007
0.6088100007
0.6088100009
0.6088100013
0.6088100015
0.6088100013
0.6088100011
0.6088100011
0.6088100011
0.6088100011
0.608810001
0.6088100014
0.6088100023
0.6088100015
0.6088100011
0.608810001
0.608810001
0.6088100011
0.6088100014
0.6088100017
0.6088100023
0.6088100031
0.6088100044
0.6088100019
0.608810002
0.6088100017
0.6088100014
0.6088100011
0.6088100008
0.6088100007
0.6088100008
0.6088100012
0.608810002
0.6088100026
0.6088100042
0.6088100075
0.6088100125
0.6088100133
0.6088100115
0.6088100074
0.6088100008
0.6088100036
0.6088100034
0.6088100039
0.6088100056
0.6088100092
0.6088100169
0.6088100868
0.6088140212
0.6088141041
0.6088141194
0.6088118051
0.6088100017
0.6088100021
0.6088100017
0.6088100014
0.6088100011
0.6088100009
0.6088100007
0.6088100008
0.608810001
0.6088100016
0.6088100027
0.6088100048
0.6088100092
0.6088100132
0.60881001
0.6088100042
0.6088100017
0.6088100008
0.608810004
0.608810005
0.608810008
0.6088100132
0.6088100259
0.6088102389
0.6088141603
0.6088138958
0.60881
0.6088108749
0.6088100133
0.6088100015
0.6088100022
0.6088100017
0.6088100014
0.6088100012
0.608810001
0.6088100009
0.6088100008
0.6088100009
0.6088100014
0.6088100029
0.6088100054
0.6088100104
0.6088100126
0.6088100083
0.6088100035
0.6088100014
0.6088100008
0.6088100041
0.6088100112
0.6088100213
0.6088100571
0.6088112358
0.6088136788
0.60881
0.6088123866
0.6088139283
0.6088100312
0.6088100087
0.6088100017
0.6088100022
0.6088100018
0.6088100014
0.6088100012
0.608810001
0.608810001
0.608810001
0.6088100013
0.608810002
0.6088100034
0.608810006
0.6088100112
0.6088100123
0.6088100079
0.6088100035
0.6088100015
0.6088100009
0.6088100043
0.6088100456
0.6088103159
0.6088140784
0.60881
0.6088138897
0.6088100404
0.6088099876
0.6088099903
0.6088111934
0.608814115
0.608814065
0.608814088
0.6088140804
0.6088140723
0.6088141676
0.6088100014
0.6088100019
0.6088100016
0.6088100013
0.6088100011
0.608810001
0.6088100011
0.6088100013
0.6088100017
0.6088100023
0.6088100035
0.6088100058
0.6088100108
0.6088100129
0.6088100082
0.6088100038
0.6088100017
0.6088100011
0.6088100042
0.6088133811
0.6088141627
0.60881
0.60881
0.60881
0.6088140359
0.6088099882
0.608810446
0.60881
0.60881
0.60881
0.60881
0.60881
0.60881
0.6088140722
0.6088100014
0.6088100011
0.608810001
0.6088100009
0.6088100009
0.608810001
0.608810001
0.6088100012
0.6088100016
0.608810002
0.6088100021
0.6088100016
0.6088100015
0.6088100021
0.6088100098
0.6088100043
0.608810002
0.6088100013
0.608810004
0.608814591
0.60881
0.60881
0.60881
0.60881
0.6088133282
0.6088101209
0.6088140853
0.6088140901
0.6088141297
0.6088141265
0.6088141131
0.608814092
0.608814081
0.6088141432
0.6088100017
0.6088100017
0.6088100015
0.6088100013
0.6088100012
0.6088100012
0.6088100014
0.6088100017
0.6088100017
0.6088100017
0.6088100022
0.6088100017
0.6088100017
0.6088100026
0.6088100134
0.6088100051
0.6088100026
0.6088100017
0.608810004
0.6088147529
0.60881
0.60881
0.60881
0.6088121107
0.6088100166
0.6088100062
0.6088100049
0.6088100052
0.6088100069
0.6088100113
0.6088100192
0.6088100279
0.6088100325
0.608810002
0.6088100022
0.6088100019
0.6088100016
0.6088100014
0.6088100013
0.6088100013
0.6088100015
0.608810002
0.608810003
0.6088100036
0.6088100024
0.6088100024
0.6088100046
0.608810031
0.6088100084
0.6088100036
0.6088100024
0.6088100044
0.6088147724
0.60881
0.60881
0.60881
0.60881
0.6088135336
0.6088100527
0.60881001
0.6088100068
0.6088100064
0.6088100071
0.6088100086
0.608810011
0.6088100024
0.6088100027
0.6088100024
0.6088100022
0.6088100019
0.6088100017
0.6088100014
0.6088100015
0.608810002
0.6088100031
0.6088100049
0.6088100032
0.6088100037
0.6088100115
0.6088101558
0.6088100559
0.6088100101
0.608810004
0.6088100063
0.6088147683
0.60881
0.60881
0.60881
0.60881
0.60881
0.6088141183
0.6088106431
0.6088100373
0.6088100152
0.608810011
0.608810011
0.6088100129
0.6088100026
0.6088100023
0.608810002
0.6088100019
0.6088100019
0.6088100019
0.6088100017
0.6088100017
0.6088100021
0.6088100034
0.6088100058
0.6088100046
0.6088100062
0.6088100285
0.6088102362
0.6088109809
0.6088103857
0.608810034
0.6088100176
0.6088147684
0.6088147508
0.6088147381
0.6088146658
0.6088144963
0.608814306
0.6088141803
0.6088141699
0.6088141211
0.6088120731
0.6088103775
0.608810104
0.6088100676
0.6088100026
0.6088100018
0.6088100018
0.608810002
0.6088100024
0.6088100025
0.6088100024
0.6088100022
0.6088100025
0.6088100041
0.6088100073
0.608810007
0.6088100112
0.6088100503
0.6088102009
0.6088106951
0.6088115069
0.6088132616
0.6088101819
0.6088109305
0.6088110137
0.6088104854
0.6088101863
0.6088100601
0.6088100237
0.6088100196
0.6088100364
0.6088122537
0.6088141302
0.6088141502
0.6088141399
0.6088100018
0.6088100009
0.608810001
0.6088100012
0.6088100017
0.6088100023
0.6088100026
0.6088100026
0.6088100035
0.6088100051
0.6088100092
0.6088100105
0.6088100183
0.6088100555
0.6088101536
0.6088103885
0.6088108817
0.6088123569
0.6088112504
0.6088110598
0.6088105036
0.6088102348
0.6088101077
0.6088100488
0.6088100258
0.6088100186
0.6088100141
0.6088100102
0.6088100091
0.6088100113
0.6088100622
0.6088100018
0.608810001
0.608810001
0.6088100011
0.6088100014
0.6088100019
0.6088100021
0.6088100023
0.6088100045
0.6088100062
0.6088100103
0.6088100132
0.6088100225
0.6088100505
0.6088101187
0.6088102695
0.6088106339
0.6088118197
0.6088111628
0.6088104777
0.6088102209
0.6088101111
0.6088100586
0.6088100324
0.6088100196
0.6088100133
0.6088100098
0.6088100083
0.6088100082
0.6088100099
0.6088100432
0.608810002
0.6088100013
0.6088100012
0.6088100013
0.6088100015
0.6088100015
0.6088100014
0.6088100021
0.6088100055
0.6088100072
0.6088100104
0.6088100137
0.6088100217
0.6088100418
0.6088100876
0.608810191
0.6088104389
0.6088106859
0.6088102986
0.6088101236
0.6088100684
0.6088100417
0.608810027
0.6088100186
0.6088100138
0.608810011
0.6088100096
0.6088100093
0.6088100105
0.6088100326
0.6088140613
0.608810002
0.6088100013
0.608810001
0.6088100008
0.6088100006
0.6088100004
0.6088100003
0.6088100003
0.6088100029
0.6088100028
0.6088100042
0.6088100119
0.608810018
0.6088100296
0.6088100541
0.6088101185
0.6088102902
0.6088104538
0.6088103101
0.6088100665
0.6088100448
0.6088100322
0.6088100243
0.6088100191
0.6088100157
0.6088100136
0.6088100129
0.6088100154
0.6088100796
0.6088141284
0.60881
0.6088100021
0.6088100017
0.6088100014
0.6088100012
0.608810001
0.6088100007
0.6088100004
0.6088100003
0.6088100026
0.6088100032
0.6088100053
0.60881001
0.6088100123
0.6088100155
0.6088100224
0.6088100666
0.6088102216
0.6088105184
0.608814906
0.6088102874
0.60881011
0.6088100644
0.6088100452
0.6088100351
0.6088100301
0.6088100314
0.6088100666
0.6088110289
0.6088139117
0.60881
0.60881
0.608810002
0.6088100023
0.608810002
0.6088100017
0.6088100014
0.608810001
0.6088100007
0.6088100007
0.608810004
0.6088100046
0.608810006
0.6088100054
0.6088100035
0.6088100028
0.6088100031
0.6088100338
0.6088101364
0.6088105306
0.6088153026
0.6088147572
0.6088133529
0.6088116658
0.6088110713
0.6088110091
0.608811469
0.6088132518
0.6088141623
0.60881
0.60881
0.60881
0.60881
0.6088100019
0.6088100029
0.6088100024
0.6088100018
0.6088100012
0.608810001
0.608810001
0.6088100011
0.6088100054
0.608810005
0.6088100039
0.6088100025
0.6088100018
0.6088100017
0.6088100026
0.608810018
0.608810072
0.608810515
0.6088150303
0.60881
0.60881
0.6088143155
0.6088141143
0.60881
0.60881
0.60881
0.6088142169
0.6088142823
0.6088142833
0.6088142744
0.6088144445
0.6088100016
0.6088100013
0.6088100009
0.6088100005
0.6088100004
0.6088100006
0.6088100009
0.6088100013
0.6088100039
0.608810004
0.6088100029
0.608810002
0.6088100018
0.6088100024
0.6088100041
0.6088100116
0.6088100393
0.6088104705
0.6088146668
0.60881
0.60881
0.60881
0.60881
0.60881
0.60881
0.6088141911
0.6088106905
0.6088100303
0.608810032
0.6088100898
0.6088100714
0.6088100016
0.6088100009
0.6088100006
0.6088100004
0.6088100003
0.6088100004
0.6088100008
0.6088100016
0.6088100034
0.608810004
0.6088100026
0.6088100022
0.6088100025
0.6088100035
0.6088100051
0.6088100085
0.6088100247
0.6088103917
0.6088142709
0.6088141628
0.6088141234
0.6088141086
0.6088141175
0.60881
0.6088142135
0.6088101782
0.6088100174
0.6088100169
0.6088100367
0.6088100881
0.6088100765
0.6088100017
0.6088100011
0.6088100007
0.6088100005
0.6088100005
0.6088100006
0.608810001
0.6088100013
0.6088100011
0.6088100008
0.6088100005
0.6088100006
0.6088100008
0.6088100017
0.6088100039
0.6088100056
0.6088100077
0.6088100076
0.6088100049
0.6088100037
0.608810003
0.6088100031
0.608810005
0.6088100519
0.6088101111
0.6088100125
0.6088100097
0.6088100112
0.6088100176
0.6088100256
0.6088100275
0.608810002
0.6088100015
0.608810001
0.6088100008
0.6088100007
0.6088100009
0.6088100013
0.6088100017
0.6088100014
0.6088100012
0.608810001
0.6088100008
0.6088100007
0.6088100009
0.6088100026
0.6088100043
0.6088100041
0.6088100037
0.608810003
0.6088100026
0.6088100025
0.6088100028
0.6088100045
0.608810061
0.6088100442
0.6088100096
0.6088100077
0.6088100076
0.6088100086
0.60881001
0.6088100111
0.6088100023
0.6088100021
0.6088100015
0.6088100011
0.6088100011
0.6088100013
0.6088100016
0.6088100018
0.6088100014
0.6088100012
0.608810001
0.6088100008
0.6088100007
0.6088100008
0.6088100018
0.6088100035
0.608810003
0.6088100027
0.6088100024
0.6088100023
0.6088100025
0.6088100032
0.6088100083
0.6088122566
0.6088100211
0.6088100107
0.6088100074
0.6088100066
0.6088100062
0.6088100059
0.6088100061
0.6088100027
0.6088100031
0.6088100023
0.6088100017
0.6088100016
0.6088100016
0.6088100018
0.6088100017
0.6088100013
0.6088100011
0.6088100009
0.6088100008
0.6088100007
0.6088100007
0.6088100013
0.6088100028
0.6088100024
0.6088100023
0.6088100022
0.6088100024
0.6088100029
0.6088100059
0.6088103326
0.6088100239
0.6088100058
0.6088100438
0.6088100086
0.608810007
0.6088100062
0.6088100054
0.6088100048
0.6088100029
0.6088100042
0.6088100033
0.6088100025
0.6088100022
0.6088100021
0.6088100021
0.6088100018
0.6088100014
0.6088100011
0.6088100009
0.6088100008
0.6088100007
0.6088100007
0.608810001
0.6088100021
0.608810002
0.6088100021
0.6088100023
0.6088100027
0.6088100042
0.6088100157
0.6088100714
0.6088100066
0.6088100039
0.6088147347
0.6088100316
0.6088100093
0.6088100072
0.6088100063
0.6088100054
0.608810003
0.6088100054
0.6088100045
0.6088100035
0.608810003
0.6088100027
0.6088100024
0.608810002
0.6088100016
0.6088100012
0.608810001
0.6088100008
0.6088100008
0.6088100008
0.6088100009
0.6088100017
0.6088100019
0.6088100022
0.6088100026
0.6088100034
0.6088100064
0.6088100135
0.6088100126
0.6088100051
0.6088100024
0.6088099937
0.6088105276
0.6088100647
0.6088100104
0.6088100076
0.6088100066
0.6088100029
0.6088100063
0.6088100055
0.6088100046
0.6088100039
0.6088100035
0.608810003
0.6088100024
0.6088100019
0.6088100015
0.6088100011
0.6088100009
0.6088100009
0.6088100009
0.608810001
0.6088100016
0.608810002
0.6088100032
0.6088100036
0.6088100048
0.6088100074
0.6088100081
0.6088100075
0.6088100049
0.6088100043
0.6088099939
0.6088148288
0.6088168107
0.6088101396
0.6088100123
0.6088100081
0.6088100029
0.6088100065
0.608810006
0.6088100054
0.6088100048
0.6088100042
0.6088100037
0.608810003
0.6088100023
0.6088100018
0.6088100014
0.6088100011
0.608810001
0.608810001
0.6088100011
0.6088100019
0.6088100038
0.6088100051
0.6088100045
0.6088100052
0.6088100056
0.6088100055
0.6088100063
0.6088100051
0.6088100062
0.6088099958
0.6088146788
0.60881
0.6088145569
0.6088107058
0.6088100196
0.6088100028
0.6088100063
0.6088100061
0.6088100057
0.6088100053
0.6088100049
0.6088100043
0.6088100036
0.6088100029
0.6088100022
0.6088100017
0.6088100014
0.6088100013
0.6088100013
0.6088100015
0.6088100026
0.6088100495
0.6088100193
0.6088100048
0.6088100048
0.6088100047
0.608810005
0.6088100075
0.6088100056
0.608810003
0.6088099932
0.608810799
0.6088148911
0.60881
0.60881
0.6088139773
0.6088100027
0.6088100061
0.6088100059
0.6088100058
0.6088100056
0.6088100053
0.6088100049
0.6088100044
0.6088100036
0.6088100028
0.6088100021
0.6088100018
0.6088100017
0.6088100018
0.6088100022
0.6088100035
0.6088100668
0.6088100193
0.6088100056
0.6088100053
0.6088100052
0.6088100063
0.6088100162
0.6088100062
0.6088100033
0.6088099967
0.6088127158
0.6088144795
0.60881
0.60881
0.608814362
0.6088100026
0.6088100057
0.6088100057
0.6088100057
0.6088100057
0.6088100056
0.6088100055
0.6088100051
0.6088100044
0.6088100035
0.6088100027
0.6088100023
0.6088100022
0.6088100024
0.6088100032
0.6088100047
0.6088101309
0.6088100284
0.608810009
0.6088100072
0.6088100072
0.6088100115
0.6088105287
0.6088100069
0.6088099978
0.6088099938
0.6088105419
0.6088148113
0.60881
0.6088143759
0.6088115228
0.6088100025
0.6088100053
0.6088100055
0.6088100056
0.6088100058
0.6088100059
0.6088100061
0.608810006
0.6088100054
0.6088100044
0.6088100035
0.608810003
0.6088100029
0.6088100033
0.6088100047
0.608810006
0.6088114948
0.6088113408
0.6088100166
0.6088100113
0.6088100113
0.6088100189
0.608810067
0.6088100091
0.6088100031
0.6088099948
0.6088123123
0.608814987
0.60881
0.6088144148
0.6088102285
0.6088100024
0.6088100049
0.6088100051
0.6088100054
0.6088100057
0.6088100061
0.6088100066
0.6088100069
0.6088100066
0.6088100057
0.6088100046
0.608810004
0.6088100039
0.6088100046
0.608810007
0.6088100083
0.6088130475
0.6088130319
0.6088100347
0.6088100218
0.6088100232
0.608810041
0.608810122
0.6088100112
0.6088100139
0.6088099951
0.60881553
0.6088151614
0.6088149062
0.608811743
0.6088100451
0.6088100023
0.6088100043
0.6088100048
0.6088100052
0.6088100057
0.6088100062
0.608810007
0.6088100077
0.608810008
0.6088100073
0.6088100062
0.6088100055
0.6088100055
0.6088100068
0.6088100114
0.6088100149
0.6088135307
0.6088141869
0.6088100774
0.6088100541
0.6088100629
0.6088101106
0.6088102012
0.6088100251
0.6088100361
0.6088100004
0.6088153957
0.608815181
0.6088150197
0.6088113043
0.6088100235
0.6088100019
0.6088100017
0.6088100016
0.6088100015
0.6088100015
0.6088100015
0.6088100015
0.6088100015
0.6088100016
0.6088100016
0.6088100017
0.6088100019
0.608810002
0.6088100022
0.6088100023
0.6088100021
0.6088100019
0.6088100018
0.608810002
0.6088100021
0.6088100022
0.6088100023
0.6088100024
0.6088100025
0.608810002
0.6088100043
0.6088100033
0.6088100028
0.6088100025
0.6088100021
0.6088100026
)
;

boundaryField
{
    walls
    {
        type            zeroGradient;
    }
    wallFilmFace_top
    {
        type            zeroGradient;
    }
    region0_to_wallFilmRegion_wallFilmFace
    {
        type            zeroGradient;
    }
    mirrorFace_top
    {
        type            zeroGradient;
    }
    region0_to_wallFilmRegion_mirrorFace
    {
        type            zeroGradient;
    }
    procBoundary1to0
    {
        type            processor;
        value           nonuniform List<scalar> 
52
(
0.6088100025
0.6088100021
0.6088100021
0.608810002
0.6088100021
0.6088100021
0.6088100022
0.6088100021
0.6088100021
0.6088100021
0.6088100022
0.6088100023
0.6088100025
0.6088100025
0.6088100027
0.6088100035
0.6088100035
0.6088100042
0.6088100052
0.6088100059
0.6088100024
0.6088100024
0.6088100049
0.6088100078
0.6088100078
0.6088100081
0.6088100071
0.6088100062
0.6088100084
0.6088100084
0.6088100105
0.6088100175
0.6088100175
0.6088100101
0.6088100057
0.6088100057
0.6088100056
0.6088100096
0.608810011
0.608810011
0.6088100063
0.6088100063
0.6088100234
0.6088100076
0.6088100071
0.6088100071
0.6088100086
0.608810015
0.6088100328
0.6088100716
0.6088143824
0.6088142934
)
;
    }
    procBoundary1to2
    {
        type            processor;
        value           nonuniform List<scalar> 
33
(
0.6088143035
0.6088100319
0.6088100319
0.6088100141
0.6088100141
0.6088100156
0.6088100699
0.6088141211
0.6088141211
0.6088140772
0.6088140516
0.60881
0.60881
0.60881
0.60881
0.6088145412
0.6088100583
0.6088100657
0.6088100267
0.6088100115
0.6088100064
0.6088100046
0.6088100046
0.6088100056
0.6088100069
0.6088100092
0.6088100797
0.6088101898
0.6088100488
0.6088100264
0.6088100139
0.6088100074
0.6088100018
)
;
    }
}


// ************************************************************************* //
