/*--------------------------------*- C++ -*----------------------------------*\
  =========                 |
  \\      /  F ield         | OpenFOAM: The Open Source CFD Toolbox
   \\    /   O peration     | Website:  https://openfoam.org
    \\  /    A nd           | Version:  8
     \\/     M anipulation  |
\*---------------------------------------------------------------------------*/
FoamFile
{
    version     2.0;
    format      ascii;
    class       volScalarField;
    location    "0.4/wallFilmRegion";
    object      mu;
}
// * * * * * * * * * * * * * * * * * * * * * * * * * * * * * * * * * * * * * //

dimensions      [1 -1 -1 0 0 0 0];

internalField   nonuniform List<scalar> 
1369
(
0.0008861473763
0.0008861473785
0.0008861473793
0.0008861473802
0.0008861473811
0.0008861473817
0.0008861473817
0.0008861473775
0.0008861473756
0.0008861473768
0.0008861473787
0.0008861473809
0.0008861473826
0.0008861473836
0.0008861473839
0.0008861473834
0.0008861473819
0.0008861473794
0.0008861473787
0.0008861473723
0.0008861473744
0.0008861473776
0.0008861473809
0.0008861473836
0.0008861473851
0.0008861473858
0.0008861473856
0.0008861473838
0.0008861473803
0.0008861473747
0.0008861473682
0.0008861473795
0.0008861473697
0.0008861473729
0.0008861473772
0.0008861473814
0.0008861473846
0.0008861473866
0.0008861473874
0.0008861473871
0.0008861473854
0.0008861473816
0.0008861473737
0.0008861473629
0.000886147354
0.0008861473466
0.0008861473404
0.0008861473518
0.0008861473803
0.0008861473687
0.000886147373
0.0008861473783
0.000886147383
0.0008861473866
0.0008861473888
0.0008861473894
0.0008861473885
0.0008861473865
0.0008861473835
0.0008861473745
0.0008861473558
0.0008861473412
0.000886147339
0.0008861473473
0.0008861473694
0.0008861473856
0.0008861473282
0.0008861473812
0.0008861473701
0.0008861473755
0.0008861473814
0.0008861473865
0.0008861473902
0.0008861473922
0.0008861473923
0.0008861473904
0.0008861473877
0.0008861473862
0.0008861473788
0.0008861473495
0.0008861473186
0.0008861473329
0.0008861473593
0.0008861473815
0.0008861473913
0.0008861473263
0.0008861472733
0.0008861472264
0.0008861472479
0.0008861472869
0.0008861473827
0.000886147374
0.0008861473801
0.0008861473861
0.000886147391
0.0008861473945
0.0008861473962
0.0008861473957
0.0008861473926
0.0008861473891
0.0008861473897
0.0008861473865
0.0008861473667
0.0008861473441
0.0008861473522
0.0008861473749
0.0008861473895
0.0008861473956
0.0008861473498
0.0008861473143
0.0008861472464
0.000886147226
0.0008861472714
0.0008861472808
0.0008861472484
0.0008861473843
0.0008861473794
0.0008861473857
0.0008861473913
0.0008861473955
0.0008861473984
0.0008861473997
0.0008861473987
0.0008861473944
0.0008861473901
0.0008861473927
0.0008861473938
0.0008861473925
0.0008861473867
0.0008861473841
0.0008861473897
0.0008861473939
0.0008861473988
0.0008861473625
0.0008861473434
0.0008861473048
0.0008861472698
0.0008861472871
0.0008861473116
0.0008861473172
0.000886147306
0.0008861473857
0.0008861473854
0.0008861473913
0.000886147396
0.0008861473993
0.0008861474015
0.0008861474024
0.0008861474014
0.0008861473962
0.0008861473865
0.0008861473912
0.0008861473941
0.0008861473958
0.0008861473961
0.0008861473957
0.0008861473949
0.0008861473959
0.0008861474
0.000886147366
0.0008861473541
0.0008861473282
0.0008861472928
0.0008861472807
0.0008861473054
0.0008861473296
0.0008861473374
0.0008861473869
0.0008861473911
0.0008861473961
0.0008861473997
0.0008861474021
0.0008861474037
0.0008861474044
0.0008861474037
0.0008861473996
0.0008861473768
0.0008861473822
0.0008861473807
0.0008861473835
0.0008861473883
0.0008861473919
0.000886147395
0.0008861473977
0.0008861473995
0.0008861473668
0.0008861473601
0.00088614734
0.000886147304
0.0008861472619
0.0008861472515
0.0008861472832
0.0008861473156
0.0008861473305
0.0008861473879
0.0008861473959
0.0008861473998
0.0008861474024
0.0008861474041
0.0008861474053
0.0008861474058
0.0008861474054
0.0008861474029
0.0008861473826
0.000886147392
0.0008861473879
0.0008861473899
0.0008861473944
0.0008861473976
0.0008861473998
0.0008861474002
0.0008861473964
0.0008861473723
0.0008861473684
0.0008861473523
0.0008861473135
0.0008861472438
0.0008861471565
0.0008861471213
0.0008861471656
0.000886147229
0.0008861473877
0.0008861473993
0.0008861474022
0.000886147404
0.0008861474054
0.0008861474062
0.0008861474064
0.0008861474058
0.0008861474028
0.0008861473877
0.0008861473993
0.0008861473948
0.0008861473951
0.0008861473978
0.0008861473994
0.0008861474
0.0008861473982
0.0008861473912
0.000886147382
0.0008861473829
0.0008861473761
0.0008861473577
0.0008861473189
0.0008861472737
0.0008861472463
0.0008861472351
0.0008861472408
0.0008861473825
0.0008861473791
0.000886147388
0.0008861473945
0.0008861473987
0.0008861474011
0.0008861474012
0.0008861473981
0.0008861473917
0.0008861473893
0.0008861473925
0.0008861473945
0.0008861473954
0.0008861473953
0.0008861473956
0.0008861473965
0.0008861473914
0.0008861473788
0.0008861473899
0.0008861473948
0.0008861473967
0.0008861473969
0.0008861473951
0.0008861473914
0.0008861473863
0.0008861473784
0.0008861473664
0.0008861473485
0.0008861473832
0.0008861473827
0.0008861473868
0.0008861473911
0.0008861473954
0.0008861473992
0.0008861474007
0.0008861473992
0.0008861473934
0.0008861473828
0.000886147374
0.0008861473523
0.0008861473053
0.0008861472364
0.0008861472243
0.0008861472504
0.0008861473075
0.0008861473986
0.00088614736
0.0008861473625
0.0008861473557
0.0008861473318
0.0008861472825
0.0008861471748
0.0008861461986
0.000886091274
0.0008860901176
0.0008860899037
0.0008861222105
0.0008861473862
0.0008861473811
0.0008861473867
0.0008861473914
0.0008861473951
0.0008861473982
0.0008861474
0.0008861473998
0.0008861473965
0.000886147388
0.0008861473722
0.0008861473438
0.0008861472826
0.0008861472263
0.0008861472708
0.0008861473518
0.0008861473867
0.0008861473994
0.0008861473549
0.0008861473407
0.0008861472982
0.0008861472263
0.0008861470491
0.0008861440757
0.0008860893335
0.0008860930257
0.0008861474103
0.0008861351964
0.0008861472248
0.0008861473893
0.00088614738
0.000886147386
0.0008861473908
0.0008861473942
0.0008861473967
0.0008861473983
0.0008861473988
0.0008861473973
0.000886147391
0.0008861473699
0.0008861473353
0.0008861472645
0.0008861472342
0.0008861472951
0.0008861473614
0.0008861473906
0.0008861473987
0.0008861473531
0.0008861472542
0.0008861471133
0.0008861466131
0.0008861301588
0.0008860960546
0.0008861474103
0.0008861140934
0.000886092572
0.0008861469751
0.0008861472895
0.0008861473867
0.0008861473798
0.0008861473854
0.0008861473901
0.0008861473936
0.0008861473959
0.0008861473968
0.0008861473958
0.0008861473918
0.0008861473821
0.0008861473628
0.0008861473271
0.0008861472542
0.0008861472382
0.0008861472999
0.0008861473612
0.0008861473901
0.0008861473973
0.0008861473506
0.0008861467744
0.0008861430002
0.0008860904765
0.0008861474103
0.0008860931097
0.0008861468462
0.0008861475841
0.0008861475458
0.0008861307507
0.0008860899648
0.0008860906631
0.0008860903422
0.0008860904479
0.0008860905608
0.0008860892305
0.0008861473904
0.0008861473833
0.0008861473883
0.0008861473923
0.0008861473948
0.0008861473957
0.0008861473949
0.0008861473919
0.0008861473863
0.0008861473776
0.0008861473618
0.0008861473287
0.0008861472591
0.0008861472303
0.0008861472962
0.0008861473571
0.0008861473871
0.0008861473953
0.0008861473517
0.0008861002105
0.0008860892993
0.0008861474103
0.0008861474103
0.0008861474103
0.0008860910697
0.000886147575
0.0008861411834
0.0008861474103
0.0008861474103
0.0008861474103
0.0008861474103
0.0008861474103
0.0008861474103
0.0008860905627
0.0008861473903
0.0008861473947
0.0008861473965
0.0008861473974
0.0008861473975
0.000886147397
0.0008861473957
0.0008861473933
0.0008861473886
0.0008861473829
0.0008861473815
0.0008861473873
0.0008861473889
0.0008861473813
0.000886147274
0.0008861473499
0.0008861473818
0.0008861473924
0.0008861473538
0.0008860833201
0.0008861474103
0.0008861474103
0.0008861474103
0.0008861474103
0.0008861009479
0.0008861457224
0.0008860903802
0.0008860903129
0.00088608976
0.0008860898052
0.0008860899923
0.0008860902864
0.0008860904402
0.0008860895708
0.0008861473864
0.0008861473868
0.0008861473899
0.000886147392
0.0008861473931
0.000886147393
0.0008861473911
0.0008861473862
0.0008861473862
0.0008861473869
0.0008861473802
0.0008861473871
0.000886147387
0.0008861473742
0.0008861472231
0.0008861473385
0.0008861473734
0.000886147387
0.0008861473545
0.0008860810611
0.0008861474103
0.0008861474103
0.0008861474103
0.0008861179449
0.0008861471792
0.0008861473239
0.0008861473413
0.0008861473381
0.0008861473135
0.0008861472519
0.0008861471417
0.0008861470203
0.0008861469568
0.000886147382
0.0008861473795
0.0008861473838
0.0008861473876
0.0008861473903
0.0008861473919
0.0008861473916
0.0008861473887
0.0008861473818
0.0008861473684
0.0008861473603
0.0008861473772
0.0008861473773
0.0008861473458
0.0008861469781
0.0008861472928
0.0008861473599
0.000886147377
0.000886147349
0.0008860807888
0.0008861474103
0.0008861474103
0.0008861474103
0.0008861474103
0.0008860980807
0.000886146675
0.00088614727
0.0008861473161
0.0008861473204
0.0008861473108
0.0008861472901
0.0008861472569
0.0008861473765
0.0008861473726
0.0008861473767
0.0008861473802
0.0008861473833
0.0008861473873
0.0008861473905
0.000886147389
0.000886147383
0.0008861473672
0.0008861473417
0.000886147365
0.0008861473589
0.0008861472497
0.0008861452353
0.0008861466296
0.0008861472687
0.0008861473549
0.0008861473222
0.000886080845
0.0008861474103
0.0008861474103
0.0008861474103
0.0008861474103
0.0008861474103
0.0008860899188
0.000886138432
0.0008861468903
0.0008861471982
0.0008861472573
0.0008861472574
0.0008861472307
0.0008861473743
0.0008861473787
0.0008861473824
0.0008861473842
0.000886147384
0.0008861473835
0.0008861473859
0.000886147387
0.0008861473815
0.0008861473633
0.0008861473294
0.0008861473458
0.0008861473235
0.0008861470126
0.0008861441132
0.0008861337161
0.0008861420265
0.000886146936
0.0008861471641
0.0008860808445
0.0008860810895
0.0008860812672
0.0008860822766
0.0008860846422
0.0008860872991
0.0008860890535
0.0008860891987
0.00088608988
0.0008861184695
0.0008861421402
0.0008861459579
0.0008861464672
0.0008861473743
0.0008861473848
0.0008861473856
0.0008861473823
0.0008861473773
0.0008861473754
0.0008861473765
0.0008861473791
0.0008861473758
0.0008861473538
0.0008861473086
0.000886147312
0.0008861472534
0.0008861467078
0.0008861446059
0.0008861377059
0.000886126374
0.0008861018782
0.0008861448715
0.0008861344206
0.000886133259
0.0008861406334
0.0008861448098
0.0008861465711
0.0008861470795
0.000886147137
0.0008861469022
0.0008861159481
0.0008860897524
0.000886089474
0.0008860896179
0.0008861473848
0.000886147398
0.000886147397
0.000886147394
0.0008861473866
0.0008861473782
0.0008861473741
0.0008861473744
0.0008861473618
0.0008861473388
0.0008861472815
0.0008861472634
0.0008861471543
0.000886146635
0.0008861452662
0.0008861419871
0.0008861351022
0.0008861145084
0.0008861299545
0.0008861326151
0.0008861403801
0.0008861441328
0.0008861459068
0.0008861467286
0.0008861470505
0.0008861471513
0.0008861472129
0.0008861472676
0.0008861472833
0.0008861472526
0.0008861465415
0.0008861473847
0.0008861473964
0.0008861473967
0.0008861473955
0.000886147391
0.0008861473842
0.0008861473808
0.0008861473783
0.0008861473474
0.000886147324
0.0008861472664
0.0008861472265
0.0008861470961
0.0008861467049
0.0008861457526
0.0008861436476
0.000886138561
0.0008861220071
0.0008861311775
0.0008861407421
0.0008861443266
0.0008861458599
0.0008861465918
0.000886146958
0.0008861471367
0.0008861472246
0.0008861472729
0.0008861472948
0.0008861472961
0.0008861472728
0.0008861468077
0.0008861473829
0.0008861473928
0.0008861473935
0.0008861473921
0.0008861473898
0.00088614739
0.000886147391
0.0008861473808
0.0008861473334
0.0008861473097
0.0008861472648
0.0008861472192
0.0008861471073
0.0008861468271
0.0008861461876
0.0008861447437
0.0008861412837
0.0008861378354
0.000886143242
0.0008861456854
0.0008861464558
0.0008861468288
0.0008861470328
0.0008861471503
0.0008861472182
0.0008861472563
0.0008861472758
0.0008861472807
0.0008861472644
0.0008861469548
0.0008860907143
0.000886147382
0.0008861473928
0.0008861473964
0.0008861473991
0.0008861474019
0.0008861474049
0.0008861474067
0.0008861474055
0.0008861473703
0.0008861473718
0.0008861473511
0.0008861472447
0.0008861471594
0.0008861469975
0.0008861466557
0.0008861457561
0.0008861433587
0.0008861410753
0.0008861430812
0.0008861464826
0.0008861467853
0.0008861469604
0.0008861470711
0.0008861471442
0.0008861471918
0.0008861472201
0.0008861472299
0.0008861471957
0.0008861462997
0.0008860897787
0.0008861474103
0.0008861473814
0.0008861473872
0.0008861473911
0.0008861473939
0.0008861473967
0.0008861474003
0.0008861474041
0.0008861474057
0.0008861473741
0.0008861473662
0.000886147337
0.0008861472713
0.0008861472382
0.0008861471933
0.0008861470976
0.0008861464807
0.0008861443165
0.0008861401728
0.000886078923
0.0008861433983
0.0008861458749
0.0008861465118
0.00088614678
0.00088614692
0.0008861469905
0.0008861469718
0.0008861464807
0.0008861330471
0.0008860928027
0.0008861474103
0.0008861474103
0.000886147382
0.000886147378
0.0008861473827
0.0008861473864
0.0008861473906
0.0008861473963
0.0008861474007
0.000886147401
0.0008861473539
0.0008861473464
0.000886147326
0.0008861473345
0.0008861473614
0.0008861473716
0.0008861473672
0.0008861469391
0.0008861455059
0.0008861400033
0.0008860733865
0.0008860810002
0.0008861006032
0.0008861241552
0.0008861324549
0.0008861333231
0.0008861269021
0.0008861020146
0.0008860893049
0.0008861474103
0.0008861474103
0.0008861474103
0.0008861474103
0.0008861473838
0.0008861473692
0.0008861473774
0.0008861473854
0.0008861473932
0.0008861473958
0.000886147397
0.0008861473944
0.0008861473344
0.0008861473409
0.0008861473564
0.0008861473753
0.0008861473847
0.0008861473862
0.0008861473747
0.0008861471584
0.0008861464048
0.0008861402207
0.0008860771885
0.0008861474103
0.0008861474103
0.0008860871661
0.0008860899749
0.0008861474103
0.0008861474103
0.0008861474103
0.0008860885433
0.0008860876294
0.0008860876152
0.0008860877396
0.0008860853651
0.0008861473876
0.000886147392
0.0008861473979
0.0008861474029
0.0008861474047
0.0008861474022
0.0008861473977
0.0008861473917
0.0008861473557
0.0008861473548
0.0008861473695
0.0008861473829
0.0008861473856
0.0008861473774
0.0008861473525
0.0008861472479
0.000886146862
0.0008861408427
0.0008860822622
0.0008861474103
0.0008861474103
0.0008861474103
0.0008861474103
0.0008861474103
0.0008861474103
0.0008860889031
0.0008861377712
0.0008861469868
0.000886146963
0.0008861461564
0.0008861464136
0.0008861473883
0.0008861473974
0.000886147402
0.0008861474047
0.0008861474058
0.0008861474046
0.0008861473996
0.0008861473883
0.0008861473635
0.0008861473539
0.0008861473742
0.0008861473797
0.0008861473755
0.0008861473615
0.0008861473391
0.000886147292
0.0008861470661
0.0008861419419
0.0008860877887
0.0008860892972
0.0008860898478
0.0008860900551
0.0008860899305
0.0008861474103
0.0008860885899
0.0008861449226
0.0008861471676
0.0008861471739
0.0008861468974
0.0008861461805
0.0008861463417
0.0008861473866
0.0008861473956
0.0008861474007
0.0008861474031
0.0008861474036
0.0008861474016
0.0008861473967
0.0008861473922
0.0008861473956
0.0008861473988
0.0008861474028
0.0008861474025
0.0008861473989
0.0008861473863
0.0008861473562
0.0008861473317
0.0008861473025
0.000886147304
0.0008861473414
0.0008861473588
0.0008861473684
0.0008861473669
0.0008861473403
0.0008861466854
0.0008861458598
0.0008861472359
0.000886147275
0.0008861472536
0.0008861471647
0.0008861470533
0.000886147026
0.0008861473831
0.0008861473899
0.0008861473966
0.0008861473999
0.0008861474002
0.0008861473976
0.0008861473917
0.0008861473871
0.0008861473908
0.0008861473935
0.0008861473963
0.0008861473989
0.0008861474007
0.0008861473985
0.0008861473734
0.0008861473506
0.0008861473526
0.0008861473591
0.0008861473683
0.0008861473741
0.000886147376
0.0008861473708
0.0008861473479
0.0008861465587
0.0008861467932
0.0008861472759
0.0008861473027
0.0008861473041
0.0008861472909
0.0008861472709
0.0008861472555
0.000886147378
0.0008861473804
0.0008861473895
0.0008861473944
0.0008861473954
0.0008861473929
0.0008861473878
0.0008861473857
0.0008861473904
0.0008861473935
0.0008861473962
0.0008861473986
0.0008861474002
0.0008861473994
0.0008861473857
0.0008861473617
0.0008861473688
0.0008861473732
0.0008861473767
0.0008861473783
0.000886147376
0.0008861473663
0.0008861472946
0.0008861159078
0.0008861471163
0.0008861472603
0.0008861473076
0.0008861473181
0.000886147324
0.0008861473286
0.0008861473255
0.0008861473727
0.0008861473673
0.0008861473786
0.0008861473861
0.0008861473886
0.0008861473874
0.0008861473852
0.0008861473869
0.0008861473917
0.0008861473949
0.0008861473974
0.0008861473992
0.0008861474004
0.0008861473999
0.0008861473927
0.0008861473714
0.0008861473771
0.0008861473787
0.000886147379
0.0008861473769
0.0008861473694
0.0008861473282
0.0008861427665
0.0008861470762
0.0008861473292
0.0008861467983
0.0008861472898
0.0008861473126
0.0008861473231
0.0008861473347
0.0008861473429
0.0008861473693
0.0008861473511
0.0008861473644
0.0008861473748
0.0008861473797
0.0008861473809
0.0008861473817
0.0008861473858
0.000886147391
0.0008861473948
0.0008861473976
0.0008861473993
0.0008861474003
0.0008861474
0.000886147396
0.0008861473807
0.0008861473821
0.0008861473807
0.000886147378
0.0008861473723
0.0008861473518
0.0008861471918
0.0008861464132
0.0008861473176
0.0008861473555
0.0008860813146
0.0008861469693
0.0008861472804
0.0008861473099
0.0008861473219
0.0008861473349
0.0008861473686
0.0008861473345
0.0008861473481
0.0008861473609
0.0008861473686
0.0008861473726
0.0008861473762
0.0008861473822
0.0008861473883
0.0008861473931
0.0008861473966
0.0008861473986
0.0008861473996
0.0008861473995
0.0008861473972
0.0008861473863
0.000886147384
0.0008861473797
0.0008861473739
0.0008861473623
0.0008861473215
0.0008861472217
0.0008861472338
0.0008861473392
0.0008861473769
0.0008861474986
0.0008861400442
0.0008861465067
0.0008861472653
0.0008861473045
0.0008861473188
0.0008861473693
0.0008861473228
0.0008861473335
0.0008861473459
0.0008861473556
0.0008861473622
0.0008861473685
0.0008861473764
0.0008861473839
0.00088614739
0.0008861473946
0.0008861473971
0.0008861473982
0.0008861473982
0.0008861473967
0.0008861473877
0.0008861473818
0.0008861473659
0.0008861473597
0.0008861473434
0.0008861473069
0.0008861472979
0.0008861473056
0.0008861473417
0.0008861473499
0.0008861474951
0.0008860800015
0.0008860523349
0.0008861454621
0.0008861472383
0.0008861472972
0.0008861473703
0.0008861473196
0.000886147326
0.0008861473345
0.0008861473434
0.0008861473512
0.0008861473593
0.0008861473686
0.0008861473777
0.0008861473856
0.0008861473914
0.0008861473947
0.0008861473958
0.0008861473957
0.0008861473944
0.0008861473841
0.0008861473567
0.0008861473385
0.0008861473471
0.0008861473375
0.0008861473316
0.0008861473339
0.0008861473229
0.0008861473388
0.0008861473244
0.000886147469
0.0008860820948
0.0008861474103
0.0008860837961
0.0008861375577
0.0008861471367
0.0008861473714
0.0008861473218
0.0008861473254
0.0008861473301
0.000886147336
0.0008861473424
0.00088614735
0.0008861473595
0.00088614737
0.0008861473796
0.0008861473869
0.000886147391
0.0008861473923
0.0008861473917
0.0008861473892
0.0008861473746
0.000886146719
0.0008861471409
0.000886147343
0.0008861473436
0.0008861473448
0.0008861473401
0.0008861473059
0.0008861473319
0.0008861473684
0.0008861475048
0.0008861362555
0.0008860791312
0.0008861474103
0.0008861474103
0.0008860918871
0.0008861473727
0.0008861473258
0.0008861473276
0.0008861473299
0.0008861473328
0.0008861473364
0.0008861473414
0.0008861473495
0.0008861473606
0.0008861473718
0.0008861473807
0.0008861473858
0.0008861473872
0.0008861473855
0.00088614738
0.0008861473617
0.0008861464778
0.0008861471404
0.0008861473319
0.0008861473368
0.0008861473372
0.000886147322
0.0008861471843
0.0008861473236
0.0008861473637
0.000886147457
0.000886109497
0.0008860848765
0.0008861474103
0.0008861474103
0.0008860865169
0.0008861473742
0.0008861473305
0.0008861473304
0.0008861473307
0.0008861473311
0.0008861473317
0.0008861473332
0.0008861473385
0.0008861473493
0.000886147362
0.0008861473725
0.0008861473786
0.00088614738
0.0008861473765
0.0008861473655
0.0008861473453
0.0008861455823
0.0008861470139
0.0008861472847
0.0008861473094
0.0008861473092
0.0008861472498
0.0008861400292
0.0008861473134
0.0008861474406
0.0008861474962
0.0008861398459
0.0008860802459
0.0008861474103
0.0008860863237
0.0008861261514
0.0008861473756
0.0008861473359
0.0008861473338
0.000886147332
0.00088614733
0.0008861473275
0.0008861473252
0.0008861473263
0.0008861473353
0.0008861473492
0.0008861473614
0.0008861473688
0.0008861473702
0.000886147364
0.0008861473445
0.0008861473263
0.0008861265431
0.0008861286918
0.0008861471786
0.000886147252
0.0008861472522
0.0008861471468
0.0008861464756
0.0008861472827
0.0008861473665
0.0008861474824
0.0008861151306
0.0008860777923
0.0008861474103
0.0008860857796
0.0008861442198
0.0008861473768
0.0008861473426
0.0008861473385
0.0008861473347
0.0008861473303
0.0008861473248
0.0008861473182
0.0008861473137
0.0008861473176
0.0008861473312
0.0008861473456
0.0008861473546
0.0008861473561
0.0008861473458
0.0008861473119
0.0008861472951
0.0008861048664
0.0008861050852
0.000886146926
0.0008861471066
0.0008861470867
0.0008861468385
0.0008861457065
0.0008861472546
0.000886147216
0.0008861474792
0.0008860702126
0.0008860753576
0.0008860789207
0.0008861230781
0.0008861467806
0.0008861473777
0.0008861473498
0.0008861473438
0.000886147338
0.0008861473315
0.0008861473232
0.000886147313
0.0008861473026
0.000886147299
0.0008861473081
0.0008861473231
0.0008861473335
0.0008861473336
0.0008861473149
0.000886147251
0.0008861472019
0.000886098122
0.000886088961
0.0008861463302
0.0008861466548
0.0008861465316
0.0008861458668
0.0008861446016
0.0008861470599
0.0008861469061
0.0008861474041
0.000886072088
0.000886075085
0.0008860773357
0.0008861292016
0.0008861470824
0.0008861473832
0.0008861473864
0.0008861473879
0.0008861473889
0.0008861473895
0.0008861473897
0.0008861473895
0.0008861473891
0.0008861473884
0.0008861473874
0.0008861473859
0.000886147384
0.0008861473818
0.0008861473795
0.0008861473786
0.0008861473813
0.0008861473841
0.0008861473848
0.0008861473828
0.0008861473809
0.0008861473799
0.0008861473788
0.0008861473765
0.0008861473755
0.0008861473823
0.0008861473499
0.0008861473636
0.000886147371
0.0008861473761
0.0008861473805
0.0008861473747
)
;

boundaryField
{
    walls
    {
        type            zeroGradient;
    }
    wallFilmFace_top
    {
        type            zeroGradient;
    }
    region0_to_wallFilmRegion_wallFilmFace
    {
        type            zeroGradient;
    }
    mirrorFace_top
    {
        type            zeroGradient;
    }
    region0_to_wallFilmRegion_mirrorFace
    {
        type            zeroGradient;
    }
    procBoundary1to0
    {
        type            processor;
        value           nonuniform List<scalar> 
52
(
0.0008861473753
0.0008861473808
0.0008861473816
0.0008861473818
0.0008861473817
0.0008861473811
0.0008861473799
0.0008861473814
0.0008861473814
0.0008861473808
0.0008861473797
0.0008861473785
0.000886147376
0.000886147376
0.0008861473721
0.0008861473614
0.0008861473614
0.0008861473523
0.0008861473375
0.0008861473275
0.0008861473768
0.0008861473768
0.0008861473421
0.0008861473021
0.0008861473021
0.0008861472975
0.0008861473116
0.0008861473241
0.0008861472932
0.0008861472932
0.0008861472634
0.0008861471665
0.0008861471665
0.0008861472696
0.0008861473303
0.0008861473303
0.0008861473319
0.0008861472768
0.0008861472561
0.0008861472561
0.0008861473218
0.0008861473218
0.0008861470831
0.0008861473044
0.0008861473108
0.0008861473108
0.0008861472902
0.0008861472004
0.0008861469526
0.0008861464105
0.0008860862319
0.0008860874748
)
;
    }
    procBoundary1to2
    {
        type            processor;
        value           nonuniform List<scalar> 
33
(
0.0008860873336
0.0008861469648
0.0008861469648
0.0008861472138
0.0008861472138
0.0008861471925
0.0008861464341
0.0008860898807
0.0008860898807
0.0008860904932
0.0008860908506
0.0008861474103
0.0008861474103
0.0008861474103
0.0008861474103
0.0008860840155
0.0008861465969
0.0008861464927
0.0008861470377
0.0008861472504
0.0008861473205
0.000886147346
0.0008861473455
0.0008861473318
0.0008861473146
0.0008861472825
0.0008861462972
0.0008861447609
0.0008861467291
0.0008861470413
0.0008861472168
0.000886147307
0.0008861473858
)
;
    }
}


// ************************************************************************* //
