/*--------------------------------*- C++ -*----------------------------------*\
  =========                 |
  \\      /  F ield         | OpenFOAM: The Open Source CFD Toolbox
   \\    /   O peration     | Website:  https://openfoam.org
    \\  /    A nd           | Version:  8
     \\/     M anipulation  |
\*---------------------------------------------------------------------------*/
FoamFile
{
    version     2.0;
    format      ascii;
    class       volVectorField;
    location    "0.4/wallFilmRegion";
    object      U;
}
// * * * * * * * * * * * * * * * * * * * * * * * * * * * * * * * * * * * * * //

dimensions      [0 1 -1 0 0 0 0];

internalField   nonuniform List<vector> 
1369
(
(-0.7154634135 -1.39171184 0)
(-0.9233477239 -1.226686546 0)
(-0.9247044987 -1.212010143 0)
(-0.8973560393 -1.181890353 0)
(-0.8567103624 -1.152754284 0)
(-0.8096537741 -1.136036782 0)
(-0.7680832788 -1.137265978 0)
(-0.6695577428 -1.394264739 0)
(-0.8694952269 -1.231105967 0)
(-0.8667344444 -1.198253643 0)
(-0.8441329639 -1.152194809 0)
(-0.80941889 -1.116253151 0)
(-0.761745449 -1.091815962 0)
(-0.7174380468 -1.098939527 0)
(-0.7001919987 -1.162153447 0)
(-0.6903559386 -1.201100049 0)
(-0.7190209662 -1.171972682 0)
(-0.7580628777 -1.118354058 0)
(-0.6194019077 -1.420026388 0)
(-0.8161913949 -1.229079042 0)
(-0.8167909506 -1.183059608 0)
(-0.8091477137 -1.123559206 0)
(-0.7951451486 -1.076871609 0)
(-0.7715229992 -1.041105847 0)
(-0.7687569523 -1.064628963 0)
(-0.7404302373 -1.103051302 0)
(-0.6886511742 -1.148588307 0)
(-0.6482652022 -1.163158788 0)
(-0.6604977256 -1.128639386 0)
(-0.6964524435 -1.06215901 0)
(-0.743945375 -0.9607427002 0)
(-0.5709863207 -1.460915833 0)
(-0.7656989212 -1.224823175 0)
(-0.7795556386 -1.174411136 0)
(-0.7994904801 -1.105811726 0)
(-0.8223844887 -1.048828002 0)
(-0.839152681 -0.9996179878 0)
(-0.8368279613 -1.001703398 0)
(-0.7964579967 -1.016281572 0)
(-0.7137907421 -1.041984231 0)
(-0.6067793111 -1.09452788 0)
(-0.5740119606 -1.086321155 0)
(-0.5794226986 -1.05643208 0)
(-0.6270305669 -0.9783144691 0)
(-0.6635319395 -0.8531751926 0)
(-0.6657437855 -0.7145221134 0)
(-0.671029082 -0.5517124609 0)
(-0.7993940965 -0.2937752715 0)
(-0.5272902301 -1.510543321 0)
(-0.7216524657 -1.226652891 0)
(-0.7579702282 -1.183174646 0)
(-0.8137325878 -1.113831499 0)
(-0.8785434578 -1.04955785 0)
(-0.9333390341 -0.9825828879 0)
(-0.9513146278 -0.9556877468 0)
(-0.8987976076 -0.9354852305 0)
(-0.7630900592 -0.930042074 0)
(-0.5980863763 -0.964950788 0)
(-0.5004216165 -0.9878297105 0)
(-0.4575168176 -0.9987194538 0)
(-0.4989005336 -0.982666107 0)
(-0.5587706991 -0.8663543937 0)
(-0.5512565199 -0.69687637 0)
(-0.5901129961 -0.4821868074 0)
(-0.8884238622 -0.2358584911 0)
(-1.351556928 -0.1418071601 0)
(-0.8269355092 0.1769215542 0)
(-0.4912356579 -1.56232434 0)
(-0.6914658308 -1.244957343 0)
(-0.7581494695 -1.2204331 0)
(-0.8534042655 -1.159584269 0)
(-0.9579003098 -1.092953756 0)
(-1.04637241 -1.012701757 0)
(-1.087082536 -0.9606272781 0)
(-1.027633053 -0.8981803353 0)
(-0.830009077 -0.8439884302 0)
(-0.5589486032 -0.8300140342 0)
(-0.4151513201 -0.8633518171 0)
(-0.3139850983 -0.8828210954 0)
(-0.3117168117 -0.9469632519 0)
(-0.4479773169 -0.8997326981 0)
(-0.4153026835 -0.6777448183 0)
(-0.5320092146 -0.4155323341 0)
(-0.9402920982 -0.2185507042 0)
(-1.477754686 -0.1954128476 0)
(-0.780936006 0.03349215443 0)
(-0.7092942404 0.4650094471 0)
(-0.6582668615 0.6861751623 0)
(-0.5627656571 0.7268160171 0)
(-0.4503171511 0.6589301523 0)
(-0.4680911487 -1.60466611 0)
(-0.6754483189 -1.291246589 0)
(-0.7719137969 -1.292055622 0)
(-0.8942212132 -1.238410857 0)
(-1.016760262 -1.16551099 0)
(-1.116355139 -1.070032742 0)
(-1.165483408 -0.9988179377 0)
(-1.108784042 -0.9013192617 0)
(-0.874449501 -0.8026837141 0)
(-0.4970875844 -0.7386124621 0)
(-0.3335780499 -0.7369197357 0)
(-0.1271246595 -0.7762605248 0)
(0.1250346394 -0.7572614571 0)
(0.3880726679 -0.6930898617 0)
(0.1330138202 -0.5883796137 0)
(-0.4060685098 -0.3727021768 0)
(-0.8971334305 -0.2021469543 0)
(-1.541589972 -0.2599080393 0)
(-0.8447632908 0.08879118478 0)
(-0.6559933133 0.3984575797 0)
(-0.4677043471 0.5667133225 0)
(-0.3634202241 0.5914354444 0)
(-0.285854859 0.5427870048 0)
(-0.1996648695 0.4241935405 0)
(-0.06214685293 0.1479186986 0)
(-0.4621148245 -1.623986461 0)
(-0.6584007209 -1.378703029 0)
(-0.7692080273 -1.396957668 0)
(-0.8915027188 -1.337233764 0)
(-1.002689879 -1.247208471 0)
(-1.088696904 -1.132439646 0)
(-1.13123177 -1.038968079 0)
(-1.091823897 -0.916654113 0)
(-0.8821841085 -0.7827579082 0)
(-0.4552490078 -0.6778037271 0)
(-0.2692372499 -0.6695828064 0)
(-0.06479506348 -0.6965886454 0)
(0.2194282472 -0.7554915616 0)
(0.4780924921 -0.7684047767 0)
(0.2383548757 -0.5958447316 0)
(-0.290578118 -0.3618761211 0)
(-0.859084518 -0.2112872577 0)
(-1.545517826 -0.3248274448 0)
(-0.8830516337 0.2466361534 0)
(-0.7042264267 0.3524144502 0)
(-0.4967159731 0.5144201132 0)
(-0.3694364725 0.6353858209 0)
(-0.3063211624 0.6570583818 0)
(-0.2537187088 0.618067929 0)
(-0.1969011575 0.5303743037 0)
(-0.1112500949 0.3287343925 0)
(-0.4665470853 -1.625944475 0)
(-0.6137844541 -1.519005543 0)
(-0.7147136337 -1.525375338 0)
(-0.8101255276 -1.442238044 0)
(-0.8895198855 -1.325066806 0)
(-0.9514586879 -1.189320412 0)
(-0.9831436409 -1.074512533 0)
(-0.9775695979 -0.9459550373 0)
(-0.8733421777 -0.7699256488 0)
(-0.5181492986 -0.5303853822 0)
(-0.4224157608 -0.50974164 0)
(-0.2657245329 -0.5719001597 0)
(-0.1290593163 -0.577137185 0)
(0.01173265332 -0.5669068274 0)
(0.04352005735 -0.5076644782 0)
(-0.2614645633 -0.3664563029 0)
(-0.8888456395 -0.2585712786 0)
(-1.489507487 -0.4113289045 0)
(-0.862114095 0.3328873676 0)
(-0.7127097456 0.3918795701 0)
(-0.5464282811 0.4753950178 0)
(-0.3939128134 0.6241288124 0)
(-0.3197437137 0.7288255537 0)
(-0.2803190789 0.7624135276 0)
(-0.2436841526 0.74561501 0)
(-0.2023641831 0.6796997447 0)
(-0.4633404798 -1.633251144 0)
(-0.5242108806 -1.699491546 0)
(-0.5959410449 -1.656773042 0)
(-0.6524694065 -1.537307788 0)
(-0.6974182909 -1.389686215 0)
(-0.7418883077 -1.242606662 0)
(-0.7604462986 -1.103659812 0)
(-0.7651953272 -0.9658206998 0)
(-0.7394760173 -0.7707284213 0)
(-0.4628680186 -0.1415310717 0)
(-0.4484068919 -0.05717943737 0)
(-0.4726636269 -0.449553269 0)
(-0.5624050871 -0.6615839038 0)
(-0.6447886359 -0.5233866699 0)
(-0.6877855677 -0.4697908444 0)
(-0.8028357373 -0.4136405131 0)
(-0.9909980911 -0.3917327766 0)
(-1.310719865 -0.4863467285 0)
(-0.7229874897 0.4360007135 0)
(-0.6082672699 0.480505256 0)
(-0.4954849736 0.5083072646 0)
(-0.372094852 0.6241216922 0)
(-0.3035990234 0.7837961337 0)
(-0.2719933315 0.8677323088 0)
(-0.2455829172 0.8935223253 0)
(-0.2180547967 0.8792583976 0)
(-0.1878879403 0.8320092234 0)
(-0.4220309773 -1.664643627 0)
(-0.3969694531 -1.875653252 0)
(-0.4377283811 -1.773037973 0)
(-0.4670772721 -1.617335978 0)
(-0.4905346404 -1.427155163 0)
(-0.5116557679 -1.289213403 0)
(-0.5187370536 -1.127234857 0)
(-0.5303337039 -0.9892229251 0)
(-0.519114237 -0.8053874078 0)
(-0.2951661381 0.4542218896 0)
(-0.2937314943 0.5014270156 0)
(-0.3278615025 -0.539242619 0)
(-0.4584231474 -1.181085076 0)
(-0.5650310517 -1.087744072 0)
(-0.656585712 -0.9665582334 0)
(-0.7697791946 -0.8697222152 0)
(-0.874719862 -0.7326321846 0)
(-0.9906654752 -0.5566969729 0)
(-0.4667523876 0.5597309271 0)
(-0.397183049 0.6165056056 0)
(-0.3138828844 0.6186341788 0)
(-0.1119010794 0.6433135705 0)
(0.02158650207 0.8082684424 0)
(-0.01917735226 0.9290534803 0)
(-0.06069019915 1.009807983 0)
(-0.08734336673 1.072287644 0)
(-0.1066162738 1.120022602 0)
(-0.3274278721 -1.673639719 0)
(-0.2549656594 -2.014087357 0)
(-0.2707680937 -1.8619832 0)
(-0.2834823685 -1.685680613 0)
(-0.2937419456 -1.500144712 0)
(-0.2915640093 -1.312533525 0)
(-0.2929874753 -1.157886598 0)
(-0.2828837302 -1.014574499 0)
(-0.2593108462 -0.8423694488 0)
(-0.1883990629 0.3210535811 0)
(-0.1730447968 0.5408369745 0)
(-0.2905675179 -0.6446500374 0)
(-0.3717298906 -1.426353245 0)
(-0.4138323926 -1.328892629 0)
(-0.473825978 -1.194356649 0)
(-0.5121051388 -1.019558545 0)
(-0.5584995401 -0.8138914714 0)
(-0.6491004888 -0.5779947627 0)
(-0.2736480525 0.6290208701 0)
(-0.2131437223 0.7816910634 0)
(-0.141484619 0.862805676 0)
(-0.01880471742 0.8882316023 0)
(0.09793839794 0.9682721606 0)
(0.07384750359 1.173536933 0)
(0.005760610681 1.317799312 0)
(-0.04567249928 1.406262107 0)
(-0.08827898682 1.475369337 0)
(-0.2108192402 -1.458068749 0)
(0.301785671 -1.590500424 0)
(0.3505503781 -1.573432335 0)
(0.3835356438 -1.490079414 0)
(0.4043316198 -1.368266629 0)
(0.4109352918 -1.227662141 0)
(0.4012972291 -1.10300852 0)
(0.3371930408 -1.05767221 0)
(0.1209526148 -1.20377371 0)
(-0.1542993531 -1.468680561 0)
(-0.254702457 -1.629644137 0)
(-0.283353296 -1.660267124 0)
(-0.2911290004 -1.577526571 0)
(-0.2967467767 -1.440092645 0)
(-0.2899983093 -1.262607467 0)
(-0.2744056405 -1.058925183 0)
(-0.2628038821 -0.7923517519 0)
(-0.220403712 -0.5725037091 0)
(-0.2388378794 0.7106168293 0)
(-0.2357486071 0.9837774476 0)
(-0.2380031334 1.20720747 0)
(-0.2368725424 1.391101827 0)
(-0.2396975579 1.444368389 0)
(-0.1718575221 1.527862442 0)
(-0.127135596 1.606010824 0)
(-0.09040600901 1.648505755 0)
(-0.07642571859 1.674997409 0)
(-0.1160268192 1.740676406 0)
(-0.2117288637 -1.325965093 0)
(-0.06413497665 -1.248828754 0)
(0.05312473649 -1.291032379 0)
(0.2410562718 -1.317952494 0)
(0.4741468869 -1.296002569 0)
(0.6585160985 -1.202768417 0)
(0.7210059614 -1.083783427 0)
(0.69257456 -1.010331148 0)
(0.5396862322 -0.980200063 0)
(0.2930270193 -0.9839263118 0)
(0.2455389032 -0.9297153477 0)
(0.1662223501 -0.8120106383 0)
(-0.00552570611 -0.653573637 0)
(-0.2827079175 -0.4269355807 0)
(-0.4412784466 -0.1686151206 0)
(-0.3512223183 0.2934587777 0)
(-0.3466585902 0.5467112605 0)
(0.8381559425 -0.5071656276 0)
(0.3315479971 0.5199346257 0)
(0.2856051918 0.7381272107 0)
(0.26346978 0.8966467228 0)
(0.2390990229 0.9128511679 0)
(0.1728887822 0.6747353435 0)
(0.03931597148 0.1578730263 0)
(4.689640598e-05 0.0003170983509 0)
(3.259406695e-08 3.611997625e-09 0)
(2.029598605e-08 2.03938766e-09 0)
(1.410445049e-08 9.744546865e-10 0)
(1.085510581e-08 1.711101732e-09 0)
(-0.2529916045 -1.367065235 0)
(-0.2555406292 -1.113861158 0)
(-0.09215661518 -1.146899771 0)
(0.1293580867 -1.17898142 0)
(0.3871463491 -1.189279759 0)
(0.6290833948 -1.151347381 0)
(0.7794463031 -1.077125678 0)
(0.7899743358 -1.007674499 0)
(0.6579852142 -0.9754830344 0)
(0.3950622119 -0.9982143498 0)
(0.307275171 -0.9049059304 0)
(0.2032511996 -0.8166433789 0)
(0.02367901224 -0.7008263963 0)
(-0.2132172714 -0.5500767222 0)
(-0.03682292303 -0.419649807 0)
(0.792155961 -0.2906824526 0)
(0.9918323248 -0.3651342011 0)
(1.021077641 -0.5163485013 0)
(0.5234823372 0.3485580085 0)
(0.4293956719 0.5138543061 0)
(0.3064968109 0.5362774921 0)
(0.1402167245 0.3394296965 0)
(0.009234617299 0.03019835097 0)
(7.623333019e-07 2.970346578e-06 0)
(4.622930806e-11 8.947141534e-11 0)
(2.018565124e-11 5.37746286e-11 0)
(2.804318419e-11 2.400692765e-11 0)
(1.315669153e-09 1.373519275e-09 0)
(-0.002740628276 -0.0119688717 0)
(-0.1693875447 -1.46537644 0)
(-0.3121300312 -1.111187171 0)
(-0.30832468 -1.086440047 0)
(-0.2697748014 -1.094009652 0)
(-0.2303801039 -1.093898567 0)
(-0.1847165794 -1.077546861 0)
(-0.1731151358 -1.040919844 0)
(-0.2042101653 -0.9947129209 0)
(-0.2599553167 -0.9552227681 0)
(-0.210622822 -0.9502398947 0)
(0.3658422353 -0.9065467093 0)
(0.2887477924 -0.8256193382 0)
(0.1569139839 -0.7146696345 0)
(-0.01239337755 -0.5570156293 0)
(0.2908960719 -0.4115716077 0)
(1.015111147 -0.3278534423 0)
(1.222056543 -0.3770075568 0)
(1.199089636 -0.4680075843 0)
(0.6860861041 0.1160787004 0)
(0.2453352553 0.2076387598 0)
(0.04774347458 0.07483782949 0)
(0.0003824999922 0.0009129098693 0)
(9.045299049e-09 1.809175944e-08 0)
(4.127294335e-11 9.946543183e-11 0)
(2.07389659e-11 3.910823485e-11 0)
(-3.156597828e-06 3.253204403e-09 0)
(1.404171989e-11 2.843465164e-10 0)
(-0.000126334286 -0.0005915489043 0)
(-0.03643344802 -0.1702174027 0)
(-0.01494777185 -1.493943002 0)
(-0.2786612266 -1.214789644 0)
(-0.3544204166 -1.186735408 0)
(-0.4531731795 -1.151258426 0)
(-0.5189010027 -1.145529834 0)
(-0.5731817315 -1.113896822 0)
(-0.6048128041 -1.053622012 0)
(-0.5704052122 -0.9808528031 0)
(-0.4242751112 -0.9419263524 0)
(-0.0580834286 -0.9134153322 0)
(0.4419367219 -0.906022983 0)
(0.3892570631 -0.8256900998 0)
(0.2804307716 -0.7221372768 0)
(0.09754739283 -0.5755645195 0)
(0.3693751639 -0.4232868311 0)
(1.08504298 -0.3323217727 0)
(1.382432847 -0.3438835606 0)
(1.340024292 -0.4632414348 0)
(0.80613607 -0.06269205704 0)
(0.00230205925 0.001978431716 0)
(1.299219837e-06 2.188928414e-06 0)
(1.348583687e-10 3.246365116e-10 0)
(5.001196014e-11 1.238299692e-10 0)
(2.157662522e-10 3.112759597e-10 0)
(5.461853607e-06 -0.003521837928 0)
(0.08939574766 0.04169407177 0)
(0.003069300434 0.007575713245 0)
(4.174412967e-10 7.899337321e-11 0)
(2.6317026e-11 -6.646118792e-12 0)
(1.524122005e-09 5.940963365e-12 0)
(6.402604065e-09 -6.542768012e-12 0)
(1.321881524e-08 -9.887876257e-11 0)
(2.164054057e-08 -7.121996504e-10 0)
(4.081899878e-08 -4.052094031e-09 0)
(0.1057287572 -1.64046909 0)
(-0.1512258872 -1.382175281 0)
(-0.2137038004 -1.400090365 0)
(-0.2740080666 -1.380469662 0)
(-0.3266391579 -1.321584927 0)
(-0.3583049942 -1.230107278 0)
(-0.3422020111 -1.115795023 0)
(-0.2543949173 -0.9817869735 0)
(-0.05608256302 -0.8917743053 0)
(0.25268113 -0.8755049276 0)
(0.5867363759 -0.8787991708 0)
(0.5359516205 -0.8173581013 0)
(0.4280851675 -0.7317552966 0)
(0.1843928291 -0.6149304897 0)
(0.2981419783 -0.4582040176 0)
(1.045286273 -0.3404943845 0)
(1.414567217 -0.330149972 0)
(1.457886011 -0.4421296687 0)
(0.9065634484 -0.1901417968 0)
(-2.80325896e-10 1.81460781e-08 0)
(1.996319538e-11 2.850393086e-10 0)
(3.174259643e-11 1.790007332e-10 0)
(2.253931504e-11 1.064700425e-10 0)
(1.721483142e-11 6.413141604e-11 0)
(9.557461627e-12 4.00115786e-11 0)
(0.03908430491 0.00901773399 0)
(6.754951932e-09 4.192909327e-09 0)
(-1.660595823e-11 1.119442935e-11 0)
(-1.541165793e-11 5.213922566e-12 0)
(-1.296708448e-11 1.293815202e-12 0)
(-1.071083192e-11 -1.453714584e-12 0)
(-1.04513695e-11 -7.648183915e-12 0)
(-1.131985952e-11 -2.661434002e-11 0)
(-1.090481546e-11 -7.967854723e-11 0)
(0.1866073171 -1.686866117 0)
(0.03274846987 -1.824701127 0)
(0.01169855201 -1.834747786 0)
(0.0004394061525 -1.757291455 0)
(-0.006684552169 -1.60544938 0)
(-0.01500379694 -1.424299681 0)
(-0.01673905028 -1.237007184 0)
(-0.01118500928 -1.044277012 0)
(0.01327794468 -0.8197288077 0)
(0.1117569568 -0.5123367688 0)
(0.3812786332 0.04767944403 0)
(0.3536052731 0.5437997705 0)
(0.3526975585 0.6824898714 0)
(0.3773416348 0.5954284446 0)
(0.09069664162 -0.4593103879 0)
(0.8987270813 -0.3639293215 0)
(1.360483537 -0.3207248286 0)
(1.501859873 -0.4172195747 0)
(0.9861203115 -0.270899032 0)
(-1.646235444e-09 4.905255818e-09 0)
(-7.359661273e-11 2.28721143e-10 0)
(-1.228541926e-11 1.496490395e-10 0)
(7.536131184e-12 9.389322945e-11 0)
(4.588843938e-12 5.879593655e-11 0)
(3.686070209e-12 3.106961875e-11 0)
(2.086389631e-07 9.216808811e-08 0)
(-4.86278596e-09 7.263542883e-11 0)
(-1.808717825e-08 2.367985476e-10 0)
(-3.823541053e-08 2.077197668e-10 0)
(-5.364041024e-08 4.98851454e-11 0)
(-7.080885475e-08 -1.981318633e-10 0)
(-1.057481623e-07 -9.668558584e-10 0)
(-1.054386624e-07 -4.143615583e-09 0)
(-9.869055379e-08 -1.598310254e-08 0)
(0.2876702578 -1.604659186 0)
(0.2856215333 -1.582485525 0)
(0.2900066091 -1.615886214 0)
(0.2983335835 -1.581981013 0)
(0.3108577859 -1.487936995 0)
(0.3242448664 -1.354661235 0)
(0.3356444122 -1.206150787 0)
(0.3427266317 -1.059268074 0)
(0.3432522861 -0.9067503818 0)
(0.3342254496 -0.677879486 0)
(0.2878832736 0.5306291263 0)
(0.3203936514 0.7436323229 0)
(0.3708260141 0.6491167835 0)
(0.3704342703 0.481528274 0)
(-0.1940761575 -0.622621441 0)
(0.6018777011 -0.4220183351 0)
(1.184991776 -0.3217976828 0)
(1.42947599 -0.3909334217 0)
(1.016812992 -0.30353453 0)
(-1.218892279e-09 1.832057488e-09 0)
(-1.692185382e-10 2.427211818e-10 0)
(-6.501629076e-11 1.671096266e-10 0)
(-1.819961086e-11 1.005353841e-10 0)
(-4.855113682e-11 7.426903391e-10 0)
(0.0006143003752 -0.004800107494 0)
(0.0367316976 -0.2857324432 0)
(0.06600833807 -0.5116594667 0)
(0.08052908281 -0.6194910766 0)
(0.09172114553 -0.6971185097 0)
(0.1007059299 -0.7504301066 0)
(0.1081701225 -0.7832658271 0)
(0.1142774617 -0.798274837 0)
(0.118467053 -0.7962226148 0)
(0.3559749344 -1.504415532 0)
(0.5046293805 -1.290315873 0)
(0.5671562476 -1.345967538 0)
(0.5593606448 -1.402121896 0)
(0.5636490805 -1.367937014 0)
(0.5730850569 -1.279813426 0)
(0.5875327212 -1.15600705 0)
(0.6045580935 -1.025683509 0)
(0.6199182464 -0.8854174968 0)
(0.6346598634 -0.6911627078 0)
(0.3454283762 0.5975106249 0)
(0.3787552418 0.5531189635 0)
(0.4039368979 0.3940556914 0)
(0.4092959719 0.1885122449 0)
(-0.2130558605 -0.7021650965 0)
(-0.1098066021 -0.5865331488 0)
(0.8710979296 -0.3790840528 0)
(1.197235882 -0.3673761693 0)
(0.9235059466 -0.2802586166 0)
(-9.197866245e-10 9.07901572e-10 0)
(-2.954624538e-10 3.215380692e-10 0)
(-1.356989569e-10 2.286436612e-10 0)
(-5.30584981e-11 1.397595928e-10 0)
(-1.300177614e-11 7.519148086e-11 0)
(-1.119111769e-11 1.102107173e-10 0)
(1.739014515e-05 -0.0001184922345 0)
(0.007705812434 -0.056104045 0)
(0.04276041286 -0.3148077715 0)
(0.05978632663 -0.4387866677 0)
(0.06811022894 -0.4985019055 0)
(0.07210660128 -0.5347133409 0)
(0.07046795896 -0.5523007376 0)
(0.3774456643 -1.34786915 0)
(0.433008587 -0.9811293025 0)
(0.3940263417 -0.9973271546 0)
(0.4027640728 -1.018496822 0)
(0.5086499233 -1.057116433 0)
(0.7007339675 -1.129349299 0)
(0.81222066 -1.092257752 0)
(0.8337081122 -0.9788672826 0)
(0.8472540191 -0.8345008367 0)
(0.830976026 -0.5944872711 0)
(0.4797473472 0.260822763 0)
(0.364641099 0.2213276227 0)
(0.4449951072 0.1235175667 0)
(0.3726968214 -0.4098835085 0)
(0.05523720859 -0.7440213083 0)
(-0.4678821451 -0.7100052966 0)
(-0.2657499099 -0.595417761 0)
(0.6889088248 -0.4054248132 0)
(0.5080248786 -0.154371328 0)
(-8.605537745e-10 6.626060531e-10 0)
(-4.581001742e-10 5.110241766e-10 0)
(-2.512669817e-10 3.729160812e-10 0)
(-1.347824261e-10 2.348105736e-10 0)
(-7.576597866e-11 1.305073431e-10 0)
(-4.179566028e-11 6.319572618e-11 0)
(-2.453229861e-11 2.629246976e-11 0)
(-4.31195341e-09 -1.069388893e-08 0)
(7.063041735e-05 -0.0004681165475 0)
(0.001883524071 -0.01264550854 0)
(0.009236096534 -0.06281982343 0)
(0.02070701563 -0.1430717193 0)
(0.02779256927 -0.1960029588 0)
(0.1158893501 -1.237970312 0)
(-0.4311954821 -0.9709341385 0)
(-0.4625871716 -0.9530824178 0)
(-0.4074654947 -0.9234394956 0)
(-0.1785971055 -0.9090087304 0)
(0.3368086145 -0.9554902331 0)
(0.9788657102 -1.022806461 0)
(1.016961517 -0.9336312952 0)
(1.023282394 -0.7985282843 0)
(0.9454005704 -0.5657194991 0)
(0.5696814827 -0.09995731958 0)
(0.4819605688 -0.06496737592 0)
(0.5049535348 -0.1614485887 0)
(0.3742179942 -0.7378167792 0)
(0.1726321262 -0.7646836061 0)
(-0.3107195333 -0.7281355496 0)
(-0.3182055603 -0.6517955245 0)
(-0.3309922127 -0.5804399024 0)
(0.01174746863 -0.003577872115 0)
(-1.374510204e-07 7.595051963e-08 0)
(-4.383110978e-08 4.893829893e-08 0)
(-1.619883183e-08 2.366931186e-08 0)
(-4.834632754e-09 8.050837562e-09 0)
(-1.521776763e-09 2.494859962e-09 0)
(-4.404915413e-10 5.151375818e-10 0)
(-4.984407499e-11 8.074340108e-11 0)
(-1.408135291e-11 3.873745236e-11 0)
(-2.123505877e-11 1.663979578e-11 0)
(-1.847479055e-09 1.559075087e-09 0)
(-1.086071663e-08 -1.693014898e-07 0)
(2.430979382e-06 -1.619126535e-05 0)
(2.161092889e-05 -0.0001420390233 0)
(0.1114165257 -1.256527039 0)
(-0.3488943385 -1.133982016 0)
(-0.3111763677 -1.041772891 0)
(-0.1388474952 -0.9482536456 0)
(0.1884457557 -0.890083481 0)
(0.5502791096 -0.8885628365 0)
(1.02132334 -0.9271849071 0)
(1.125291224 -0.9105418777 0)
(1.138727776 -0.7886875242 0)
(1.022851783 -0.6058187266 0)
(0.6340946353 -0.36604226 0)
(0.5606849958 -0.3335635064 0)
(0.5436814943 -0.5314653929 0)
(0.4325843576 -0.7723218467 0)
(0.2780123921 -0.7729329759 0)
(0.2741371511 -0.7213120459 0)
(0.2725628992 -0.6536823248 0)
(0.2671362417 -0.5790368411 0)
(0.2546564993 0.5575381138 0)
(0.2521747597 0.6825677819 0)
(0.2460928139 0.7686322813 0)
(0.2320454662 0.7972258281 0)
(0.207196152 0.7512137384 0)
(0.1738937636 0.6475239165 0)
(0.1267186494 0.4771982801 0)
(0.05557100448 0.2104098786 0)
(0.0007979710555 0.003099238472 0)
(-1.134681342e-08 -6.349391919e-11 0)
(-5.173009851e-10 3.433929873e-11 0)
(-1.653857502e-12 1.076632012e-11 0)
(1.565143625e-12 -3.582359685e-12 0)
(0.2459542085 -1.527067337 0)
(0.2091255361 -1.398539086 0)
(0.213740837 -1.189734107 0)
(0.2265984993 -0.9678169881 0)
(0.2833644752 -0.7382427017 0)
(0.4777910948 -0.5451031014 0)
(0.7124117439 -0.3575273159 0)
(0.5339347707 -0.08368506187 0)
(1.168584 -0.8199696699 0)
(1.053375588 -0.668447413 0)
(0.6888705716 -0.5808359495 0)
(0.621655365 -0.5878974318 0)
(0.564412518 -0.7501087358 0)
(0.4558083869 -0.7852734301 0)
(0.349914797 -0.768863251 0)
(0.3721796178 -0.7128239795 0)
(0.3823970842 -0.6510092406 0)
(0.4006026304 -0.576917662 0)
(0.3423893991 0.5614420216 0)
(0.3151357495 0.6603762509 0)
(0.294224218 0.7266694173 0)
(0.2733635771 0.7607588935 0)
(0.2499763756 0.7577775135 0)
(0.2230184083 0.7182479611 0)
(0.1932855681 0.6458860323 0)
(0.1764981014 0.6021539056 0)
(0.1712647813 0.6043228069 0)
(0.1470367849 0.5376120072 0)
(0.1047546698 0.3904108963 0)
(0.02441962484 0.09148576406 0)
(6.219520746e-06 2.28375818e-05 0)
(0.3493605836 -1.489526335 0)
(0.4069133783 -1.362462779 0)
(0.4239808924 -1.18341868 0)
(0.4102108569 -0.983574008 0)
(0.3225075634 -0.716567778 0)
(0.01821016666 -0.4420897293 0)
(-0.3561745807 -0.3746536139 0)
(-0.6163749689 -0.4996310244 0)
(1.058591402 -0.8286755853 0)
(1.007379523 -0.7310526049 0)
(0.7138618127 -0.7213679075 0)
(0.6495924088 -0.7412748508 0)
(0.5721215798 -0.7884789289 0)
(0.4877263822 -0.7758739856 0)
(0.4595904057 -0.7317854389 0)
(0.5010576337 -0.6813758934 0)
(0.5287942396 -0.6334350912 0)
(0.5716708958 -0.5765966034 0)
(0.3632920165 0.5637349922 0)
(0.3311155862 0.6309290167 0)
(0.3078177207 0.6768376769 0)
(0.2876353836 0.705765953 0)
(0.2678602354 0.7173387267 0)
(0.2470503123 0.7102086055 0)
(0.2253038895 0.6851113723 0)
(0.2045158526 0.6525131979 0)
(0.1808503977 0.6042179931 0)
(0.1518682961 0.5257750618 0)
(0.1162763773 0.4098089137 0)
(0.03836489553 0.1359581391 0)
(1.960273624e-05 7.127821658e-05 0)
(0.4293172973 -1.416735676 0)
(0.5756977718 -1.281659783 0)
(0.5649197879 -1.126438679 0)
(0.4157266887 -0.955855962 0)
(-0.02488681379 -0.8758330027 0)
(-0.4816669411 -0.8964515425 0)
(-0.6318681144 -0.91207605 0)
(-0.4237514988 -0.8195515849 0)
(0.928614492 -0.8562308236 0)
(0.8963915155 -0.7839060412 0)
(0.7052152604 -0.7850592214 0)
(0.6472173837 -0.7829617365 0)
(0.5817849091 -0.7664189789 0)
(0.5447459214 -0.7109946979 0)
(0.5752630218 -0.6365633685 0)
(0.6303910963 -0.5900423613 0)
(0.6721736612 -0.5730305071 0)
(0.7063022038 -0.5169700267 0)
(0.1443044723 0.247943377 0)
(0.2077667321 0.425510113 0)
(0.2199448357 0.4939050618 0)
(0.2204293883 0.53436339 0)
(0.215017936 0.5585493069 0)
(0.2048317472 0.5677539196 0)
(0.1897247047 0.5586828921 0)
(0.1704291118 0.5297447324 0)
(0.1475684545 0.4794230875 0)
(0.1172026167 0.3921637514 0)
(0.04587619813 0.1556264776 0)
(5.683920477e-05 0.0001947189222 0)
(-5.787368735e-12 2.184291631e-12 0)
(0.4881451563 -1.389256663 0)
(0.6410303886 -1.537108733 0)
(0.5562427724 -1.655921921 0)
(0.4468555272 -1.724981858 0)
(0.3628083986 -1.698156379 0)
(0.3319773859 -1.531809124 0)
(0.322474956 -1.184749351 0)
(0.3358490602 -0.755205703 0)
(0.5596909238 0.2964307897 0)
(0.5195201433 0.6916736389 0)
(0.5438387819 0.3827271105 0)
(0.6377567413 -0.7572473203 0)
(0.6017265844 -0.6943326179 0)
(0.6092792672 -0.6029416383 0)
(0.6611193736 -0.5226548574 0)
(0.7245992242 -0.4829729336 0)
(0.7798048815 -0.5199415741 0)
(0.8725582952 -0.5374161761 0)
(0.002021167521 0.002635786204 0)
(0.0460241006 0.09445566314 0)
(0.08751163015 0.2029818386 0)
(0.1116742359 0.2792919954 0)
(0.1227241078 0.3267392748 0)
(0.124187009 0.3502203224 0)
(0.1165990512 0.3464846838 0)
(0.09653904001 0.2997198505 0)
(0.05294573018 0.1697823401 0)
(0.006396805756 0.02094681663 0)
(4.298468779e-06 1.431714361e-05 0)
(-5.090382727e-12 3.370410744e-12 0)
(-1.321742311e-11 -2.895896263e-12 0)
(0.5231647466 -1.360609896 0)
(0.7540532265 -1.426612031 0)
(0.6912209639 -1.513430514 0)
(0.6216050024 -1.552341859 0)
(0.5916428353 -1.502191914 0)
(0.6210699881 -1.352990253 0)
(0.6978798679 -1.10418113 0)
(0.7595640648 -0.8152694411 0)
(0.445818022 0.6512766382 0)
(0.4692602131 0.6217811136 0)
(0.5578494527 0.04028349393 0)
(0.6328619644 -0.6894181886 0)
(0.6298031842 -0.5872491808 0)
(0.6598028532 -0.4939033253 0)
(0.7113361142 -0.4310829753 0)
(0.7852136168 -0.4012234268 0)
(0.8520515337 -0.4850124159 0)
(1.042030998 -0.5586922794 0)
(8.062268923e-07 3.416684442e-07 0)
(0.0002153889915 0.0002653793592 0)
(0.001892338856 0.004018417002 0)
(0.005611187851 0.01384336878 0)
(0.008400636596 0.02245810643 0)
(0.007973241915 0.02260385882 0)
(0.004513001943 0.01339262651 0)
(0.0009745142868 0.002995136839 0)
(1.643275971e-05 5.183096663e-05 0)
(-1.65835729e-09 2.14023003e-10 0)
(-2.43606556e-12 6.736189731e-12 0)
(-1.060471509e-11 -3.474344154e-12 0)
(-2.547287805e-11 -1.2892556e-11 0)
(0.5327331098 -1.326950844 0)
(0.762295266 -1.224704164 0)
(0.65951171 -1.235101214 0)
(0.5124397462 -1.221532796 0)
(0.4170653178 -1.175184056 0)
(0.5435324642 -1.111542905 0)
(0.9044092496 -1.006242914 0)
(1.095696443 -0.8010291923 0)
(0.4916015454 0.2323731511 0)
(0.5193697976 0.08440585542 0)
(0.5643424288 -0.4374445716 0)
(0.3388627446 -0.5366847785 0)
(-0.05393384482 -0.4696501389 0)
(-0.2668756152 -0.4763774973 0)
(-0.295434214 -0.5261160641 0)
(0.8272791321 -0.3475719736 0)
(0.8990486247 -0.4645969927 0)
(1.173070346 -0.5662501935 0)
(9.152709692e-08 9.278975008e-08 0)
(8.22146742e-09 4.034278289e-09 0)
(1.133726621e-07 7.893805881e-08 0)
(2.367571053e-07 2.423908216e-07 0)
(1.389555484e-07 2.114197821e-07 0)
(3.057140952e-08 6.379395191e-08 0)
(6.267845905e-10 2.807159923e-09 0)
(-3.138307096e-11 7.011779619e-12 0)
(7.897984318e-14 1.314617788e-11 0)
(-1.645338204e-11 3.710117244e-12 0)
(-4.302816514e-11 -1.853344582e-12 0)
(-6.322734715e-11 -1.155187339e-11 0)
(-9.307940406e-11 -3.427225831e-11 0)
(0.5153118461 -1.291936371 0)
(0.5695590553 -1.119834678 0)
(0.3650049242 -1.106103795 0)
(0.08021913789 -1.080625215 0)
(0.01070862564 -1.032428491 0)
(0.4927662075 -0.9904541755 0)
(1.013872155 -0.936387373 0)
(1.344111019 -0.8142960373 0)
(0.5096503275 -0.3602827037 0)
(0.3909275873 -0.4306131928 0)
(0.05785321915 -0.5432723219 0)
(-0.3225732944 -0.5270000989 0)
(-0.5497831329 -0.5597033169 0)
(-0.6696353615 -0.5631441382 0)
(-0.6083062118 -0.5292228506 0)
(0.8575605325 -0.3196478135 0)
(0.9305187245 -0.4531226005 0)
(1.281035473 -0.5707052754 0)
(3.313596494e-08 4.427583502e-08 0)
(4.257012497e-10 3.015274974e-10 0)
(2.426271361e-10 1.975909381e-10 0)
(1.191365058e-10 1.315481322e-10 0)
(5.334255026e-11 7.736451789e-11 0)
(2.443855928e-11 3.951146556e-11 0)
(1.3399781e-11 1.837337752e-11 0)
(4.247677448e-12 5.160532227e-12 0)
(-1.687383466e-11 -1.397808513e-11 0)
(-1.285106308e-11 -2.913272752e-11 0)
(-1.062007519e-10 -5.004732629e-11 0)
(-4.543982228e-10 -2.190945176e-10 0)
(-8.568662076e-10 -5.365784671e-10 0)
(0.5079288159 -1.359868641 0)
(0.5103020265 -1.570821173 0)
(0.453033681 -1.445166456 0)
(0.4344604643 -1.303668314 0)
(0.4810686934 -1.131312462 0)
(0.6111869082 -0.9675507635 0)
(0.9847351186 -0.8634113649 0)
(1.541478159 -0.7808222714 0)
(0.5890841385 0.2506121309 0)
(0.3008950625 -0.1915212821 0)
(-0.2763836395 -0.7113625655 0)
(-0.4879985555 -0.705582112 0)
(-0.5640747385 -0.6927502474 0)
(-0.4992743017 -0.6148679585 0)
(-0.203226356 -0.4810400234 0)
(0.8754300089 -0.3184434261 0)
(0.9521436205 -0.4490718747 0)
(1.373138444 -0.5737643928 0)
(9.971042038e-09 2.156774318e-08 0)
(1.852973266e-10 2.365777281e-10 0)
(9.067967737e-11 1.372742007e-10 0)
(3.78985552e-11 8.562855822e-11 0)
(1.441791239e-11 4.708866878e-11 0)
(4.669130856e-12 2.457945187e-11 0)
(-5.683362192e-12 9.416966191e-12 0)
(-1.227457914e-11 -9.769739919e-12 0)
(-3.819956152e-08 -2.330367594e-08 0)
(0.003939711525 -0.009165025765 0)
(0.07021558709 -0.1608821885 0)
(0.186300753 -0.4244629639 0)
(0.3156474589 -0.7103927123 0)
(0.521079148 -1.356211524 0)
(0.6121855327 -1.654784469 0)
(0.6206132111 -1.49557326 0)
(0.6341278644 -1.3177488 0)
(0.6604356967 -1.139300264 0)
(0.7203116349 -0.9677694694 0)
(0.9468495209 -0.8067177868 0)
(1.596946283 -0.6414979368 0)
(0.640909464 0.4781181348 0)
(0.1828749642 -0.4792260055 0)
(-0.2431570244 -0.8412444764 0)
(-0.3374672422 -0.8319253741 0)
(-0.3159221632 -0.7561056345 0)
(-0.1535275021 -0.6043978734 0)
(0.2722327735 -0.432221091 0)
(0.8880828414 -0.3313363946 0)
(0.9661004005 -0.4453450947 0)
(1.452768273 -0.5749507317 0)
(-6.114794396e-09 2.188931686e-08 0)
(-1.510789241e-09 2.667899557e-09 0)
(-4.697710446e-10 6.351546123e-10 0)
(-1.020066676e-10 1.224609971e-10 0)
(3.428103045e-12 3.997270569e-11 0)
(-1.274093835e-12 1.391075761e-11 0)
(-7.392945417e-12 -1.002947966e-12 0)
(9.52529458e-07 -2.019440174e-06 0)
(0.01567585408 -0.03208380045 0)
(0.1123902333 -0.2284554906 0)
(0.1804757989 -0.3674479941 0)
(0.2694253226 -0.5434467466 0)
(0.3663581754 -0.7106364784 0)
(0.5380000621 -1.321972942 0)
(0.7461797299 -1.616124242 0)
(0.7889262242 -1.470032865 0)
(0.8154683552 -1.308091746 0)
(0.8136371931 -1.165563339 0)
(0.7776205944 -1.080464412 0)
(0.7090459005 -1.093207031 0)
(0.6492298177 -1.17159302 0)
(0.3741829077 -1.273661061 0)
(0.3445282554 -1.340945601 0)
(0.3618410672 -1.308712832 0)
(0.3947935621 -1.22026309 0)
(0.412883486 -1.071836213 0)
(0.4172473352 -0.7994749089 0)
(0.4777359204 -0.3699707973 0)
(0.8304185027 -0.1130360985 0)
(0.7983038117 0.2192508311 0)
(0.7407927347 0.6247551836 0)