/*--------------------------------*- C++ -*----------------------------------*\
  =========                 |
  \\      /  F ield         | OpenFOAM: The Open Source CFD Toolbox
   \\    /   O peration     | Website:  https://openfoam.org
    \\  /    A nd           | Version:  8
     \\/     M anipulation  |
\*---------------------------------------------------------------------------*/
FoamFile
{
    version     2.0;
    format      ascii;
    class       Cloud<basicReactingMultiphaseParcel>;
    location    "0.1/lagrangian/reactingCloud1";
    object      positions;
}
// * * * * * * * * * * * * * * * * * * * * * * * * * * * * * * * * * * * * * //

20
(
(0.2924639246 0.3654205753 0.2390423694 0.1030731307) 35155 107441 2
(0.8533220453 0.03617389099 0.09018140963 0.02032265412) 37015 113433 2
(0.2678884254 0.3099605411 0.2647143337 0.1574366997) 38008 116347 1
(0.1370431121 0.2926715063 0.1711906574 0.3990947242) 38042 116450 1
(0.5027106071 0.1505564536 0.00216610147 0.3445668377) 40204 122790 2
(0.3571652458 0.06373712905 0.0133522201 0.565745405) 38170 116829 2
(0.4745446812 0.1731984301 0.06253373469 0.289723154) 42356 129110 1
(0.6248164649 0.1913150936 0.02990731233 0.1539611291) 41228 125796 2
(0.06767704823 0.5680404256 0.1315466958 0.2327358304) 42380 129181 2
(0.1890993573 0.3714162903 0.3488851235 0.09059922893) 42383 129191 2
(0.2192362785 0.3973499666 0.004930261221 0.3784834937) 44457 135269 2
(0.01978118921 0.7108704391 0.02497945648 0.2443689152) 45522 138396 2
(0.5732375294 0.1799835215 0.2012982177 0.04548073149) 45555 138492 1
(0.3580383515 0.03865223183 0.5327680102 0.07054140648) 46717 141868 1
(0.5345473585 0.3112886047 0.120382647 0.03378138977) 46685 141807 2
(0.2043564701 0.1140737171 0.5201480962 0.1614217166) 48755 147874 1
(0.5649040731 0.1703812076 0.1360351133 0.1286796061) 48786 147966 2
(0.07196970596 0.2979878308 0.4602212064 0.1698212569) 48786 147968 2
(0.1092880546 0.6033946915 0.08122655116 0.2060907028) 49886 151097 2
(0.02179827737 0.02247496756 0.5121077367 0.4436190184) 49854 151094 2
)


// ************************************************************************* //
