/*--------------------------------*- C++ -*----------------------------------*\
  =========                 |
  \\      /  F ield         | OpenFOAM: The Open Source CFD Toolbox
   \\    /   O peration     | Website:  https://openfoam.org
    \\  /    A nd           | Version:  8
     \\/     M anipulation  |
\*---------------------------------------------------------------------------*/
FoamFile
{
    version     2.0;
    format      ascii;
    class       volScalarField;
    location    "0.5/wallFilmRegion";
    object      alpha;
}
// * * * * * * * * * * * * * * * * * * * * * * * * * * * * * * * * * * * * * //

dimensions      [0 0 0 0 0 0 0];

internalField   nonuniform List<scalar> 
1342
(
3.768996818e-05
0.0003990007373
0.0001112510258
3.664631526e-05
0.002170469626
0.9727310494
0.07245314012
0.0001687757679
0.000119031514
8.192848633e-05
5.532722784e-05
3.624458783e-05
2.218420043e-05
3.476495348e-05
0.0001981223405
0.03226075651
0.2454267999
0.2369231606
3.285973593e-06
2.134223333e-06
1.385073213e-06
1.353681092e-06
2.440333909e-06
4.10376964e-06
6.344130068e-06
2.37357286e-05
1.613870603e-05
1.088018136e-05
7.313199072e-06
4.957176468e-06
3.532516507e-06
5.703120429e-06
1.543330444e-05
3.040470622e-05
9.592404352e-05
8.514286422e-05
5.858057655e-07
5.683483457e-07
8.065566927e-07
5.852626781e-07
6.389108709e-07
1.103580947e-06
1.376321183e-06
6.094740545e-06
4.047797706e-06
2.77144384e-06
2.184794241e-06
2.834045371e-06
2.944920243e-06
2.296028716e-06
3.407398566e-06
6.395795232e-07
3.737212803e-07
2.122379479e-07
1.15692013e-07
5.794953463e-08
5.040991208e-08
6.740735732e-08
8.876866042e-08
9.600812305e-08
2.88108563e-07
3.865296845e-07
3.074411491e-07
1.186702195e-07
4.18559497e-07
2.470212434e-07
1.422148759e-07
8.071722103e-08
4.714514669e-08
3.003870742e-08
1.922966762e-08
1.271626352e-08
1.016584301e-08
5.01358048e-08
8.949153067e-08
4.435505135e-08
2.08658258e-07
1.252517725e-07
7.265488046e-08
4.039251986e-08
2.132921506e-08
1.058088342e-08
4.919286376e-09
2.226461243e-09
7.00503425e-10
4.543064024e-09
6.31984906e-09
5.380064014e-09
8.569947689e-09
1.405463719e-07
8.527268892e-08
5.071905418e-08
2.933116137e-08
1.631062288e-08
8.590746393e-09
4.214584632e-09
1.989813147e-09
1.2677882e-09
3.327436889e-06
0.0001771084069
5.625148792e-06
6.048995148e-06
3.078106404e-06
3.275957116e-06
0.0007186825323
5.71443159e-05
2.052238582e-06
1.619574663e-06
0.0001501668785
1.890425025e-06
2.721056919e-06
0.01554672734
0.004990768071
0.006238692472
0.01623064782
0.006073513113
0.005414373405
0.0159718411
0.004818424118
0.004423305352
0.01337724795
0.005028714428
0.005765544411
0.01703149654
0.006353760898
0.00750374837
0.02315381414
0.00877509907
0.01000606579
0.02197748895
0.01136348492
0.0128936416
0.01761236151
0.01426910987
0.01469912382
0.006946534205
0.01312083242
0.005271690455
0.02203354092
0.00371224756
0.005334550224
0.001502617373
0.003612963261
0.001092737917
0.001002444854
0.000412156592
0.0007471530842
0.001038840526
0.002539093328
0.00143217676
0.001269048435
3.059899243e-06
1.419799947e-07
0.004050527715
5.445052603e-06
5.154858366e-05
0.006230713046
0.0001013910414
0.0001352050232
0.006506145726
0.0001443160732
9.550510869e-05
0.007528520898
0.0001241737245
0.0001839931288
0.004149100849
8.934874875e-05
0.0005605046285
0.001650306822
0.0002841783794
5.195543863e-05
0.001002194808
0.0009061212144
0.0001189804514
0.007690006683
0.001033605958
0.00322981258
0.1134805565
0.01058338628
0.04167792727
0.001452635107
0.005693875842
0.002568235421
0.001023632852
0.001540011201
0.001620156643
0.00464073498
0.002780408667
0.005509063486
0.0001080718231
0.009082651619
0.006678222529
2.154070969e-16
0.0002657600806
6.617338276e-10
1.065812034e-19
9.51168154e-21
3.481850811e-30
3.374283803e-22
2.401768125e-31
5.970194831e-36
1.229699821e-11
1.799886971e-41
2.010739077e-41
6.223110073e-10
1.955235144e-41
1.078276729e-21
7.821223378e-19
2.091245366e-30
1.618384598e-30
2.044726757e-06
1.083855869e-18
2.63151936e-19
0.00137044799
7.227978273e-05
0.0002879683515
0.01876199915
0.002110915053
0.008216427515
0.00474152905
0.01405128621
0.007283172484
0.002571355569
0.004445760695
0.003850360114
0.006848441273
0.004991395371
0.00932039941
0.01639955921
0.01920078139
0.02827454954
6.778766198e-05
0.01518950824
0.001101627896
4.00663582e-23
6.456870468e-08
1.080505017e-18
8.377027969e-45
1.258460302e-29
1.793090938e-40
7.596157566e-53
3.158189614e-51
6.918574634e-62
4.731361241e-33
1.3947619e-58
3.142930742e-45
9.862501091e-43
7.607740441e-54
4.242665001e-54
2.110246091e-30
1.206672492e-40
6.269466281e-41
2.289896336e-05
1.08557598e-11
2.285148905e-08
0.003707220754
0.0001363105141
0.002048622378
0.6505275133
0.01125458014
0.5111943246
0.009557906177
0.0202854355
0.01344425489
0.005647908871
0.00931475538
0.008924303304
0.01454899372
0.01310234276
0.02602876244
0.04333184876
0.04901746388
0.05509049162
0.001458085031
0.01616970433
0.0004134540705
2.340370477e-18
9.84065244e-10
6.237781273e-21
2.807768742e-40
5.033491648e-32
5.162792791e-43
9.989056862e-61
8.431629365e-54
1.117625281e-50
6.404869225e-47
1.016508292e-38
6.838750848e-37
1.422110894e-44
3.273076724e-36
3.726134954e-34
8.066805002e-33
6.42646643e-21
1.392493427e-23
1.879515054e-11
2.064242691e-07
2.163533171e-08
0.0004184345436
1.067365256e-08
2.324268392e-09
0.4218267205
0.002340402834
0.5442098573
0.02468068706
0.1025414707
0.03137832121
0.01614185151
0.02511895359
0.03102745663
0.04644865929
0.04581209647
0.06019685999
0.04158906356
0.04667505093
0.00814977086
2.975920582e-06
2.911419572e-05
2.710610477e-14
1.877703246e-27
8.986122831e-26
4.647882414e-37
1.778177945e-49
1.547387423e-44
1.464205859e-44
2.690857511e-40
2.276439516e-33
9.674659773e-30
4.187107719e-08
2.447105308e-18
1.10392963e-16
0.008502382295
4.064715298e-05
0.005706048116
0.0003698341623
0.01553498702
0.01195820442
0.0003947636739
0.01861404074
0.07053629934
0.001164773741
0.2259425147
0.3855247461
0.5628545515
0.4479166846
0.04401043719
0.1105244293
0.05934927549
0.04777708069
0.05567443047
0.0397329049
0.03077107649
0.01473024717
0.002521268212
3.875100755e-05
0.0007766493995
0.002071160944
3.64206076e-07
0.004759879257
0.001706831642
1.670199034e-10
0.0006112883623
0.0005078476857
6.72851559e-09
0.0005182894842
0.001009458672
5.802620228e-18
0.001139443625
0.001118956134
9.139832577e-05
0.002527434155
0.003495555719
0.01285575043
0.01040390909
0.01832240426
0.01882211269
0.02190431005
0.01927907243
0.05729370694
0.01063186239
0.07861285546
0.8965225259
0.3692446856
0.8913161155
0.2882716909
0.009258711928
0.0728511985
0.4311866522
0.07860911815
0.013386696
0.03975474666
0.058118609
0.01948912897
0.06723945192
0.05876774009
0.02840320252
0.04550475507
0.03591349572
0.01400817038
0.03014352441
0.02643116599
0.01119899888
0.02340305423
0.02051723801
0.01059673782
0.01808653899
0.01701667816
0.01235583178
0.01976471058
0.02457484266
0.01121228008
0.1291748271
0.1890821006
0.01806630998
0.1535998157
0.1970235735
0.09200460361
0.321760716
0.556855593
1.929800383e-06
1.506614541e-06
1.188412075e-06
1.174575378e-06
9.212174582e-07
7.608296046e-07
7.2658639e-07
5.760320909e-07
5.009708158e-07
4.577101382e-07
3.622588855e-07
3.106135303e-07
2.80825118e-07
2.032052601e-07
6.169343908e-08
7.635806338e-08
5.10845726e-08
5.701226897e-08
4.855859732e-08
5.227204453e-08
8.60783867e-08
6.340922654e-08
8.924417539e-08
3.73092438e-07
1.642066848e-07
4.075425798e-07
1.449917351e-06
1.408906899e-06
1.063265073e-06
1.101901708e-06
2.336355587e-06
1.485541027e-06
1.235772843e-06
7.486069232e-07
4.560007985e-07
2.739040592e-07
1.413147498e-07
4.487955115e-08
5.108111148e-08
9.615782017e-08
1.052598644e-06
8.160480922e-07
2.190535333e-07
1.610761284e-07
1.093695346e-07
5.819893395e-08
9.761968886e-08
4.66697357e-07
1.648974706e-07
2.223450416e-07
5.334357789e-07
2.029177649e-07
4.961829413e-07
2.153958967e-07
3.375886359e-07
8.293180952e-07
4.90439717e-07
2.827646962e-07
3.347087432e-07
2.526094519e-07
1.57797184e-07
1.890047955e-07
8.300385969e-08
4.886022158e-08
5.904048844e-08
5.112525676e-08
5.774614079e-08
5.011790884e-08
5.144448852e-08
7.885004918e-08
7.357205782e-08
6.924272978e-08
2.173227171e-08
1.616238652e-07
6.237232982e-08
8.299173728e-08
1.267575119e-07
5.395865343e-07
1.370713494e-07
1.071883641e-07
1.039304748e-07
3.193940311e-08
2.329441461e-08
2.409705413e-08
1.682276779e-08
1.204368046e-08
1.544278515e-08
8.582808942e-09
1.090539472e-08
2.728599538e-09
1.631703321e-08
1.324992021e-07
7.905093447e-08
1.282941304e-08
1.213262428e-09
8.33720809e-10
0.3256856152
1.162807831e-05
0.3159510155
7.745519118e-06
0.2897004663
5.626666636e-06
0.2978571825
4.416658322e-06
0.366030263
6.788321194e-07
0.3338336347
3.048755744e-07
0.2778254442
2.935263532e-07
0.2535633778
4.331324417e-07
1.683287647e-05
0.3819997272
1.9488839e-06
0.01510238301
0.01593362867
0.01630248987
0.01498492522
0.01317500797
0.02113651017
0.02316502427
0.02030740586
0.01017397037
0.01497283356
0.06696785117
0.0009147585106
0.2750329676
0.0003213441495
0.00235067842
0.0008874798537
0.001020615965
0.001001377196
0.002370986105
0.005256218726
0.007004120528
0.006476554479
0.005281492989
0.003986969688
0.001146220603
0.003273397775
0.02590146869
0.001556773124
0.000843166127
0.6856785658
0.004621980388
0.000762723989
0.002334652375
0.004131436309
5.034789349e-11
1.256910344e-17
4.699981588e-12
2.53644917e-22
3.998526631e-22
1.432142764e-18
3.890740489e-05
0.0003420687783
0.004733196579
0.1895347283
0.00936640147
0.002829763983
0.003624363572
0.01313400495
0.005833017747
3.409677637e-12
5.336808345e-34
7.334446451e-53
6.176637979e-53
7.677559209e-42
7.464042205e-30
1.261977336e-05
0.0006158193998
0.02724520201
0.01570382693
0.006340412219
0.007497883028
0.03052824461
0.02101199146
1.341694287e-07
2.256414109e-29
4.456571306e-51
9.130967237e-49
3.177460032e-46
6.053150485e-31
4.879864613e-14
5.0889642e-06
0.004523425665
0.05653020911
0.01538262127
0.02589725177
0.06534366058
0.003994067549
2.851534316e-16
1.605047233e-38
4.545924255e-44
1.961694059e-28
0.0008903944571
0.003568356662
0.0002109228134
0.0006923247192
0.002697278972
0.1325891931
0.04085990199
0.04910986902
0.006339245028
1.779439046e-05
1.766872567e-09
4.412793454e-21
2.275150705e-08
6.803887162e-07
0.003219756459
0.0195704874
0.01737120999
0.2496803545
1.614164748
1.046637795
0.1009626886
0.03847570266
0.01218157673
0.02731777791
0.02132920715
0.01153632183
0.009273249954
0.01318477856
0.02458725823
0.01056259953
0.03857798868
0.191932958
0.7113506443
0.2531873759
0.06719404085
0.04992640667
0.04128570064
0.0373501086
0.03318579952
0.03165781668
0.07639915426
0.5132628517
0.9338827965
0.104318316
0.04860087689
2.16132586
2.487254042e-06
1.507433145e-06
9.460537297e-07
6.16630213e-07
4.024619313e-07
9.561575681e-08
5.54820324e-08
6.565253397e-08
1.455025489e-07
1.032930139e-06
2.468552795e-06
1.265565849e-06
1.900021418e-06
1.809178769e-06
2.257580776e-06
1.318542872e-06
1.019803105e-05
1.197530596e-05
9.60728292e-07
5.841462369e-07
4.888498272e-07
3.550710982e-07
2.890503879e-07
2.052840349e-07
6.441239396e-08
4.502443711e-08
4.442910478e-08
6.537487637e-08
6.771876285e-08
1.689694826e-07
1.22887572e-06
1.158353429e-06
1.151647758e-06
1.430142488e-06
7.091831226e-08
1.092655847e-07
2.02050741e-07
2.286037878e-07
1.537277792e-07
4.091828247e-07
2.210539297e-06
1.536630559e-06
1.381611985e-06
8.690598727e-07
5.85502404e-07
5.623129748e-07
3.73659803e-07
2.241043287e-07
2.268049754e-07
1.290917119e-07
7.079009911e-08
8.771412541e-08
1.158528461e-08
3.188550687e-08
7.155198384e-08
1.192348833e-07
7.061444675e-08
4.08932138e-08
3.92419544e-07
1.900527973e-07
6.113533722e-08
3.281189729e-08
3.925981598e-08
8.478355686e-09
1.018923815e-08
3.579576002e-09
1.068942561e-07
6.643998701e-08
4.010000825e-08
3.386333592e-08
2.328145769e-08
1.803130184e-08
1.281312789e-08
6.531777021e-09
2.969147522e-09
1.157929518e-09
5.235614941e-08
3.290846902e-08
2.01943569e-08
1.201385005e-08
6.844830038e-09
3.664045305e-09
1.773264693e-09
7.136390617e-10
1.901978491e-10
4.0902973e-08
2.604573274e-08
1.622452846e-08
9.819008564e-09
5.715166775e-09
3.146384406e-09
1.5889014e-09
6.893897244e-10
2.227081656e-10
7.462705203e-08
4.701622524e-08
2.909268535e-08
1.754017422e-08
1.019458304e-08
5.608066983e-09
2.818929288e-09
1.191976938e-09
3.323057875e-10
0.3256642411
1.462696483e-05
0.05393301503
2.496503349e-06
0.3225949181
9.397438625e-06
0.05674156937
0.05881259926
1.957121111e-06
1.551889595e-06
0.3050669872
6.528616807e-06
0.05977207842
0.05920813416
1.246153253e-06
1.014734153e-06
0.270804603
4.948891618e-06
0.05553339311
0.05285269641
8.363725537e-07
6.946586829e-07
0.3449501699
4.10593106e-06
0.06147335799
0.07409020901
5.746503173e-07
4.685956705e-07
0.3573464748
3.836947048e-07
0.08466318228
0.08876853729
1.220762856e-07
7.621927977e-08
0.3058008043
2.836921557e-07
0.08703907092
0.08159747359
6.521508551e-08
6.416798218e-08
0.2539403137
3.325843881e-07
0.07456375884
0.06615013775
7.04349718e-08
8.639552057e-08
0.2843909133
7.807349448e-07
0.05332943333
0.04754199448
1.294041597e-07
2.934042192e-07
0.1157893832
0.1481587836
8.60463422e-07
0.2299752622
0.107573392
0.01327855416
0.02174461213
0.08214335176
0.3123568228
3.644904048e-06
0.4206556181
3.615903967e-06
3.677163641e-06
1.225114154
0.0681118968
0.0002228539026
0.8194438274
3.255255551e-06
2.582419757e-06
1.491843897
0.3213694898
2.373813157
4.081932998
3.137488756
5.930523725e-06
1.423931266e-05
2.730662811e-05
2.686777174
1.922383937
3.448849702e-05
0.3631979228
0.945748099
0.03274789328
1.298067285
0.2376266895
1.089614087
1.448554354
4.19929781e-05
4.348724166e-05
3.589966723e-05
0.5018955746
0.232050093
0.0002398022702
4.925812674e-05
0.09801093448
0.1810172206
0.1515858997
0.0001424836962
3.033653019e-05
2.508045114e-05
0.05743266104
0.1347637068
0.1244803599
9.895785246e-05
2.063974769e-05
1.697858457e-05
0.04461146375
0.1158470315
0.1070427016
6.751955379e-05
1.395411415e-05
1.145355827e-05
0.03916435819
0.09685416033
0.0850448729
4.500374677e-05
9.390847114e-06
7.696839144e-06
0.0353995701
0.07216835472
0.05882037673
2.873900033e-05
6.317579852e-06
5.200268123e-06
0.03113988967
0.04482415271
0.02876826002
1.8211681e-05
4.29458816e-06
3.930416001e-06
0.03488843067
0.0329145679
0.05195836169
7.83826102e-05
6.919261906e-06
1.354609731e-05
0.313069205
0.08763897816
0.2774451535
0.0006270787624
2.483392594e-05
4.381129624e-05
0.1683486532
4.84454435
10.12431047
0.1616189147
0.0001604957397
0.0004641441101
0.707642222
7.449075444
4.754609596
0.2776685457
0.0006874269604
0.0008152432549
0.1025724003
2.09193418
2.232031972
0.0003215019375
0.0006165456947
4.223056034e-05
5.905844066e-05
2.57626799e-06
9.966535534e-07
2.033703998e-06
1.266186008e-06
6.400002986e-07
1.759395278e-06
1.389686306e-06
9.12721641e-07
1.186670369e-06
1.113099023e-06
9.046018577e-07
7.505729836e-07
1.87686932e-06
9.370722166e-07
1.258806275e-06
2.870545401e-06
3.273353613e-06
1.632396001e-06
1.894727453e-06
2.081372043e-06
3.645049892e-06
2.045027759e-06
5.702098291e-06
2.905446143e-06
2.513036131e-06
2.339266399e-06
4.02827755e-05
1.963872368e-05
1.32568157e-05
1.000331692e-05
8.920849742e-06
8.192731649e-06
6.704151311e-06
6.004734579e-06
5.491242989e-06
4.516339956e-06
4.138484603e-06
3.754343203e-06
3.191289757e-06
3.407355222e-06
2.844430359e-06
2.920712191e-06
1.021188229e-05
4.337582247e-06
6.373857398e-06
2.1807408e-05
7.168150841e-06
7.330415053e-06
5.496562647e-05
8.078299141e-06
1.173297391e-05
0.000117779022
1.893623371e-05
2.432830862e-05
5.058723471e-05
2.358440921e-05
6.242135201e-06
3.66392407e-06
3.842400555e-06
6.321020165e-07
3.769434693e-07
4.305594979e-08
5.217356192e-08
4.89011457e-07
1.802856509e-07
2.588979214e-07
3.778315341e-07
4.860890848e-07
2.507657734e-07
5.020681194e-07
8.991409773e-07
8.089867203e-07
5.259704655e-07
5.431826772e-07
3.806366294e-07
4.995422586e-07
3.326023971e-07
2.108513564e-07
8.291849491e-07
5.417587964e-07
4.367046062e-07
2.832313495e-07
1.237170688e-06
7.466982532e-07
7.20901041e-07
6.610750546e-07
6.849855687e-07
3.573505326e-07
5.299130794e-07
1.23247304e-06
1.235539515e-06
5.857881594e-07
5.73791804e-07
5.514666358e-06
7.481503085e-06
4.961845223e-06
4.460456319e-06
3.605481772e-06
2.920885605e-06
2.383086126e-06
3.324069339e-06
1.975100005e-06
1.689645804e-06
2.383659021e-06
2.280076018e-06
1.534682658e-06
1.532428858e-06
1.642253982e-06
1.593494132e-06
3.147020973e-06
1.151926753e-06
2.575992798e-06
1.389406666e-06
9.39527227e-07
2.427657279e-06
7.877848194e-07
3.93368541e-06
6.8527719e-07
3.746280641e-07
1.443838839e-06
3.32907654e-07
4.073065694e-07
4.762190694e-07
7.428490204e-07
5.736376386e-07
4.398638199e-07
1.402675559e-07
1.034928967e-07
7.674104086e-08
5.209551793e-08
5.171162751e-08
4.808632201e-08
3.688134184e-08
3.225950536e-07
1.879747148e-07
6.11722823e-08
3.734310831e-08
2.191127789e-08
8.679956449e-09
3.893297047e-08
1.624206864e-07
2.870935287e-07
2.968312741e-07
2.004849066e-07
5.046935667e-08
1.103248841e-07
1.483191264e-07
6.785435675e-08
2.111162513e-07
9.848477487e-08
3.249411286e-07
3.819167892e-07
1.70808508e-07
2.780057998e-07
5.798974846e-08
2.172108355e-07
1.608835901e-07
6.615836434e-07
1.206905937e-06
5.104431497e-07
9.474078894e-07
7.439736394e-07
2.292326109e-07
1.740353744e-07
3.653218404e-07
1.313995226e-07
7.308267098e-08
1.713397904e-07
5.373963957e-08
1.290980076e-07
9.616610561e-08
2.090164024e-08
1.543076492e-08
3.882363089e-08
1.183017148e-08
1.759698269e-07
1.776536051e-07
2.834582635e-08
2.549094723e-08
2.599988349e-07
1.210827194e-07
9.036929997e-08
2.79076184e-06
1.952988706e-06
1.747775424e-06
1.093619311e-06
6.954347877e-07
4.620721238e-07
4.590682419e-07
2.878903351e-07
2.948904746e-07
1.716033673e-07
1.001649178e-07
5.180837358e-08
1.022671222e-07
3.152006896e-08
3.870514589e-07
3.01581038e-07
2.334524177e-07
1.794931325e-07
7.825897868e-08
5.848190095e-08
4.339228119e-08
6.14579112e-09
4.5340486e-09
3.679921166e-09
3.53396695e-09
2.663752233e-07
2.155340743e-07
1.622964717e-07
1.695588061e-07
9.585191512e-08
1.027636658e-07
5.449597621e-08
6.024608954e-08
4.543940824e-08
2.956272703e-08
2.490071146e-08
1.514680851e-08
7.268686523e-09
8.952119235e-09
6.112206556e-09
3.300423846e-09
4.080004569e-09
2.673202953e-09
1.524922763e-09
1.755060902e-09
5.798221074e-09
9.175148819e-10
9.448993884e-09
1.340354099e-09
2.156871557e-08
6.351686116e-08
1.14125749e-09
2.237815066e-08
5.234285829e-09
8.564766842e-08
2.851184704e-08
3.079457427e-08
9.294653339e-09
6.920750327e-09
2.058873756e-08
2.765750013e-08
9.128573194e-09
1.283650766e-08
4.313545623e-08
2.310072857e-09
2.284093884e-08
3.168420895e-08
1.516106458e-08
7.695515742e-09
2.29272587e-07
3.224458452e-07
1.786416243e-07
2.481571674e-07
1.386681197e-07
1.071544448e-07
8.23366526e-08
3.872656545e-08
1.094786399e-07
6.286822298e-08
4.763139765e-08
3.57754568e-08
4.503292544e-08
2.659672595e-08
1.1932643e-08
1.954311924e-08
1.417539058e-08
6.076166949e-09
1.68868085e-08
1.013633515e-08
1.197788741e-08
7.146878799e-09
4.977700321e-09
3.454965884e-09
4.467400159e-09
2.440381626e-09
1.800146837e-09
2.941774946e-09
8.318178424e-09
1.082702271e-08
2.591425997e-09
3.214229778e-08
1.78061282e-08
8.544098688e-07
4.171842899e-07
3.004983307e-07
1.447078946e-07
8.216760027e-08
9.846871577e-08
2.365261658e-08
2.862205015e-08
6.050542212e-09
9.92564505e-09
3.66145984e-09
1.343861656e-07
1.027938343e-07
8.454511135e-08
8.196771191e-08
6.502601306e-08
5.183333796e-08
5.129772205e-08
4.020055398e-08
3.07277313e-08
3.127142149e-08
2.412224965e-08
1.740864678e-08
1.842246067e-08
1.390363604e-08
9.253808913e-09
1.034439121e-08
7.567487033e-09
4.482151977e-09
5.417817111e-09
3.774724575e-09
1.887704007e-09
2.535812075e-09
1.622998183e-09
7.214086865e-10
9.742504298e-10
5.391187373e-10
2.742299841e-10
6.555197325e-08
3.748621739e-08
4.16156944e-08
3.008130336e-08
2.403124555e-08
2.586446094e-08
1.910311283e-08
1.509898102e-08
1.564785032e-08
1.186103501e-08
9.250717382e-09
9.125958665e-09
7.154064872e-09
5.478593415e-09
5.056888191e-09
4.147934078e-09
3.09728054e-09
2.591042894e-09
2.272886843e-09
1.632386915e-09
1.160749063e-09
1.139626458e-09
7.65872683e-10
4.015822107e-10
4.88355877e-10
2.898689177e-10
8.358505102e-11
1.539977049e-10
1.135775988e-10
4.047876373e-09
5.092475958e-08
7.132519903e-08
3.27187917e-08
5.711214202e-08
4.557066594e-08
2.061935344e-08
3.620259979e-08
2.861609982e-08
1.267446315e-08
2.248825468e-08
1.75494229e-08
7.532881021e-09
1.358691616e-08
1.041950978e-08
4.276511181e-09
7.904396844e-09
5.914992994e-09
2.266723082e-09
4.35360823e-09
3.137792532e-09
1.073461068e-09
2.200489344e-09
1.486288074e-09
4.131985032e-10
9.527196761e-10
5.683427484e-10
1.664871145e-10
2.966607612e-10
1.725382332e-10
8.989369554e-09
1.873061509e-09
9.357408096e-08
1.138837637e-07
1.794768016e-07
5.934446359e-08
9.038376392e-08
7.15377244e-08
1.096961533e-07
3.708270016e-08
5.642793072e-08
4.431820296e-08
6.595468934e-08
2.267419433e-08
3.462924558e-08
2.688479086e-08
1.344477212e-08
2.071855641e-08
1.582055192e-08
2.199877619e-08
7.625909907e-09
1.194508712e-08
8.894433102e-09
4.035175472e-09
6.505456734e-09
4.652800894e-09
1.888959339e-09
3.230693607e-09
2.160930906e-09
2.879886501e-09
6.845591172e-10
1.393131639e-09
9.054214783e-10
1.089569869e-09
1.498611517e-09
)
;

boundaryField
{
    walls
    {
        type            zeroGradient;
    }
    wallFilmFace_top
    {
        type            zeroGradient;
    }
    region0_to_wallFilmRegion_wallFilmFace
    {
        type            zeroGradient;
    }
    mirrorFace_top
    {
        type            zeroGradient;
    }
    region0_to_wallFilmRegion_mirrorFace
    {
        type            zeroGradient;
    }
    procBoundary3to2
    {
        type            processor;
        value           nonuniform List<scalar> 
64
(
0.0008940679152
0.0003525172556
1.788099964e-05
1.219801327e-05
9.167964806e-06
1.070038059e-06
6.915277136e-07
3.38022597e-07
2.284326463e-07
0.01466931402
0.0063898555
0.005214731868
0.005214731868
0.03256533999
0.01536753278
0.004383921341
0.002460699666
0.00543268928
0.01240925604
0.02636924188
0.07046270935
0.2197687255
0.4614107722
0.4614107722
0.7828835964
0.8024523353
0.8024523353
1.163180716
1.466461097
1.466461097
3.222749601e-06
1.941370707e-06
1.941370707e-06
1.592430344e-06
1.356969448e-06
0.322919624
1.861547583e-05
0.05062092336
1.564908319
3.211392335e-06
3.515783481e-06
2.724323957e-07
1.68151554e-07
8.175084357e-08
6.3190276e-08
1.172334685e-07
0.05062092336
3.211392335e-06
0.3586876089
0.0003195061183
3.172869747e-05
1.485551321e-05
1.219801327e-05
6.806304453e-06
9.561326513e-07
2.477246576e-06
1.099651184e-06
4.938690598e-07
5.376395577e-07
2.931607902e-07
1.28368638e-07
4.6535627e-08
8.884366264e-08
1.433398997e-07
)
;
    }
}


// ************************************************************************* //
