/*--------------------------------*- C++ -*----------------------------------*\
  =========                 |
  \\      /  F ield         | OpenFOAM: The Open Source CFD Toolbox
   \\    /   O peration     | Website:  https://openfoam.org
    \\  /    A nd           | Version:  8
     \\/     M anipulation  |
\*---------------------------------------------------------------------------*/
FoamFile
{
    version     2.0;
    format      ascii;
    class       volScalarField;
    location    "0.5/wallFilmRegion";
    object      delta;
}
// * * * * * * * * * * * * * * * * * * * * * * * * * * * * * * * * * * * * * //

dimensions      [0 1 0 0 0 0 0];

internalField   nonuniform List<scalar> 
1342
(
3.12194303e-08
3.311264779e-07
8.600032324e-08
2.832877305e-08
1.676020927e-06
0.0007598789749
5.997013202e-05
1.318479198e-07
9.29547873e-08
6.397789553e-08
4.320495389e-08
2.830355445e-08
1.732393683e-08
2.714834878e-08
1.547132991e-07
2.517430848e-05
0.000189583152
0.0001966157296
3.212093579e-09
2.088777485e-09
1.358304042e-09
1.327087686e-09
2.394033142e-09
4.021319564e-09
6.195484101e-09
2.354027624e-08
1.600416279e-08
1.079047482e-08
7.25167823e-09
4.916637874e-09
3.503701814e-09
5.65645558e-09
1.530623393e-08
3.01397204e-08
9.41501201e-08
8.337003185e-08
5.735560618e-10
5.554650699e-10
7.881746323e-10
5.719236897e-10
6.250549735e-10
1.077021415e-09
1.347349837e-09
6.01636728e-09
3.995949955e-09
2.735843763e-09
2.156376631e-09
2.797225647e-09
2.90590982e-09
2.265385254e-09
3.326445337e-09
6.296429202e-10
3.679819167e-10
2.090183123e-10
1.139315011e-10
5.706741721e-11
4.964135088e-11
6.63575376e-11
8.653635308e-11
9.384092504e-11
2.813154881e-10
3.778053228e-10
3.003148882e-10
1.161984692e-10
4.132894375e-10
2.439169272e-10
1.404295304e-10
7.968315768e-11
4.654889499e-11
2.965729903e-11
1.897917858e-11
1.242984996e-11
9.930681764e-12
4.899050613e-11
8.738991142e-11
4.33387711e-11
2.055028203e-10
1.233523607e-10
7.156128493e-11
3.977276973e-11
2.100651416e-11
1.041765185e-11
4.841051001e-12
2.169561434e-12
6.846233647e-13
4.429169861e-12
6.183320549e-12
5.273250425e-12
8.381537405e-12
1.392076823e-10
8.447238157e-11
5.024231168e-11
2.905641898e-11
1.615563299e-11
8.508262858e-12
4.172019416e-12
1.950600669e-12
1.239945106e-12
3.290780617e-09
1.298335931e-07
5.530219003e-09
5.983715154e-09
3.042181308e-09
3.238074367e-09
5.257828593e-07
4.416272716e-08
2.024826421e-09
1.597203569e-09
1.160949359e-07
1.864346848e-09
2.684417138e-09
1.554672686e-05
4.990767324e-06
6.238692137e-06
1.623064493e-05
6.073513502e-06
5.41437346e-06
1.597183908e-05
4.818424113e-06
4.423305417e-06
1.337724725e-05
5.028715455e-06
5.765545368e-06
1.703149538e-05
6.353762081e-06
7.503749133e-06
2.315381433e-05
8.775098704e-06
1.00060663e-05
2.197749103e-05
1.136348315e-05
1.289363992e-05
1.76123529e-05
1.426910826e-05
1.469912189e-05
6.946494527e-06
1.312082405e-05
5.271662422e-06
2.203396801e-05
3.712228998e-06
5.334526057e-06
1.502617369e-06
3.612963579e-06
1.09273784e-06
1.002444749e-06
4.1215659e-07
7.471530625e-07
1.038840674e-06
2.53909285e-06
1.432176769e-06
1.269048327e-06
3.059898674e-09
1.419799802e-10
4.050527709e-06
5.445052786e-09
5.154857892e-08
6.230713218e-06
1.0139103e-07
1.352050115e-07
6.506146336e-06
1.443160668e-07
9.550510579e-08
7.528520253e-06
1.241737299e-07
1.839931207e-07
4.149100554e-06
8.934874088e-08
5.605046573e-07
1.650306015e-06
2.841783615e-07
5.195544124e-08
1.002194462e-06
9.06121254e-07
1.18980456e-07
7.690004862e-06
1.033605878e-06
3.229811413e-06
0.0001093951822
1.058338611e-05
4.167792e-05
1.452634894e-06
5.693876019e-06
2.568235353e-06
1.02363297e-06
1.540011049e-06
1.620156578e-06
4.640734594e-06
2.780408491e-06
5.509063228e-06
1.080718255e-07
9.08265106e-06
6.678223142e-06
2.154070668e-19
2.657601001e-07
6.617337711e-13
1.065811932e-22
9.511681393e-24
3.481850896e-33
3.374283608e-25
2.401767972e-34
5.970194472e-39
1.229699859e-14
1.799887162e-44
2.010739084e-44
6.223109748e-13
1.95523453e-44
1.078276612e-24
7.821223232e-22
2.091245615e-33
1.618384523e-33
2.044726655e-09
1.083855683e-21
2.631519044e-22
1.370447798e-06
7.22797803e-08
2.879683639e-07
1.876199994e-05
2.110915366e-06
8.216427668e-06
4.74152926e-06
1.405128457e-05
7.283173281e-06
2.571355148e-06
4.44576094e-06
3.850359745e-06
6.848442374e-06
4.991395119e-06
9.320398786e-06
1.639955825e-05
1.920077806e-05
2.82745443e-05
6.778767038e-08
1.518950584e-05
1.101627754e-06
4.006635745e-26
6.456869481e-11
1.08050504e-21
8.377026426e-48
1.258460186e-32
1.793090747e-43
7.596157188e-56
3.158190348e-54
6.918575462e-65
4.731361817e-36
1.394761889e-61
3.142931358e-48
9.862501333e-46
7.607739507e-57
4.242663825e-57
2.110245904e-33
1.206672422e-43
6.269465645e-44
2.289896467e-08
1.0855758e-14
2.285148746e-11
3.707220205e-06
1.363105152e-07
2.048621978e-06
0.0005071388869
1.125457972e-05
0.0004008052827
9.557908797e-06
2.028543232e-05
1.344425595e-05
5.647908009e-06
9.314755168e-06
8.9243035e-06
1.454899219e-05
1.310234373e-05
2.602876292e-05
4.333184448e-05
4.901747221e-05
5.509049501e-05
1.45808486e-06
1.616970388e-05
4.13454073e-07
2.340370735e-21
9.840652671e-13
6.237781339e-24
2.807768313e-43
5.033491699e-35
5.162792939e-46
9.989056123e-64
8.431629038e-57
1.117625178e-53
6.404868935e-50
1.016508134e-41
6.838750538e-40
1.422110531e-47
3.27307692e-39
3.726135068e-37
8.066806057e-36
6.426467301e-24
1.392493595e-26
1.879515067e-14
2.064242609e-10
2.163533041e-11
4.184345059e-07
1.06736526e-11
2.324268409e-12
0.0003308305162
2.340403072e-06
0.0004242383751
2.468068745e-05
0.0001025414728
3.137832015e-05
1.61418532e-05
2.511894895e-05
3.102744979e-05
4.644865932e-05
4.581208969e-05
6.019686113e-05
4.158906365e-05
4.667504076e-05
8.149769283e-06
2.975920608e-09
2.911419282e-08
2.710610475e-17
1.877703166e-30
8.9861235e-29
4.647882544e-40
1.778178068e-52
1.547387478e-47
1.464205556e-47
2.690857872e-43
2.276438964e-36
9.67465909e-33
4.18710837e-11
2.447105088e-21
1.103929599e-19
8.502381831e-06
4.06471507e-08
5.70604754e-06
3.698341787e-07
1.553498406e-05
1.195820314e-05
3.947635813e-07
1.861404107e-05
7.053630043e-05
1.164773646e-06
0.0002259425345
0.0003855247187
0.0005628545006
0.0004479166967
4.401043468e-05
0.0001105244495
5.934928227e-05
4.777707114e-05
5.567443078e-05
3.973290157e-05
3.07710803e-05
1.473024541e-05
2.521268278e-06
3.875100741e-08
7.766494117e-07
2.071161019e-06
3.642060404e-10
4.759879689e-06
1.706831648e-06
1.670198874e-13
6.11288288e-07
5.078476441e-07
6.728514608e-12
5.182894343e-07
1.009458728e-06
5.802620456e-21
1.139443772e-06
1.118956194e-06
9.139832035e-08
2.527434177e-06
3.495555849e-06
1.285575012e-05
1.040390839e-05
1.83223985e-05
1.882210951e-05
2.190430396e-05
1.927906326e-05
5.729370831e-05
1.063185768e-05
7.86128436e-05
0.0008965222779
0.0003692446226
0.0008592442879
0.0002882716744
9.258710549e-06
7.28511937e-05
0.0004311865693
7.860909464e-05
1.338669508e-05
3.975474939e-05
5.811861068e-05
1.948913181e-05
6.723944788e-05
5.876774901e-05
2.840319879e-05
4.550475268e-05
3.591349181e-05
1.400817006e-05
3.014352704e-05
2.643116631e-05
1.119899918e-05
2.34030511e-05
2.051723704e-05
1.059673948e-05
1.808653781e-05
1.701667684e-05
1.235583068e-05
1.976470987e-05
2.457484499e-05
1.121227816e-05
0.0001291748135
0.0001890820931
1.806622028e-05
0.0001535997333
0.0001970226605
9.200421067e-05
0.0003217651772
0.000556866918
1.91427542e-09
1.490118617e-09
1.178943642e-09
1.16198927e-09
9.112642004e-10
7.547517669e-10
7.187778757e-10
5.698543754e-10
4.96984446e-10
4.527401536e-10
3.583054205e-10
3.080810687e-10
2.777096497e-10
2.009574532e-10
6.118793469e-11
7.552296215e-11
5.052685077e-11
5.655750283e-11
4.802634098e-11
5.170329227e-11
8.488879359e-11
6.268447913e-11
8.77293551e-11
3.662989845e-10
1.606590366e-10
3.982336011e-10
1.419842811e-09
1.373079186e-09
1.039060865e-09
1.076518869e-09
2.296453924e-09
1.451589569e-09
1.219302572e-09
7.386669553e-10
4.498749454e-10
2.702259794e-10
1.394297555e-10
4.428513849e-11
5.0414228e-11
9.435275713e-11
1.042344013e-09
8.081883673e-10
2.169494686e-10
1.595270066e-10
1.083325909e-10
5.762846864e-11
9.615797465e-11
4.559574282e-10
1.6128839e-10
2.177365704e-10
5.208529489e-10
1.981188741e-10
4.845006971e-10
2.105712722e-10
3.298060754e-10
8.164335425e-10
4.828973999e-10
2.784203449e-10
3.310369175e-10
2.497926928e-10
1.553769898e-10
1.869072062e-10
8.17581516e-11
4.811640273e-11
5.838253143e-11
5.05686883e-11
5.686697128e-11
4.956385941e-11
5.087340263e-11
7.723085589e-11
7.174563459e-11
6.770490697e-11
2.123867416e-11
1.581034596e-10
6.095855761e-11
8.108114081e-11
1.240165021e-10
5.327858011e-10
1.355269302e-10
1.058396398e-10
1.027693994e-10
3.158704364e-11
2.303860195e-11
2.37918685e-11
1.663856456e-11
1.191270401e-11
1.51609944e-11
8.485511494e-12
1.066629376e-11
2.670294018e-12
1.59683649e-11
1.312397474e-10
7.83040262e-11
1.270426669e-11
1.187067677e-12
8.149224868e-13
0.0002541054103
9.067730811e-09
0.0002464992229
6.040017294e-09
0.0002260082487
4.387703037e-09
0.0002323610459
3.444102024e-09
0.0002855307965
5.293412548e-10
0.0002604076858
2.37731272e-10
0.0002166895597
2.287167323e-10
0.0001962777983
3.340547313e-10
1.234138996e-08
0.0002451809107
1.615380596e-09
1.510238161e-05
1.593362886e-05
1.630248796e-05
1.498492548e-05
1.317500673e-05
2.113650716e-05
2.316502467e-05
2.030740297e-05
1.017394572e-05
1.497303273e-05
6.48429105e-05
7.141568609e-07
0.0001854126585
2.657165747e-07
2.350678477e-06
8.874797334e-07
1.020616031e-06
1.001376965e-06
2.370986486e-06
5.25621875e-06
7.004121117e-06
6.476553928e-06
5.281492815e-06
3.986968788e-06
1.146220065e-06
3.273396555e-06
2.590147146e-05
1.214741151e-06
6.974635561e-07
0.000450412854
4.621980067e-06
7.627240359e-07
2.334651988e-06
4.131436212e-06
5.034789239e-14
1.256910196e-20
4.699980953e-15
2.536449483e-25
3.998525956e-25
1.43214276e-21
3.890740063e-08
3.420687603e-07
4.733197262e-06
0.0001833374179
9.366402239e-06
2.829763559e-06
3.624363849e-06
1.313400351e-05
5.833018472e-06
3.409677945e-15
5.336807171e-37
7.334447322e-56
6.176636473e-56
7.677559917e-45
7.464042726e-33
1.261977319e-08
6.158194139e-07
2.72451969e-05
1.570382587e-05
6.340412412e-06
7.497881988e-06
3.052824708e-05
2.101198563e-05
1.341694251e-10
2.256414069e-32
4.456571218e-54
9.130965092e-52
3.177459876e-49
6.053150272e-34
4.879864454e-17
5.088964714e-09
4.523425898e-06
5.653021018e-05
1.538262121e-05
2.5897254e-05
6.534365508e-05
3.994067929e-06
2.851534065e-19
1.605047434e-41
4.545924076e-47
1.961694555e-31
8.903944733e-07
3.56835662e-06
2.109227909e-07
6.923245969e-07
2.697279285e-06
0.0001325891778
4.08598969e-05
4.910986126e-05
6.339245133e-06
1.779439038e-08
1.766872415e-12
4.412792895e-24
2.27515067e-11
6.8038862e-10
3.219756222e-06
1.957048519e-05
1.737121172e-05
0.0002496803406
0.001380134477
0.001046637689
0.0001009627002
3.847570193e-05
1.218157551e-05
2.731777928e-05
2.132920584e-05
1.153632056e-05
9.273250409e-06
1.318477953e-05
2.458725462e-05
1.056259374e-05
3.857781172e-05
0.0001919317831
0.000685906304
0.0002531873739
6.719404607e-05
4.992639955e-05
4.128568941e-05
3.73501164e-05
3.318579583e-05
3.165781388e-05
7.639915087e-05
0.0005132629351
0.0009338784783
0.0001010160934
4.030183258e-05
0.001474718242
2.467253856e-09
1.495482196e-09
9.385073935e-10
6.116841197e-10
3.992237013e-10
9.4831797e-11
5.503301397e-11
6.508788123e-11
1.428309964e-10
1.011491842e-09
2.421921821e-09
1.236056777e-09
1.855735288e-09
1.772864759e-09
2.206047658e-09
1.289035849e-09
1.002645773e-08
1.170507724e-08
9.48126259e-10
5.763114587e-10
4.840769107e-10
3.503053178e-10
2.862977079e-10
2.025133509e-10
6.355523931e-11
4.443275104e-11
4.399880056e-11
6.449770997e-11
6.704607402e-11
1.649681564e-10
1.200287101e-09
1.131959548e-09
1.123799497e-09
1.39988044e-09
6.934501426e-11
1.068098579e-10
1.973706707e-10
2.232980928e-10
1.503242613e-10
3.989189228e-10
2.175601245e-09
1.519711939e-09
1.359833878e-09
8.552954651e-10
5.791150497e-10
5.535667502e-10
3.680081738e-10
2.216442024e-10
2.232936874e-10
1.270857797e-10
6.99793258e-11
8.552239149e-11
1.131753604e-11
3.115611111e-11
6.994531187e-11
1.16385581e-10
6.900272377e-11
3.993687608e-11
3.875363503e-10
1.879156363e-10
6.045913275e-11
3.245484665e-11
3.875817647e-11
8.381973374e-12
9.95322878e-12
3.49529061e-12
1.054851159e-10
6.554418554e-11
3.955679796e-11
3.353374357e-11
2.297008589e-11
1.785895955e-11
1.264175826e-11
6.446317484e-12
2.928504062e-12
1.130397664e-12
5.176863263e-11
3.254246748e-11
1.996843747e-11
1.187958432e-11
6.767462502e-12
3.623156236e-12
1.752427281e-12
6.982354702e-13
1.861485896e-13
4.04425635e-11
2.575185684e-11
1.604339106e-11
9.707826744e-12
5.651066106e-12
3.110458647e-12
1.57032097e-12
6.744300516e-13
2.178705574e-13
7.380127536e-11
4.649498534e-11
2.877263184e-11
1.734719817e-11
1.008473565e-11
5.546446755e-12
2.78638492e-12
1.166430027e-12
3.248612182e-13
0.0002540965343
1.140643643e-08
5.393301442e-05
2.48932785e-09
0.0002516881768
7.328212887e-09
5.674157105e-05
5.881258885e-05
1.951532077e-09
1.547474316e-09
0.0002380020126
5.091059091e-09
5.977205933e-05
5.920812648e-05
1.242643032e-09
1.011918199e-09
0.000211261954
3.859157761e-09
5.55333976e-05
5.285268931e-05
8.340791232e-10
6.927944537e-10
0.0002690925579
3.201767566e-09
6.147334595e-05
7.409020417e-05
5.731330345e-10
4.673781349e-10
0.0002787516984
2.991953084e-10
8.466318042e-05
8.876853307e-05
1.217623164e-10
7.602233144e-11
0.0002385433874
2.212064944e-10
8.703905615e-05
8.159747514e-05
6.504620018e-11
6.400415599e-11
0.0001977435711
2.579194315e-10
7.456375747e-05
6.61501261e-05
7.021595465e-11
8.571344656e-11
0.0002169269656
6.016694969e-10
5.332925441e-05
4.754115781e-05
1.278018004e-10
2.896894062e-10
0.0001121237284
0.0001274909675
8.472779269e-10
0.0001566248411
9.231219004e-05
1.327847106e-05
2.174456473e-05
7.920336272e-05
0.0002337966004
3.582901353e-09
0.0003597465583
3.554639572e-09
3.634986037e-09
0.000792994183
6.81118885e-05
1.720760253e-07
0.0006287584196
3.205484488e-09
2.548760368e-09
0.001144272127
0.0003108429578
0.001970102833
0.002987580657
0.002024930281
5.852189397e-09
1.40224519e-08
2.699270369e-08
0.002223359167
0.001261245027
3.390073315e-08
0.0003631971481
0.0009157711286
2.404981695e-05
0.001114165568
0.0001857598888
0.000816038506
0.0009776121914
4.150361528e-08
4.297539203e-08
3.528651771e-08
0.0005018956543
0.0001813133548
1.874464558e-07
4.91067313e-08
9.801092129e-05
0.0001413398299
0.0001183216648
1.112796965e-07
3.024494141e-08
2.500575017e-08
5.74326599e-05
0.0001051766525
9.714541291e-05
7.72766631e-08
2.05780538e-08
1.69283169e-08
4.461146071e-05
9.040512039e-05
8.353237938e-05
5.272586369e-08
1.391293794e-08
1.141995496e-08
3.916435661e-05
7.557993832e-05
6.636302177e-05
3.514341121e-08
9.363289312e-09
7.674130092e-09
3.539957166e-05
5.631384433e-05
4.5897255e-05
2.244253168e-08
6.298818591e-09
5.184682183e-09
3.113988472e-05
3.497526961e-05
2.244671743e-05
1.422175767e-08
4.281806573e-09
3.918830817e-09
3.488843094e-05
2.56813432e-05
4.05393621e-05
6.120959521e-08
6.899197356e-09
1.350771413e-08
0.0003130692274
6.8377613e-05
0.0002164705633
4.896685322e-07
2.476516629e-08
4.369320499e-08
0.0001683486592
0.003779349267
0.007885978395
0.0001255202555
1.599803925e-07
4.604229803e-07
0.0007076217023
0.005769242599
0.003630037992
0.0002143435099
6.787869668e-07
8.046503625e-07
7.534087678e-05
0.001800446071
0.001435486506
3.179435828e-07
6.070222789e-07
4.177212543e-08
5.805439512e-08
2.533125871e-09
9.743742299e-10
1.992933969e-09
1.237425408e-09
6.245307152e-10
1.726168424e-09
1.355450706e-09
8.921897644e-10
1.160630822e-09
1.091224143e-09
8.843530003e-10
7.335010242e-10
1.840512915e-09
9.157460579e-10
1.230592548e-09
2.809382651e-09
3.217224049e-09
1.596537825e-09
1.848075825e-09
2.034782673e-09
3.561492206e-09
1.998271112e-09
5.587118225e-09
2.840324295e-09
2.455153582e-09
2.286122049e-09
3.99500471e-08
1.947758272e-08
1.314735613e-08
9.895198151e-09
8.846696993e-09
8.104697851e-09
6.631832648e-09
5.954708773e-09
5.431231988e-09
4.467399961e-09
4.104640728e-09
3.714180603e-09
3.15713976e-09
3.379376287e-09
2.814049557e-09
2.889077165e-09
1.012875432e-08
4.290560127e-09
6.304924207e-09
2.1626435e-08
7.089610214e-09
7.249552191e-09
5.420317129e-08
7.986737189e-09
1.153522173e-08
1.156236452e-07
1.852634341e-08
2.377350747e-08
4.962726148e-08
2.303362904e-08
6.112224684e-09
3.579500971e-09
3.744538467e-09
6.26039209e-10
3.732583478e-10
4.262983447e-11
5.167481341e-11
4.781006496e-10
1.762368164e-10
2.53063153e-10
3.691198421e-10
4.751031975e-10
2.449879064e-10
4.906584826e-10
8.78207662e-10
7.895198923e-10
5.144660631e-10
5.313685038e-10
3.724381632e-10
4.8871446e-10
3.245552702e-10
2.058779335e-10
8.102771608e-10
5.300895586e-10
4.26138992e-10
2.765505674e-10
1.209311422e-09
7.304412174e-10
7.051278536e-10
6.460631268e-10
6.694908395e-10
3.491113122e-10
5.177088162e-10
1.204541745e-09
1.20604467e-09
5.72289745e-10
5.605912881e-10
5.46059744e-09
7.384549135e-09
4.898266158e-09
4.417262557e-09
3.570533174e-09
2.892779635e-09
2.359811658e-09
3.281533268e-09
1.955634965e-09
1.673239385e-09
2.352908937e-09
2.250236059e-09
1.519604214e-09
1.517380825e-09
1.62667963e-09
1.578013514e-09
3.105771986e-09
1.140657594e-09
2.5420572e-09
1.375589338e-09
9.301609552e-10
2.382180306e-09
7.759519402e-10
3.843242827e-09
6.702144072e-10
3.66815505e-10
1.410294551e-09
3.252390461e-10
3.970714146e-10
4.653447665e-10
7.34793754e-10
5.673812208e-10
4.350395458e-10
1.387073884e-10
1.023404136e-10
7.588516401e-11
5.149866113e-11
5.084575794e-11
4.705197935e-11
3.602857366e-11
3.18504255e-10
1.855911822e-10
6.039405728e-11
3.687562542e-11
2.139994634e-11
8.484951407e-12
3.803642509e-11
1.586215443e-10
2.806146809e-10
2.893847554e-10
1.958179106e-10
4.930256811e-11
1.078215041e-10
1.449540453e-10
6.628555061e-11
2.064425115e-10
9.627074453e-11
3.174026795e-10
3.729118853e-10
1.671169697e-10
2.715366088e-10
5.665197006e-11
2.121274812e-10
1.572728312e-10
6.53355451e-10
1.193581945e-09
5.041340276e-10
9.369536582e-10
7.357775172e-10
2.263875234e-10
1.718287815e-10
3.613410186e-10
1.297637347e-10
7.217061009e-11
1.694324665e-10
5.305960893e-11
1.276404649e-10
9.510967009e-11
2.063053737e-11
1.514767249e-11
3.799059371e-11
1.156287603e-11
1.720783664e-10
1.736467004e-10
2.766772969e-11
2.490374116e-11
2.543109942e-10
1.182857477e-10
8.831451219e-11
2.746520564e-09
1.931562379e-09
1.720028759e-09
1.076270076e-09
6.845909355e-10
4.570166422e-10
4.519363306e-10
2.847011038e-10
2.903918387e-10
1.689844816e-10
9.811077333e-11
5.093263398e-11
9.970755361e-11
3.078260175e-11
3.826873305e-10
2.982061877e-10
2.30834052e-10
1.774947277e-10
7.738291741e-11
5.781978565e-11
4.291261475e-11
6.042934854e-12
4.437247189e-12
3.593786105e-12
3.450749107e-12
2.62331772e-10
2.13496167e-10
1.598330143e-10
1.679770836e-10
9.440180616e-11
1.017778217e-10
5.367001485e-11
5.968132883e-11
4.50064839e-11
2.911596455e-11
2.46645783e-11
1.491446596e-11
7.156417096e-12
8.865960969e-12
6.053623638e-12
3.230829765e-12
4.038581275e-12
2.632463379e-12
1.485045905e-12
1.720476262e-12
5.670412235e-12
8.974271288e-13
9.241587214e-12
1.306955155e-12
2.107365647e-11
6.202837861e-11
1.117743923e-12
2.188472693e-11
5.11944655e-12
8.359984405e-11
2.784424455e-11
3.007486075e-11
9.050419406e-12
6.740542911e-12
2.014401403e-11
2.705946992e-11
8.890793125e-12
1.249909853e-11
4.2125978e-11
2.262321025e-12
2.23538605e-11
3.09858423e-11
1.482817704e-11
7.502316673e-12
2.257184065e-10
3.18854408e-10
1.75866645e-10
2.453966145e-10
1.365097657e-10
1.054722353e-10
8.10421323e-11
3.836068835e-11
1.082549997e-10
6.188287397e-11
4.6883499e-11
3.521582395e-11
4.454122484e-11
2.61772151e-11
1.181761792e-11
1.923587366e-11
1.395270914e-11
6.01940992e-12
1.669959105e-11
9.977897846e-12
1.184618388e-11
7.036634111e-12
4.898532425e-12
3.382085353e-12
4.37205519e-12
2.378003374e-12
1.753103312e-12
2.878949641e-12
8.135494288e-12
1.058385446e-11
2.526855517e-12
3.14015982e-11
1.739423068e-11
8.436889701e-10
4.12464641e-10
2.967769979e-10
1.430957996e-10
8.123310012e-11
9.724111247e-11
2.339316907e-11
2.826388905e-11
5.949664345e-12
9.708612912e-12
3.57580738e-12
1.325982824e-10
1.01631309e-10
8.341747373e-11
8.103424158e-11
6.42931001e-11
5.113066187e-11
5.073169135e-11
3.975344434e-11
3.031435207e-11
3.092033067e-11
2.385344759e-11
1.717839031e-11
1.821989605e-11
1.374969184e-11
9.129491103e-12
1.022910455e-11
7.482754701e-12
4.42407145e-12
5.357939838e-12
3.733495566e-12
1.852204476e-12
2.506446749e-12
1.596060662e-12
7.039531406e-13
9.534676178e-13
5.276424553e-13
2.680361545e-13
6.482107713e-11
3.707569965e-11
4.11509805e-11
2.975094442e-11
2.376650471e-11
2.557316876e-11
1.888963369e-11
1.492914293e-11
1.547402993e-11
1.173038055e-11
9.149433943e-12
9.021944947e-12
7.074229227e-12
5.416635955e-12
5.000361286e-12
4.101701995e-12
3.062461624e-12
2.562166485e-12
2.247085777e-12
1.614124713e-12
1.141238307e-12
1.126277952e-12
7.529107044e-13
3.928535433e-13
4.777453876e-13
2.834950416e-13
8.155304082e-14
1.506517203e-13
1.108255604e-13
3.967156917e-12
5.03511781e-11
7.053651042e-11
3.235230965e-11
5.648225607e-11
4.506726625e-11
2.038712818e-11
3.579955325e-11
2.829979773e-11
1.253297216e-11
2.224133583e-11
1.735790248e-11
7.447401295e-12
1.343745321e-11
1.030530022e-11
4.227754029e-12
7.819050473e-12
5.850726863e-12
2.241358609e-12
4.305684491e-12
3.102791926e-12
1.055306486e-12
2.174699452e-12
1.461317383e-12
4.041261984e-13
9.321112632e-13
5.559417363e-13
1.624636597e-13
2.903330164e-13
1.683516495e-13
8.795637918e-12
1.830828742e-12
9.25332906e-11
1.123596501e-10
1.777753919e-10
5.868708561e-11
8.918231426e-11
7.059377276e-11
1.08663307e-10
3.667666015e-11
5.568356659e-11
4.373470847e-11
6.533335602e-11
2.242294531e-11
3.417052902e-11
2.652487565e-11
1.329788969e-11
2.044519767e-11
1.561122763e-11
2.178870324e-11
7.543238812e-12
1.178778861e-11
8.776072303e-12
3.990699417e-12
6.41884063e-12
4.591971165e-12
1.857580379e-12
3.186272469e-12
2.120204095e-12
2.835968486e-12
6.700012112e-13
1.359967301e-12
8.836537825e-13
1.064961996e-12
1.466240885e-12
)
;

boundaryField
{
    walls
    {
        type            zeroGradient;
    }
    wallFilmFace_top
    {
        type            zeroGradient;
    }
    region0_to_wallFilmRegion_wallFilmFace
    {
        type            zeroGradient;
    }
    mirrorFace_top
    {
        type            zeroGradient;
    }
    region0_to_wallFilmRegion_mirrorFace
    {
        type            zeroGradient;
    }
    procBoundary3to2
    {
        type            processor;
        value           nonuniform List<scalar> 
64
(
6.997470447e-07
3.496505811e-07
1.768883628e-08
1.206517679e-08
9.049164508e-09
1.053462126e-09
6.826837323e-10
3.328810818e-10
2.262796897e-10
1.466931581e-05
6.389855709e-06
5.2147323e-06
5.2147323e-06
3.25653375e-05
1.536753285e-05
4.383921336e-06
2.460699471e-06
5.432688734e-06
1.24092528e-05
2.636923817e-05
7.046270306e-05
0.0002197687149
0.0004614107947
0.0004614107947
0.0007828835013
0.0008024523129
0.0008024523129
0.001163180673
0.001466460914
0.001466460914
3.19698249e-09
1.920427322e-09
1.920427322e-09
1.571524008e-09
1.343933464e-09
0.0002519697192
1.451725667e-08
5.062092536e-05
0.001564908819
3.202117534e-09
3.460433314e-09
2.698535834e-10
1.659108599e-10
8.084491845e-11
6.248389559e-11
1.159335523e-10
5.062092536e-05
3.202117534e-09
0.000280655779
3.185102516e-07
3.138591134e-08
1.469564011e-08
1.206517679e-08
6.740639868e-09
9.457054471e-10
2.449855751e-09
1.085772057e-09
4.881895599e-10
5.315943041e-10
2.886577989e-10
1.269379405e-10
4.602561912e-11
8.786931329e-11
1.414226458e-10
)
;
    }
}


// ************************************************************************* //
