/*--------------------------------*- C++ -*----------------------------------*\
  =========                 |
  \\      /  F ield         | OpenFOAM: The Open Source CFD Toolbox
   \\    /   O peration     | Website:  https://openfoam.org
    \\  /    A nd           | Version:  8
     \\/     M anipulation  |
\*---------------------------------------------------------------------------*/
FoamFile
{
    version     2.0;
    format      ascii;
    class       volScalarField;
    location    "0.5/wallFilmRegion";
    object      kappa;
}
// * * * * * * * * * * * * * * * * * * * * * * * * * * * * * * * * * * * * * //

dimensions      [1 1 -3 -1 0 0 0];

internalField   nonuniform List<scalar> 
1342
(
0.608809481
0.6088099549
0.6088099196
0.6088098212
0.6088099802
0.6088099723
0.6088099766
0.6088099064
0.6088098794
0.6088098439
0.6088097978
0.6088097393
0.6088096679
0.60880972
0.6088098791
0.6088099737
0.6088099735
0.608809979
0.6088091408
0.6088092922
0.6088092155
0.6088091941
0.6088092408
0.6088092958
0.6088093187
0.6088097582
0.6088096799
0.6088095828
0.6088094678
0.6088093479
0.6088092565
0.6088093585
0.6088095695
0.6088097594
0.6088098999
0.6088098844
0.6088086082
0.6088089671
0.6088090143
0.6088089118
0.6088088576
0.6088089049
0.6088085883
0.6088093051
0.608809139
0.6088089897
0.6088089135
0.6088089518
0.6088088878
0.6088087628
0.6088089649
0.6088083957
0.6088083106
0.6088082588
0.6088082324
0.6088082063
0.6088081623
0.6088081582
0.60880823
0.6088086471
0.6088086818
0.6088084823
0.6088083558
0.6088075309
0.6088083661
0.6088083121
0.6088082739
0.6088082521
0.6088082254
0.608808186
0.6088081654
0.6088081875
0.608808266
0.6088083887
0.6088081941
0.6088080737
0.6088086752
0.6088086067
0.6088084567
0.6088083639
0.6088083069
0.60880826
0.6088082195
0.6088081811
0.6088083635
0.6088082239
0.6088084565
0.608808463
0.6088082094
0.6088084376
0.6088084899
0.6088085368
0.6088085358
0.6088084667
0.6088083727
0.6088083082
0.6088082566
0.6088081582
0.6088091096
0.6088097929
0.6088092512
0.6088094243
0.6088094461
0.6088094704
0.6088099704
0.6088098807
0.6088093636
0.6088093425
0.6088099209
0.6088093462
0.6088093735
0.6088099905
0.6088099963
0.608809996
0.6088099877
0.6088099957
0.6088099954
0.6088099849
0.608809995
0.6088099944
0.6088099821
0.6088099936
0.6088099928
0.6088099789
0.6088099909
0.608809988
0.6088099784
0.6088099855
0.6088099832
0.6088099779
0.6088099812
0.6088099797
0.6088099775
0.6088099786
0.6088099781
0.6088099761
0.608809978
0.6088099779
0.6088099742
0.6088099764
0.6088099752
0.608809996
0.6088099788
0.6088099873
0.608809996
0.6088099953
0.6088099902
0.6088100115
0.6088099839
0.6088099872
0.6088100075
0.6088102199
0.6088102676
0.60880999
0.6088102136
0.6088101055
0.6088099861
0.6088100609
0.6088100416
0.6088099836
0.6088100325
0.6088100376
0.6088099843
0.6088100378
0.608810034
0.6088099836
0.6088100625
0.6088100296
0.6088099848
0.6088100373
0.6088101804
0.608809978
0.6088100018
0.6088099937
0.6088099765
0.6088099773
0.6088099775
0.6088099802
0.6088099789
0.6088099809
0.6088099794
0.6088099757
0.6088099767
0.6088099831
0.6088099777
0.6088099789
0.6088099807
0.6088099794
0.6088099795
0.6088100197
0.6088099797
0.6088099805
0.60881
0.6088099941
0.6088102721
0.60881
0.60881
0.60881
0.60881
0.60881
0.60881
0.6088102487
0.60881
0.60881
0.6088102511
0.60881
0.60881
0.60881
0.60881
0.60881
0.6088101947
0.60881
0.60881
0.6088099786
0.6088100032
0.6088099814
0.6088099814
0.6088099805
0.6088099818
0.6088099776
0.6088099796
0.6088099784
0.6088099774
0.6088099775
0.6088099771
0.6088099786
0.6088099773
0.608809978
0.6088099795
0.6088099787
0.6088099791
0.6088100046
0.6088099795
0.6088099817
0.60881
0.6088102571
0.60881
0.60881
0.60881
0.60881
0.60881
0.60881
0.60881
0.60881
0.60881
0.60881
0.60881
0.60881
0.60881
0.60881
0.60881
0.60881
0.6088100132
0.6088102167
0.6088101871
0.6088099821
0.6088099833
0.6088099822
0.6088099846
0.6088099835
0.6088099851
0.6088099789
0.6088099814
0.6088099799
0.6088099772
0.6088099785
0.6088099775
0.6088099779
0.6088099774
0.608809978
0.608809979
0.6088099786
0.6088099789
0.6088099807
0.6088099791
0.6088099825
0.60881
0.6088102495
0.60881
0.60881
0.60881
0.60881
0.60881
0.60881
0.60881
0.60881
0.60881
0.60881
0.60881
0.60881
0.60881
0.60881
0.60881
0.60881
0.6088101825
0.6088102261
0.608810218
0.6088099827
0.6088102872
0.6088103101
0.6088099857
0.6088099837
0.6088099843
0.6088099817
0.6088099848
0.6088099816
0.6088099779
0.6088099792
0.608809978
0.6088099782
0.608809978
0.6088099783
0.6088099788
0.6088099786
0.608809979
0.6088100676
0.6088099971
0.60881
0.60881
0.60881
0.60881
0.60881
0.60881
0.60881
0.60881
0.60881
0.60881
0.6088101497
0.60881
0.60881
0.6088099948
0.6088100082
0.6088099953
0.6088099659
0.6088099941
0.6088099919
0.6088099818
0.6088099871
0.6088099801
0.6088099827
0.608809976
0.6088099728
0.6088099874
0.6088099872
0.6088099813
0.6088099843
0.6088099802
0.6088099781
0.6088099786
0.6088099785
0.6088099784
0.6088099795
0.6088099844
0.6088099936
0.6088100012
0.6088099962
0.6088101749
0.6088099944
0.6088099953
0.6088101727
0.6088099988
0.60881
0.6088101533
0.6088100012
0.6088099947
0.60881
0.6088099936
0.6088099954
0.6088100426
0.6088099819
0.6088099896
0.6088099967
0.6088099971
0.6088099971
0.6088099952
0.6088099968
0.6088099966
0.6088099906
0.6088099963
0.608809994
0.6088099732
0.6088099697
0.6088099734
0.6088099862
0.6088099899
0.6088099802
0.608809988
0.6088099866
0.6088099878
0.6088099944
0.6088099958
0.6088099944
0.6088099962
0.6088099967
0.608809994
0.6088099972
0.6088099976
0.6088099929
0.608809998
0.6088099982
0.6088099913
0.6088099985
0.6088099986
0.6088099907
0.6088099987
0.6088099986
0.6088099908
0.6088099983
0.6088099964
0.6088099954
0.6088099802
0.6088099628
0.60880999
0.6088099457
0.6088099456
0.6088099609
0.6088099493
0.6088099539
0.6088090218
0.6088088542
0.6088088807
0.6088087786
0.6088087133
0.6088087716
0.6088086563
0.608808606
0.6088086794
0.6088085624
0.6088085216
0.6088086632
0.6088085052
0.6088084992
0.6088086832
0.608808531
0.608808476
0.6088085801
0.6088084305
0.6088083923
0.6088085914
0.6088083872
0.6088084082
0.6088086825
0.6088084585
0.6088085746
0.6088088975
0.608808989
0.6088090749
0.6088091623
0.6088093418
0.6088091871
0.6088087146
0.6088085813
0.6088084847
0.6088084167
0.6088083917
0.6088083526
0.6088082937
0.6088083209
0.6088086102
0.6088085434
0.6088083568
0.6088083454
0.6088083324
0.6088083209
0.6088082812
0.6088085653
0.6088083236
0.6088083446
0.6088087462
0.6088084985
0.6088089165
0.6088087048
0.6088088636
0.6088084537
0.6088083483
0.6088082811
0.6088083038
0.6088082802
0.6088082424
0.6088082636
0.6088082212
0.6088081818
0.6088082211
0.6088082005
0.6088081523
0.6088081827
0.6088081721
0.6088081837
0.6088083216
0.6088084794
0.6088083128
0.6088086897
0.6088084826
0.6088086249
0.6088085232
0.6088083993
0.6088083785
0.6088082619
0.6088083453
0.6088082636
0.6088082435
0.6088081719
0.6088082246
0.6088082084
0.6088081689
0.6088081959
0.6088082217
0.6088082745
0.6088083901
0.608808841
0.6088086649
0.6088083924
0.6088082497
0.608808419
0.6088099782
0.6088094678
0.6088099771
0.6088093647
0.6088099763
0.6088092795
0.6088099759
0.6088092059
0.6088099765
0.6088091886
0.6088099764
0.6088089927
0.6088099759
0.6088089778
0.6088099751
0.6088090113
0.6088093204
0.6088099744
0.6088090296
0.6088099918
0.6088099891
0.6088099863
0.6088099835
0.6088099796
0.6088099787
0.6088099782
0.6088099777
0.6088099771
0.6088099746
0.6088099741
0.6088099638
0.6088099761
0.6088099097
0.6088099901
0.6088099976
0.6088100056
0.6088100128
0.6088099955
0.6088099877
0.6088099848
0.6088099835
0.608809984
0.6088099842
0.6088099822
0.6088099758
0.6088099781
0.6088099792
0.6088099743
0.6088099819
0.6088099753
0.6088099824
0.6088099815
0.6088099817
0.6088102721
0.60881
0.6088102551
0.60881
0.60881
0.60881
0.6088101774
0.608809979
0.6088099797
0.6088099832
0.6088099782
0.6088099772
0.6088099779
0.6088099791
0.6088099803
0.6088102683
0.60881
0.60881
0.60881
0.60881
0.60881
0.608810238
0.6088099814
0.6088099835
0.6088099801
0.6088099779
0.6088099772
0.6088099786
0.6088099792
0.6088102351
0.60881
0.60881
0.60881
0.60881
0.60881
0.60881
0.6088100699
0.6088099836
0.6088099842
0.6088099793
0.6088099778
0.6088099786
0.6088099794
0.60881
0.60881
0.60881
0.60881
0.6088099972
0.6088099896
0.6088099739
0.6088099821
0.6088099835
0.6088099851
0.6088099788
0.6088099781
0.6088099789
0.6088100803
0.6088101793
0.60881
0.6088101355
0.6088100963
0.6088099982
0.6088099959
0.6088099944
0.608809978
0.608809972
0.6088099878
0.6088099821
0.6088099813
0.608809994
0.6088099942
0.6088099937
0.6088099916
0.6088099926
0.6088099901
0.6088099915
0.608809996
0.6088099741
0.6088099576
0.608809969
0.608809995
0.6088099991
0.608809999
0.6088099988
0.6088099986
0.6088099984
0.6088099983
0.6088099887
0.6088099644
0.6088099432
0.6088099553
0.6088099828
0.6088099576
0.608809105
0.6088089463
0.608808823
0.6088087262
0.6088086607
0.6088087574
0.6088086294
0.6088085763
0.6088086261
0.6088088143
0.6088089994
0.6088088016
0.6088092755
0.6088093003
0.6088093485
0.6088091935
0.6088094435
0.6088094724
0.6088086426
0.6088085292
0.6088084427
0.6088084479
0.6088083784
0.6088084028
0.6088083939
0.6088083188
0.6088082667
0.6088082943
0.6088082577
0.6088083768
0.6088089176
0.6088088285
0.6088087544
0.6088080341
0.6088084487
0.6088086574
0.6088088074
0.6088085263
0.6088083987
0.6088085137
0.6088087501
0.6088086144
0.6088085534
0.6088084017
0.6088083362
0.608808297
0.6088081596
0.6088081503
0.6088080186
0.6088079142
0.6088079461
0.6088077667
0.6088081921
0.6088083751
0.608808333
0.6088082274
0.6088082248
0.6088081766
0.6088082773
0.6088082852
0.6088083017
0.60880824
0.6088080474
0.6088080941
0.6088079734
0.6088080691
0.6088087747
0.6088087355
0.6088086201
0.6088084823
0.6088085283
0.6088084186
0.6088084622
0.6088084055
0.6088083522
0.6088082961
0.6088088149
0.6088088152
0.6088087579
0.608808685
0.6088086085
0.6088085314
0.6088084582
0.6088083932
0.6088083699
0.6088087291
0.6088087746
0.6088087786
0.6088087369
0.6088086596
0.6088085672
0.6088084792
0.6088084011
0.6088083723
0.6088085985
0.608808668
0.6088087075
0.6088086856
0.6088086085
0.6088085109
0.6088084263
0.6088083459
0.6088082757
0.6088099788
0.6088095247
0.6088099822
0.6088091823
0.6088099776
0.608809414
0.6088099811
0.6088099801
0.6088091102
0.6088090465
0.6088099767
0.60880932
0.6088099792
0.6088099783
0.6088089908
0.6088089408
0.608809976
0.6088092373
0.6088099775
0.6088099767
0.6088088965
0.6088088466
0.6088099763
0.6088091997
0.6088099764
0.6088099766
0.6088088208
0.6088088235
0.6088099765
0.6088090396
0.6088099767
0.6088099767
0.6088090041
0.6088088984
0.6088099762
0.6088089621
0.6088099765
0.6088099762
0.6088088435
0.6088087937
0.6088099756
0.6088089885
0.6088099757
0.6088099752
0.6088088019
0.6088088161
0.6088099747
0.6088090301
0.6088099748
0.6088099744
0.6088088427
0.6088088606
0.6088099742
0.6088099739
0.608808909
0.6088099736
0.6088099747
0.6088099749
0.6088099757
0.6088099772
0.6088099793
0.6088094294
0.6088099829
0.6088094828
0.6088094859
0.6088099838
0.6088099834
0.6088099438
0.6088099842
0.6088094312
0.6088093911
0.6088099784
0.6088099709
0.6088099731
0.6088099722
0.608809976
0.6088094684
0.6088096099
0.6088097289
0.608809972
0.6088099751
0.6088097567
0.6088099627
0.608809959
0.6088099823
0.608809964
0.6088099739
0.6088099743
0.6088099674
0.6088097677
0.6088097494
0.6088097143
0.6088099932
0.6088099917
0.6088099193
0.6088098501
0.6088099983
0.6088099914
0.6088099909
0.6088098938
0.6088098139
0.6088097855
0.6088099991
0.6088099906
0.6088099904
0.6088098628
0.6088097536
0.6088097178
0.6088099989
0.6088099903
0.6088099903
0.6088098223
0.608809678
0.608809634
0.6088099987
0.6088099902
0.60880999
0.6088097702
0.6088095864
0.6088095364
0.6088099984
0.6088099898
0.6088099895
0.6088097051
0.6088094859
0.6088094383
0.6088099984
0.608809989
0.6088099881
0.6088096314
0.6088093976
0.6088093768
0.6088099982
0.6088099877
0.6088099882
0.6088098042
0.6088094873
0.6088096051
0.6088099747
0.6088099888
0.608809988
0.6088099392
0.6088097028
0.6088097948
0.6088099451
0.6088099546
0.6088099532
0.6088099732
0.6088099205
0.6088099651
0.6088099445
0.6088099491
0.6088099497
0.608809976
0.6088099766
0.6088099795
0.6088099818
0.6088099561
0.6088099523
0.6088099578
0.6088099746
0.6088097662
0.6088098182
0.6088092651
0.6088091394
0.6088093306
0.6088091963
0.6088090198
0.6088092471
0.6088091458
0.6088090231
0.6088090926
0.608809192
0.608809055
0.6088090266
0.6088092166
0.6088090235
0.6088090442
0.6088092703
0.6088093041
0.6088090641
0.6088090996
0.6088090753
0.6088093081
0.6088091157
0.608809327
0.6088090265
0.6088090362
0.608809072
0.6088098085
0.6088097214
0.6088096338
0.6088095196
0.6088095271
0.6088094548
0.6088093854
0.608809407
0.608809313
0.6088092412
0.6088092956
0.6088091751
0.6088091215
0.6088092464
0.6088090897
0.608809096
0.6088094808
0.6088091826
0.608809271
0.6088096649
0.6088092929
0.6088093095
0.6088098512
0.6088093857
0.6088095356
0.6088099112
0.6088096535
0.6088097004
0.6088098276
0.6088097094
0.6088091945
0.6088090461
0.6088090258
0.6088084879
0.6088084065
0.6088082896
0.6088082536
0.608808865
0.6088086466
0.6088088293
0.6088088598
0.6088088914
0.6088087688
0.6088088815
0.6088090337
0.6088089566
0.6088088294
0.6088088058
0.6088087946
0.6088088687
0.60880873
0.6088085408
0.6088088848
0.6088087463
0.6088087086
0.6088085239
0.608808941
0.6088087477
0.6088087223
0.6088086809
0.6088086445
0.6088084409
0.6088083844
0.6088086707
0.6088086146
0.6088085151
0.6088084415
0.6088092384
0.6088093837
0.6088092225
0.6088091486
0.6088090569
0.6088089671
0.608808884
0.6088090592
0.6088088149
0.6088087668
0.6088089383
0.6088089207
0.6088087437
0.6088087391
0.6088087277
0.6088086805
0.6088089459
0.6088084982
0.6088088129
0.6088085978
0.6088083892
0.608808807
0.6088082708
0.6088090017
0.6088080838
0.6088075581
0.6088083821
0.6088071251
0.6088076965
0.6088081621
0.6088084255
0.6088083753
0.6088083353
0.6088082529
0.6088082454
0.6088082366
0.6088081729
0.6088081886
0.6088082223
0.608808274
0.6088083383
0.6088082907
0.6088082421
0.608808205
0.6088084518
0.6088083518
0.6088084473
0.6088085667
0.6088086893
0.6088086006
0.6088084589
0.6088084511
0.6088084273
0.6088083521
0.6088082972
0.6088083474
0.6088082316
0.6088084891
0.6088085348
0.6088083618
0.6088083831
0.608808167
0.6088083387
0.6088082835
0.6088083595
0.6088085257
0.6088083125
0.6088084483
0.6088083847
0.6088082428
0.608808239
0.608808268
0.6088082335
0.6088081547
0.608808079
0.6088080947
0.6088080228
0.6088079803
0.6088079905
0.6088079746
0.6088078911
0.6088079672
0.6088081058
0.6088077579
0.6088079775
0.6088077072
0.6088082048
0.6088081928
0.6088079951
0.608808857
0.6088087113
0.6088086475
0.6088084705
0.608808346
0.6088083003
0.6088082397
0.6088082229
0.6088080826
0.6088079649
0.6088078604
0.6088079181
0.6088075946
0.6088078411
0.6088084727
0.6088084648
0.6088084514
0.6088084146
0.6088083196
0.6088082995
0.6088082823
0.6088081868
0.6088081837
0.6088081838
0.6088081822
0.6088086362
0.6088087602
0.6088086944
0.6088088169
0.6088085274
0.6088087512
0.6088084036
0.6088085866
0.6088085271
0.608808333
0.6088084475
0.6088082826
0.6088082391
0.6088083684
0.6088083471
0.6088081995
0.6088083284
0.6088083098
0.6088081591
0.6088082884
0.608808214
0.6088082017
0.6088082848
0.6088081669
0.6088082411
0.608808419
0.6088082465
0.6088082807
0.6088083183
0.6088083326
0.6088083085
0.6088083826
0.6088083965
0.6088085245
0.6088085363
0.6088083665
0.6088083905
0.6088082706
0.608808243
0.6088081747
0.6088082494
0.6088081549
0.6088081759
0.6088081535
0.6088083381
0.6088083017
0.6088083473
0.6088082901
0.6088083593
0.6088083739
0.6088083894
0.6088085444
0.6088082932
0.6088084031
0.60880841
0.6088084048
0.6088082845
0.6088083826
0.6088084171
0.6088083398
0.6088082901
0.6088083368
0.6088081456
0.6088082459
0.6088081146
0.6088082102
0.6088081822
0.6088081599
0.6088080737
0.6088081439
0.6088081292
0.6088081611
0.6088080864
0.6088080629
0.6088081336
0.6088081256
0.6088080982
0.6088084179
0.60880832
0.6088082543
0.6088082867
0.6088083009
0.6088082101
0.6088081884
0.6088080139
0.6088080807
0.6088079646
0.6088080685
0.6088087426
0.6088087894
0.6088087817
0.6088088176
0.6088088223
0.6088086789
0.6088087928
0.6088087496
0.6088085698
0.6088087019
0.6088086571
0.6088084932
0.6088086165
0.608808579
0.6088084332
0.608808544
0.6088085103
0.6088083786
0.608808478
0.6088084468
0.6088083243
0.608808417
0.6088083868
0.6088082724
0.6088083576
0.6088083293
0.6088083189
0.608808786
0.6088087405
0.6088088261
0.608808776
0.6088087995
0.6088087904
0.6088088094
0.6088088073
0.6088087222
0.6088087949
0.6088087733
0.6088086469
0.608808743
0.6088087048
0.6088085697
0.6088086609
0.6088086133
0.608808494
0.6088085651
0.6088085181
0.6088084235
0.6088084735
0.6088084314
0.608808374
0.6088083975
0.6088083825
0.6088083925
0.6088084001
0.6088084436
0.6088085805
0.6088086932
0.608808633
0.6088087567
0.6088086711
0.6088087042
0.6088087822
0.6088087308
0.6088087485
0.6088087633
0.6088087544
0.6088087458
0.6088087013
0.608808723
0.6088086883
0.6088086137
0.608808646
0.6088085985
0.6088085221
0.6088085513
0.6088085066
0.608808438
0.6088084646
0.6088084236
0.6088083759
0.608808383
0.6088083481
0.6088083916
0.6088083218
0.6088083261
0.608808333
0.6088083286
0.6088085593
0.6088084776
0.6088084154
0.6088086352
0.6088085132
0.6088085489
0.6088084628
0.6088086936
0.6088085828
0.6088086118
0.6088085161
0.6088087049
0.6088086305
0.6088086327
0.6088086521
0.6088086179
0.6088085875
0.6088085102
0.6088085591
0.6088085444
0.6088084952
0.6088084667
0.608808448
0.6088084058
0.6088083868
0.6088083681
0.6088083325
0.6088082836
0.6088083021
0.6088082973
0.6088082675
0.6088083084
0.6088082091
)
;

boundaryField
{
    walls
    {
        type            zeroGradient;
    }
    wallFilmFace_top
    {
        type            zeroGradient;
    }
    region0_to_wallFilmRegion_wallFilmFace
    {
        type            zeroGradient;
    }
    mirrorFace_top
    {
        type            zeroGradient;
    }
    region0_to_wallFilmRegion_mirrorFace
    {
        type            zeroGradient;
    }
    procBoundary3to2
    {
        type            processor;
        value           nonuniform List<scalar> 
64
(
0.6088099614
0.6088099557
0.6088096807
0.608809579
0.6088094572
0.608808524
0.6088084416
0.6088086025
0.6088083968
0.6088099931
0.6088099963
0.6088099968
0.6088099968
0.6088099956
0.6088099931
0.6088099867
0.6088099793
0.6088099809
0.6088099822
0.6088099831
0.6088099845
0.6088099863
0.6088099872
0.6088099872
0.6088099891
0.6088099889
0.6088099889
0.6088099899
0.6088099903
0.6088099903
0.6088091949
0.6088089392
0.6088089392
0.6088087974
0.608808689
0.6088099793
0.6088095821
0.6088099834
0.6088099878
0.6088092607
0.608808966
0.6088087054
0.6088087012
0.6088087466
0.6088086503
0.6088085195
0.6088099834
0.6088092607
0.6088099911
0.6088099564
0.6088097505
0.6088096328
0.608809579
0.6088093241
0.6088084876
0.6088088142
0.6088084878
0.6088084853
0.6088083459
0.6088083321
0.6088087498
0.6088086959
0.6088085915
0.6088084439
)
;
    }
}


// ************************************************************************* //
