/*--------------------------------*- C++ -*----------------------------------*\
  =========                 |
  \\      /  F ield         | OpenFOAM: The Open Source CFD Toolbox
   \\    /   O peration     | Website:  https://openfoam.org
    \\  /    A nd           | Version:  8
     \\/     M anipulation  |
\*---------------------------------------------------------------------------*/
FoamFile
{
    version     2.0;
    format      ascii;
    class       volScalarField;
    location    "0.5/wallFilmRegion";
    object      mu;
}
// * * * * * * * * * * * * * * * * * * * * * * * * * * * * * * * * * * * * * //

dimensions      [1 -1 -1 0 0 0 0];

internalField   nonuniform List<scalar> 
1342
(
0.0008861546558
0.0008861480402
0.0008861485326
0.0008861499063
0.0008861476871
0.0008861477973
0.0008861477376
0.0008861487176
0.0008861490943
0.00088614959
0.0008861502329
0.0008861510495
0.0008861520471
0.0008861513195
0.0008861490983
0.0008861477773
0.0008861477803
0.0008861477029
0.000886159405
0.0008861572921
0.0008861583625
0.0008861586604
0.0008861580094
0.0008861572419
0.0008861569221
0.0008861507859
0.0008861518789
0.0008861532353
0.0008861548399
0.0008861565135
0.0008861577903
0.0008861563656
0.0008861534206
0.0008861507692
0.0008861488077
0.0008861490243
0.0008861668404
0.0008861618299
0.0008861611712
0.0008861626016
0.0008861633592
0.0008861626979
0.0008861671186
0.0008861571121
0.0008861594303
0.0008861615147
0.0008861625783
0.0008861620431
0.0008861629372
0.0008861646821
0.0008861618602
0.0008861698078
0.0008861709959
0.0008861717188
0.0008861720865
0.0008861724518
0.0008861730654
0.0008861731234
0.000886172121
0.0008861662971
0.0008861658129
0.0008861685981
0.000886170365
0.0008861818804
0.0008861702208
0.0008861709749
0.0008861715071
0.0008861718127
0.0008861721848
0.0008861727342
0.0008861730227
0.0008861727136
0.0008861716181
0.000886169905
0.0008861726222
0.0008861743033
0.0008861659055
0.0008861668618
0.0008861689553
0.0008861702508
0.0008861710473
0.0008861717017
0.0008861722673
0.0008861728039
0.0008861702564
0.0008861722059
0.0008861689578
0.0008861688684
0.0008861724084
0.0008861692221
0.0008861684926
0.0008861678379
0.0008861678519
0.0008861688155
0.0008861701277
0.000886171029
0.0008861717496
0.0008861731229
0.0008861598401
0.0008861503021
0.000886157864
0.0008861554472
0.0008861551426
0.0008861548043
0.0008861478231
0.0008861490765
0.0008861562947
0.0008861565894
0.000886148514
0.0008861565371
0.0008861561569
0.0008861475436
0.0008861474623
0.0008861474666
0.000886147582
0.0008861474703
0.0008861474741
0.0008861476205
0.0008861474806
0.0008861474886
0.0008861476608
0.0008861474991
0.0008861475113
0.0008861477043
0.0008861475373
0.0008861475775
0.0008861477117
0.0008861476131
0.0008861476442
0.0008861477185
0.0008861476721
0.0008861476944
0.0008861477247
0.0008861477088
0.0008861477158
0.0008861477445
0.0008861477178
0.000886147719
0.0008861477705
0.0008861477391
0.000886147757
0.0008861474659
0.0008861477057
0.0008861475871
0.0008861474663
0.0008861474758
0.0008861475476
0.0008861472498
0.0008861476354
0.0008861475897
0.000886147306
0.0008861443402
0.0008861436746
0.0008861475499
0.0008861444282
0.0008861459379
0.0008861476048
0.00088614656
0.0008861468292
0.0008861476393
0.0008861469563
0.0008861468857
0.0008861476291
0.0008861468824
0.0008861469356
0.0008861476387
0.0008861465381
0.0008861469969
0.0008861476224
0.0008861468893
0.0008861448914
0.0008861477174
0.0008861473848
0.0008861474987
0.0008861477387
0.0008861477268
0.000886147725
0.0008861476867
0.0008861477048
0.0008861476775
0.0008861476985
0.0008861477489
0.0008861477359
0.0008861476456
0.0008861477212
0.0008861477055
0.0008861476794
0.0008861476985
0.0008861476963
0.000886147136
0.0008861476931
0.0008861476821
0.0008861474103
0.0008861474929
0.0008861436119
0.0008861474103
0.0008861474103
0.0008861474103
0.0008861474103
0.0008861474103
0.0008861474103
0.0008861439385
0.0008861474103
0.0008861474103
0.0008861439048
0.0008861474103
0.0008861474103
0.0008861474103
0.0008861474103
0.0008861474103
0.0008861446918
0.0008861474103
0.0008861474103
0.0008861477096
0.0008861473656
0.0008861476697
0.0008861476705
0.0008861476821
0.000886147665
0.0008861477237
0.0008861476953
0.000886147712
0.0008861477263
0.000886147724
0.0008861477306
0.0008861477092
0.0008861477277
0.0008861477168
0.000886147697
0.0008861477071
0.0008861477017
0.0008861473465
0.0008861476969
0.0008861476653
0.0008861474103
0.0008861438214
0.0008861474103
0.0008861474103
0.0008861474103
0.0008861474103
0.0008861474103
0.0008861474103
0.0008861474103
0.0008861474103
0.0008861474103
0.0008861474103
0.0008861474103
0.0008861474103
0.0008861474103
0.0008861474103
0.0008861474103
0.0008861474103
0.0008861472266
0.0008861443853
0.0008861447981
0.0008861476605
0.0008861476429
0.0008861476586
0.0008861476256
0.0008861476402
0.0008861476181
0.0008861477045
0.0008861476706
0.0008861476907
0.0008861477292
0.0008861477102
0.0008861477244
0.0008861477188
0.0008861477255
0.000886147717
0.0008861477042
0.0008861477095
0.0008861477055
0.0008861476797
0.0008861477019
0.0008861476544
0.0008861474103
0.0008861439267
0.0008861474103
0.0008861474103
0.0008861474103
0.0008861474103
0.0008861474103
0.0008861474103
0.0008861474103
0.0008861474103
0.0008861474103
0.0008861474103
0.0008861474103
0.0008861474103
0.0008861474103
0.0008861474103
0.0008861474103
0.0008861474103
0.0008861448623
0.0008861442538
0.0008861443666
0.0008861476514
0.0008861434011
0.0008861430812
0.0008861476098
0.0008861476384
0.0008861476297
0.0008861476662
0.000886147622
0.0008861476671
0.000886147719
0.0008861477006
0.0008861477171
0.0008861477145
0.0008861477173
0.000886147713
0.000886147706
0.0008861477091
0.000886147704
0.0008861464667
0.0008861474502
0.0008861474103
0.0008861474103
0.0008861474103
0.0008861474103
0.0008861474103
0.0008861474103
0.0008861474103
0.0008861474103
0.0008861474103
0.0008861474103
0.0008861453203
0.0008861474103
0.0008861474103
0.0008861474822
0.0008861472965
0.0008861474753
0.0008861478866
0.000886147493
0.0008861475241
0.000886147664
0.0008861475909
0.0008861476885
0.0008861476514
0.0008861477453
0.00088614779
0.0008861475861
0.0008861475886
0.0008861476721
0.00088614763
0.0008861476867
0.0008861477164
0.0008861477086
0.00088614771
0.0008861477115
0.0008861476971
0.0008861476279
0.0008861475004
0.0008861473942
0.0008861474637
0.0008861449693
0.0008861474887
0.0008861474761
0.000886144999
0.0008861474268
0.0008861474109
0.0008861452703
0.0008861473933
0.0008861474843
0.0008861474103
0.0008861474998
0.0008861474747
0.0008861468157
0.0008861476624
0.000886147556
0.0008861474567
0.0008861474515
0.0008861474506
0.0008861474777
0.0008861474546
0.0008861474583
0.0008861475415
0.0008861474616
0.0008861474946
0.0008861477845
0.0008861478332
0.0008861477818
0.0008861476024
0.0008861475517
0.0008861476866
0.000886147578
0.0008861475976
0.00088614758
0.000886147488
0.0008861474685
0.0008861474886
0.000886147463
0.0008861474568
0.0008861474943
0.0008861474501
0.0008861474437
0.000886147509
0.0008861474386
0.0008861474348
0.0008861475323
0.0008861474319
0.0008861474297
0.0008861475408
0.0008861474288
0.0008861474298
0.0008861475381
0.0008861474339
0.0008861474609
0.0008861474749
0.0008861476871
0.0008861479298
0.0008861475498
0.0008861481685
0.0008861481701
0.0008861479568
0.0008861481184
0.0008861480541
0.0008861610667
0.0008861634057
0.0008861630361
0.0008861644618
0.0008861653736
0.0008861645598
0.0008861661685
0.0008861668712
0.0008861658471
0.0008861674807
0.0008861680503
0.0008861660734
0.0008861682784
0.0008861683623
0.0008861657941
0.0008861679184
0.0008861686868
0.0008861672334
0.0008861693212
0.0008861698546
0.0008861670747
0.0008861699256
0.0008861696331
0.0008861658029
0.0008861689309
0.0008861673097
0.0008861628019
0.0008861615242
0.0008861603246
0.0008861591049
0.0008861565988
0.0008861587584
0.0008861653547
0.0008861672159
0.0008861685642
0.0008861695136
0.0008861698636
0.0008861704089
0.000886171231
0.0008861708513
0.0008861668125
0.0008861677453
0.0008861703507
0.0008861705098
0.0008861706906
0.0008861708515
0.0008861714057
0.0008861674389
0.000886170814
0.0008861705204
0.0008861649135
0.0008861683725
0.0008861625365
0.0008861654927
0.0008861632754
0.0008861689976
0.0008861704684
0.0008861714078
0.0008861710908
0.0008861714198
0.0008861719476
0.0008861716511
0.000886172244
0.0008861727935
0.0008861722442
0.0008861725324
0.0008861732058
0.0008861727807
0.0008861729294
0.000886172767
0.0008861708413
0.0008861686388
0.0008861709642
0.0008861657028
0.0008861685942
0.0008861666071
0.0008861680275
0.0008861697574
0.0008861700479
0.0008861716756
0.0008861705111
0.0008861716519
0.0008861719315
0.000886172932
0.0008861721956
0.0008861724221
0.0008861729738
0.0008861725964
0.0008861722359
0.0008861714993
0.0008861698855
0.0008861635911
0.0008861660496
0.0008861698535
0.0008861718457
0.0008861694823
0.0008861477147
0.0008861548404
0.0008861477297
0.0008861562788
0.0008861477418
0.0008861574687
0.0008861477467
0.0008861584966
0.0008861477386
0.0008861587375
0.0008861477401
0.0008861614724
0.000886147747
0.0008861616803
0.0008861477573
0.0008861612129
0.0008861568981
0.0008861477682
0.0008861609581
0.000886147525
0.0008861475628
0.0008861476012
0.0008861476401
0.0008861476953
0.0008861477083
0.000886147715
0.0008861477218
0.0008861477305
0.0008861477655
0.0008861477714
0.0008861479159
0.0008861477434
0.0008861486705
0.0008861475485
0.0008861474441
0.000886147332
0.0008861472322
0.0008861474731
0.0008861475823
0.000886147623
0.0008861476404
0.0008861476333
0.0008861476308
0.0008861476587
0.0008861477476
0.0008861477155
0.0008861477002
0.0008861477691
0.0008861476633
0.0008861477558
0.0008861476556
0.0008861476681
0.0008861476663
0.0008861436111
0.0008861474103
0.0008861438494
0.0008861474103
0.0008861474103
0.0008861474103
0.0008861449336
0.0008861477029
0.0008861476943
0.0008861476445
0.0008861477143
0.0008861477281
0.0008861477186
0.000886147702
0.0008861476851
0.0008861436645
0.0008861474103
0.0008861474103
0.0008861474103
0.0008861474103
0.0008861474103
0.0008861440873
0.0008861476697
0.0008861476403
0.0008861476882
0.0008861477187
0.0008861477292
0.0008861477092
0.0008861477006
0.0008861441285
0.0008861474103
0.0008861474103
0.0008861474103
0.0008861474103
0.0008861474103
0.0008861474103
0.0008861464346
0.0008861476394
0.0008861476308
0.0008861476994
0.0008861477205
0.0008861477093
0.0008861476984
0.0008861474103
0.0008861474103
0.0008861474103
0.0008861474103
0.0008861474489
0.0008861475552
0.0008861477745
0.0008861476609
0.0008861476407
0.0008861476188
0.0008861477061
0.0008861477155
0.0008861477049
0.0008861462897
0.0008861449073
0.0008861474103
0.0008861455193
0.0008861460658
0.0008861474357
0.0008861474678
0.000886147488
0.0008861477179
0.0008861478015
0.000886147581
0.0008861476602
0.0008861476709
0.0008861474941
0.0008861474909
0.0008861474989
0.000886147527
0.0008861475134
0.000886147549
0.0008861475294
0.000886147466
0.0008861477724
0.0008861480017
0.0008861478424
0.0008861474798
0.0008861474233
0.0008861474247
0.0008861474271
0.0008861474305
0.0008861474331
0.0008861474339
0.0008861475684
0.0008861479071
0.0008861482028
0.000886148034
0.0008861476499
0.0008861480028
0.0008861599044
0.00088616212
0.0008861638415
0.0008861651938
0.0008861661079
0.0008861647579
0.0008861665453
0.0008861672862
0.0008861665913
0.0008861639635
0.0008861613798
0.0008861641406
0.0008861575242
0.000886157179
0.0008861565058
0.0008861586701
0.0008861551792
0.0008861547756
0.00088616636
0.0008861679438
0.0008861691513
0.0008861690791
0.0008861700488
0.0008861697079
0.0008861698327
0.0008861708808
0.000886171608
0.0008861712235
0.0008861717338
0.0008861700707
0.0008861625214
0.0008861637652
0.0008861647992
0.0008861748557
0.0008861690671
0.0008861661544
0.0008861640603
0.0008861679845
0.0008861697649
0.0008861681596
0.0008861648602
0.0008861667542
0.0008861676051
0.0008861697239
0.0008861706375
0.000886171185
0.0008861731034
0.000886173233
0.0008861750725
0.0008861765296
0.000886176084
0.0008861785888
0.0008861726492
0.0008861700949
0.0008861706824
0.0008861721563
0.0008861721928
0.0008861728665
0.0008861714598
0.0008861713501
0.0008861711189
0.0008861719807
0.0008861746694
0.0008861740184
0.0008861757027
0.000886174367
0.0008861645167
0.0008861650638
0.0008861666739
0.0008861685977
0.0008861679563
0.000886169487
0.0008861688788
0.0008861696709
0.0008861704144
0.0008861711976
0.0008861639551
0.0008861639506
0.0008861647501
0.0008861657687
0.000886166837
0.0008861679124
0.0008861689349
0.0008861698417
0.0008861701678
0.0008861651522
0.0008861645173
0.0008861644619
0.0008861650441
0.0008861661225
0.0008861674129
0.0008861686419
0.0008861697325
0.0008861701341
0.0008861669762
0.0008861660062
0.0008861654541
0.0008861657603
0.0008861668366
0.0008861681983
0.0008861693806
0.0008861705028
0.0008861714831
0.0008861477067
0.0008861540459
0.0008861476585
0.0008861588258
0.0008861477224
0.0008861555918
0.0008861476738
0.0008861476881
0.0008861598323
0.0008861607216
0.0008861477363
0.0008861569032
0.0008861477012
0.0008861477133
0.0008861614998
0.0008861621968
0.0008861477456
0.0008861580582
0.0008861477245
0.0008861477357
0.0008861628164
0.0008861635125
0.0008861477414
0.0008861585835
0.0008861477396
0.0008861477369
0.0008861638726
0.0008861638349
0.0008861477385
0.0008861608179
0.0008861477354
0.0008861477361
0.0008861613132
0.0008861627888
0.000886147743
0.0008861618994
0.0008861477389
0.0008861477433
0.0008861635554
0.0008861642506
0.0008861477517
0.0008861615316
0.0008861477492
0.0008861477559
0.0008861641364
0.0008861639379
0.000886147763
0.0008861609509
0.0008861477624
0.0008861477679
0.0008861635664
0.0008861633165
0.000886147771
0.0008861477754
0.0008861626419
0.0008861477786
0.0008861477635
0.0008861477611
0.00088614775
0.0008861477282
0.0008861476987
0.0008861553763
0.0008861476494
0.0008861546302
0.0008861545867
0.0008861476366
0.0008861476418
0.0008861481953
0.0008861476314
0.0008861553506
0.0008861559114
0.0008861477117
0.0008861478168
0.0008861477855
0.0008861477983
0.0008861477459
0.0008861548315
0.0008861528559
0.000886151195
0.0008861478014
0.000886147758
0.0008861508071
0.0008861479306
0.0008861479824
0.0008861476575
0.0008861479124
0.0008861477751
0.0008861477696
0.0008861478657
0.0008861506531
0.0008861509089
0.0008861513991
0.0008861475046
0.0008861475259
0.0008861485369
0.0008861495029
0.0008861474336
0.0008861475309
0.000886147537
0.0008861488927
0.0008861500087
0.0008861504043
0.0008861474236
0.0008861475417
0.0008861475438
0.0008861493258
0.0008861508501
0.0008861513493
0.0008861474259
0.0008861475451
0.0008861475461
0.0008861498912
0.0008861519059
0.0008861525194
0.0008861474286
0.0008861475475
0.0008861475497
0.0008861506179
0.0008861531843
0.0008861538822
0.0008861474323
0.0008861475528
0.0008861475574
0.000886151527
0.0008861545873
0.0008861552514
0.0008861474327
0.0008861475639
0.0008861475761
0.0008861525566
0.0008861558196
0.0008861561107
0.0008861474349
0.000886147582
0.0008861475757
0.0008861501436
0.0008861545673
0.0008861529228
0.0008861477632
0.0008861475671
0.0008861475777
0.0008861482591
0.00088615156
0.0008861502754
0.0008861481771
0.0008861480437
0.0008861480634
0.0008861477846
0.0008861485206
0.0008861478975
0.0008861481857
0.000886148121
0.0008861481131
0.0008861477458
0.0008861477372
0.0008861476961
0.0008861476643
0.0008861480238
0.0008861480757
0.0008861480001
0.0008861477652
0.0008861506738
0.0008861499484
0.0008861576704
0.0008861594242
0.0008861567554
0.0008861586298
0.0008861610939
0.0008861579211
0.0008861593356
0.000886161048
0.0008861600777
0.0008861586906
0.0008861606029
0.0008861609995
0.0008861583471
0.0008861610427
0.0008861607533
0.0008861575969
0.000886157125
0.0008861604758
0.0008861599803
0.0008861603195
0.0008861570695
0.0008861597554
0.000886156806
0.0008861610012
0.0008861608651
0.0008861603652
0.0008861500831
0.0008861513001
0.000886152523
0.000886154117
0.000886154012
0.0008861550211
0.0008861559909
0.0008861556889
0.0008861570011
0.0008861580041
0.0008861572435
0.0008861589268
0.0008861596751
0.0008861579309
0.0008861601188
0.0008861600302
0.0008861546593
0.000886158821
0.0008861575873
0.0008861520884
0.0008861572824
0.0008861570502
0.0008861494883
0.0008861559867
0.0008861538937
0.0008861486496
0.0008861522474
0.0008861515929
0.0008861498175
0.0008861514671
0.0008861586549
0.0008861607271
0.0008861610113
0.0008861685194
0.0008861696569
0.0008861712887
0.0008861717907
0.0008861632561
0.000886166304
0.0008861637543
0.0008861633287
0.0008861628871
0.0008861645985
0.0008861630245
0.0008861608999
0.000886161977
0.0008861637522
0.0008861640819
0.0008861642378
0.0008861632042
0.0008861651396
0.000886167782
0.0008861629788
0.0008861649133
0.0008861654395
0.0008861680174
0.0008861621951
0.0008861648933
0.0008861652472
0.000886165825
0.0008861663341
0.0008861691764
0.0008861699648
0.0008861659686
0.0008861667513
0.0008861681409
0.0008861691677
0.000886158043
0.0008861560141
0.0008861582649
0.0008861592964
0.0008861605762
0.0008861618308
0.0008861629896
0.000886160545
0.0008861639549
0.0008861646265
0.0008861622326
0.0008861624772
0.0008861649492
0.0008861650128
0.000886165172
0.0008861658308
0.0008861621266
0.0008861683765
0.0008861639823
0.0008861669861
0.0008861698975
0.0008861640647
0.0008861715513
0.000886161347
0.0008861741616
0.000886181501
0.0008861699969
0.0008861875462
0.0008861795684
0.0008861730686
0.0008861693908
0.0008861700916
0.0008861706503
0.0008861718003
0.0008861719053
0.0008861720291
0.0008861729183
0.0008861726991
0.0008861722283
0.0008861715065
0.0008861706091
0.0008861712738
0.000886171951
0.0008861724694
0.0008861690237
0.0008861704198
0.0008861690872
0.0008861674198
0.0008861657091
0.0008861669464
0.000886168925
0.0008861690341
0.0008861693666
0.0008861704158
0.0008861711829
0.000886170482
0.0008861720981
0.0008861685036
0.0008861678652
0.0008861702804
0.0008861699829
0.0008861729999
0.0008861706024
0.000886171374
0.0008861703129
0.000886167993
0.0008861709691
0.0008861690735
0.0008861699609
0.0008861719412
0.0008861719945
0.0008861715902
0.0008861720722
0.0008861731712
0.0008861742281
0.0008861740092
0.0008861750126
0.0008861756064
0.0008861754646
0.0008861756859
0.0008861768524
0.0008861757895
0.0008861738552
0.0008861787113
0.0008861756454
0.0008861794193
0.0008861724728
0.0008861726398
0.0008861754005
0.0008861633675
0.0008861654014
0.0008861662914
0.0008861687625
0.0008861705014
0.0008861711394
0.000886171985
0.0008861722199
0.0008861741778
0.0008861758222
0.0008861772803
0.000886176475
0.0008861809912
0.0008861775505
0.0008861687322
0.0008861688422
0.0008861690293
0.0008861695429
0.0008861708703
0.0008861711498
0.0008861713903
0.000886172723
0.0008861727673
0.0008861727651
0.0008861727882
0.0008861664497
0.0008861647192
0.0008861656376
0.0008861639263
0.000886167968
0.0008861648438
0.0008861696965
0.0008861671416
0.0008861679723
0.0008861706832
0.0008861690847
0.0008861713856
0.0008861719931
0.0008861701882
0.0008861704855
0.0008861725466
0.0008861707466
0.0008861710072
0.0008861731098
0.0008861713059
0.0008861723443
0.0008861725163
0.000886171355
0.0008861730022
0.0008861719657
0.0008861694817
0.0008861718909
0.0008861714123
0.000886170888
0.0008861706878
0.000886171024
0.0008861699902
0.0008861697959
0.0008861680095
0.0008861678445
0.0008861702148
0.00088616988
0.0008861715538
0.000886171939
0.0008861728924
0.0008861718499
0.0008861731693
0.0008861728764
0.0008861731886
0.0008861706117
0.0008861711203
0.0008861704832
0.0008861712821
0.0008861703149
0.000886170112
0.0008861698958
0.000886167732
0.0008861712377
0.0008861697038
0.0008861696082
0.0008861696798
0.0008861713597
0.0008861699897
0.000886169508
0.0008861705876
0.0008861712817
0.0008861706294
0.0008861732986
0.0008861718986
0.0008861737313
0.0008861723972
0.0008861727881
0.0008861730989
0.0008861743033
0.0008861733232
0.0008861735285
0.0008861730823
0.000886174126
0.0008861744531
0.0008861734665
0.0008861735782
0.0008861739604
0.0008861694969
0.0008861708639
0.000886171781
0.0008861713296
0.0008861711314
0.0008861723981
0.0008861727015
0.000886175138
0.0008861742049
0.0008861758253
0.0008861743747
0.0008861649647
0.0008861643106
0.0008861644187
0.0008861639166
0.0008861638515
0.0008861658531
0.0008861642628
0.0008861648669
0.0008861673765
0.0008861655325
0.0008861661574
0.0008861684467
0.0008861667254
0.0008861672479
0.000886169284
0.0008861677366
0.0008861682076
0.0008861700456
0.000886168659
0.0008861690933
0.0008861708038
0.00088616951
0.0008861699312
0.0008861715285
0.0008861703388
0.0008861707336
0.0008861708796
0.0008861643579
0.0008861649937
0.0008861637992
0.0008861644984
0.0008861641693
0.0008861642971
0.0008861640313
0.0008861640613
0.0008861652489
0.0008861642337
0.0008861645353
0.0008861663009
0.0008861649586
0.0008861654919
0.0008861673783
0.0008861661047
0.0008861667692
0.0008861684346
0.0008861674424
0.0008861680979
0.0008861694188
0.0008861687211
0.0008861693092
0.0008861701104
0.0008861697826
0.000886169992
0.0008861698513
0.0008861697457
0.0008861691393
0.000886167228
0.0008861656533
0.0008861664943
0.0008861647677
0.0008861659627
0.0008861655001
0.0008861644121
0.0008861651286
0.0008861648813
0.0008861646756
0.0008861647992
0.0008861649191
0.0008861655411
0.0008861652386
0.0008861657223
0.0008861667642
0.0008861663127
0.0008861669762
0.0008861680432
0.0008861676345
0.0008861682591
0.0008861692174
0.0008861688449
0.0008861694175
0.0008861700835
0.0008861699847
0.0008861704716
0.0008861698649
0.0008861708393
0.0008861707795
0.0008861706833
0.0008861707438
0.0008861675233
0.0008861686646
0.0008861695323
0.0008861664635
0.0008861681662
0.0008861676688
0.0008861688705
0.0008861656485
0.000886167195
0.0008861667908
0.0008861681265
0.0008861654904
0.000886166529
0.0008861664987
0.0008861662276
0.0008861667054
0.0008861671302
0.0008861682093
0.0008861675267
0.0008861677307
0.0008861684188
0.0008861688157
0.0008861690777
0.0008861696666
0.0008861699311
0.0008861701926
0.00088617069
0.0008861713719
0.0008861711139
0.0008861711805
0.0008861715971
0.000886171026
0.0008861724118
)
;

boundaryField
{
    walls
    {
        type            zeroGradient;
    }
    wallFilmFace_top
    {
        type            zeroGradient;
    }
    region0_to_wallFilmRegion_wallFilmFace
    {
        type            zeroGradient;
    }
    mirrorFace_top
    {
        type            zeroGradient;
    }
    region0_to_wallFilmRegion_mirrorFace
    {
        type            zeroGradient;
    }
    procBoundary3to2
    {
        type            processor;
        value           nonuniform List<scalar> 
64
(
0.0008861479497
0.0008861480294
0.0008861518682
0.0008861532881
0.0008861549874
0.0008861680161
0.000886169166
0.0008861669196
0.0008861697915
0.0008861475073
0.000886147462
0.0008861474548
0.0008861474548
0.0008861474719
0.0008861475062
0.0008861475954
0.0008861476996
0.0008861476773
0.0008861476584
0.0008861476461
0.0008861476268
0.0008861476016
0.0008861475894
0.0008861475894
0.0008861475621
0.0008861475652
0.0008861475652
0.0008861475509
0.0008861475455
0.0008861475455
0.0008861586501
0.0008861622203
0.0008861622203
0.0008861641995
0.0008861657126
0.0008861476986
0.000886153244
0.0008861476422
0.0008861475811
0.0008861577315
0.0008861618456
0.0008861654843
0.0008861655426
0.0008861649087
0.0008861662535
0.0008861680785
0.0008861476422
0.0008861577315
0.000886147534
0.0008861480192
0.0008861508929
0.0008861525363
0.0008861532881
0.0008861568458
0.0008861685239
0.0008861639644
0.0008861685216
0.0008861685566
0.0008861705018
0.000886170695
0.0008861648639
0.0008861656164
0.000886167074
0.0008861691345
)
;
    }
}


// ************************************************************************* //
