/*--------------------------------*- C++ -*----------------------------------*\
  =========                 |
  \\      /  F ield         | OpenFOAM: The Open Source CFD Toolbox
   \\    /   O peration     | Website:  https://openfoam.org
    \\  /    A nd           | Version:  8
     \\/     M anipulation  |
\*---------------------------------------------------------------------------*/
FoamFile
{
    version     2.0;
    format      ascii;
    class       volScalarField;
    location    "0.5/wallFilmRegion";
    object      T;
}
// * * * * * * * * * * * * * * * * * * * * * * * * * * * * * * * * * * * * * //

dimensions      [0 0 0 1 0 0 0];

internalField   nonuniform List<scalar> 
1342
(
299.9996229
299.9999672
299.9999416
299.9998701
299.9999856
299.9999799
299.999983
299.999932
299.9999124
299.9998866
299.9998531
299.9998106
299.9997587
299.9997966
299.9999122
299.9999809
299.9999807
299.9999848
299.9993758
299.9994858
299.9994301
299.9994145
299.9994484
299.9994884
299.999505
299.9998243
299.9997675
299.9996969
299.9996134
299.9995263
299.9994598
299.999534
299.9996872
299.9998252
299.9999273
299.999916
299.9989889
299.9992496
299.9992839
299.9992094
299.99917
299.9992044
299.9989744
299.9994951
299.9993745
299.999266
299.9992107
299.9992385
299.999192
299.9991012
299.999248
299.9988344
299.9987726
299.998735
299.9987159
299.9986969
299.9986649
299.9986619
299.9987141
299.9990171
299.9990423
299.9988974
299.9988054
299.9982062
299.998813
299.9987737
299.998746
299.9987301
299.9987107
299.9986822
299.9986671
299.9986832
299.9987402
299.9988294
299.998688
299.9986005
299.9990375
299.9989878
299.9988788
299.9988114
299.9987699
299.9987359
299.9987065
299.9986785
299.9988111
299.9987097
299.9988787
299.9988833
299.9986991
299.9988649
299.9989029
299.998937
299.9989362
299.9988861
299.9988178
299.9987709
299.9987334
299.9986619
299.9993532
299.9998495
299.999456
299.9995818
299.9995976
299.9996152
299.9999785
299.9999133
299.9995377
299.9995223
299.9999426
299.999525
299.9995448
299.9999931
299.9999973
299.9999971
299.9999911
299.9999969
299.9999967
299.9999891
299.9999963
299.9999959
299.999987
299.9999954
299.9999947
299.9999847
299.9999934
299.9999913
299.9999843
299.9999894
299.9999878
299.999984
299.9999864
299.9999852
299.9999836
299.9999845
299.9999841
299.9999826
299.999984
299.9999839
299.9999813
299.9999829
299.999982
299.9999971
299.9999846
299.9999908
299.9999971
299.9999966
299.9999929
300.0000084
299.9999883
299.9999907
300.0000054
300.0001598
300.0001944
299.9999927
300.0001552
300.0000766
299.9999899
300.0000443
300.0000302
299.9999881
300.0000236
300.0000273
299.9999886
300.0000275
300.0000247
299.9999881
300.0000454
300.0000215
299.999989
300.0000271
300.0001311
299.999984
300.0000013
299.9999954
299.9999829
299.9999835
299.9999836
299.9999856
299.9999847
299.9999861
299.999985
299.9999824
299.9999831
299.9999878
299.9999838
299.9999846
299.999986
299.999985
299.9999851
300.0000143
299.9999853
299.9999859
300
299.9999957
300.0001977
300
300
300
300
300
300
300.0001807
300
300
300.0001824
300
300
300
300
300
300.0001415
300
300
299.9999844
300.0000023
299.9999865
299.9999865
299.9999859
299.9999867
299.9999837
299.9999852
299.9999843
299.9999836
299.9999837
299.9999833
299.9999844
299.9999835
299.9999841
299.9999851
299.9999846
299.9999848
300.0000033
299.9999851
299.9999867
300
300.0001868
300
300
300
300
300
300
300
300
300
300
300
300
300
300
300
300
300.0000096
300.0001574
300.0001359
299.999987
299.9999879
299.9999871
299.9999888
299.999988
299.9999892
299.9999847
299.9999865
299.9999854
299.9999834
299.9999844
299.9999837
299.9999839
299.9999836
299.999984
299.9999847
299.9999844
299.9999846
299.999986
299.9999848
299.9999873
300
300.0001813
300
300
300
300
300
300
300
300
300
300
300
300
300
300
300
300
300.0001326
300.0001643
300.0001584
299.9999875
300.0002086
300.0002253
299.9999896
299.9999881
299.9999886
299.9999867
299.999989
299.9999866
299.9999839
299.9999849
299.999984
299.9999842
299.999984
299.9999842
299.9999846
299.9999845
299.9999847
300.0000491
299.9999979
300
300
300
300
300
300
300
300
300
300
300.0001088
300
300
299.9999963
300.0000059
299.9999966
299.9999752
299.9999957
299.9999941
299.9999868
299.9999906
299.9999855
299.9999875
299.9999826
299.9999802
299.9999909
299.9999907
299.9999864
299.9999886
299.9999856
299.9999841
299.9999845
299.9999844
299.9999843
299.9999851
299.9999887
299.9999953
300.0000008
299.9999972
300.000127
299.9999959
299.9999966
300.0001255
299.9999991
300
300.0001114
300.0000009
299.9999962
300
299.9999953
299.9999967
300.0000309
299.9999869
299.9999924
299.9999976
299.9999979
299.9999979
299.9999965
299.9999977
299.9999975
299.9999932
299.9999973
299.9999956
299.9999805
299.999978
299.9999807
299.99999
299.9999926
299.9999856
299.9999913
299.9999903
299.9999912
299.999996
299.999997
299.9999959
299.9999973
299.9999976
299.9999956
299.9999979
299.9999983
299.9999949
299.9999985
299.9999987
299.9999937
299.9999989
299.999999
299.9999932
299.999999
299.999999
299.9999934
299.9999988
299.9999974
299.9999966
299.9999856
299.999973
299.9999927
299.9999605
299.9999605
299.9999716
299.9999632
299.9999665
299.9992893
299.9991676
299.9991868
299.9991126
299.9990652
299.9991075
299.9990238
299.9989873
299.9990406
299.9989555
299.9989259
299.9990288
299.998914
299.9989097
299.9990433
299.9989328
299.9988928
299.9989684
299.9988598
299.998832
299.9989767
299.9988283
299.9988435
299.9990429
299.9988801
299.9989644
299.999199
299.9992655
299.9993279
299.9993914
299.9995218
299.9994094
299.9990662
299.9989693
299.9988992
299.9988498
299.9988315
299.9988032
299.9987604
299.9987801
299.9989903
299.9989418
299.9988062
299.9987979
299.9987885
299.9987801
299.9987513
299.9989577
299.9987821
299.9987974
299.9990891
299.9989091
299.9992128
299.999059
299.9991744
299.9988766
299.9988001
299.9987512
299.9987677
299.9987506
299.9987231
299.9987385
299.9987077
299.9986791
299.9987077
299.9986927
299.9986576
299.9986797
299.998672
299.9986805
299.9987807
299.9988953
299.9987743
299.9990481
299.9988976
299.999001
299.9989271
299.9988371
299.9988219
299.9987372
299.9987978
299.9987385
299.9987239
299.9986719
299.9987102
299.9986984
299.9986697
299.9986893
299.9987081
299.9987464
299.9988304
299.999158
299.99903
299.9988321
299.9987284
299.9988514
299.9999842
299.9996133
299.9999834
299.9995385
299.9999827
299.9994766
299.9999825
299.9994231
299.9999829
299.9994105
299.9999828
299.9992682
299.9999825
299.9992574
299.9999819
299.9992817
299.9995063
299.9999814
299.999295
299.999994
299.9999921
299.9999901
299.999988
299.9999852
299.9999845
299.9999841
299.9999838
299.9999833
299.9999815
299.9999812
299.9999737
299.9999827
299.9999344
299.9999928
299.9999982
300.0000041
300.0000093
299.9999967
299.9999911
299.9999889
299.999988
299.9999884
299.9999885
299.9999871
299.9999824
299.9999841
299.9999849
299.9999813
299.9999868
299.999982
299.9999872
299.9999866
299.9999867
300.0001977
300
300.0001853
300
300
300
300.0001289
299.9999848
299.9999852
299.9999878
299.9999842
299.9999835
299.999984
299.9999848
299.9999857
300.0001949
300
300
300
300
300
300.0001729
299.9999865
299.999988
299.9999855
299.999984
299.9999834
299.9999844
299.9999849
300.0001708
300
300
300
300
300
300
300.0000508
299.9999881
299.9999885
299.999985
299.9999839
299.9999844
299.999985
300
300
300
300
299.999998
299.9999925
299.999981
299.999987
299.999988
299.9999892
299.9999846
299.9999841
299.9999847
300.0000583
300.0001303
300
300.0000984
300.00007
299.9999987
299.999997
299.999996
299.999984
299.9999796
299.9999911
299.999987
299.9999864
299.9999956
299.9999958
299.9999954
299.9999939
299.9999946
299.9999928
299.9999938
299.9999971
299.9999812
299.9999692
299.9999775
299.9999964
299.9999993
299.9999993
299.9999991
299.999999
299.9999988
299.9999988
299.9999918
299.9999741
299.9999588
299.9999675
299.9999875
299.9999692
299.9993498
299.9992345
299.9991449
299.9990746
299.999027
299.9990972
299.9990042
299.9989657
299.9990018
299.9991386
299.999273
299.9991294
299.9994737
299.9994916
299.9995267
299.999414
299.9995957
299.9996167
299.9990139
299.9989314
299.9988686
299.9988724
299.9988219
299.9988396
299.9988331
299.9987786
299.9987408
299.9987608
299.9987342
299.9988208
299.9992136
299.9991489
299.9990951
299.9985718
299.998873
299.9990246
299.9991335
299.9989293
299.9988367
299.9989202
299.9990919
299.9989934
299.9989491
299.9988388
299.9987913
299.9987628
299.9986629
299.9986562
299.9985605
299.9984847
299.9985078
299.9983775
299.9986866
299.9988195
299.9987889
299.9987122
299.9987103
299.9986753
299.9987485
299.9987542
299.9987662
299.9987214
299.9985815
299.9986153
299.9985277
299.9985972
299.9991098
299.9990813
299.9989975
299.9988974
299.9989308
299.9988511
299.9988828
299.9988416
299.9988029
299.9987621
299.999139
299.9991392
299.9990976
299.9990446
299.998989
299.9989331
299.9988799
299.9988327
299.9988157
299.9990767
299.9991098
299.9991126
299.9990823
299.9990262
299.9989591
299.9988951
299.9988384
299.9988175
299.9989818
299.9990323
299.999061
299.9990451
299.9989891
299.9989182
299.9988567
299.9987983
299.9987473
299.9999846
299.9996547
299.9999871
299.9994059
299.9999838
299.9995742
299.9999863
299.9999855
299.9993536
299.9993073
299.999983
299.999506
299.9999849
299.9999842
299.9992668
299.9992305
299.9999826
299.9994459
299.9999837
299.9999831
299.9991983
299.999162
299.9999828
299.9994185
299.9999829
299.999983
299.9991433
299.9991453
299.9999829
299.9993023
299.9999831
299.999983
299.9992765
299.9991997
299.9999827
299.999246
299.9999829
299.9999827
299.9991598
299.9991236
299.9999822
299.9992651
299.9999824
299.999982
299.9991296
299.9991399
299.9999816
299.9992953
299.9999817
299.9999814
299.9991592
299.9991722
299.9999812
299.999981
299.9992074
299.9999808
299.9999816
299.9999817
299.9999823
299.9999835
299.999985
299.9995855
299.9999876
299.9996243
299.9996265
299.9999882
299.999988
299.9999592
299.9999885
299.9995868
299.9995576
299.9999843
299.9999788
299.9999805
299.9999798
299.9999825
299.9996138
299.9997166
299.999803
299.9999797
299.9999819
299.9998232
299.9999729
299.9999702
299.9999871
299.9999739
299.999981
299.9999813
299.9999763
299.9998312
299.9998179
299.9997924
299.9999951
299.999994
299.9999414
299.9998911
299.9999988
299.9999937
299.9999934
299.9999229
299.9998648
299.9998442
299.9999993
299.9999932
299.9999931
299.9999003
299.999821
299.999795
299.9999992
299.999993
299.9999929
299.9998709
299.9997661
299.9997341
299.999999
299.9999929
299.9999927
299.9998331
299.9996995
299.9996632
299.9999989
299.9999926
299.9999923
299.9997858
299.9996265
299.999592
299.9999988
299.999992
299.9999914
299.9997322
299.9995624
299.9995472
299.9999987
299.9999911
299.9999914
299.9998578
299.9996275
299.9997131
299.9999816
299.9999918
299.9999913
299.9999558
299.9997841
299.9998509
299.9999601
299.999967
299.999966
299.9999805
299.9999422
299.9999746
299.9999596
299.999963
299.9999634
299.9999825
299.999983
299.9999851
299.9999868
299.9999681
299.9999654
299.9999693
299.9999815
299.9998302
299.9998679
299.9994661
299.9993748
299.9995137
299.9994161
299.9992879
299.999453
299.9993794
299.9992903
299.9993408
299.999413
299.9993135
299.9992928
299.9994308
299.9992906
299.9993056
299.9994699
299.9994944
299.9993201
299.9993459
299.9993282
299.9994973
299.9993576
299.999511
299.9992927
299.9992998
299.9993258
299.9998609
299.9997976
299.9997339
299.999651
299.9996564
299.9996039
299.9995535
299.9995692
299.9995009
299.9994487
299.9994883
299.9994007
299.9993617
299.9994525
299.9993387
299.9993433
299.9996228
299.9994062
299.9994704
299.9997566
299.9994863
299.9994983
299.9998919
299.9995537
299.9996626
299.9999355
299.9997483
299.9997823
299.9998747
299.9997889
299.9994148
299.999307
299.9992922
299.9989015
299.9988423
299.9987574
299.9987313
299.9991754
299.9990168
299.9991495
299.9991716
299.9991946
299.9991055
299.9991874
299.999298
299.999242
299.9991496
299.9991324
299.9991243
299.9991781
299.9990774
299.9989399
299.9991898
299.9990891
299.9990618
299.9989276
299.9992306
299.9990902
299.9990718
299.9990417
299.9990152
299.9988673
299.9988263
299.9990342
299.9989935
299.9989212
299.9988678
299.9994467
299.9995523
299.9994351
299.9993814
299.9993148
299.9992496
299.9991893
299.9993165
299.999139
299.9991041
299.9992287
299.9992159
299.9990873
299.999084
299.9990757
299.9990414
299.9992342
299.9989089
299.9991376
299.9989813
299.9988298
299.9991333
299.9987437
299.9992747
299.9986079
299.998226
299.9988246
299.9979114
299.9983265
299.9986648
299.9988561
299.9988197
299.9987906
299.9987308
299.9987253
299.9987188
299.9986726
299.998684
299.9987085
299.998746
299.9987927
299.9987582
299.9987229
299.9986959
299.9988752
299.9988026
299.9988719
299.9989587
299.9990477
299.9989834
299.9988804
299.9988747
299.9988574
299.9988028
299.9987629
299.9987994
299.9987153
299.9989023
299.9989355
299.9988099
299.9988253
299.9986683
299.9987931
299.9987529
299.9988082
299.9989289
299.998774
299.9988727
299.9988265
299.9987234
299.9987207
299.9987417
299.9987166
299.9986594
299.9986044
299.9986158
299.9985636
299.9985327
299.9985401
299.9985286
299.9984679
299.9985232
299.9986238
299.9983711
299.9985307
299.9983343
299.9986958
299.9986871
299.9985434
299.9991696
299.9990638
299.9990174
299.9988888
299.9987984
299.9987651
299.9987211
299.9987089
299.998607
299.9985215
299.9984456
299.9984875
299.9982525
299.9984315
299.9988904
299.9988847
299.998875
299.9988482
299.9987792
299.9987646
299.9987521
299.9986827
299.9986804
299.9986806
299.9986793
299.9990092
299.9990993
299.9990515
299.9991405
299.9989302
299.9990928
299.9988402
299.9989732
299.99893
299.9987889
299.9988721
299.9987523
299.9987207
299.9988146
299.9987992
299.9986919
299.9987856
299.998772
299.9986626
299.9987565
299.9987024
299.9986935
299.9987539
299.9986682
299.9987221
299.9988514
299.998726
299.998751
299.9987782
299.9987887
299.9987712
299.998825
299.9988351
299.998928
299.9989366
299.9988133
299.9988307
299.9987436
299.9987235
299.9986739
299.9987282
299.9986595
299.9986748
299.9986585
299.9987926
299.9987661
299.9987993
299.9987577
299.9988081
299.9988186
299.9988299
299.9989425
299.99876
299.9988399
299.9988448
299.9988411
299.9987537
299.998825
299.99885
299.9987939
299.9987577
299.9987917
299.9986528
299.9987256
299.9986303
299.9986997
299.9986794
299.9986632
299.9986005
299.9986515
299.9986408
299.998664
299.9986097
299.9985927
299.9986441
299.9986382
299.9986183
299.9988506
299.9987795
299.9987318
299.9987553
299.9987656
299.9986997
299.9986839
299.9985571
299.9986056
299.9985213
299.9985968
299.9990865
299.9991205
299.9991149
299.999141
299.9991444
299.9990402
299.999123
299.9990916
299.998961
299.9990569
299.9990244
299.9989053
299.9989948
299.9989677
299.9988617
299.9989422
299.9989177
299.9988221
299.9988942
299.9988716
299.9987826
299.9988499
299.998828
299.9987449
299.9988068
299.9987863
299.9987787
299.9991181
299.999085
299.9991471
299.9991107
299.9991279
299.9991212
299.999135
299.9991335
299.9990717
299.9991245
299.9991088
299.9990169
299.9990868
299.999059
299.9989609
299.9990272
299.9989926
299.9989059
299.9989575
299.9989234
299.9988547
299.998891
299.9988604
299.9988187
299.9988358
299.9988249
299.9988322
299.9988377
299.9988692
299.9989687
299.9990506
299.9990069
299.9990967
299.9990345
299.9990586
299.9991152
299.9990779
299.9990908
299.9991015
299.9990951
299.9990888
299.9990565
299.9990722
299.999047
299.9989928
299.9990163
299.9989818
299.9989263
299.9989475
299.998915
299.9988652
299.9988846
299.9988548
299.9988201
299.9988252
299.9987999
299.9988315
299.9987808
299.9987839
299.9987889
299.9987857
299.9989533
299.9988939
299.9988488
299.9990085
299.9989199
299.9989458
299.9988832
299.9990509
299.9989704
299.9989914
299.9989219
299.9990591
299.9990051
299.9990066
299.9990208
299.9989959
299.9989738
299.9989176
299.9989532
299.9989425
299.9989067
299.9988861
299.9988724
299.9988418
299.998828
299.9988144
299.9987885
299.9987531
299.9987665
299.998763
299.9987413
299.9987711
299.9986989
)
;

boundaryField
{
    walls
    {
        type            zeroGradient;
    }
    wallFilmFace_top
    {
        type            zeroGradient;
    }
    region0_to_wallFilmRegion_wallFilmFace
    {
        type            zeroGradient;
    }
    mirrorFace_top
    {
        type            zeroGradient;
    }
    region0_to_wallFilmRegion_mirrorFace
    {
        type            zeroGradient;
    }
    procBoundary3to2
    {
        type            processor;
        value           nonuniform List<scalar> 
64
(
299.9999719
299.9999678
299.999768
299.9996941
299.9996057
299.9989277
299.9988678
299.9989847
299.9988353
299.999995
299.9999973
299.9999977
299.9999977
299.9999968
299.999995
299.9999904
299.9999849
299.9999861
299.9999871
299.9999877
299.9999887
299.99999
299.9999907
299.9999907
299.9999921
299.9999919
299.9999919
299.9999927
299.999993
299.999993
299.9994151
299.9992293
299.9992293
299.9991263
299.9990476
299.999985
299.9996964
299.9999879
299.9999911
299.9994629
299.9992488
299.9990594
299.9990564
299.9990894
299.9990194
299.9989244
299.9999879
299.9994629
299.9999936
299.9999683
299.9998188
299.9997332
299.9996941
299.999509
299.9989013
299.9991385
299.9989014
299.9988996
299.9987983
299.9987883
299.9990917
299.9990526
299.9989767
299.9988695
)
;
    }
}


// ************************************************************************* //
