/*--------------------------------*- C++ -*----------------------------------*\
  =========                 |
  \\      /  F ield         | OpenFOAM: The Open Source CFD Toolbox
   \\    /   O peration     | Website:  https://openfoam.org
    \\  /    A nd           | Version:  8
     \\/     M anipulation  |
\*---------------------------------------------------------------------------*/
FoamFile
{
    version     2.0;
    format      ascii;
    class       volVectorField;
    location    "0.5/wallFilmRegion";
    object      U;
}
// * * * * * * * * * * * * * * * * * * * * * * * * * * * * * * * * * * * * * //

dimensions      [0 1 -1 0 0 0 0];

internalField   nonuniform List<vector> 
1342
(
(5.301584647 2.661228667 -11.50800977)
(0.007050812219 -0.009088062601 -11.44291818)
(0.05558057212 0.3516947729 -11.7419221)
(-0.05839154735 1.112954465 -12.0684462)
(0.1388127176 -0.5538390099 -4.955782525)
(-0.6060001459 0.7821102624 -0.01948679044)
(-0.6437561481 0.5215321651 -1.888525245)
(-7.047211888 -0.01142909638 -9.408699446)
(-6.288331659 -0.01259976529 -9.939365245)
(-5.406474421 -0.01396174601 -10.50913238)
(-4.394023728 -0.01558322584 -11.18756756)
(-3.201440588 -0.01761091937 -12.10533353)
(-1.602115652 -0.0207495168 -13.53360001)
(1.527757284 -0.02186695523 -13.25162165)
(1.894554777 -0.01761518811 -10.42638865)
(-0.374843984 -0.006353097272 -4.113896588)
(-0.7017220192 0.06108464597 -3.279224026)
(-0.6984214718 0.1794654341 -3.561240734)
(2.079755371 0.5211925496 -10.87393179)
(0.09312678927 -1.09395346 -10.98857688)
(0.470531551 -0.2275912173 -10.91104352)
(0.4594648946 1.159446037 -11.02262178)
(0.0412779164 1.75040391 -10.8058144)
(-1.007721292 1.730637635 -9.853340638)
(-1.037611953 1.161700501 -8.372169051)
(-7.808483799 0.4729296991 -8.401271423)
(-6.932985575 0.4764624642 -8.797383781)
(-5.949299605 0.5010446266 -9.220338647)
(-4.848802565 0.5163541241 -9.745167426)
(-3.573810328 0.5795267962 -10.4959854)
(-1.872495995 0.6412141272 -11.70027289)
(0.9388613007 0.5906430739 -11.09650854)
(0.2857215965 0.4342744755 -8.54189453)
(-0.8396778537 0.346692168 -7.179100711)
(-0.6907751536 0.2934709397 -5.542533892)
(-0.6535648764 0.3575497018 -5.349497582)
(2.526147784 -2.222955214 -10.13268838)
(0.09442472732 -3.423369102 -10.1224871)
(1.316290531 -2.57756303 -9.733229284)
(2.482873276 -0.5750480811 -9.556297082)
(2.530969833 1.322981956 -9.556226134)
(1.921102095 2.220083378 -9.71398158)
(-0.4738600907 2.716010337 -7.649672014)
(-6.611814199 1.879372595 -7.404881881)
(-5.607180174 1.966850982 -7.75379794)
(-4.440518501 2.08302619 -8.227656032)
(-2.956183823 2.211623299 -8.786009574)
(-1.555243051 2.048186194 -8.070288981)
(-1.728571963 1.834991261 -7.305081302)
(-1.823126948 1.736703616 -6.925646174)
(-0.9797383668 1.552715265 -5.940882402)
(-11.03912967 -3.623441211 -6.885861463)
(-10.10172428 -3.771877009 -7.217501802)
(-8.96895412 -4.011081039 -7.692672393)
(-7.586192749 -4.505018378 -8.573427597)
(-5.591889154 -5.666102793 -10.85608263)
(-1.525390832 -5.544193427 -10.55005404)
(0.3997059108 -4.538509722 -8.658477589)
(0.5296397071 -4.085975939 -7.956316366)
(0.04397252513 -5.64481791 -8.812790879)
(3.36118637 -2.686814901 -7.722091155)
(2.617225242 3.960742955 -8.198064243)
(1.402043964 5.009276956 -8.662400444)
(-1.174194198 4.322180397 -6.911456326)
(-13.39563823 -4.028616744 -4.40384917)
(-12.60091606 -4.211635237 -4.57589091)
(-11.64278577 -4.427615716 -4.780749133)
(-10.42549358 -4.627019921 -5.040513953)
(-8.808055133 -4.840405035 -5.24681406)
(-6.8724472 -5.009337902 -5.460455169)
(-4.829390182 -5.298095345 -5.766729381)
(-2.766253682 -5.984618011 -6.110650677)
(-1.311245298 -7.03506675 -7.15274265)
(3.525270082 -3.625014077 -5.190568162)
(3.100001161 4.983558412 -6.12050677)
(1.44427334 6.680313605 -7.239171052)
(-14.89211333 -3.748768517 -2.37833559)
(-14.0327303 -3.902122377 -2.483253948)
(-13.07002002 -4.085768919 -2.587070289)
(-11.98341446 -4.278838769 -2.731644664)
(-10.73830467 -4.520225922 -2.890433009)
(-9.282408369 -4.812330474 -3.096734237)
(-7.529814563 -5.212245034 -3.348570083)
(-5.427505133 -5.986124572 -3.199125684)
(-2.019023584 -5.918836944 -1.657858501)
(2.39001815 -4.479596595 -3.07115564)
(3.9485577 -1.929695542 -2.335344834)
(3.671944363 1.775015139 -1.943826157)
(3.201172769 4.217997354 -2.926253056)
(-15.20956607 4.122051998 -2.01531982)
(-14.49958545 4.341156297 -2.126066176)
(-13.64803656 4.574685466 -2.230346974)
(-12.63791311 4.822646754 -2.340448653)
(-11.43711024 5.094519189 -2.459762792)
(-9.994706263 5.400255026 -2.601923178)
(-8.220154172 5.75795088 -2.830489757)
(-5.811258791 6.589903529 -2.598192057)
(-2.331068084 7.524262461 -3.166738958)
(5.61670715 2.147263979 -11.35809917)
(3.554163061 2.170683556 -11.30545929)
(3.201990773 1.61367137 -11.06174711)
(0.9570752958 0.6040098553 -11.00537038)
(-0.9246489042 -0.9275203345 -11.3984304)
(-0.6251827697 -0.816167652 -11.45192095)
(0.1726087186 0.1256842633 -11.38153343)
(0.03493183681 0.5262521557 -11.89714449)
(-0.027866202 -0.1153926866 -11.42833926)
(-0.008885092462 0.1139476239 -11.59032578)
(-0.231083342 1.41227334 -11.50535196)
(-0.0758668064 1.108086499 -11.59567973)
(-0.2222683546 1.413585865 -11.29290705)
(-0.5384799767 0.0477301339 -7.68651341e-05)
(-0.2575261765 0.0274042451 -4.326389505e-05)
(-0.1988885281 0.01822480224 -2.947771849e-05)
(-0.3972087977 0.04938976537 -7.872328873e-05)
(-0.1608888044 0.01586338387 -2.496366882e-05)
(-0.1158588079 0.01457459018 -2.328747408e-05)
(-0.2452152174 0.05095052638 -8.108307675e-05)
(-0.06109464249 0.01514173331 -2.405768405e-05)
(0.01028684594 0.01678271766 -2.670475621e-05)
(-0.05645333155 0.05217816867 -8.298522476e-05)
(0.07929168379 0.02439769896 -3.872339829e-05)
(0.1194095464 0.0297776108 -4.743006051e-05)
(0.2736455097 0.0614314947 -9.787884579e-05)
(0.1539046956 0.03232002885 -5.134020458e-05)
(0.1946855032 0.0343776012 -5.512168029e-05)
(0.4456176714 0.06023516295 -9.565806542e-05)
(0.2267522845 0.03430552966 -5.456349319e-05)
(0.2501120972 0.03304527149 -5.27139329e-05)
(0.5479278653 0.05280968599 -8.422176013e-05)
(0.2653310116 0.0312373289 -5.033926546e-05)
(0.2745707409 0.02931582109 -4.631338429e-05)
(0.5702402034 0.04461036068 -6.981395866e-05)
(0.280783583 0.0275294285 -4.422387567e-05)
(0.2875095002 0.02594149408 -4.083542583e-05)
(1.213382641 0.06602503568 -7.714559414e-05)
(0.2992171422 0.02435174106 -3.887999019e-05)
(0.3605320466 0.02455262291 -3.844493231e-05)
(2.19249406 0.2234930781 -0.0006783838349)
(1.332386325 0.1110562359 -0.0001617521025)
(2.366922959 0.3140541751 -0.0005254668256)
(-0.2169220249 0.06837941546 -0.0001086719815)
(-0.03541656365 0.1246511243 -0.0001985886921)
(-0.07349851712 0.1186017142 -0.0001888650478)
(-0.00118410537 0.0008941898533 -1.423616807e-06)
(0.08444249716 0.1385969292 -0.0002205886937)
(0.1000176012 0.1133579904 -0.0001807134368)
(-0.0002763534713 2.376752786e-05 -3.743643802e-08)
(0.03416275409 0.03595651941 -5.728912281e-05)
(0.0004466388599 0.0004351963647 -6.925738756e-07)
(0.0002698963381 2.804133861e-05 -4.368139898e-08)
(2.884918517e-10 -1.330931088e-08 2.115900883e-11)
(1.945708634e-10 -3.752935148e-09 5.976130662e-12)
(0.01227364122 0.001675439537 -2.665728488e-06)
(2.424837621e-08 -8.451202687e-08 1.345111123e-10)
(4.049814853e-07 -5.295410909e-07 8.430028804e-10)
(0.0275588122 0.003593375272 -5.706474635e-06)
(1.293678406e-06 -5.457564961e-07 8.678344595e-10)
(2.473445735e-06 -2.398095706e-07 3.847348917e-10)
(0.02965458225 0.003538091709 -5.648807652e-06)
(3.036181555e-06 6.217725217e-08 -1.010199702e-10)
(1.426815237e-06 -1.154954941e-07 1.850813825e-10)
(0.04730145264 0.004637841032 -7.340732289e-06)
(2.787479515e-06 -2.303517113e-07 3.654987777e-10)
(6.793727359e-06 1.549336749e-07 -2.538088191e-10)
(0.09807672742 0.006786368786 -1.079710864e-05)
(2.035299585e-06 -5.329247842e-07 8.486468935e-10)
(0.0001120821837 -1.02400802e-05 1.638577888e-08)
(0.1607424864 0.0002508275708 -1.244374186e-07)
(4.375374508e-05 -1.786937393e-06 2.776316955e-09)
(6.578634499e-06 -5.571864598e-06 8.882159168e-09)
(1.005974212 0.09823910528 -0.0001549266378)
(0.02602767755 0.001407448454 -2.293917454e-06)
(0.09050460469 0.008675787097 -1.363945923e-05)
(3.352539123 0.9647900248 -0.00153569632)
(1.735742361 0.3893190362 -0.0006253939859)
(3.18101255 1.040253662 -0.001653875132)
(3.282664428 1.121613491 -0.001790349066)
(3.381321986 1.159997783 -0.001843129828)
(3.347303711 1.22642952 -0.001960439859)
(0.02262080774 0.1692929048 -0.0002696572521)
(0.03191607245 0.2267528875 -0.0003606144814)
(0.06292788851 0.2162495061 -0.0003442940428)
(0.1383268365 0.159685376 -0.0002544509309)
(0.1319602702 0.217134245 -0.0003460920453)
(0.1623668254 0.1959381582 -0.0003124641423)
(0.07162487464 0.06978243089 -0.0001111676714)
(0.1538008926 0.1616177375 -0.0002573771961)
(0.1242394938 0.1224035516 -0.0001947323002)
(4.163413047e-07 2.228123794e-07 -3.546128311e-10)
(0.08703925888 0.08279594272 -0.0001316889886)
(0.01575597216 0.01475640044 -2.348885667e-05)
(1.060196874e-11 -4.89862256e-11 7.810434158e-14)
(3.255124922e-06 2.871074122e-06 -4.569288014e-09)
(1.031608835e-11 -4.554894075e-11 7.243786894e-14)
(1.986092306e-11 -5.076707099e-11 8.08347891e-14)
(1.413506786e-11 -4.375545143e-11 6.961134674e-14)
(1.784851394e-11 -4.396104677e-11 6.99962904e-14)
(3.342386502e-11 -5.49950521e-11 8.755236691e-14)
(2.34646443e-11 -4.421025072e-11 7.046736038e-14)
(2.997736604e-11 -4.530505437e-11 7.225160343e-14)
(4.9269326e-11 -5.805347112e-11 9.237633538e-14)
(3.775995759e-11 -4.59831403e-11 7.328947024e-14)
(4.761337602e-11 -4.632146625e-11 7.369425554e-14)
(1.074653825e-10 -8.597793371e-11 1.372387496e-13)
(6.061878479e-11 -4.716683473e-11 7.50361719e-14)
(7.764521285e-11 -3.616516581e-11 5.770650464e-14)
(1.123404093e-10 -7.153033847e-11 1.140951692e-13)
(9.921072938e-11 -4.92617608e-11 7.838237513e-14)
(1.258072983e-10 -5.068449769e-11 8.034201734e-14)
(1.492318713e-06 -5.540362132e-07 8.8527352e-10)
(1.59145482e-10 -4.325124455e-11 6.888329412e-14)
(1.93925396e-10 -4.596886637e-11 7.316685547e-14)
(1.365662563 0.3335324152 -0.0005285589208)
(0.009708939559 0.002413983191 -3.834166727e-06)
(0.494328989 0.1230298489 -0.0001956215245)
(3.348376425 1.316789598 -0.002097846961)
(1.988125461 0.7637641516 -0.001217276469)
(3.172771312 1.350268541 -0.002156998167)
(0.07460434776 0.2616249811 -0.0004169016765)
(0.04477680006 0.3229138671 -0.0005140079047)
(0.07763123061 0.2893710654 -0.0004604723189)
(0.1738716621 0.2262701083 -0.0003602000018)
(0.1335516297 0.2745313497 -0.0004371270675)
(0.1751326612 0.2504150329 -0.0003989878852)
(0.1555336988 0.1571226286 -0.0002505115032)
(0.1856232977 0.2170664155 -0.0003459687744)
(0.1728284737 0.1811577931 -0.0002889533682)
(0.08211981122 0.07760857018 -0.0001236557497)
(0.1478577542 0.1462488909 -0.0002327088101)
(0.1117386644 0.1075332386 -0.0001712124256)
(1.179749275e-07 7.970007503e-08 -1.270572645e-10)
(0.04857734099 0.04621390664 -7.35688069e-05)
(0.0001323819682 0.0001239289656 -1.97536679e-07)
(1.752568792e-11 -2.73018872e-11 4.347283056e-14)
(3.835644723e-11 -1.896813392e-11 3.024438747e-14)
(1.822888558e-11 -1.788718744e-11 2.848223658e-14)
(3.022587011e-11 -2.740599404e-11 4.364233382e-14)
(2.342419126e-11 -1.749172512e-11 2.779393809e-14)
(3.141420016e-11 -1.686687923e-11 2.694089165e-14)
(5.013689937e-11 -2.618137809e-11 4.153751573e-14)
(4.188234182e-11 -1.567887707e-11 2.500381647e-14)
(5.576507465e-11 -1.36082566e-11 2.155994594e-14)
(8.376664476e-11 -2.152543202e-11 3.435935707e-14)
(7.475068773e-11 -1.018108538e-11 1.627275615e-14)
(9.837516181e-11 -5.207443478e-12 8.277329116e-15)
(1.364859195e-10 -1.254132339e-11 2.01382644e-14)
(1.26414766e-10 3.026157899e-12 -5.167968199e-15)
(1.597744857e-10 1.275879324e-11 -2.010498397e-14)
(2.073890901e-10 -1.721947337e-12 2.749927828e-15)
(1.983678421e-10 2.549930923e-11 -4.056010389e-14)
(2.406225357e-10 4.413826946e-11 -7.028253313e-14)
(0.003424888802 0.0008525550159 -1.358765283e-06)
(2.97041827e-10 6.468783306e-11 -1.030277459e-13)
(3.416813527e-08 -4.272127594e-09 6.841712121e-12)
(2.919044259 1.479091981 -0.002358845197)
(0.7037928209 0.2981182105 -0.0004753291928)
(1.775116524 0.9026327735 -0.001440147816)
(2.918027713 1.632552657 -0.002599646839)
(2.908914745 1.56682327 -0.002490282112)
(2.716859537 1.741433403 -0.002775962823)
(0.08047340916 0.3110253415 -0.0004952375527)
(0.04612979989 0.3763578583 -0.0005994071657)
(0.07974580935 0.3430681481 -0.0005468717697)
(0.1699102361 0.2680134926 -0.0004268380891)
(0.1243343415 0.3147127868 -0.0005014462183)
(0.1603074753 0.2780399108 -0.0004420500774)
(0.1776886046 0.1951518718 -0.000310353149)
(0.1753754157 0.2367099307 -0.0003772872146)
(0.1702734833 0.1966657904 -0.0003129803829)
(0.1211266976 0.1197303414 -0.0001909218079)
(0.1500683368 0.1590998107 -0.0002534317236)
(0.1173843686 0.1203175049 -0.0001914874362)
(0.0002775961019 0.0002682631354 -4.265238559e-07)
(0.03993326687 0.04031424337 -6.407549875e-05)
(1.324778099e-05 1.350357127e-05 -2.149359174e-08)
(2.012070632e-11 -6.354771927e-12 1.015180025e-14)
(1.623036112e-11 -1.274251223e-12 2.037526741e-15)
(2.235962819e-11 -3.012766849e-13 4.756698771e-16)
(3.582811229e-11 -3.058699287e-12 4.912086143e-15)
(3.04413861e-11 2.383973467e-12 -3.782347165e-15)
(4.112616702e-11 5.915380295e-12 -9.424962549e-15)
(6.399732256e-11 3.895565641e-12 -6.217934325e-15)
(5.610501632e-11 1.074687418e-11 -1.713677636e-14)
(7.543344853e-11 1.685243337e-11 -2.680198598e-14)
(1.155643492e-10 2.431503406e-11 -3.852629857e-14)
(1.108282422e-10 2.658701976e-11 -4.230046367e-14)
(1.419880958e-10 3.415596888e-11 -5.412699515e-14)
(1.903721673e-10 5.632655216e-11 -8.96244249e-14)
(1.736046082e-10 4.095567747e-11 -6.532945247e-14)
(2.238611129e-10 4.641073011e-11 -7.365363099e-14)
(3.02969082e-10 1.160094573e-10 -1.846735569e-13)
(2.503630752e-10 7.17739969e-11 -1.1423952e-13)
(3.114415328e-10 1.692737183e-10 -2.697910137e-13)
(5.45890833e-10 1.803624697e-10 -2.859950818e-13)
(6.841030107e-07 4.385208291e-07 -6.996321491e-10)
(3.853121064e-05 -1.130766027e-06 1.807620251e-09)
(0.6767084497 -0.1853331961 0.0002946178403)
(0.5117293924 -0.331230424 0.0005284121816)
(0.5757929158 -0.2684836823 0.0004283084458)
(2.447145813 1.935196239 -0.003086680917)
(2.625357349 3.259151316 -0.005194466759)
(1.883293732 2.253359215 -0.003593651595)
(0.07840688746 0.3734378892 -0.0005945900352)
(-0.06112199489 0.4884813293 -0.000779057161)
(0.07342898174 0.364159703 -0.0005805493604)
(0.1473205366 0.2755711043 -0.0004392621613)
(0.1110296468 0.3146129129 -0.0005014014328)
(0.130053646 0.2540072443 -0.0004052012297)
(0.1513299261 0.1838144398 -0.000292863804)
(0.1318197818 0.1992294177 -0.0003173671652)
(0.1231651048 0.1572550329 -0.0002505502733)
(0.09178454104 0.09807192913 -0.0001562986949)
(0.0968472733 0.1128839331 -0.0001797165299)
(0.01127871847 0.01261778139 -2.0073579e-05)
(6.496333179e-10 1.039135318e-09 -1.654852219e-12)
(1.113871656e-08 2.684795633e-08 -4.275759323e-11)
(1.673837708e-11 7.053656775e-12 -1.121392561e-14)
(2.883511387e-11 1.373077765e-11 -2.18386945e-14)
(2.378526223e-11 1.242477863e-11 -1.979755967e-14)
(3.341611621e-11 1.768053626e-11 -2.815446475e-14)
(5.154424826e-11 2.375673802e-11 -3.789585601e-14)
(4.581316397e-11 2.451463352e-11 -3.90851639e-14)
(6.080491167e-11 3.264107699e-11 -5.215902304e-14)
(8.803024654e-11 3.972536502e-11 -6.31282111e-14)
(8.148123715e-11 4.367668132e-11 -6.937683025e-14)
(1.077554619e-10 5.797235533e-11 -9.238383881e-14)
(2.828745721e-10 1.663698258e-10 -2.654665782e-13)
(1.486181273e-10 6.906384393e-11 -1.101154704e-13)
(1.645258431e-10 8.380546437e-11 -1.335115955e-13)
(-0.07508064012 0.0693813889 -0.0001106158639)
(5.431964566e-08 1.766383054e-07 -2.812404024e-10)
(-0.01535141914 0.01431219381 -2.276995473e-05)
(-0.5473171376 0.5070320662 -0.0008073387599)
(-0.2109700705 0.1960467048 -0.0003119842169)
(-0.2827315046 0.2599765073 -0.0004148671504)
(-0.9453817094 0.9292872867 -0.001479014666)
(-0.2656377974 0.2883950458 -0.0004591481924)
(-0.3789869216 0.5939999963 -0.0009456946236)
(-0.8398794817 3.136927287 -0.004996167039)
(-0.486103803 0.8606085431 -0.001369575354)
(-0.5970464554 1.14417303 -0.001822858741)
(0.09919784141 0.4585268951 -0.0007306114842)
(0.08018614272 0.4157799571 -0.0006618839287)
(0.07252075594 0.3433269883 -0.0005465497217)
(0.01221429354 0.3360929673 -0.0005349436718)
(0.07428924268 0.3119758534 -0.0004968578439)
(0.1059267897 0.2157172596 -0.0003433479295)
(0.08375797094 0.2405252367 -0.0003831951961)
(0.07216329402 0.1562407931 -0.0002489774379)
(0.07119616739 0.09542101955 -0.0001518652722)
(0.02750684726 0.04605509235 -7.331649739e-05)
(0.0006330923385 0.001041038545 -1.65919047e-06)
(2.843237115e-08 5.063743848e-08 -8.060082837e-11)
(-0.0002089158558 -1.47474035e-05 2.327437128e-08)
(-0.001733279041 -0.00023349112 3.730294631e-07)
(1.599766251e-09 1.883276438e-09 -3.000981635e-12)
(-0.007813609335 -0.001444297122 2.296536525e-06)
(-0.001033050432 -0.0001275894665 2.045599785e-07)
(4.802224315e-11 3.529553643e-11 -5.628732597e-14)
(-8.882509901e-05 -4.482444319e-06 7.11358989e-09)
(-3.998212808e-05 -1.046128074e-06 1.665010667e-09)
(1.167481922e-10 9.306003053e-11 -1.480570008e-13)
(-1.758343897e-05 7.128835464e-07 -1.142687342e-09)
(0.0001350272242 -6.929575232e-06 1.121977672e-08)
(1.263562863e-10 9.935172622e-11 -1.582864518e-13)
(0.0002795416862 -1.996047136e-05 3.157611546e-08)
(0.0004034461457 1.031713213e-06 -1.883224318e-09)
(8.176159808e-06 7.953338057e-06 -1.266716296e-08)
(0.003073124628 -2.674843047e-05 4.155454067e-08)
(0.009667843168 0.006307104057 -1.00412327e-05)
(-0.1513512815 0.1593171268 -0.0002540659199)
(-0.1231049223 0.186874353 -0.0002974028729)
(-0.1918088241 0.2686649705 -0.0004278492756)
(-0.2315807789 0.2377395898 -0.0003788932349)
(-0.2011048529 0.2830933295 -0.0004502342721)
(-0.177462965 0.2903945878 -0.0004622222802)
(-0.01057505344 0.1636030362 -0.0002606483426)
(-0.120134667 0.2886249501 -0.0004604391617)
(0.5126190638 -0.0429257225 6.758145129e-05)
(-0.3871204556 0.6235853663 -0.0009925871087)
(-0.1960500648 0.3708386472 -0.0005902335162)
(-0.2946139073 0.3137517837 -0.0004993410767)
(0.0380554806 0.3674081763 -0.0005856620651)
(0.3303482321 0.07283826152 -0.0001158265559)
(0.05203887198 0.2517266574 -0.0004014403824)
(0.195496041 0.09775365082 -0.0001559784887)
(0.02800606035 0.1083282567 -0.0001725173559)
(-0.05426328822 0.01558516254 -2.469191628e-05)
(-0.3181936764 -0.005989442445 8.807826248e-06)
(-0.4084518868 -0.02290983189 3.744443084e-05)
(-0.1308965368 -0.01087228474 1.728631893e-05)
(-0.4519429678 -0.02905748147 4.564586997e-05)
(-0.4724308889 -0.03416004415 5.46173948e-05)
(-0.1608720691 -0.01972360531 3.161225183e-05)
(-0.4684866019 -0.03818000434 6.138892315e-05)
(-0.4419395931 -0.04101369306 6.498916791e-05)
(-0.1349249884 -0.01976245708 3.163245119e-05)
(-0.3986343392 -0.04291320399 6.776360172e-05)
(-0.3453439576 -0.04424805452 7.099323876e-05)
(-0.0668097753 -0.01383458167 2.199043453e-05)
(-0.284655293 -0.04526756508 7.204455568e-05)
(-0.2158761209 -0.0460550022 7.320265046e-05)
(0.02003358479 -0.0155800229 2.482899398e-05)
(-0.1351324563 -0.04618440914 7.369400465e-05)
(-0.04095836233 -0.04443420317 7.087220562e-05)
(0.07955009965 -0.01761483461 2.799774244e-05)
(0.063696348 -0.04308424305 6.866267679e-05)
(0.09961420726 -0.005584598207 8.947076074e-06)
(-0.1614930132 0.3196059002 -0.0005098481429)
(-0.2712249156 0.4881988298 -0.000776159021)
(-0.6907254151 0.8356210826 -0.001330243604)
(-0.2046467251 0.3774617383 -0.0006018822793)
(-0.9264319995 0.9796098415 -0.001557939585)
(-0.8723187316 0.9050096734 -0.001443628436)
(-0.3529802628 0.655593921 -0.001029489198)
(-0.7721653992 0.7991276234 -0.001272052928)
(-0.6824664925 0.695115311 -0.0008744819932)
(-5.370948621 -0.7006601506 -12.61790846)
(-6.441055267 -1.796578136 -11.61970277)
(-4.381091667 -0.7336341508 -13.28973518)
(-5.924461361 -1.846331468 -11.93319836)
(-5.34485617 -1.868449621 -12.20967493)
(-3.161039708 -0.7341163751 -13.63647815)
(-4.715136152 -1.922476618 -12.4241131)
(-4.028527499 -1.938552876 -12.58423174)
(-1.808194254 -0.7138320087 -13.57939918)
(-3.311712939 -1.958737323 -12.6777137)
(-2.561809974 -1.950887889 -12.7063894)
(-0.4575780757 -0.6500351286 -12.93196834)
(-1.810481496 -1.949818918 -12.66020692)
(-1.026407908 -1.977961051 -12.68883583)
(1.955387785 -1.072782272 -21.47890076)
(-0.270831586 -3.095530399 -19.65223522)
(2.021326243 -3.346043144 -21.24071218)
(7.867198883 -0.9785747421 -19.24264745)
(5.065866492 -3.187231556 -20.50297246)
(8.647369264 -2.925163705 -18.84646505)
(13.68166779 -0.5643757027 -15.62213681)
(12.01116558 -2.678577819 -16.91603142)
(14.40251557 -2.284651477 -15.14232648)
(13.52153538 1.907891987 -13.1452141)
(14.49513413 -0.7474757688 -13.80165706)
(10.67550252 0.03248457054 -12.36696296)
(2.489241357 -0.8735503983 -10.65299072)
(1.052813114 -1.277239402 -10.63257382)
(-0.451991378 -2.16207161 -10.6841374)
(-0.0613993557 -2.375852492 -10.65091714)
(0.001609508416 -1.189907888 -10.91892404)
(0.8413440037 -1.661699277 -10.4028928)
(-7.787065989 -2.624712187 -10.29501598)
(-6.675677711 -2.721811134 -10.78758471)
(-5.341281404 -2.798230049 -11.19285156)
(-3.812265982 -2.912722342 -11.51856101)
(-2.114066367 -3.113418413 -12.32285508)
(1.698367993 -5.039738014 -20.18675077)
(8.495552744 -4.447624092 -17.55679269)
(12.2585079 -3.4330555 -13.72802829)
(-9.159482316 -3.406581422 -8.876257352)
(-8.667932872 -3.492740512 -9.06970862)
(-5.380404671 -3.928556351 -10.16072537)
(-4.565271919 -4.100158323 -10.55535379)
(-3.680265761 -4.476255122 -11.51892127)
(-2.630412711 -6.137380901 -15.80694484)
(7.731022429 -4.361229183 -11.40418503)
(5.672375122 -1.832020933 -10.5961322)
(6.339848285 -3.453581897 -10.37580112)
(2.612929181 -3.325247657 -9.417592521)
(0.6946771637 -2.629909177 -10.16854985)
(0.5542043481 -3.673742176 -9.463058483)
(-0.2070867681 -3.445576508 -10.24772435)
(-0.2294531404 -4.53340203 -9.697841328)
(0.9105913239 -4.030713745 -9.253771764)
(-11.44451122 -3.55237381 -6.757440218)
(-10.5929422 -3.701487443 -7.033759145)
(-9.563014621 -3.892733846 -7.420459182)
(-11.20015347 -4.157537281 -6.060809303)
(-10.7235426 -4.259790761 -6.237591968)
(-8.313166518 -4.188878159 -8.059396302)
(-10.20052296 -4.419663198 -6.429214911)
(-6.738725301 -4.925217662 -9.462960866)
(-3.559451417 -5.965190696 -11.34058926)
(-7.100619017 -5.461026656 -7.949857213)
(-5.670782454 -5.475498939 -8.008661332)
(-0.2425007786 -4.956372239 -9.463918957)
(-4.257068287 -5.244693803 -7.692012497)
(-3.09148944 -5.018649379 -7.351382749)
(0.6901121048 -4.266716075 -8.166163849)
(-0.01586656087 -4.35212139 -8.446550279)
(-0.6721743634 -5.600024132 -8.997469945)
(-1.131222017 -6.222909502 -8.211530924)
(1.039944356 -4.9022096 -8.488561008)
(0.9206549315 -5.679731292 -7.717863695)
(1.454572538 -5.507464028 -7.44245315)
(3.588392634 -3.168938262 -6.460903064)
(-13.74769539 -3.966226893 -4.313961029)
(-12.90238524 -4.303474318 -3.497617599)
(-11.07457068 -4.490472751 -4.944511428)
(-12.39364003 -4.421947928 -3.554617455)
(-9.868891606 -4.901974491 -3.965927546)
(-9.100680066 -5.061254179 -4.088947412)
(-5.863482991 -5.145377816 -5.586077127)
(-8.27098392 -5.233230183 -4.237777937)
(-7.373677631 -5.437304832 -4.39959614)
(-3.778480772 -5.527563946 -5.970309625)
(-6.401673423 -5.666745831 -4.60039654)
(-1.855906115 -6.474812579 -6.520539296)
(-1.918507087 -7.70669752 -4.614861254)
(3.708897436 -3.070494545 -3.591923474)
(-14.78697394 -3.638373641 -1.82215463)
(-13.84508382 -3.801759089 -1.873932253)
(-10.25523859 -4.407923696 -2.158093199)
(-3.857250527 -6.213819252 -2.322789572)
(1.265557735 -4.634301351 -1.783163545)
(-0.7852467014 0.00527305096 -8.373442457e-06)
(-3.779542988 -0.0243092177 -14.03474966)
(-0.5267659107 0.00665479361 -1.06736212e-05)
(-2.894919621 -0.02458087106 -14.50529523)
(-0.2480410297 0.006892276911 -1.074291644e-05)
(-1.812186301 -0.02406375902 -14.51640794)
(0.1315144295 0.0110286256 -1.736737464e-05)
(-0.696465949 -0.02265740198 -13.98339538)
(0.3936818049 0.01535914382 -2.406215515e-05)
(0.2860701922 -0.0317073584 -19.98502334)
(0.647005236 0.0142566295 -2.405325901e-05)
(3.349657768 -0.03122826144 -20.70906605)
(0.9366449501 0.01051668766 -1.619472862e-05)
(7.37589479 -0.02531774402 -18.32046185)
(1.263844626 0.008754491482 -3.554015649e-06)
(10.83354897 1.013295707 -15.53631899)
(7.299405608 2.71179847 -11.8520515)
(1.560980453 0.05422720947 0.0001215428795)
(11.81151548 3.159192145 -13.2512133)
(-0.6046404283 0.04699132383 -7.369569446e-05)
(-0.469184706 0.04855445309 -7.636722838e-05)
(-0.322835224 0.05019322199 -8.006408329e-05)
(-0.1610007655 0.0516825749 -8.259432164e-05)
(0.102358687 0.05542558078 -8.808451607e-05)
(0.3720696454 0.06200042559 -9.872992293e-05)
(0.5043509234 0.05696237223 -9.093769842e-05)
(0.5714942884 0.04845851352 -7.834970102e-05)
(0.578605435 0.04131021633 -6.517240384e-05)
(1.879450713 0.1366975329 7.958383861e-05)
(2.359311571 0.317961046 -0.0007367460837)
(1.319473872 1.09362551 -11.35518365)
(2.932654991 0.6795811227 -0.001081653656)
(2.175843727 1.709807244 -11.32841581)
(-0.112929587 0.09078410795 -0.0001446367929)
(-0.005534171727 0.05206002462 -8.287695933e-05)
(-0.0005677232544 5.653012602e-05 -9.124206001e-08)
(-7.545780861e-05 1.053201395e-05 -1.668509554e-08)
(0.002861365897 0.0003699945735 -5.930953494e-07)
(0.02066377901 0.002789811537 -4.467750529e-06)
(0.03191312235 0.003990380482 -6.35882401e-06)
(0.03710612672 0.004033607322 -6.485866786e-06)
(0.03926685791 0.003469586842 -5.560476602e-06)
(0.1275655623 0.005393194779 -8.67312178e-06)
(0.593189128 0.03888468562 -6.222178438e-05)
(3.270821584 0.8937037097 -0.001432338071)
(3.299510226 0.9997627096 -0.001592695253)
(0.6558811648 0.589976544 -11.25137172)
(0.1761407428 0.2472081157 -11.25865241)
(3.296918583 1.284250718 -0.002038522602)
(0.004975913428 0.1642744054 -0.0002618109422)
(0.114435576 0.1818084676 -0.0002893316516)
(0.1156142037 0.1184440742 -0.0001886071285)
(0.006917788085 0.006611056949 -1.053681069e-05)
(7.473049231e-12 -4.693379771e-11 7.481733356e-14)
(1.434796028e-11 -4.886101478e-11 7.787529879e-14)
(2.636072472e-11 -5.282893515e-11 8.404636661e-14)
(4.014083354e-11 -5.65179263e-11 8.999340972e-14)
(4.83592187e-11 -5.862666818e-11 9.339378211e-14)
(1.101653982e-10 -6.317778623e-11 1.006495562e-13)
(2.199054051e-06 -1.542643369e-07 2.437100826e-10)
(0.604664106 0.1422803197 -0.0002275067777)
(3.203524564 1.226854915 -0.001949003431)
(3.241763137 1.431699476 -0.002276602953)
(0.04819294346 0.290745835 -0.0004635344137)
(0.1357065555 0.2489387011 -0.0003961282767)
(0.1758862304 0.1933407852 -0.0003073639633)
(0.1258285691 0.1216721879 -0.0001941679364)
(0.00869243661 0.008113942916 -1.293792106e-05)
(1.401819098e-11 -2.815345091e-11 4.486592027e-14)
(2.311105599e-11 -2.736341998e-11 4.357753721e-14)
(3.898972362e-11 -2.705718452e-11 4.312606218e-14)
(6.470458517e-11 -2.449897261e-11 3.908934214e-14)
(1.076486953e-10 -1.755948656e-11 2.785101621e-14)
(1.725255064e-10 -6.951157689e-12 1.082565271e-14)
(1.85889122e-06 4.368104969e-07 -6.930836961e-10)
(1.000864677 0.3558121501 -0.0005666739119)
(3.129190368 1.508923499 -0.002396659918)
(0.04535468552 0.3354165553 -0.0005342005375)
(0.1299521323 0.2953523353 -0.0004708501539)
(0.184957605 0.2323417747 -0.0003697654386)
(0.1561588118 0.1592465554 -0.000253450521)
(0.06112731925 0.05970229672 -9.51265171e-05)
(6.319539505e-11 1.157052734e-11 -1.839773476e-14)
(2.651636345e-11 -4.972232595e-12 7.859968316e-15)
(4.802609455e-11 -3.722703658e-13 5.786513356e-16)
(8.475066664e-11 9.724368962e-12 -1.563200485e-14)
(1.492848144e-10 3.703475455e-11 -5.929776363e-14)
(2.484468927e-10 8.822611293e-11 -1.40054709e-13)
(3.240262631e-10 1.297789045e-10 -2.070108973e-13)
(0.5200879328 -0.2293493567 0.0003644969615)
(2.76834718 2.132421896 -0.003389226149)
(0.05230136211 0.437784974 -0.000696494801)
(0.1172621997 0.3255390153 -0.0005186904996)
(0.1580632685 0.2265887374 -0.0003609965265)
(0.1313302979 0.1458741498 -0.0002326939412)
(0.002811780331 0.002967614366 -4.731848131e-06)
(2.152906407e-11 1.077611662e-11 -1.715775025e-14)
(3.894509188e-11 1.812086844e-11 -2.885689259e-14)
(6.768439372e-11 3.071499285e-11 -4.901948238e-14)
(1.115186067e-10 5.08468753e-11 -8.100918846e-14)
(-0.0001256263055 0.0001261088277 -2.009739974e-07)
(-0.3228581736 0.2980824892 -0.0004757934031)
(-0.7864745025 0.7380990133 -0.00117402968)
(-0.9595957169 1.227680816 -0.001954423642)
(-0.9790945953 3.868981263 -0.006159459039)
(-0.02354044927 0.374969964 -0.0005967907983)
(0.1003353754 0.2835810885 -0.0004511747875)
(0.09989833478 0.1591520805 -0.0002530653549)
(0.006832834958 0.008242538152 -1.312618583e-05)
(8.050502283e-08 1.498468804e-07 -2.38567156e-10)
(4.078889904e-11 3.380344202e-11 -5.388227761e-14)
(6.278686982e-11 4.57112985e-11 -7.281115557e-14)
(2.839173125e-10 2.133796422e-10 -3.391595553e-13)
(5.24996186e-08 4.483479911e-08 -7.137292783e-11)
(-0.004606615068 0.005110507188 -8.140946063e-06)
(-0.2240063459 0.2279176147 -0.0003624912587)
(-0.159151542 0.1907432063 -0.0003035683801)
(-0.2932376234 0.5247899901 -0.0008365406178)
(-0.3717374194 0.6524241934 -0.001039152512)
(0.1081346901 0.4756979187 -0.0007586874831)
(0.04032637374 0.3141020347 -0.0005007521194)
(0.02215857029 0.1411420872 -0.0002246408624)
(-0.09297157764 -0.006519090206 1.017750463e-05)
(-0.1547645548 -0.01554744839 2.481169837e-05)
(-0.1581893604 -0.02225092889 3.527757972e-05)
(-0.09421943131 -0.01517121779 2.4167026e-05)
(-0.03917875028 -0.01463202458 2.328707297e-05)
(0.04952854271 -0.01705094064 2.708183104e-05)
(0.1214098367 -0.002928450728 4.59326613e-06)
(-0.1844224351 0.3467909172 -0.0005531978207)
(-0.2772760176 0.5226454309 -0.0008303969139)
(-0.3692461889 0.659495158 -0.001043911515)
(-0.3535367025 0.4102845205 -0.0006533280283)
(-0.6087137123 0.1516690946 -0.0002408190089)
(-0.9875030871 0.001462312432 -3.96635972e-06)