/*--------------------------------*- C++ -*----------------------------------*\
  =========                 |
  \\      /  F ield         | OpenFOAM: The Open Source CFD Toolbox
   \\    /   O peration     | Website:  https://openfoam.org
    \\  /    A nd           | Version:  8
     \\/     M anipulation  |
\*---------------------------------------------------------------------------*/
FoamFile
{
    version     2.0;
    format      ascii;
    class       volScalarField;
    location    "0.9";
    object      htcConv;
}
// * * * * * * * * * * * * * * * * * * * * * * * * * * * * * * * * * * * * * //

dimensions      [1 0 -1 1 0 0 0];

internalField   uniform 0;

boundaryField
{
    walls
    {
        type            calculated;
        value           uniform 0;
    }
    region0_to_wallFilmRegion_wallFilmFace
    {
        type            convectiveHeatTransfer;
        L               1;
        value           nonuniform List<scalar> 
776
(
1.423607537
1.391507322
1.520216555
1.675410278
1.87364925
2.052639947
2.203298268
2.325809953
2.431319019
2.523698788
2.590945895
2.610989186
2.568668418
2.465757162
2.314626572
2.13037767
1.962182498
1.779720288
1.712277415
1.941569462
1.722411688
1.867877506
1.806965708
2.022194614
2.485046695
3.028709868
3.349860251
3.517954676
3.574078517
3.531071098
1.776162631
1.647999463
1.71833059
1.815623527
1.946262728
2.069697924
2.190094878
2.30402244
2.416577834
2.52671809
2.618290439
2.669823667
2.670296586
2.621386876
2.529798525
2.406975922
2.277963875
2.106476471
2.034451213
2.294736115
1.833993166
2.029242997
1.866434363
1.804630895
1.872395247
2.350646504
2.806896155
3.09996989
3.259994155
3.30456383
2.112610305
1.986539524
2.043806962
2.105495506
2.194186562
2.279571906
2.36538378
2.447476205
2.532551737
2.625428364
2.716034081
2.784520123
2.814980836
2.799331714
2.735329315
2.638730862
2.545393624
2.474431797
2.506796864
2.783030434
2.022030407
2.26361148
2.085761846
1.980999423
1.776302404
2.030141056
2.569183338
2.937103055
3.142903542
3.221914564
2.340310302
2.249940689
2.298530602
2.33361187
2.386066717
2.43434185
2.485658377
2.53504223
2.587067599
2.649040177
2.716374468
2.774055511
2.803990939
2.790340941
2.73120246
2.653518764
2.609059346
2.674859134
2.901422199
3.165420146
2.169543333
2.453323849
2.269292317
2.199876812
1.958722259
1.985891189
2.449154081
2.840216549
3.076521579
3.186604529
2.533757529
2.471336961
2.520029151
2.53304962
2.55094822
2.564953225
2.588373794
2.612556078
2.637290262
2.669762472
2.706981745
2.739042228
2.750491436
2.727183378
2.674388634
2.62878741
2.667303637
2.883250329
3.235435876
3.466339662
2.34920888
2.582712269
2.415612321
2.372169039
2.160119064
2.042475263
2.400415222
2.762644373
3.009206143
3.127914741
2.687458398
2.650045875
2.702516825
2.695444
2.680689134
2.663324207
2.664412893
2.66980559
2.673001509
2.681928245
2.692181507
2.694350139
2.674390129
2.623898931
2.563955076
2.564988789
2.715598074
3.063722183
3.404749577
3.612650517
2.642892372
2.530662201
2.461815528
2.440076378
2.299468081
2.098124499
2.346832747
2.667020838
2.928960027
3.065908464
2.800575671
2.787517736
2.847503467
2.826142567
2.786512296
2.745786489
2.733591366
2.728629827
2.71492897
2.703881731
2.693860682
2.673856495
2.626751529
2.538779386
2.439072472
2.457152277
2.702550177
3.136425801
3.371212732
3.576807059
2.819872301
2.263932957
2.367884495
2.405156792
2.36884439
2.145285238
2.255692793
2.540707846
2.824715156
2.970190376
2.863210842
2.876723261
2.948200126
2.920320597
2.867966416
2.817603797
2.805367634
2.801269369
2.777797789
2.747732904
2.719664733
2.681099704
2.61998438
2.509486532
2.330875651
2.182291166
2.301849317
2.819396344
3.202884493
3.418535643
2.496932078
1.871511225
2.216387091
2.34112884
2.377647071
2.190083195
2.084284724
2.359851092
2.686864616
2.858609318
2.866238577
2.912352788
2.998617062
2.970826383
2.920437732
2.878709357
2.88214373
2.888045462
2.858540406
2.807003435
2.764456555
2.708517689
2.641024485
2.542042921
2.388677067
2.178179671
1.982226719
1.742716463
1.942290065
2.224685847
1.798885207
1.989806595
2.216024021
2.298451038
2.325714434
2.16704484
1.883585783
2.116662134
2.554291471
2.774689368
2.808044043
2.893873308
2.9944365
2.971563223
2.940609964
2.929543553
2.966397714
2.990338711
2.950689717
2.868651617
2.817275445
2.741114297
2.669613881
2.58293374
2.477828435
2.359386481
2.267573507
2.236789438
2.065869577
1.591474584
1.814918083
2.193843349
2.215569079
2.234013676
2.231509491
2.127985182
1.83293678
1.839383383
2.458894257
2.694902596
2.696987033
2.825946294
2.9400726
2.935801338
2.938663728
2.980879231
3.069901793
3.12091708
3.050107964
2.914444607
2.865294661
2.760645429
2.686678675
2.601434305
2.521610161
2.439453096
2.357974981
2.228824765
1.960901276
1.797218027
1.758119763
2.163472959
2.20484325
2.161029915
2.121508933
2.034371601
1.783326546
1.46129414
2.33721041
2.595825508
2.553833543
2.72225113
2.859020863
2.885351564
2.942389887
3.063362041
3.229861795
3.330161752
3.165995015
2.927788017
2.89761104
2.752423225
2.684386797
2.594802867
2.533179998
2.488112417
2.459008944
2.372141399
2.175060196
1.949605655
1.662805902
2.003681
2.167102968
2.118344616
2.047924082
1.92075249
1.662673362
1.318795386
2.293216539
2.529964943
2.41910838
2.605093431
2.77188347
2.851137946
2.993669209
3.222683008
3.506306208
3.725324406
3.321841263
2.901218701
2.900931307
2.706829377
2.657150988
2.559212885
2.511976676
2.486670062
2.483020331
2.436847321
2.283082983
2.030294487
1.793500995
1.685305673
2.055693927
2.086169666
1.95325004
1.744999013
1.466829574
1.616661105
2.252915666
2.464616475
2.363957934
2.526862212
2.716640943
2.870618246
3.118339884
3.471121443
3.961163948
4.473867274
3.52603142
2.850722822
2.856140342
2.62467462
2.604075088
2.49925807
2.467260722
2.452242789
2.472459601
2.458561659
2.362826292
2.151032464
1.879211371
1.662671737
1.741835857
1.992846863
1.86093348
1.602167808
1.188955158
1.715941026
2.112566979
2.405979115
2.422761581
2.5469929
2.74641944
2.966273981
3.336515533
3.93193147
4.805942616
5.575046279
3.67366912
2.829151924
2.776447668
2.519864016
2.529996034
2.429827457
2.414612802
2.39755361
2.434995535
2.449173852
2.393322976
2.244929983
1.971217342
1.726195635
1.595239694
1.702761359
1.829415976
1.723694755
1.038919604
1.729297484
2.020458326
2.303146369
2.504521969
2.610245265
2.810704229
3.062362285
3.558540048
4.494078518
5.672923045
9.605023643
4.557642401
2.588100537
2.264606344
2.34420943
2.42402396
2.38278614
2.390002092
2.344520293
2.389937246
2.424313555
2.397565354
2.296979981
2.101696132
1.788728225
1.63372442
1.476728327
1.498252965
1.544581378
0.7881391146
1.640273212
1.761182879
2.061927569
2.539228182
2.626965391
2.770984263
2.832322438
2.846272258
2.778803715
3.078161095
4.532674672
2.456659786
2.075002074
2.281294638
2.432564206
2.443163676
2.443954494
2.466009242
2.329447796
2.363010202
2.404007165
2.394169837
2.325388578
2.178434555
1.976828437
1.696127559
1.683401905
1.361825774
1.329289557
0.8798052121
1.432449717
1.49819654
1.822481492
2.540220807
2.637438407
2.802394091
2.924644394
3.097781883
3.326140012
3.490993983
3.0688681
2.383951673
2.448340126
2.582644978
2.583258499
2.63084101
2.6362076
2.654444423
2.392429516
2.38664688
2.413248391
2.401609281
2.346692727
2.231944621
2.069709122
1.860966296
1.71849993
1.591497644
1.021043919
1.262971607
1.081836638
1.252249211
1.545784457
2.507202133
2.621459693
2.804120302
2.937259694
3.089718519
3.213822589
3.205301976
2.940825277
2.726175922
2.71494808
2.792329752
2.813984971
2.852174899
2.846443165
2.841612842
2.515564043
2.471675521
2.474486045
2.440729943
2.377501298
2.267376217
2.119929494
1.917260373
1.745818205
1.650497921
1.385555144
1.407885664
1.25276853
1.412201766
1.571890508
2.447831441
2.588269771
2.810067701
3.004656503
3.252426522
3.495577536
3.643430207
3.579798821
3.202743109
2.850833872
2.978625885
2.944604531
2.976565936
2.938397751
2.929923605
2.628792376
2.578539579
2.585741795
2.528126079
2.432029282
2.290114492
2.115873138
1.846067845
1.629001971
1.673558925
1.516136821
1.478304053
1.512485903
1.723121748
1.923507578
2.37074622
2.545591486
2.822937576
3.093100711
3.421700101
3.729505974
3.898435919
3.827666871
3.421004438
2.7667435
2.947692309
2.893518437
2.918746929
2.866231877
2.882222774
2.664944811
2.650988928
2.708283463
2.664188955
2.531436843
2.332785893
2.083669244
1.627187685
1.380501665
1.583744455
1.616502287
1.352450918
1.622561156
2.302709437
2.383568586
2.286209094
2.504666022
2.854459071
3.206790814
3.608611029
3.926468128
4.038067633
3.907770236
3.557760365
2.506173414
2.652255515
2.601769854
2.623207057
2.605735791
2.751788291
2.54902332
2.610079907
2.758129919
2.782123085
2.668664625
2.440148256
2.108136755
1.426815793
1.164649228
1.487656377
1.62575873
1.108775249
2.067566508
2.953604001
3.366235207
2.186807847
2.442031945
2.844193685
3.227069813
3.639271074
3.976533944
4.130144005
4.001463956
3.694782492
2.305491668
2.11618806
2.207670558
2.113540494
1.651227
1.927965741
2.085860052
2.440810308
2.698962444
2.788991297
2.754372852
2.623236998
2.399226722
2.088512417
1.68266622
0.91156799
1.029577322
1.274442543
2.313502305
3.509092174
5.181454573
2.107053554
2.277563097
2.535380666
2.670189442
2.78890678
2.949199118
3.190133649
3.235791829
2.737587448
2.120566823
2.176932715
2.217637069
2.124575342
1.784282492
1.316785349
2.070769695
2.477072942
2.719407216
2.831217433
2.831262927
2.738582347
2.547985632
2.300030714
2.069989286
1.825666184
1.629416992
1.577254084
1.802353459
2.44741406
3.436550116
2.127255106
2.329847838
2.629588517
2.81409425
2.95670535
3.008399385
2.89128163
2.645170859
2.092553159
2.128239528
2.195194607
2.123461243
2.014860125
1.797141139
1.556742362
2.053204734
2.391926734
2.617222132
2.741414327
2.775734449
2.698979881
2.475351966
2.170666354
1.99608941
1.805012502
1.646485718
1.392976798
1.435749063
1.826588812
2.29788323
2.136667857
2.317600758
2.568625779
2.692938449
2.755285905
2.765706037
2.729180806
2.574416362
2.271233101
2.237344567
2.208536161
2.154626752
2.079431623
2.055351133
1.685019336
2.018569827
2.310090351
2.519299971
2.646584394
2.687453743
2.62526886
2.393451208
1.96124681
1.78734719
1.365583152
1.949276997
)
;
    }
    region0_to_wallFilmRegion_mirrorFace
    {
        type            convectiveHeatTransfer;
        L               1;
        value           nonuniform List<scalar> 
703
(
4.061119907
4.181144042
4.358328704
4.505046398
4.600564522
4.677376105
4.780534847
5.019881243
5.383729865
5.114024709
4.069210797
4.172850343
4.385840396
4.506658387
4.431680655
4.428750138
4.471228625
4.592650047
4.737156052
4.75230447
4.097190818
4.176194745
4.615868681
4.674337483
4.048048221
3.921067361
3.887920543
3.915473156
3.968018359
3.997278109
2.366000251
2.723414979
2.316862745
2.12302481
2.080034146
1.973731781
2.121343732
1.969106995
1.969348621
2.192022094
1.985312053
2.021487923
2.369595028
2.054043963
2.147788878
2.56858942
2.202545131
2.23967437
2.32802074
3.016553124
2.492629392
2.746432554
3.097101235
3.516825709
2.248932316
3.452627449
2.865180632
3.641145309
2.599845798
3.898659154
3.587114779
3.886056894
3.599821976
3.622083949
1.617065569
1.253387882
1.497497908
1.519391821
1.536725994
1.498562144
1.372282461
1.412642159
1.340510579
1.281955861
1.282735914
1.228630203
1.160898584
1.179350453
1.130049255
1.035215415
1.080628562
1.034896344
0.9835290217
1.009959797
1.021920716
1.034797653
1.0620269
1.110851723
1.09429687
1.151752452
1.17923532
1.103578099
1.193819451
1.186765804
1.057355988
1.173108061
1.158498405
1.472332607
1.156418432
1.565580734
1.502050908
1.660902362
1.663377604
1.246927343
1.548594037
1.419287989
0.9860339868
1.27409362
1.150045409
0.8069153684
1.048796646
0.9750495386
0.6412600971
0.9031502018
0.8347405381
0.66465465
0.7885317503
0.7996348122
0.8807003494
0.855213797
0.9216111221
0.9997375524
0.9813591634
1.026321039
0.9966822024
1.042147703
1.014431495
1.777239017
1.818712708
2.279535559
1.902992013
2.240874259
2.295541085
1.703209924
2.093663075
1.967812505
1.464020506
1.808024041
1.696238436
1.296650324
1.587214155
1.502329079
1.163653849
1.416790897
1.345454148
1.093650542
1.288989515
1.251424925
1.1098869
1.232239636
1.229295944
1.161069371
1.240612737
2.155835802
2.251594278
1.461817937
2.317167182
2.557562613
2.775245239
2.052439387
2.198266908
1.930094822
1.827545322
1.984852713
1.916211976
1.639388147
1.787966365
1.722857553
1.479257176
1.632640693
1.566581959
1.380585304
1.510899638
1.468327856
1.344539839
1.439645179
1.426046777
1.790860133
1.942883347
1.931228473
2.395378371
1.044536443
1.381348642
1.947601348
1.402916665
1.770239364
1.902554929
2.289690013
2.018114444
1.758396041
1.737965807
1.785972876
1.619800797
1.697279831
1.65019297
1.525158181
1.599132727
1.558003431
3.677142856
3.702635891
3.815706408
3.911596548
3.945832765
4.066982364
4.118584282
4.180746298
4.282170122
4.269550397
4.370116325
4.440900868
4.347565452
4.493452253
4.529609495
4.377125985
4.553966532
4.573229576
4.436210392
4.597844807
4.663797932
5.016861615
4.831443795
5.295144235
5.098415126
5.843027528
5.352613861
4.567554347
4.934855103
4.782168465
4.527826278
4.721143399
4.691049429
1.842023644
2.065144308
1.74368507
1.808814578
1.692042382
1.62255413
1.859726899
1.641212668
1.672223978
1.956842172
1.707532999
1.759467526
2.039530762
1.803955462
1.838269353
3.923082867
4.13745732
4.343664351
4.497977632
4.593310269
4.654285228
4.7717143
5.362079921
5.406477473
4.878396668
3.952030925
4.346689066
4.422139554
4.482189575
4.533572292
4.804738482
4.989272307
5.274553595
5.509713696
1.698672697
2.389266413
1.845460103
1.427802235
1.534812468
1.309345125
1.471626897
1.378207054
1.31194437
1.546068398
1.278764144
1.300757189
1.645220407
1.371023157
1.441881379
4.097585386
4.044042855
4.069718151
4.27000502
4.163047579
4.250863272
4.438014591
4.554340419
4.638799142
4.720257677
4.558635458
4.594555243
4.867809617
4.646482694
5.22047657
5.262688504
5.046499657
5.005124882
4.986489842
4.950496173
4.889189662
1.378798582
2.328202801
1.877878956
1.31695867
1.712595977
1.502370107
1.155304956
1.159039858
0.9198416803
1.304904351
0.9193126469
0.9712810005
4.091554488
4.034685708
4.277699292
4.167865855
4.31712004
4.478755259
4.480862327
4.424183484
4.201184199
4.516357542
4.206166848
4.364338105
4.39755106
4.771928348
4.433561307
4.536409442
2.05350043
3.203230524
2.849242668
1.203233052
2.324020781
1.964743706
1.378114611
1.915538109
2.259604453
2.744949116
3.924731241
3.634234537
3.584239442
3.48490549
2.736675425
2.036421591
3.322674263
2.377503033
3.488865943
1.946220715
3.579175993
1.687011086
3.709124382
1.629344775
3.780343923
1.643522233
3.804758146
1.693227182
3.824709287
1.764971624
3.910052296
1.875313106
4.757032125
1.811559143
4.034197474
1.767856084
4.003408018
2.215209699
1.203162957
1.634162039
1.410386149
1.331620258
1.224125336
1.096468004
0.9922335448
1.001226556
1.057703975
1.10911408
1.09013639
2.123267663
0.9328993459
1.515096149
1.379002423
1.109359504
0.8855664722
0.727997221
0.5924404584
0.7814285243
0.9531942233
1.019046143
2.15163708
1.206095477
1.91011533
1.823428232
1.574912642
1.36995234
1.225583833
1.116560591
1.093661604
1.135445808
2.163909124
2.712905554
2.556470713
2.1654887
1.935238895
1.723420537
1.550450078
1.421998452
1.354857043
2.471003552
3.05745394
2.038427044
2.509505596
1.823734471
1.822888089
1.682811738
1.567252162
2.797693213
3.540158585
3.802054808
4.021532193
4.2024654
4.317540617
4.365364591
4.390221696
4.560520933
5.702140098
4.679662431
4.53473523
2.013142883
1.826133982
1.821546187
1.893864987
2.005985349
3.550658133
3.872366021
4.026333969
4.067338196
4.245696178
4.259642178
4.428678495
4.552333475
4.625285602
4.613917424
4.6920773
4.711309897
4.956311338
5.765910366
5.049295747
5.080199761
2.177020012
1.575600252
1.468387673
1.497772247
1.599507808
2.854229924
1.742727903
1.434460574
1.183999694
1.231744884
3.138563354
2.248216985
1.604102306
0.9416530239
1.989528158
4.064940898
4.133310196
3.942972165
3.817466269
4.141742173
4.306928959
4.140762303
3.282118713
3.136923624
3.094357769
3.539169583
3.071164186
3.519123878
3.050044287
2.987854953
3.699360934
3.889386281
3.489897699
3.276913534
2.721556802
2.261200605
2.079854789
1.998439954
1.874657903
1.740781922
3.583177231
3.832435863
3.357510309
3.193095011
2.93033929
2.562570949
2.188489956
1.915036488
1.818418901
1.918804624
3.721953279
3.723597726
1.81590267
3.453628763
1.864169178
1.968263303
3.415013292
3.540208304
2.26782738
3.507004152
1.837048049
1.616946563
3.609293711
3.685930131
1.768880577
3.655531474
1.566340342
1.670897918
3.798663899
3.884201057
1.648028432
3.751269558
1.697904914
1.68302862
3.957061368
4.014892112
1.630467504
3.796322433
1.661617642
1.636990323
4.054636847
4.076998229
1.664248519
3.812983949
1.616362812
1.60407236
4.088148429
4.095058274
1.720260123
3.851371007
1.603216072
1.615038772
4.102476305
4.132062498
1.771676972
4.138920136
1.633685928
1.664018089
4.211995259
4.574522726
1.80997228
4.251736002
1.696833186
1.678533202
5.311308078
4.68239437
1.789813652
3.99864492
1.675032562
1.669771209
4.338839488
4.271089123
1.763004827
4.022322888
1.65907581
1.633411452
4.262495247
4.272762595
3.983124886
4.162909485
4.575259753
4.654623029
5.313902285
4.916687728
4.33695765
4.411243281
4.46123653
4.473820794
4.505900208
4.528406787
4.714482471
4.828611341
4.944427767
4.065254219
4.419704119
4.442343362
4.663667686
4.746270697
4.608262907
4.5866585
4.31932233
4.294143321
4.230801178
4.214308645
4.2266896
4.266683249
4.310651017
4.012451025
4.394858603
4.131888109
4.351560044
4.744914381
4.482537688
4.460057266
4.189932628
3.818402368
3.952548129
3.699333844
3.895041126
3.613755747
3.895008793
3.56458766
3.549836038
3.939965233
3.528482886
3.977315541
3.99797689
3.439763021
3.183178619
3.751617624
3.907044505
3.58296346
3.961959408
3.525151642
3.473553271
4.248318652
3.410330284
3.310743188
3.593532845
3.1645992
2.884333144
3.185211524
2.658724993
2.615393271
3.111352277
2.582622122
2.574238476
3.081138623
2.557691987
2.530830582
3.061845651
2.493660749
2.44950131
3.022446417
2.404505163
2.359059058
2.942315438
2.338849816
2.387458186
3.554155771
3.857841609
3.489285978
3.412309081
3.397857112
3.316556664
3.041660224
3.226491485
3.073798011
2.432598849
2.839368377
2.587561152
2.136581567
2.370951117
2.156545986
2.038813187
1.972357286
1.814213973
1.944578126
1.681445651
1.566611774
1.796824774
1.471998387
1.426072217
1.746482791
1.482473127
1.651398519
3.457164761
3.77745641
3.416825251
3.270820424
3.332748521
3.264729544
3.085266586
3.211633228
3.140814291
2.747841069
3.03991959
2.91462807
2.367820706
2.776174107
2.629069262
2.033577836
2.492582885
2.383589485
1.841873758
2.31775441
2.29737789
1.843665801
2.316086355
2.359773551
2.040197391
2.421151105
2.495260786
3.401137563
)
;
    }
    procBoundary2to0
    {
        type            processor;
        value           uniform 0;
    }
    procBoundary2to1
    {
        type            processor;
        value           uniform 0;
    }
    procBoundary2to3
    {
        type            processor;
        value           uniform 0;
    }
}


// ************************************************************************* //
