/*--------------------------------*- C++ -*----------------------------------*\
  =========                 |
  \\      /  F ield         | OpenFOAM: The Open Source CFD Toolbox
   \\    /   O peration     | Website:  https://openfoam.org
    \\  /    A nd           | Version:  8
     \\/     M anipulation  |
\*---------------------------------------------------------------------------*/
FoamFile
{
    version     2.0;
    format      ascii;
    class       volScalarField;
    location    "0.9";
    object      k;
}
// * * * * * * * * * * * * * * * * * * * * * * * * * * * * * * * * * * * * * //

dimensions      [0 2 -2 0 0 0 0];

internalField   nonuniform List<scalar> 
67410
(
0.003972042214
0.005368728904
0.006714442161
0.007814992828
0.008894934494
0.01004263598
0.01129325976
0.01260382396
0.01384392703
0.01483768232
0.01540530795
0.01537756238
0.01465828774
0.01354235517
0.01307191208
0.01390971205
0.01527641862
0.01650531043
0.01742494425
0.01800694427
0.01823923844
0.01808263534
0.01749360605
0.01626883372
0.01498919937
0.0137123401
0.004728802894
0.005981950769
0.007305800971
0.008513973497
0.009744004447
0.01109992964
0.01264073362
0.0143053091
0.01592030484
0.01727075244
0.01813952086
0.01828674611
0.01751217296
0.01600345155
0.01489685594
0.0154149388
0.01689051857
0.01837646584
0.01967381385
0.02073111388
0.02150566425
0.02196291742
0.02199752977
0.02035756621
0.01909482744
0.01784800094
0.00540674491
0.006789031129
0.00815189443
0.009409798629
0.01066685837
0.01205343901
0.01365475239
0.01541477391
0.01715906327
0.01867936584
0.01976437758
0.02008871492
0.01935209851
0.01768767804
0.01619915356
0.01640734287
0.01789026311
0.01961632723
0.02131130516
0.02292139541
0.0245440842
0.02649961609
0.02840756633
0.02385934061
0.02276055655
0.02182191646
0.006147598341
0.007599893466
0.008996204352
0.01019836049
0.01132479452
0.01253658022
0.01395759366
0.01557876972
0.01726908555
0.01884729889
0.02006558015
0.02057481242
0.02004106767
0.01857299567
0.01720206735
0.01730243416
0.01836570128
0.02019908659
0.02238327597
0.0251216843
0.02934219094
0.03637938848
0.04351841438
0.02784850501
0.02646417352
0.02572286438
0.007020954555
0.008493120671
0.009842252846
0.01090553248
0.01182757506
0.01277483188
0.01389089849
0.01522441336
0.01671273701
0.01820536408
0.01947444715
0.02017977645
0.02006186851
0.01929485704
0.01879780931
0.02038969893
0.01883053225
0.0206071018
0.02379845722
0.02981534179
0.04144738268
0.05985014436
0.07495099833
0.03507921184
0.03080928656
0.02951380001
0.008019764027
0.009434801697
0.01066572841
0.01157500054
0.0123320102
0.01308640911
0.01397071491
0.01505498478
0.01632754153
0.01769284481
0.01898617985
0.02000581567
0.02061292766
0.02118729734
0.02416588159
0.03707328776
0.02013149143
0.02161388425
0.02744340326
0.04133084042
0.06653141082
0.09993228276
0.1227308384
0.05196110488
0.03708534162
0.03332448497
0.009063228873
0.01039808933
0.01149154002
0.01227753873
0.01295885704
0.01368115738
0.01456813162
0.01568481658
0.01703003262
0.01853394856
0.02006732419
0.02149653242
0.02304062449
0.02735236133
0.04502265438
0.09709518412
0.02580771055
0.023939911
0.03476948151
0.06074524551
0.1015769538
0.1500894788
0.1811528898
0.08558729849
0.04912411145
0.03776007079
0.01010464153
0.01141737877
0.01239140604
0.01306580555
0.01370753121
0.01448668406
0.01553345213
0.01689968413
0.01856682492
0.02043614284
0.02234998099
0.02431528062
0.02829213392
0.04584844628
0.105728903
0.2268903836
0.05594888763
0.02820323932
0.04238523916
0.07883622305
0.1317992812
0.1912222659
0.2224378573
0.1237387252
0.06557848899
0.04332323585
0.01122548664
0.01264953255
0.01352858335
0.01404534748
0.01459152594
0.01539916291
0.01661465233
0.01824460654
0.02022390198
0.02242818759
0.02469256699
0.02719364922
0.03300734095
0.05711513762
0.1343722761
0.2538676518
0.07740464002
0.02939755541
0.04121010477
0.07500830312
0.1283331749
0.1889161975
0.2128541039
0.1214339883
0.06541127607
0.04722813878
0.01260319942
0.01430896186
0.0151181599
0.01539015945
0.01570973774
0.01643487649
0.01775326943
0.01962286225
0.02190390949
0.02440082173
0.0268751348
0.02906817409
0.03081945527
0.0325378568
0.0381447879
0.06529507054
0.03253759194
0.02823795561
0.03072869224
0.0408494646
0.06344620413
0.1023974972
0.1209671705
0.06995682208
0.05295246023
0.05236893007
0.01434976372
0.01645742159
0.01724588817
0.01722726175
0.01716745482
0.01761387783
0.01888408996
0.0209260214
0.02348367324
0.02629387965
0.02910935697
0.03167767196
0.03374080034
0.0350746562
0.03570423515
0.0362213541
0.0335652485
0.03181044627
0.0334862116
0.03928460512
0.04667939168
0.05346273554
0.05904804793
0.05436815176
0.05459065781
0.05703324503
0.01634518822
0.01886473997
0.01973496357
0.01952738545
0.01904230526
0.01897869754
0.01993448883
0.02202329683
0.02482728259
0.02793292727
0.03107124442
0.03401060756
0.03652599235
0.03837737281
0.03928197775
0.03892451197
0.03766682574
0.03690480372
0.0407641039
0.04943295036
0.05739328101
0.05802936366
0.05145031811
0.05526497454
0.05879813748
0.06146869665
0.01827265673
0.02114709109
0.02224716765
0.02210484119
0.02135082962
0.02062060665
0.0208706105
0.02272840792
0.02575856672
0.02917540746
0.03264426704
0.03594986952
0.03887455407
0.04117185741
0.04255284132
0.04276085073
0.04227023162
0.04385864931
0.05293243911
0.06814956353
0.0804389299
0.07929399419
0.05951578148
0.05816454485
0.06200892045
0.06533270065
0.01981520547
0.02297713481
0.02445095634
0.02470073597
0.02403591727
0.02269407596
0.02181215774
0.02287307819
0.02600616739
0.02978224216
0.03357714655
0.03719907607
0.0404615466
0.04314409194
0.04500893254
0.0460262365
0.04751185738
0.0540805084
0.07029011829
0.09167496034
0.108298354
0.1091821632
0.07750980856
0.06306310717
0.06532514596
0.06971059631
0.02076379696
0.02411378395
0.02603330228
0.02692883812
0.02673553625
0.02520144632
0.02310681206
0.02259736668
0.02518408094
0.02940451927
0.03360263427
0.03749752087
0.04101578404
0.04398833958
0.04630690305
0.04842556972
0.05289750667
0.06498202595
0.0864153195
0.1111119218
0.1301413167
0.1339929691
0.105094792
0.07293193451
0.06709332055
0.06901792925
0.02097826575
0.02432394444
0.02660948421
0.02808388645
0.02845385131
0.02738629347
0.02535744942
0.02306115911
0.02291670115
0.0267136081
0.03117997849
0.03544717138
0.03924245
0.04246209103
0.04505635835
0.04724593803
0.05026171332
0.05767695756
0.07425005034
0.09868022726
0.1196298573
0.1227554192
0.09628118601
0.07158797684
0.06728001866
0.06817227879
0.02028047779
0.02330661569
0.02579681286
0.02757794591
0.0285403025
0.02925532701
0.03023807107
0.02807296794
0.02062088955
0.02345244618
0.02748699135
0.03166856475
0.03563393445
0.03896194583
0.04161346384
0.04367793163
0.04569171677
0.04948265042
0.05877022917
0.07586431253
0.09426543416
0.098317096
0.07695632419
0.06421162126
0.06379761146
0.06522451731
0.01784015024
0.02049149004
0.02337843232
0.02577596447
0.02905254106
0.0347989229
0.04138175983
0.04116353456
0.02185756681
0.02010609801
0.02343225157
0.02709921588
0.03065534758
0.03413231524
0.03692897618
0.03907707065
0.04078050913
0.04274047909
0.04675695592
0.05533082963
0.06719767453
0.07141965515
0.05843278842
0.05569841138
0.05841579391
0.06046414628
0.01119983848
0.01520811111
0.0198276034
0.0257329039
0.03504723742
0.04730760236
0.0600524187
0.06503557923
0.03684866614
0.02074295847
0.0194197337
0.02251832854
0.02565149416
0.02862431584
0.03135065352
0.03364376045
0.0353868635
0.0368036816
0.03849582078
0.04168511027
0.04708405125
0.05048749267
0.04544187259
0.04766669623
0.05171245704
0.05401333792
0.009436449228
0.01379099815
0.02121890251
0.03202454932
0.04495019341
0.06043072587
0.07710856038
0.0842403332
0.06064561989
0.03154769951
0.01953651306
0.01859587348
0.02075312003
0.02337572279
0.02576927911
0.02783108473
0.02961521719
0.03097087836
0.03199554932
0.03305841732
0.03495749667
0.03700596769
0.0366149082
0.04066925779
0.0441640759
0.04619484938
0.00780083206
0.009234541285
0.01093458212
0.01338360876
0.01763009646
0.02541536853
0.03724390081
0.04454987094
0.03585441087
0.02455180017
0.02369095572
0.02134890633
0.0182341264
0.01870634375
0.02072089897
0.0225921467
0.0241399236
0.02533314326
0.02618734468
0.02672750259
0.02718597631
0.02796539509
0.02949464497
0.03385330094
0.03673805181
0.03791770607
0.007562108444
0.00918451257
0.01144369734
0.01431169894
0.01735116177
0.02028956721
0.02373312701
0.02544715199
0.02532053075
0.0270791226
0.02824592317
0.02728396998
0.02316419899
0.01756273411
0.01651406737
0.01799157837
0.01935756271
0.020317651
0.02092823847
0.02111549175
0.02090614086
0.02076543353
0.0228414549
0.02657553328
0.02870343074
0.02938603559
0.007246944266
0.0089100685
0.01150738511
0.01477123918
0.01796807623
0.02052695584
0.02240344932
0.0241827448
0.02653983526
0.02935807468
0.03129815485
0.03071290102
0.0271692921
0.02254761678
0.01750386192
0.01457631806
0.0153916952
0.01602850211
0.0162447246
0.01597721921
0.01530288653
0.01480176028
0.01659357488
0.01906192556
0.02011393273
0.02023574291
0.007675227404
0.008503671423
0.01099445902
0.01444517978
0.01794257664
0.02082641961
0.02296865779
0.02518687068
0.02821538317
0.03166056633
0.03389953548
0.03353424736
0.02897404141
0.0234289821
0.01887045619
0.01460666461
0.0127601665
0.01289988968
0.01323169334
0.01372522521
0.01455840205
0.01488264997
0.01220357649
0.01299663634
0.01355208565
0.01373684158
0.01086306236
0.008943909928
0.01007483044
0.01287201882
0.0163513118
0.01977026421
0.0224395924
0.0247665539
0.02747597923
0.03032036228
0.032185646
0.03223522356
0.02801230651
0.02221153626
0.01757819371
0.01388951976
0.01091190695
0.01101254812
0.01262037232
0.01498567366
0.01762688414
0.01731123528
0.01145126496
0.009515068408
0.009525818884
0.01754557236
0.01231337637
0.01102474741
0.01178685532
0.0134700394
0.01613075436
0.01937654614
0.02219516879
0.02412311933
0.02597319432
0.02691512464
0.02569375852
0.02186665326
0.01804960675
0.01589843423
0.01328052496
0.009714116672
0.008642915547
0.00997993646
0.01221865542
0.01546950933
0.01627662301
0.01152008381
0.008161095558
0.00791640822
0.02580916965
0.01872455494
0.01586741607
0.01547999888
0.01576289101
0.01634842915
0.01733608428
0.01893977323
0.02101098629
0.02277155947
0.02293783241
0.02093238291
0.0159552772
0.01123564297
0.009979439309
0.008899690283
0.00769311419
0.00739167742
0.00786192568
0.009190299743
0.01104630133
0.01197750139
0.00928572167
0.007131250246
0.007002231282
0.03403306614
0.02655171007
0.02248737162
0.02149943947
0.02152865498
0.02149878186
0.02103865248
0.02017418876
0.01933325444
0.01924834052
0.0193345355
0.01785606424
0.01444795211
0.01189476608
0.01004074838
0.008699538841
0.007539268618
0.006974508013
0.006959158997
0.007768304938
0.009016116187
0.01222996504
0.01321373506
0.007553390089
0.006153371928
0.04100688862
0.03396084692
0.02831104554
0.02600301486
0.02585826979
0.02606932586
0.02588467294
0.02501321599
0.02358934859
0.02194054852
0.02009433884
0.01810741018
0.0162066764
0.01476907486
0.01352815932
0.01193562685
0.009137482052
0.007406026272
0.008220806779
0.01031824507
0.01384206673
0.02483796146
0.03457345175
0.01423425521
0.008605431358
0.006430155148
0.04639732934
0.04059848555
0.03337383633
0.02908345819
0.02851246111
0.02895873909
0.02913277465
0.02842402183
0.02690747479
0.02470436187
0.02223891324
0.01979816534
0.01758353112
0.01688236882
0.01693150703
0.01633266943
0.01318425253
0.009194786598
0.009535951556
0.01245434298
0.01832739419
0.040181358
0.07993339592
0.03266572994
0.01483259851
0.008398049818
0.003798983168
0.005336781304
0.006730815101
0.007777629984
0.008723051479
0.00969138006
0.0107536432
0.01193497961
0.01319372145
0.01438603166
0.01524393388
0.01546492568
0.01494907868
0.01406066524
0.01362883233
0.01424554646
0.01556772437
0.01704563167
0.01837396765
0.01933823685
0.01979326334
0.01963890478
0.01884145665
0.01748705226
0.01590681782
0.01432785618
0.004821651921
0.006749193751
0.008041493046
0.008911923653
0.009755766791
0.01078498919
0.01218304244
0.01405375939
0.01634785613
0.01871704978
0.02052208703
0.02115517902
0.02038553885
0.01864340437
0.0172045154
0.01754857786
0.0196191408
0.0224091325
0.02527537153
0.02769498
0.02930355935
0.02985578403
0.02913104574
0.02732240833
0.02472006391
0.02214347467
0.005405018243
0.007520425377
0.008841835816
0.009759120911
0.01060634907
0.01165881019
0.0131872721
0.01532032816
0.01792026776
0.02048196163
0.02235212286
0.02317459224
0.02267323507
0.02083377299
0.01885023045
0.01886950687
0.02127997547
0.02489220103
0.02877352306
0.03224846677
0.03488854899
0.03647656892
0.03643881305
0.03476915772
0.03224981911
0.02975190068
0.005986017302
0.008057907433
0.009542402647
0.01057979659
0.01144855154
0.01241821909
0.01380806319
0.01576143116
0.01816300606
0.02060954832
0.02264205157
0.02384620086
0.02377250253
0.02222264669
0.02027080615
0.02020863661
0.02234344875
0.02621010877
0.03077959193
0.03547537176
0.03999211276
0.04419660134
0.04569904536
0.04289173197
0.04016613701
0.03815660823
0.006750865068
0.008701540553
0.01030250153
0.01147903188
0.01240330238
0.0132788885
0.01445848684
0.01615028219
0.01833949238
0.02077451689
0.02302417881
0.02456709021
0.02485546563
0.02380241309
0.02284755296
0.02400045344
0.02420527898
0.02754692071
0.03270614954
0.03961713685
0.04868201199
0.05999720064
0.06407888411
0.05554602188
0.04983553781
0.04763299605
0.007696955442
0.009502465591
0.01111261629
0.01237077194
0.01336196843
0.0141899579
0.01522636834
0.01672148302
0.01869743702
0.0209944206
0.02329697767
0.02512210089
0.02609679533
0.02684044873
0.03105364373
0.04039842635
0.03009699223
0.02961741446
0.03530390431
0.04683744108
0.06721988881
0.09750411372
0.1070546014
0.07913509649
0.06275230427
0.05804835841
0.008732507647
0.01044460818
0.01196293083
0.01320868709
0.01426276537
0.01515608077
0.01624405334
0.01775823251
0.01966103092
0.0218076982
0.02405399261
0.02630294507
0.02915374507
0.03690808351
0.06861557561
0.1226908115
0.05917801164
0.03459831237
0.03997410543
0.06035915991
0.1050020156
0.1674953416
0.1823616253
0.1211261169
0.08104805775
0.06968622673
0.009748095727
0.01144520033
0.01281932685
0.01396479526
0.01506464938
0.01613474012
0.01749458786
0.01935645605
0.02160542416
0.02405613
0.02668494375
0.03007546742
0.03792253379
0.06817310857
0.1750038296
0.3665955287
0.1725079144
0.04757716364
0.04719320722
0.07828632455
0.1497295611
0.2285671453
0.2410873687
0.1692344143
0.1044744402
0.08184864734
0.01073708268
0.01252399836
0.01375288559
0.01474986485
0.01588426297
0.01718528623
0.01889473474
0.0212357615
0.02411203503
0.0272663671
0.03076181309
0.03614536465
0.05191223407
0.1086413167
0.2468101925
0.3493128942
0.2678656994
0.06689754111
0.05326674449
0.08757008732
0.1616862784
0.2330414056
0.2411969732
0.1845565769
0.1193424105
0.09169670025
0.01180512891
0.01385863253
0.01499743266
0.0158224013
0.0169602617
0.01847316275
0.02048257938
0.0232144821
0.02657410923
0.03024196399
0.0339596079
0.03779498151
0.0428542819
0.05451900648
0.09092703957
0.1556376864
0.1045428001
0.05398736923
0.05501060703
0.08020696053
0.1363720191
0.1919986646
0.1989916635
0.1606174318
0.1137532595
0.09527252396
0.01308502058
0.0156705037
0.01685366522
0.01749884994
0.01855016471
0.02014135499
0.02232720912
0.02528779857
0.02902295963
0.03322083752
0.0375248557
0.04170599558
0.04569926639
0.04981875575
0.05526816661
0.06162741171
0.058404035
0.05388954508
0.05639059308
0.06833309253
0.09435936203
0.1275895546
0.1397142024
0.12100322
0.1035594996
0.09795053964
0.01460341447
0.01803304699
0.01950446923
0.02004766922
0.02094801773
0.0224123045
0.02453545348
0.02745890854
0.03134172855
0.03592664651
0.04078233164
0.0455872143
0.05014917155
0.05435245141
0.05806127577
0.06093703677
0.06230066203
0.06335831652
0.06633104684
0.07448400261
0.08740926634
0.09961300419
0.1060892078
0.1031428198
0.1006095109
0.101438467
0.0162066004
0.02072198793
0.02278614107
0.02347592836
0.02433773935
0.02550386358
0.02716700602
0.02971618145
0.03345909115
0.03822042248
0.04350779777
0.04887766216
0.05400700215
0.05868129692
0.06279613966
0.06644438606
0.07023890849
0.0751498782
0.08259277027
0.09443738729
0.1069253575
0.1118777883
0.1102082237
0.1058236771
0.1040991644
0.1068341654
0.017591232
0.02309930195
0.02599882524
0.02729230822
0.02848876008
0.02940150646
0.03016662305
0.0318225391
0.03517403258
0.03983979544
0.04528274568
0.05101941115
0.056644005
0.06194630351
0.06690289694
0.07185358053
0.07778694424
0.08646700949
0.1003170182
0.1206035995
0.1386588443
0.1418510518
0.1311770444
0.1178550494
0.1108536725
0.1149666665
0.01836914779
0.0242735559
0.02811497624
0.03048358549
0.03250518484
0.03349093051
0.03325528391
0.03315274648
0.03591604274
0.04045565594
0.0458111004
0.05161207678
0.05739701656
0.06297473908
0.0684330938
0.07435922828
0.08205964922
0.09376151131
0.1128906511
0.1390172216
0.1598850721
0.1636552902
0.1506353299
0.1316840188
0.1162368574
0.1122506574
0.01822598976
0.02372587328
0.02845633667
0.03208353013
0.03514977912
0.0366460757
0.0357666494
0.0334853408
0.03464712504
0.03955058348
0.04493609877
0.05051230854
0.05603657196
0.06137188322
0.06656003295
0.07217630505
0.07976035764
0.09225615082
0.1129388539
0.139917464
0.1611062152
0.1656650521
0.1535681091
0.1311066975
0.1133777923
0.1073963347
0.01698788641
0.02159063301
0.02696014303
0.03157135955
0.03556762856
0.03766158777
0.036702138
0.03302940172
0.03151138218
0.03546420674
0.04121668832
0.0469839692
0.05218162185
0.05712300345
0.06179034859
0.06651541819
0.07230708747
0.08132096685
0.09654615259
0.1182625742
0.1380709103
0.1438799739
0.133725679
0.1158956637
0.1040509229
0.1004903211
0.01432738511
0.01839383787
0.02372095033
0.02870511481
0.03337613434
0.03671382013
0.03934484187
0.03809484872
0.03138735728
0.02969221779
0.03480641307
0.04069541487
0.04621895476
0.05081985203
0.05499660242
0.05894092185
0.06308934355
0.06850777272
0.07699258216
0.08969767876
0.1032134636
0.1091092561
0.1040207567
0.09543706302
0.09136171152
0.09075519002
0.01025481382
0.01500885833
0.01996729482
0.02514670044
0.03184672149
0.04485308437
0.06510395944
0.07344011736
0.05489216422
0.02876812576
0.02866772787
0.03342501686
0.03844686145
0.0431319443
0.04708705315
0.05048180779
0.05364212752
0.05697180043
0.06124619201
0.06725500594
0.07409754989
0.07760195789
0.07610163911
0.07576285714
0.07733946705
0.07856880161
0.009170561125
0.01274726621
0.01671571085
0.0214983128
0.03073466217
0.05221425177
0.08109771925
0.09614239513
0.08693331483
0.03765855955
0.02492508193
0.02625726287
0.03053897629
0.03474410499
0.03852580273
0.04182031912
0.04443401003
0.04671194538
0.04894723746
0.05140212628
0.05369124505
0.05462771942
0.05464945201
0.05774046885
0.06217607709
0.06406439698
0.008184929673
0.01045346919
0.01214507767
0.01401225403
0.01697666804
0.02521862145
0.0488563568
0.07599397465
0.07662853325
0.03225364039
0.02490980585
0.02311943716
0.02403602906
0.02705675663
0.03033541273
0.03313812785
0.03540155203
0.03713168872
0.03829754717
0.03897583559
0.03923465965
0.03878267751
0.03887888407
0.04207691842
0.04619089715
0.04792893112
0.007767133051
0.01000816497
0.01165597949
0.01362205607
0.01611962245
0.01890625989
0.02245015292
0.02801457377
0.03143693899
0.02765974596
0.02839954786
0.02582353121
0.02285891968
0.02155694265
0.02322660468
0.02556532647
0.02714679964
0.028159815
0.02859994871
0.02846012554
0.02788961986
0.02689613061
0.02697570306
0.02933027462
0.03223832695
0.03268687386
0.007314217215
0.01008443044
0.01159788673
0.01326756772
0.01546207586
0.01764480872
0.01954164589
0.02176780284
0.02569430042
0.03053561059
0.03384324616
0.03265177572
0.02771897857
0.02197438852
0.0192708345
0.01929233379
0.02053412917
0.02095435597
0.02108285914
0.02094438446
0.02046494877
0.01945646695
0.01847457453
0.02001982897
0.02208637355
0.02231752201
0.007692973222
0.01022514158
0.01170234463
0.01308206554
0.01523033056
0.01719865952
0.01891708339
0.02206921058
0.02796400225
0.03487661794
0.03924720577
0.0393255764
0.03427418947
0.02463544687
0.0191643341
0.0158784701
0.01551927735
0.01623913514
0.01721149105
0.0187167542
0.01982544554
0.01816617009
0.01393415359
0.01396724546
0.01595411042
0.01591266366
0.01019345805
0.01063169007
0.01165756949
0.01270600871
0.01457542147
0.01640662997
0.01821520661
0.02121815488
0.02619766815
0.03159095451
0.03519329295
0.03602588928
0.03378574717
0.02763633584
0.0202565369
0.01559815534
0.01271933494
0.01323024685
0.01571831243
0.0194989979
0.02220047585
0.02015132023
0.01340445955
0.01060133456
0.0118812927
0.01503178121
0.01220774583
0.01202592153
0.01261393355
0.01386483766
0.01537687309
0.01688162175
0.01852065699
0.02165393377
0.02589669994
0.02907758486
0.02925203383
0.02671616366
0.02366080773
0.01984331077
0.01710937688
0.01247267532
0.01134228715
0.01206738478
0.01545123358
0.01973385486
0.02066051184
0.01360415739
0.009217675742
0.01051174799
0.02121480694
0.01599422967
0.01421474275
0.01394705848
0.01424877111
0.01483302505
0.0156449755
0.01654855742
0.01736638367
0.01806355249
0.01876180565
0.01785071801
0.01575713702
0.01545241068
0.01494854545
0.01337211213
0.0109331579
0.00991716022
0.00914530811
0.01044847076
0.01328877555
0.01353607717
0.01101217024
0.007867439527
0.008908440552
0.0277222836
0.02177694934
0.01904179546
0.01824916217
0.0180197847
0.01787855474
0.01763370884
0.01735166594
0.01725493359
0.01724408945
0.01684496496
0.01553374592
0.01295741096
0.0114392027
0.0113565369
0.01207572171
0.01120963542
0.01007419306
0.009354633202
0.009943019472
0.01207618701
0.01704741665
0.01728315759
0.007902401026
0.006760113593
0.03389112198
0.02866947566
0.02505188798
0.02344297874
0.02289820636
0.02296574974
0.02295869231
0.0224179332
0.02153978146
0.02027042667
0.01854564615
0.0166052564
0.01445182252
0.01276967264
0.01159038961
0.01184321404
0.01179961073
0.01121361565
0.01205467674
0.01449555048
0.02456447134
0.04602873558
0.07402016137
0.01696745415
0.008041743077
0.006037923437
0.03976240688
0.03716774794
0.03234371882
0.0289439308
0.02747084411
0.02797403155
0.02877092103
0.02829753263
0.02700638413
0.02475479681
0.02133137244
0.01854572978
0.01579636722
0.01530469227
0.01346059601
0.01255306332
0.01186824854
0.01126505458
0.01381602592
0.01877255139
0.03346705168
0.09644843409
0.1104595725
0.05575061582
0.01531751776
0.007136761337
0.0035918995
0.005271165876
0.00669318404
0.007721932622
0.008578433483
0.009408071002
0.01029209686
0.01127391121
0.01235082794
0.01343791559
0.0143414066
0.01480806678
0.01469548856
0.01419446258
0.0138724127
0.01426637254
0.0153271852
0.01665711035
0.0179455027
0.01894801005
0.01949248172
0.01945210146
0.01877394928
0.01753820345
0.01604980434
0.01454381189
0.004652309281
0.006576939259
0.007953881309
0.008789956963
0.00947956448
0.01026420373
0.01134565472
0.01284602331
0.01479224468
0.01702196514
0.01912108664
0.02049554558
0.0206583949
0.01964857791
0.01837096628
0.01832018528
0.02004375301
0.02277535707
0.02585315036
0.02866869069
0.03074802374
0.03169952616
0.03121602443
0.02938194299
0.02681060887
0.0242601998
0.005404833325
0.007293974334
0.008626264211
0.009481040407
0.01012010952
0.01083059071
0.01191235175
0.01355407205
0.01578644707
0.01839001539
0.02089680041
0.02270171602
0.02329646207
0.02243270719
0.02072160488
0.02024563658
0.02242373156
0.02624099627
0.03073092761
0.03497282751
0.03840711156
0.04060078063
0.04089706879
0.03926650016
0.03685094859
0.0345966923
0.005857829594
0.00769288871
0.009112966922
0.01010284762
0.01081355452
0.01149547385
0.01254088848
0.01421658562
0.01657622294
0.01934398477
0.02196649376
0.02389182899
0.02488122607
0.02453147117
0.02296409628
0.02234049475
0.02471762469
0.02895566735
0.03446639228
0.0401882566
0.04579361704
0.05068690375
0.05246575891
0.0501221647
0.04753650619
0.04620837222
0.006539177146
0.008136326657
0.00957619556
0.01070768415
0.01157794639
0.01234021144
0.0134292912
0.01516334826
0.01760526784
0.02044375437
0.02310500944
0.02512404382
0.02648461588
0.02672787761
0.02610446293
0.02645475023
0.0291128631
0.03212152311
0.03844594377
0.0468726691
0.05791516124
0.06965647781
0.07352970705
0.0664525747
0.06001739671
0.05859827719
0.00740670794
0.008732686658
0.01006393656
0.01120414054
0.01220388829
0.01311247686
0.01432360913
0.0161250178
0.01858496369
0.02148590577
0.02438134969
0.02679040866
0.02859567412
0.0301277949
0.03370942687
0.03969468999
0.04335086473
0.03749264439
0.04427313286
0.05909871733
0.08348499832
0.1094621056
0.1151394963
0.09707825454
0.07727392125
0.07144534644
0.008380819654
0.009528550618
0.01065124919
0.01162381278
0.0126033469
0.01363924672
0.0150317072
0.01694954932
0.01940483989
0.02225308141
0.0252401069
0.02813257716
0.03141685865
0.03889831104
0.06603407573
0.1121940024
0.0985175954
0.05125892815
0.05443256931
0.08123534666
0.1283165132
0.1733445121
0.1797566527
0.1478125336
0.10375813
0.08582317378
0.009328881296
0.01041849445
0.01132453055
0.01203582657
0.01284683425
0.01391998471
0.0155147633
0.01766896287
0.0202871781
0.02318873098
0.02630324658
0.03019491787
0.03828653819
0.06637252404
0.1738541885
0.3171787516
0.2438601878
0.09089148319
0.06943002892
0.1084617325
0.1761449063
0.2316559796
0.2370904523
0.199868837
0.1352161254
0.1013216444
0.01019733798
0.01134880371
0.01209346256
0.01258381486
0.01322120286
0.01428236103
0.01607157487
0.01856578894
0.02160962218
0.02501811059
0.02885355037
0.03467455917
0.05082629212
0.1066638817
0.2452535334
0.3534087314
0.3445496302
0.1405882628
0.08275808414
0.1227371661
0.1948129027
0.2486015591
0.2531933282
0.2182135549
0.1524813479
0.1130771678
0.01103083259
0.01239545837
0.01307748749
0.01347861588
0.0140725436
0.01512709441
0.01701809328
0.01976469273
0.02323564916
0.02717829132
0.0313108884
0.03594501018
0.04367645314
0.06685421924
0.1415289812
0.2497632131
0.2093362063
0.09995923435
0.0815810436
0.1153829745
0.1748916721
0.2246047255
0.2306904994
0.1962930376
0.1446180735
0.1160888651
0.01192721566
0.01372824588
0.01451896827
0.01503359085
0.0158057302
0.01694200111
0.01877455952
0.02150508236
0.02523877886
0.02977223928
0.03465772832
0.0397131844
0.04524805247
0.05271459566
0.06597856186
0.08807649233
0.08744875004
0.07378403967
0.07750624793
0.09828238059
0.134988153
0.1717762933
0.1808271182
0.1567737778
0.129043392
0.1154328707
0.0129505806
0.01546787658
0.01665844991
0.0176056651
0.01882852208
0.02015042533
0.02175429292
0.02409993536
0.02766815364
0.03246456123
0.03792400866
0.04359953386
0.04933433603
0.05524081338
0.0615428186
0.06823284526
0.07220616434
0.07600489189
0.08306815397
0.09595529606
0.1138309497
0.1309926319
0.1368673316
0.1280041684
0.118473721
0.1151667009
0.01404983062
0.01753494359
0.01951420842
0.02132987039
0.02329034233
0.02486581151
0.02611527117
0.02769852208
0.03057515703
0.03514583256
0.04086084796
0.04702866478
0.05320723878
0.05918256719
0.06491514249
0.07060929485
0.07643876406
0.0840301867
0.09486152675
0.1094870509
0.1239672009
0.1320975317
0.1307938787
0.1228679038
0.1171586663
0.1173955548
0.01503763401
0.01957023911
0.02268332852
0.02573840294
0.02859234342
0.03052394671
0.03151838556
0.03215140533
0.03383429932
0.03760718002
0.04303806016
0.04928239291
0.05568216977
0.06192619921
0.06800308607
0.07430825375
0.08180724729
0.09266703572
0.1088491545
0.1294300207
0.1467394152
0.1527079921
0.1460692063
0.1315994224
0.1215921996
0.1207600699
0.01563427606
0.02107582199
0.02543368297
0.02972035951
0.03328661258
0.03580317727
0.03713992739
0.03703774662
0.03701348523
0.03958363437
0.04425177906
0.05009338962
0.05628066306
0.06240769642
0.06848494291
0.07508853761
0.08362924752
0.09665231212
0.1164911994
0.1407193929
0.1595152201
0.1657315748
0.159149096
0.141170606
0.1248697247
0.1196145662
0.01560297714
0.02174116284
0.02708607501
0.03209502268
0.03622590091
0.03966111587
0.0419452681
0.04172450818
0.0394709782
0.0405888799
0.0444008228
0.04953415229
0.05510778026
0.06068033685
0.0662119202
0.07224349005
0.08023452069
0.0929376387
0.113184974
0.138525145
0.1583473475
0.1651958358
0.1583920726
0.1393299724
0.1215482964
0.1140903016
0.0147899009
0.02144604221
0.0272088632
0.03246587869
0.03732082151
0.04201314813
0.04592537777
0.04673722945
0.04144528838
0.03942678112
0.0426115753
0.04707509507
0.05183851788
0.0566420684
0.06134327899
0.06626847345
0.07246144645
0.08209036463
0.09810661162
0.1204863891
0.1408622961
0.1487648531
0.1416900854
0.1250753996
0.1114275383
0.1058779157
0.0130008616
0.0201126126
0.02572382265
0.03106664357
0.03699426796
0.04429278327
0.05283688898
0.05862070767
0.05046702212
0.03749284221
0.03826390091
0.04238615012
0.04659004225
0.05060245009
0.05446133589
0.05832405239
0.06269524899
0.06873055769
0.07834562689
0.09273933536
0.1082198249
0.1163439739
0.1130673657
0.1038836344
0.09732414106
0.09508343428
0.01061473349
0.01753542976
0.02262708277
0.02775705547
0.035514083
0.05002418256
0.07180322423
0.08734578061
0.08241315554
0.04371281135
0.03335950645
0.03621518836
0.039974497
0.0433817985
0.04640768341
0.04938481037
0.0525324414
0.05629845718
0.06153980721
0.0691092313
0.07804250443
0.0842501312
0.08473098485
0.08267751851
0.0818186704
0.08186873548
0.009624488384
0.01428317263
0.01806686801
0.02229712522
0.03112062953
0.05334486369
0.08571471083
0.1050735854
0.1067395774
0.0650533669
0.03147603352
0.02961709925
0.03291462618
0.03587644879
0.03828000933
0.04046661799
0.04268886555
0.04518152251
0.04820340332
0.05204975991
0.05638907255
0.05969707153
0.06115501558
0.06277561669
0.06494810845
0.06596014492
0.008673278402
0.01199980311
0.01462620123
0.01733247868
0.02265275479
0.03908704667
0.07263932863
0.09980069276
0.09765718257
0.05802028995
0.02831897203
0.02436594113
0.02607185761
0.02877252121
0.03082092745
0.03232100007
0.03373664829
0.03526145976
0.03693515665
0.03877404721
0.0406091299
0.04186050948
0.0426755067
0.04469557366
0.04722616702
0.0481396195
0.007963217344
0.01070307144
0.01261013316
0.01443503312
0.01634942097
0.01924167057
0.02596224181
0.03769390282
0.0393406655
0.02756027937
0.02590882651
0.02386156841
0.0225132491
0.0226370515
0.02440821902
0.02567896963
0.02628526304