/*--------------------------------*- C++ -*----------------------------------*\
  =========                 |
  \\      /  F ield         | OpenFOAM: The Open Source CFD Toolbox
   \\    /   O peration     | Website:  https://openfoam.org
    \\  /    A nd           | Version:  8
     \\/     M anipulation  |
\*---------------------------------------------------------------------------*/
FoamFile
{
    version     2.0;
    format      ascii;
    class       volScalarField;
    location    "0.9";
    object      N2;
}
// * * * * * * * * * * * * * * * * * * * * * * * * * * * * * * * * * * * * * //

dimensions      [0 0 0 0 0 0 0];

internalField   nonuniform List<scalar> 
67410
(
0.7899942575
0.7899949075
0.7899952196
0.7899953853
0.7899955527
0.7899957194
0.7899958676
0.7899959962
0.7899961117
0.7899962157
0.789996302
0.7899963611
0.789996386
0.7899963885
0.7899964042
0.7899964308
0.789996428
0.7899963685
0.7899962836
0.7899961965
0.7899961192
0.789996054
0.7899960069
0.7899959978
0.7899959918
0.7899959959
0.7899946985
0.7899951458
0.789995378
0.7899955782
0.7899957833
0.7899959604
0.7899960991
0.7899962106
0.7899963037
0.7899963787
0.789996435
0.7899964778
0.7899965107
0.7899965381
0.7899965577
0.7899965361
0.7899964941
0.7899963851
0.7899962778
0.7899961913
0.7899961355
0.7899961057
0.7899961105
0.7899961782
0.789996209
0.7899962312
0.7899950033
0.7899953147
0.7899955527
0.7899957855
0.7899959911
0.78999615
0.7899962722
0.7899963719
0.7899964503
0.7899965039
0.7899965389
0.7899965821
0.7899966427
0.7899966978
0.7899967
0.7899965734
0.7899965527
0.7899964021
0.7899962971
0.7899962193
0.7899961759
0.7899961521
0.7899962147
0.7899963695
0.7899964142
0.7899964291
0.789995148
0.7899954806
0.7899957523
0.7899959807
0.789996157
0.7899962909
0.7899964021
0.7899964981
0.789996573
0.7899966208
0.7899966609
0.7899967149
0.7899967943
0.7899968513
0.7899968007
0.7899964501
0.7899966493
0.7899964
0.7899963213
0.7899962404
0.7899961884
0.7899961679
0.7899964186
0.7899965769
0.7899966454
0.7899966491
0.7899953144
0.7899956842
0.7899959499
0.7899961381
0.7899962747
0.7899963881
0.7899964972
0.7899966047
0.7899967037
0.7899967885
0.7899968617
0.7899969368
0.7899970033
0.7899969866
0.7899967849
0.7899958838
0.7899968662
0.7899963224
0.7899963428
0.7899962274
0.7899961893
0.7899963535
0.78999708
0.7899967797
0.7899968916
0.7899969016
0.789995531
0.7899958934
0.7899961122
0.7899962478
0.7899963503
0.7899964509
0.7899965649
0.7899966954
0.7899968389
0.7899969873
0.7899971235
0.7899972164
0.7899972053
0.7899970049
0.7899964134
0.7899943503
0.7899973044
0.7899960486
0.7899963676
0.7899962208
0.7899964138
0.789997148
0.7899984133
0.7899970414
0.7899971397
0.7899971687
0.7899957444
0.7899960631
0.7899962256
0.7899963207
0.7899964032
0.7899964998
0.7899966239
0.789996782
0.7899969709
0.7899971742
0.7899973447
0.7899973942
0.7899971911
0.7899965749
0.7899949556
0.7899927676
0.7899975696
0.7899954566
0.789996484
0.789996415
0.7899971295
0.78999847
0.7899999127
0.7899976778
0.7899974506
0.7899974477
0.7899958975
0.7899961714
0.7899963002
0.7899963791
0.7899964564
0.789996555
0.7899966899
0.7899968718
0.7899970921
0.78999732
0.789997477
0.7899974032
0.7899968054
0.7899952657
0.7899930565
0.7899959671
0.7899965101
0.7899953737
0.7899966442
0.7899969016
0.7899979879
0.7899995251
0.7900006761
0.7899986147
0.7899979002
0.789997765
0.7899959689
0.7899962285
0.789996359
0.7899964436
0.7899965246
0.7899966251
0.7899967636
0.7899969583
0.7899971984
0.7899974503
0.7899976563
0.7899977633
0.7899977816
0.7899978459
0.7899983181
0.7900016231
0.78999768
0.7899972787
0.7899971045
0.7899973573
0.7899982043
0.7899994468
0.7900001888
0.789998706
0.7899982293
0.7899981092
0.7899959844
0.7899962739
0.7899964317
0.78999653
0.7899966152
0.7899967169
0.7899968565
0.7899970547
0.7899972979
0.7899975508
0.789997763
0.7899978868
0.7899978659
0.7899975662
0.7899969379
0.7899967732
0.7899974267
0.7899970203
0.7899971594
0.7899971924
0.789997419
0.7899979561
0.7899985011
0.7899981874
0.789998295
0.7899983969
0.789996001
0.7899963514
0.7899965368
0.78999664
0.7899967225
0.789996821
0.7899969587
0.7899971521
0.7899973863
0.7899976258
0.7899978288
0.7899979658
0.7899980294
0.7899980348
0.789998045
0.7899981449
0.7899978336
0.7899975088
0.7899974018
0.7899974079
0.7899975793
0.7899978599
0.7899982275
0.7899983468
0.7899986041
0.7899986797
0.7899960612
0.7899964626
0.7899966532
0.7899967489
0.7899968267
0.7899969237
0.7899970618
0.7899972492
0.789997475
0.7899977093
0.7899979198
0.7899980843
0.7899981916
0.7899982361
0.7899982151
0.7899980939
0.7899979806
0.7899977471
0.7899976313
0.7899977059
0.7899979537
0.7899981908
0.7899982343
0.7899985603
0.7899987843
0.7899988911
0.7899961562
0.7899965589
0.7899967253
0.7899968089
0.7899968925
0.7899970004
0.7899971461
0.7899973336
0.7899975508
0.7899977784
0.7899979886
0.7899981617
0.7899982896
0.7899983689
0.7899983883
0.7899983328
0.7899981732
0.7899979599
0.7899979152
0.7899981473
0.7899985354
0.7899987427
0.7899984126
0.7899987147
0.7899989407
0.7899990009
0.7899962425
0.7899965899
0.7899967129
0.7899967858
0.7899968878
0.7899970211
0.7899971852
0.7899973893
0.7899976082
0.7899978345
0.7899980529
0.7899982451
0.7899984021
0.7899985121
0.7899985538
0.7899985005
0.7899983499
0.7899982089
0.7899983164
0.7899987217
0.7899991999
0.7899993541
0.7899986466
0.7899988121
0.7899990743
0.7899992437
0.7899962839
0.7899965449
0.7899966242
0.7899966974
0.7899968197
0.789996964
0.7899971412
0.7899973814
0.7899976277
0.7899978556
0.7899980785
0.7899982814
0.7899984526
0.7899985778
0.7899986368
0.7899986085
0.7899985138
0.7899984969
0.7899987268
0.7899991534
0.7899995633
0.7899995996
0.7899990086
0.7899988305
0.7899990616
0.7899992686
0.789996268
0.7899964467
0.7899965034
0.7899965918
0.7899967097
0.7899968237
0.7899969828
0.789997288
0.789997573
0.7899978109
0.7899980338
0.7899982461
0.7899984309
0.7899985773
0.7899986721
0.789998699
0.7899986518
0.7899985718
0.7899985756
0.7899987568
0.7899990136
0.7899990362
0.7899986885
0.7899986659
0.7899988974
0.7899990684
0.7899961842
0.7899963012
0.7899963657
0.7899964479
0.7899965243
0.7899966161
0.7899968451
0.7899972524
0.7899975084
0.7899977507
0.7899979686
0.7899981736
0.7899983469
0.7899984891
0.7899985911
0.7899986411
0.7899986275
0.7899985537
0.7899984717
0.78999848
0.7899985955
0.7899986142
0.7899983379
0.7899984478
0.7899986538
0.7899987958
0.7899959569
0.7899960538
0.7899961728
0.7899962378
0.7899963163
0.7899965759
0.789997054
0.7899974519
0.7899973866
0.7899976282
0.7899978539
0.7899980533
0.789998216
0.7899983458
0.7899984447
0.7899985053
0.789998518
0.7899984737
0.7899983784
0.7899982789
0.7899982356
0.7899982042
0.7899980072
0.7899981514
0.7899983105
0.7899984098
0.7899953675
0.7899956608
0.7899959227
0.7899960684
0.7899963852
0.7899969565
0.7899975302
0.7899977277
0.7899971136
0.7899973645
0.7899976431
0.7899978823
0.7899980381
0.7899981623
0.7899982556
0.7899983183
0.7899983471
0.7899983332
0.7899982661
0.789998146
0.7899980004
0.7899978826
0.78999773
0.7899978204
0.7899979056
0.7899979471
0.7899954554
0.7899955505
0.7899957893
0.7899962192
0.7899968082
0.7899972884
0.7899976022
0.7899975688
0.7899971311
0.7899971683
0.7899973026
0.7899976333
0.7899978336
0.7899979508
0.7899980385
0.7899980997
0.7899981337
0.7899981387
0.7899981041
0.7899980132
0.78999785
0.7899976646
0.7899974921
0.7899974845
0.789997482
0.789997453
0.7899958291
0.7899957884
0.7899958417
0.789995946
0.7899960496
0.7899961934
0.7899964619
0.7899965802
0.7899967027
0.7899967628
0.7899968513
0.7899970012
0.7899974192
0.7899977184
0.7899978142
0.7899978694
0.7899979009
0.7899979118
0.7899978963
0.7899978373
0.7899977017
0.7899975046
0.7899972754
0.7899971507
0.7899970521
0.7899969673
0.789996013
0.7899959374
0.789995965
0.7899960949
0.789996242
0.7899963516
0.7899964721
0.7899966002
0.7899965666
0.7899965964
0.7899965488
0.7899964979
0.7899966799
0.7899971508
0.7899975719
0.7899976564
0.7899976771
0.7899976721
0.789997648
0.7899975927
0.7899974706
0.7899972908
0.7899970469
0.7899968085
0.789996605
0.7899964612
0.789996099
0.7899960054
0.7899960107
0.7899961571
0.7899963248
0.7899964197
0.7899964557
0.789996478
0.7899964377
0.7899964083
0.7899963628
0.7899962687
0.7899962612
0.7899963748
0.7899966844
0.7899973651
0.7899974613
0.789997422
0.7899973377
0.7899972041
0.789996983
0.7899967184
0.7899966946
0.7899964084
0.789996099
0.78999594
0.7899962337
0.789996115
0.7899960441
0.7899961802
0.7899963801
0.789996508
0.789996538
0.7899965296
0.7899964933
0.789996451
0.789996361
0.7899961993
0.7899960502
0.7899959968
0.7899960513
0.7899963955
0.7899971255
0.7899971482
0.7899969207
0.7899966419
0.7899963375
0.7899961243
0.7899962499
0.7899960348
0.789995727
0.7899954836
0.7899964385
0.7899963088
0.7899961077
0.7899961566
0.7899963649
0.7899965433
0.7899965972
0.7899965965
0.7899965696
0.7899964961
0.7899963588
0.7899961583
0.789995915
0.7899957463
0.7899956782
0.7899957608
0.7899964009
0.7899967908
0.7899965074
0.7899961405
0.7899958016
0.7899956227
0.7899958531
0.7899957584
0.7899954669
0.7899965797
0.7899964668
0.7899962626
0.7899961924
0.7899962956
0.7899964875
0.7899966401
0.789996656
0.789996556
0.7899964112
0.7899962197
0.7899959818
0.7899957852
0.7899955652
0.7899954816
0.7899955191
0.7899957873
0.7899962669
0.7899963546
0.789996103
0.789995788
0.7899955292
0.7899956432
0.7899955768
0.7899952967
0.7899967021
0.7899966527
0.7899965239
0.7899964736
0.7899964802
0.7899965198
0.7899965749
0.789996624
0.7899966167
0.7899964946
0.7899962823
0.789996011
0.7899957895
0.789995543
0.789995208
0.7899951378
0.7899952881
0.7899957685
0.7899959864
0.789995883
0.7899956438
0.7899953235
0.789995284
0.7899953722
0.7899951364
0.7899969181
0.7899968221
0.789996728
0.7899966842
0.7899966574
0.7899966292
0.7899965947
0.7899965569
0.7899965239
0.7899964642
0.7899964082
0.7899962333
0.7899960965
0.7899960026
0.789995754
0.7899954143
0.7899951129
0.789995267
0.7899953979
0.7899953304
0.7899951978
0.7899948049
0.7899944696
0.7899948787
0.7899948798
0.7899972343
0.7899969308
0.7899967664
0.7899966895
0.7899966499
0.7899966024
0.7899965405
0.7899964419
0.7899963046
0.7899961604
0.789996044
0.7899959882
0.7899959756
0.7899960152
0.7899959566
0.7899957676
0.7899952725
0.7899950008
0.7899949752
0.789994761
0.7899944707
0.7899943171
0.7899934463
0.7899939847
0.7899941575
0.7899944362
0.7899975859
0.7899970318
0.7899967802
0.789996644
0.7899965938
0.789996537
0.789996484
0.7899963685
0.7899961844
0.7899959654
0.7899957795
0.789995722
0.789995769
0.7899958246
0.789995857
0.7899958467
0.7899956589
0.7899952059
0.7899948097
0.789994398
0.7899940952
0.7899934292
0.78999471
0.7899935691
0.7899938185
0.7899938977
0.7899941086
0.7899947872
0.789995139
0.7899952918
0.7899954303
0.7899955789
0.7899957197
0.789995838
0.7899959287
0.7899959941
0.7899960428
0.7899960862
0.7899961353
0.7899961964
0.7899962663
0.7899963161
0.7899963116
0.7899962442
0.7899961469
0.789996053
0.78999598
0.7899959287
0.7899958965
0.7899958854
0.7899958867
0.7899958908
0.7899945226
0.7899949905
0.7899952464
0.7899953992
0.7899955613
0.7899957254
0.7899958639
0.7899959582
0.7899960026
0.7899960092
0.789996009
0.7899960359
0.7899961145
0.7899962394
0.7899963626
0.7899964073
0.7899963592
0.7899962429
0.7899961253
0.7899960468
0.7899960185
0.7899960265
0.7899960529
0.7899960879
0.7899961202
0.7899961445
0.7899948518
0.789995154
0.7899953418
0.7899955038
0.7899956722
0.789995831
0.7899959585
0.7899960374
0.7899960623
0.7899960532
0.7899960488
0.7899960781
0.7899961738
0.7899963424
0.7899965077
0.7899965459
0.7899964612
0.7899963149
0.7899962093
0.7899961673
0.7899961876
0.7899962447
0.7899963074
0.7899963529
0.7899963825
0.7899963951
0.7899949893
0.7899952576
0.7899954466
0.7899956063
0.7899957571
0.7899959008
0.7899960267
0.7899961161
0.7899961596
0.7899961741
0.7899961801
0.7899962244
0.7899963499
0.7899965585
0.7899967562
0.7899968045
0.7899966553
0.7899964511
0.7899963608
0.789996359
0.7899964337
0.7899965435
0.7899966351
0.7899966842
0.7899967068
0.789996705
0.7899951117
0.7899953912
0.7899955721
0.7899957006
0.7899958177
0.7899959484
0.7899960877
0.7899962116
0.789996303
0.7899963652
0.7899964221
0.7899965142
0.7899966849
0.7899969406
0.7899971783
0.7899973405
0.7899969889
0.7899966462
0.7899965621
0.7899965895
0.7899967099
0.7899968746
0.7899969632
0.789997053
0.7899970647
0.7899970706
0.7899952994
0.7899955677
0.789995708
0.7899957859
0.7899958679
0.7899959912
0.7899961502
0.7899963183
0.7899964755
0.7899966169
0.7899967536
0.7899969184
0.7899971602
0.7899975131
0.7899978263
0.7899989179
0.7899974404
0.7899968888
0.7899968
0.7899968217
0.7899969489
0.7899971895
0.7899972685
0.789997444
0.7899974138
0.7899974554
0.7899955121
0.7899957499
0.789995838
0.7899958697
0.7899959255
0.7899960426
0.7899962131
0.7899964129
0.7899966273
0.7899968474
0.7899970707
0.7899973156
0.7899976297
0.7899981387
0.7899982937
0.7900004129
0.7899975206
0.789997108
0.7899970448
0.7899970483
0.7899971961
0.7899976458
0.7899977492
0.7899978722
0.7899977646
0.7899978373
0.7899956869
0.7899958991
0.7899959547
0.7899959614
0.7899960018
0.7899961092
0.7899962758
0.7899964816
0.7899967197
0.7899969795
0.7899972563
0.7899975723
0.789997984
0.7899994479
0.7899992215
0.790001085
0.7899975518
0.7899976725
0.7899973083
0.7899972876
0.7899975314
0.7899981444
0.789998207
0.7899983077
0.7899981416
0.7899982116
0.7899957886
0.7899959987
0.7899960548
0.7899960604
0.789996094
0.7899961898
0.7899963481
0.7899965504
0.7899967914
0.7899970562
0.7899973281
0.7899975885
0.7899978369
0.7899981866
0.789998526
0.7899988988
0.7899982466
0.7899975419
0.7899973354
0.7899974332
0.7899978136
0.7899983921
0.7899984519
0.7899986413
0.7899985259
0.7899985803
0.7899958211
0.7899960563
0.7899961371
0.7899961593
0.7899961958
0.7899962839
0.7899964338
0.7899966316
0.789996872
0.7899971373
0.7899974019
0.7899976359
0.7899978108
0.789997863
0.7899976597
0.7899978702
0.7899976652
0.7899973739
0.7899973798
0.7899975073
0.7899979177
0.7899984797
0.7899987225
0.7899988475
0.7899988325
0.7899989109
0.7899958157
0.7899960879
0.7899961965
0.7899962432
0.7899962954
0.7899963874
0.7899965332
0.7899967263
0.7899969603
0.7899972152
0.7899974632
0.7899976815
0.7899978589
0.7899979746
0.7899980259
0.7899981659
0.7899978478
0.7899976667
0.7899975846
0.7899976218
0.7899978376
0.789998235
0.7899985996
0.7899988619
0.7899990573
0.7899991895
0.7899958048
0.7899960923
0.7899962131
0.789996289
0.7899963729
0.7899964847
0.7899966349
0.7899968279
0.7899970596
0.7899973145
0.7899975671
0.7899977928
0.7899979736
0.7899980953
0.789998149
0.7899981454
0.7899980665
0.7899979506
0.7899978894
0.7899979308
0.78999811
0.7899983819
0.7899986913
0.7899990042
0.7899992662
0.7899994323
0.7899957974
0.7899960467
0.7899961631
0.7899962781
0.7899964087
0.7899965544
0.789996722
0.7899969192
0.78999715
0.7899974065
0.7899976665
0.7899979058
0.7899981098
0.7899982684
0.7899983706
0.7899984078
0.7899983572
0.7899982817
0.789998251
0.7899983272
0.789998506
0.7899986886
0.7899989005
0.7899991574
0.7899994252
0.7899996325
0.7899957804
0.7899959405
0.7899960581
0.7899962311
0.7899964119
0.7899965889
0.7899967831
0.7899969925
0.7899972202
0.789997478
0.7899977506
0.7899980132
0.7899982471
0.7899984366
0.7899985656
0.7899986241
0.7899986203
0.7899985999
0.7899986416
0.7899987906
0.7899989807
0.7899990732
0.7899991639
0.7899992946
0.7899995105
0.78999972
0.7899957424
0.7899957988
0.7899959462
0.7899961822
0.7899964004
0.7899966031
0.7899968174
0.7899970498
0.7899972693
0.7899975151
0.7899977875
0.7899980612
0.7899983126
0.7899985227
0.789998677
0.7899987669
0.789998802
0.7899988259
0.7899989037
0.7899990561
0.7899991984
0.7899992206
0.7899992736
0.7899993095
0.7899994322
0.7899995572
0.7899956832
0.7899956559
0.7899958485
0.7899961311
0.7899963877
0.7899966082
0.7899968291
0.7899970766
0.7899973088
0.7899975294
0.7899977786
0.7899980412
0.7899982934
0.789998513
0.7899986841
0.7899987964
0.7899988541
0.789998891
0.7899989614
0.7899990789
0.7899991661
0.7899991538
0.7899991651
0.7899991523
0.7899992313
0.7899993244
0.789995603
0.7899955333
0.7899957491
0.7899960637
0.7899963541
0.789996594
0.7899968225
0.7899970726
0.7899973302
0.7899975296
0.7899977454
0.789997966
0.7899981893
0.7899983932
0.789998561
0.7899986799
0.7899987438
0.7899987625
0.7899987695
0.7899987992
0.7899988324
0.789998806
0.7899987904
0.7899987979
0.7899988811
0.789998953
0.7899954843
0.7899954489
0.7899956575
0.7899959651
0.7899962551
0.7899964683
0.789996687
0.7899969134
0.7899973019
0.7899974694
0.789997673
0.7899978594
0.7899980411
0.7899982115
0.7899983599
0.7899984738
0.7899985419
0.7899985582
0.7899985306
0.7899984832
0.7899984329
0.7899983637
0.7899983219
0.7899983404
0.7899984144
0.7899984576
0.789995297
0.7899954155
0.7899956323
0.7899958772
0.7899961127
0.7899963259
0.7899965933
0.789996841
0.7899971997
0.7899973176
0.7899975484
0.7899977186
0.7899978695
0.7899980035
0.7899981188
0.7899982147
0.7899982787
0.7899982985
0.7899982651
0.7899981821
0.7899980671
0.789997942
0.7899978555
0.7899978435
0.789997867
0.789997861
0.7899954676
0.7899954917
0.7899956609
0.7899958128
0.7899958773
0.7899959529
0.7899962207
0.7899965261
0.7899968328
0.7899970176
0.7899973439
0.7899975384
0.7899976835
0.7899977832
0.7899978701
0.7899979407
0.7899979901
0.789998008
0.7899979791
0.7899978935
0.7899977567
0.7899975998
0.789997467
0.7899973817
0.7899973005
0.7899972186
0.7899957836
0.7899956906
0.7899957052
0.7899957874
0.7899958807
0.789995915
0.7899960499
0.7899964368
0.7899967374
0.7899966885
0.7899970503
0.7899972405
0.7899974525
0.7899975745
0.7899976363
0.7899976784
0.7899977078
0.7899977154
0.7899976856
0.7899976056
0.7899974729
0.7899973127
0.7899971486
0.7899969855
0.7899967868
0.78999662
0.7899959617
0.7899958379
0.7899957942
0.7899958183
0.7899958684
0.7899958893
0.7899959226
0.7899959324
0.7899959904
0.7899961445
0.7899965037
0.7899967671
0.7899970403
0.7899972795
0.7899974312
0.7899974602
0.7899974596
0.7899974439
0.7899974024
0.7899973206
0.7899971894
0.7899970349
0.7899968617
0.7899966226
0.7899962945
0.7899961164
0.7899960394
0.7899959029
0.7899958078
0.7899957795
0.7899957826
0.7899957969
0.7899958665
0.7899959267
0.7899959747
0.7899960079
0.7899960829
0.7899961718
0.7899963565
0.78999669
0.7899970059
0.789997253
0.7899972575
0.7899972014
0.7899971126
0.789996981
0.789996797
0.7899966178
0.7899965129
0.7899962254
0.7899954465
0.7899955792
0.7899961839
0.7899960543
0.7899958762
0.789995796
0.7899958005
0.7899958715
0.7899960042
0.7899961123
0.7899961872
0.789996206
0.7899961698
0.78999607
0.7899959644
0.789995949
0.7899962885
0.7899967413
0.7899970438
0.7899969836
0.7899967811
0.7899965336
0.7899962787
0.7899961536
0.7899961557
0.7899959293
0.7899954517
0.7899951798
0.7899964407
0.7899963035
0.7899960488
0.7899959
0.789995899
0.7899960039
0.789996166
0.7899963049
0.7899963893
0.7899963665
0.7899962445
0.789996052
0.7899958398
0.7899956533
0.7899956338
0.7899960823
0.7899965989
0.7899967347
0.7899964948
0.7899961305
0.7899957581
0.7899956516
0.7899957969
0.7899956706
0.7899952571
0.7899966348
0.7899965025
0.7899962574
0.789996089
0.7899960652
0.7899961696
0.7899963011
0.7899963695
0.7899963756
0.7899962734
0.7899960742
0.7899958282
0.7899956192
0.7899954534
0.7899953233
0.7899954716
0.7899960373
0.7899963315
0.789996344
0.7899960767
0.7899956767
0.7899954296
0.7899956029
0.7899954728
0.789995087
0.7899966957
0.7899966743
0.7899965005
0.7899963655
0.7899963091
0.7899963278
0.7899963816
0.7899964196
0.7899964022
0.789996277
0.7899959791
0.7899956572
0.7899954458
0.7899952305
0.7899950453
0.7899950343
0.7899953559
0.7899957799
0.7899959592
0.7899958301
0.7899955165
0.7899950806
0.7899953123
0.7899952964
0.7899949688
0.7899966842
0.7899967777
0.7899967076
0.7899966087
0.7899965347
0.7899964939
0.7899964703
0.7899964458
0.7899964121
0.789996375
0.7899962817
0.789996107
0.7899959803
0.7899957766
0.7899953993
0.7899950302
0.7899949576
0.7899952016
0.7899953861
0.7899953453
0.7899953435
0.7899948972
0.789995094
0.7899949622
0.7899948533
0.7899966197
0.789996723
0.7899967198
0.7899966484
0.7899965878
0.7899965331
0.7899964758
0.7899964117
0.7899963266
0.7899962285
0.7899961352
0.7899960599
0.7899960325
0.789995965
0.7899956942
0.7899952401
0.7899948654
0.7899948746
0.7899949552
0.7899948323
0.7899947084
0.7899938597
0.7899944424
0.7899943325
0.7899942612
0.7899942573
0.7899965134
0.7899965883
0.7899966214
0.7899965667
0.7899965459
0.7899965229
0.7899964465
0.7899963437
0.789996203
0.7899960497
0.7899959248
0.7899958563
0.78999585
0.7899957377
0.7899953917
0.7899953291
0.789995123
0.789994907
0.7899948219
0.7899946026
0.7899947026
0.789994666
0.7899952614
0.789994452
0.7899943405
0.7899939895
0.789993949
0.7899946546
0.7899950579
0.789995216
0.7899953296
0.7899954516
0.7899955751
0.7899956861
0.7899957752
0.7899958402
0.7899958859
0.7899959242
0.7899959699
0.7899960332
0.7899961072
0.7899961619
0.7899961649
0.7899961089
0.7899960187
0.7899959284
0.7899958586
0.7899958125
0.789995787
0.7899957777
0.7899957782
0.7899957798
0.7899943421
0.7899948287
0.7899951452
0.7899952833
0.789995403
0.7899955341
0.7899956598
0.7899957597
0.7899958207
0.789995843
0.7899958453
0.7899958617
0.7899959241
0.7899960366
0.7899961607
0.789996229
0.789996206
0.7899961191
0.7899960215
0.789995958
0.7899959425
0.7899959619
0.7899959967
0.789996029
0.7899960549
0.7899960724
0.7899947084
0.7899950114
0.7899952093
0.7899953336
0.7899954568
0.7899955892
0.7899957145
0.789995809
0.7899958534
0.7899958472
0.7899958191
0.7899958218
0.7899959026
0.7899960626
0.7899962373
0.7899963248
0.7899962884
0.7899961968
0.7899961243
0.7899961095
0.7899961533
0.7899962304
0.7899963112
0.7899963627
0.7899963935
0.7899964024
0.7899948505
0.7899950959
0.7899952582
0.7899953791
0.7899954967
0.7899956247
0.789995753
0.7899958543
0.7899959008
0.7899958893
0.7899958565
0.7899958633
0.7899959616
0.7899961569
0.7899963593
0.7899964492
0.7899964116
0.7899963297
0.7899962964
0.7899963381
0.7899964451
0.7899965856
0.7899967208
0.7899967878
0.7899968289
0.7899968293
0.7899949391
0.7899951744
0.7899953254
0.7899954306
0.7899955316
0.7899956532
0.7899957914
0.7899959163
0.7899959938
0.7899960139
0.789996005
0.7899960208
0.789996133
0.7899963305
0.7899964944
0.7899965323
0.7899965291
0.7899964827
0.7899965011
0.7899966013
0.789996779
0.7899970012
0.7899972023
0.7899972677
0.7899973229
0.7899973313
0.7899950931
0.7899953102
0.7899954274
0.7899954971
0.7899955733
0.7899956881
0.7899958409
0.7899960033
0.7899961383
0.7899962253
0.7899962726
0.7899963123
0.7899964039
0.789996533
0.7899965527
0.7899963649
0.7899965585
0.7899965852
0.789996688
0.7899968596
0.78999715
0.7899975059
0.78999775
0.7899977899
0.7899978259
0.7899978504
0.7899952936
0.7899954847
0.7899955556
0.789995583
0.789995633
0.789995739
0.7899959023
0.7899961002
0.7899962973
0.7899964643
0.7899965868
0.7899966597
0.7899966755
0.7899966154
0.7899964155
0.7899958377
0.7899966258
0.7899965649
0.789996834
0.7899971112
0.7899975761
0.7899980902
0.7899983259
0.789998366
0.789998329
0.7899983476
0.7899954773
0.7899956536
0.7899956931
0.78999569
0.789995718
0.7899958109
0.7899959718
0.789996184
0.7899964173
0.7899966407
0.7899968237
0.789996918
0.7899968472
0.7899964626
0.78999612
0.7899940481
0.7899970756
0.7899964856
0.7899969967
0.7899973956
0.789998014
0.7899986062
0.7899987936
0.7899989125
0.7899988052
0.7899987939
0.7899956011
0.7899957831
0.7899958212
0.7899958106
0.7899958262
0.7899959057
0.7899960562
0.7899962632
0.7899965016
0.7899967452
0.7899969604
0.7899971037
0.7899971173
0.7899969086
0.7899969155
0.7899965369
0.7899978945
0.7899970351
0.7899972947
0.7899976821
0.7899983118
0.7899988831
0.7899990778
0.7899992732
0.7899991911
0.7899991783
0.7899956554
0.789995863
0.789995926
0.7899959304
0.789995947
0.7899960176
0.7899961567
0.7899963522
0.7899965837
0.78999683
0.7899970539
0.7899972109
0.7899972605
0.7899971782
0.7899971002
0.7899973494
0.7899978744
0.7899973702
0.7899975708
0.789997926
0.7899984802
0.7899990298
0.7899993083
0.7899994887
0.7899994695
0.7899994942
0.7899956557
0.7899958985
0.7899959969
0.7899960303
0.7899960622
0.7899961343
0.7899962669
0.7899964541
0.7899966806
0.7899969295
0.789997171
0.7899973772
0.7899975316
0.7899976203
0.7899976518
0.7899976574
0.7899977824
0.7899977619
0.7899978878
0.789998112
0.7899985097
0.7899989853
0.7899993326
0.7899995388
0.7899996477
0.7899997365
0.7899956266
0.7899958947
0.7899960233
0.7899960915
0.7899961508
0.7899962363
0.7899963709
0.7899965589
0.7899967893
0.7899970485
0.7899973108
0.7899975516
0.7899977546
0.7899979088
0.7899980092
0.7899980678
0.789998154
0.7899981904
0.7899982818
0.7899984392
0.7899986982
0.7899990246
0.7899993343
0.7899995898
0.7899997871
0.789999918
0.7899955851
0.7899958482
0.7899959983
0.7899961071
0.7899962033
0.7899963114
0.7899964527
0.7899966429
0.789996881
0.7899971562
0.7899974451
0.789997723
0.7899979754
0.7899981915
0.7899983603
0.7899984753
0.7899985457
0.7899985931
0.7899986734
0.7899988203
0.7899990309
0.7899992559
0.7899994787
0.7899996936
0.7899998953
0.7900000529
0.7899955358
0.7899957583
0.7899959331
0.7899960948
0.7899962359
0.7899963692
0.7899965132
0.7899966981
0.7899969377
0.7899972233
0.7899975384
0.7899978529
0.7899981463
0.7899984029
0.7899986085
0.7899987547
0.78999885
0.7899989232
0.7899990316
0.7899992006
0.7899993898
0.7899995367
0.7899996737
0.7899997985
0.7899999485
0.7900001199
0.7899954783
0.7899956423
0.7899958573
0.7899960847
0.7899962758
0.7899964308
0.7899965706
0.7899967388
0.7899969671
0.7899972414
0.7899975609
0.7899978936
0.7899982115
0.7899984927
0.7899987229
0.7899988937
0.7899990124
0.7899991111
0.7899992359
0.7899993941
0.7899995354
0.7899996242
0.7899997258
0.7899997848
0.7899998586
0.7899999442
0.7899954174
0.7899955285
0.7899957908
0.7899960797
0.789996324
0.7899965037
0.7899966334
0.7899967802
0.7899969966
0.7899972368
0.7899975277
0.7899978434
0.7899981592
0.7899984454
0.7899986844
0.7899988668
0.7899989959
0.7899990959
0.789999204
0.7899993276
0.7899994252
0.7899994796
0.7899995493
0.7899995777
0.7899996165
0.7899996624
0.7899953597
0.7899954376
0.7899957266
0.7899960538
0.7899963359
0.7899965339
0.789996666
0.789996809
0.7899970284
0.7899972419
0.7899974808
0.7899977373
0.7899980099
0.7899982702
0.7899984967
0.789998676
0.7899988033
0.7899988871
0.7899989525
0.789999023
0.7899990872
0.7899991182
0.7899991505
0.7899991664
0.7899992005
0.7899992302
0.7899953108
0.7899953778
0.7899956522
0.7899959723
0.7899962515
0.7899964563
0.7899966076
0.7899967647
0.7899970142
0.7899972238
0.7899974236
0.7899976137
0.7899978219
0.7899980292
0.7899982215
0.7899983827
0.7899985021
0.7899985741
0.7899986043
0.7899986129
0.7899986152
0.7899986071
0.7899986103
0.7899986203
0.7899986476
0.7899986599
0.7899952899
0.7899953633
0.7899955831
0.7899958473
0.7899960955
0.7899963227
0.7899965372
0.7899967304
0.7899969106
0.7899971474
0.7899973516
0.7899974897
0.7899976365
0.7899977784
0.7899979164
0.7899980416
0.789998142
0.7899982043
0.7899982204
0.7899981937
0.7899981413
0.7899980803
0.7899980367
0.7899980104
0.7899979963
0.7899979709
0.7899954672
0.789995431
0.7899955512
0.7899957271
0.7899958985
0.789996054
0.7899963056
0.7899966032
0.7899966881
0.7899969786
0.7899972387
0.7899973623
0.7899974671
0.7899975477
0.7899976311
0.7899977088
0.7899977771
0.7899978218
0.7899978273
0.7899977867
0.7899977064
0.7899976031
0.7899975036
0.7899974091
0.7899973097
0.7899972228
0.7899957342
0.7899955953
0.7899955839
0.7899956613
0.7899957678
0.7899959126
0.7899962636
0.789996663
0.7899966943
0.7899967603
0.7899970223
0.7899971979
0.7899973138
0.7899973627
0.7899973924
0.7899974199
0.7899974478
0.7899974623
0.7899974466
0.7899973927
0.789997303
0.7899971885
0.7899970566
0.7899968942
0.7899966758
0.7899965271
0.7899959084
0.7899957436
0.7899956474
0.7899956352
0.7899956868
0.7899957441
0.7899957968
0.7899958752
0.7899959954
0.7899961579
0.7899965535
0.7899968429
0.7899970618
0.789997187
0.7899972248
0.7899972089
0.7899971835
0.7899971517
0.7899971011
0.789997026
0.7899969302
0.7899968242
0.7899966834
0.7899964645
0.7899961343
0.7899959691
0.7899960024
0.7899958487
0.7899956862
0.789995582
0.7899955644
0.7899956211
0.7899957221
0.7899958249
0.7899959022
0.7899959605
0.7899960996
0.7899962834
0.789996521
0.7899968056
0.7899969962
0.7899970581
0.7899969941
0.7899968928
0.7899967699
0.7899966364
0.7899965132
0.7899964242
0.7899963098
0.789996063
0.7899955906
0.7899954454
0.7899961691
0.7899960482
0.7899958295
0.7899956486
0.7899955738
0.7899956283
0.7899957979
0.7899960094
0.7899961831
0.7899962606
0.7899962674
0.7899962065
0.7899961334
0.7899961581
0.7899964476
0.789996757
0.7899968487
0.7899966886
0.7899964231
0.7899961489
0.7899959664
0.7899959605
0.789995994
0.789995783
0.7899953372
0.7899950685
0.7899964672
0.7899963353
0.789996083
0.7899958594
0.7899957558
0.7899958111
0.7899960102
0.789996258
0.7899964507
0.7899964928
0.7899963968
0.7899962231
0.7899960263
0.7899958345
0.7899958103
0.7899961911
0.7899965458
0.7899965253
0.789996223
0.7899957941
0.7899954756
0.7899954196
0.7899956393
0.7899955117
0.7899950507
0.7899967115
0.7899965727
0.7899963266
0.7899961244
0.789996024
0.7899960555
0.7899961838
0.7899963302
0.789996408
0.7899963383
0.7899961328
0.78999589
0.7899957126
0.7899955385
0.7899953994
0.7899955788
0.7899959818
0.7899961312
0.789996168
0.789995799
0.7899954232
0.7899951069
0.7899954238
0.7899953079
0.7899948795
0.78999678
0.7899967399
0.7899965476
0.7899963781
0.7899962721
0.7899962505
0.7899962897
0.7899963348
0.789996315
0.789996173
0.7899958481
0.7899954968
0.789995248
0.7899950557
0.7899949477
0.7899950704
0.7899954055
0.7899956399
0.7899958114
0.7899955847
0.789995222
0.7899945077
0.7899951865
0.7899950944
0.7899947761
0.7899967336
0.7899968443
0.7899967464
0.7899966196
0.7899965042
0.7899964284
0.7899963884
0.7899963563
0.7899963005
0.7899962536
0.789996099
0.7899958827
0.7899956743
0.789995357
0.7899949655
0.7899948136
0.7899949383
0.7899951304
0.7899952844
0.7899951098
0.7899949022
0.7899937837
0.7899945709
0.7899946834
0.7899945905