/*--------------------------------*- C++ -*----------------------------------*\
  =========                 |
  \\      /  F ield         | OpenFOAM: The Open Source CFD Toolbox
   \\    /   O peration     | Website:  https://openfoam.org
    \\  /    A nd           | Version:  8
     \\/     M anipulation  |
\*---------------------------------------------------------------------------*/
FoamFile
{
    version     2.0;
    format      ascii;
    class       volScalarField;
    location    "0.9";
    object      p;
}
// * * * * * * * * * * * * * * * * * * * * * * * * * * * * * * * * * * * * * //

dimensions      [1 -1 -2 0 0 0 0];

internalField   nonuniform List<scalar> 
67410
(
100003.926
100003.909
100003.8959
100003.8782
100003.8607
100003.8432
100003.8263
100003.8105
100003.7966
100003.7843
100003.7735
100003.7644
100003.7596
100003.762
100003.7728
100003.789
100003.8004
100003.8199
100003.8444
100003.8733
100003.9041
100003.9341
100003.9626
100003.9694
100003.9901
100004.0014
100003.9105
100003.8942
100003.8768
100003.8546
100003.8311
100003.8063
100003.7811
100003.7568
100003.7347
100003.7161
100003.7022
100003.6946
100003.6961
100003.7084
100003.7289
100003.7538
100003.7555
100003.7737
100003.7943
100003.82
100003.848
100003.8744
100003.9015
100003.9062
100003.9287
100003.9409
100003.9
100003.8802
100003.8615
100003.8371
100003.8114
100003.7844
100003.7575
100003.7316
100003.7083
100003.6898
100003.6772
100003.672
100003.6767
100003.6958
100003.7265
100003.7835
100003.7433
100003.7656
100003.78
100003.8039
100003.8302
100003.8514
100003.8736
100003.8726
100003.8964
100003.9064
100003.8827
100003.8598
100003.8391
100003.8121
100003.7844
100003.7561
100003.7282
100003.7016
100003.678
100003.6605
100003.6513
100003.6519
100003.6642
100003.6968
100003.7383
100003.8915
100003.7157
100003.7752
100003.7695
100003.79
100003.8111
100003.8238
100003.8322
100003.8385
100003.8654
100003.8751
100003.8671
100003.8404
100003.818
100003.7894
100003.7615
100003.7337
100003.7067
100003.6814
100003.6595
100003.6444
100003.6412
100003.6529
100003.6799
100003.7323
100003.7606
100004.1316
100003.6351
100003.8504
100003.7735
100003.7899
100003.7956
100003.8016
100003.7937
100003.8159
100003.8513
100003.8613
100003.8526
100003.8209
100003.7969
100003.7675
100003.7402
100003.7137
100003.6884
100003.6652
100003.6462
100003.6356
100003.6393
100003.6628
100003.7109
100003.7731
100003.6789
100004.2572
100003.4137
100004.0486
100003.7783
100003.8025
100003.7852
100003.8274
100003.799
100003.8126
100003.8592
100003.8659
100003.8409
100003.8037
100003.7784
100003.7485
100003.7222
100003.6974
100003.6744
100003.6539
100003.6387
100003.6346
100003.6505
100003.6959
100003.7717
100003.7885
100003.588
100005.0246
100003.2059
100004.5203
100003.7793
100003.8446
100003.818
100003.9568
100003.9144
100003.8386
100003.8774
100003.8884
100003.8322
100003.7893
100003.7629
100003.7325
100003.7074
100003.6846
100003.6641
100003.6464
100003.6347
100003.6359
100003.6651
100003.7517
100003.9145
100003.9986
100004.9602
100007.0924
100003.4305
100004.947
100003.8793
100003.896
100003.8878
100004.1046
100004.0881
100003.8897
100003.8929
100003.9138
100003.8263
100003.7778
100003.7505
100003.7198
100003.6958
100003.675
100003.657
100003.6418
100003.6309
100003.6263
100003.6303
100003.6297
100003.5628
100003.3709
100003.4828
100003.2655
100003.766
100003.88
100003.8204
100003.8471
100003.8724
100004.0196
100004.0268
100003.9221
100003.9131
100003.9327
100003.8232
100003.769
100003.741
100003.7102
100003.6874
100003.6684
100003.6528
100003.6399
100003.6304
100003.6262
100003.6315
100003.6538
100003.7142
100003.8866
100004.1953
100004.5697
100003.8748
100004.0373
100003.8665
100003.8555
100003.8746
100003.93
100003.9535
100003.9397
100003.9417
100003.9475
100003.8226
100003.7623
100003.734
100003.7035
100003.6821
100003.6651
100003.652
100003.6422
100003.6364
100003.6361
100003.6435
100003.6612
100003.6922
100003.729
100003.7115
100003.7208
100003.7757
100003.8888
100003.8564
100003.8699
100003.897
100003.9275
100003.9383
100003.9468
100003.9602
100003.972
100003.8236
100003.7571
100003.7288
100003.6989
100003.6796
100003.6648
100003.6536
100003.6458
100003.6421
100003.6433
100003.6497
100003.6621
100003.6823
100003.7101
100003.7419
100003.8045
100003.7908
100003.8249
100003.8352
100003.8522
100003.8808
100003.9163
100003.9393
100003.9509
100003.9797
100004.0038
100003.8242
100003.7519
100003.7241
100003.6955
100003.6788
100003.6669
100003.658
100003.6515
100003.649
100003.6525
100003.6626
100003.6793
100003.7017
100003.727
100003.7534
100003.786
100003.7992
100003.8254
100003.8366
100003.8568
100003.8927
100003.9218
100003.94
100003.9588
100003.9975
100004.0579
100003.8222
100003.7457
100003.7196
100003.693
100003.6791
100003.6701
100003.6646
100003.6593
100003.655
100003.6573
100003.6665
100003.6814
100003.6998
100003.7199
100003.742
100003.7664
100003.7895
100003.8134
100003.8395
100003.8835
100003.9382
100003.9497
100003.944
100003.9464
100003.9626
100003.9602
100003.8168
100003.7387
100003.7158
100003.6923
100003.6807
100003.6737
100003.6712
100003.6695
100003.6613
100003.6591
100003.665
100003.6786
100003.6973
100003.7189
100003.7413
100003.7631
100003.7821
100003.8022
100003.8354
100003.8937
100003.9607
100003.9551
100003.9263
100003.9133
100003.9192
100003.9239
100003.8085
100003.7319
100003.7127
100003.6931
100003.6843
100003.6774
100003.6731
100003.6747
100003.6635
100003.6598
100003.6599
100003.6689
100003.6834
100003.701
100003.7196
100003.7382
100003.7569
100003.777
100003.805
100003.8466
100003.8926
100003.8978
100003.88
100003.8787
100003.8857
100003.8917
100003.7941
100003.7258
100003.7108
100003.695
100003.6896
100003.6814
100003.6711
100003.6717
100003.6686
100003.6705
100003.6622
100003.6633
100003.6705
100003.6832
100003.6983
100003.7142
100003.7303
100003.7468
100003.7651
100003.7865
100003.8079
100003.8129
100003.8105
100003.8157
100003.8232
100003.8299
100003.7879
100003.7287
100003.7123
100003.6926
100003.6774
100003.6626
100003.6598
100003.6515
100003.6677
100003.6816
100003.671
100003.6643
100003.6627
100003.6667
100003.6751
100003.6857
100003.6969
100003.7078
100003.7175
100003.7248
100003.7297
100003.7334
100003.7421
100003.7525
100003.7643
100003.7768
100003.7683
100003.7331
100003.7157
100003.6924
100003.6747
100003.696
100003.7691
100003.7077
100003.6819
100003.6976
100003.6913
100003.6784
100003.6677
100003.6633
100003.6637
100003.6677
100003.674
100003.6807
100003.6867
100003.6905
100003.6921
100003.6951
100003.7028
100003.7109
100003.7207
100003.7335
100003.8023
100003.7587
100003.7168
100003.661
100003.62
100003.6596
100003.7734
100003.7698
100003.6868
100003.6719
100003.6933
100003.6912
100003.6837
100003.6725
100003.6662
100003.6635
100003.6644
100003.6677
100003.6723
100003.6776
100003.6823
100003.6874
100003.6915
100003.6956
100003.7012
100003.7089
100003.7522
100003.7263
100003.7023
100003.6726
100003.6556
100003.6521
100003.6759
100003.7037
100003.7031
100003.6738
100003.6787
100003.6895
100003.6987
100003.6918
100003.6781
100003.671
100003.6673
100003.6679
100003.6722
100003.6796
100003.6879
100003.6978
100003.7004
100003.7032
100003.7077
100003.7082
100003.7639
100003.7399
100003.7191
100003.6912
100003.6771
100003.6788
100003.6745
100003.6702
100003.6667
100003.6589
100003.6586
100003.6647
100003.6883
100003.7038
100003.7055
100003.6868
100003.6804
100003.679
100003.6838
100003.6941
100003.7063
100003.721
100003.7223
100003.7251
100003.7321
100003.726
100003.7546
100003.7353
100003.7179
100003.6925
100003.6766
100003.6711
100003.6764
100003.6778
100003.6765
100003.6774
100003.6728
100003.6627
100003.6636
100003.6836
100003.7049
100003.7095
100003.6948
100003.6935
100003.6992
100003.7117
100003.7262
100003.741
100003.7487
100003.7514
100003.7827
100003.7499
100003.7661
100003.7457
100003.731
100003.7035
100003.6841
100003.6703
100003.6665
100003.6748
100003.6916
100003.71
100003.7156
100003.7027
100003.6775
100003.6703
100003.6793
100003.7039
100003.7089
100003.7082
100003.7152
100003.7283
100003.7452
100003.7568
100003.7661
100003.7595
100003.7591
100003.754
100003.7667
100003.7463
100003.7393
100003.7155
100003.6978
100003.682
100003.6736
100003.6804
100003.7024
100003.7269
100003.7396
100003.7304
100003.7079
100003.6879
100003.6786
100003.6876
100003.7056
100003.7156
100003.7221
100003.7369
100003.7544
100003.7701
100003.7855
100003.7757
100003.7703
100003.7784
100003.7565
100003.7531
100003.734
100003.7205
100003.7072
100003.6959
100003.6858
100003.6839
100003.6915
100003.705
100003.7052
100003.6986
100003.69
100003.6859
100003.6869
100003.7022
100003.7207
100003.7324
100003.7479
100003.7758
100003.802
100003.8189
100003.8012
100003.7923
100003.8
100003.7742
100003.7729
100003.7543
100003.7417
100003.7312
100003.7261
100003.7256
100003.7253
100003.7188
100003.7065
100003.697
100003.6936
100003.6893
100003.689
100003.6921
100003.7086
100003.7257
100003.7474
100003.781
100003.8209
100003.8748
100003.905
100003.8374
100003.8152
100003.8226
100003.7894
100003.7862
100003.766
100003.7507
100003.7375
100003.7304
100003.7291
100003.7321
100003.7316
100003.7257
100003.7154
100003.7098
100003.7028
100003.7025
100003.7047
100003.7196
100003.7364
100003.7631
100003.8021
100003.8335
100003.9114
100003.8833
100003.8762
100003.8432
100003.8505
100003.8094
100003.8019
100003.7767
100003.7541
100003.7344
100003.7172
100003.7089
100003.7077
100003.7086
100003.7146
100003.7066
100003.696
100003.6846
100003.6841
100003.6968
100003.7201
100003.7386
100003.7656
100003.7989
100003.8474
100003.9982
100004.2157
100003.8302
100003.8661
100003.8215
100003.8984
100003.8514
100003.8407
100003.8087
100003.7771
100003.7545
100003.7259
100003.7108
100003.7003
100003.691
100003.6896
100003.6815
100003.6807
100003.675
100003.6844
100003.6972
100003.728
100003.7521
100003.7889
100003.8489
100003.8566
100004.2306
100004.7485
100003.8462
100003.8673
100003.8714
100003.8068
100003.7886
100003.7734
100003.7538
100003.7338
100003.7124
100003.69
100003.6674
100003.6465
100003.629
100003.6163
100003.6095
100003.6109
100003.6213
100003.6364
100003.6504
100003.6627
100003.6798
100003.7002
100003.7234
100003.7479
100003.7729
100003.7985
100003.8218
100003.8452
100003.8611
100003.7882
100003.7708
100003.753
100003.7292
100003.7035
100003.6758
100003.6467
100003.6177
100003.5915
100003.5705
100003.5555
100003.5474
100003.549
100003.5618
100003.5807
100003.5976
100003.6097
100003.6286
100003.6489
100003.6705
100003.6923
100003.7141
100003.7374
100003.7627
100003.7881
100003.806
100003.7732
100003.7555
100003.7356
100003.7099
100003.6825
100003.6535
100003.624
100003.5955
100003.5703
100003.5495
100003.5333
100003.5217
100003.5179
100003.5241
100003.5385
100003.5561
100003.5719
100003.6006
100003.6241
100003.6459
100003.6642
100003.679
100003.6952
100003.7271
100003.7543
100003.7714
100003.7543
100003.7327
100003.7113
100003.6834
100003.6553
100003.6262
100003.5971
100003.5691
100003.5437
100003.5215
100003.5017
100003.4851
100003.4739
100003.4635
100003.4535
100003.4481
100003.4956
100003.5589
100003.5908
100003.6129
100003.6215
100003.6232
100003.6248
100003.6872
100003.7212
100003.7382
100003.736
100003.7113
100003.6887
100003.6604
100003.6332
100003.6058
100003.5787
100003.552
100003.5265
100003.5025
100003.4767
100003.4478
100003.4155
100003.3612
100003.2838
100003.1681
100003.3539
100003.5053
100003.5528
100003.5746
100003.5671
100003.5674
100003.561
100003.6547
100003.7019
100003.7203
100003.7183
100003.6892
100003.666
100003.6376
100003.6121
100003.5868
100003.5618
100003.5371
100003.513
100003.4887
100003.4593
100003.4121
100003.3249
100003.1524
100002.9325
100002.105
100003.1244
100003.4206
100003.4918
100003.5207
100003.5171
100003.5462
100003.5312
100003.6288
100003.6944
100003.7168
100003.7035
100003.6698
100003.6459
100003.6176
100003.5937
100003.5704
100003.5475
100003.5246
100003.5015
100003.476
100003.4384
100003.364
100003.2085
100002.8378
100002.6431
100001.4214
100003.129
100003.3414
100003.4235
100003.472
100003.5053
100003.5484
100003.5265
100003.6152
100003.6928
100003.7255
100003.6921
100003.6536
100003.6288
100003.6005
100003.5781
100003.5569
100003.5362
100003.5149
100003.4923
100003.4639
100003.4131
100003.2964
100003.0461
100001.8438
100002.193
99999.42505
100003.1662
100002.9398
100003.3395
100003.4459
100003.5186
100003.5638
100003.5475
100003.6228
100003.6999
100003.7408
100003.684
100003.6405
100003.6149
100003.5865
100003.5656
100003.5465
100003.5284
100003.5095
100003.4895
100003.4653
100003.4252
100003.3461
100003.1852
100002.8782
100003.0892
100002.8096
100003.5462
100003.3924
100003.5105
100003.533
100003.5582
100003.5689
100003.557
100003.6658
100003.7361
100003.7595
100003.6779
100003.6292
100003.6034
100003.5753
100003.5559
100003.5389
100003.5234
100003.5084
100003.493
100003.475
100003.4504
100003.4149
100003.3657
100003.3153
100003.4152
100003.2249
100003.5509
100003.5843
100003.6243
100003.6452
100003.671
100003.6901
100003.6987
100003.7524
100003.7678
100003.7698
100003.672
100003.6182
100003.5931
100003.5663
100003.5489
100003.5342
100003.5213
100003.5102
100003.5005
100003.492
100003.4835
100003.4721
100003.4541
100003.4352
100003.4327
100003.386
100003.5433
100003.6262
100003.6627
100003.6835
100003.7078
100003.7414
100003.7666
100003.7714
100003.7743
100003.7717
100003.6649
100003.6069
100003.5837
100003.559
100003.5443
100003.532
100003.5213
100003.5125
100003.506
100003.502
100003.4997
100003.4986
100003.4995
100003.5048
100003.5171
100003.5304
100003.586
100003.63
100003.6545
100003.6671
100003.6871
100003.7186
100003.7546
100003.7625
100003.7631
100003.7556
100003.6563
100003.5956
100003.5755
100003.5533
100003.5414
100003.5321
100003.5235
100003.5158
100003.511
100003.5104
100003.5139
100003.5216
100003.5328
100003.547
100003.5649
100003.5864
100003.6169
100003.6411
100003.6498
100003.6538
100003.6675
100003.6939
100003.7431
100003.7544
100003.746
100003.7186
100003.6453
100003.5841
100003.5682
100003.549
100003.5395
100003.533
100003.527
100003.5196
100003.5139
100003.5134
100003.5177
100003.5262
100003.5378
100003.5521
100003.5697
100003.5907
100003.6136
100003.6277
100003.6302
100003.6327
100003.6437
100003.6601
100003.7182
100003.7388
100003.7246
100003.7166
100003.6309
100003.5725
100003.5614
100003.5445
100003.537
100003.5326
100003.5296
100003.524
100003.5157
100003.5134
100003.5165
100003.5247
100003.537
100003.553
100003.5708
100003.5889
100003.6024
100003.6046
100003.5983
100003.5999
100003.6084
100003.6115
100003.6584
100003.7088
100003.7078
100003.7067
100003.6153
100003.562
100003.5549
100003.5383
100003.5299
100003.5232
100003.5177
100003.5173
100003.5173
100003.5127
100003.513
100003.5187
100003.5281
100003.5404
100003.5547
100003.5698
100003.5837
100003.5925
100003.5956
100003.5951
100003.5982
100003.6074
100003.6455
100003.6748
100003.6761
100003.6779
100003.6005
100003.5547
100003.5493
100003.5321
100003.5209
100003.5085
100003.4975
100003.4969
100003.5229
100003.5201
100003.5146
100003.5151
100003.5206
100003.5296
100003.5407
100003.5527
100003.564
100003.5724
100003.5755
100003.5734
100003.5709
100003.5765
100003.6073
100003.6262
100003.6303
100003.6348
100003.5975
100003.5542
100003.5412
100003.511
100003.4855
100003.4754
100003.4778
100003.4734
100003.5181
100003.5325
100003.5237
100003.5175
100003.5158
100003.5192
100003.526
100003.5341
100003.5423
100003.5491
100003.5526
100003.5516
100003.5481
100003.5505
100003.5698
100003.5818
100003.589
100003.5972
100003.6056
100003.5664
100003.5366
100003.5003
100003.4767
100003.4771
100003.4877
100003.4806
100003.5063
100003.5348
100003.5402
100003.5287
100003.5207
100003.5173
100003.5186
100003.5226
100003.5276
100003.5322
100003.5354
100003.5361
100003.535
100003.5368
100003.547
100003.553
100003.5603
100003.5691
100003.6268
100003.5798
100003.5136
100003.4417
100003.4334
100003.4572
100003.4724
100003.48
100003.4914
100003.506
100003.5339
100003.5403
100003.5332
100003.5259
100003.5219
100003.521
100003.5229
100003.5259
100003.5291
100003.5323
100003.5357
100003.5405
100003.5462
100003.5466
100003.5514
100003.5573
100003.6189
100003.5944
100003.5706
100003.5365
100003.5068
100003.4949
100003.5057
100003.5248
100003.5197
100003.5128
100003.5095
100003.5206
100003.5393
100003.5376
100003.5321
100003.5291
100003.5284
100003.5303
100003.5343
100003.5404
100003.5476
100003.5561
100003.5625
100003.5626
100003.5699
100003.5649
100003.6231
100003.6018
100003.5783
100003.5413
100003.5162
100003.4991
100003.4913
100003.4973
100003.4949
100003.4938
100003.4933
100003.494
100003.5119
100003.5435
100003.5501
100003.5436
100003.5423
100003.5437
100003.5488
100003.5576
100003.5681
100003.5788
100003.5889
100003.5912
100003.6191
100003.5887
100003.6173
100003.6
100003.5792
100003.5454
100003.5232
100003.5124
100003.5116
100003.5105
100003.51
100003.5067
100003.5052
100003.5012
100003.4985
100003.5122
100003.5453
100003.5604
100003.5574
100003.56
100003.5666
100003.577
100003.5887
100003.5978
100003.6238
100003.6267
100003.896
100003.6196
100003.6261
100003.6073
100003.5894
100003.5544
100003.5315
100003.5169
100003.5115
100003.5093
100003.5123
100003.5153
100003.5156
100003.5097
100003.5081
100003.5082
100003.5178
100003.5504
100003.5705
100003.5744
100003.5806
100003.5902
100003.6033
100003.604
100003.6208
100003.6178
100003.6377
100003.6106
100003.6362
100003.6088
100003.5975
100003.5664
100003.5436
100003.5253
100003.518
100003.5164
100003.5183
100003.5217
100003.5245
100003.5219
100003.519
100003.5173
100003.5231
100003.5338
100003.5664
100003.5785
100003.5827
100003.5931
100003.6072
100003.6238
100003.623
100003.6277
100003.6321
100003.6493
100003.6212
100003.6136
100003.588
100003.5699
100003.5486
100003.5299
100003.5169
100003.5171
100003.5177
100003.5218
100003.5234
100003.5252
100003.5272
100003.5294
100003.5424
100003.5531
100003.5742
100003.5887
100003.6011
100003.6014
100003.6294
100003.6008
100003.6373
100003.6315
100003.6578
100003.6345
100003.6318
100003.6091
100003.5927
100003.5764
100003.5627
100003.5488
100003.5357
100003.524
100003.5189
100003.5173
100003.5199
100003.5299
100003.5381
100003.5512
100003.5713
100003.5852
100003.6073
100003.6387
100003.6456
100003.7614
100003.659
100003.6689
100003.6336
100003.6606
100003.6346
100003.6343
100003.6101
100003.5897
100003.5704
100003.5605
100003.5565
100003.557
100003.5534
100003.5447
100003.5417
100003.5438
100003.5475
100003.554
100003.5651
100003.5786
100003.5922
100003.6022
100003.6357
100003.5152
100003.6194
100003.3673
100003.6435
100003.5861
100003.6705
100003.6382
100003.6359
100003.6098
100003.5842
100003.559
100003.5449
100003.5358
100003.5335
100003.5347
100003.5357
100003.534
100003.5217
100003.5148
100003.5181
100003.5434
100003.5673
100003.5876
100003.5983
100003.6301
100003.5603
100003.804
100003.47
100003.597
100003.6152
100003.6404
100003.7106
100003.6712
100003.6604
100003.6313
100003.6004
100003.5678
100003.553
100003.539
100003.5292
100003.5217
100003.5143
100003.5102
100003.503
100003.5042
100003.5025
100003.5214
100003.5447
100003.5818
100003.5651
100003.5771
100003.3157
100003.2667
100002.8786
100003.3355
100003.3518
100003.6212
100003.6451
100003.6301
100003.616
100003.5966
100003.5773
100003.5575
100003.5378
100003.5185
100003.5003
100003.4844
100003.472
100003.4642
100003.4625
100003.4674
100003.4779
100003.4922
100003.509
100003.5285
100003.55
100003.5725
100003.5957
100003.6184
100003.6397
100003.6586
100003.6758
100003.689
100003.6299
100003.6166
100003.6017
100003.5809
100003.5589
100003.5359
100003.5127
100003.4903
100003.4692
100003.4503
100003.4351
100003.4256
100003.423
100003.4277
100003.4393
100003.4546
100003.4726
100003.4934
100003.5156
100003.5382
100003.5607
100003.5823
100003.6026
100003.6206
100003.6386
100003.6536
100003.6151
100003.6046
100003.5883
100003.5668
100003.5439
100003.5199
100003.4961
100003.4729
100003.4505
100003.4302
100003.4139
100003.4034
100003.399
100003.4013
100003.4118
100003.4282
100003.4483
100003.4728
100003.4973
100003.5205
100003.5424
100003.5625
100003.5808
100003.597
100003.6146
100003.6289
100003.5975
100003.5837
100003.5676
100003.5452
100003.5218
100003.4974
100003.4729
100003.4485
100003.4252
100003.4047
100003.3896
100003.3799
100003.3754
100003.3747
100003.3855
100003.4043
100003.4231
100003.4515
100003.4779
100003.5021
100003.524
100003.5438
100003.5601
100003.5747
100003.5918
100003.6046
100003.5786
100003.5639
100003.5481
100003.5255
100003.503
100003.4792
100003.455
100003.4308
100003.4076
100003.3877
100003.3747
100003.3689
100003.3682
100003.3703
100003.3978
100003.4362
100003.4303
100003.4523
100003.4748
100003.4974
100003.518
100003.5383
100003.5499
100003.565
100003.5824
100003.5931
100003.5586
100003.5423
100003.5267
100003.5046
100003.4837
100003.4614
100003.4387
100003.4156
100003.3932
100003.3738
100003.3613
100003.3633
100003.3765
100003.391
100003.4738
100003.5626
100003.5066
100003.4949
100003.4965
100003.5086
100003.5191
100003.5314
100003.5431
100003.5628
100003.5851
100003.5937
100003.5405
100003.5223
100003.5069
100003.4853
100003.4661
100003.446
100003.4255
100003.4041
100003.3831
100003.3648
100003.3539
100003.3629
100003.4137
100003.4715
100003.6288
100003.884
100003.6654
100003.6214
100003.5558
100003.5416
100003.5298
100003.5375
100003.5487
100003.569
100003.5959
100003.6037
100003.5254
100003.5048
100003.4891
100003.4678
100003.4505
100003.4328
100003.415
100003.3963
100003.3774
100003.3603
100003.35
100003.3645
100003.4592
100003.5684
100003.8586
100004.4287
100003.8748
100003.7841
100003.6203
100003.5713
100003.5448
100003.5521
100003.5638
100003.5809
100003.6078
100003.6164
100003.5137
100003.4905
100003.4744
100003.4533
100003.4376
100003.4224
100003.4078
100003.3927
100003.3771
100003.3624
100003.3507
100003.3456
100003.3627
100003.3275
100003.449
100003.6847
100003.637
100003.6877
100003.6149
100003.5769
100003.5566
100003.5605
100003.5733
100003.5943
100003.6177
100003.6258
100003.5053
100003.4795
100003.4631
100003.4422
100003.4277
100003.4147
100003.4031
100003.3914
100003.3803
100003.3718
100003.3701
100003.3844
100003.4222
100003.4727
100003.5869
100003.6705
100003.6309
100003.6336
100003.6025
100003.5832
100003.5754
100003.5817
100003.5949
100003.6118
100003.6253
100003.6309
100003.4993
100003.4713
100003.4551
100003.4346
100003.421
100003.4098
100003.4006
100003.3921
100003.385
100003.3806
100003.3807
100003.3886
100003.4052
100003.4301
100003.4756
100003.5276
100003.5548
100003.5803
100003.5857
100003.591
100003.5987
100003.6096
100003.6188
100003.6236
100003.6289
100003.6327
100003.4946
100003.4652
100003.4497
100003.4299
100003.4172
100003.4074
100003.4001
100003.3939
100003.3893
100003.3875
100003.3892
100003.3962
100003.4101
100003.4329
100003.4666
100003.5002
100003.5278
100003.5508
100003.5666
100003.5784
100003.5904
100003.6035
100003.6142
100003.618
100003.6209
100003.6244
100003.4894
100003.4596
100003.445
100003.4264
100003.4155
100003.4074
100003.4019
100003.3972
100003.3938
100003.3935
100003.397
100003.4051
100003.4181
100003.4361
100003.4595
100003.4852
100003.5105
100003.533
100003.5488
100003.5604
100003.5731
100003.5876
100003.6016
100003.6071
100003.608
100003.6098
100003.4825
100003.453
100003.4398
100003.4234
100003.415
100003.4094
100003.4058
100003.402
100003.398
100003.3969
100003.3995
100003.4063
100003.4171
100003.4319
100003.4501
100003.4706
100003.4916
100003.5098
100003.5228
100003.5328
100003.5449
100003.5585
100003.5755
100003.583
100003.5774
100003.5781
100003.4744
100003.4462
100003.4355
100003.4214
100003.4148
100003.4118
100003.411
100003.4082
100003.4021
100003.3985
100003.3987
100003.4036
100003.4129
100003.4258
100003.4412
100003.4575
100003.4727
100003.4845
100003.4924
100003.4998
100003.51
100003.5205
100003.5366
100003.552
100003.5568
100003.5625
100003.4678
100003.4422
100003.4339
100003.421
100003.4156
100003.4144
100003.4158
100003.4143
100003.406
100003.3988
100003.3956
100003.3975
100003.4037
100003.4131
100003.4247
100003.437
100003.4486
100003.4576
100003.4635
100003.4681
100003.4752
100003.4851
100003.5011
100003.5158
100003.5226
100003.5283
100003.4634
100003.4419
100003.4348
100003.4225
100003.4178
100003.4176
100003.4208
100003.4215
100003.4137
100003.4022
100003.3948
100003.393
100003.3956
100003.4018
100003.4102
100003.4195
100003.4283
100003.4351
100003.4395
100003.4421
100003.4456
100003.4523
100003.4643
100003.4766
100003.4852
100003.4931
100003.462
100003.4443
100003.4357
100003.4224
100003.4162
100003.4148
100003.4206
100003.4273
100003.4265
100003.4133
100003.3974
100003.3913
100003.3897
100003.392
100003.3969
100003.4031
100003.4093
100003.4143
100003.4174
100003.4188
100003.4201
100003.424
100003.4324
100003.4425
100003.452
100003.4612
100003.4595
100003.4457
100003.4354
100003.423
100003.4141
100003.4044
100003.4083
100003.4151
100003.4239
100003.4246
100003.4046
100003.3943
100003.3889
100003.3881
100003.3898
100003.3933
100003.3975
100003.4012
100003.404
100003.4057
100003.4069
100003.4095
100003.4142
100003.4213
100003.4308
100003.4395
100003.4646
100003.4474
100003.4332
100003.419
100003.409
100003.3981
100003.4118
100003.4217
100003.4141
100003.435
100003.4124
100003.4031
100003.3943
100003.3902
100003.3897
100003.3915
100003.3941
100003.3972
100003.4006
100003.4039
100003.4063
100003.4088
100003.4113
100003.4158
100003.4273
100003.432
100003.4638
100003.4497
100003.4374
100003.4236
100003.4154
100003.4111
100003.408
100003.4031
100003.3837
100003.4158
100003.4073
100003.4051
100003.4011
100003.3966
100003.3948
100003.3955
100003.3978
100003.4013
100003.4059
100003.4117
100003.4176
100003.4224
100003.4247
100003.4263
100003.453
100003.4381
100003.4701
100003.4565
100003.4428
100003.4253
100003.4146
100003.4092
100003.4081
100003.4161
100003.4132
100003.4113
100003.4124
100003.4111
100003.4094
100003.4079
100003.4064
100003.4059
100003.4082
100003.4123
100003.4188
100003.4278
100003.437
100003.4424
100003.4451
100003.4411
100003.4739
100003.4512
100003.4725
100003.4606
100003.448
100003.4301
100003.419
100003.4108
100003.4061
100003.4032
100003.4008
100003.4046
100003.4037
100003.4042
100003.4091
100003.412
100003.4158
100003.4185
100003.4207
100003.4266
100003.4361
100003.4496
100003.4629
100003.4713
100003.484
100003.4452
100003.5545
100003.4727
100003.4806
100003.4674
100003.455
100003.4355
100003.424
100003.4149
100003.4092
100003.408
100003.4091
100003.4098
100003.4101
100003.4076
100003.4055
100003.409
100003.4158
100003.4262
100003.4334
100003.4415
100003.4541
100003.4736
100003.492
100003.4971
100003.482
100003.4594
100003.4266
100003.4612
100003.4861
100003.4687
100003.4585
100003.4393
100003.4289
100003.4199
100003.4132
100003.4092
100003.4083
100003.41
100003.4108
100003.4105
100003.4097
100003.41
100003.4161
100003.4297
100003.4412
100003.4513
100003.463
100003.486
100003.5076
100003.5483
100003.5069
100003.4961
100003.5002
100003.4903
100003.4721
100003.4654
100003.4468
100003.4366
100003.4269
100003.4199
100003.4155
100003.4102
100003.4077
100003.4086
100003.4111
100003.4151
100003.4179
100003.4227
100003.4306
100003.4459
100003.4575
100003.465
100003.495
100003.4972
100003.6178
100003.5012
100003.5192
100003.495
100003.4976
100003.4816
100003.4776
100003.4599
100003.4488
100003.4374
100003.4296
100003.4243
100003.4208
100003.4188
100003.4147
100003.4144
100003.4199
100003.4239
100003.4303
100003.4375
100003.449
100003.464
100003.4843
100003.5476
100003.5673
100003.9163
100003.5111
100003.5852
100003.5017
100003.5101
100003.494
100003.4901
100003.4723
100003.4595
100003.4444
100003.4333
100003.4267
100003.4228
100003.4188
100003.4168
100003.4181
100003.4234
100003.4281
100003.4328
100003.4387
100003.4483
100003.4639
100003.473
100003.5601
100003.5125
100004.1111
100003.5068
100003.5898
100003.486
100003.5342
100003.5143
100003.5072
100003.4863
100003.4704
100003.4505
100003.4335
100003.4226
100003.4152
100003.41
100003.4073
100003.406
100003.4085
100003.4153
100003.4236
100003.4329
100003.4448
100003.4608
100003.4697
100003.5266
100003.4762
100003.6455
100003.2573
100003.5519
100003.47
100003.5188
100003.5767
100003.5504
100003.5387
100003.5129
100003.4935
100003.4689
100003.4439
100003.43
100003.4165
100003.4066
100003.4016
100003.3998
100003.4031
100003.4093
100003.4179
100003.4328
100003.4446
100003.4585
100003.4585
100003.4903
100003.4995
100003.4662
100003.3395
100003.4845
100003.4517
100003.5053
100003.4897
100003.4761
100003.4635
100003.4449
100003.4263
100003.4071
100003.3881
100003.3693
100003.3513
100003.3353
100003.3226
100003.3149
100003.313
100003.3173
100003.327
100003.3404
100003.3562
100003.3735
100003.3921
100003.4112
100003.4309
100003.4508
100003.4708
100003.4898
100003.5069
100003.5205
100003.4762
100003.4653
100003.4515
100003.4325
100003.4124
100003.3912
100003.3697
100003.3484
100003.328
100003.3099
100003.2954
100003.2862
100003.2835
100003.2876
100003.2975
100003.3115
100003.3286
100003.3468
100003.3656
100003.3839
100003.4021
100003.4205
100003.4397
100003.4593
100003.4777
100003.4932
100003.4622
100003.4539
100003.4398
100003.4206
100003.3999
100003.3778
100003.3554
100003.3332
100003.3122
100003.2935
100003.2786
100003.2685
100003.2641
100003.2665
100003.2757
100003.2901
100003.309
100003.3294
100003.3492
100003.3666
100003.3825
100003.398
100003.4154
100003.4358
100003.4551
100003.4711
100003.4462
100003.4357
100003.4218
100003.402
100003.3812
100003.3586
100003.3358
100003.313
100003.2914
100003.2726
100003.2581
100003.2485
100003.2435
100003.2441
100003.2515
100003.2644
100003.2858
100003.3092
100003.3299
100003.3455
100003.3585
100003.371
100003.387
100003.4106
100003.4314
100003.4479
100003.4283
100003.4176
100003.4044
100003.3848
100003.365
100003.3432
100003.321
100003.2986
100003.2771
100003.2585
100003.2447
100003.2354
100003.2286
100003.2267
100003.2297
100003.2379
100003.2658
100003.2983
100003.3189
100003.3305
100003.3397
100003.3497
100003.3664
100003.394
100003.4173
100003.4344
100003.4081
100003.3966
100003.3841
100003.3654
100003.3476
100003.3278
100003.3076