/*--------------------------------*- C++ -*----------------------------------*\
  =========                 |
  \\      /  F ield         | OpenFOAM: The Open Source CFD Toolbox
   \\    /   O peration     | Website:  https://openfoam.org
    \\  /    A nd           | Version:  8
     \\/     M anipulation  |
\*---------------------------------------------------------------------------*/
FoamFile
{
    version     2.0;
    format      ascii;
    class       volScalarField;
    location    "0.9";
    object      p_rgh;
}
// * * * * * * * * * * * * * * * * * * * * * * * * * * * * * * * * * * * * * //

dimensions      [1 -1 -2 0 0 0 0];

internalField   nonuniform List<scalar> 
67410
(
100003.9864
100003.9693
100003.9563
100003.9386
100003.9211
100003.9036
100003.8866
100003.8708
100003.8569
100003.8447
100003.8338
100003.8247
100003.8199
100003.8224
100003.8331
100003.8493
100003.8607
100003.8803
100003.9048
100003.9336
100003.9645
100003.9944
100004.023
100004.0298
100004.0504
100004.0618
100003.9708
100003.9546
100003.9371
100003.915
100003.8914
100003.8666
100003.8414
100003.8172
100003.7951
100003.7764
100003.7625
100003.755
100003.7565
100003.7687
100003.7893
100003.8142
100003.8158
100003.834
100003.8546
100003.8804
100003.9084
100003.9347
100003.9619
100003.9666
100003.9891
100004.0012
100003.9604
100003.9406
100003.9218
100003.8975
100003.8717
100003.8447
100003.8178
100003.7919
100003.7687
100003.7501
100003.7376
100003.7323
100003.737
100003.7561
100003.7868
100003.8439
100003.8036
100003.8259
100003.8404
100003.8642
100003.8905
100003.9117
100003.9339
100003.9329
100003.9567
100003.9667
100003.943
100003.9201
100003.8995
100003.8725
100003.8448
100003.8165
100003.7885
100003.7619
100003.7384
100003.7208
100003.7116
100003.7123
100003.7246
100003.7572
100003.7986
100003.9519
100003.776
100003.8356
100003.8299
100003.8503
100003.8715
100003.8841
100003.8926
100003.8988
100003.9258
100003.9354
100003.9274
100003.9007
100003.8783
100003.8498
100003.8218
100003.794
100003.7671
100003.7417
100003.7198
100003.7048
100003.7016
100003.7132
100003.7402
100003.7927
100003.8209
100004.1919
100003.6954
100003.9107
100003.8338
100003.8502
100003.8559
100003.8619
100003.8541
100003.8762
100003.9117
100003.9217
100003.9129
100003.8813
100003.8573
100003.8279
100003.8006
100003.774
100003.7488
100003.7255
100003.7065
100003.6959
100003.6997
100003.7232
100003.7713
100003.8334
100003.7392
100004.3176
100003.4741
100004.1089
100003.8386
100003.8628
100003.8455
100003.8878
100003.8593
100003.8729
100003.9196
100003.9262
100003.9013
100003.864
100003.8388
100003.8088
100003.7826
100003.7578
100003.7347
100003.7142
100003.699
100003.6949
100003.7109
100003.7562
100003.8321
100003.8489
100003.6484
100005.0849
100003.2662
100004.5806
100003.8396
100003.905
100003.8783
100004.0171
100003.9747
100003.899
100003.9377
100003.9488
100003.8925
100003.8496
100003.8232
100003.7928
100003.7677
100003.745
100003.7244
100003.7068
100003.6951
100003.6963
100003.7255
100003.812
100003.9748
100004.059
100005.0205
100007.1527
100003.4909
100005.0073
100003.9396
100003.9563
100003.9481
100004.165
100004.1485
100003.95
100003.9533
100003.9741
100003.8866
100003.8382
100003.8108
100003.7801
100003.7562
100003.7353
100003.7173
100003.7022
100003.6913
100003.6867
100003.6907
100003.69
100003.6232
100003.4312
100003.5431
100003.3258
100003.8264
100003.9403
100003.8808
100003.9074
100003.9327
100004.08
100004.0872
100003.9824
100003.9735
100003.993
100003.8836
100003.8294
100003.8013
100003.7705
100003.7477
100003.7288
100003.7131
100003.7003
100003.6907
100003.6865
100003.6918
100003.7141
100003.7746
100003.9469
100004.2556
100004.63
100003.9351
100004.0977
100003.9268
100003.9159
100003.9349
100003.9903
100004.0138
100004
100004.002
100004.0078
100003.8829
100003.8227
100003.7943
100003.7638
100003.7425
100003.7255
100003.7123
100003.7025
100003.6967
100003.6964
100003.7038
100003.7215
100003.7525
100003.7894
100003.7719
100003.7811
100003.836
100003.9491
100003.9168
100003.9302
100003.9573
100003.9879
100003.9987
100004.0071
100004.0206
100004.0323
100003.884
100003.8174
100003.7891
100003.7593
100003.7399
100003.7251
100003.714
100003.7061
100003.7024
100003.7036
100003.71
100003.7225
100003.7427
100003.7704
100003.8022
100003.8648
100003.8511
100003.8852
100003.8955
100003.9125
100003.9411
100003.9766
100003.9997
100004.0112
100004.04
100004.0642
100003.8846
100003.8122
100003.7845
100003.7558
100003.7391
100003.7272
100003.7184
100003.7119
100003.7093
100003.7129
100003.7229
100003.7396
100003.7621
100003.7873
100003.8138
100003.8464
100003.8595
100003.8858
100003.8969
100003.9172
100003.953
100003.9822
100004.0003
100004.0191
100004.0578
100004.1182
100003.8826
100003.806
100003.7799
100003.7534
100003.7394
100003.7305
100003.7249
100003.7197
100003.7154
100003.7177
100003.7268
100003.7418
100003.7601
100003.7802
100003.8023
100003.8267
100003.8498
100003.8738
100003.8998
100003.9439
100003.9985
100004.01
100004.0044
100004.0068
100004.023
100004.0206
100003.8771
100003.7991
100003.7761
100003.7526
100003.741
100003.734
100003.7315
100003.7298
100003.7216
100003.7195
100003.7254
100003.739
100003.7576
100003.7792
100003.8016
100003.8234
100003.8425
100003.8626
100003.8957
100003.954
100004.021
100004.0154
100003.9866
100003.9736
100003.9796
100003.9842
100003.8689
100003.7922
100003.773
100003.7535
100003.7446
100003.7377
100003.7334
100003.735
100003.7238
100003.7201
100003.7202
100003.7292
100003.7437
100003.7613
100003.78
100003.7986
100003.8172
100003.8373
100003.8653
100003.9069
100003.9529
100003.9581
100003.9404
100003.939
100003.9461
100003.952
100003.8545
100003.7861
100003.7711
100003.7553
100003.75
100003.7418
100003.7314
100003.7321
100003.7289
100003.7308
100003.7226
100003.7237
100003.7308
100003.7435
100003.7587
100003.7746
100003.7906
100003.8071
100003.8255
100003.8469
100003.8682
100003.8733
100003.8709
100003.8761
100003.8835
100003.8903
100003.8483
100003.789
100003.7727
100003.7529
100003.7377
100003.7229
100003.7201
100003.7119
100003.728
100003.7419
100003.7313
100003.7247
100003.723
100003.727
100003.7354
100003.746
100003.7572
100003.7681
100003.7779
100003.7851
100003.79
100003.7937
100003.8024
100003.8129
100003.8247
100003.8372
100003.8286
100003.7935
100003.776
100003.7528
100003.7351
100003.7563
100003.8294
100003.768
100003.7422
100003.7579
100003.7517
100003.7388
100003.728
100003.7237
100003.724
100003.7281
100003.7343
100003.741
100003.747
100003.7509
100003.7524
100003.7555
100003.7632
100003.7712
100003.781
100003.7938
100003.8626
100003.8191
100003.7771
100003.7213
100003.6803
100003.72
100003.8337
100003.8301
100003.7471
100003.7323
100003.7537
100003.7516
100003.744
100003.7329
100003.7266
100003.7239
100003.7247
100003.728
100003.7327
100003.7379
100003.7426
100003.7478
100003.7518
100003.756
100003.7616
100003.7693
100003.8125
100003.7867
100003.7626
100003.733
100003.7159
100003.7125
100003.7362
100003.764
100003.7635
100003.7341
100003.7391
100003.7499
100003.759
100003.7521
100003.7384
100003.7313
100003.7276
100003.7283
100003.7325
100003.7399
100003.7483
100003.7581
100003.7607
100003.7636
100003.768
100003.7686
100003.8242
100003.8003
100003.7794
100003.7515
100003.7375
100003.7392
100003.7348
100003.7306
100003.727
100003.7192
100003.719
100003.7251
100003.7487
100003.7641
100003.7658
100003.7471
100003.7407
100003.7394
100003.7441
100003.7545
100003.7666
100003.7813
100003.7827
100003.7855
100003.7924
100003.7863
100003.8149
100003.7956
100003.7782
100003.7528
100003.7369
100003.7314
100003.7367
100003.7382
100003.7368
100003.7377
100003.7332
100003.723
100003.7239
100003.744
100003.7653
100003.7698
100003.7551
100003.7539
100003.7595
100003.7721
100003.7865
100003.8013
100003.809
100003.8117
100003.843
100003.8102
100003.8264
100003.8061
100003.7914
100003.7639
100003.7444
100003.7306
100003.7268
100003.7351
100003.7519
100003.7703
100003.7759
100003.763
100003.7379
100003.7306
100003.7397
100003.7642
100003.7693
100003.7686
100003.7756
100003.7887
100003.8055
100003.8171
100003.8264
100003.8199
100003.8195
100003.8144
100003.827
100003.8067
100003.7996
100003.7758
100003.7581
100003.7423
100003.7339
100003.7408
100003.7628
100003.7872
100003.7999
100003.7908
100003.7683
100003.7482
100003.7389
100003.748
100003.7659
100003.7759
100003.7824
100003.7973
100003.8147
100003.8304
100003.8458
100003.836
100003.8306
100003.8387
100003.8168
100003.8134
100003.7943
100003.7808
100003.7675
100003.7562
100003.7461
100003.7443
100003.7519
100003.7653
100003.7655
100003.759
100003.7503
100003.7463
100003.7472
100003.7625
100003.781
100003.7927
100003.8082
100003.8361
100003.8623
100003.8793
100003.8616
100003.8527
100003.8603
100003.8345
100003.8332
100003.8147
100003.8021
100003.7915
100003.7864
100003.7859
100003.7856
100003.7791
100003.7668
100003.7573
100003.754
100003.7497
100003.7494
100003.7524
100003.7689
100003.786
100003.8077
100003.8413
100003.8813
100003.9352
100003.9653
100003.8977
100003.8755
100003.8829
100003.8497
100003.8466
100003.8263
100003.811
100003.7978
100003.7907
100003.7895
100003.7924
100003.7919
100003.786
100003.7757
100003.7701
100003.7631
100003.7628
100003.765
100003.78
100003.7968
100003.8235
100003.8624
100003.8939
100003.9717
100003.9437
100003.9365
100003.9035
100003.9108
100003.8697
100003.8622
100003.837
100003.8144
100003.7948
100003.7776
100003.7692
100003.768
100003.769
100003.7749
100003.7669
100003.7563
100003.745
100003.7444
100003.7571
100003.7804
100003.7989
100003.8259
100003.8592
100003.9078
100004.0585
100004.2761
100003.8906
100003.9264
100003.8818
100003.9587
100003.9118
100003.901
100003.8691
100003.8374
100003.8149
100003.7862
100003.7712
100003.7607
100003.7513
100003.7499
100003.7419
100003.741
100003.7353
100003.7447
100003.7575
100003.7883
100003.8124
100003.8492
100003.9092
100003.9169
100004.2909
100004.8089
100003.9066
100003.9277
100003.9318
100003.9878
100003.9696
100003.9545
100003.9348
100003.9148
100003.8935
100003.871
100003.8484
100003.8275
100003.81
100003.7973
100003.7905
100003.7919
100003.8024
100003.8174
100003.8314
100003.8437
100003.8608
100003.8812
100003.9044
100003.9289
100003.9539
100003.9796
100004.0028
100004.0262
100004.0421
100003.9693
100003.9518
100003.9341
100003.9102
100003.8845
100003.8568
100003.8277
100003.7987
100003.7726
100003.7515
100003.7365
100003.7284
100003.73
100003.7428
100003.7617
100003.7786
100003.7907
100003.8097
100003.8299
100003.8516
100003.8733
100003.8951
100003.9184
100003.9437
100003.9691
100003.987
100003.9542
100003.9365
100003.9167
100003.8909
100003.8635
100003.8346
100003.805
100003.7765
100003.7513
100003.7305
100003.7143
100003.7027
100003.699
100003.7052
100003.7195
100003.7371
100003.7529
100003.7816
100003.8051
100003.8269
100003.8452
100003.86
100003.8762
100003.9081
100003.9353
100003.9524
100003.9353
100003.9137
100003.8923
100003.8644
100003.8363
100003.8072
100003.7782
100003.7501
100003.7247
100003.7025
100003.6827
100003.6662
100003.6549
100003.6445
100003.6346
100003.6291
100003.6766
100003.74
100003.7718
100003.7939
100003.8025
100003.8043
100003.8058
100003.8682
100003.9022
100003.9192
100003.917
100003.8923
100003.8697
100003.8414
100003.8142
100003.7868
100003.7597
100003.733
100003.7075
100003.6835
100003.6577
100003.6288
100003.5965
100003.5423
100003.4648
100003.3491
100003.535
100003.6863
100003.7338
100003.7556
100003.7481
100003.7484
100003.742
100003.8357
100003.8829
100003.9013
100003.8993
100003.8702
100003.847
100003.8186
100003.7931
100003.7678
100003.7428
100003.7182
100003.694
100003.6697
100003.6403
100003.5932
100003.5059
100003.3334
100003.1135
100002.286
100003.3055
100003.6016
100003.6728
100003.7017
100003.6981
100003.7272
100003.7122
100003.8098
100003.8754
100003.8978
100003.8845
100003.8508
100003.8269
100003.7986
100003.7747
100003.7514
100003.7285
100003.7056
100003.6825
100003.657
100003.6194
100003.545
100003.3895
100003.0188
100002.8241
100001.6024
100003.31
100003.5224
100003.6045
100003.653
100003.6863
100003.7294
100003.7075
100003.7962
100003.8738
100003.9065
100003.8731
100003.8346
100003.8098
100003.7815
100003.7591
100003.7379
100003.7172
100003.696
100003.6734
100003.645
100003.5941
100003.4774
100003.2271
100002.0248
100002.374
99999.60606
100003.3472
100003.1208
100003.5205
100003.6269
100003.6996
100003.7448
100003.7285
100003.8038
100003.8809
100003.9218
100003.865
100003.8215
100003.7959
100003.7676
100003.7466
100003.7276
100003.7094
100003.6905
100003.6705
100003.6463
100003.6062
100003.5271
100003.3662
100003.0592
100003.2702
100002.9906
100003.7273
100003.5734
100003.6915
100003.7141
100003.7392
100003.7499
100003.738
100003.8469
100003.9171
100003.9405
100003.859
100003.8102
100003.7844
100003.7563
100003.7369
100003.72
100003.7044
100003.6894
100003.674
100003.656
100003.6314
100003.5959
100003.5467
100003.4963
100003.5962
100003.4059
100003.7319
100003.7653
100003.8053
100003.8262
100003.8521
100003.8711
100003.8798
100003.9334
100003.9488
100003.9508
100003.8531
100003.7992
100003.7741
100003.7473
100003.7299
100003.7152
100003.7023
100003.6912
100003.6815
100003.673
100003.6645
100003.6531
100003.6351
100003.6162
100003.6138
100003.567
100003.7243
100003.8073
100003.8437
100003.8645
100003.8888
100003.9225
100003.9476
100003.9524
100003.9553
100003.9527
100003.8459
100003.7879
100003.7648
100003.74
100003.7253
100003.713
100003.7023
100003.6935
100003.687
100003.683
100003.6807
100003.6796
100003.6805
100003.6858
100003.6981
100003.7114
100003.767
100003.811
100003.8356
100003.8482
100003.8681
100003.8996
100003.9356
100003.9435
100003.9441
100003.9366
100003.8373
100003.7766
100003.7565
100003.7343
100003.7225
100003.7131
100003.7046
100003.6968
100003.692
100003.6914
100003.6949
100003.7026
100003.7138
100003.728
100003.7459
100003.7674
100003.7979
100003.8221
100003.8308
100003.8348
100003.8485
100003.8749
100003.9242
100003.9355
100003.927
100003.8996
100003.8263
100003.7651
100003.7492
100003.73
100003.7205
100003.714
100003.7081
100003.7006
100003.6949
100003.6944
100003.6988
100003.7072
100003.7188
100003.7331
100003.7507
100003.7717
100003.7946
100003.8088
100003.8113
100003.8138
100003.8247
100003.8412
100003.8992
100003.9198
100003.9056
100003.8976
100003.812
100003.7535
100003.7424
100003.7255
100003.718
100003.7136
100003.7106
100003.7051
100003.6968
100003.6944
100003.6975
100003.7057
100003.7181
100003.734
100003.7519
100003.7699
100003.7834
100003.7856
100003.7794
100003.7809
100003.7894
100003.7925
100003.8394
100003.8898
100003.8888
100003.8878
100003.7964
100003.7431
100003.7359
100003.7194
100003.7109
100003.7042
100003.6987
100003.6983
100003.6983
100003.6937
100003.694
100003.6997
100003.7092
100003.7214
100003.7358
100003.7508
100003.7647
100003.7736
100003.7766
100003.7761
100003.7792
100003.7885
100003.8265
100003.8558
100003.8572
100003.8589
100003.7816
100003.7357
100003.7303
100003.7131
100003.702
100003.6895
100003.6785
100003.6779
100003.7039
100003.7011
100003.6957
100003.6961
100003.7016
100003.7106
100003.7218
100003.7337
100003.745
100003.7534
100003.7565
100003.7544
100003.7519
100003.7575
100003.7883
100003.8073
100003.8113
100003.8158
100003.7785
100003.7352
100003.7222
100003.6921
100003.6665
100003.6564
100003.6588
100003.6544
100003.6991
100003.7135
100003.7047
100003.6985
100003.6968
100003.7003
100003.707
100003.7151
100003.7233
100003.7301
100003.7336
100003.7327
100003.7291
100003.7315
100003.7508
100003.7628
100003.7701
100003.7782
100003.7866
100003.7474
100003.7176
100003.6813
100003.6578
100003.6581
100003.6687
100003.6616
100003.6874
100003.7158
100003.7212
100003.7097
100003.7017
100003.6983
100003.6996
100003.7036
100003.7086
100003.7132
100003.7164
100003.7172
100003.7161
100003.7178
100003.7281
100003.734
100003.7413
100003.7501
100003.8078
100003.7609
100003.6946
100003.6227
100003.6144
100003.6383
100003.6535
100003.661
100003.6724
100003.687
100003.7149
100003.7214
100003.7142
100003.7069
100003.7029
100003.702
100003.7039
100003.7069
100003.7101
100003.7133
100003.7168
100003.7215
100003.7272
100003.7276
100003.7324
100003.7384
100003.8
100003.7754
100003.7516
100003.7175
100003.6878
100003.6759
100003.6867
100003.7059
100003.7007
100003.6938
100003.6905
100003.7016
100003.7203
100003.7187
100003.7131
100003.7101
100003.7094
100003.7113
100003.7153
100003.7214
100003.7287
100003.7372
100003.7435
100003.7436
100003.751
100003.7459
100003.8041
100003.7828
100003.7593
100003.7223
100003.6972
100003.6801
100003.6723
100003.6783
100003.676
100003.6748
100003.6743
100003.675
100003.6929
100003.7246
100003.7311
100003.7247
100003.7233
100003.7247
100003.7299
100003.7387
100003.7491
100003.7598
100003.7699
100003.7722
100003.8001
100003.7697
100003.7983
100003.781
100003.7602
100003.7264
100003.7042
100003.6935
100003.6926
100003.6915
100003.691
100003.6878
100003.6862
100003.6822
100003.6795
100003.6933
100003.7264
100003.7414
100003.7384
100003.741
100003.7476
100003.758
100003.7698
100003.7789
100003.8048
100003.8077
100004.077
100003.8006
100003.8071
100003.7883
100003.7704
100003.7355
100003.7125
100003.6979
100003.6925
100003.6903
100003.6933
100003.6963
100003.6966
100003.6907
100003.6891
100003.6892
100003.6988
100003.7314
100003.7515
100003.7555
100003.7616
100003.7712
100003.7843
100003.7851
100003.8018
100003.7988
100003.8187
100003.7916
100003.8172
100003.7898
100003.7785
100003.7475
100003.7246
100003.7063
100003.6991
100003.6974
100003.6994
100003.7027
100003.7055
100003.7029
100003.7
100003.6983
100003.7041
100003.7148
100003.7474
100003.7595
100003.7637
100003.7741
100003.7883
100003.8049
100003.8041
100003.8087
100003.8131
100003.8304
100003.8022
100003.7946
100003.769
100003.751
100003.7296
100003.7109
100003.6979
100003.6981
100003.6987
100003.7028
100003.7044
100003.7063
100003.7083
100003.7104
100003.7234
100003.7341
100003.7552
100003.7697
100003.7821
100003.7825
100003.8104
100003.7818
100003.8183
100003.8126
100003.8389
100003.8155
100003.8128
100003.7901
100003.7737
100003.7574
100003.7437
100003.7298
100003.7167
100003.705
100003.6999
100003.6983
100003.7009
100003.7109
100003.7191
100003.7322
100003.7523
100003.7663
100003.7883
100003.8198
100003.8266
100003.9424
100003.8401
100003.8499
100003.8146
100003.8416
100003.8156
100003.8153
100003.7912
100003.7707
100003.7514
100003.7416
100003.7375
100003.738
100003.7345
100003.7257
100003.7227
100003.7248
100003.7285
100003.735
100003.7461
100003.7596
100003.7732
100003.7833
100003.8168
100003.6963
100003.8005
100003.5483
100003.8245
100003.7671
100003.8515
100003.8192
100003.8169
100003.7908
100003.7652
100003.7401
100003.7259
100003.7168
100003.7146
100003.7157
100003.7167
100003.7151
100003.7027
100003.6958
100003.6991
100003.7244
100003.7484
100003.7686
100003.7793
100003.8111
100003.7413
100003.985
100003.6511
100003.7781
100003.7962
100003.8214
100003.8916
100003.8522
100003.8414
100003.8123
100003.7814
100003.7488
100003.734
100003.72
100003.7102
100003.7027
100003.6953
100003.6912
100003.6841
100003.6852
100003.6835
100003.7024
100003.7257
100003.7628
100003.7461
100003.7581
100003.4967
100003.4477
100003.0596
100003.5165
100003.5328
100003.8023
100003.9468
100003.9318
100003.9177
100003.8983
100003.879
100003.8592
100003.8395
100003.8202
100003.802
100003.7861
100003.7736
100003.7659
100003.7642
100003.7691
100003.7796
100003.7938
100003.8107
100003.8302
100003.8517
100003.8742
100003.8974
100003.9201
100003.9414
100003.9603
100003.9775
100003.9907
100003.9316
100003.9183
100003.9034
100003.8826
100003.8606
100003.8376
100003.8144
100003.792
100003.7709
100003.752
100003.7368
100003.7273
100003.7246
100003.7294
100003.741
100003.7563
100003.7743
100003.7951
100003.8173
100003.8399
100003.8623
100003.884
100003.9043
100003.9223
100003.9403
100003.9553
100003.9168
100003.9063
100003.89
100003.8685
100003.8456
100003.8216
100003.7978
100003.7746
100003.7522
100003.7319
100003.7156
100003.7051
100003.7007
100003.703
100003.7135
100003.7299
100003.75
100003.7744
100003.7989
100003.8222
100003.8441
100003.8642
100003.8825
100003.8986
100003.9163
100003.9306
100003.8992
100003.8854
100003.8693
100003.8469
100003.8235
100003.7991
100003.7746
100003.7502
100003.7269
100003.7064
100003.6913
100003.6816
100003.6771
100003.6764
100003.6872
100003.706
100003.7248
100003.7532
100003.7796
100003.8038
100003.8257
100003.8455
100003.8618
100003.8764
100003.8935
100003.9063
100003.8803
100003.8656
100003.8498
100003.8272
100003.8047
100003.7809
100003.7567
100003.7325
100003.7093
100003.6894
100003.6763
100003.6706
100003.6699
100003.672
100003.6995
100003.7379
100003.732
100003.754
100003.7765
100003.7991
100003.8197
100003.84
100003.8516
100003.8667
100003.8841
100003.8948
100003.8603
100003.844
100003.8284
100003.8063
100003.7854
100003.7631
100003.7404
100003.7173
100003.6948
100003.6755
100003.663
100003.665
100003.6782
100003.6927
100003.7755
100003.8643
100003.8083
100003.7966
100003.7982
100003.8103
100003.8208
100003.8331
100003.8448
100003.8645
100003.8868
100003.8954
100003.8422
100003.824
100003.8086
100003.7869
100003.7678
100003.7477
100003.7271
100003.7058
100003.6848
100003.6665
100003.6556
100003.6646
100003.7154
100003.7732
100003.9305
100004.1857
100003.9671
100003.9231
100003.8575
100003.8433
100003.8315
100003.8392
100003.8504
100003.8707
100003.8976
100003.9054
100003.8271
100003.8065
100003.7908
100003.7695
100003.7522
100003.7345
100003.7167
100003.698
100003.6791
100003.662
100003.6517
100003.6661
100003.7609
100003.8701
100004.1603
100004.7304
100004.1765
100004.0857
100003.922
100003.873
100003.8465
100003.8538
100003.8655
100003.8826
100003.9095
100003.9181
100003.8154
100003.7922
100003.7761
100003.755
100003.7393
100003.7241
100003.7095
100003.6944
100003.6788
100003.6641
100003.6524
100003.6473
100003.6644
100003.6292
100003.7507
100003.9864
100003.9387
100003.9894
100003.9166
100003.8786
100003.8583
100003.8622
100003.875
100003.896
100003.9194
100003.9275
100003.807
100003.7812
100003.7648
100003.7439
100003.7294
100003.7164
100003.7048
100003.6931
100003.682
100003.6735
100003.6718
100003.6861
100003.7239
100003.7744
100003.8886
100003.9722
100003.9326
100003.9353
100003.9042
100003.8849
100003.8771
100003.8834
100003.8966
100003.9135
100003.927
100003.9326
100003.801
100003.773
100003.7568
100003.7363
100003.7227
100003.7115
100003.7023
100003.6938
100003.6867
100003.6822
100003.6824
100003.6903
100003.7069
100003.7318
100003.7773
100003.8293
100003.8565
100003.882
100003.8874
100003.8927
100003.9004
100003.9113
100003.9205
100003.9253
100003.9306
100003.9344
100003.7963
100003.7669
100003.7514
100003.7316
100003.7189
100003.7091
100003.7018
100003.6956
100003.691
100003.6892
100003.6909
100003.6979
100003.7118
100003.7346
100003.7683
100003.8019
100003.8295
100003.8525
100003.8682
100003.8801
100003.8921
100003.9052
100003.9159
100003.9197
100003.9226
100003.9261
100003.7911
100003.7613
100003.7467
100003.7281
100003.7172
100003.7091
100003.7036
100003.6989
100003.6955
100003.6952
100003.6987
100003.7068
100003.7198
100003.7378
100003.7612
100003.7869
100003.8122
100003.8347
100003.8505
100003.8621
100003.8748
100003.8893
100003.9033
100003.9088
100003.9097
100003.9115
100003.7842
100003.7547
100003.7415
100003.7251
100003.7167
100003.7111
100003.7075
100003.7037
100003.6997
100003.6986
100003.7012
100003.708
100003.7188
100003.7336
100003.7518
100003.7723
100003.7933
100003.8115
100003.8245
100003.8345
100003.8466
100003.8602
100003.8772
100003.8847
100003.8791
100003.8798
100003.7761
100003.7479
100003.7372
100003.7231
100003.7165
100003.7135
100003.7127
100003.7099
100003.7038
100003.7002
100003.7004
100003.7053
100003.7146
100003.7275
100003.7429
100003.7592
100003.7744
100003.7862
100003.7941
100003.8015
100003.8117
100003.8222
100003.8383
100003.8537
100003.8585
100003.8642
100003.7695
100003.7439
100003.7356
100003.7227
100003.7173
100003.7161
100003.7175
100003.716
100003.7076
100003.7005
100003.6973
100003.6992
100003.7054
100003.7148
100003.7263
100003.7387
100003.7503
100003.7593
100003.7652
100003.7698
100003.7769
100003.7868
100003.8028
100003.8175
100003.8243
100003.83
100003.7651
100003.7436
100003.7365
100003.7242
100003.7195
100003.7193
100003.7225
100003.7232
100003.7153
100003.7039
100003.6965
100003.6947
100003.6973
100003.7035
100003.7119
100003.7212
100003.73
100003.7368
100003.7412
100003.7438
100003.7473
100003.754
100003.766
100003.7783
100003.7869
100003.7948
100003.7637
100003.746
100003.7374
100003.7241
100003.7179
100003.7165
100003.7223
100003.729
100003.7282
100003.715
100003.6991
100003.693
100003.6914
100003.6937
100003.6986
100003.7048
100003.711
100003.716
100003.7191
100003.7205
100003.7218
100003.7257
100003.7341
100003.7442
100003.7537
100003.7629
100003.7612
100003.7474
100003.7371
100003.7247
100003.7158
100003.7061
100003.71
100003.7168
100003.7256
100003.7263
100003.7063
100003.696
100003.6906
100003.6898
100003.6915
100003.695
100003.6992
100003.7029
100003.7057
100003.7074
100003.7086
100003.7112
100003.7159
100003.723
100003.7325
100003.7412
100003.7663
100003.7491
100003.7349
100003.7207
100003.7107
100003.6998
100003.7135
100003.7234
100003.7158
100003.7367
100003.7141
100003.7048
100003.696
100003.6919
100003.6914
100003.6931
100003.6957
100003.6989
100003.7023
100003.7056
100003.708
100003.7105
100003.713
100003.7175
100003.729
100003.7337
100003.7655
100003.7514
100003.7391
100003.7253
100003.7171
100003.7128
100003.7097
100003.7047
100003.6854
100003.7175
100003.709
100003.7068
100003.7028
100003.6983
100003.6965
100003.6972
100003.6995
100003.703
100003.7076
100003.7134
100003.7193
100003.7241
100003.7264
100003.728
100003.7547
100003.7398
100003.7718
100003.7582
100003.7445
100003.727
100003.7163
100003.7109
100003.7098
100003.7178
100003.7149
100003.713
100003.7141
100003.7128
100003.7111
100003.7096
100003.7081
100003.7076
100003.7099
100003.714
100003.7205
100003.7295
100003.7387
100003.7441
100003.7468
100003.7428
100003.7756
100003.7529
100003.7742
100003.7623
100003.7497
100003.7318
100003.7207
100003.7125
100003.7078
100003.7049
100003.7025
100003.7063
100003.7054
100003.7059
100003.7108
100003.7136
100003.7175
100003.7202
100003.7224
100003.7282
100003.7378
100003.7513
100003.7646
100003.773
100003.7857
100003.7469
100003.8562
100003.7744
100003.7823
100003.7691
100003.7567
100003.7372
100003.7257
100003.7166
100003.7109
100003.7097
100003.7108
100003.7115
100003.7118
100003.7093
100003.7072
100003.7107
100003.7175
100003.7279
100003.7351
100003.7432
100003.7558
100003.7753
100003.7937
100003.7988
100003.7837
100003.7611
100003.7283
100003.7629
100003.7878
100003.7704
100003.7601
100003.741
100003.7306
100003.7216
100003.7149
100003.7109
100003.71
100003.7116
100003.7125
100003.7122
100003.7114
100003.7117
100003.7178
100003.7314
100003.7429
100003.753
100003.7647
100003.7877
100003.8093
100003.85
100003.8086
100003.7978
100003.8019
100003.792
100003.7738
100003.7671
100003.7485
100003.7383
100003.7286
100003.7216
100003.7172
100003.7119
100003.7094
100003.7103
100003.7128
100003.7168
100003.7196
100003.7244
100003.7323
100003.7476
100003.7592
100003.7667
100003.7967
100003.7989
100003.9195
100003.8029
100003.8209
100003.7967
100003.7993
100003.7833
100003.7793
100003.7616
100003.7505
100003.7391
100003.7313
100003.726
100003.7225
100003.7205
100003.7164
100003.7161
100003.7216
100003.7256
100003.732
100003.7392
100003.7507
100003.7657
100003.786
100003.8493
100003.869
100004.218
100003.8128
100003.8869
100003.8034
100003.8118
100003.7957
100003.7918
100003.774
100003.7612
100003.7461
100003.735
100003.7283
100003.7245
100003.7205
100003.7185
100003.7198
100003.7251
100003.7298
100003.7345
100003.7404
100003.75
100003.7656
100003.7747
100003.8618
100003.8142
100004.4128
100003.8085
100003.8915
100003.7877
100003.8359
100003.8159
100003.8089
100003.788
100003.7721
100003.7522
100003.7352
100003.7243
100003.7169
100003.7117
100003.709
100003.7077
100003.7102
100003.717
100003.7253
100003.7346
100003.7465
100003.7625
100003.7714
100003.8283
100003.7779
100003.9472
100003.559
100003.8536
100003.7717
100003.8205
100003.8784
100003.8521
100003.8404
100003.8146
100003.7952
100003.7706
100003.7456
100003.7317
100003.7182
100003.7083
100003.7033
100003.7015
100003.7048
100003.711
100003.7195
100003.7345
100003.7463
100003.7602
100003.7601
100003.792
100003.8012
100003.7679
100003.6412
100003.7862
100003.7534
100003.807
100003.9121
100003.8984
100003.8858
100003.8672
100003.8486
100003.8295
100003.8104
100003.7916
100003.7737
100003.7577
100003.745
100003.7372
100003.7354
100003.7397
100003.7494
100003.7628
100003.7786
100003.7959
100003.8144
100003.8336
100003.8532
100003.8732
100003.8932
100003.9122
100003.9293
100003.9429
100003.8986
100003.8877
100003.8738
100003.8549
100003.8348
100003.8135
100003.7921
100003.7708
100003.7504
100003.7322
100003.7178
100003.7086
100003.7059
100003.7099
100003.7199
100003.7339
100003.7509
100003.7692
100003.788
100003.8063
100003.8245
100003.8428
100003.862
100003.8817
100003.9001
100003.9156
100003.8846
100003.8762
100003.8622
100003.843
100003.8222
100003.8002
100003.7778
100003.7556
100003.7345
100003.7159
100003.701
100003.6909
100003.6865
100003.6888
100003.6981
100003.7124
100003.7314
100003.7517
100003.7716
100003.789
100003.8048
100003.8204
100003.8378
100003.8582
100003.8775
100003.8935
100003.8685
100003.858
100003.8442
100003.8244
100003.8035
100003.781
100003.7581
100003.7354
100003.7137
100003.6949
100003.6805
100003.6709
100003.6659
100003.6665
100003.6739
100003.6868
100003.7081
100003.7316
100003.7523
100003.7679
100003.7809
100003.7934
100003.8093
100003.833
100003.8538
100003.8703
100003.8506
100003.8399
100003.8268
100003.8072
100003.7874
100003.7656
100003.7434
100003.721
100003.6994
100003.6809
100003.6671
100003.6578
100003.6509
100003.649
100003.6521
100003.6603
100003.6882
100003.7207
100003.7413
100003.7528
100003.762
100003.7721
100003.7888
100003.8163
100003.8397
100003.8568
100003.8305
100003.819
100003.8065
100003.7878
100003.77
100003.7502
100003.73
100003.709