/*--------------------------------*- C++ -*----------------------------------*\
  =========                 |
  \\      /  F ield         | OpenFOAM: The Open Source CFD Toolbox
   \\    /   O peration     | Website:  https://openfoam.org
    \\  /    A nd           | Version:  8
     \\/     M anipulation  |
\*---------------------------------------------------------------------------*/
FoamFile
{
    version     2.0;
    format      ascii;
    class       surfaceScalarField;
    location    "0.9";
    object      phi;
}
// * * * * * * * * * * * * * * * * * * * * * * * * * * * * * * * * * * * * * //

dimensions      [1 0 -1 0 0 0 0];

internalField   nonuniform List<scalar> 
197783
(
-1.456454212e-05
-1.41646776e-06
1.598435655e-05
-2.608783871e-05
-4.975837234e-06
1.650275977e-05
-3.517402499e-05
-7.912986656e-06
1.700332992e-05
-4.282395473e-05
-1.025471432e-05
1.790956198e-05
-4.937619352e-05
-1.241350705e-05
1.897160416e-05
-5.468961364e-05
-1.464990062e-05
1.997021538e-05
-5.82733084e-05
-1.706240248e-05
2.065400689e-05
-5.955290466e-05
-1.950910284e-05
2.079745619e-05
-5.808029299e-05
-2.167842659e-05
2.021509496e-05
-5.399273151e-05
-2.331526616e-05
1.923704905e-05
-4.810247495e-05
-2.423159494e-05
1.835022302e-05
-4.200177947e-05
-2.421114442e-05
1.81183995e-05
-3.807555012e-05
-2.293294988e-05
1.901344669e-05
-3.834863278e-05
-2.050539803e-05
2.078397467e-05
-4.178217126e-05
-1.833966178e-05
2.177772599e-05
-4.471294543e-05
-1.803899271e-05
2.097373738e-05
-4.60323038e-05
-1.800740641e-05
1.933059444e-05
-4.551234423e-05
-1.856599893e-05
1.804995777e-05
-4.34963349e-05
-1.931111713e-05
1.729914577e-05
-4.032643839e-05
-2.030977785e-05
1.714388739e-05
-3.632749023e-05
-2.154762323e-05
1.75524168e-05
-3.186217112e-05
-2.289026208e-05
1.842820638e-05
-2.700286978e-05
-2.454005617e-05
1.968340892e-05
-2.578945166e-05
-2.154120321e-05
2.032979425e-05
-2.522731219e-05
-2.220727982e-05
2.164654475e-05
-2.076608518e-05
2.228799649e-05
-1.139299748e-05
-6.301729644e-06
1.628156025e-05
-2.170387207e-05
-9.340555718e-06
1.467918583e-05
-3.08685965e-05
-1.289697485e-05
1.415283034e-05
-3.91231401e-05
-1.614767537e-05
1.415236196e-05
-4.640207642e-05
-1.931707132e-05
1.418825892e-05
-5.248868941e-05
-2.245766843e-05
1.39011097e-05
-5.687520194e-05
-2.556918927e-05
1.290093787e-05
-5.891147981e-05
-2.844102166e-05
1.097652139e-05
-5.826571549e-05
-3.081829469e-05
8.502718178e-06
-5.511424674e-05
-3.258385345e-05
6.125483747e-06
-5.022175888e-05
-3.371394111e-05
4.597376263e-06
-4.491968778e-05
-3.425783339e-05
4.750782355e-06
-4.110731534e-05
-3.39956112e-05
7.254854365e-06
-4.061389189e-05
-3.269752646e-05
1.170181716e-05
-4.326132291e-05
-3.105031436e-05
1.536021771e-05
-4.551918302e-05
-3.104716342e-05
1.526778926e-05
-4.707444257e-05
-2.91246984e-05
1.267450415e-05
-4.674286545e-05
-2.938811619e-05
1.049296665e-05
-4.49678114e-05
-3.019265209e-05
9.109417216e-06
-4.191479261e-05
-3.207963568e-05
8.720064574e-06
-3.766966143e-05
-3.502530221e-05
9.235742204e-06
-3.219768614e-05
-3.876807604e-05
1.040870635e-05
-2.588297543e-05
-4.304079433e-05
1.218838086e-05
-2.486999679e-05
-3.512328028e-05
1.257086317e-05
-2.509398455e-05
-3.677652391e-05
1.47944326e-05
-3.425890776e-05
1.617526478e-05
-1.145651268e-05
-1.1436747e-05
1.659472354e-05
-2.141478973e-05
-1.330257506e-05
1.392382841e-05
-3.043789033e-05
-1.662597091e-05
1.275613528e-05
-3.858529895e-05
-1.99451421e-05
1.194960805e-05
-4.581237367e-05
-2.329828158e-05
1.121384029e-05
-5.195502692e-05
-2.650811994e-05
1.01995029e-05
-5.646658226e-05
-2.946374891e-05
8.413221885e-06
-5.873027658e-05
-3.197381132e-05
5.803973266e-06
-5.838138751e-05
-3.389244305e-05
2.7326032e-06
-5.54871109e-05
-3.527984207e-05
-1.917706899e-07
-5.074726111e-05
-3.64510019e-05
-1.997842632e-06
-4.540423402e-05
-3.778689002e-05
-1.811154202e-06
-4.139318417e-05
-3.936144336e-05
1.355317083e-06
-4.08677276e-05
-4.062576241e-05
7.401537736e-06
-4.375704332e-05
-4.126221462e-05
1.309910566e-05
-4.471100456e-05
-4.457715745e-05
1.44818746e-05
-4.760594291e-05
-3.723760234e-05
1.100661363e-05
-4.795456669e-05
-3.74685784e-05
8.428998026e-06
-4.699278708e-05
-3.784837366e-05
6.695056591e-06
-4.450411903e-05
-4.087226756e-05
6.305909465e-06
-4.010607962e-05
-4.643719949e-05
7.01615389e-06
-3.264077245e-05
-5.425631126e-05
8.025133861e-06
-2.375279747e-05
-6.138722576e-05
9.460296963e-06
-2.346544565e-05
-4.427534338e-05
8.866045112e-06
-2.454633886e-05
-4.701003263e-05
1.131523288e-05
-4.309531371e-05
1.220372689e-05
-1.195326943e-05
-1.657872154e-05
1.709842581e-05
-2.211934573e-05
-1.702859043e-05
1.389553492e-05
-3.092812336e-05
-1.960660374e-05
1.179331861e-05
-3.844834921e-05
-2.255508802e-05
1.013470949e-05
-4.487626624e-05
-2.563069852e-05
8.765586376e-06
-5.029908797e-05
-2.850293579e-05
7.423559383e-06
-5.447320131e-05
-3.101322516e-05
5.729950798e-06
-5.690974236e-05
-3.29898656e-05
3.458935909e-06
-5.7165588e-05
-3.435630578e-05
7.25329104e-07
-5.522740391e-05
-3.533659179e-05
-1.877410091e-06
-5.152218239e-05
-3.658402191e-05
-3.5706651e-06
-4.717486677e-05
-3.892406443e-05
-3.211720053e-06
-4.392999333e-05
-4.279320568e-05
1.821814906e-07
-4.373828947e-05
-4.784441124e-05
7.020372239e-06
-4.597468873e-05
-5.273620836e-05
1.370353911e-05
-4.180666028e-05
-6.619110857e-05
1.743998238e-05
-4.725564948e-05
-4.386183617e-05
1.206880925e-05
-4.904203588e-05
-4.551302965e-05
9.828200353e-06
-5.031339721e-05
-4.443096229e-05
7.8532968e-06
-4.9558044e-05
-4.922582364e-05
7.59889854e-06
-4.522387179e-05
-5.859472997e-05
7.824755624e-06
-3.431091911e-05
-7.143285083e-05
6.265092041e-06
-2.13936449e-05
-7.878137129e-05
4.47813641e-06
-2.133901335e-05
-5.128678363e-05
6.957608908e-06
-2.368926238e-05
-5.442749022e-05
9.768056559e-06
-4.852844482e-05
9.159067584e-06
-1.329425073e-05
-2.170110993e-05
1.841972242e-05
-2.384202744e-05
-2.048001274e-05
1.400250695e-05
-3.218186045e-05
-2.21514072e-05
1.088835924e-05
-3.868134776e-05
-2.449235832e-05
8.441030685e-06
-4.377353523e-05
-2.710256961e-05
6.568920318e-06
-4.794487957e-05
-2.962008745e-05
5.293832072e-06
-5.137330322e-05
-3.185710599e-05
4.277785959e-06
-5.388875139e-05
-3.362481253e-05
3.15542721e-06
-5.513153312e-05
-3.48414393e-05
1.731630472e-06
-5.48087345e-05
-3.580985989e-05
1.518113461e-07
-5.318765164e-05
-3.741901888e-05
-7.881127387e-07
-5.114631286e-05
-4.085005238e-05
-1.213639935e-07
-5.043784584e-05
-4.731253137e-05
3.801436146e-06
-5.17298899e-05
-5.722982007e-05
1.06663424e-05
-5.124316253e-05
-7.054089099e-05
1.730814631e-05
-3.504943853e-05
-0.0001068390776
2.444799428e-05
-4.469523565e-05
-4.905155243e-05
1.482953267e-05
-4.956084223e-05
-5.522590726e-05
1.457475131e-05
-5.518276e-05
-5.046868158e-05
1.165838066e-05
-5.74804447e-05
-5.752688699e-05
1.059888963e-05
-5.284721696e-05
-7.013532941e-05
6.908284806e-06
-3.717612258e-05
-8.478801355e-05
-2.314907582e-06
-1.796444983e-05
-8.851662439e-05
-9.475615687e-06
-1.604987087e-05
-5.791860914e-05
4.717499872e-06
-2.076509608e-05
-5.957506992e-05
9.862619964e-06
-5.175453046e-05
6.880630138e-06
-1.51251872e-05
-2.643304724e-05
1.986004672e-05
-2.592960188e-05
-2.387764324e-05
1.420516415e-05
-3.37306756e-05
-2.455483828e-05
1.020798516e-05
-3.919997623e-05
-2.606565471e-05
7.046542477e-06
-4.297904246e-05
-2.809532751e-05
4.776230302e-06
-4.582480637e-05
-3.033005139e-05
3.560422227e-06
-4.829807418e-05
-3.260213122e-05
3.222869018e-06
-5.064193372e-05
-3.469739284e-05
3.420204188e-06
-5.275970078e-05
-3.644341202e-05
3.721713314e-06
-5.442960059e-05
-3.805249916e-05
3.911572948e-06
-5.580735073e-05
-4.031269101e-05
4.266506405e-06
-5.784385311e-05
-4.459052506e-05
5.767768202e-06
-6.211153749e-05
-5.297066462e-05
9.913331528e-06
-6.808514185e-05
-6.83009872e-05
1.703165178e-05
-6.142887363e-05
-9.748232763e-05
2.02755969e-05
-2.240940351e-05
-0.000165375415
1.951872267e-05
-3.677180564e-05
-5.185710159e-05
1.716170257e-05
-4.912659974e-05
-6.5541587e-05
2.266929135e-05
-6.144146178e-05
-5.418750239e-05
1.603403974e-05
-6.777310508e-05
-6.212825711e-05
1.093375192e-05
-6.184702645e-05
-7.404597905e-05
-2.014325932e-06
-4.040663485e-05
-8.630027621e-05
-1.992720798e-05
-1.063789319e-05
-8.694921503e-05
-3.133563395e-05
-3.870058214e-06
-6.264114088e-05
-2.04554199e-06
-1.376683956e-05
-6.03439181e-05
1.066491377e-05
-5.303565074e-05
5.497306888e-06
-1.702305437e-05
-3.052165442e-05
2.111437137e-05
-2.804178537e-05
-2.731020826e-05
1.445417457e-05
-3.543175993e-05
-2.690631695e-05
9.744638503e-06
-4.019719315e-05
-2.735447861e-05
6.057824493e-06
-4.311092956e-05
-2.857286531e-05
3.395187946e-06
-4.505038465e-05
-3.039181272e-05
2.005270168e-06
-4.678775179e-05
-3.271262391e-05
1.851612656e-06
-4.885714986e-05
-3.532033839e-05
2.695072943e-06
-5.152390446e-05
-3.784330989e-05
4.067367277e-06
-5.496865402e-05
-4.016815462e-05
5.557990597e-06
-5.982819438e-05
-4.263162762e-05
7.172066106e-06
-6.794495293e-05
-4.626592588e-05
9.781792836e-06
-8.287080425e-05
-5.309753465e-05
1.504014865e-05
-0.0001046392177
-6.70954275e-05
2.055148773e-05
-9.452919821e-05
-0.0001047937594
-2.807053341e-06
3.494117853e-06
-0.0001943678167
-6.900975652e-05
-4.493175369e-06
-5.416475023e-05
1.028735124e-05
-4.517988545e-05
-5.934014801e-05
3.449335118e-05
-6.647489484e-05
-5.121460964e-05
1.832567168e-05
-7.711051637e-05
-5.70388644e-05
5.548402028e-06
-6.88332706e-05
-6.513065687e-05
-1.719072207e-05
-4.164491323e-05
-7.229567293e-05
-4.119174885e-05
-9.043048489e-07
-7.407297468e-05
-5.361643254e-05
1.298908622e-05
-6.059234459e-05
-1.594279516e-05
-1.88047325e-06
-5.346933541e-05
7.993762835e-06
-5.001744251e-05
4.851264573e-06
-1.864334083e-05
-3.407912022e-05
2.220326023e-05
-2.992815791e-05
-3.08601277e-05
1.483733047e-05
-3.710652978e-05
-2.941698343e-05
9.691885773e-06
-4.148070967e-05
-2.860334479e-05
5.626200209e-06
-4.39329448e-05
-2.869545175e-05
2.5782308e-06
-4.540305e-05
-2.972603947e-05
8.077866851e-07
-4.677361228e-05
-3.165747234e-05
3.184887631e-07
-4.871805642e-05
-3.43116572e-05
9.377946712e-07
-5.173772027e-05
-3.707778216e-05
2.254230975e-06
-5.652125045e-05
-3.933563601e-05
3.948216014e-06
-6.489197558e-05
-4.045500296e-05
6.187775117e-06
-8.188236575e-05
-3.940355745e-05
1.011854298e-05
-0.0001159818214
-3.513014316e-05
1.612217689e-05
-0.0001624694267
-2.906017699e-05
8.448796614e-06
-0.000161835074
-2.536664835e-05
-8.005106634e-05
2.511133753e-05
-4.736752271e-05
-0.0003338387114
4.679575284e-05
-4.850672172e-05
-2.735113815e-05
-3.252867146e-05
-2.491425569e-05
4.491392001e-05
-6.484062108e-05
-3.727076932e-05
1.83733606e-05
-8.010007948e-05
-4.049478256e-05
-1.280972884e-06
-7.026594542e-05
-4.481679797e-05
-3.014530914e-05
-4.022691874e-05
-4.651844102e-05
-5.581465925e-05
2.300327161e-06
-5.024963001e-05
-6.635025248e-05
2.061356023e-05
-4.806804417e-05
-3.083848225e-05
7.266260689e-06
-3.959455843e-05
-5.291847551e-07
-4.160977423e-05
3.486145962e-06
-2.001586134e-05
-3.728591036e-05
2.322481589e-05
-3.167474425e-05
-3.454983295e-05
1.535086581e-05
-3.874751653e-05
-3.230825152e-05
9.966521141e-06
-4.28516471e-05
-3.019492978e-05
5.698436668e-06
-4.501001693e-05
-2.890911067e-05
2.37493686e-06
-4.617407749e-05
-2.87620663e-05
2.029963819e-07
-4.728445226e-05
-2.980481858e-05
-7.397276892e-07
-4.904221819e-05
-3.186590871e-05
-6.863390906e-07
-5.190854596e-05
-3.418481211e-05
-2.661167278e-08
-5.64522566e-05
-3.592695624e-05
1.132748687e-06
-6.351836197e-05
-3.618507523e-05
2.791162699e-06
-7.433977224e-05
-3.39855285e-05
5.395928624e-06
-8.837768719e-05
-2.801141255e-05
6.910506106e-06
-9.514664475e-05
-1.548762413e-05
-6.813440361e-06
-6.344365087e-05
7.799074476e-06
-6.488076547e-05
-1.24993233e-05
3.607493286e-05
-0.0001344043603
-2.482085814e-06
-2.841756865e-05
-3.010582369e-05
-3.702421391e-05
-1.734076566e-05
2.697575204e-05
-5.943496012e-05
-3.028503246e-05
1.543106429e-05
-7.027029074e-05
-2.876522406e-05
-8.893931919e-07
-6.195624304e-05
-2.47710871e-05
-2.835662581e-05
-3.797868798e-05
-1.582906793e-05
-5.466547691e-05
-7.288219539e-06
-1.677428492e-05
-6.416601712e-05
7.128151473e-06
-3.306419856e-05
-2.94216914e-05
1.661331674e-07
-2.906702991e-05
-3.567716135e-06
-3.443835916e-05
-3.946754223e-07
-2.145562171e-05
-3.997506533e-05
2.414663481e-05
-3.358131204e-05
-3.802524227e-05
1.560304607e-05
-4.052802447e-05
-3.545810631e-05
1.00986691e-05
-4.433486034e-05
-3.232037277e-05
5.934561616e-06
-4.625344017e-05
-2.962597253e-05
2.637859115e-06
-4.723034489e-05
-2.801728298e-05
2.345254051e-07
-4.807410531e-05
-2.779895222e-05
-1.159989838e-06
-4.930615519e-05
-2.890048245e-05
-1.73195225e-06
-5.107111092e-05
-3.065813622e-05
-1.761477002e-06
-5.320978183e-05
-3.230472385e-05
-1.484951615e-06
-5.54065347e-05
-3.302764174e-05
-9.639069677e-07
-5.737394809e-05
-3.202222995e-05
-6.500680103e-10
-5.95576037e-05
-2.838835098e-05
2.555535016e-06
-6.094062639e-05
-2.043414038e-05
6.327172139e-06
-5.267852579e-05
-6.839499668e-06
6.382355881e-06
-2.810197209e-05
1.327054033e-05
-1.759392882e-06
-3.321530777e-05
-2.32062107e-05
-9.173103376e-08
-3.993136423e-05
-2.52609325e-05
1.464261802e-05
-5.034339294e-05
-3.292682633e-05
1.306005454e-05
-5.584586115e-05
-3.205818354e-05
8.800133899e-06
-5.251053969e-05
-2.468616407e-05
-3.417563361e-06
-3.865312951e-05
-1.037616574e-05
-1.930962672e-05
-2.569444745e-05
-3.141308694e-06
-2.659260836e-05
-2.081229694e-05
-2.602570709e-05
-1.19227792e-05
-1.767874106e-05
-2.718743443e-05
-5.015923767e-06
-3.205461793e-05
-6.180082828e-06
-2.318229682e-05
-4.148275431e-05
2.469153892e-05
-3.571543552e-05
-4.04558248e-05
1.496533901e-05
-4.236636285e-05
-3.819867942e-05
9.393228242e-06
-4.56890219e-05
-3.470053695e-05
5.704676778e-06
-4.726230738e-05
-3.097258465e-05
2.921840222e-06
-4.813096808e-05
-2.782702382e-05
6.803242578e-07
-4.893534677e-05
-2.59584646e-05
-1.034398823e-06
-5.004384409e-05
-2.556526482e-05
-2.225492085e-06
-5.15400008e-05
-2.61834775e-05
-2.978056524e-06
-5.33041119e-05
-2.714096795e-05
-3.400218091e-06
-5.513842786e-05
-2.765142e-05
-3.54351797e-06
-5.673561713e-05
-2.723925054e-05
-3.188071498e-06
-5.757440703e-05
-2.566973384e-05
-1.881887462e-06
-5.569019897e-05
-2.293955835e-05
6.20716457e-07
-4.722542825e-05
-1.950814776e-05
4.204925874e-06
-3.117929203e-05
-1.293013989e-05
1.015705828e-05
-3.353853274e-05
-2.584954862e-05
5.007178833e-06
-4.056850252e-05
-2.892394858e-05
1.069855112e-05
-5.028158438e-05
-3.462843952e-05
1.141981508e-05
-5.567993557e-05
-3.729458679e-05
1.063830629e-05
-5.228063571e-05
-3.534616486e-05
7.262254042e-06
-3.939575403e-05
-2.610779296e-05
2.846409605e-06
-2.667196698e-05
-1.48692823e-05
-9.976172289e-07
-2.250760549e-05
-2.507816055e-05
-5.114701212e-06
-1.904509966e-05
-2.482927844e-05
-5.823914286e-06
-2.822786865e-05
-8.534706767e-06
-2.503019215e-05
-4.093834422e-05
2.448704791e-05
-3.772550878e-05
-4.09460023e-05
1.318680132e-05
-4.38586685e-05
-3.960583167e-05
7.541686558e-06
-4.646363229e-05
-3.660377314e-05
4.509648785e-06
-4.747828349e-05
-3.263605993e-05
2.679619858e-06
-4.817439373e-05
-2.833609596e-05
1.20664238e-06
-4.907620799e-05
-2.465009516e-05
-4.052578517e-07
-5.022786894e-05
-2.231197334e-05
-2.100665608e-06
-5.143887305e-05
-2.13230277e-05
-3.648983492e-06
-5.231652276e-05
-2.141927597e-05
-4.84418649e-06
-5.249492535e-05
-2.172020624e-05
-5.753509984e-06
-5.165882525e-05
-2.173050325e-05
-6.345818794e-06
-4.973186646e-05
-2.114639073e-05
-6.451038295e-06
-4.686089819e-05
-1.997171674e-05
-5.838761609e-06
-4.354099125e-05
-1.852255585e-05
-4.304590495e-06
-3.835948825e-05
-1.651397271e-05
-1.595973154e-06
-4.008208687e-05
-2.404330078e-05
-8.040666781e-08
-4.473831696e-05
-2.86016506e-05
4.337627024e-06
-5.029229655e-05
-3.474525363e-05
5.673856675e-06
-5.128618073e-05
-3.90773927e-05
2.778328487e-06
-4.587517262e-05
-3.914779485e-05
-1.609428643e-06
-3.708367686e-05
-3.199297477e-05
-2.907889735e-06
-3.010421738e-05
-2.009232643e-05
-1.759129064e-06
-2.675121612e-05
-2.2418786e-05
-6.015768226e-06
-2.241721584e-05
-2.021042481e-05
-8.956519566e-06
-2.274355034e-05
-1.072246037e-05
-2.659448739e-05
-3.790677017e-05
2.356392326e-05
-3.912129543e-05
-3.911730013e-05
1.069913436e-05
-4.451862458e-05
-3.907604121e-05
4.868596388e-06
-4.614278348e-05
-3.721939322e-05
2.240864074e-06
-4.627277794e-05
-3.390506366e-05
1.400083775e-06
-4.655832392e-05
-2.932011528e-05
1.270592802e-06
-4.768612681e-05
-2.414525723e-05
6.238454379e-07
-4.934239422e-05
-1.948651867e-05
-1.168561084e-06
-5.097257034e-05
-1.615019485e-05
-3.542382306e-06
-5.190295699e-05
-1.493864128e-05
-5.550366412e-06
-5.202643046e-05
-1.446121456e-05
-7.135965046e-06
-5.120032087e-05
-1.425460239e-05
-8.302585653e-06
-4.933351769e-05
-1.406124237e-05
-8.952347612e-06
-4.647320176e-05
-1.394977473e-05
-8.88217565e-06
-4.310274618e-05
-1.407696512e-05
-7.815363951e-06
-3.936570961e-05
-1.481257201e-05
-5.437188928e-06
-4.215596738e-05
-1.840734031e-05
-2.844030451e-06
-4.767670031e-05
-2.304389109e-05
-3.545393344e-08
-5.209688368e-05
-2.882198071e-05
-1.502286441e-06
-4.977760483e-05
-3.345605832e-05
-7.940985316e-06
-4.032997476e-05
-3.451403632e-05
-1.40830109e-05
-2.95190901e-05
-2.899860329e-05
-1.380794315e-05
-2.55512839e-05
-1.855043963e-05
-5.513134731e-06
-2.545062745e-05
-1.627859132e-05
-6.244670514e-06
-2.322736466e-05
-1.253639166e-05
-9.901213729e-06
-1.200876315e-05
-1.301884667e-05
-2.763989058e-05
-3.25689342e-05
2.230285045e-05
-3.973743753e-05
-3.517788072e-05
8.158921505e-06
-4.421159075e-05
-3.645695606e-05
1.855859501e-06
-4.459727468e-05
-3.596249723e-05
-8.704331071e-07
-4.345481937e-05
-3.399142803e-05
-1.055352692e-06
-4.281534526e-05
-3.029907758e-05
3.401365133e-07
-4.388932881e-05
-2.480768645e-05
1.736905108e-06
-4.637221584e-05
-1.782843844e-05
8.250692501e-07
-4.924513745e-05
-1.090211847e-05
-2.375187788e-06
-5.064162011e-05
-8.22985308e-06
-5.312656301e-06
-5.08124413e-05
-6.597260798e-06
-7.693757049e-06
-4.977060486e-05
-5.804339027e-06
-9.492877023e-06
-4.766675085e-05
-5.446576149e-06
-1.071927938e-05
-4.504607929e-05
-5.35273091e-06
-1.121830427e-05
-4.296405507e-05
-5.492392315e-06
-1.06669561e-05
-4.293991372e-05
-6.065485556e-06
-8.771422539e-06
-4.696672193e-05
-8.173259478e-06
-6.207479204e-06
-5.295076619e-05
-1.133288682e-05
-5.727499928e-06
-5.50121545e-05
-1.545569377e-05
-1.130609813e-05
-4.841162422e-05
-1.874684941e-05
-2.131177202e-05
-3.416451313e-05
-1.957202284e-05
-2.919194965e-05
-1.782710159e-05
-1.608811467e-05
-2.925136707e-05
-1.512163569e-05
-6.893926449e-06
-1.436584532e-05
-2.223517561e-05
-9.624527492e-07
-8.206560181e-06
-2.51268919e-05
1.874997024e-06
-1.152347133e-05
2.74874307e-06
-1.906815272e-05
-2.817814482e-05
-2.546124364e-05
2.107108475e-05
-3.970901755e-05
-2.96502595e-05
6.00386402e-06
-4.333124342e-05
-3.192675863e-05
-9.073853548e-07
-4.266062122e-05
-3.270585994e-05
-3.926716716e-06
-4.019288198e-05
-3.256863869e-05
-3.890061473e-06
-3.78813892e-05
-3.134142243e-05
-1.268803623e-06
-3.742758231e-05
-2.781864629e-05
2.557321329e-06
-4.032010745e-05
-1.899370425e-05
4.057729205e-06
-4.558136433e-05
-5.821204156e-06
1.799917323e-07
-4.817790923e-05
-1.872223729e-06
-3.761747339e-06
-4.915850905e-05
1.530545705e-06
-7.148165765e-06
-4.864166624e-05
3.262694749e-06
-9.585070171e-06
-4.71255054e-05
4.292410382e-06
-1.125648783e-05
-4.523702497e-05
4.815472081e-06
-1.205809252e-05
-4.411196589e-05
5.115755267e-06
-1.173465831e-05
-4.535164521e-05
5.410436017e-06
-1.023778713e-05
-5.011045722e-05
5.560676811e-06
-8.976877628e-06
-5.516363161e-05
5.287478332e-06
-1.156930527e-05
-5.485484423e-05
4.718297926e-06
-2.048538174e-05
-4.591457596e-05
4.73286256e-06
-3.242310489e-05
-3.017670507e-05
5.690490065e-06
-4.100393459e-05
-1.090563738e-05
6.653079254e-06
-4.201613905e-05
-3.261198761e-06
1.175646724e-05
-2.629882006e-05
-1.043134435e-05
1.757707452e-05
-1.137330726e-05
-1.366484884e-05
1.66802106e-05
-1.157543123e-05
1.578533961e-05
-1.51053034e-05
-2.82516657e-05
-1.714583809e-05
1.993677652e-05
-3.928193647e-05
-2.325526091e-05
4.635759595e-06
-4.275984103e-05
-2.60853094e-05
-2.363100016e-06
-4.216108424e-05
-2.797880797e-05
-5.325431129e-06
-3.942127879e-05
-3.033534778e-05
-4.972822061e-06
-3.53344849e-05
-3.352325295e-05
-1.904837039e-06
-3.097285091e-05
-3.501571621e-05
2.835370457e-06
-3.183180171e-05
-2.536659628e-05
7.231544812e-06
-3.992320898e-05
-3.008871819e-06
5.278477799e-06
-4.447616719e-05
1.774479614e-06
9.053374315e-07
-4.663296027e-05
7.273670449e-06
-3.587576378e-06
-4.678531924e-05
1.029264301e-05
-6.879137822e-06
-4.548559232e-05
1.232633733e-05
-9.335466017e-06
-4.328674842e-05
1.35352439e-05
-1.092065171e-05
-4.092775145e-05
1.433920144e-05
-1.15846885e-05
-3.944248343e-05
1.521786972e-05
-1.129517268e-05
-3.987667088e-05
1.65586169e-05
-1.056649113e-05
-4.195878803e-05
1.871154152e-05
-1.13449994e-05
-4.263352043e-05
2.19255117e-05
-1.653586959e-05
-3.782170314e-05
2.603837952e-05
-2.612100055e-05
-2.733302711e-05
2.979818089e-05
-3.460021195e-05
-1.643711451e-05
3.07295342e-05
-3.497628927e-05
-1.37373658e-05
3.112746081e-05
-2.207460053e-05
-1.710811693e-05
3.293716602e-05
-1.199301534e-05
-1.759886033e-05
2.959313775e-05
-1.242557353e-05
2.708872351e-05
-1.450164948e-05
-2.795397189e-05
-8.042411571e-06
1.885099463e-05
-3.899257739e-05
-1.701976549e-05
4.803524477e-06
-4.386929326e-05
-1.986516558e-05
-1.343068663e-06
-4.55227679e-05
-2.301281544e-05
-3.31224359e-06
-4.465391978e-05
-2.859755288e-05
-2.606488973e-06
-3.998806799e-05
-3.685187893e-05
-1.337221188e-06
-3.145906713e-05
-4.30010153e-05
-5.43882637e-07
-2.641966327e-05
-3.398060781e-05
3.57419436e-06
-3.358393871e-05
-6.471193741e-06
1.062586608e-05
-4.019842053e-05
2.749250948e-07
8.112988273e-06
-4.376390045e-05
8.655503853e-06
2.182254168e-06
-4.49352896e-05
1.34595961e-05
-1.997293439e-06
-4.426355923e-05
1.693046864e-05
-5.277912441e-06
-4.236749001e-05
1.917227948e-05
-7.53545232e-06
-3.994126686e-05
2.07434749e-05
-8.833120248e-06
-3.770289037e-05
2.212075667e-05
-9.144149928e-06
-3.640309718e-05
2.385670252e-05
-8.601019262e-06
-3.625818165e-05
2.659286624e-05
-8.029618531e-06
-3.587232692e-05
3.090702942e-05
-9.370949464e-06
-3.238939572e-05
3.676678688e-05
-1.421503901e-05
-2.508269162e-05
4.27092979e-05
-2.022155004e-05
-1.885989174e-05
4.549871557e-05
-2.099564738e-05
-1.909074246e-05
4.410625511e-05
-1.275145731e-05
-2.116410311e-05
4.371041737e-05
-8.703164984e-06
-1.9907261e-05
3.937524966e-05
-1.104193449e-05
3.622936741e-05
-1.338395115e-05
-2.497943482e-05
-2.84890697e-06
1.978635521e-05
-3.820795152e-05
-1.195704625e-05
8.166185238e-06
-4.746789261e-05
-1.416181096e-05
3.556909999e-06
-5.398167971e-05
-1.89833933e-05
2.484593475e-06
-5.619709222e-05
-2.710209822e-05
7.200725842e-07
-5.123425565e-05
-3.691156454e-05
-4.903165401e-06
-3.867116782e-05
-4.382282539e-05
-1.174146043e-05
-2.422116901e-05
-3.77855996e-05
-1.0645431e-05
-2.472292821e-05
-1.799862864e-05
1.202844678e-05
-3.442202519e-05
-7.391867888e-06
1.736483684e-05
-3.870861483e-05
3.72437236e-06
9.216335731e-06
-4.123180779e-05
1.192697203e-05
4.054097913e-06
-4.142688631e-05
1.747029672e-05
-3.467965805e-07
-4.011789005e-05
2.127685565e-05
-3.415927272e-06
-3.788061678e-05
2.398918704e-05
-5.485621607e-06
-3.52935578e-05
2.610325884e-05
-6.572447439e-06
-3.289425148e-05
2.816728668e-05
-6.712990515e-06
-3.100599779e-05
3.080726389e-05
-6.105919776e-06
-2.928151101e-05
3.468121579e-05
-5.502050116e-06
-2.648174304e-05
4.018017733e-05
-6.216567758e-06
-2.220701975e-05
4.676881035e-05
-8.337595164e-06
-2.003749133e-05
5.160498362e-05
-8.279028637e-06
-2.227748685e-05
5.050712942e-05
-4.163927079e-06
-2.412115798e-05
5.011151971e-05
-4.56023708e-06
-2.224653482e-05
4.59855171e-05
-8.487425108e-06
4.274706795e-05
-1.120468265e-05
-1.868806245e-05
-6.09925424e-06
2.193883732e-05
-3.754455102e-05
-7.945027565e-06
1.48448699e-05
-5.485894692e-05
-7.145542893e-06
1.029846429e-05
-6.827740642e-05
-1.102970021e-05
5.465018892e-06
-7.234805665e-05
-1.8404084e-05
-4.627196625e-06
-6.397490453e-05
-2.529302208e-05
-1.999164676e-05
-4.395388254e-05
-2.946660184e-05
-3.437732e-05
-1.347840762e-05
-3.019566046e-05
-3.806573095e-05
-4.626196098e-06
-2.251258373e-05
-4.338896559e-06
-2.074047063e-05
-1.364384702e-05
2.236531731e-05
-2.903372626e-05
-4.277898339e-06
1.629427409e-05
-3.46991075e-05
7.174867704e-06
1.041592553e-05
-3.645882855e-05
1.399588199e-05
5.232271936e-06
-3.618455302e-05
1.963338096e-05
1.367051832e-06
-3.456529563e-05
2.382607165e-05
-1.458543511e-06
-3.219556861e-05
2.699311162e-05
-3.262197067e-06
-2.949887737e-05
2.95936038e-05
-4.125794992e-06
-2.679373193e-05
3.217500933e-05
-4.075793079e-06
-2.418577513e-05
3.528836498e-05
-3.218062563e-06
-2.148665871e-05
3.94731837e-05
-1.99506674e-06
-1.874874483e-05
4.502184436e-05
-9.938122849e-07
-1.877681511e-05
5.082110035e-05
8.092316998e-07
-2.270397867e-05
5.179480393e-05
2.636949164e-06
-2.504262225e-05
5.257991484e-05
-1.320751885e-07
-2.348963886e-05
4.935534401e-05
-4.924902204e-06
4.633654047e-05
-8.015956892e-06
-2.30583992e-05
-9.041249658e-06
2.600086049e-05
-4.695380924e-05
-6.582764357e-06
2.253358628e-05
-6.765692167e-05
-3.568352723e-06
1.712632131e-05
-7.874207279e-05
-4.143411225e-06
4.19921259e-06
-7.847156995e-05
-4.635966216e-06
-1.403836734e-05
-6.803955643e-05
4.937541856e-07
-3.621868636e-05
-4.744262722e-05
3.46890667e-06
-5.353243102e-05
-1.572877982e-05
-4.574153839e-06
-5.733556598e-05
5.285910869e-06
-1.77243767e-05
-2.580338065e-05
-2.593009408e-06
-1.855015452e-05
1.278447695e-05
-1.545066146e-05
-1.297071232e-05
2.154943277e-05
-2.374657638e-05
-3.786403837e-06
1.9255876e-05
-2.804401971e-05
6.018522182e-06
1.227322663e-05
-2.983370564e-05
1.444037522e-05
6.980869406e-06
-2.946883576e-05
2.026963701e-05
3.189526234e-06
-2.798057049e-05
2.494968355e-05
5.529465921e-07
-2.578970469e-05
2.835737554e-05
-9.569854994e-07
-2.325878056e-05
3.112026713e-05
-1.478610091e-06
-2.060080426e-05
3.36419652e-05
-1.014030434e-06
-1.791285292e-05
3.629608508e-05
4.867226982e-07
-1.551426926e-05
3.97485921e-05
2.87232386e-06
-1.572898853e-05
4.483413469e-05
6.19946933e-06
-2.056902194e-05
4.899099061e-05
7.641793969e-06
-2.394655889e-05
5.119291196e-05
4.762668739e-06
-2.31587525e-05
4.902405749e-05
-4.582059378e-07
4.642443549e-05
-3.825343785e-06
-1.272649844e-05
-1.590566876e-05
1.959142692e-05
-2.181494169e-05
-1.523381347e-05
1.773997361e-05
-2.931326334e-05
-1.291523183e-05
1.684562932e-05
-3.738158938e-05
-1.109660823e-05
1.50218656e-05
-4.533681028e-05
-6.966772446e-06
1.0286241e-05
-4.851295499e-05
3.778969573e-06
-1.090238013e-07
-4.210834227e-05
1.229544544e-05
-1.52311679e-05
-2.714142405e-05
4.40487663e-06
-2.394610685e-05
-1.434334204e-05
-1.765382268e-05
-1.286897505e-05
-1.293383169e-05
-2.503190822e-05
5.0716723e-06
-1.278912904e-05
-2.38402211e-05
1.072401042e-05
-1.384005642e-05
-1.944587612e-05
1.670937377e-05
-1.789732786e-05
-9.168540131e-06
1.924308503e-05
-2.13520236e-05
4.015278229e-06
1.387833421e-05
-2.290989814e-05
1.349239549e-05
8.333477541e-06
-2.266505039e-05
1.995684673e-05
4.746206041e-06
-2.161104275e-05
2.470769773e-05
2.593783355e-06
-1.997885159e-05
2.781834265e-05
1.667787334e-06
-1.801047496e-05
2.985602517e-05
1.815603922e-06
-1.568545325e-05
3.091617761e-05
3.052956473e-06
-1.303578116e-05
3.178530698e-05
5.31175069e-06
-1.219951881e-05
3.483817538e-05
9.157937124e-06
-1.708781075e-05
4.254847159e-05
1.132918432e-05
-2.132514769e-05
4.59659618e-05
9.462808469e-06
-2.097595427e-05
4.406139793e-05
4.612129148e-06
4.194652738e-05
1.399370733e-06
-1.21791643e-05
-2.087474574e-05
1.714876858e-05
-2.358240758e-05
-2.077644308e-05
1.694637692e-05
-3.389105752e-05
-1.957623632e-05
1.697011885e-05
-4.239447621e-05
-1.843104894e-05
1.583825994e-05
-4.692211562e-05
-1.664029336e-05
1.420146304e-05
-4.349927622e-05
-1.229116888e-05
1.264748171e-05
-3.300800772e-05
-7.283515799e-06
9.087785259e-06
-2.188818701e-05
-1.115205217e-05
4.437079555e-06
-1.596523111e-05
-2.315296828e-05
-4.240036556e-07
-1.196785227e-05
-2.847375324e-05
-5.558967595e-07
-6.288349764e-06
-2.938196048e-05
-1.383176799e-07
-2.559104252e-06
-2.827070704e-05
5.094837146e-06
-3.309654211e-06
-2.303812828e-05
1.461921056e-05
-8.915963071e-06
-1.136276569e-05
2.098325437e-05
-1.303317914e-05
1.076296851e-06
1.653206109e-05
-1.582635319e-05
1.27814575e-05
9.967187763e-06
-1.714873019e-05
1.94008311e-05
6.62778155e-06
-1.731779679e-05
2.26747334e-05
5.311164404e-06
-1.675314159e-05
2.387481815e-05
5.415029212e-06
-1.508984062e-05
2.271604398e-05
6.535333925e-06
-1.159729095e-05
1.995451014e-05
8.33679808e-06
-8.813752073e-06
2.022706507e-05
1.182619556e-05
-1.323689641e-05
3.316979415e-05
1.380054299e-05
-1.76834213e-05
3.788231759e-05
1.252901466e-05
-1.636073524e-05
3.493526877e-05
7.802393978e-06
3.24065399e-05
6.635069674e-06
-6.290077939e-06
-2.580678246e-05
1.122261413e-05
-1.739819496e-05
-2.22225606e-05
1.25547166e-05
-2.927844539e-05
-2.038350824e-05
1.268797882e-05
-3.850680445e-05
-1.841231538e-05
9.210042408e-06
-4.35860161e-05
-1.643068346e-05
4.869957841e-06
-4.332352491e-05
-1.381495132e-05
1.261567007e-06
-3.677117394e-05
-1.230515823e-05
-1.530517578e-06
-2.810975587e-05
-1.463663479e-05
-5.176747485e-06
-2.124243691e-05
-1.963406363e-05
-1.038626569e-05
-1.375273559e-05
-2.262985352e-05
-1.333378472e-05
-4.618842554e-06
-2.485496796e-05
-1.366122353e-05
3.685862985e-06
-2.678992163e-05
-9.78599103e-06
7.530071167e-06
-2.678269626e-05
-1.002932306e-07
6.876915052e-06
-2.177501371e-05
1.106461362e-05
8.21870949e-07
-1.252083724e-05
1.965126622e-05
-6.782332626e-06
2.434074805e-06
1.795056344e-05
-1.237487466e-05
1.369266772e-05
1.129960428e-05
-1.568748135e-05
1.701867629e-05
8.967516027e-06
-1.678495586e-05
1.64296793e-05
8.541451238e-06
-1.544783906e-05
1.261558572e-05
8.762193032e-06
-1.12763864e-05
7.116484071e-06
8.665452589e-06
-7.768333643e-06
6.651316149e-06
1.006660928e-05
-1.146804594e-05
2.252712182e-05
1.434136125e-05
-1.576115469e-05
3.04533883e-05