/*--------------------------------*- C++ -*----------------------------------*\
  =========                 |
  \\      /  F ield         | OpenFOAM: The Open Source CFD Toolbox
   \\    /   O peration     | Website:  https://openfoam.org
    \\  /    A nd           | Version:  8
     \\/     M anipulation  |
\*---------------------------------------------------------------------------*/
FoamFile
{
    version     2.0;
    format      ascii;
    class       Cloud<basicReactingMultiphaseParcel>;
    location    "1.1/lagrangian/reactingCloud1";
    object      positions;
}
// * * * * * * * * * * * * * * * * * * * * * * * * * * * * * * * * * * * * * //

123
(
(0.1142017299 0.4328452955 0.2905198264 0.1624331483) 1070 3142 2
(0.00317696025 0.3517136358 0.5125684097 0.1325409942) 1071 3150 2
(0.0654198249 0.004638394804 0.0747539957 0.8551877846) 3068 9007 1
(0.009581330524 0.2770016284 0.6536402475 0.05977679362) 8090 23728 1
(0.1018636312 0.1784296363 0.5790184471 0.1406882854) 1167 3434 2
(0.04361128781 0.4457186772 0.3969674998 0.1137025352) 2185 6415 2
(0.2018210308 0.3275499819 0.3880211147 0.08260787257) 1484 4375 2
(0.06782981113 0.04864046846 0.5518393491 0.3316903713) 12593 36892 1
(0.3506899028 0.1769750557 0.3920355841 0.08029945737) 5187 15220 1
(0.4506902658 0.2778406447 0.234908798 0.03656029148) 5364 12898 2
(0.4350203219 0.2808428891 0.1861015262 0.09803526281) 1434 4228 1
(0.02175136804 0.7224172986 0.2339784512 0.02185288218) 15432 45122 1
(0.1536894817 0.03293794564 0.4821734897 0.331199083) 15405 45124 1
(0.4611284546 0.01197353031 0.5143866692 0.01251134585) 15406 45127 2
(0.06847858119 0.2339433778 0.01479685943 0.6827811816) 15407 45132 2
(0.1789944878 0.2347145675 0.0003218442041 0.5859691005) 16310 47774 1
(0.2713262417 0.378580069 0.1783505939 0.1717430954) 7976 20576 1
(0.01365612772 0.3455095755 0.600421542 0.04041275473) 7946 23216 2
(0.365021509 0.2743061572 0.1791861926 0.1814861412) 16338 47861 1
(0.08605232462 0.6067898303 0.05650507861 0.2506527664) 17133 50188 2
(0.0409172367 0.5964627038 0.1222933175 0.240326742) 7977 23393 2
(0.2384790667 0.4578670481 0.2488792393 0.05477464588) 10815 31711 1
(0.6853857822 0.1475232249 0.09894816825 0.06814282462) 10212 29954 1
(0.3373879437 0.05874621994 0.5780226227 0.02584321366) 17162 50188 1
(0.09390629049 0.2735120068 0.6318573335 0.0007243691982) 4087 9123 2
(0.1158839322 0.3619973682 0.4287532366 0.09336546303) 18197 53224 2
(0.02209331558 0.5625970309 0.05952472688 0.3557849267) 7887 23126 1
(0.0174732888 0.02303019388 0.6400765981 0.3194199192) 10820 31723 1
(0.08385739649 0.3684759057 0.1851147243 0.3625519736) 11797 34563 1
(0.1917889525 0.3842938466 0.2023688829 0.221548318) 12831 37598 2
(0.1398690527 0.4935978503 0.07849874194 0.2880343551) 12685 37163 2
(0.01812245647 0.4398394125 0.4415723243 0.1004658067) 12686 37163 2
(0.1247845613 0.5534596982 0.1633421305 0.1584136099) 11797 31811 1
(0.3060407037 0.315481657 0.2428641273 0.135613512) 13752 37613 2
(0.02742997254 0.3373420781 0.4064014891 0.2288264603) 19107 55892 1
(0.2223512483 0.6998972135 0.03451997494 0.04323156317) 10848 31806 2
(0.2763832721 0.0007959330032 0.1461359956 0.5766847993) 12656 37078 2
(0.2741999162 0.156397495 0.2058191007 0.363583488) 16491 48315 2
(0.000382115169 0.4083687815 0.09085998411 0.5003891192) 12686 37081 1
(0.3999850468 0.1607398321 0.110516937 0.328758184) 11797 34563 2
(0.7376629105 0.1492547815 0.02335832995 0.08972397796) 12714 37164 1
(0.3741616837 0.1356770415 0.4711747806 0.01898649431) 13630 39923 2
(0.1122550475 0.1366367294 0.1398684907 0.6112397325) 12657 37082 2
(0.1319324363 0.3856399176 0.3251905687 0.1572370774) 13630 37251 2
(0.4191018719 0.1316180376 0.3900799521 0.05920013827) 13573 37082 2
(0.3110273044 0.1842593507 0.3155299693 0.1891833756) 8848 23134 2
(0.520237437 0.2536680637 0.1258232948 0.1002712045) 11797 34558 2
(0.5340540403 0.2340551045 0.07119787134 0.1606929839) 12714 37164 2
(0.4768792483 0.05030806952 0.3869842794 0.08582840272) 13573 39756 2
(0.09554717034 0.5120721882 0.1380383563 0.2543422852) 56073 170129 1
(0.1558155814 0.4773818097 0.2190231807 0.1477794282) 14482 42339 2
(0.1325389218 0.07607701639 0.7436265998 0.04775746205) 16407 48062 1
(0.02025979568 0.5315761928 0.2354335823 0.2127304292) 14454 42339 2
(0.2246068596 0.4160886657 0.3147786197 0.04452585497) 14454 42339 2
(0.322529941 0.3731856593 0.281587651 0.02269674871) 18141 53143 1
(0.2379392319 0.009450629387 0.6993686351 0.0532415037) 15359 44989 2
(0.4792327534 0.1494773392 0.1608446303 0.2104452771) 14454 42339 1
(0.001561532972 0.4325901517 0.2906284214 0.2752198939) 23744 71001 2
(0.2289278758 0.2675082828 0.3506918437 0.1528719978) 14454 42340 2
(0.08088439272 0.1258016556 0.1263348408 0.6669791109) 56701 171681 1
(0.266502737 0.3530206561 0.03824051496 0.3422360919) 15361 42340 2
(0.5461133611 0.2669583568 0.1678100236 0.01911825848) 15361 42340 1
(0.6879878627 0.2643413915 0.02353480648 0.02413593927) 15361 44911 2
(0.1837162653 0.1771556477 0.3983567091 0.2407713779) 57277 173102 2
(0.4998069873 0.1982463092 0.2213227406 0.08062396282) 19027 55743 2
(0.4039820542 0.126359454 0.01569879478 0.453959697) 17527 48681 2
(0.3483900315 0.1470697022 0.1116643038 0.3928759626) 15361 44911 1
(0.3452219856 0.1644644672 0.000555596465 0.4897579508) 32988 102434 2
(0.06326883881 0.06556793786 0.6972869696 0.1738762537) 58259 73889 1
(0.2210150994 0.1072074757 0.2122042568 0.4595731681) 19913 58341 2
(0.8567396906 0.02033744782 0.06510026835 0.05782259321) 19913 58340 2
(0.7082978435 0.07986440387 0.1914023727 0.02043537989) 58264 175552 1
(0.5520814244 0.363578784 0.06391977535 0.02042001624) 19930 58391 2
(0.270254117 0.1983467834 0.2691377032 0.2622613964) 60639 181317 2
(0.03342452469 0.3936678858 0.1270447352 0.4458628543) 19913 58342 1
(0.07076497602 0.2635848876 0.6619097975 0.003740338924) 64059 189482 1
(0.1579857477 0.7518882907 0.03989166098 0.05023430057) 16236 47558 1
(0.1628943691 0.3735041071 0.003930228131 0.4596712957) 66296 195315 2
(0.7745830971 0.09606133323 0.07684015427 0.05251541542) 9779 28675 2
(0.00624349356 0.8593023936 0.1013836332 0.03307047967) 59141 177677 1
(0.08712663883 0.1022763909 0.4752752997 0.3353216705) 3989 11699 1
(0.2059330111 0.1537581729 0.4908301643 0.1494786517) 15331 44905 1
(0.2250173444 0.05356541893 0.4356127489 0.2858044878) 35716 111682 2
(0.4056249797 0.1812000866 0.06088775258 0.3522871811) 20830 60971 3
(0.3461598278 0.09383431267 0.3157575525 0.244248307) 16236 47555 1
(0.2506955198 0.3047799368 0.06784312731 0.3766814161) 66617 196026 1
(0.3857377819 0.3869251074 0.09099695402 0.1363401567) 66958 196760 1
(0.00487129195 0.02929287106 0.6415226929 0.3243131441) 5933 14557 1
(0.3523025002 0.1255995155 0.05425944376 0.4678385406) 16236 47555 2
(0.2478484292 0.2213769314 0.1975876857 0.3331869536) 36619 114581 2
(0.1145065221 0.1087500344 0.3048456436 0.4718977999) 16236 47555 2
(0.05121637372 0.5586953131 0.03989530625 0.3501930069) 17141 50208 1
(0.7307249283 0.1484389287 0.1151012827 0.005734860401) 18055 52893 1
(0.06302212004 0.6181287811 0.2494290109 0.06942008798) 17141 50208 1
(0.08860875086 0.5467735356 0.3544123261 0.01020538745) 4339 12645 1
(0.5594256818 0.08134855344 0.2257123939 0.1335133708) 38313 119529 1
(0.5701537621 0.2590733673 0.1268121973 0.04396067328) 18055 52893 1
(0.2663579155 0.6634409002 0.06718309053 0.003018093798) 59774 179214 2
(0.1452247117 0.5647563723 0.1884282246 0.1015906913) 17140 50208 2
(0.4927111253 0.09734725309 0.3218108678 0.08813075378) 59844 179386 2
(0.3036070635 0.09123676579 0.3986196656 0.2065365051) 7831 203495 2
(0.7483153658 0.08196234968 0.1203788054 0.04934347918) 59850 179401 1
(0.3696181168 0.3304353991 0.2214657181 0.078480766) 59851 179401 1
(0.2694820421 0.4472687574 0.1637796027 0.1194695979) 18970 55576 1
(0.1354775177 0.6756766466 0.01644344222 0.1724023935) 18055 52893 1
(0.2356880407 0.2619498955 0.2116086535 0.2907534103) 59851 179404 1
(0.4232854006 0.3518436061 0.1014612888 0.1234097045) 18055 206270 1
(0.2779382443 0.153450729 0.0668993831 0.5017116436) 59857 179416 1
(0.3164406998 0.1302587304 0.2187784586 0.3345221113) 40126 124848 2
(0.3894688649 0.3399703429 0.1681558646 0.1024049277) 42945 133093 1
(0.2107879725 0.3401220274 0.07124198932 0.3778480109) 17140 50208 2
(0.3430059244 0.5203174176 0.0935851967 0.04309146134) 54541 202954 1
(0.3569288845 0.3758673696 0.1943024839 0.07290126205) 9751 28591 1
(0.09862392441 0.3368601573 0.1144763538 0.4500395645) 59265 175880 2
(0.09016772588 0.3748353356 0.3806581612 0.1543387773) 39214 122173 2
(0.6020838226 0.08858173172 0.01207053279 0.2972639129) 10703 31376 1
(0.07395829072 0.2561848166 0.0002050363942 0.6696518563) 59273 177987 2
(0.3220250955 0.2559073739 0.2483666962 0.1737008344) 10704 31383 1
(0.2975690551 0.1332466777 0.4097331503 0.1594511169) 22642 67059 1
(0.09293350642 0.133682745 0.6659746073 0.1074091413) 17140 206240 2
(0.5236348504 0.03036297751 0.1553218597 0.2906803124) 11651 34132 2
(0.006755378767 0.1325722503 0.232318164 0.628354207) 11652 206037 1
(0.03482028308 0.3137756539 0.1468141705 0.5045898925) 44679 208132 2
)


// ************************************************************************* //
