/*--------------------------------*- C++ -*----------------------------------*\
  =========                 |
  \\      /  F ield         | OpenFOAM: The Open Source CFD Toolbox
   \\    /   O peration     | Website:  https://openfoam.org
    \\  /    A nd           | Version:  8
     \\/     M anipulation  |
\*---------------------------------------------------------------------------*/
FoamFile
{
    version     2.0;
    format      ascii;
    class       vectorField;
    location    "1.1/lagrangian/reactingCloud1";
    object      U;
}
// * * * * * * * * * * * * * * * * * * * * * * * * * * * * * * * * * * * * * //


123
(
(0.04994914432 0.01663566047 -2.046482094)
(0.09875506178 0.04439040047 -2.063486701)
(0.1032539219 0.1094143419 -2.023184633)
(-0.2146077145 0.2319997809 -1.998086255)
(0.1051759783 0.1794880494 -1.957057594)
(0.1196338042 0.2004414396 -1.976759262)
(-0.6566677383 0.6937095735 -3.27219445)
(0.0248464653 -0.121133167 -1.639090763)
(-1.102118101 0.4107607496 -3.134038358)
(-0.575257726 0.7157022503 -3.346475046)
(-0.02436192527 0.6362880914 -3.455507247)
(-0.5395136683 0.02466673026 -1.579327028)
(-0.4874586943 0.01601569552 -1.575736762)
(-0.4310669895 0.01036698344 -1.530189454)
(-0.410206046 0.01106054058 -1.503717057)
(-0.4280429926 0.003544867887 -1.522063902)
(0.1042647944 0.2426715343 -1.85708455)
(0.1107938292 0.1688096652 -1.820522547)
(-0.2620103035 0.07148019419 -1.50282116)
(-0.3276084725 -0.1294119361 -1.434117881)
(0.149738751 0.2532636959 -1.912684919)
(0.04470234898 0.2077172591 -1.713757927)
(-0.06215618227 0.804251129 -3.170078176)
(-0.2972419589 -0.1157002339 -1.367624902)
(-1.004733639 0.2261652745 -3.042357039)
(0.02395992427 0.08833183068 -1.418960409)
(0.07339958131 0.09962839107 -1.841475434)
(0.1731962307 0.2715284181 -1.802171327)
(0.1590120271 0.3005457924 -1.727689939)
(-0.3668141623 0.5764524819 -3.201781547)
(0.1972220345 0.2230939576 -1.677254467)
(0.2018413457 0.2229616138 -1.674325848)
(0.1603729096 0.2880333223 -1.703642797)
(-0.1280239446 0.2722671789 -1.765390015)
(-0.3127077349 0.09190706109 -1.307643798)
(0.1506831971 0.294694706 -1.807802384)
(0.1938188835 0.2086409264 -1.677974728)
(-0.5273065406 0.6778943676 -3.034010597)
(0.2120972664 0.2239239555 -1.716602321)
(0.1690286899 0.3385056931 -1.752357698)
(0.1707625319 0.31192441 -1.658518726)
(0.1265044722 0.3095860114 -1.653712853)
(0.2174898305 0.2151276965 -1.685340659)
(0.1733496693 0.3442363529 -1.684457341)
(0.2222675169 0.2090452741 -1.667811331)
(0.1401470057 0.1323477824 -1.801748928)
(0.1431148367 0.340065714 -1.754872707)
(0.1567913572 0.337353206 -1.689159183)
(0.231858376 0.1995994278 -1.679961819)
(-0.7792440758 0.6497374242 -2.784350028)
(0.2347286573 0.1842456931 -1.586358306)
(-0.2466483726 0.5326391329 -3.13848273)
(0.240847135 0.1816925364 -1.612630993)
(0.2435508047 0.1773370664 -1.603864731)
(0.06459766356 0.3086117589 -1.312810769)
(0.1594124142 0.1802020153 -1.479290397)
(0.2485236399 0.1730799179 -1.615146417)
(-0.5040646484 0.5642223576 -2.857815287)
(0.2508061199 0.1662297099 -1.59237005)
(0.2530759254 0.1896332416 -0.9695120056)
(0.2504494848 0.1607854059 -1.560670606)
(0.2506805942 0.1576046704 -1.550010082)
(0.2535353585 0.1544811982 -1.571178444)
(-0.05344300191 -0.08545926481 -0.8163450097)
(0.1012340759 0.2721032382 -1.24087372)
(-0.01184223757 1.194118826 -2.167779001)
(0.2531466946 0.1472947144 -1.561588734)
(-0.5868664074 1.094575525 -2.245661206)
(0.1984022203 0.03356387706 -0.7363244789)
(0.1083453336 0.2504368133 -1.194623241)
(0.1330057479 0.2044558793 -1.209433316)
(0.2452671377 -6.476140981e-05 -0.683927101)
(-0.9946011641 0.2431729388 -2.833979535)
(-0.1299012015 0.6086183911 -2.786116147)
(0.136611159 0.20772671 -1.17485873)
(-0.8227827184 0.6408830375 -2.425965107)
(0.2516737589 0.1354581332 -1.540065826)
(-0.6860911135 1.075603613 -2.262270377)
(0.158697457 0.09715071143 -1.790278164)
(0.2970825287 0.04305205351 -0.6384884263)
(0.1174459174 0.02869988687 -1.938423384)
(0.151566994 0.1174636912 -1.518934483)
(-0.804921404 0.996041591 -2.119544099)
(0.1441290137 0.1989168379 -1.133943505)
(0.2540671676 0.125797789 -1.502298797)
(-1.084912238 0.4881756205 -2.15681241)
(-0.5575020936 1.011894899 -2.300511675)
(0.1172857466 0.0276129861 -1.85110253)
(0.2535317433 0.1215810776 -1.473537531)
(-0.7543332993 1.041544527 -2.130379822)
(0.2532311924 0.1149362055 -1.487374457)
(0.2529479404 0.1090160862 -1.465776492)
(0.2399802812 0.1114535781 -1.346302781)
(0.251752895 0.1063034058 -1.430552883)
(0.01170835641 0.6175744135 -3.465425727)
(-0.6459327429 0.4975586885 -2.291877276)
(0.2396539637 0.1093547126 -1.344656263)
(0.0001670148261 -0.2887170032 -0.2746132503)
(0.2512463238 0.1004605635 -1.446709267)
(-1.729638095 -0.00489191927 -0.2629923468)
(0.1423811811 -0.01495973447 -1.883915361)
(-1.631703295 -0.003964809428 -0.2534109107)
(-1.626707465 -0.005769830136 -0.2381068999)
(0.1140808467 0.1101162289 -1.26839972)
(0.2332152617 0.1053290376 -1.348388321)
(-1.603579443 -0.008654393875 -0.2223554255)
(0.2376277335 0.1008814345 -1.396301152)
(-1.569230804 -0.01204687972 -0.2012790518)
(-1.234325731 0.3478756746 -1.926507722)
(-0.2122385517 1.281901342 -1.776571138)
(0.2504834759 0.09602414084 -1.426852944)
(0.0001434903935 -0.3260368161 -0.178370202)
(0.151960213 0.01546565881 -1.837197358)
(-0.4905736933 0.08340419436 -0.644207113)
(-0.2166523901 0.3189820015 -2.372147688)
(0.1348534605 0.05145835026 -1.740701086)
(-0.4692445321 0.121973139 -0.5246821636)
(0.1573113247 0.06366864689 -1.68251012)
(0.00660186939 0.1867412991 -0.9688839155)
(0.2460423766 0.08816048256 -1.423194821)
(0.1476312528 0.038744507 -1.770870005)
(0.1394893249 0.02627905636 -1.646172031)
(-0.4181729523 1.097134894 -1.778066636)
)


// ************************************************************************* //
