/*--------------------------------*- C++ -*----------------------------------*\
  =========                 |
  \\      /  F ield         | OpenFOAM: The Open Source CFD Toolbox
   \\    /   O peration     | Website:  https://openfoam.org
    \\  /    A nd           | Version:  8
     \\/     M anipulation  |
\*---------------------------------------------------------------------------*/
FoamFile
{
    version     2.0;
    format      ascii;
    class       volScalarField;
    location    "1.6";
    object      alphat;
}
// * * * * * * * * * * * * * * * * * * * * * * * * * * * * * * * * * * * * * //

dimensions      [1 -1 -1 0 0 0 0];

internalField   nonuniform List<scalar> 
67410
(
0.0001069846751
0.0001290445076
0.0001391054769
0.0001466892684
0.0001529661695
0.000158510767
0.0001638324683
0.0001693895426
0.0001755901657
0.0001827246758
0.000190850567
0.0001997124727
0.0002087846566
0.0002173679887
0.0002246417429
0.0002295891802
0.0002307436438
0.0002256832961
0.0002109039663
0.0001882162834
0.0001780414846
0.0001801397351
0.0001839252478
0.0001827058558
0.0001894723076
0.0002135912406
0.0001078341115
0.000134624764
0.000147773264
0.000158052632
0.0001670056432
0.0001753820819
0.0001838846725
0.0001931317247
0.0002035546732
0.0002152363733
0.0002278309361
0.0002406847544
0.000253059324
0.0002642558551
0.0002735568955
0.0002800908614
0.0002825134905
0.0002784857043
0.0002648598958
0.0002416095234
0.0002268690915
0.0002301333273
0.000233814974
0.0002294385181
0.0002334385011
0.000258008003
0.0001055646179
0.0001368914873
0.0001514202087
0.0001635691803
0.0001748694181
0.0001859171382
0.0001973794952
0.0002098041283
0.0002233810942
0.0002378264976
0.0002525298705
0.0002668266967
0.0002802104469
0.0002922339374
0.0003023411826
0.0003099252174
0.0003137412231
0.0003113340243
0.0002997548867
0.0002765122264
0.0002565901341
0.0002593714102
0.0002628464655
0.0002556919944
0.0002565520818
0.000280397056
0.0001120655189
0.0001414514809
0.0001549774457
0.000168117032
0.0001814261599
0.0001948885927
0.0002088829706
0.0002237124582
0.0002392770524
0.0002551160045
0.0002706787235
0.0002855022364
0.0002995619272
0.0003123903324
0.00032340681
0.0003318903452
0.0003366354504
0.0003357289279
0.0003259654152
0.0003020848868
0.000276880359
0.0002782733341
0.0002817711745
0.0002714488741
0.0002675502722
0.000290117462
0.0001252481023
0.0001473334392
0.0001587122394
0.0001722353272
0.000187144657
0.0002025530594
0.0002184202331
0.000234787763
0.0002514193835
0.0002679390013
0.0002841129995
0.0002992897748
0.0003131363772
0.0003255326441
0.0003361923587
0.00034451606
0.0003494672201
0.000349424408
0.0003416555288
0.000320761822
0.0002905470649
0.000289847798
0.0002931865847
0.0002789444778
0.000269353793
0.0002894108483
0.0001329962221
0.0001521512941
0.0001617581351
0.0001753505696
0.0001914056711
0.0002081941978
0.0002252634869
0.0002424978417
0.0002597166193
0.0002767878768
0.0002926085252
0.0003069952872
0.0003199678492
0.0003314229185
0.000341090947
0.0003484741999
0.000352721197
0.0003524620726
0.0003453952031
0.0003268901683
0.0002977551282
0.0002931385808
0.0002943382786
0.0002777753585
0.0002633086863
0.0002796365754
0.0001369826698
0.0001552802586
0.0001634509219
0.00017671476
0.0001933723201
0.000210964454
0.0002286783359
0.0002463404493
0.0002639539394
0.0002805954588
0.0002955894791
0.0003089931182
0.0003207592148
0.0003307134115
0.0003386093551
0.0003440946833
0.0003465613291
0.0003449306329
0.000337282847
0.0003191895632
0.0002917464085
0.0002836127909
0.0002826161458
0.0002661016886
0.0002510087844
0.0002633390162
0.000138643978
0.000156624499
0.0001633381829
0.0001756517159
0.0001922462877
0.0002100711038
0.000227955117
0.0002456530528
0.0002631958948
0.0002792683021
0.0002934519133
0.0003057072079
0.00031585023
0.0003236175651
0.0003287633434
0.0003310881584
0.0003303950005
0.0003262510887
0.0003170851714
0.0002976348333
0.0002712719626
0.0002608843044
0.0002589175601
0.0002462727147
0.0002361807648
0.000246092939
0.0001385026206
0.0001559992096
0.0001611289352
0.0001717646235
0.0001875186713
0.0002049807484
0.0002225745296
0.0002399508257
0.0002570662035
0.0002727327272
0.0002861706573
0.0002971037895
0.0003051709262
0.000309976945
0.0003112569977
0.000309272794
0.0003053846771
0.0003003522983
0.0002862243952
0.0002652854182
0.0002426451626
0.0002330892048
0.0002315799746
0.0002264064589
0.0002242196403
0.0002344436638
0.0001371644623
0.0001535390923
0.0001570946842
0.0001654409425
0.0001794962202
0.0001959365658
0.0002126652906
0.0002291213245
0.0002451284354
0.0002602504535
0.00027291179
0.0002823845913
0.0002880560279
0.0002896062309
0.0002879634445
0.0002876080548
0.0002955381004
0.0003052668145
0.0002644123155
0.0002379387641
0.0002221055045
0.0002157467559
0.0002168684039
0.000219207828
0.0002171208154
0.0002272623204
0.0001367396075
0.0001510098461
0.0001533070828
0.0001589866626
0.0001701594489
0.000184695676
0.0001999161736
0.0002145627606
0.0002284098755
0.0002411609947
0.0002520724248
0.000259881188
0.0002640160794
0.0002667516582
0.0002761295093
0.0003044106248
0.0003506736563
0.0003846094933
0.0002999384122
0.0002341345985
0.0002169094784
0.0002199246346
0.000231034191
0.000237287875
0.0002169567568
0.0002216808972
0.0001407070672
0.0001528955866
0.0001547220515
0.0001575033452
0.0001635303139
0.0001741082304
0.000187259955
0.0001998491028
0.0002108488113
0.0002202677515
0.0002281750701
0.0002349220135
0.0002432087592
0.0002623782073
0.0003067707398
0.0003770734769
0.0004511922001
0.0004941656905
0.0004012285797
0.0002674538023
0.0002272653373
0.000245671955
0.0002703259874
0.0002790112558
0.0002310981772
0.0002194180535
0.0001498317847
0.0001627476989
0.0001652209874
0.0001655345936
0.0001645097809
0.0001670568704
0.0001762587622
0.0001875675632
0.0001975241637
0.0002058021064
0.0002133309856
0.0002231015148
0.0002440772023
0.0002913206663
0.0003688142616
0.0004597890499
0.0005405866598
0.000582023973
0.0005038498651
0.0003393127088
0.0002529800584
0.0002871002156
0.0003207844319
0.0003296513138
0.0002678840775
0.0002276596677
0.0001611505424
0.0001775921299
0.0001813296393
0.0001805930894
0.0001746269119
0.0001674404415
0.0001690437477
0.0001789504365
0.0001902948431
0.0002011302954
0.0002119117525
0.0002264261405
0.0002557845323
0.0003135702863
0.0003988897574
0.0004958250633
0.0005778354631
0.0006089561821
0.0005447043093
0.0003743864349
0.0002904721769
0.0003350608678
0.0003692850749
0.0003751234034
0.0003195424522
0.0002566351046
0.0001719227152
0.0001917649814
0.0001967676631
0.0001964450751
0.0001894423846
0.0001760833755
0.0001681825647
0.0001759402544
0.0001910068825
0.0002072006906
0.0002210755744
0.0002312951467
0.0002396342248
0.000249974019
0.0002702212177
0.0003272301444
0.0004167374137
0.0004705437553
0.0004275036904
0.0003033492242
0.0003337390753
0.0003800370172
0.0004077415169
0.0004103829269
0.0003636616549
0.0002984938009
0.0001825892383
0.0002029604423
0.0002086383245
0.0002097850284
0.0002044409933
0.0001897980267
0.000174134937
0.0001792155912
0.0002002404242
0.0002240588736
0.0002423266485
0.0002532496699
0.0002627413867
0.0002747831061
0.0002724450597
0.0002602441422
0.0002860697736
0.0003133495321
0.0002856020394
0.0003138464699
0.0003636315814
0.000405001979
0.000428751486
0.0004301699647
0.0003879069724
0.0003301136738
0.000200189402
0.0002143314432
0.0002170971595
0.0002196720375
0.0002173204325
0.0002044067433
0.0001846005756
0.0001881110052
0.0002178562548
0.0002507570341
0.0002731435978
0.0002856622026
0.0003060686981
0.0003405594395
0.0003339482955
0.0002625503292
0.0002510089809
0.0002520508851
0.0002727207922
0.0003167303645
0.0003637641071
0.0004032176493
0.0004262792521
0.0004267501831
0.0003815050231
0.0003316855281
0.0002367886003
0.0002381025547
0.0002266300308
0.0002261640481
0.0002266029267
0.0002164934343
0.0001958214713
0.0002011572085
0.0002428137616
0.0002860014976
0.0003145833741
0.0003371763357
0.0003873454509
0.0004566368594
0.0004456786651
0.0002866455305
0.0002562667584
0.000237418914
0.0002246750979
0.0002379758041
0.0002816233886
0.0003384537924
0.0003761174571
0.0003791580489
0.0003016277335
0.00023388017
0.0002902961255
0.0002886064121
0.0002526209739
0.0002342461092
0.0002313482567
0.0002236141239
0.000203515801
0.0002122217971
0.0002669004643
0.0003227338741
0.0003635785174
0.000406563063
0.0004926490584
0.0005887939088
0.0005645066931
0.0003525585851
0.0002634630356
0.0002309493609
0.0002121506917
0.0002074969879
0.0002203645292
0.0002473775249
0.000284707773
0.000305260246
0.0002201439408
0.0002012350711
0.0003435240234
0.0003559409537
0.0003093102223
0.0002647582481
0.0002384914396
0.0002256700903
0.0002049546893
0.0002047737457
0.0002620756765
0.0003345026037
0.0003836818141
0.0004002923618
0.0004311367262
0.000511282322
0.0005400305435
0.000305449561
0.0002348969896
0.0002155191744
0.0002114901401
0.0002168487928
0.0002237172115
0.0002275624946
0.0002300207024
0.0002318866318
0.0002137120981
0.000208798318
0.0003863101076
0.0004199003772
0.0003804216036
0.0003305764087
0.0002739826928
0.0002325635132
0.0002060216228
0.0001797895438
0.0001686684132
0.0002246585084
0.0002861620319
0.0003135299559
0.0003144607469
0.0003390336558
0.0003424108526
0.0002223096768
0.000215179838
0.0002225715164
0.0002353857074
0.0002484763954
0.0002575980677
0.0002598381727
0.0002579937744
0.0002481730022
0.0002393170163
0.0002329170767
0.000420148832
0.000476533299
0.0004446177206
0.0004065188652
0.0003451945667
0.000270544567
0.0002178559705
0.0001807268231
0.000145102562
0.0001582097653
0.0002000005153
0.0002193640903
0.0002128644474
0.0002187029506
0.0002235546784
0.0002115059021
0.0002271595664
0.0002455153234
0.0002640905498
0.0002805975341
0.000290718847
0.0002930021886
0.0002923500004
0.0002794301288
0.0002663906911
0.0002595203416
0.0004506393244
0.0005267903131
0.0004993020662
0.000475811682
0.0004245610813
0.000334760687
0.0002541682367
0.0001978560238
0.0001473155055
0.000138964227
0.0001472457349
0.0001595196595
0.0001730004114
0.0001887746214
0.000206608316
0.0002260920612
0.0002457671451
0.0002654505327
0.0002845186509
0.0002997027375
0.000310042371
0.0003150170067
0.0003175493748
0.0003015490564
0.0002875933562
0.0002824645108
0.0004763766192
0.0005616642874
0.0005467464015
0.0005523442886
0.0005036282138
0.0003935151525
0.0002986921115
0.000227579518
0.0001633402642
0.0001466614296
0.0001545135856
0.0001675665512
0.0001835785148
0.0002011354916
0.0002195476746
0.0002383404357
0.0002567643304
0.0002750456803
0.000291606236
0.0003062858396
0.0003197477779
0.0003312981029
0.0003376864147
0.0003201715753
0.0003020929205
0.0002988344874
0.0004931615681
0.0005769880326
0.0005854510676
0.0006160788715
0.0005372452087
0.0004077215936
0.0003238807711
0.0002618924255
0.0001864448483
0.0001565707081
0.0001648373093
0.0001785601531
0.000194284887
0.0002110675656
0.0002282469899
0.0002455164549
0.0002629670867
0.0002805397541
0.0002971729834
0.0003137198318
0.0003304768582
0.0003452322157
0.0003531279853
0.000342116005
0.0003183500534
0.0004335914753
0.0005188428758
0.0004844179805
0.0004506840743
0.0003677942183
0.0003202918945
0.0003312131769
0.0003029885355
0.0002194058537
0.0001676102017
0.0001724314293
0.0001862808781
0.0002015676584
0.0002173570514
0.0002331530583
0.0002489897944
0.0002656929667
0.0002831494433
0.0003019000534
0.0003219033653
0.0003420048877
0.0003586763224
0.0003671282839
0.0003527205891
0.0003409841541
0.0003939767331
0.0004285449384
0.0003859958717
0.0003617416335
0.0003352090376
0.0003475372262
0.0003994886684
0.0003667223453
0.0002673740695
0.0001835653776
0.0001773629003
0.0001900398741
0.0002048337892
0.0002201116397
0.0002350679265
0.0002495711706
0.0002636616984
0.0002809744404
0.000303048764
0.0003277499529
0.0003523318268
0.0003713631892
0.0003794756656
0.0003618864226
0.0003650303297
0.0003423600394
0.0003774064954
0.0003878944095
0.0003829200332
0.0003616595711
0.0004146978576
0.0004718272601
0.0004251912546
0.0003075561526
0.0002071201315
0.0001818881147
0.0001904645524
0.0002035003176
0.0002179196224
0.0002322127887
0.0002437011673
0.0002516268987
0.000261111121
0.000276176366
0.0002942545737
0.0003131021102
0.000332214317
0.000339457382
0.0003249452592
0.0003344908937
0.0003703639433
0.0004359858354
0.0004438731448
0.0004209403219
0.000399203029
0.0004654553587
0.0004979764923
0.0004341293599
0.0003072633391
0.0002314960957
0.0001902030643
0.0001904394451
0.0001980518632
0.000207436021
0.0002183937932
0.0002278847782
0.0002346336141
0.000241874658
0.0002535305917
0.0002728768181
0.0002753789266
0.0002830413127
0.0002896660029
0.0002893690385
0.0003091218181
0.0003338417675
0.0004292478523
0.0004934023842
0.0004897385333
0.0004657386167
0.0004299065726
0.0003891889187
0.0003666519459
0.0002939883402
0.0002766638307
0.0002526754548
0.0002065826347
0.0001968626007
0.0001976604169
0.0001965006893
0.0002007585734
0.0002087453942
0.0002177933619
0.0002282879221
0.0002430490253
0.0002683258157
0.0002928412179
0.0002561759784
0.0002573121193
0.0002594533194
0.000272592168
0.0002979720927
0.0001067881423
0.0001330670987
0.000145261953
0.0001542325384
0.0001614061491
0.0001673157994
0.000172408872
0.0001770641743
0.000181635631
0.0001864504162
0.0001917758002
0.0001977315674
0.0002041767237
0.0002106730427
0.0002164577384
0.0002204099449
0.0002209809187
0.0002163428419
0.0002055461642
0.0001919005146
0.0001846501374
0.0001826245765
0.0001821929996
0.0001789491435
0.0001797396602
0.0001954659736
0.0001108241513
0.0002329933155
0.0002794781635
0.0003157412129
0.0003460457568
0.0003702118962
0.0003893101332
0.0004049336775
0.00041927913
0.0004350449605
0.0004551413408
0.0004816923626
0.0005152299392
0.0005540798467
0.0005940429952
0.0006271777259
0.0006418406829
0.0006287611994
0.0005863815918
0.0005310836939
0.0004945218248
0.0004825964611
0.0004623803174
0.0004170680073
0.0003812508732
0.0004122358156
0.0001087201513
0.0002494478076
0.0003108456931
0.0003601816643
0.0004035607885
0.0004408134891
0.0004731149161
0.0005030530885
0.0005347902665
0.0005731940816
0.000621852864
0.0006818709724
0.000750507918
0.0008219687755
0.0008901434113
0.0009409461433
0.000959171471
0.0009437256453
0.0008849217254
0.000794798088
0.0007282543325
0.0007166906334
0.0006901286533
0.0006082596595
0.0005328225723
0.0005837615989
0.0001088399931
0.0002565143433
0.0003213724821
0.0003747842886
0.0004272044505
0.0004784753214
0.0005291007514
0.0005820384896
0.0006420382061
0.0007122763941
0.0007919840046
0.0008769298437
0.0009532546303
0.001017882964
0.001075089369
0.001117278183
0.001137536118
0.001131229257
0.001097683147
0.001044142931
0.0009665479129
0.0009445438652
0.0009056755414
0.0008001769826
0.0006860613764
0.0007303014049
0.0001212200097
0.0002691376042
0.0003279239874
0.000378894787
0.0004378756189
0.0005043356059
0.0005773956509
0.0006585748694
0.0007481168533
0.0008399519079
0.0009204267071
0.0009942842708
0.001067658787
0.001134427473
0.001190207332
0.001230378921
0.001250788199
0.00124919181
0.001227243986
0.001191621679
0.001148470068
0.001099137994
0.001032358775
0.0009338726901
0.0008014034023
0.0008242402593
0.0001314466117
0.0002850175881
0.0003340011671
0.0003791511929
0.0004423772367
0.0005230458892
0.000618156285
0.0007236572656
0.0008279341571
0.0009081990599
0.0009841686423
0.001059649514
0.001131182639
0.001194757967
0.001246056361
0.0012812897
0.00129785417
0.001295402801
0.001277305879
0.001250244985
0.001215287576
0.001155776447
0.00107809614
0.0009818004439
0.0008548348248
0.0008655773453
0.0001374071916
0.0003005538549
0.0003409382534
0.0003782687263
0.0004421632399
0.0005327926346
0.0006437453547
0.0007622169708
0.0008593827592
0.000934855372
0.001010658088
0.00108381779
0.001151525138
0.00120974523
0.001254613028
0.001283220276
0.001294005177
0.001287575972
0.001267980218
0.001241695082
0.001205829698
0.001140753787
0.001057356138
0.0009608741381
0.0008571802388
0.0008744902144
0.0001401465841
0.0003113774624
0.0003459367307
0.0003745247816
0.0004347950193
0.0005287087863
0.0006467517191
0.0007695793428
0.0008603631142
0.0009346370475
0.001007477805
0.001076161122
0.001137970287
0.001189411376
0.001227540756
0.001250341053
0.001256516317
0.001246299184
0.001223142407
0.00119387381
0.00114958846
0.001074211552
0.0009852583078
0.0008945468526
0.0008395798503
0.000880736415
0.0001399015623
0.0003108953184
0.0003420523357
0.0003629812912
0.0004167281183
0.0005075057749
0.0006246549295
0.0007475673826
0.000841892013
0.0009140630993
0.000982832499
0.001045570776
0.001100382455
0.001144990843
0.001177579844
0.00119643381
0.00119856694
0.001183865478
0.001156141548
0.001125337662
0.001057586567
0.0009635433211
0.0008832545186
0.0008296862653
0.0008329100345
0.0008989749205
0.0001370339508
0.000293687319
0.0003225658519
0.000339138272
0.0003864347629
0.0004702438927
0.0005805730458
0.0006998316597
0.0008052769563
0.0008781733228
0.0009430158476
0.001000152073
0.001048598754
0.001086289692
0.001110699911
0.001117374673
0.001102522802
0.001079694724
0.001041581794
0.001020265597
0.0009634392321
0.0008881005866
0.0008286967183
0.0008054978671
0.0008459150359
0.0009185509446
0.0001337550328
0.0002623272025
0.0002886433725
0.0003045614394
0.0003472661244
0.0004228757749
0.0005227669754
0.0006318277929
0.0007352696343
0.0008219800532
0.0008876304053
0.0009395815776
0.0009800077613
0.0009974003658
0.0009934093499
0.0009946112913
0.001022579635
0.001028738082
0.000976989018
0.0009271585008
0.0009070224427
0.0008569287774
0.000824977919
0.0008207955003
0.000871686801
0.0009296321566
0.0001340854482
0.0002303409723
0.0002532783345
0.0002701367568
0.0003085187444
0.0003743378275
0.0004620474418
0.0005581632833
0.0006491099397
0.0007268304258
0.0007894894239
0.0008364181672
0.000864243232
0.0008754353092
0.0009007184779
0.0009989617831
0.001143194025
0.001214897388
0.001129305761
0.0009307433558
0.0008786262329
0.000855097898
0.0008635565639
0.0008788282114
0.0009183610209
0.0009402130888
0.000139541523
0.0002142758678
0.0002348999894
0.0002517082299
0.0002825514494
0.0003336673993
0.0004056369879
0.0004885804205
0.0005691635837
0.0006392158071
0.0006979646407
0.0007449298977
0.0007776637062
0.0008119777261
0.0009135737065
0.001124322964
0.001383046832
0.001473054387
0.001373298735
0.001103276629
0.000912114297
0.000923634421
0.0009678482663
0.0009773569388
0.001014360752
0.0009763364583
0.0001475901676
0.0002197377588
0.000243705388
0.0002595692285
0.0002787042903
0.0003085028964
0.0003587884963
0.0004269995663
0.0005008712749
0.0005720296251
0.0006391793447
0.0006993619761
0.0007479430437
0.0008033905483
0.0009176329936
0.001145540223
0.001407511937
0.001505954167
0.001448858241
0.001259319302
0.001026940854
0.001069561738
0.001099841108
0.001100064703
0.001107610283
0.001055079049
0.0001554975203
0.0002393230708
0.0002755601947
0.0002922956122
0.0002984737968
0.0003028051427
0.0003255917645
0.0003771582787
0.0004483006249
0.0005304627132
0.0006202296616
0.000708547008
0.0007809336293
0.0008311842621
0.0008888281765
0.001028132064
0.00121772827
0.001339561956
0.001311838075
0.001226044273
0.001152541067
0.001182970385
0.001220855534
0.001211004511
0.001184099417
0.001117621584
0.0001622598437
0.0002613193672
0.000315795198
0.0003373456626
0.000334515641
0.0003153038043
0.0003063977392
0.0003378868997
0.0004092606836
0.0005116625052
0.0006296783918
0.0007354155053
0.0008144268314
0.0008708538986
0.0009009869921
0.0009166638804
0.0009522066863
0.001039482855
0.001070688657
0.001107146223
0.001143836502
0.001229225194
0.001276064398
0.001263265541
0.00121474668
0.001117333598
0.0001691810918
0.0002749581164
0.0003443418368
0.0003755943804
0.0003713337927
0.000339592621
0.0003003718955
0.0003101377331
0.0003891684635
0.0005322868813
0.0006926104725
0.0008110829688
0.0009028693508
0.0009963742116
0.001031409842
0.0009949452027
0.0009454736663
0.0009460103211
0.000963934217
0.001023288396
0.001102939498
0.001206631987
0.001260423228
0.001251539148
0.001204060973
0.001108436188
0.0001806454707
0.0002772735269
0.0003481781309
0.0003968645541
0.000400189199
0.0003638261114
0.0003035893495
0.0002949261819
0.0003975973022
0.0006189820366
0.0008438807951
0.0009989937472
0.001150742582
0.001350100913
0.001321429697
0.001110475812
0.00093230057
0.0009227080079
0.0009042891842
0.0009341151603
0.001038836656
0.001132369622
0.00119096699
0.001187174948
0.001160795643
0.001089275288
0.0002011931658
0.0002815553794
0.0003318596967
0.0003896063069
0.000411339669
0.0003761659968
0.0003052575132
0.0002829316837
0.0004113587952
0.0007129941648
0.0009926538758
0.001213182769
0.001498074338
0.001797080986
0.00165983225
0.001272266784
0.0009067938511
0.0008705321506
0.0008376370575
0.000851855209
0.0009051891732
0.000995840257
0.001087662957
0.001085986086
0.001061425736
0.001013109621
0.0002319671778
0.0003181268536
0.0003287727742
0.000357971933
0.000387257597
0.0003665979516
0.0002955312428
0.0002573021047
0.0003606111579
0.0006780879228
0.0009953264359
0.001218986355
0.001452286076
0.001657430237
0.001558865422
0.001187015916
0.0008776205318
0.0008425085072
0.000860509489
0.0009160507714
0.000978690237
0.001023206918
0.001041077141
0.001032590886
0.001060781799
0.00105893716
0.0002759670245
0.0004301233448
0.0003999856746
0.0003475932929
0.0003487606017
0.0003396492664
0.0002825903765
0.0002324644672
0.0002578603476
0.000429653671
0.0007035926998
0.0008640727872
0.0009188024868
0.0009920987318
0.0009829598077
0.000814778792
0.0008018372395
0.0008820203333
0.0009888927495
0.001104862911
0.001200478473
0.001246212947
0.001248660787
0.001215678753
0.001198973944
0.001164455612
0.000330345686
0.0006329476795
0.0005919085574
0.0004333813905
0.0003784210048
0.0003232703952
0.0002815397159
0.0002249484162
0.0002149289396
0.0002591023313
0.0003573016778
0.0004513279502
0.000498438181
0.0005505000877
0.0006274518857
0.0007281564759
0.0008599847038
0.00102587096
0.001180676903
0.001278729126
0.001347368134
0.001390076209
0.001406430603
0.001414745058
0.001413471507
0.001367833139
0.0003811031067
0.0008689210706
0.0008523334991
0.0006749306651
0.0005844771932
0.0003799576684
0.0003038053986
0.0002403758174
0.0002208178825
0.0002508110346
0.0002996605535
0.000364140578
0.000440509044
0.0005327711416
0.0006550332496
0.0008110204705
0.0009884289334
0.001163118524
0.001282888361
0.001374062211
0.001443504251
0.001489251536
0.001510140575
0.0015369357
0.001554015447
0.001549533937
0.0004187888364
0.001041987948
0.001076931816
0.00101681343
0.0009056442617
0.0005673893649
0.0003555988398
0.0002711129341
0.0002389818536
0.0002735630911
0.0003277457365
0.0003999383308
0.0004937572702
0.0006101895787
0.0007526796011
0.0009191845429
0.00109093403
0.00123213416
0.001342026463
0.001437824352
0.001515336786
0.001563030461
0.001592774107
0.001647775815
0.00169106325
0.001717115703
0.0004275434006
0.001083566426
0.001170062437
0.001152187106
0.001005646247
0.0006732493038
0.000440988156
0.0003237216561
0.0002630402589
0.0003046056362
0.0003742772677
0.0004628833868
0.0005740265246
0.0007071432417
0.0008578858119
0.001015572986
0.001158886971
0.001271591354
0.001375714606
0.001475480334
0.001560738336
0.001617397221
0.001663941812
0.001747605323
0.001835927897
0.0003836107812
0.0009504886999
0.001025532103
0.0009342405756
0.0007923111556
0.000606435377
0.0005773234526
0.0004321852978
0.0003013497721
0.0003349840529
0.000419955305
0.0005286235595
0.0006621128015
0.0008131115724
0.0009647470693
0.001097134813
0.001197644874
0.001291898234
0.001388315361
0.001485706724
0.001571177522
0.001635485709
0.001707348876
0.001835730355
0.001951423744
0.0002770583828
0.0006412538205
0.0007539023075
0.0007296459533
0.0006447397602
0.0006962992508
0.0008009835631
0.0006423074292
0.0003909145722
0.0003684757276
0.0004576578558
0.0005793333912
0.0007307505401
0.0008972745435
0.001044043276
0.001135088354
0.00121534754
0.001293604711
0.001381363683
0.001476190277
0.00155743574
0.001622169384
0.001698060952
0.001838469272
0.0019804195
0.0002838017603
0.0005952776808
0.0008594175116
0.0008968099492
0.0007774878104
0.0009369935404
0.001043300338
0.000879602432
0.0005431172775
0.0004237162282
0.0004911144346
0.0006042227005
0.00074734493
0.0009052974711
0.001040471112
0.00112772701
0.00120307803
0.001283251386
0.001390195374
0.001520151254
0.001591186223
0.00164813011
0.001725123022
0.001845599488
0.001939184145
0.0003588865996
0.0009616369138
0.001199817839
0.001173680429
0.0009284577307
0.0009650658464
0.001017135527
0.0009025284885
0.0006537819194
0.0005262448367
0.0005474121448
0.0006275080321
0.0007259821554
0.0008295411291
0.0009401958536
0.001037663347
0.001118875852
0.001217759439
0.001402884105
0.00159985053
0.00165068218
0.001638548123
0.001668490882
0.001749231014
0.001813186652
0.00184959966
0.0004012566167
0.0009997263218
0.001176926636
0.001119885569
0.0008828263461
0.0006771391909
0.0007583222149
0.0007527160155
0.0007398141968
0.000701255976
0.0006675050203
0.0007082382992
0.0007519120931
0.0007595445164
0.0007901816457
0.000860390149
0.0009548752457
0.001082346201
0.001282517773
0.001519246834
0.001626538359
0.001578702568
0.001530001098
0.001591160512
0.00168173427
0.001732365789
0.0001117897292
0.0001398378183
0.0001535164776
0.0001635927113
0.0001715224541
0.0001778730745
0.0001830834189
0.00018750608
0.0001914550357
0.000195216633
0.0001990517896
0.0002031616164
0.0002076094207
0.0002122337838
0.0002165667952
0.0002197743059
0.0002207069043
0.0002182017252
0.0002119534201
0.0002039736328
0.0001982297918
0.0001943462674
0.0001914886424
0.0001870628544
0.000184373817
0.0001920356391
0.0001192586169
0.00030292353
0.0003797065448
0.0004403911636
0.0004920263613
0.0005340664674
0.0005675641356
0.0005943325194
0.0006168702544
0.0006382536788
0.000661937073
0.0006909953734
0.0007269087918
0.0007685202767
0.0008112265499
0.0008470633758
0.0008663614468
0.0008617889822
0.0008322838115
0.0007865947414
0.0007438759914
0.0007119677153
0.0006711459433
0.0006120225082
0.0005585793956
0.0005654008401
0.0001179239029
0.0003351037642
0.0004406208388
0.0005284483689
0.0006066348952
0.0006743057592
0.0007318734204
0.0007814031706
0.0008269349858
0.0008736879872
0.0009265454133
0.0009882842475
0.00105780072
0.001129578095
0.001194598263
0.001243351438
0.001267048047
0.001260269054
0.00122190994
0.001159807711
0.001099205845
0.00105892525
0.001004156878
0.0009149503773
0.0008259922027
0.0008413339613
0.0001148684439
0.0003402156062
0.0004565615079
0.0005542879176
0.0006472642209
0.0007355601117
0.0008181714532
0.0008958972551
0.0009719555377
0.001050185665
0.001132428834
0.001217154667
0.001299850813
0.001374369938
0.001432083062
0.001473969925
0.001497115764
0.001498137239
0.001477623606
0.001436598277
0.001381198204
0.001335067855
0.001271769476
0.00117318204
0.001067842265
0.001075851365
0.0001236595824
0.0003525947955
0.0004641934434
0.0005579823602
0.0006568190065
0.0007619631887
0.0008694551651
0.0009761197565
0.001080566332
0.00118065763
0.001272843781
0.001353899071
0.001425649728
0.00149245101
0.001547925664
0.001588062171
0.001610487386
0.001614949481
0.001603357581
0.001578149672
0.00154106867
0.001492189099
0.001424559003
0.001332703053
0.001232271943
0.001228755811
0.0001361223995
0.0003735934515
0.0004728745644
0.0005543792945
0.0006522040549
0.000769245252
0.000897402918
0.001026977226
0.001148360524
0.001252343601
0.001334169365
0.001408322628
0.001478235077
0.001540239956
0.00159031845
0.001625286292
0.001643858926
0.001647180572
0.001638286799
0.001619576928
0.001588673452
0.00153899615
0.001470471349
0.001392331827
0.0013087173
0.001301921679
0.0001437148108
0.0003956863946
0.0004836629981
0.0005496555243
0.0006407671161
0.0007630408881
0.0009044452717
0.001047606718
0.00117452247
0.001272171803
0.001347659144
0.001418732588
0.001483536625
0.001539376166
0.001583086877
0.001612350681
0.001626420812
0.001626614151
0.001616428544
0.001599272452
0.001570646269
0.001522548166
0.001457308948
0.001389431951
0.001325609853
0.001327922372
0.0001471787195
0.0004103978091
0.0004911685905
0.0005423449359
0.0006229968222
0.0007440073638
0.0008911163373
0.001040807215
0.001169521617
0.001263310404
0.001335857799
0.00140157019
0.001459631445
0.001508515748
0.001546310965
0.001571336026
0.001582261198
0.001579357848
0.001567174964
0.001552728008
0.001524951446
0.001478630351
0.001418052682
0.001359078957
0.001321106258
0.001340794413
0.0001468281124
0.0004083273886
0.0004845828313
0.0005249585083
0.0005951897553
0.0007111942934
0.0008588460172
0.001011728987
0.001143887615
0.001240730851
0.001310638792
0.001370859031
0.001422229274
0.001464988444
0.001498303399
0.001519641111
0.001524977459
0.001514434651
0.001501094028
0.001505523996
0.001481114216
0.001433949108
0.001375993889
0.001331802754
0.001326875219
0.00136191126
0.0001431353137
0.0003830769861
0.0004545361531
0.000489791935
0.0005534710733
0.0006641784702
0.0008096183826
0.0009638073023
0.00110144793
0.001207465945
0.001279989721
0.00133734678
0.001384505416
0.001422340299
0.001447971236
0.001454080039
0.001435981047
0.001403899584
0.001387106571
0.001448895429
0.001448261268
0.001398711797
0.001348379037
0.001326783549
0.001351219194
0.001392154415
0.0001383536229
0.0003376103225
0.0004017695963
0.0004366425668
0.0004986690195
0.0006052548331
0.0007465246483
0.000899100573
0.001040089406
0.001154871862
0.001240327813
0.001302275665
0.001347609141
0.001374990162
0.00137499275
0.001350094563
0.001325646359
0.001304337226
0.001276438201
0.001351607653
0.001405517728
0.001366009884
0.001323921227
0.001323571151
0.001374332543
0.001423172745
0.0001365766042
0.000287034606
0.0003408283436
0.0003770963631
0.0004396189996
0.0005415059555
0.0006755746918
0.0008228233349
0.0009628830959
0.001081815981
0.001175515937
0.00124491178
0.001287293043
0.001293178384
0.001273862946
0.001286327701
0.001360557931
0.001405086134
0.001367789463
0.001341109797
0.00135957064
0.001327610738
0.0012938231
0.001310899686
0.001383216822
0.001450488605
0.0001397690031
0.0002525595534
0.0002952784987
0.0003313115839
0.0003913461422
0.0004835904827
0.0006045795749
0.0007416142205