/*--------------------------------*- C++ -*----------------------------------*\
  =========                 |
  \\      /  F ield         | OpenFOAM: The Open Source CFD Toolbox
   \\    /   O peration     | Website:  https://openfoam.org
    \\  /    A nd           | Version:  8
     \\/     M anipulation  |
\*---------------------------------------------------------------------------*/
FoamFile
{
    version     2.0;
    format      ascii;
    class       volScalarField;
    location    "1.6";
    object      htcConv;
}
// * * * * * * * * * * * * * * * * * * * * * * * * * * * * * * * * * * * * * //

dimensions      [1 0 -1 1 0 0 0];

internalField   uniform 0;

boundaryField
{
    walls
    {
        type            calculated;
        value           uniform 0;
    }
    region0_to_wallFilmRegion_wallFilmFace
    {
        type            convectiveHeatTransfer;
        L               1;
        value           nonuniform List<scalar> 
776
(
1.478755394
1.390357205
1.269385431
1.223507373
1.420071109
1.549094848
1.622355071
1.678838987
1.761735331
1.913428776
2.170781801
2.505701855
2.818819337
3.049968504
3.218348755
3.384824987
3.641302151
4.060551735
4.553508201
4.93535559
5.081646091
4.942069502
4.533405762
3.858411351
3.088083784
3.240219175
3.335164537
2.00170619
2.971078168
3.551182126
1.807813571
1.627245044
1.559749821
1.575286883
1.653869453
1.734798814
1.787333355
1.821280512
1.864199754
1.952253921
2.123056997
2.382135698
2.67617786
2.931649959
3.117231508
3.248177295
3.376264662
3.598399586
3.964640086
4.34885439
4.589472574
4.581782204
4.359570751
3.960536772
3.710995272
3.142783395
2.437132525
2.918912927
3.125185995
3.368699662
2.112380117
1.996263784
1.956201025
1.96295744
2.017396285
2.066411247
2.086181377
2.076844465
2.057999288
2.068234519
2.159083721
2.355145392
2.616007952
2.862964009
3.04204138
3.146056309
3.197204426
3.25964146
3.466285362
3.835983689
4.216896168
4.424299428
4.34414429
4.096214652
4.266910918
2.901012354
2.576937788
3.173246037
2.998393975
3.24111421
2.293308255
2.234549149
2.237543926
2.270031299
2.324631985
2.364015726
2.371316656
2.342549685
2.288724247
2.240548264
2.250142576
2.35988272
2.555684122
2.7679759
2.930438885
3.018253229
3.035327729
3.022472346
3.081957713
3.401189972
3.893316637
4.336882692
4.534104209
4.597940059
4.962003426
3.20831898
3.237705336
3.119687706
2.709025133
3.129162591
2.444039363
2.429756712
2.469384424
2.524366188
2.585555611
2.623872162
2.627136602
2.590534237
2.519729146
2.435803633
2.378477591
2.388122469
2.48230358
2.631346112
2.771300498
2.859600861
2.878079858
2.843026793
2.797452593
2.901909241
3.335485916
3.816723917
4.042240282
3.991518937
3.974396694
2.764867884
3.517281693
2.701356569
1.54029659
2.933219171
2.568495361
2.587322054
2.658465831
2.73275206
2.800694654
2.838362912
2.837248651
2.794496935
2.714774691
2.614965757
2.526108987
2.472697345
2.466182175
2.517527655
2.596562564
2.669900908
2.708946551
2.695202379
2.634436762
2.610431687
2.858520411
3.309054328
3.641221456
3.716207862
3.461344884
3.185846631
3.270320933
2.911334458
2.820183692
2.528789957
2.673959162
2.718529442
2.817996007
2.908317238
2.980110762
3.013253571
3.004037122
2.953954598
2.86915232
2.765717276
2.672921561
2.61056982
2.57066239
2.565685399
2.58251503
2.612489714
2.63361497
2.620321727
2.548506605
2.492309575
2.702958062
3.024348081
3.316953081
3.458558511
3.404080507
3.342185935
3.300479897
3.187663223
3.230594455
2.085020003
2.761968828
2.828158023
2.954089364
3.056359116
3.126475206
3.149397605
3.12757469
3.068363372
2.980857187
2.880726956
2.795381848
2.746927966
2.718494504
2.717219988
2.732342004
2.773031874
2.815360764
2.809935266
2.673173158
2.355590127
2.545858961
2.833049736
3.044452012
3.173071575
3.169913681
3.111287573
3.035848718
2.888912257
2.779690903
1.482430063
2.831883737
2.918300033
3.068964226
3.177429414
3.239417376
3.24586678
3.205416804
3.135102745
3.048023138
2.958847542
2.888484937
2.860854676
2.857940163
2.878672402
2.90907925
2.979316262
3.061309637
3.109029234
3.017173937
2.507706694
2.027411073
2.424761217
2.5873747
2.738324183
2.791808794
2.80219012
2.789366275
2.714643462
2.622862943
2.498299908
2.881846913
2.988868155
3.16136878
3.269794056
3.317301535
3.30034499
3.244447874
3.165631562
3.079268156
3.001863938
2.95430411
2.95187888
2.979536376
3.022889993
3.058243224
3.155562739
3.267660297
3.358983999
3.295965093
2.889138714
2.052744058
2.189638291
2.235534316
2.432201192
2.561450985
2.660089242
2.712340954
2.684308487
2.597885216
2.545281499
2.909034895
3.037452607
3.228367114
3.331439304
3.358071967
3.322416998
3.251821795
3.164569872
3.080442767
3.018789767
2.997408624
3.027960369
3.09026695
3.144618477
3.14797825
3.26106523
3.387902388
3.511550091
3.462483353
2.968936873
2.478614591
2.222642305
2.213313974
2.348298947
2.488835029
2.582285532
2.63214229
2.644211764
2.633517633
2.616067992
2.909483729
3.060413156
3.267001048
3.360589937
3.365445824
3.313831014
3.228550023
3.133223858
3.053086092
3.012739972
3.028665152
3.107159492
3.21501799
3.263379207
3.183638591
3.323798107
3.488745192
3.714002316
3.820294246
2.857524181
2.569248027
2.362781531
2.342264699
2.454204724
2.580057304
2.658201652
2.688699589
2.687957591
2.689629513
2.700764107
2.879380844
3.054658597
3.274553895
3.354157156
3.342893176
3.275247167
3.175445993
3.072587009
2.999547447
2.990422466
3.063907046
3.216605205
3.385584355
3.398816029
3.169694072
3.368961288
3.612921334
3.989133893
4.355200249
2.940123795
2.602443731
2.530872504
2.504777124
2.604997479
2.693060005
2.740706326
2.737304536
2.698354069
2.665202155
2.650613581
2.815905301
3.018427348
3.250344406
3.314475549
3.290866991
3.207678195
3.093675252
2.98416738
2.92363352
2.962564916
3.125240833
3.382099492
3.614112417
3.556222433
3.066895272
3.314704975
3.640294018
4.159685416
4.658411486
3.239663156
2.703117687
2.594482086
2.626625361
2.731556777
2.799443545
2.819402215
2.784982171
2.709078925
2.644287134
2.611945773
2.717096834
2.951602647
3.195533255
3.246165236
3.211904676
3.114198521
2.986505751
2.871311016
2.830984267
2.943235906
3.231214219
3.596977768
3.868519067
3.760663125
2.845085773
3.005549863
3.072000076
3.556421087
4.260553977
3.111624176
2.394325801
2.464819594
2.69716036
2.82505209
2.881759449
2.874622285
2.810715263
2.702725857
2.633814961
2.622197149
2.582898566
2.855695555
3.112301881
3.154908918
3.111951122
3.001686054
2.861102357
2.740356759
2.728026324
2.944843593
3.369569598
3.803049012
4.034396789
3.998100383
2.828965124
2.743212184
2.241987424
1.725694487
2.401482013
0.9094838052
2.363690708
2.601946177
2.808700588
2.9069014
2.939030299
2.906040526
2.818571502
2.683662258
2.635044529
2.645036328
2.417640753
2.73382472
3.005246525
3.04850882
3.001034464
2.882037715
2.730140165
2.601675404
2.619743153
2.954818567
3.48748849
3.915810019
4.082278798
4.148733876
3.022900541
2.581254279
2.358776996
2.160618587
1.807098549
2.144434722
2.530381632
2.726819277
2.895555611
2.956261359
2.967499438
2.921389204
2.836846829
2.68206776
2.673077396
2.694516107
2.231522889
2.588781815
2.882433249
2.936409889
2.891886723
2.770162621
2.609518103
2.465547309
2.483289408
2.871901848
3.449009397
3.890452475
4.071009073
4.091005487
2.915228442
2.367535382
2.283589426
1.755733719
1.702322228
2.157267624
2.596806128
2.798470994
2.931295817
2.962422542
2.96603025
2.927685126
2.869553802
2.71201556
2.759694385
2.766001675
2.049165879
2.426127685
2.744768625
2.824876246
2.790826334
2.671786452
2.503977131
2.330072783
2.229432884
2.365819401
2.66978176
2.936718136
3.065383261
3.044123793
2.416909652
2.366325286
2.394323639
1.953705902
2.13611169
2.383166682
2.662519702
2.824843394
2.907229591
2.925289717
2.933067642
2.909517611
2.88248326
2.721144167
2.845516294
2.826058522
1.952072493
2.30289297
2.613437224
2.709985965
2.677773041
2.565985074
2.414391661
2.27968681
2.243448061
2.376196136
2.575021123
2.671005251
2.54897739
1.9881429
2.351080346
2.674074844
2.583619071
2.072211646
2.225387356
2.424262024
2.653929349
2.776994063
2.827303578
2.84259323
2.859299646
2.84765762
2.838371695
2.633972045
2.630442665
2.819521148
1.965778463
2.288379344
2.568204462
2.641478552
2.588084431
2.451106714
2.290241971
2.172454107
2.184571409
2.33671391
2.525551707
2.685923973
2.706512337
2.538337581
2.732676907
2.782933348
2.690737182
2.13473154
2.235441884
2.391903204
2.581370588
2.67511827
2.708940157
2.731320374
2.745605877
2.732652149
2.74967452
2.459831741
2.313813268
2.751511303
1.955808572
2.255197292
2.536401866
2.614147776
2.566894864
2.437836381
2.278876838
2.152759837
2.168781265
2.344536132
2.560344937
2.753267484
2.859547274
2.864520209
2.893246552
2.826842705
2.698538419
2.122703432
2.048948958
2.255953188
2.449982117
2.551457231
2.604632622
2.635384384
2.613883498
2.577849936
2.644073136
2.321700417
2.202516164
1.679684272
1.973491133
2.231258906
2.498550745
2.571888315
2.535231861
2.435189952
2.310696937
2.214033018
2.234803917
2.399081699
2.630134566
2.854610696
2.99455152
3.000172021
2.92667605
2.778564147
2.624037993
2.087931981
1.715610355
2.01327361
2.301126497
2.461210494
2.549848299
2.576790256
2.514429021
2.391733147
2.471235
2.154168725
2.031173841
1.788391951
2.044028246
2.255786935
2.503811823
2.561440094
2.518834282
2.423327052
2.334332783
2.302005603
2.341321373
2.446467888
2.626041767
2.832217835
2.973943705
2.97691087
2.864537882
2.688546052
2.521222734
2.018159537
1.382015929
1.629816439
2.075171709
2.273396765
2.380606311
2.427934219
2.496878786
1.882081061
1.907316826
1.858745341
1.872116038
1.574747978
2.210104296
2.365617559
2.607956636
2.65610071
2.606729764
2.512053162
2.442912732
2.434515672
2.44355399
2.429206963
2.438887603
2.497907293
2.599694751
2.651243961
2.599642488
2.352880309
2.167483215
1.212175765
1.648941074
1.913703011
2.164078264
2.347730781
2.423974894
2.422669797
2.329482255
2.21921265
2.256278011
1.912320527
1.721903467
1.500589323
2.337839456
2.484651648
2.745843274
2.79874558
2.759773821
2.671152446
2.591731083
2.55668143
2.53952665
2.492676876
2.445513764
2.404722038
2.376420737
2.351718912
2.273957076
2.07779229
1.828972977
1.219196318
1.812502624
1.859734381
1.997515918
2.25930532
2.385926346
2.420234667
1.696170643
1.369613809
)
;
    }
    region0_to_wallFilmRegion_mirrorFace
    {
        type            convectiveHeatTransfer;
        L               1;
        value           nonuniform List<scalar> 
703
(
3.638455438
3.772395669
3.879474977
3.994965024
4.143250206
4.229344181
4.191681765
4.134086716
4.135053484
4.19412429
3.660674148
3.671252654
3.698826726
3.733497108
3.788456276
3.84969215
3.890894997
3.930237974
4.001877832
4.080876032
3.791013675
3.690162574
3.69596693
3.707942517
3.696063876
3.674772501
3.678903238
3.742785002
3.859579041
3.930451955
3.000863414
3.197235849
2.800718458
2.806072727
2.66171746
2.424349287
2.873905796
2.55940997
2.431625368
2.963375162
2.529327699
2.586269334
3.005374784
2.644381371
2.684634184
2.967218745
2.715274485
2.716657055
2.719827188
3.223418031
2.775617634
2.913773347
3.10007874
3.310564097
2.513372347
3.248551017
2.926546078
3.381203157
2.811659224
3.643793668
3.545566729
4.060586121
3.986205705
3.855001983
1.735997847
2.46506467
2.369018379
1.735421314
1.426568759
1.741305379
1.855548991
1.752622025
1.922780146
2.238253557
2.107302806
2.285627563
2.190410292
2.362368925
2.309045454
2.138533472
2.298128405
2.275058716
2.063004626
2.249807409
2.221975368
1.929137444
2.192043103
2.159655341
1.888268794
2.130187592
2.148018344
1.76770382
2.127378825
2.249394079
2.26452289
2.386537196
2.396951995
2.065741688
1.600548214
2.094097061
1.201439204
1.542526907
1.503201942
1.651712677
1.82118128
1.233089201
2.139450217
1.716730598
1.915955749
2.31185649
2.418116216
2.275788862
2.261085457
2.260103284
2.224592824
2.208709897
2.1981023
2.171139592
2.163854831
2.146224913
2.126645147
2.163562213
2.116953611
2.121737717
2.236248994
2.140030918
2.177106206
2.284304041
2.611617493
2.303754093
1.955589229
2.123929949
2.065544655
2.426697517
2.516391317
2.293339721
2.102112568
2.369744108
2.304575425
2.231072979
2.33097393
2.203380977
2.160790059
2.189811789
2.110181052
2.096284329
2.057864403
2.000357972
2.033550335
1.945347146
1.89778751
2.010710416
1.862393684
2.318659187
2.478667015
2.237808206
2.315278785
2.148833119
2.388510039
2.560644098
2.494662418
2.524366845
2.4863267
2.48754974
2.423669691
2.283536862
2.341885209
2.249161592
2.075166447
2.138947488
2.022674815
1.891847381
1.903691415
1.781244005
1.72742952
1.657205153
1.53678549
2.130389971
2.179567163
2.006801914
2.320454625
2.036831189
2.265649093
2.434214935
2.336274289
2.372385611
2.379664852
2.368111298
2.33002519
2.209770405
2.264657515
2.177634582
1.976348016
2.071863478
1.949636031
1.695952307
1.81276225
1.662539754
3.792645895
3.69550303
3.807009767
3.998348206
3.911734626
4.007044669
4.161441554
4.092478823
4.165257217
4.240888869
4.225654872
4.276845257
4.256294506
4.322985273
4.347815527
4.192585659
4.33461409
4.28579056
4.100578512
4.235898338
4.187710739
4.03398859
4.147586573
4.120728642
3.996278012
4.109670616
4.106530006
3.948705591
4.107731517
4.113725452
4.003181043
4.132968951
4.178749093
2.338979226
2.427402352
2.225721521
2.281488461
2.169147284
2.10008365
2.343374063
2.111806621
2.135556389
2.444678644
2.186946342
2.250433047
2.518778688
2.32475401
2.359316133
3.763322494
3.946125819
4.098621325
4.240502512
4.363463493
4.302119903
4.193361615
4.123029655
4.123914169
4.158040407
3.592609578
3.922589212
3.987000551
4.057347514
4.128699994
4.099891542
4.067753766
4.051997995
4.057544521
2.158251609
2.585826694
2.203034175
1.97336245
2.012124556
1.90763363
1.977515852
1.882244091
1.889743157
2.117615483
1.93045044
2.078851828
2.251190354
2.267556938
2.216903305
3.702686943
3.611190845
3.630692541
3.827934766
3.679537608
3.712449697
3.932938054
4.066792535
4.207693501
4.218495905
4.006593579
4.020889727
4.160932809
4.022357065
4.123593245
4.16011215
4.048773537
4.080198107
4.233671493
4.119068732
4.162170888
1.947476778
2.602461497
2.305730119
1.917239827
2.20979253
2.300878672
2.266145063
2.324370523
2.630726008
2.313831009
2.753407997
2.527083178
3.715050841
3.658265748
3.685633778
3.682617412
3.688063782
3.713681994
3.692300016
3.758224149
3.743656714
3.908366222
3.762850464
3.928024851
3.968007839
4.122128918
4.00667443
4.040785366
2.798509977
3.471993483
3.384115103
2.873876668
3.22927118
3.193734245
2.687625866
3.11231831
3.029133376
3.083534527
3.606665762
3.677821667
3.642505093
3.826203648
3.28892512
2.830066235
3.559406283
2.627745064
3.805144732
2.612013763
4.005220004
2.676984179
4.125786038
2.563034793
4.103307285
2.433581999
4.008818045
2.328521245
3.901971245
2.29472767
3.822273289
2.566527256
3.766723141
2.928533107
3.589109666
2.965218385
3.219080274
2.967663935
2.806367138
1.413191197
1.776800799
2.028349684
2.231842272
2.16743548
2.105191859
2.008842391
1.8903643
1.882647443
2.116422885
2.892101178
1.951263256
1.039155991
1.117860108
1.921138891
2.428067572
2.295147086
2.234594829
2.184312981
2.153336245
2.181996267
2.895048674
2.287453567
2.006056032
2.370575892
2.304106035
2.078553282
2.181679159
2.131549355
2.062012285
2.015281378
2.993273402
2.587765354
2.166861029
2.488570473
2.548477369
2.384360414
2.181076336
1.982096536
1.805473127
3.001382293
2.351472772
2.07988532
2.394886997
2.426270836
2.303852306
2.09971351
1.841618364
3.179257513
3.682308763
3.897888075
4.08851439
4.211774179
4.256667141
4.239009863
4.14579892
4.062248951
4.015088502
3.97326519
3.943975296
2.495859855
2.344338003
2.31573054
2.395909514
2.495177327
3.438301932
3.666207399
3.859352151
3.731214933
4.025688174
3.862015714
4.16853562
4.31388336
4.352398762
4.196465069
4.246595644
4.137959738
4.149592971
4.117588814
4.137622526
4.103162456
2.443701398
2.052717262
1.962587605
2.026829096
2.228612232
2.896039662
2.176643583
1.894975501
1.950904861
2.516668033
3.131122419
2.724660274
2.754868598
2.869882368
2.535677622
4.050325687
3.820838887
3.781167801
3.498010525
3.561433078
3.719265237
3.644491963
3.634558651
3.565670196
3.526070859
3.689206083
3.568103247
3.790894283
3.656211562
3.705725651
4.007023386
3.72050297
3.073595642
3.127257928
3.228694075
3.20290587
3.133693017
3.136154678
3.213476807
3.262889097
3.918822581
3.697061848
3.015099948
2.846526302
2.65669535
2.366566039
2.118136917
2.135472373
2.364059046
2.405698557
3.841162242
3.735353217
2.778694922
3.71907718
3.828490494
1.815397044
3.626044839
3.734589739
2.614436745
3.909198064
1.669618563
2.029639192
3.8318074
3.933871875
2.659365417
4.083078307
2.123735262
2.15046582
4.028408184
4.103492601
2.627955172
4.129098371
2.248223664
2.349734886
4.1484934
4.162227465
2.49972738
4.061698303
2.348844075
2.322772795
4.153624613
4.131869614
2.377129593
3.954046187
2.298384685
2.268221191
4.099879329
4.05171131
2.294688177
3.858181361
2.235392337
2.1989586
4.003357155
3.958914286
2.366479037
3.794001063
2.162087211
2.094882075
3.920273551
3.888598522
2.833628408
3.711947318
1.972379169
1.874265616
3.859902763
3.819120719
2.835137574
3.358350017
1.863281882
1.868414373
3.752527226
3.661284539
3.415007753
3.540566915
2.079243202
3.018022758
3.575071421
3.687706637
3.654915599
3.79889014
4.185725813
4.174122247
4.076436583
4.13602632
3.743500015
3.776830147
3.817706115
3.867402917
3.922410887
3.97384627
4.017609075
4.015453679
4.025054044
3.640434418
3.821069165
3.872651574
3.960794945
4.039850854
3.696170802
3.699147925
3.702488765
3.708270843
3.717036137
3.728746643
3.788716626
3.824419798
3.872042542
3.683106851
3.68931691
3.630004485
3.653870243
3.704152408
3.683562121
3.707938927
3.704895769
3.71594556
3.68444772
3.699819732
3.671170954
3.655979071
3.701887003
3.640726554
3.655829168
3.799176194
3.738257795
3.898296789
3.954739967
3.853408696
3.867444688
3.532633184
3.769449495
3.372217403
3.513609399
3.301565666
3.320987353
3.611257264
3.393553639
3.466119214
3.651000766
3.513186915
3.524220963
3.603329009
3.507495711
3.474206971
3.536662327
3.434226838
3.408114394
3.537568637
3.408613244
3.430660192
3.611547802
3.461575904
3.494629026
3.68712821
3.526483441
3.554244498
3.713714741
3.572800303
3.579394707
3.211702761
3.69154064
3.127101765
3.061433338
2.938088323
2.872833344
3.193612498
2.886405605
2.897392523
3.226594283
2.87352816
2.822025079
3.169251468
2.767441271
2.71571816
3.116668519
2.673088179
2.657437974
3.176382048
2.700865928
2.77152494
3.239456072
2.823981329
2.848055447
3.291590051
2.868308534
2.901494745
3.18790047
3.72507886
3.300550535
2.908377579
3.152901555
3.039246395
2.771165524
2.937989375
2.810539941
2.512927626
2.644061933
2.436640695
2.231368459
2.204191767
1.959038443
2.05586387
1.699688533
1.482281306
2.274277848
1.671191555
1.95216644
2.390858294
2.109300979
2.154501656
2.433405121
2.16214725
2.159327302
3.393078673
)
;
    }
    procBoundary2to0
    {
        type            processor;
        value           uniform 0;
    }
    procBoundary2to1
    {
        type            processor;
        value           uniform 0;
    }
    procBoundary2to3
    {
        type            processor;
        value           uniform 0;
    }
}


// ************************************************************************* //
