/*--------------------------------*- C++ -*----------------------------------*\
  =========                 |
  \\      /  F ield         | OpenFOAM: The Open Source CFD Toolbox
   \\    /   O peration     | Website:  https://openfoam.org
    \\  /    A nd           | Version:  8
     \\/     M anipulation  |
\*---------------------------------------------------------------------------*/
FoamFile
{
    version     2.0;
    format      ascii;
    class       volScalarField;
    location    "1.6";
    object      k;
}
// * * * * * * * * * * * * * * * * * * * * * * * * * * * * * * * * * * * * * //

dimensions      [0 2 -2 0 0 0 0];

internalField   nonuniform List<scalar> 
67410
(
0.007382571919
0.009324794242
0.0108360507
0.0120497404
0.01310185182
0.01406586628
0.01502064809
0.01604826155
0.01723297465
0.0186484666
0.02033203981
0.02225739986
0.02432689955
0.02637847122
0.02819120434
0.0294690972
0.0297890542
0.02851361167
0.02490070469
0.01980641182
0.01771315894
0.01813366947
0.01891760655
0.01865759622
0.02002346544
0.02547164126
0.00713553872
0.009503648717
0.01145061332
0.01309795234
0.01462115216
0.01611927809
0.01771130227
0.01952537156
0.02167681421
0.0242269366
0.02714439918
0.03030377945
0.0335199872
0.03657903404
0.03923057257
0.04115835373
0.04190129484
0.04073289741
0.03683829983
0.03061345153
0.02696995014
0.02776878354
0.02869390781
0.02761732296
0.02853940359
0.03490335354
0.006838629575
0.009827238112
0.01202157898
0.01402446733
0.01602418822
0.01810534038
0.02039644623
0.02303445458
0.02610592247
0.02959460094
0.03338136427
0.03729180084
0.04115565331
0.04479638458
0.04798305539
0.05045095291
0.05173151122
0.05096392056
0.04724530719
0.04016305711
0.03454740521
0.0353271845
0.03632032734
0.03436009461
0.03453811987
0.04129707523
0.007710223463
0.01049567002
0.01259248191
0.01481138566
0.01724257739
0.01988872135
0.02283968894
0.02619362596
0.0299695666
0.03408337857
0.03839191775
0.04274102407
0.04708129496
0.05123418108
0.05494774762
0.05790530877
0.05960792388
0.05931477218
0.05592541866
0.04799945744
0.04027270461
0.0407099537
0.04179232779
0.03878357067
0.03761655733
0.04426491919
0.009638707417
0.01139070466
0.01320723794
0.01554355972
0.01834368784
0.02148295834
0.02497772302
0.02886528649
0.03311264477
0.03762800297
0.04233233728
0.04700834927
0.05149270517
0.05568561156
0.05942938357
0.0624474037
0.06429300409
0.06430855614
0.06149687972
0.05418215216
0.04438793091
0.04421010502
0.04530411876
0.04101141359
0.0381649439
0.04408640055
0.010873925
0.01215215003
0.01372117429
0.0161112861
0.019189725
0.0227011875
0.02657878348
0.03081141519
0.03535959196
0.04018511153
0.04494210689
0.04950282433
0.05380813585
0.05776471818
0.06122140916
0.06394027653
0.06554799319
0.06548564519
0.06290542982
0.05633407388
0.04667321227
0.04526828826
0.04571141676
0.04072117238
0.03649567621
0.04117338692
0.01153925562
0.0126618292
0.01401424173
0.01636673922
0.01959154587
0.02331880118
0.02740563704
0.03181601926
0.0365477898
0.04133085851
0.04589734048
0.05018621231
0.05411425841
0.05756011545
0.0603791046
0.06239155333
0.06332995603
0.06276931489
0.0600343714
0.05376308881
0.04486560033
0.04241887204
0.04218356775
0.03739059811
0.03317091427
0.03650371377
0.01182359997
0.01288731323
0.01400162123
0.01617746329
0.01937269734
0.02313343804
0.02724790138
0.03165781625
0.03636153181
0.04096658922
0.04526441033
0.04915686117
0.05250769639
0.05515893787
0.05696655223
0.05781600902
0.05760988048
0.05619456081
0.05309853769
0.04678428559
0.038822842
0.03590804838
0.03540610434
0.0320043835
0.02935248543
0.03185300457
0.01180124678
0.01278980226
0.01363326508
0.01547829074
0.01844147904
0.02203712344
0.02598915605
0.03021873689
0.03470377814
0.03909017655
0.04306907144
0.04645842172
0.04905451221
0.05065327642
0.05111181756
0.05047943247
0.0491782367
0.04750325089
0.04324203991
0.03716473754
0.03103454525
0.02862088781
0.02826257551
0.02698522118
0.02643294618
0.02889473419
0.01157198767
0.01239149371
0.01296415908
0.01436665863
0.01690532302
0.02014360695
0.02373413196
0.02755948496
0.03156389842
0.03560556263
0.03918897932
0.0419968952
0.04374377862
0.04424853242
0.04372196479
0.04342162721
0.04551142269
0.04843310563
0.03660942246
0.02979250645
0.02594831833
0.02444165484
0.02466058918
0.02519023201
0.02476035309
0.02714737216
0.01148708649
0.01197754297
0.01234047807
0.01326605423
0.01519475138
0.01790276256
0.02097766232
0.02417055004
0.02740468484
0.03057384582
0.03343980073
0.03558096526
0.03673191565
0.03740220698
0.03974724536
0.04779611261
0.06331286787
0.07670587087
0.04654719022
0.02864512734
0.02467071397
0.0252852479
0.02784992172
0.02941503307
0.0246719396
0.02581880688
0.01213970058
0.0122530092
0.01254665789
0.01300518081
0.01402821661
0.01590893899
0.01840798549
0.02097152502
0.02335097272
0.025493927
0.02736624773
0.02899352423
0.03095674076
0.03566743433
0.04827390873
0.07306053342
0.1056933177
0.12806093
0.08360829271
0.03710616883
0.02697303285
0.03145466004
0.03810631871
0.04069823651
0.02789783357
0.02525659126
0.01374826318
0.01385850255
0.01428663737
0.01435139475
0.01418796008
0.01464120603
0.01630446446
0.0184676093
0.02048185325
0.02223054096
0.02386305858
0.02600084402
0.03083365252
0.04353158984
0.06994979833
0.1098898626
0.1535907247
0.1795777228
0.1336085384
0.06008895462
0.03334143139
0.04298825584
0.05381897092
0.056989004
0.03743329237
0.02711397004
0.01590194992
0.01650400302
0.01721562767
0.01708848438
0.01598882848
0.01470496906
0.01498718085
0.01679094848
0.01897776455
0.02118505452
0.02348331286
0.0267065569
0.03386419289
0.05082735259
0.08281800152
0.1291470605
0.1770727942
0.1979820159
0.1576719415
0.07413230889
0.04399570085
0.0587104694
0.07158751386
0.07401646724
0.0534439341
0.0344089204
0.01809699923
0.01926374425
0.02029846158
0.02024256436
0.01883149139
0.0162671922
0.01482489856
0.01620211021
0.01907229149
0.02243470376
0.02555302774
0.02798624093
0.03002327556
0.03259281472
0.03791176728
0.05536813812
0.09062640658
0.1169282906
0.09701707509
0.04800850567
0.05822813576
0.07582997624
0.08755326691
0.08880410084
0.06953059659
0.04667584194
0.02035634301
0.02158193232
0.0228471427
0.02311040416
0.02195110834
0.01891477375
0.01589019976
0.01677503766
0.02089764964
0.02617562636
0.03066530614
0.0334996617
0.03595695619
0.03924585683
0.0387420902
0.03544027083
0.04267968878
0.05155181617
0.04264668812
0.05150634551
0.06940617235
0.08638610345
0.09704263841
0.09778034023
0.07938246664
0.05733124679
0.02424531248
0.02397421918
0.0247329025
0.02536247697
0.02482755409
0.02196203528
0.01786764555
0.01844020017
0.02466972857
0.03274982422
0.03893280807
0.04242707701
0.04824901065
0.05971482439
0.05796065926
0.03624017269
0.03312522438
0.0332992203
0.03893534604
0.05263100569
0.06962489725
0.08576515071
0.09604776173
0.09635477069
0.07695216416
0.05811287364
0.03358204953
0.0292743297
0.02682500726
0.02687433205
0.02701977183
0.02466519417
0.02012800846
0.02105775133
0.03062923129
0.04264831748
0.05162810765
0.0587245996
0.07682915526
0.1079375106
0.1037467524
0.04302288551
0.03460256285
0.02969408133
0.02649551065
0.02960971195
0.04148981685
0.06017474598
0.07458104495
0.07596760525
0.04796095353
0.02874433863
0.05055825941
0.04273828847
0.03293440876
0.02864879996
0.02814788961
0.02633636877
0.02176987839
0.02346707049
0.03709664702
0.05444560786
0.06901547692
0.08546626271
0.125677468
0.1828007809
0.1683718427
0.06511447903
0.03652300752
0.02812258138
0.02366896364
0.02255585649
0.02540246163
0.03206119751
0.04265350137
0.04925999068
0.02541885504
0.02122762827
0.07139266268
0.06540833911
0.0491422959
0.0360627193
0.02966534017
0.02677768483
0.02209630814
0.0219678521
0.03595610438
0.05878041998
0.07755540721
0.08406323287
0.09650323736
0.1368940332
0.1551300473
0.04891323343
0.0290591918
0.02441737
0.02343681347
0.02460628531
0.02619186656
0.02710675042
0.02770962605
0.02823047257
0.0239102402
0.02283685082
0.09099742014
0.09189662602
0.07487143617
0.05605056176
0.03853953025
0.02812303816
0.02223859144
0.01697639447
0.0148726852
0.02631153009
0.04296686661
0.05174348483
0.05154991002
0.05960413469
0.06175157599
0.02594325695
0.02428488513
0.02593021274
0.02899136141
0.03232483755
0.0347635439
0.0353810125
0.03488507076
0.03227204735
0.02999672196
0.0284204316
0.108210438
0.1191603362
0.1031618972
0.0855042623
0.06119741501
0.03753028634
0.02457253051
0.01704702566
0.01103153362
0.01307310907
0.02093004847
0.02526405342
0.0236614623
0.02486159016
0.026151584
0.02341136457
0.02699813634
0.03154713964
0.03652180315
0.0412750763
0.04434368886
0.04503373864
0.04483215655
0.04095878211
0.03721459894
0.035309749
0.1250346801
0.1464342729
0.1308039924
0.1180725837
0.09351485517
0.05763596981
0.03318497033
0.02027822872
0.01133221756
0.01011169575
0.01134559576
0.01331155079
0.01564986913
0.018630899
0.02232047121
0.02674362416
0.03162302311
0.03691474491
0.04244821925
0.0471393612
0.05046702711
0.05207230987
0.05292228673
0.04769214323
0.04339431789
0.04185517503
0.1403176
0.1671191068
0.1573250559
0.1601551537
0.1330564451
0.08051888807
0.04604603834
0.02675409436
0.01388337253
0.01125848028
0.01249154365
0.01468360086
0.01762242459
0.02116004035
0.02522397662
0.02974729312
0.03454750941
0.03966095408
0.04459562687
0.04920149282
0.05362587686
0.0575979255
0.05989445624
0.05370807479
0.04783946308
0.04681538625
0.1509313786
0.1765371517
0.1811631405
0.2015799
0.1532411433
0.08753453758
0.05465654598
0.03554754765
0.01804959679
0.0128261185
0.01422104626
0.01668303574
0.01975183674
0.02331950242
0.02728373985
0.03158534128
0.03624893101
0.0412669283
0.04630413574
0.05159838509
0.05727660297
0.06256842278
0.06552478608
0.06132281375
0.05304337051
0.1162423466
0.1425663611
0.1236050339
0.1066101322
0.07067239332
0.0534139019
0.05713160278
0.04776914887
0.0249998346
0.01468761051
0.01556876776
0.01817012892
0.02127744058
0.02474922002
0.02848875669
0.03250124875
0.03701250029
0.04203202034
0.04777778075
0.05433140829
0.06138532583
0.0676088694
0.07090215818
0.06527583621
0.0608423516
0.09561985876
0.09659605545
0.07811625078
0.06859408027
0.05879224113
0.06308342376
0.08362939232
0.07047198165
0.0373086655
0.01761121206
0.01647712102
0.01892332071
0.02198878091
0.02539976887
0.02898163489
0.03267850972
0.03646243158
0.04138610281
0.04814754112
0.05636938366
0.06524285186
0.07261935254
0.0759267018
0.06879890646
0.06986636691
0.07205400546
0.07494684579
0.07926528272
0.07719601436
0.06867858748
0.09033728797
0.1175500314
0.09548380619
0.04976016689
0.02247529887
0.01732811183
0.01901695565
0.02171957758
0.02492110531
0.02832127922
0.03120866732
0.03325857923
0.03577359803
0.03999488045
0.04538398844
0.05142459701
0.05797026719
0.06058007771
0.05533072633
0.05860076838
0.08461705914
0.1002986745
0.1039739957
0.09341332429
0.08396845763
0.1146600861
0.1318128048
0.1002159871
0.04995341742
0.02816064943
0.01894286387
0.01900939743
0.02057742967
0.0225931642
0.02506008761
0.02729518881
0.02891849203
0.03068653823
0.03362718777
0.03881285992
0.03972956382
0.04201325424
0.04402403417
0.04387668696
0.05010662256
0.05852090431
0.1141967294
0.1289667166
0.1269603601
0.1146899979
0.09757268265
0.07974222897
0.07090742575
0.04533064803
0.04014161163
0.03350437516
0.02234902365
0.02029581213
0.02048200389
0.02026502218
0.02115898308
0.02287338142
0.02488495336
0.02730610633
0.0308805074
0.03755336149
0.04495349279
0.0344229578
0.03473974164
0.03530230491
0.03896768662
0.04659645268
0.008096818191
0.01056523102
0.01259188502
0.0141968666
0.0155497325
0.0167097313
0.01774119594
0.0187083154
0.01967952202
0.02072550589
0.0219117326
0.02327781674
0.02480571125
0.02640000366
0.02786786482
0.02890109647
0.029063624
0.02786988133
0.02516421043
0.02193135812
0.02030482421
0.01985877726
0.01977103522
0.01907094286
0.01921030051
0.02270312442
0.008720019358
0.01356699721
0.01655824361
0.01893991434
0.02104030121
0.02290839012
0.02467619454
0.02647853891
0.02846404293
0.03078048506
0.03354868518
0.03681369606
0.04050877788
0.04442183075
0.04815779258
0.05109292732
0.05238815671
0.05123761876
0.04740990289
0.04206552118
0.03846961059
0.03786053275
0.03721323307
0.03447992734
0.03273299943
0.03740821475
0.008392072845
0.01434475877
0.01794899835
0.02087183498
0.02360509485
0.0262032352
0.02881361192
0.03161593695
0.03481832324
0.03860546836
0.04307103535
0.04817999757
0.05374483622
0.05943293158
0.06477666489
0.06901878547
0.07119253489
0.07053597846
0.06647649785
0.05984684245
0.05449893604
0.05368669188
0.05282422857
0.04831352411
0.04408347752
0.04924407772
0.008410982126
0.01511160361
0.01865192876
0.02171089734
0.02494175832
0.02830787531
0.03188180466
0.0358257503
0.04032862399
0.04548475584
0.05124527515
0.05743623421
0.06368987023
0.06974949672
0.07536519374
0.07995968183
0.08273002281
0.08285218839
0.07987606428
0.07443160622
0.06851977302
0.06663071984
0.06509523577
0.05964253685
0.05308231656
0.05657803089
0.01044006592
0.01620494032
0.01918137851
0.02212916543
0.02577580248
0.02992106204
0.0344951731
0.03955520928
0.04513046677
0.05110293312
0.05722415136
0.06348380903
0.06987943529
0.07617036647
0.08195729375
0.086665766
0.08959086462
0.09007044233
0.08780710802
0.08327351254
0.07812117966
0.07449148888
0.07150905619
0.06605358485
0.05836023855
0.0595115347
0.01228523531
0.01729968847
0.01956702473
0.02228547828
0.02622532568
0.03102937717
0.03644235207
0.04230288543
0.04837468112
0.05430764947
0.06036851544
0.06666016648
0.07303840409
0.07918447825
0.08465851074
0.08893397551
0.0914425969
0.09170682293
0.08959412319
0.08557961803
0.08075678556
0.07623779547
0.07226280537
0.06665330065
0.05908605589
0.05876838714
0.01343229307
0.01820419317
0.01986963913
0.02224329108
0.02625777945
0.03145932806
0.03737838955
0.04359036374
0.04957351711
0.05532405442
0.06124069316
0.06732356338
0.07333742365
0.0789185775
0.08365106341
0.08710350066
0.08883856151
0.08849466492
0.0860076603
0.0819600487
0.07726114607
0.07246199838
0.06802034988
0.06252072364
0.0561179587
0.05575654228
0.01397974712
0.01871734258
0.01995167555
0.02188021304
0.02570589697
0.03097139745
0.03702870136
0.04325560008
0.04900413465
0.05451024529
0.06009539934
0.06568097572
0.07099113629
0.07568718886
0.07945517988
0.08200830269
0.08301716891
0.0820889655
0.0789027484
0.07424723769
0.06941804418
0.06466378731
0.06029614322
0.05548639993
0.05138781977
0.05210687437
0.01393650877
0.01856029675
0.01952040449
0.02097785767
0.02441218356
0.02945181643
0.03535615577
0.04141341894
0.04698082681
0.05215872309
0.05723538906
0.06209372619
0.06648515884
0.07019094741
0.07310467061
0.07517751173
0.07617482485
0.07541131638
0.07141828274
0.06498425776
0.05943680028
0.05480897931
0.05134516472
0.04839534838
0.04705239237
0.04907653535
0.01337225631
0.01755405258
0.01835339147
0.01942186635
0.02239880888
0.02704697935
0.03261437237
0.03837620279
0.0437987515
0.04859747028
0.05306672064
0.05713415904
0.06066474825
0.06367932272
0.06646260225
0.06939568027
0.07238309003
0.07392029347
0.06904493136
0.05733833704
0.05085503666
0.04739282594
0.04541633625
0.04431516167
0.04461136106
0.04713405341
0.01272859096
0.01596764422
0.01665714349
0.01747779831
0.02000888505
0.02417750032
0.02929513916
0.03460763311
0.03963904859
0.0441463094
0.04806231849
0.0514936562
0.0545951173
0.05775044302
0.06211639379
0.06974525345
0.08156572896
0.09042515946
0.08296510734
0.05756388722
0.04749379924
0.0453708814
0.0454324994
0.04533802025
0.04494497522
0.04647825474
0.01276713899
0.01467108986
0.01525214494
0.015909597
0.01789885729
0.02137627698
0.0259089806
0.03068841161
0.03514030283
0.03905675931
0.04249286899
0.04565263929
0.04907921794
0.05435801782
0.06510346933
0.08695657803
0.1192583788
0.1390685467
0.1225926905
0.07270362366
0.05054677799
0.04955850065
0.05246188795
0.0525663308
0.04927148223
0.04773335824
0.01380687766
0.01465183136
0.01518565075
0.01564659207
0.01684651844
0.01917675346
0.02280482
0.02704404624
0.03111796563
0.03472687326
0.03803270118
0.04153105675
0.04644921294
0.05600207496
0.07726875011
0.1194149252
0.1731848736
0.1960984776
0.1713381892
0.1051433948
0.06094594523
0.06127215959
0.06756877326
0.06692598567
0.05957251444
0.05228684747
0.01543917671
0.01611797028
0.01686293545
0.01707752929
0.01734504398
0.0181350505
0.02039704797
0.02401518604
0.0280637007
0.03203817256
0.03599418862
0.04039850195
0.04653725135
0.05778907951
0.08196355228
0.1297951721
0.1860381137
0.2079628686
0.1876478961
0.1296869918
0.07701231361
0.08050660706
0.08859417483
0.08654076212
0.07470927272
0.06098288612
0.01713884997
0.01842055793
0.01982362167
0.01989697996
0.01931291081
0.01851255425
0.01906928423
0.02193469594
0.02633591663
0.03141096942
0.03666057041
0.04177351843
0.04701673066
0.05440567813
0.06931798232
0.0996895516
0.1407442153
0.1672073986
0.1579988941
0.1135295724
0.08834864758
0.09894106642
0.1079221403
0.1046187106
0.09040067862
0.07064029109
0.01865342451
0.02079649208
0.02329902917
0.02361842593
0.02247927172
0.02026554814
0.01896369874
0.02086937004
0.02601298723
0.03314687706
0.04061141611
0.04685970381
0.0518039511
0.0562788136
0.06040187863
0.0651011745
0.07728800256
0.09249080703
0.09207054796
0.08181319325
0.09046253852
0.1080384853
0.1171690445
0.1140110364
0.0999565109
0.07645216702
0.02022477164
0.02285356595
0.0264392401
0.02759952693
0.02641586912
0.02314710976
0.01997060948
0.0207622661
0.02735101117
0.0383862728
0.04974467586
0.0578731588
0.06502682263
0.07376004856
0.07545332787
0.06289969223
0.05800885986
0.05929121885
0.06174187832
0.06939513515
0.08569385937
0.104109261
0.113690942
0.1112318083
0.09800382691
0.07597655018
0.02292720875
0.0251179921
0.02867992443
0.03095198042
0.03028126893
0.02644475196
0.02167594334
0.02147900437
0.0310024872
0.04973313578
0.06853959356
0.08255200704
0.1043516322
0.1400351092
0.1293429146
0.0808562377
0.05609667747
0.05195727751
0.05145938635
0.05750940302
0.07184396803
0.08818002691
0.0982547418
0.09631363223
0.08415563724
0.06592695344
0.02831287734
0.02969683651
0.03094344178
0.03274742801
0.03293293233
0.02889901598
0.02307333316
0.02198300644
0.03496664047
0.06389090833
0.09226570977
0.1175506106
0.1700202379
0.2375514888
0.2017206591
0.1176084947
0.05888507944
0.04795766411
0.04454667789
0.04617629637
0.05265240243
0.06330841167
0.07291015196
0.072651632
0.06321522207
0.05246863262
0.03762830101
0.03992576871
0.03722720941
0.03399003327
0.03375601903
0.0295650613
0.02314645824
0.02016676011
0.0314127334
0.06473462053
0.09832223666
0.1233026182
0.1618445561
0.2047288539
0.1965245538
0.1187818487
0.05601954766
0.04457806344
0.04367004566
0.04591989365
0.04957301593
0.05351157332
0.05648519978
0.0568185163
0.05400187502
0.05073585567
0.05335512837
0.06189664158
0.0544858733
0.04028045282
0.03620599979
0.02937203849
0.02270117103
0.01725171585
0.01871095212
0.03610520061
0.06335912844
0.07851608934
0.08262896629
0.0910365072
0.08992044309
0.05331509957
0.04350889022
0.04528598591
0.04936851874
0.05411942091
0.05841701309
0.06131982385
0.06229713818
0.06148452149
0.05982927101
0.05717686715
0.07695318015
0.1007272404
0.09022937192
0.06031473853
0.051089565
0.03261568089
0.02374436872
0.0167005136
0.01348545887
0.01672029982
0.0256331685
0.0327734107
0.0334141627
0.03451925948
0.03808625565
0.03912107744
0.04436158368
0.05124255134
0.05791740592
0.06328745139
0.06750702368
0.07042162248
0.07127034748
0.07127953043
0.07061334438
0.06793466385
0.1031628655
0.1473950747
0.1393478716
0.1080440112
0.09514601639
0.04853925223
0.02828304808
0.01884498829
0.01362535073
0.01420295634
0.01669406676
0.02016125729
0.02401497416
0.0286427111
0.03474316954
0.04190374321
0.04979137086
0.05761404368
0.06424180713
0.06980233659
0.07438846885
0.07758539611
0.07841473266
0.07959163373
0.07992412991
0.07883594452
0.1253972284
0.1840490728
0.1837638537
0.1817994329
0.1618043554
0.08747107467
0.03721760744
0.02352062586
0.01549388832
0.01563025046
0.01801992487
0.02154709524
0.02620815565
0.03192616951
0.03867780804
0.04623844258
0.05408086319
0.06149385934
0.06835443466
0.07480433103
0.08024476181
0.08322164119
0.08414643462
0.08715381551
0.08893280764
0.08939239579
0.1313192533
0.1910988523
0.2023018885
0.215859181
0.180920298
0.1083211056
0.04900626242
0.03173598683
0.01861099064
0.01775522744
0.02062572397
0.02468952712
0.02974607955
0.03569846001
0.0423605607
0.04944821504
0.05655377352
0.06342900602
0.07043427509
0.07763087092
0.08419965003
0.08837761927
0.09048821601
0.09403192927
0.09866509849
0.1056049724
0.1546398087
0.1619073723
0.1421254727
0.1189196408
0.07396896212
0.06434708067
0.04721846717
0.02445116474
0.0201950091
0.02303045085
0.02758546568
0.03299606281
0.03898793731
0.04520618806
0.05138842215
0.05745927881
0.06385575062
0.070870258
0.07843311192
0.08560069246
0.09095885466
0.09569602203
0.1029679706
0.1064678214
0.05451372965
0.09236728279
0.1015833659
0.09408360245
0.07776435815
0.08042562933
0.09912385063
0.07666082809
0.0368823585
0.02374603226
0.02505924351
0.02957350537
0.03510138802
0.04103089072
0.04672015336
0.05179279101
0.05698847907
0.0627773575
0.06965450268
0.07756951103
0.08524058117
0.09143914242
0.09648841858
0.1019611799
0.1062069129
0.05714488405
0.08644477949
0.1077750903
0.1062283421
0.09029612471
0.114422508
0.14142585
0.1111439669
0.05553130567
0.02979266857
0.02735344492
0.03061178504
0.03544995441
0.04084945107
0.04597610152
0.05037736842
0.05467601524
0.05975580264
0.06674061053
0.07610100199
0.08245264464
0.08806059008
0.09356343378
0.0986181003
0.1016849402
0.09177582225
0.1389874156
0.1426202483
0.1256626396
0.1039482319
0.1260094991
0.138242673
0.111385638
0.06490029758
0.03861093361
0.03164175146
0.03201245267
0.0347599895
0.03829050408
0.04243805075
0.04658561941
0.05068503822
0.05595632346
0.06507499853
0.07609419674
0.08211778101
0.08167223104
0.08367979506
0.08714871149
0.09073087347
0.09354128932
0.1154312168
0.1476087111
0.1418935815
0.1202912145
0.09004278789
0.07385338117
0.07906383177
0.074148365
0.06071394219
0.05043275429
0.04037842468
0.03650688796
0.0360744438
0.03594094099
0.03742656452
0.04060187195
0.04483570873
0.0504901411
0.05896949292
0.06956402377
0.07614411843
0.07628739527
0.07424363478
0.07591538566
0.07992320575
0.08381306202
0.008873076723
0.01166780816
0.01406380544
0.01597339468
0.0175625673
0.01888974428
0.0200139601
0.02099203688
0.02188242756
0.02274426349
0.02363631876
0.02460841549
0.02568155497
0.02682284928
0.02791785219
0.02874663171
0.02899475434
0.02834939135
0.02675860261
0.02478769658
0.02341413255
0.02250524694
0.0218519895
0.02085488248
0.02024330595
0.02193191746
0.01009795915
0.01619670804
0.01998397744
0.02298702776
0.02557178815
0.02777355429
0.02972284583
0.03154796068
0.03339035659
0.03539995555
0.03772655043
0.04048909143
0.04372469631
0.04732980211
0.05099561188
0.05416820944
0.05610770774
0.05613650715
0.05401003213
0.05034815818
0.04708375246
0.04540009461
0.04377937053
0.0407609308
0.03794068626
0.03995388939
0.009873401267
0.01726051398
0.02189244889
0.02555725943
0.02881145641
0.03172870239
0.03444696715
0.03712250123
0.03995501015
0.04316101773
0.04693853438
0.05141673835
0.05658862391
0.06224562156
0.06793466455
0.0729362969
0.07634538433
0.07732974287
0.0754680256
0.07124753173
0.06689308018
0.06472612679
0.06269229702
0.05835439565
0.05319365655
0.05447712981
0.009367886055
0.01786184549
0.02259414108
0.02634503872
0.02998725222
0.03354428575
0.03705385403
0.04062430454
0.04445691417
0.04878310029
0.05379462204
0.05957641799
0.06603674443
0.07285469702
0.07948889707
0.08526321785
0.08937998598
0.09110597721
0.09009613953
0.08661497208
0.08209418722
0.07915336084
0.07661267233
0.07185784766
0.06530416894
0.06460311625
0.01085902477
0.01894169506
0.02303951009
0.02645525871
0.03027215999
0.03439013276
0.03865563306
0.04305687916
0.04774026086
0.05290574236
0.05871345263
0.06518333517
0.07214220242
0.0792264156
0.08589906362
0.0915536818
0.09557432487
0.09744466534
0.09690500964
0.09410333486
0.08998399704
0.08630403356
0.08317209347
0.07864479888
0.07205300517
0.06949341419
0.01316885972
0.02023639839
0.02339839029
0.02627346769
0.0300793815
0.03459985206
0.03946364971
0.04449439831
0.04974147021
0.05536447315
0.06149745308
0.06812246458
0.07499272108
0.08168920254
0.08772883936
0.09264705865
0.09602899433
0.09755021666
0.09704096848
0.09456744673
0.09065544907
0.08657236234
0.08302086335
0.07894558487
0.07306171678
0.06958392752
0.01468917601
0.02141211346
0.02375882364
0.02600415351
0.02958467549
0.03426389806
0.03948442869
0.04488565481
0.05040446101
0.056155551
0.06224076307
0.06859527991
0.07493137747
0.08083011222
0.08590826103
0.08986150445
0.09242476162
0.09334702043
0.09246612632
0.08991914672
0.08616696974
0.08213193655
0.07855867555
0.07485579431
0.06989427392
0.06659219691
0.01541485053
0.02210102361
0.02392340969
0.02555901284
0.02874127395
0.03334142331
0.03868531955
0.04423496999
0.04980182026
0.05542268008
0.06115399877
0.0669147575
0.07242327886
0.07734225299
0.08143929126
0.08456717938
0.08652158865
0.08693095978
0.08542417197
0.08238289635
0.07868461148
0.07503775416
0.07180884801
0.06852302745
0.06471539569
0.06241686339
0.01534941993
0.02190138517
0.02346876749
0.02464023434
0.02739639829
0.03179348217
0.03711627171
0.04267473129
0.04814326323
0.05345911785
0.05862869993
0.0635927004
0.06816387409
0.07216561272
0.07558231611
0.07846442818
0.08059306515
0.08110138636
0.07879698224
0.07448341954
0.07039932673
0.067265388
0.06465703487
0.06212809581
0.05973220541
0.05867761295
0.01459062659
0.02058915775
0.0220620132
0.02298916137
0.02544801829
0.02965385228
0.0349051287
0.04040097565
0.0456945894
0.05063734093
0.05518834753
0.05936019652
0.06313822774
0.06662323281
0.07020806378
0.07439485721
0.07888517588
0.08123082001
0.07774773875
0.06993386121
0.06384553697
0.06106982213
0.05956845462
0.05819652669
0.0568768579
0.05651899016
0.01362348777
0.01844068535
0.01982815425
0.0207048556
0.02303243616
0.02708710537
0.03223212543
0.03761628644
0.04270765501
0.04730068926
0.05138822136
0.05505706287
0.0585309667
0.06245280838
0.06820916198
0.07751993791
0.08967954586
0.09743223301
0.09167959163
0.07487088963
0.06235790298
0.05945478227
0.05936557246
0.05888365845
0.05754665846
0.05674667397
0.01325371246
0.01630841363
0.01749369666
0.01841046367
0.02064404259
0.02444279447
0.02934528545
0.03455374738
0.03947399313
0.043854166
0.04773938481
0.05136511864
0.05533985839
0.06134373881
0.0729202407
0.0940956452
0.1218683385
0.1378412093
0.1288704733
0.09714715171
0.06944495401
0.06466730963
0.06578600023
0.065399591
0.06275529158
0.06009095777
0.01386033461
0.01525382854
0.01617140573
0.01708578858
0.01905680948
0.02225525088
0.02658085095
0.03148360671
0.03634069686
0.04080959954
0.04493472358
0.04907776471
0.05433005055
0.06377870881
0.08358662904
0.1198087887
0.1630388936
0.1824536828
0.1733530315
0.1325575157
0.08597309893
0.0773807401
0.07873234358
0.07735097114
0.07253677445
0.06695344517
0.01507481455
0.01578859933
0.01668658484
0.01750636496
0.01895644797
0.02111293342
0.02435722544
0.02870629439
0.03363365501
0.03865184586
0.04363333233
0.04876707355
0.05514324871
0.06621029221
0.08870202855
0.1288059513
0.1742742608
0.1934120133
0.187677682
0.1519368837
0.1032739258
0.09382621809
0.09519703113
0.0923433602
0.08513066214
0.07643560863
0.01640215477
0.01754620137
0.01898962676
0.01979570665
0.02056735871
0.02137789383
0.02303833238
0.02648321386
0.0316156669
0.03778136271
0.04433487039
0.05062662948
0.05687298064
0.06545570467
0.08153620642
0.1112661976
0.1504695592
0.1725879656
0.1643578506
0.1345521705
0.1064009744
0.1061142383
0.1088077757
0.1053151621
0.09724570666
0.08601805322
0.01758949733
0.01981395465
0.02238987736
0.02355266821
0.02368379453
0.02303837107
0.02276202765
0.02492937778
0.0304924363
0.03877831136
0.048020628
0.05593304551
0.06224372919
0.06847366032
0.07482496065
0.08488004519
0.1040474783
0.1213827155
0.1188901942
0.1046969961
0.1026065923
0.1114204908
0.1152679002
0.1128903546
0.1062168998
0.0925228675
0.01864397771
0.02206757276
0.0260605579
0.02804362037
0.02774424178
0.02571058392
0.02339312813
0.02410112765
0.03081672023
0.04338132934
0.05768032154
0.06881239544
0.07857801676
0.08878687328
0.08911300185
0.0792840146
0.07490556415
0.07806701273
0.08180959645
0.08658645161
0.09792905737
0.1104870166
0.1155264579
0.1140738437
0.1078077773
0.09266245202
0.02001524634
0.02431641416
0.02930087111
0.03224369841
0.03180765985
0.02863491896
0.02449738961
0.02399171996
0.03342766358
0.05402965735
0.07696618289
0.09503897878
0.1179586097
0.1453981059
0.1433355038
0.1050445753
0.07451025737
0.06676078022
0.06904916945
0.07719673325
0.0904415414
0.1040441913
0.1108154188
0.109617044
0.1020969264
0.08662244942
0.02301210773
0.02792787911
0.03220170129
0.03514648615
0.03484657663
0.0308418611
0.02526898326
0.02388829133
0.03689136934
0.06757507885
0.1002782523
0.127162079
0.1661698459
0.2069202678
0.2082811144
0.1537867345
0.0873794184
0.06516651919
0.06370457188
0.06890706425
0.07879344223
0.09029895358
0.09784757959
0.09765225229
0.09000435431
0.07853333911
0.03021760174
0.03694231448
0.03781356808
0.03700384408
0.03646419931
0.03180592688
0.02497081064
0.02213329626
0.03503038863
0.06992199069
0.1071623716
0.1353711302
0.1737245226
0.2147984825
0.2128354015
0.1608449695
0.08799894981
0.06390616701
0.062011705
0.06522274082
0.0704542356
0.07659372414
0.08156027409
0.0825844543
0.07857431136
0.07484893714
0.04481628798
0.05806891818
0.05446696106
0.04336761892
0.03936876703
0.03307675565
0.02422038447
0.01913393602
0.02507373681
0.04914014085
0.08141509539
0.1014183182
0.1192279237
0.1441286152
0.1433081604
0.09372654455
0.06526921417
0.06128799825
0.06367174096
0.06699540809
0.07012770245
0.07306135276
0.07538275674
0.07633631412
0.07535930405
0.0737084036
0.06772242877
0.09574790473
0.09049195122
0.06842982932
0.05635071025
0.04245222905
0.0253829218
0.01759188876
0.01669820737
0.02366726326
0.03783324468
0.04950323459
0.05336271578
0.05735455943
0.06122512102
0.05670970317
0.05784924233
0.06223851188
0.06643633774
0.06964947275
0.07222390568
0.07447672634
0.07618363113
0.07727981457