/*--------------------------------*- C++ -*----------------------------------*\
  =========                 |
  \\      /  F ield         | OpenFOAM: The Open Source CFD Toolbox
   \\    /   O peration     | Website:  https://openfoam.org
    \\  /    A nd           | Version:  8
     \\/     M anipulation  |
\*---------------------------------------------------------------------------*/
FoamFile
{
    version     2.0;
    format      ascii;
    class       volScalarField;
    location    "1.6";
    object      N2;
}
// * * * * * * * * * * * * * * * * * * * * * * * * * * * * * * * * * * * * * //

dimensions      [0 0 0 0 0 0 0];

internalField   nonuniform List<scalar> 
67410
(
0.7900004648
0.7900007594
0.7900009226
0.7900010277
0.7900010915
0.7900011261
0.7900011412
0.7900011428
0.7900011349
0.7900011225
0.790001112
0.7900011113
0.790001126
0.7900011577
0.7900012039
0.7900012579
0.7900013086
0.7900013401
0.7900013361
0.7900013066
0.7900013232
0.7900013752
0.7900014093
0.7900013871
0.7900013325
0.7900012851
0.7900002131
0.7900005036
0.7900007153
0.7900008502
0.7900009331
0.7900009826
0.7900010091
0.7900010174
0.7900010127
0.7900010033
0.7900009994
0.7900010092
0.790001036
0.7900010775
0.7900011291
0.790001184
0.7900012306
0.7900012543
0.7900012429
0.7900012322
0.7900013063
0.7900014201
0.7900014597
0.7900013767
0.7900012431
0.7900011518
0.7899999062
0.7900002618
0.7900005368
0.7900007164
0.7900008312
0.7900008982
0.7900009284
0.7900009312
0.7900009193
0.7900009078
0.7900009082
0.7900009251
0.7900009575
0.7900009998
0.7900010481
0.7900010969
0.790001136
0.7900011566
0.7900011543
0.7900011832
0.7900013137
0.7900014477
0.7900014671
0.7900013553
0.7900012018
0.7900010952
0.7899996328
0.7900000836
0.7900003963
0.7900006241
0.7900007712
0.790000847
0.7900008705
0.7900008632
0.7900008468
0.7900008374
0.7900008426
0.7900008619
0.7900008935
0.7900009294
0.7900009675
0.7900010032
0.790001031
0.7900010458
0.7900010556
0.7900011333
0.7900013156
0.7900014383
0.7900014285
0.7900013326
0.7900012059
0.7900010727
0.7899996177
0.7899999364
0.7900002697
0.7900005506
0.7900007264
0.7900008029
0.7900008166
0.7900008028
0.7900007863
0.7900007798
0.7900007875
0.7900008067
0.7900008341
0.7900008655
0.7900008968
0.7900009236
0.7900009414
0.7900009493
0.7900009638
0.7900010643
0.790001295
0.7900013949
0.790001351
0.7900012884
0.7900011988
0.7900010267
0.7899995073
0.7899997525
0.7900001261
0.790000469
0.7900006744
0.7900007529
0.7900007624
0.7900007479
0.7900007338
0.7900007285
0.7900007382
0.7900007597
0.7900007871
0.7900008163
0.7900008432
0.7900008637
0.7900008742
0.790000877
0.7900008953
0.7900009989
0.790001237
0.7900013265
0.7900012647
0.7900012151
0.7900011463
0.7900009383
0.7899993072
0.789999521
0.7899999459
0.7900003579
0.7900006019
0.7900006933
0.790000708
0.7900006976
0.7900006855
0.7900006847
0.7900006989
0.7900007225
0.7900007502
0.7900007784
0.7900008034
0.790000821
0.7900008283
0.7900008302
0.7900008549
0.7900009479
0.7900011608
0.7900012529
0.7900011917
0.7900011334
0.7900010448
0.7900008232
0.7899990608
0.7899992493
0.7899997168
0.7900001989
0.7900004971
0.7900006193
0.7900006517
0.790000652
0.7900006454
0.7900006492
0.790000666
0.7900006905
0.7900007184
0.7900007459
0.7900007695
0.7900007857
0.7900007934
0.7900008025
0.7900008462
0.7900009115
0.7900010714
0.79000117
0.7900011361
0.7900010622
0.790000929
0.7900007242
0.7899987749
0.7899989377
0.7899994261
0.7899999703
0.7900003408
0.790000519
0.790000587
0.7900006079
0.7900006115
0.7900006185
0.7900006355
0.7900006588
0.7900006842
0.7900007062
0.7900007195
0.7900007217
0.7900007202
0.7900007532
0.7900008575
0.7900008757
0.790000969
0.7900010547
0.7900010637
0.7900009912
0.7900008335
0.7900006528
0.7899984291
0.7899985764
0.78999906
0.7899996433
0.7900001012
0.7900003685
0.7900004973
0.790000554
0.7900005787
0.7900005909
0.790000606
0.7900006226
0.7900006351
0.7900006311
0.7900005975
0.7900005325
0.7900004779
0.7900005786
0.7900007856
0.7900007965
0.7900008499
0.7900008938
0.7900009088
0.7900008659
0.7900007382
0.7900005834
0.7899980148
0.7899981677
0.7899986177
0.789999197
0.7899997422
0.7900001361
0.7900003595
0.7900004721
0.7900005309
0.7900005643
0.7900005834
0.7900005844
0.7900005653
0.7900004902
0.7900003376
0.7900001638
0.7900001901
0.7900005717
0.7900005775
0.7900006452
0.7900006841
0.7900006938
0.7900006909
0.7900007027
0.7900006204
0.7900005103
0.7899976023
0.7899977639
0.7899981417
0.7899986538
0.7899992496
0.7899997939
0.7900001497
0.7900003382
0.7900004366
0.7900004919
0.7900005199
0.7900005102
0.7900004325
0.7900002494
0.7900000097
0.7899999966
0.7900005112
0.7900012379
0.7900005904
0.7900005205
0.7900004979
0.7900004976
0.7900005255
0.7900005991
0.7900004814
0.7900004186
0.7899973015
0.789997442
0.7899977117
0.7899981035
0.7899986675
0.7899993267
0.7899998403
0.7900001273
0.7900002662
0.7900003281
0.790000348
0.7900003148
0.7900001881
0.7899999836
0.7899999497
0.7900004751
0.7900014743
0.7900022133
0.7900010211
0.7900005641
0.7900003612
0.790000386
0.7900004802
0.7900005681
0.7900003614
0.7900003135
0.7899971307
0.7899972282
0.7899973917
0.7899976573
0.7899981127
0.7899987745
0.7899994211
0.7899998342
0.7900000362
0.7900001143
0.7900001367
0.7900001153
0.7900000487
0.7900000411
0.7900003607
0.7900011537
0.7900020962
0.7900024445
0.7900013804
0.7900007606
0.7900003568
0.7900004008
0.7900005248
0.790000572
0.7900003304
0.7900002189
0.7899970329
0.7899971108
0.7899972048
0.7899973652
0.7899976808
0.7899982198
0.789998901
0.7899994388
0.7899997209
0.7899998298
0.7899998863
0.7899999307
0.7899999567
0.7899999911
0.7900000623
0.7900001331
0.7900003356
0.7900006854
0.7900007345
0.7900002521
0.7900003281
0.7900004468
0.7900005748
0.7900005746
0.7900003743
0.7900001791
0.7899969226
0.7899970605
0.7899971345
0.7899972164
0.7899974025
0.7899977574
0.7899983488
0.7899989735
0.7899993373
0.78999948
0.7899995553
0.7899995788
0.7899995329
0.7899995605
0.7899997938
0.7900000193
0.7900001895
0.7900003614
0.7900002321
0.7900002366
0.7900003487
0.7900004724
0.7900005524
0.7900004686
0.7900002879
0.7900001499
0.7899966392
0.7899969882
0.7899971283
0.7899971755
0.7899972627
0.7899974434
0.7899978601
0.7899985147
0.78999897
0.7899991802
0.7899992672
0.7899991639
0.7899989421
0.7899990918
0.7899995812
0.789999858
0.789999905
0.7900000177
0.7900000922
0.7900001636
0.7900002469
0.790000325
0.7900003524
0.7900002104
0.7900000178
0.7899999345
0.7899960285
0.7899967294
0.7899970902
0.7899971922
0.7899972302
0.7899972874
0.7899975134
0.7899981464
0.7899987224
0.7899990351
0.7899990658
0.7899987369
0.7899986563
0.7899995973
0.7900000983
0.7899996721
0.7899996852
0.7899997275
0.7899997238
0.7899997236
0.7899997446
0.7899998226
0.7899998881
0.7899998147
0.7899994756
0.7899993461
0.7899953465
0.7899961934
0.7899968456
0.7899971561
0.7899972603
0.7899972595
0.7899973445
0.7899979125
0.789998645
0.7899990897
0.7899991044
0.7899989041
0.7899996455
0.7900013361
0.7900013514
0.7899995838
0.7899994985
0.7899993285
0.7899992752
0.7899992086
0.7899991833
0.7899992806
0.7899994695
0.7899995352
0.789998835
0.7899987466
0.7899951924
0.7899957557
0.7899962854
0.7899968324
0.7899972155
0.7899972946
0.7899973262
0.7899977148
0.789998556
0.78999923
0.7899994246
0.7899992918
0.7899991291
0.7899995245
0.7900002192
0.7899992161
0.789999063
0.7899988078
0.7899986997
0.7899986399
0.7899986219
0.7899986221
0.7899986269
0.7899986549
0.7899981327
0.7899979394
0.7899958014
0.7899959234
0.7899957321
0.7899961336
0.7899969004
0.7899972628
0.7899973822
0.7899974377
0.7899977496
0.7899984523
0.7899989149
0.7899990976
0.7899991153
0.7899990836
0.7899992023
0.7899985734
0.7899983684
0.7899982662
0.7899983129
0.7899984173
0.7899985041
0.789998502
0.7899984294
0.7899982536
0.7899979201
0.7899978378
0.7899970001
0.7899967047
0.7899955603
0.7899955462
0.7899964303
0.7899970544
0.7899974237
0.789997608
0.789997607
0.7899978121
0.7899983356
0.7899985022
0.7899983548
0.7899982693
0.7899981581
0.7899978229
0.7899978677
0.7899980245
0.7899982614
0.7899985099
0.7899986702
0.7899986633
0.789998594
0.7899983186
0.7899979519
0.7899977941
0.7899985212
0.7899977704
0.7899958753
0.7899960847
0.7899965236
0.7899968438
0.7899973373
0.7899977331
0.7899976879
0.7899972218
0.7899970613
0.7899970432
0.7899970154
0.7899970591
0.7899971996
0.7899973986
0.7899976791
0.789998007
0.7899983524
0.7899986528
0.7899988389
0.7899988547
0.7899988495
0.7899984684
0.7899981084
0.7899979356
0.7900000893
0.78999869
0.7899970798
0.789998433
0.7899978076
0.7899972091
0.7899973276
0.7899977927
0.7899979251
0.7899972158
0.7899967295
0.7899965564
0.7899965804
0.7899967364
0.7899969862
0.7899972969
0.7899976463
0.7899980063
0.7899983384
0.7899986199
0.7899988443
0.7899990123
0.7899991174
0.7899985979
0.7899982105
0.7899980142
0.7900015734
0.7899998119
0.7900002678
0.7900023923
0.7899997035
0.7899981864
0.7899976811
0.7899979576
0.789998194
0.7899975037
0.7899969015
0.7899966274
0.7899966004
0.7899967389
0.7899969877
0.789997306
0.7899976617
0.7899980218
0.7899983511
0.7899986418
0.7899989038
0.7899991398
0.7899992742
0.789998805
0.7899982853
0.7900008342
0.7899988896
0.7899979383
0.789997972
0.7899973113
0.7899972862
0.789997792
0.7899982455
0.789998469
0.7899978868
0.7899972371
0.7899968778
0.7899967644
0.7899968351
0.7899970349
0.7899973203
0.7899976546
0.7899980016
0.7899983383
0.7899986621
0.7899989894
0.7899992929
0.7899994296
0.7899988449
0.7899984147
0.7900018382
0.789999244
0.7899983055
0.789997846
0.7899973856
0.7899976785
0.789998468
0.7899987601
0.7899988046
0.7899982916
0.7899976112
0.7899971785
0.7899969653
0.7899969422
0.7899970647
0.7899972876
0.7899975687
0.7899978953
0.7899982571
0.7899986416
0.7899990702
0.7899994521
0.7899995895
0.7899989324
0.7899987844
0.7900004879
0.7899993914
0.7899989439
0.7899984221
0.7899978915
0.7899988773
0.7899994532
0.7899993928
0.7899992593
0.7899987182
0.7899980111
0.7899975291
0.7899972168
0.7899970768
0.7899970864
0.7899971933
0.7899973373
0.7899975175
0.7899977502
0.789997998
0.7899982862
0.7899985447
0.7899986296
0.7899982584
0.7899983027
0.7899988011
0.7899990512
0.7899993053
0.7899992205
0.7899990222
0.790000217
0.7900002854
0.7899997945
0.7899995926
0.78999908
0.7899984099
0.7899979363
0.789997562
0.7899972924
0.7899971426
0.7899971014
0.7899971187
0.7899971735
0.7899972447
0.7899972951
0.7899975607
0.7899978033
0.7899979365
0.7899978747
0.7899980964
0.78999835
0.7899989504
0.7899993489
0.7899999086
0.7900001135
0.789999958
0.7899993017
0.7899991582
0.7899989755
0.7899993803
0.7899991787
0.7899987265
0.7899983425
0.7899980023
0.7899976845
0.7899973996
0.7899972022
0.7899971046
0.7899970995
0.7899971722
0.7899973723
0.7899979307
0.7899975178
0.7899975685
0.78999757
0.7899977122
0.7899979533
0.7900004646
0.7900007635
0.7900009223
0.7900010267
0.7900010933
0.7900011332
0.7900011557
0.790001167
0.7900011713
0.7900011722
0.7900011733
0.7900011783
0.7900011902
0.7900012103
0.7900012375
0.790001268
0.7900012959
0.7900013135
0.7900013135
0.7900012999
0.7900013053
0.7900013311
0.7900013509
0.7900013527
0.7900013502
0.7900013516
0.7900002237
0.7900005049
0.7900006988
0.7900008268
0.7900009104
0.7900009665
0.7900010059
0.7900010338
0.7900010531
0.7900010664
0.7900010767
0.7900010865
0.7900010973
0.7900011095
0.7900011228
0.7900011362
0.7900011494
0.7900011606
0.7900011713
0.7900011934
0.7900012409
0.790001299
0.7900013252
0.7900013094
0.7900012675
0.7900012019
0.7899999233
0.79000025
0.7900004957
0.7900006581
0.7900007692
0.7900008463
0.7900008995
0.7900009343
0.7900009544
0.7900009632
0.7900009634
0.7900009575
0.790000948
0.7900009387
0.7900009316
0.790000929
0.7900009345
0.7900009485
0.790000982
0.7900010496
0.7900011388
0.7900011971
0.7900012069
0.7900011884
0.7900011474
0.7900010269
0.7899996215
0.7900000478
0.7900003199
0.7900005163
0.7900006575
0.7900007517
0.7900008098
0.7900008412
0.790000852
0.7900008465
0.790000829
0.7900008044
0.7900007761
0.7900007515
0.7900007334
0.7900007234
0.7900007231
0.7900007388
0.790000786
0.7900008795
0.7900009961
0.7900010439
0.7900010375
0.790001032
0.790001029
0.7900008878
0.7899995755
0.7899998845
0.7900001508
0.7900003845
0.790000557
0.7900006622
0.7900007168
0.7900007368
0.7900007331
0.7900007133
0.7900006819
0.7900006448
0.7900006084
0.7900005774
0.7900005542
0.7900005396
0.7900005361
0.7900005537
0.7900006113
0.790000722
0.7900008472
0.7900008949
0.7900008843
0.7900008858
0.7900009198
0.7900007821
0.7899994818
0.7899996783
0.7899999536
0.7900002368
0.7900004453
0.7900005603
0.7900006085
0.7900006171
0.7900006031
0.7900005771
0.7900005384
0.7900004972
0.7900004611
0.7900004335
0.790000415
0.7900004044
0.790000404
0.7900004245
0.7900004863
0.7900006014
0.7900007305
0.790000781
0.7900007709
0.7900007818
0.7900008303
0.790000702
0.7899992579
0.7899994034
0.7899997093
0.7900000534
0.790000306
0.7900004365
0.7900004841
0.790000489
0.790000476
0.7900004488
0.7900004118
0.7900003769
0.7900003503
0.7900003343
0.790000328
0.790000329
0.7900003379
0.7900003643
0.7900004267
0.7900005353
0.7900006581
0.790000714
0.7900007124
0.7900007295
0.7900007651
0.79000064
0.7899989602
0.7899990765
0.7899994183
0.789999826
0.7900001318
0.7900002901
0.7900003495
0.7900003621
0.7900003589
0.7900003402
0.7900003143
0.7900002928
0.790000281
0.7900002806
0.7900002901
0.7900003063
0.7900003294
0.7900003658
0.7900004271
0.7900005204
0.7900006278
0.7900006899
0.7900007044
0.7900007206
0.7900007138
0.7900005829
0.7899986174
0.7899987192
0.7899990934
0.7899995575
0.7899999224
0.7900001243
0.7900002118
0.7900002441
0.7900002581
0.7900002584
0.7900002503
0.7900002457
0.7900002499
0.7900002642
0.7900002868
0.7900003158
0.7900003548
0.7900004052
0.7900004602
0.7900005302
0.7900006181
0.7900006861
0.7900007138
0.7900007123
0.7900006536
0.7900005154
0.7899982406
0.7899983495
0.7899987508
0.7899992549
0.7899996778
0.7899999397
0.7900000738
0.7900001391
0.7900001755
0.7900002015
0.7900002159
0.7900002297
0.7900002478
0.790000272
0.7900003015
0.7900003355
0.7900003861
0.7900004457
0.7900004865
0.7900005222
0.7900005839
0.7900006384
0.7900006686
0.7900006543
0.790000569
0.7900004361
0.7899978541
0.7899979873
0.7899984028
0.789998921
0.7899993917
0.7899997274
0.7899999277
0.7900000405
0.790000109
0.790000157
0.7900001951
0.7900002302
0.7900002605
0.7900002959
0.7900003316
0.7900003507
0.7900003623
0.7900003923
0.7900004741
0.7900004582
0.7900004986
0.7900005349
0.7900005563
0.7900005422
0.7900004635
0.79000035
0.7899975198
0.7899976662
0.7899980611
0.7899985568
0.7899990535
0.7899994692
0.789999753
0.7899999264
0.790000035
0.7900001109
0.7900001708
0.7900002234
0.7900002743
0.7900003239
0.7900003438
0.7900002936
0.7900002431
0.7900002642
0.7900004523
0.7900003705
0.7900003921
0.79000041
0.7900004257
0.7900004093
0.7900003512
0.7900002608
0.7899972936
0.7899974189
0.7899977406
0.7899981762
0.7899986667
0.789999148
0.7899995256
0.7899997731
0.7899999273
0.7900000287
0.7900001058
0.7900001748
0.7900002451
0.7900003009
0.7900002823
0.7900001756
0.790000114
0.7900001536
0.7900004015
0.7900003093
0.7900002937
0.7900002852
0.7900002974
0.7900002692
0.7900002296
0.7900001688
0.7899971648
0.7899972389
0.7899974491
0.7899978054
0.7899982628
0.7899987675
0.7899992267
0.7899995637
0.789999778
0.7899999075
0.7899999964
0.7900000741
0.7900001535
0.7900002016
0.7900001365
0.7899999935
0.7899999403
0.7899999872
0.7900002481
0.7900002395
0.7900002125
0.7900001836
0.7900001981
0.7900001482
0.7900000994
0.7900000641
0.7899970899
0.7899971024
0.7899971896
0.7899974586
0.7899978692
0.7899983506
0.7899988476
0.7899992764
0.7899995679
0.7899997311
0.7899998258
0.7899999
0.7899999711
0.7900000292
0.7900000676
0.7900001115
0.7900001855
0.7900002427
0.7900002649
0.7900001648
0.7900001257
0.7900001181
0.790000111
0.7900000278
0.789999955
0.7899999251
0.7899970462
0.789997018
0.7899969936
0.7899971622
0.7899975057
0.7899979351
0.7899984161
0.7899989184
0.7899993012
0.7899995037
0.7899996041
0.789999687
0.7899997735
0.7899998297
0.7899998635
0.7899998931
0.7899999487
0.7900000198
0.7900000603
0.7899999945
0.7900000132
0.7900000314
0.7899999965
0.7899998879
0.7899998317
0.7899997556
0.7899970185
0.7899970136
0.7899969158
0.7899969714
0.7899972112
0.7899975597
0.7899979821
0.78999852
0.7899989973
0.7899992437
0.7899993584
0.7899994632
0.7899995553
0.789999551
0.7899996364
0.789999671
0.7899997312
0.7899997928
0.7899998314
0.789999814
0.7899998433
0.7899998673
0.7899998246
0.789999698
0.7899996091
0.7899995013
0.7899969647
0.7899970831
0.7899969805
0.7899969377
0.7899970451
0.7899972739
0.789997602
0.789998115
0.7899986595
0.7899989459
0.789999079
0.789999178
0.789999224
0.7899991923
0.7899993786
0.7899993929
0.7899994616
0.7899995028
0.7899995348
0.7899995541
0.7899995866
0.7899996284
0.7899996099
0.7899994885
0.789999358
0.7899992206
0.7899968254
0.789997141
0.7899971306
0.7899970592
0.7899970389
0.789997144
0.7899973484
0.7899977567
0.7899982974
0.7899986235
0.7899987751
0.7899987801
0.7899987189
0.7899986548
0.7899989703
0.7899991229
0.789999146
0.7899991683
0.7899992084
0.7899992305
0.7899992453
0.7899992774
0.7899992796
0.7899991801
0.7899990024
0.7899988498
0.7899966111
0.7899970672
0.7899972163
0.7899972476
0.7899971811
0.7899971948
0.7899972861
0.7899975177
0.7899979425
0.7899982983
0.7899985088
0.7899986564
0.7899989595
0.7899992507
0.7899991799
0.789999034
0.7899989092
0.7899988796
0.7899989265
0.7899989719
0.7899990033
0.7899990081
0.7899989711
0.7899988704
0.7899986284
0.789998311
0.7899963785
0.7899968203
0.7899971335
0.7899973244
0.789997377
0.7899973772
0.7899974072
0.7899974738
0.7899976776
0.7899980756
0.789998324
0.7899984038
0.7899984818
0.7899985617
0.789998577
0.7899984622
0.7899985059
0.7899986205
0.7899987762
0.7899989293
0.7899990366
0.7899990645
0.7899990015
0.7899988589
0.7899986712
0.7899985342
0.7899962884
0.7899965875
0.7899969171
0.7899971963
0.789997488
0.7899975822
0.7899976128
0.7899976476
0.789997557
0.7899976014
0.7899978365
0.7899979555
0.7899979684
0.7899979916
0.7899980446
0.7899980703
0.7899982625
0.7899985208
0.7899988039
0.789999046
0.7899992071
0.7899992691
0.7899992036
0.7899990353
0.7899988093
0.7899985665
0.7899965331
0.789996601
0.7899967765
0.7899968921
0.7899974568
0.7899976476
0.7899977954
0.7899978825
0.7899976454
0.7899972357
0.7899970679
0.7899970798
0.7899971465
0.7899972741
0.7899974954
0.789997784
0.7899981321
0.7899985057
0.7899988636
0.7899991648
0.789999382
0.7899994936
0.7899994367
0.7899992488
0.7899989868
0.7899987476
0.7899970508
0.7899969118
0.7899970637
0.7899970788
0.7899975525
0.7899976077
0.7899978858
0.7899980697
0.7899978702
0.7899972617
0.7899968401
0.7899967108
0.7899967883
0.7899970007
0.7899973082
0.7899976767
0.7899980815
0.7899984937
0.7899988835
0.7899992279
0.7899995024
0.7899996627
0.78999963
0.789999453
0.7899991443
0.7899988968
0.7899975472
0.7899972851
0.7899976198
0.7899972809
0.7899975046
0.7899974676
0.7899978942
0.7899982282
0.7899981339
0.7899975235
0.7899970123
0.7899967817
0.7899967928
0.7899969743
0.7899972691
0.789997633
0.7899980334
0.7899984448
0.7899988418
0.7899992092
0.7899995266
0.789999741
0.789999764
0.7899996104
0.7899992901
0.7899972952
0.7899971783
0.7899974029
0.7899973134
0.7899973958
0.789997444
0.7899978728
0.7899984089
0.7899983786
0.7899978548
0.789997321
0.7899970188
0.789996944
0.7899970496
0.7899972811
0.7899975934
0.7899979543
0.7899983401
0.7899987289
0.789999106
0.7899994482
0.7899996967
0.7899997665
0.7899996934
0.7899994248
0.7899975796
0.7899970608
0.7899972066
0.7899971792
0.7899972148
0.7899974794
0.7899980067
0.7899985208
0.7899985679
0.7899981699
0.7899976408
0.789997292
0.789997135
0.7899971504
0.7899972945
0.7899975277
0.7899978258
0.7899981611
0.7899985117
0.7899988609
0.7899991833
0.789999424
0.7899995232
0.789999573
0.7899994896
0.7899970772
0.7899970449
0.7899972184
0.789997366
0.7899974236
0.7899978155
0.7899982467
0.7899985427
0.789998705
0.7899984469
0.7899979417
0.7899975655
0.7899973349
0.7899972569
0.7899973023
0.7899974425
0.7899976596
0.7899979256
0.789998219
0.7899985284
0.7899987802
0.7899989841
0.7899990947
0.7899991418
0.7899991438
0.7899974218
0.7899973276
0.7899975478
0.7899976373
0.789997763
0.7899980718
0.7899982942
0.7899985501
0.7899987855
0.7899986428
0.7899982174
0.7899978442
0.7899975613
0.7899973993
0.7899973482
0.7899973948
0.7899975245
0.7899977242
0.789998013
0.7899984336
0.7899984605
0.7899985356
0.7899986275
0.7899986986
0.7899987793
0.7899988441
0.7899976497
0.7899975636
0.7899978023
0.7899978432
0.789997886
0.78999815
0.7899984286
0.789998858
0.789998892
0.789998711
0.7899984334
0.789998116
0.7899978324
0.7899976366
0.7899975144
0.789997471
0.7899975153
0.7899976496
0.789997879
0.7899981724
0.7899982785
0.7899983291
0.7899983318
0.7899983865
0.7899984561
0.7899985213
0.7900004527
0.7900007567
0.7900009127
0.790001016
0.7900010855
0.7900011308
0.79000116
0.7900011788
0.7900011908
0.7900011989
0.7900012057
0.7900012137
0.7900012249
0.7900012405
0.7900012598
0.7900012803
0.7900012978
0.7900013066
0.7900013027
0.7900012908
0.7900012886
0.7900013002
0.7900013115
0.7900013187
0.7900013326
0.7900013651
0.7900002257
0.790000503
0.7900006799
0.7900007998
0.7900008815
0.7900009398
0.7900009841
0.7900010192
0.7900010473
0.7900010699
0.7900010881
0.7900011029
0.7900011153
0.790001126
0.7900011354
0.7900011432
0.7900011488
0.7900011519
0.7900011548
0.7900011657
0.7900011916
0.7900012256
0.7900012478
0.7900012535
0.7900012498
0.7900012325
0.7899999375
0.7900002414
0.7900004609
0.7900006056
0.7900007071
0.7900007826
0.7900008407
0.7900008853
0.7900009183
0.7900009406
0.790000953
0.7900009567
0.7900009531
0.7900009449
0.7900009352
0.7900009269
0.7900009225
0.7900009267
0.7900009463
0.790000987
0.7900010402
0.790001081
0.7900011
0.7900011071
0.7900011051
0.7900010531
0.7899996255
0.7900000195
0.7900002597
0.7900004243
0.7900005473
0.7900006384
0.7900007043
0.7900007499
0.7900007783
0.7900007912
0.7900007899
0.7900007761
0.7900007528
0.7900007248
0.7900006964
0.7900006725
0.7900006584
0.7900006642
0.7900006993
0.7900007639
0.7900008373
0.7900008807
0.7900008969
0.7900009146
0.7900009358
0.7900008812
0.7899995223
0.7899998428
0.79000006
0.7900002421
0.7900003893
0.7900004938
0.7900005615
0.7900006015
0.7900006202
0.7900006211
0.7900006063
0.790000578
0.7900005389
0.790000495
0.7900004545
0.7900004222
0.7900004047
0.7900004132
0.79000046
0.7900005435
0.7900006313
0.7900006801
0.7900006976
0.7900007268
0.7900007705
0.7900007274
0.7899994541
0.7899996275
0.7899998233
0.7900000347
0.7900002147
0.7900003353
0.7900004043
0.7900004385
0.7900004496
0.7900004435
0.7900004227
0.7900003849
0.7900003391
0.7900002945
0.7900002564
0.7900002278
0.7900002141
0.7900002264
0.7900002784
0.7900003686
0.7900004637
0.7900005187
0.7900005426
0.7900005817
0.7900006356
0.7900005998
0.7899992267
0.7899993263
0.7899995296
0.7899997869
0.7900000117
0.7900001564
0.790000233
0.7900002679
0.7900002794
0.7900002764
0.7900002567
0.7900002216
0.7900001843
0.7900001515
0.7900001263
0.7900001099
0.790000106
0.7900001247
0.7900001789
0.7900002678
0.7900003628
0.7900004223
0.7900004521
0.7900004928
0.7900005418
0.7900005004
0.7899988968
0.7899989591
0.7899991891
0.7899995019
0.789999781
0.7899999606
0.7900000553
0.790000101
0.7900001226
0.7900001318
0.7900001245
0.7900001052
0.7900000858
0.7900000716
0.7900000641
0.7900000634
0.7900000724
0.7900000999
0.7900001556
0.7900002377
0.7900003265
0.7900003874
0.7900004219
0.7900004566
0.7900004801
0.7900004207
0.7899985123
0.7899985634
0.7899988312
0.7899991995
0.789999535
0.7899997579
0.7899998816
0.7899999487
0.7899999893
0.7900000176
0.7900000333
0.7900000369
0.7900000392
0.7900000444
0.790000053
0.7900000652
0.7900000852
0.7900001211
0.7900001763
0.7900002474
0.7900003265
0.7900003849
0.7900004209
0.7900004408
0.7900004266
0.7900003466
0.7899981086
0.7899981758
0.7899984879
0.7899989034
0.7899992878
0.789999557
0.7899997189
0.7899998164
0.7899998826
0.7899999337
0.7899999758
0.7900000049
0.790000028
0.7900000491
0.7900000677
0.7900000853
0.7900001086
0.7900001466
0.7900001972
0.7900002533
0.7900003239
0.7900003739
0.790000403
0.7900004033
0.790000361
0.7900002724
0.7899977313
0.7899978274
0.7899981775
0.7899986232
0.7899990413
0.7899993558
0.7899995631
0.7899996989
0.7899997959
0.7899998723
0.7899999359
0.7899999899
0.7900000306
0.7900000637
0.7900000859
0.7900000994
0.7900001094
0.7900001338
0.7900001821
0.7900002279
0.7900002894
0.7900003256
0.7900003438
0.7900003323
0.79000028
0.790000197
0.7899974392
0.7899975451
0.7899979005
0.7899983477
0.7899987803
0.7899991377
0.789999398
0.7899995795
0.789999711
0.7899998132
0.7899998974
0.7899999694
0.7900000292
0.7900000731
0.7900000883
0.7900000836
0.7900000627
0.7900000613
0.7900001182
0.7900001754
0.7900002235
0.7900002509
0.7900002643
0.7900002458
0.7900001947
0.7900001231
0.7899972614
0.7899973428
0.7899976457
0.7899980571
0.7899984846
0.7899988797
0.7899992004
0.7899994373
0.7899996078
0.7899997342
0.7899998345
0.7899999196
0.7899999926
0.7900000455
0.7900000645
0.7900000321
0.7899999889
0.7899999596
0.7900000252
0.7900001352
0.7900001483
0.790000172
0.7900001896
0.7900001613
0.7900001163
0.7900000532
0.7899971691
0.7899972005
0.7899973979
0.7899977393
0.7899981465
0.7899985677
0.7899989492
0.7899992524
0.7899994709
0.7899996215
0.7899997314
0.7899998224
0.789999903
0.789999966
0.7899999857
0.7899999528
0.7899999107
0.7899998637
0.789999937
0.7900001057
0.7900000865
0.7900001089
0.7900001201
0.7900000752
0.7900000339
0.7899999801
0.7899971186
0.7899970861
0.7899971572
0.7899974047
0.789997777
0.7899982056
0.7899986335
0.7899990078
0.7899992849
0.7899994612
0.789999574
0.7899996616
0.7899997437
0.7899998226
0.7899998896
0.7899999436
0.7899999893
0.7899999928
0.7899999939
0.7900000996
0.7900000896
0.7900000814
0.7900000521
0.789999986
0.789999946
0.7899998959
0.7899970934
0.7899970053
0.7899969613
0.7899971
0.7899974119
0.7899978223
0.7899982688
0.7899987041
0.7899990474
0.7899992521
0.7899993633
0.7899994439
0.789999529
0.7899996276
0.7899997133
0.7899997988
0.7899998972
0.7899999871
0.7900000259
0.7900000314
0.7900000402
0.7900000343
0.7899999783
0.7899999008
0.789999868
0.7899998022
0.7899970952
0.7899969881
0.7899968645
0.7899968932
0.7899971119
0.7899974653
0.7899978924
0.7899983598
0.7899987679
0.7899990032
0.7899991103
0.7899991816
0.7899992703
0.7899993933
0.7899994932
0.7899996252
0.7899997311
0.7899998222
0.7899998843
0.7899999163
0.7899999539
0.7899999563
0.789999896
0.7899998052
0.7899997438
0.78999966
0.7899971085
0.7899970409
0.7899968934
0.7899968344
0.7899969399
0.7899971944
0.789997555
0.7899980047
0.7899984545
0.7899987189
0.789998827
0.7899989015
0.7899990207
0.7899991832
0.7899992524
0.7899994355
0.7899995207
0.7899996163
0.7899996836
0.7899997451
0.7899998059
0.7899998399
0.7899998076
0.7899997143
0.7899996065
0.7899994981
0.7899970774
0.7899971159
0.7899970188
0.7899969234
0.7899969275
0.7899970659
0.7899973229
0.7899976919
0.7899981319
0.7899984244
0.7899985525
0.7899986421
0.7899988207
0.7899989809
0.7899989532
0.789999284
0.7899992921
0.7899993911
0.7899994741
0.7899995472
0.7899996207
0.7899996771
0.7899996758
0.7899995972
0.7899994674
0.789999332
0.7899969433
0.7899971201
0.7899971493
0.7899971014
0.7899970569
0.7899971042
0.789997258
0.7899974933
0.7899978382
0.7899981336
0.7899982816
0.7899983993
0.7899986301
0.7899988268
0.7899988126
0.7899991469
0.7899991134
0.7899992024
0.7899993202
0.7899994279
0.7899995095
0.789999553
0.7899995407
0.7899994594
0.789999317
0.7899991737
0.7899967272
0.7899970197
0.7899971701
0.7899972421
0.7899972471
0.7899972731
0.7899973679
0.789997469
0.7899976236
0.7899978636
0.7899980055
0.7899980697
0.789998209
0.7899984444
0.7899985823
0.789998689
0.7899988319
0.7899990481
0.7899992659
0.7899994504
0.7899995681
0.789999612
0.7899995799
0.7899994854
0.7899993594
0.7899992623
0.7899965857
0.7899968756
0.7899970514
0.7899972118
0.7899973503
0.7899974817
0.789997572
0.7899976043
0.789997507
0.7899974913
0.7899976252
0.7899977409
0.7899978411
0.789997982
0.7899981642
0.7899983784
0.7899986621
0.7899989805
0.7899992898
0.789999543
0.7899997145
0.7899997842
0.7899997426
0.7899996122
0.7899994292
0.7899992273
0.7899966909
0.7899968559
0.7899969122
0.7899971395
0.7899973228
0.7899976809
0.7899977591
0.7899978294
0.7899975868
0.7899972401
0.7899971013
0.7899971495
0.7899972886
0.7899974991
0.789997792
0.7899981462
0.7899985376
0.7899989409
0.7899993161
0.7899996369
0.7899998717
0.7899999878
0.7899999546
0.7899998018
0.7899995832
0.7899993471
0.7899970505
0.7899970665
0.7899971131
0.7899973378
0.7899974575
0.789997914
0.7899978593
0.7899980305
0.7899977905
0.7899972859
0.7899969384
0.7899968611
0.78999699
0.7899972518
0.7899976027
0.7899980086
0.7899984426
0.7899988826
0.7899993012
0.7899996775
0.7899999782
0.7900001521
0.7900001452
0.789999987
0.7899997394
0.7899994684
0.7899973991
0.7899973859
0.7899975042
0.7899974857
0.7899973888
0.7899978567
0.7899978897
0.7899981729
0.789998034
0.7899975273
0.7899970976
0.7899969158
0.7899969669
0.7899971858
0.7899975147
0.7899979097
0.7899983387
0.7899987794
0.7899992133
0.7899996231
0.789999978
0.790000218
0.7900002647
0.7900001225
0.7899998819
0.7899972691
0.7899974467
0.7899975725
0.7899975701
0.7899974942
0.7899976256
0.7899979378
0.7899982824
0.7899982683
0.7899978222
0.7899973733
0.7899971189
0.7899970801
0.7899972174
0.7899974794
0.7899978213
0.7899982108
0.7899986276
0.7899990544
0.7899994758
0.7899998629
0.7900001563
0.7900002794
0.7900002295
0.7900000168
0.7899971062
0.7899972431
0.7899974057
0.7899974308
0.7899974154
0.7899976393
0.789998057
0.7899983422
0.7899984568
0.7899980956
0.789997653
0.7899973541
0.7899972367
0.7899972851
0.7899974621
0.7899977295
0.7899980598
0.7899984309
0.7899988229
0.7899992207
0.7899995924
0.7899998872
0.790000047
0.7900000914
0.789999986
0.7899970442
0.7899971414
0.7899973641
0.7899974943
0.7899975785
0.7899978531
0.7899981948
0.7899983748
0.7899985902
0.7899983155
0.7899978988
0.7899975766
0.7899973976
0.7899973649
0.7899974563
0.7899976448
0.7899979066
0.789998222
0.7899985695
0.7899989269
0.7899992443
0.7899995036
0.7899996676