/*--------------------------------*- C++ -*----------------------------------*\
  =========                 |
  \\      /  F ield         | OpenFOAM: The Open Source CFD Toolbox
   \\    /   O peration     | Website:  https://openfoam.org
    \\  /    A nd           | Version:  8
     \\/     M anipulation  |
\*---------------------------------------------------------------------------*/
FoamFile
{
    version     2.0;
    format      ascii;
    class       volScalarField;
    location    "1.6";
    object      nut;
}
// * * * * * * * * * * * * * * * * * * * * * * * * * * * * * * * * * * * * * //

dimensions      [0 2 -1 0 0 0 0];

internalField   nonuniform List<scalar> 
67410
(
9.276570871e-05
0.0001118937081
0.0001206175538
0.0001271934524
0.0001326361486
0.0001374438636
0.0001420583011
0.0001468768237
0.0001522533579
0.0001584396546
0.0001654855669
0.0001731696688
0.000181036099
0.0001884786485
0.0001947856722
0.000199075563
0.0002000765891
0.0001956887804
0.0001828736755
0.0001632012622
0.0001543787229
0.0001561980962
0.0001594804907
0.0001584231575
0.0001642903203
0.0001852037574
9.350227029e-05
0.0001167323488
0.0001281333903
0.0001370466237
0.000144809776
0.0001520729818
0.0001594455702
0.0001674636748
0.0001765013915
0.000186630564
0.0001975512737
0.0002086967807
0.0002194267314
0.000229135208
0.0002372001102
0.00024286569
0.0002449663375
0.0002414738359
0.0002296588906
0.0002094984889
0.0001967170635
0.0001995474635
0.000202739812
0.000198945002
0.0002024133948
0.0002237175971
9.153441586e-05
0.0001186978293
0.0001312956626
0.0001418300294
0.0001516284623
0.0001612079376
0.0001711469415
0.0001819203297
0.0001936928995
0.0002062184857
0.000218967753
0.0002313645002
0.0002429695179
0.0002533950531
0.0002621590136
0.000268735105
0.0002720439466
0.000269956657
0.0002599163772
0.0002397626344
0.0002224881767
0.0002248998151
0.0002279130425
0.0002217094162
0.0002224552117
0.0002431311973
9.7171322e-05
0.000122651797
0.0001343801493
0.0001457734802
0.0001573138243
0.0001689871011
0.0001811216258
0.0001939802697
0.0002074763193
0.0002212102588
0.0002347046701
0.0002475581067
0.0002597492286
0.0002708726954
0.00028042504
0.0002877810783
0.0002918955394
0.000291109492
0.0002826435534
0.0002619367176
0.00024008185
0.0002412897034
0.0002443226998
0.0002353722508
0.0002319917921
0.0002515598244
0.0001086019042
0.0001277520448
0.0001376185961
0.0001493444627
0.0001622723448
0.0001756329767
0.000189391408
0.0002035836939
0.0002180049663
0.0002323291119
0.0002463535595
0.0002595133013
0.0002715196399
0.0002822683873
0.0002915113729
0.000298728814
0.0003030219461
0.0003029848293
0.0002962484512
0.000278131501
0.0002519322669
0.0002513259418
0.0002542210308
0.0002418717262
0.0002335556691
0.0002509471726
0.000115320301
0.0001319296172
0.0001402597035
0.0001520457014
0.0001659670851
0.0001805244273
0.0001953252174
0.0002102691306
0.000225199528
0.0002400019957
0.0002537200448
0.0002661947578
0.0002774432083
0.0002873758374
0.0002957589288
0.0003021609073
0.0003058434636
0.0003056187891
0.0002994911332
0.0002834454144
0.0002581824035
0.0002541794055
0.0002552196951
0.0002408580202
0.000228314005
0.0002424719527
0.0001187769636
0.0001346427565
0.0001417275327
0.0001532286053
0.0001676723831
0.0001829265364
0.0001982862558
0.0002136010802
0.0002288737308
0.0002433035693
0.0002563048469
0.0002679270923
0.0002781294162
0.0002867606397
0.0002936071585
0.0002983634496
0.0003005022666
0.0002990883054
0.0002924569466
0.0002767682702
0.0002529722992
0.0002459196394
0.0002450554703
0.0002307358212
0.0002176488119
0.0002283403877
0.0001202174992
0.0001358083621
0.0001416297921
0.0001523068555
0.0001666960169
0.0001821519305
0.0001976591727
0.0002130050601
0.0002282164526
0.0002421528163
0.0002544513917
0.0002650779124
0.0002738728738
0.0002806078745
0.0002850697275
0.0002870855359
0.0002864844814
0.0002828913052
0.0002749435922
0.0002580782298
0.0002352189871
0.0002262118316
0.0002245064673
0.0002135421582
0.0002047914841
0.0002133863537
0.0001200949407
0.0001352661867
0.0001397141681
0.0001489363733
0.0001625967157
0.0001777380984
0.0001929936814
0.0002080606773
0.0002229014201
0.0002364858489
0.0002481378524
0.0002576179347
0.0002646129035
0.0002687801502
0.0002698900273
0.0002681694702
0.0002647980456
0.0002604344622
0.000248184255
0.0002300281144
0.0002103967681
0.0002021107686
0.0002008020937
0.0001963161621
0.0001944200213
0.0002032852847
0.0001189346305
0.0001331330276
0.0001362160804
0.0001434531232
0.0001556404612
0.0001698958991
0.0001844013917
0.0001986704298
0.0002125501995
0.0002256624956
0.0002366411245
0.0002448549627
0.0002497726258
0.0002511167513
0.0002496922185
0.000249383975
0.0002562600186
0.0002646957177
0.0002292710075
0.0002063158708
0.0001925868741
0.0001870731752
0.0001880457227
0.0001900742296
0.0001882646272
0.0001970583296
0.0001185662362
0.000130939919
0.0001329318546
0.0001378566253
0.0001475445562
0.0001601489312
0.0001733466388
0.0001860467057
0.0001980535442
0.0002091100376
0.0002185713277
0.0002253422815
0.0002289276111
0.0002312995675
0.0002394309859
0.0002639533326
0.0003040677153
0.0003334933503
0.0002600754812
0.000203017234
0.0001880813858
0.0001906957833
0.0002003288191
0.0002057513559
0.0001881223321
0.0001922186417
0.0001220064026
0.0001325750307
0.0001341587621
0.0001365704363
0.0001417964361
0.000150968561
0.0001623724338
0.0001732884952
0.0001828263488
0.0001909935104
0.0001978499357
0.0002037001868
0.0002108855759
0.0002275072952
0.0002659998184
0.0003269588441
0.0003912264977
0.0004284886706
0.0003479035949
0.000231908094
0.0001970608603
0.0002130211604
0.0002343985747
0.0002419295343
0.0002003842569
0.0001902564697
0.0001299184148
0.0001411177673
0.0001432623617
0.0001435343118
0.0001426457234
0.0001448543273
0.0001528332986
0.0001626391679
0.0001712725422
0.0001784503456
0.0001849786259
0.0001934506201
0.000211638553
0.0002526031592
0.000319797449
0.0003986808258
0.000468739118
0.0005046693356
0.00043688574
0.0002942164765
0.0002193579033
0.000248943394
0.0002781508617
0.0002858393252
0.0002322811147
0.0001974026646
0.0001397328795
0.0001539893433
0.0001572301473
0.0001565915108
0.0001514182683
0.0001451869135
0.0001465771567
0.000155167248
0.0001650039818
0.0001743993959
0.0001837479807
0.000196333362
0.0002217899047
0.0002718956916
0.0003458758365
0.0004299277962
0.0005010380057
0.0005280227091
0.0004723104984
0.0003246286123
0.0002518670733
0.0002905298189
0.0003202054802
0.0003252679024
0.0002770738053
0.000222527068
0.0001490734071
0.0001662786033
0.0001706164412
0.0001703367519
0.000164264745
0.0001526811826
0.0001458304152
0.0001525571054
0.0001656213668
0.0001796630044
0.0001916939062
0.0002005552887
0.0002077860808
0.0002167516675
0.0002343079208
0.000283740088
0.0003613513377
0.000408006522
0.0003706866225
0.0002630328239
0.0002893836934
0.0003295283965
0.0003535507605
0.0003558411433
0.0003153292761
0.0002588224818
0.0001583223247
0.0001759861723
0.0001809094791
0.0001819038111
0.0001772700198
0.0001645731316
0.0001509916911
0.0001553971172
0.000173627718
0.0001942806657
0.0002101206395
0.0002195919858
0.0002278222171
0.0002382635038
0.0002362361149
0.0002256567031
0.0002480499228
0.0002717040805
0.0002476443803
0.0002721349651
0.0003153033806
0.000351175353
0.0003717683309
0.0003729983495
0.00033635224
0.0002862398475
0.000173583377
0.0001858459413
0.0001882441181
0.0001904768183
0.0001884377579
0.000177240323
0.0001600664052
0.0001631102712
0.0001889023112
0.0002174305236
0.0002368418926
0.0002476967631
0.0002653911274
0.0002952978373
0.0002895653197
0.0002276565382
0.0002176489471
0.0002185523324
0.0002364751158
0.0002746356489
0.0003154183869
0.0003496282835
0.0003696247784
0.0003700331376
0.00033080111
0.000287602726
0.0002053184402
0.0002064578184
0.0001965100398
0.0001961060184
0.0001964865839
0.0001877206663
0.0001697959955
0.0001744225478
0.0002105428267
0.0002479908207
0.0002727741053
0.0002923643188
0.0003358653638
0.0003959470129
0.000386445697
0.0002485494438
0.0002222079732
0.0002058650671
0.0001948148614
0.0002063478015
0.0002441943994
0.0002934717454
0.0003261296831
0.0003287661238
0.0002615396975
0.000202796021
0.0002517146565
0.0002502496566
0.0002190467408
0.000203113941
0.0002006012429
0.0001938949971
0.0001764677084
0.0001840165596
0.0002314282412
0.0002798412152
0.0003152574218
0.0003525289304
0.0004271728268
0.0005105383071
0.0004894804555
0.0003057024093
0.0002284478043
0.0002002553094
0.0001839549452
0.0001799196888
0.0001910770236
0.0002144998068
0.0002468686094
0.0002646894748
0.0001908854138
0.0001744894974
0.000297868346
0.0003086354461
0.000268201961
0.0002295709595
0.0002067950758
0.0001956777254
0.0001777153789
0.0001775583538
0.0002272446438
0.0002900459127
0.0003326891619
0.0003470921106
0.0003738369404
0.0004433305851
0.0004682583316
0.0002648543545
0.0002036782728
0.0001868758018
0.0001833821734
0.0001880286032
0.0001939841278
0.0001973182828
0.0001994496907
0.0002010675055
0.0001853083135
0.0001810473253
0.0003349677711
0.0003640945687
0.0003298626417
0.0002866418241
0.0002375695015
0.000201655016
0.0001786405609
0.0001558947006
0.0001462515754
0.0001948004017
0.0002481299503
0.0002718606375
0.0002726677092
0.0002939747683
0.0002969031138
0.0001927638825
0.000186581549
0.0001929908387
0.0002041019479
0.0002154528016
0.0002233621172
0.0002253044333
0.0002237050777
0.0002151894186
0.000207510335
0.0002019608686
0.0003643084806
0.0004132001669
0.0003855267254
0.0003524913093
0.0002993172876
0.0002345883527
0.000188902114
0.0001567074302
0.0001258177056
0.0001371829204
0.0001734195312
0.0001902096652
0.0001845738885
0.0001896364382
0.0001938433473
0.0001833959246
0.0001969691519
0.0002128853659
0.0002289918539
0.0002433049515
0.0002520810379
0.000254060845
0.0002534952621
0.0002422923998
0.0002309858703
0.0002250285257
0.0003907454373
0.0004567764455
0.0004329421413
0.0004125740227
0.0003681357074
0.0002902701037
0.0002203884279
0.0001715601372
0.0001277365616
0.0001204952274
0.0001276761056
0.0001383187974
0.0001500079251
0.0001636856966
0.0001791492508
0.0001960435677
0.000213103768
0.0002301711519
0.000246705004
0.0002598709933
0.0002688363629
0.0002731497738
0.0002753455157
0.0002614716417
0.0002493706548
0.0002449234059
0.0004130610364
0.0004870140795
0.000474078751
0.0004789324124
0.0004366936534
0.0003412158502
0.0002589949719
0.0001973333056
0.0001416315842
0.0001271694567
0.0001339780581
0.000145296259
0.0001591801978
0.0001744038102
0.0001903689696
0.0002066641241
0.0002226394184
0.0002384910887
0.0002528506272
0.0002655791626
0.0002772518433
0.0002872669754
0.0002928061776
0.0002776190911
0.0002619431417
0.0002591177369
0.00042761478
0.0005003008127
0.0005076382921
0.0005341962486
0.0004658433305
0.0003535341071
0.0002808359355
0.0002270859297
0.0001616654934
0.0001357617656
0.0001429297424
0.0001548287967
0.0001684636849
0.0001830159106
0.0001979121476
0.0002128864486
0.0002280178226
0.0002432549876
0.0002576775322
0.0002720251357
0.0002865549494
0.0002993491107
0.0003061953793
0.0002966467895
0.0002760395401
0.0003759642085
0.0004498864684
0.0004200367726
0.0003907862785
0.000318913273
0.0002777240293
0.0002871937928
0.0002627202346
0.0001902458496
0.0001453340707
0.0001495145888
0.0001615234266
0.0001747785702
0.0001884695214
0.0002021661979
0.0002158981782
0.0002303814287
0.0002455178445
0.0002617763624
0.0002791210461
0.00029655085
0.0003110064232
0.0003183349638
0.0003058420083
0.0002956653293
0.0003416144045
0.0003715890344
0.0003346949323
0.0003136640327
0.000290657951
0.0003013478849
0.0003463949785
0.0003179835351
0.0002318388758
0.0001591687304
0.0001537906501
0.0001647828414
0.0001776106248
0.0001908580184
0.0002038265725
0.0002164022797
0.0002286201097
0.0002436318962
0.0002627723996
0.0002841905949
0.0003055053256
0.0003220072162
0.0003290413688
0.0003137895786
0.0003165153638
0.0002968577725
0.0003272467864
0.0003363410092
0.0003320278195
0.0003135930714
0.0003595822591
0.0004091192231
0.0003686816453
0.0002666805753
0.0001795929481
0.000157714437
0.0001651510666
0.0001764543619
0.0001889573124
0.0002013508766
0.0002113124021
0.0002181847522
0.0002264084527
0.0002394714184
0.0002551468755
0.0002714894218
0.0002880614615
0.0002943417979
0.0002817582978
0.0002900351943
0.0003211398557
0.0003780406395
0.0003848800016
0.0003649949019
0.0003461465864
0.0004035939359
0.0004317935556
0.0003764320661
0.0002664267232
0.0002007292572
0.0001649242862
0.0001651292761
0.0001717299966
0.00017986698
0.0001893684339
0.0001975980284
0.0002034498964
0.00020972854
0.0002198352664
0.0002366099075
0.0002387796483
0.0002454236969
0.000251167908
0.0002509103726
0.0002680378614
0.0002894723965
0.0003721986035
0.0004278270067
0.000424650268
0.0004038401609
0.0003727701881
0.0003374638006
0.0003179221023
0.0002549159188
0.0002398939865
0.0002190938208
0.0001791269371
0.0001706987531
0.0001713905484
0.00017038495
0.0001740769429
0.0001810022857
0.000188847739
0.0001979475149
0.0002107467782
0.0002326641056
0.00025392111
0.0002221289322
0.0002231140131
0.0002249706421
0.0002363632508
0.0002583700778
9.259539764e-05
0.0001153817968
0.0001259559343
0.0001337343248
0.0001399545626
0.0001450788214
0.0001494950239
0.0001535316321
0.0001574955327
0.0001616704172
0.0001662880359
0.0001714522549
0.0001770408198
0.0001826737476
0.0001876896298
0.0001911165668
0.000191611645
0.0001875899643
0.0001782281697
0.0001663960372
0.000160109238
0.0001583528732
0.0001579786481
0.0001551659061
0.0001558513659
0.0001694876254
9.609501847e-05
0.0002020273584
0.0002423342415
0.0002737778668
0.0003000548987
0.0003210093428
0.0003375694229
0.0003511166038
0.0003635555502
0.0003772260976
0.0003946516493
0.0004176740002
0.0004467543712
0.0004804410463
0.0005150930004
0.0005438240315
0.0005565382034
0.0005451969328
0.0005084495531
0.0004605007363
0.0004287979461
0.0004184574786
0.0004009281313
0.0003616379858
0.0003305811197
0.0003574482028
9.427066282e-05
0.0002162949997
0.0002695329386
0.0003123120737
0.0003499260631
0.0003822278616
0.0004102364307
0.0004361958295
0.0004637151405
0.0004970150752
0.0005392070661
0.0005912486995
0.0006507636995
0.0007127272995
0.0007718414088
0.0008158923463
0.0008316954484
0.0008183023092
0.0007673133872
0.0006891671472
0.0006314670343
0.0006214401466
0.0005984083301
0.0005274199409
0.0004620086991
0.0005061779632
9.437458629e-05
0.0002224223987
0.0002786607275
0.0003249740251
0.0003704274978
0.0004148844467
0.000458781751
0.000504684063
0.0005567098074
0.0006176133119
0.0006867277323
0.0007603842096
0.0008265653677
0.0008826045389
0.0009322081403
0.0009687899883
0.0009863555751
0.0009808868194
0.000951798872
0.0009053739628
0.0008380912122
0.0008190115099
0.0007853088832
0.0006938312749
0.0005948819072
0.0006332425222
0.0001051092741
0.0002333680354
0.0002843415724
0.0003285382906
0.0003796805201
0.0004373079393
0.0005006582807
0.0005710487608
0.0006486905913
0.000728320745
0.0007981004351
0.0008621423159
0.0009257653194
0.0009836603882
0.001032027033
0.001066859747
0.001084556571
0.001083172272
0.001064141188
0.001033252854
0.0009958358651
0.0009530600793
0.0008951559694
0.0008097587921
0.0006948948996
0.000714696881
0.0001139767642
0.0002471375797
0.0002896111364
0.0003287606821
0.0003835839348
0.0004535316738
0.0005360018554
0.0006274817217
0.0007179001986
0.0007874979297
0.0008533711754
0.000918820629
0.0009808469568
0.001035973052
0.001080453804
0.001111004555
0.001125367547
0.001123241905
0.001107549954
0.001084085229
0.001053773413
0.00100217136
0.0009348149209
0.0008513169994
0.0007412252786
0.0007505402749
0.0001191451994
0.000260609085
0.0002956263152
0.0003279955479
0.0003833984341
0.0004619831231
0.0005581901717
0.0006609168761
0.0007451693556
0.0008106117164
0.000876340278
0.0009397770451
0.0009984860366
0.001048968594
0.001087873363
0.001112678616
0.001122030133
0.001116455307
0.001099463735
0.0010766717
0.001045572601
0.0009891452947
0.0009168313228
0.0008331718534
0.000743259005
0.0007582686089
0.0001215205456
0.0002699942479
0.0002999605189
0.000324749216
0.0003770095
0.0004584420643
0.0005607970312
0.0006673008359
0.0007460194943
0.0008104224888
0.0008735827444
0.0009331380437
0.0009867327214
0.001031337201
0.00106439907
0.001084169085
0.001089523549
0.00108066419
0.001060584867
0.001035205911
0.0009968059055
0.0009314465797
0.0008543153218
0.0007756595095
0.0007279977147
0.0007636846305
0.0001213081039
0.0002695762104
0.0002965923917
0.0003147398987
0.0003613437405
0.0004400569822
0.0005416369512
0.0006482143121
0.0007300032462
0.0007925828697
0.0008522128598
0.0009066132246
0.0009541403891
0.0009928202302
0.001021078014
0.001037426116
0.0010392756
0.001026527872
0.001002488363
0.0009757781995
0.0009170311211
0.0008354862281
0.0007658678745
0.0007194189124
0.0007222142778
0.0007794991362
0.0001188216102
0.0002546552129
0.0002796957196
0.0002940656753
0.0003350764309
0.0004077472592
0.0005034135994
0.000606822708
0.0006982543435
0.0007614628511
0.0008176878535
0.0008672306883
0.0009092387706
0.0009419204896
0.000963086441
0.0009688739482
0.0009559958066
0.0009362016089
0.0009031536546
0.0008846702323
0.0008353960131
0.0007700698703
0.0007185608124
0.0006984451196
0.0007334908063
0.0007964733602
0.0001159784662
0.0002274629472
0.0002502816299
0.0002640841862
0.0003011133776
0.0003666744279
0.000453290008
0.000547856593
0.0006375510047
0.0007127376322
0.0007696630876
0.0008147099712
0.0008497634825
0.0008648445514
0.0008613838971
0.0008624260622
0.0008866773668
0.0008920174149
0.0008471453898
0.0008039371138
0.0007864770108
0.0007430408
0.0007153362294
0.0007117096437
0.0007558373438
0.0008060816875
0.0001162649671
0.0001997277918
0.000219616717
0.0002342346417
0.0002675156092
0.0003245872469
0.0004006401594
0.0004839821382
0.000562841954
0.0006302333852
0.000684565009
0.0007252569243
0.0007493840433
0.000759088758
0.0007810119253
0.0008661986092
0.0009912622194
0.001053436305
0.0009792191199
0.0008070453886
0.0007618545875
0.0007414532103
0.0007487877037
0.0007620297038
0.0007963083524
0.0008152561676
0.0001209959247
0.0001857978191
0.000203680942
0.000218255347
0.0002449994473
0.0002893219974
0.0003517267239
0.0004236468905
0.000493520503
0.0005542627669
0.0006052038745
0.000645927455
0.0006743110057
0.0007040648649
0.0007921588422
0.0009748993737
0.001199238586
0.001277284418
0.001190785428
0.0009566484631
0.0007908918666
0.0008008810205
0.0008392187768
0.0008474637221
0.0008795494035
0.0008465784051
0.0001279749073
0.0001905338598
0.0002113161336
0.00022507165
0.0002416636246
0.0002675019289
0.0003111044753
0.0003702501994
0.0004343042936
0.0004960056648
0.0005542311702
0.0006064155409
0.0006485402956
0.0006966190863
0.0007956789265
0.0009932974236
0.00122045319
0.001305812523
0.001256303374
0.00109195255
0.0008904575573
0.0009274141764
0.000953669421
0.0009538633012
0.0009604057887
0.0009148556964
0.0001348313855
0.0002075162927
0.0002389374176
0.0002534486766
0.0002588057696
0.0002625614565
0.0002823196675
0.0003270328999
0.0003887203532
0.0004599630508
0.000537799934
0.0006143798761
0.0006771463113
0.0007207186357
0.0007707015839
0.0008914917877
0.001055890454
0.001161532299
0.001137492315
0.001063099726
0.0009993652697
0.001025750554
0.001058600719
0.00105005889
0.001026729214
0.0009690859909
0.0001406950175
0.0002265892879
0.000273825155
0.0002925115316
0.0002900576261
0.0002733990631
0.0002656765919
0.0002929807699
0.0003548688982
0.0004436614505
0.0005459929714
0.0006376776091
0.0007061883852
0.0007551163307
0.0007812445234
0.0007948376321
0.0008256565081
0.0009013333016
0.0009283915033
0.0009600036479
0.0009918176854
0.001065858026
0.00110647218
0.001095374211
0.001053303059
0.0009688360028
0.0001466964718
0.0002384154829
0.0002985779454
0.0003256769757
0.0003219826261
0.0002944598885
0.0002604516211
0.0002689195373
0.0003374469966
0.0004615448662
0.0006005613905
0.0007032889866
0.0007828772101
0.0008639553831
0.0008943344433
0.0008627153181
0.0008198182859
0.0008202833754
0.0008358249891
0.0008872908091
0.0009563560437
0.001046267516
0.001092909694
0.001085206113
0.001044037188
0.0009611207479
0.0001566373294
0.0002404232909
0.0003019044717
0.0003441203687
0.0003470031509
0.0003154727416
0.0002632414877
0.0002557296431
0.0003447556406
0.000536718103
0.0007317277168
0.0008662263042
0.0009978079168
0.001170671699
0.001145810866
0.0009628915715
0.000808395901
0.0008000779475
0.0007841067338
0.0008099685773
0.0009007722067
0.000981874325
0.001032683835
0.001029395485
0.001006521157
0.0009445055083
0.0001744544078
0.0002441363285
0.0002877549476
0.0003378268503
0.0003566717594
0.0003261726765
0.0002646879617
0.0002453292352
0.0003566881758
0.0006182358054
0.0008607286505
0.001051949615
0.001298979471
0.001558248836
0.001439241201
0.001103180394
0.0007862789929
0.0007548362605
0.0007263126653
0.0007386409519
0.000784886486
0.0008634895695
0.0009431085461
0.0009416542725
0.0009203572487
0.0008784619878
0.0002011387307
0.0002758477435
0.0002850785753
0.0003103969382
0.0003357903288
0.0003178763007
0.0002562543514
0.0002231058624
0.0003126849398
0.0005879685858
0.0008630458381
0.001056981168
0.001259275026
0.001437156065
0.001351691601
0.001029258966
0.0007609826123
0.0007305368395
0.0007461452074
0.0007943047291
0.0008486190278
0.00088721904
0.0009027139245
0.000895355052
0.0009197984527
0.0009181975934
0.0002392910284
0.0003729600433
0.0003468275845
0.0003013980285
0.0003024098481
0.000294509239
0.0002450333829
0.000201569184
0.0002235898234
0.0003725514135
0.0006100835344
0.0007492357316
0.0007966917862
0.000860246841
0.0008523225168
0.0007064927164
0.0006952709464
0.0007647974084
0.0008574661009
0.0009580234117
0.001040931214
0.001080587153
0.001082709321
0.00105411026
0.001039625137
0.001009694138
0.0002864425585
0.0005488289224
0.0005132439826
0.0003757853777
0.0003281287409
0.0002803073496
0.0002441224168
0.0001950520384
0.0001863640875
0.0002246667114
0.0003098151341
0.0003913451364
0.000432194351
0.0004773371414
0.0005440618661
0.0006313825456
0.0007456904678
0.0008895300583
0.00102376188
0.001108782632
0.00116829915
0.001205330893
0.00121951143
0.001226720382
0.001225615624
0.001186042271
0.0003304539315
0.0007534408035
0.0007390579656
0.0005852326332
0.0005068003177
0.0003294611092
0.0002634290873
0.0002084291499
0.0001914703855
0.0002174773552
0.0002598346443
0.0003157451256
0.0003819640653
0.0004619643516
0.0005679775914
0.0007032338094
0.0008570643279
0.00100853729
0.001112389393
0.001191445905
0.001251658707
0.001291325764
0.001309438378
0.00133267179
0.001347481177
0.001343595039
0.0003631308363
0.0009035061737
0.0009338059753
0.0008816783384
0.0007852842678
0.0004919831353
0.0003083392649
0.0002350813098
0.0002072203464
0.0002372056206
0.000284187255
0.0003467852883
0.0004281354962
0.0005290937273
0.0006526465702
0.0007970227142
0.0009459463737
0.001068380678
0.001163667939
0.001246733871
0.001313944476
0.001355299349
0.001381089871
0.001428781092
0.001466314968
0.001488904818
0.0003707220069
0.0009395594151
0.001014560433
0.0009990626806
0.0008719972797
0.0005837742645
0.00038238024
0.0002806982798
0.0002280813644
0.0002641225479
0.0003245346532
0.0004013648262
0.000497736829
0.0006131621016
0.0007438707333
0.000880601015
0.001004868298
0.001102593985
0.001192878896
0.001279385313
0.001353312067
0.001402440634
0.001442799194
0.001515343358
0.001591926555
0.000332628711
0.0008241686431
0.0008892381789
0.0008100798505
0.0006870120775
0.0005258391221
0.0005005961547
0.0003747468985
0.0002612994842
0.000290463608
0.0003641419879
0.0004583680049
0.0005741162839
0.000705047065
0.0008365299618
0.0009513231541
0.001038475222
0.001120202058
0.001203805019
0.001288252658
0.001362363961
0.001418125202
0.00148043724
0.001591755506
0.001692072619
0.0002402370055
0.0005560306487
0.0006537074918
0.000632674744
0.0005590523306
0.00060375967
0.0006945314185
0.0005569434848
0.0003389609458
0.0003195041659
0.0003968337849
0.0005023383943
0.0006336319362
0.0007780246248
0.0009052875636
0.0009842326032
0.001053825147
0.001121681713
0.001197777249
0.00128000108
0.001350448768
0.001406579092
0.001472384228
0.001594130903
0.001717216176
0.0002460839448
0.0005161641716
0.0007451992572
0.0007776222151
0.0006741579453
0.0008124655177
0.0009046440327
0.0007627017855
0.0004709355907
0.0003674030781
0.0004258438902
0.0005239198379
0.0006480208705
0.0007849812578
0.0009021901166
0.0009778495455
0.001043186198
0.001112704241
0.001205435022
0.001318119288
0.001379713232
0.001429088878
0.001495848887
0.001600312951
0.001681459874
0.0003111897099
0.0008338335883
0.001040359726
0.001017696211
0.0008050638002
0.0008368072732
0.0008819571206
0.0007825811188
0.000566892662
0.000456305381
0.0004746594676
0.0005441104442
0.0006294971768
0.0007192929716
0.0008152414807
0.0008997553389
0.0009701744745
0.001055916151
0.001216437297
0.001387226579
0.001431301375
0.001420779697
0.001446742818
0.00151675204
0.001572207868
0.00160378184
0.0003479292722
0.0008668617184
0.001020511406
0.000971051377
0.0007654976367
0.0005871461441
0.0006575396325
0.0006526779905
0.0006414908387
0.0006080570853
0.0005787916697
0.0006141114135
0.0006519808855
0.0006585989212
0.0006851642921
0.0007460419167
0.0008279697115
0.0009384994757
0.001112067837
0.00131733521
0.001410367892
0.001368887681
0.0013266586
0.001379689551
0.001458225744
0.001502128362
9.693236071e-05
0.0001212527964
0.0001331135503
0.0001418506569
0.0001487265449
0.0001542331776
0.0001587510758
0.000162585971
0.0001660101125
0.000169271791
0.0001725972479
0.0001761608665
0.0001800175413
0.000184027307
0.0001877844401
0.0001905656512
0.0001913742875
0.0001892020302
0.0001837841125
0.0001768648301
0.0001718843385
0.0001685169314
0.0001660390838
0.0001622014902
0.0001598698371
0.0001665134004
0.0001034086186
0.0002626638081
0.0003292421927
0.0003818617483
0.0004266345898
0.0004630875589
0.0004921333995
0.0005153442869
0.0005348867791
0.0005534283611
0.0005739642329
0.0005991606655
0.0006303011469
0.0006663823981
0.0007034129203
0.0007344869327
0.00075122019
0.0007472553169
0.0007216713136
0.0006820542711
0.00064501282
0.0006173451621
0.0005819486735
0.0005306828821
0.0004843425238
0.0004902574817
0.0001022513089
0.0002905672051
0.0003820608341
0.000458215975
0.0005260114587
0.0005846888588
0.0006346058041
0.0006775530944
0.0007170337786
0.0007575733427
0.000803406034
0.0008569397703
0.0009172174723
0.0009794555801
0.001035834497
0.001078108293
0.001098655531
0.001092777364
0.001059516067
0.001005667116
0.0009531191532
0.0009181918144
0.0008707022009
0.0007933513694
0.000716215906
0.0007295188155
9.960194153e-05
0.0002949997113
0.0003958830115
0.0004806214759
0.0005612411806
0.0006378025487
0.000709434882
0.0007768309869
0.0008427811932
0.000910614602
0.0009819277084
0.001055393517
0.001127099366
0.001191714908
0.001241757955
0.00127807803
0.001298147725
0.001299033334
0.001281245793
0.001245672528
0.001197634968
0.001157635278
0.001102749263
0.001017264143
0.0009259241081
0.0009328688643
0.0001072247314
0.000305733738
0.0004025007266
0.0004838250165
0.0005695262358
0.0006606967614
0.0007539030983
0.0008463920406
0.0009369577617
0.00102374703
0.001103681745
0.001173964886
0.001236179961
0.001294103395
0.001342205479
0.001377007827
0.001396452677
0.001400321658
0.001390270149
0.001368412142
0.001336259004
0.001293875452
0.001235233389
0.001155585068
0.00106850124
0.001065452453
0.0001180312471
0.0003239417086
0.0004100282004
0.0004807009026
0.0005655247274
0.0006670111548
0.0007781367124
0.0008904906827
0.0009957422637
0.001085906134
0.001156857411
0.001221155836
0.001281777004
0.001335541472
0.00137896453
0.001409285111
0.001425389381
0.001428269481
0.001420557534
0.00140433399
0.001377537386
0.001334462117
0.001275044243
0.001207289397
0.001134787178
0.001128894735
0.0001246146492
0.000343098534
0.0004193829131
0.0004766050112
0.0005556078595
0.0006616314519
0.0007842432379
0.0009083786266
0.001018427423
0.001103099341
0.001168554594
0.001230182508
0.001286374164
0.001334792647
0.001372694174
0.001398068754
0.001410268878
0.001410436415
0.001401604334
0.001386728093
0.001361906145
0.001320200189
0.001263631228
0.00120477501
0.001149434807
0.001151440032
0.0001276182292
0.0003558548409
0.0004258910635
0.0004702660701
0.0005401993178
0.0006451275613
0.0007726857933
0.0009024828559
0.001014091274
0.001095415731
0.001158321763
0.001215301106
0.001265646083
0.001308033657
0.001340805825
0.001362504948
0.001371978037
0.001369460416
0.001358896508
0.001346369382
0.001322284158
0.001282119033
0.001229592083
0.001178455912
0.001145529749
0.001162601393
0.0001273142394
0.0003540596305
0.0004201806051
0.000455190359
0.0005160878736
0.000616675406
0.0007447042472
0.0008772691663
0.0009918640726
0.001075837039
0.001136454399
0.001188671494
0.001233214681
0.001270291126
0.001299178416
0.001317680181
0.00132230715
0.001313165344
0.00130159758
0.001305438643
0.001284272781
0.001243375815
0.00119312279
0.001154804621
0.001150531944
0.001180911744
0.0001241122299
0.0003321650769
0.0003941272006
0.0004246974892
0.0004799136637
0.0005759080323
0.0007020189949
0.0008357162861
0.0009550646186
0.001046993017
0.001109878555
0.001159612975
0.001200504259
0.001233310824
0.001255535254
0.001260831982
0.00124513815
0.001217320222
0.001202758916
0.001256335812
0.00125578582
0.001212821391
0.001169177805
0.001150452323
0.001171640456
0.001207135429
0.000119966037
0.0002927410291
0.0003483734181
0.000378611758
0.0004323948713
0.0005248153936
0.0006473104397
0.0007796090753
0.0009018606085
0.001001388629
0.001075487627
0.001129202702
0.001168511353
0.001192253351
0.001192255422
0.001170666009
0.001149466811
0.001130989636
0.001106798327
0.001171977423
0.001218722709
0.001184465404
0.001147970303
0.0011476667
0.00119168183
0.001234031173
0.0001184251925
0.000248886942
0.0002955313839
0.000326979354
0.0003811926839
0.0004695387997
0.0005857897589
0.0007134690731
0.0008349149724
0.0009380417978
0.001019289149
0.001079462361
0.001116211154
0.00112131424
0.001104565651
0.001115373686
0.0011797385
0.001218348899
0.001186008855
0.00116287442
0.001178881746
0.001151169338
0.001121872095
0.001136679134
0.001199385143
0.001257716413