/*--------------------------------*- C++ -*----------------------------------*\
  =========                 |
  \\      /  F ield         | OpenFOAM: The Open Source CFD Toolbox
   \\    /   O peration     | Website:  https://openfoam.org
    \\  /    A nd           | Version:  8
     \\/     M anipulation  |
\*---------------------------------------------------------------------------*/
FoamFile
{
    version     2.0;
    format      ascii;
    class       volScalarField;
    location    "1.6";
    object      p;
}
// * * * * * * * * * * * * * * * * * * * * * * * * * * * * * * * * * * * * * //

dimensions      [1 -1 -2 0 0 0 0];

internalField   nonuniform List<scalar> 
67410
(
100003.9227
100003.8968
100003.8839
100003.8694
100003.8564
100003.8454
100003.8377
100003.8341
100003.8351
100003.8409
100003.851
100003.8644
100003.8796
100003.8946
100003.9077
100003.9165
100003.9195
100003.9161
100003.9083
100003.9024
100003.9014
100003.9028
100003.9065
100003.9119
100003.9202
100003.9327
100003.905
100003.8848
100003.8722
100003.8557
100003.8396
100003.8245
100003.8114
100003.801
100003.7934
100003.7886
100003.7869
100003.7878
100003.7911
100003.7961
100003.8022
100003.8079
100003.8128
100003.8171
100003.8221
100003.8295
100003.8353
100003.8391
100003.8427
100003.8478
100003.8497
100003.8479
100003.8922
100003.8766
100003.8637
100003.8455
100003.8265
100003.8078
100003.7904
100003.7749
100003.7618
100003.7517
100003.745
100003.7421
100003.7425
100003.7466
100003.7532
100003.7599
100003.7659
100003.7701
100003.7736
100003.781
100003.788
100003.7928
100003.7972
100003.803
100003.8042
100003.801
100003.8804
100003.8667
100003.8518
100003.8315
100003.8095
100003.7871
100003.7654
100003.7457
100003.729
100003.7161
100003.7079
100003.7057
100003.7069
100003.7137
100003.7233
100003.7331
100003.7403
100003.7429
100003.7418
100003.7454
100003.7514
100003.7562
100003.7601
100003.7657
100003.766
100003.7618
100003.868
100003.8536
100003.8383
100003.8168
100003.7927
100003.7674
100003.7431
100003.7213
100003.7036
100003.6912
100003.6846
100003.6855
100003.6923
100003.7035
100003.7166
100003.7283
100003.7354
100003.7359
100003.7299
100003.7265
100003.7289
100003.7329
100003.7355
100003.7404
100003.7407
100003.7367
100003.8537
100003.839
100003.8238
100003.8018
100003.7765
100003.7497
100003.7241
100003.7019
100003.6847
100003.6749
100003.673
100003.678
100003.6881
100003.7015
100003.7155
100003.727
100003.733
100003.7317
100003.7231
100003.7159
100003.7145
100003.7169
100003.7188
100003.7231
100003.7238
100003.7206
100003.84
100003.8253
100003.8106
100003.7887
100003.7629
100003.7355
100003.7098
100003.688
100003.6725
100003.6655
100003.6662
100003.6729
100003.684
100003.6974
100003.7105
100003.7208
100003.7257
100003.7237
100003.7133
100003.7059
100003.7037
100003.7059
100003.7085
100003.7132
100003.7144
100003.7124
100003.8277
100003.8137
100003.7998
100003.7785
100003.7531
100003.7259
100003.7003
100003.6789
100003.6641
100003.6578
100003.6587
100003.6651
100003.6754
100003.6879
100003.7008
100003.7119
100003.7187
100003.7185
100003.7042
100003.6995
100003.6989
100003.7027
100003.7067
100003.7116
100003.7126
100003.7119
100003.8183
100003.8052
100003.7922
100003.772
100003.7476
100003.721
100003.6955
100003.6737
100003.658
100003.65
100003.649
100003.6538
100003.6633
100003.677
100003.6945
100003.7134
100003.727
100003.7279
100003.7054
100003.7052
100003.7048
100003.7102
100003.7149
100003.7191
100003.7191
100003.7193
100003.8125
100003.7998
100003.7877
100003.7688
100003.7461
100003.7205
100003.6952
100003.6728
100003.6552
100003.6437
100003.6396
100003.643
100003.6534
100003.6728
100003.7004
100003.7269
100003.7413
100003.7369
100003.7128
100003.7179
100003.718
100003.7249
100003.7299
100003.7344
100003.7337
100003.7344
100003.8089
100003.7964
100003.7851
100003.7677
100003.7471
100003.7233
100003.6987
100003.676
100003.6572
100003.6438
100003.6373
100003.6411
100003.6515
100003.6739
100003.7031
100003.7297
100003.7432
100003.7215
100003.7191
100003.7339
100003.7366
100003.7437
100003.7484
100003.7536
100003.7553
100003.757
100003.8052
100003.7918
100003.7811
100003.7653
100003.748
100003.7272
100003.7045
100003.6824
100003.6635
100003.6498
100003.643
100003.6445
100003.6544
100003.6701
100003.6894
100003.7301
100003.8017
100003.786
100003.739
100003.7515
100003.7649
100003.7677
100003.7708
100003.7754
100003.7814
100003.7868
100003.8011
100003.7847
100003.7737
100003.7588
100003.7455
100003.7295
100003.7104
100003.6901
100003.6716
100003.6577
100003.6498
100003.6488
100003.653
100003.6574
100003.6738
100003.7789
100003.9757
100003.976
100003.7971
100003.778
100003.8083
100003.802
100003.8045
100003.8058
100003.8125
100003.8231
100003.7984
100003.7765
100003.7646
100003.7498
100003.7398
100003.7291
100003.7149
100003.6975
100003.6796
100003.6652
100003.6568
100003.6552
100003.6587
100003.6595
100003.6601
100003.7226
100003.8883
100003.9408
100003.8087
100003.8044
100003.8493
100003.8423
100003.8596
100003.8651
100003.8557
100003.8649
100003.7988
100003.771
100003.7576
100003.7419
100003.733
100003.7265
100003.7174
100003.7031
100003.6848
100003.6683
100003.6575
100003.6549
100003.6608
100003.6711
100003.6792
100003.6888
100003.72
100003.7506
100003.7736
100003.8102
100003.8436
100003.8794
100003.9254
100003.9371
100003.9094
100003.9119
100003.8046
100003.7714
100003.7557
100003.7381
100003.7283
100003.7237
100003.7198
100003.7091
100003.6905
100003.6723
100003.6621
100003.6629
100003.6743
100003.6931
100003.7247
100003.7348
100003.7371
100003.7308
100003.7598
100003.8037
100003.8479
100003.9122
100003.9732
100003.9842
100003.9541
100003.9641
100003.808
100003.7748
100003.76
100003.7397
100003.7283
100003.7229
100003.7243
100003.7168
100003.696
100003.6744
100003.6644
100003.667
100003.6786
100003.6836
100003.7061
100003.7076
100003.7466
100003.7506
100003.7629
100003.7856
100003.8265
100003.8914
100003.959
100003.9833
100003.9801
100004.0126
100003.7806
100003.7605
100003.7645
100003.7464
100003.7322
100003.7255
100003.733
100003.7286
100003.7046
100003.6812
100003.6758
100003.6929
100003.7559
100003.8335
100003.7591
100003.6872
100003.7439
100003.7364
100003.7631
100003.7893
100003.8247
100003.869
100003.9168
100003.9551
100004.0182
100004.0958
100003.7099
100003.6963
100003.7387
100003.75
100003.7356
100003.7298
100003.7444
100003.7484
100003.7239
100003.7067
100003.7063
100003.7164
100003.8078
100003.9845
100003.7829
100003.6302
100003.7346
100003.7472
100003.7757
100003.7996
100003.8361
100003.8786
100003.9301
100003.984
100004.0729
100004.1894
100003.6233
100003.593
100003.6689
100003.7191
100003.7279
100003.7275
100003.7404
100003.7628
100003.7345
100003.6826
100003.6561
100003.653
100003.6711
100003.7069
100003.6579
100003.6512
100003.7212
100003.7377
100003.7675
100003.795
100003.8326
100003.8796
100003.9353
100004.0046
100004.1247
100004.342
100003.5992
100003.5368
100003.5914
100003.6461
100003.6689
100003.6971
100003.7175
100003.7483
100003.7419
100003.7108
100003.6747
100003.658
100003.6608
100003.6591
100003.6605
100003.6837
100003.7216
100003.7352
100003.7591
100003.7867
100003.8211
100003.8616
100003.907
100003.9605
100004.0254
100004.1099
100003.7427
100003.6783
100003.6201
100003.5989
100003.5686
100003.6279
100003.6871
100003.736
100003.7539
100003.7354
100003.7112
100003.6906
100003.6852
100003.6877
100003.6933
100003.6987
100003.7138
100003.7278
100003.7519
100003.7842
100003.8212
100003.8567
100003.8901
100003.9304
100003.9773
100004.0423
100004.0336
100003.9709
100003.856
100003.719
100003.5487
100003.5503
100003.642
100003.7159
100003.7498
100003.7387
100003.7264
100003.7144
100003.7085
100003.7071
100003.7016
100003.6969
100003.7059
100003.7234
100003.7539
100003.7948
100003.8376
100003.873
100003.8977
100003.9222
100003.948
100003.9825
100004.2812
100004.2299
100004.1978
100004.1493
100003.7307
100003.5469
100003.6163
100003.698
100003.7428
100003.7416
100003.7285
100003.7162
100003.7056
100003.6986
100003.6944
100003.695
100003.705
100003.7257
100003.7601
100003.806
100003.8568
100003.9015
100003.9268
100003.9423
100003.9513
100003.9749
100004.3111
100004.1666
100004.127
100003.9971
100003.6168
100003.565
100003.6262
100003.6835
100003.7328
100003.7434
100003.7295
100003.7178
100003.7059
100003.6974
100003.6935
100003.6966
100003.7084
100003.7313
100003.7679
100003.8173
100003.8754
100003.9321
100003.9696
100004.0071
100003.9833
100003.8884
100003.727
100003.7015
100003.6404
100003.6012
100003.6703
100003.6913
100003.686
100003.7289
100003.7465
100003.7332
100003.7218
100003.7098
100003.7014
100003.6986
100003.703
100003.7152
100003.738
100003.7749
100003.8269
100003.8876
100003.9479
100003.9884
100004.0133
100004.0334
100003.8537
100003.7854
100003.8119
100003.8438
100003.8175
100003.809
100003.767
100003.702
100003.729
100003.7521
100003.7403
100003.7295
100003.7179
100003.71
100003.708
100003.7131
100003.7248
100003.7452
100003.7811
100003.8361
100003.8884
100003.941
100003.9908
100004.0394
100004.1158
100004.0293
100003.9253
100003.8606
100003.8426
100003.8537
100003.8815
100003.8356
100003.7353
100003.7324
100003.757
100003.7496
100003.741
100003.7306
100003.7229
100003.7202
100003.7235
100003.7335
100003.7508
100003.7799
100003.8235
100003.8579
100003.8944
100003.9283
100003.9574
100003.9879
100004.1992
100004.0169
100003.8852
100003.8741
100003.8681
100003.8294
100003.7556
100003.7043
100003.7333
100003.7632
100003.7611
100003.7556
100003.7478
100003.7413
100003.7378
100003.7396
100003.7487
100003.7663
100003.8141
100004.012
100003.9299
100003.9107
100003.9203
100003.9419
100003.9715
100003.9983
100004.1908
100003.9912
100003.8461
100003.7377
100003.7101
100003.7591
100003.7803
100003.8037
100003.798
100003.7896
100003.7795
100003.7731
100003.7663
100003.7622
100003.7603
100003.7603
100003.7648
100003.7758
100003.7948
100003.8299
100003.8751
100003.8945
100003.9247
100003.9338
100003.9521
100003.9578
100003.8037
100003.7776
100003.764
100003.7486
100003.7345
100003.7217
100003.7113
100003.7038
100003.6996
100003.6988
100003.7008
100003.705
100003.7106
100003.7167
100003.7225
100003.7277
100003.7325
100003.7383
100003.7468
100003.7578
100003.7643
100003.7651
100003.7679
100003.7741
100003.7775
100003.7734
100003.7865
100003.7657
100003.7525
100003.7354
100003.7184
100003.7019
100003.6867
100003.6732
100003.6616
100003.652
100003.6443
100003.6386
100003.6351
100003.6339
100003.6351
100003.6389
100003.6455
100003.6555
100003.6708
100003.6909
100003.7036
100003.7066
100003.7095
100003.715
100003.7126
100003.6962
100003.7713
100003.7562
100003.7429
100003.7239
100003.7038
100003.6834
100003.6637
100003.6452
100003.6284
100003.6136
100003.6018
100003.5936
100003.5899
100003.5897
100003.5922
100003.5977
100003.6044
100003.612
100003.6226
100003.6398
100003.6549
100003.6589
100003.6624
100003.6683
100003.6651
100003.6502
100003.7591
100003.7454
100003.73
100003.7087
100003.6852
100003.6609
100003.6369
100003.6142
100003.5937
100003.5769
100003.5649
100003.5572
100003.5559
100003.5579
100003.5628
100003.5691
100003.5754
100003.5812
100003.5878
100003.5998
100003.615
100003.619
100003.6221
100003.6281
100003.6253
100003.6128
100003.746
100003.7316
100003.7154
100003.6925
100003.6667
100003.6396
100003.6128
100003.5881
100003.5674
100003.5518
100003.5423
100003.5375
100003.5372
100003.5406
100003.5467
100003.5535
100003.5593
100003.5634
100003.5675
100003.5769
100003.5901
100003.5928
100003.5949
100003.6011
100003.6002
100003.5892
100003.7298
100003.7154
100003.6996
100003.6763
100003.6492
100003.6204
100003.5925
100003.5682
100003.5495
100003.5357
100003.5274
100003.5244
100003.526
100003.5312
100003.5383
100003.5453
100003.5505
100003.5535
100003.5559
100003.563
100003.5748
100003.5773
100003.5786
100003.5849
100003.5863
100003.5766
100003.7152
100003.7007
100003.6855
100003.6622
100003.6348
100003.6055
100003.5777
100003.5545
100003.5371
100003.5244
100003.5172
100003.5153
100003.5178
100003.5237
100003.5311
100003.5381
100003.5434
100003.5463
100003.5483
100003.5548
100003.5654
100003.569
100003.571
100003.5781
100003.5812
100003.5735
100003.7026
100003.6886
100003.6743
100003.6517
100003.6247
100003.5956
100003.5683
100003.5457
100003.5287
100003.5161
100003.5089
100003.5068
100003.5092
100003.515
100003.5228
100003.5311
100003.5381
100003.5424
100003.5453
100003.5525
100003.5628
100003.5688
100003.573
100003.5801
100003.5826
100003.5773
100003.6934
100003.6801
100003.6667
100003.6453
100003.6195
100003.5912
100003.5641
100003.5413
100003.5235
100003.51
100003.5016
100003.4984
100003.4999
100003.5056
100003.5148
100003.5264
100003.5357
100003.5401
100003.5478
100003.557
100003.5689
100003.5782
100003.5844
100003.5891
100003.5895
100003.5858
100003.6881
100003.6751
100003.6625
100003.6425
100003.6184
100003.5915
100003.5649
100003.5412
100003.5216
100003.5067
100003.4964
100003.4913
100003.4916
100003.4971
100003.5071
100003.5193
100003.5216
100003.5148
100003.5465
100003.5674
100003.582
100003.5923
100003.5982
100003.6014
100003.6024
100003.6002
100003.6854
100003.6721
100003.6598
100003.6413
100003.6197
100003.5951
100003.5699
100003.546
100003.5253
100003.5087
100003.4969
100003.4887
100003.4879
100003.4903
100003.4902
100003.4868
100003.483
100003.4757
100003.5294
100003.5763
100003.5974
100003.606
100003.6086
100003.6109
100003.6192
100003.6214
100003.6816
100003.6668
100003.6544
100003.6375
100003.6198
100003.5991
100003.5764
100003.5539
100003.5334
100003.5163
100003.5034
100003.4946
100003.4873
100003.4711
100003.4426
100003.4407
100003.4512
100003.4479
100003.5108
100003.5837
100003.6144
100003.6184
100003.6164
100003.6176
100003.6354
100003.6479
100003.6737
100003.6555
100003.6426
100003.6272
100003.6145
100003.6001
100003.5821
100003.5618
100003.5418
100003.5242
100003.5096
100003.4962
100003.4751
100003.4371
100003.4097
100003.4199
100003.4515
100003.4534
100003.4985
100003.5881
100003.6306
100003.6329
100003.6329
100003.6352
100003.652
100003.6763
100003.6623
100003.6399
100003.6266
100003.6122
100003.6034
100003.596
100003.5849
100003.5681
100003.5483
100003.5288
100003.5111
100003.4927
100003.4612
100003.4115
100003.3818
100003.3786
100003.4013
100003.4291
100003.4924
100003.6052
100003.6473
100003.6518
100003.6563
100003.6603
100003.6712
100003.7003
100003.6504
100003.6236
100003.6111
100003.5975
100003.5898
100003.5867
100003.5836
100003.571
100003.5498
100003.5264
100003.5063
100003.4912
100003.4781
100003.4681
100003.4669
100003.4662
100003.4707
100003.4937
100003.5538
100003.6242
100003.6467
100003.6642
100003.6812
100003.69
100003.6997
100003.7251
100003.6377
100003.6097
100003.5991
100003.5865
100003.5783
100003.5752
100003.5785
100003.5698
100003.5445
100003.5142
100003.4906
100003.473
100003.4545
100003.4455
100003.4712
100003.5112
100003.5328
100003.5539
100003.5921
100003.6212
100003.6449
100003.6728
100003.7
100003.7155
100003.7388
100003.7641
100003.6116
100003.5917
100003.587
100003.5767
100003.5681
100003.5638
100003.5705
100003.5631
100003.5288
100003.4904
100003.4609
100003.4291
100003.3875
100003.3811
100003.4189
100003.5096
100003.5529
100003.5774
100003.5956
100003.6131
100003.6378
100003.6693
100003.7034
100003.731
100003.7752
100003.8129
100003.5412
100003.5449
100003.5639
100003.5616
100003.5561
100003.5524
100003.5616
100003.5529
100003.5099
100003.4715
100003.441
100003.4026
100003.3674
100003.3603
100003.3749
100003.5082
100003.5532
100003.5852
100003.6165
100003.6415
100003.6636
100003.689
100003.7211
100003.76
100003.84
100003.9097
100003.4242
100003.4387
100003.5051
100003.531
100003.539
100003.5377
100003.5525
100003.5462
100003.502
100003.4679
100003.4363
100003.3844
100003.3504
100003.3501
100003.3186
100003.4709
100003.5466
100003.5897
100003.6283
100003.6594
100003.6903
100003.7232
100003.7572
100003.8002
100003.8984
100003.9864
100003.3245
100003.3228
100003.3938
100003.4553
100003.5028
100003.5152
100003.541
100003.5514
100003.5126
100003.4723
100003.449
100003.4324
100003.4188
100003.3931
100003.3672
100003.4952
100003.5524
100003.5935
100003.6258
100003.653
100003.6848
100003.7235
100003.7693
100003.8349
100003.9504
100004.1587
100003.3099
100003.2987
100003.29
100003.3092
100003.4156
100003.4747
100003.5265
100003.5622
100003.5653
100003.5315
100003.4926
100003.4752
100003.469
100003.4618
100003.4681
100003.5332
100003.5683
100003.5893
100003.6103
100003.633
100003.6625
100003.6978
100003.7359
100003.7839
100003.8357
100003.8769
100003.3782
100003.3354
100003.2888
100003.1723
100003.2761
100003.3866
100003.4984
100003.5603
100003.5894
100003.5795
100003.5549
100003.5383
100003.5313
100003.5255
100003.5307
100003.5527
100003.567
100003.5787
100003.5971
100003.6206
100003.6497
100003.6819
100003.7109
100003.7515
100003.7931
100003.8455
100003.4911
100003.4332
100003.3615
100003.2585
100003.2348
100003.2954
100003.4377
100003.5393
100003.5894
100003.5937
100003.5865
100003.5751
100003.5655
100003.5578
100003.5524
100003.5529
100003.5592
100003.5722
100003.5928
100003.6189
100003.6485
100003.6761
100003.6952
100003.7324
100003.7625
100003.7824
100003.5958
100003.5291
100003.4637
100003.3764
100003.2921
100003.2905
100003.3803
100003.5108
100003.581
100003.5961
100003.5932
100003.5844
100003.5737
100003.564
100003.5568
100003.5549
100003.5602
100003.5753
100003.5982
100003.6266
100003.6556
100003.6782
100003.6917
100003.7211
100003.754
100003.7634
100003.5795
100003.4617
100003.36
100003.273
100003.2528
100003.3213
100003.394
100003.4941
100003.5702
100003.5965
100003.5944
100003.5861
100003.5745
100003.5641
100003.5575
100003.5567
100003.5634
100003.5783
100003.6008
100003.6289
100003.6584
100003.6835
100003.6975
100003.7004
100003.7549
100003.4305
100003.3602
100003.3704
100003.292
100003.3907
100003.4614
100003.4777
100003.4993
100003.5608
100003.5975
100003.5967
100003.5888
100003.5773
100003.5676
100003.562
100003.5621
100003.5691
100003.5823
100003.602
100003.6277
100003.6564
100003.6843
100003.7095
100003.7494
100003.7543
100003.4312
100003.4189
100003.4679
100003.4707
100003.5451
100003.5385
100003.5192
100003.507
100003.5522
100003.5978
100003.602
100003.5945
100003.5831
100003.5739
100003.5691
100003.5696
100003.5762
100003.5865
100003.6007
100003.6197
100003.6407
100003.6621
100003.6845
100003.7228
100003.6716
100003.5787
100003.5469
100003.5373
100003.5252
100003.5653
100003.521
100003.5302
100003.517
100003.5539
100003.5976
100003.611
100003.605
100003.5943
100003.5852
100003.5795
100003.5801
100003.5862
100003.5955
100003.6071
100003.6235
100003.6576
100003.6845
100003.711
100003.7471
100003.7494
100003.6442
100003.5506
100003.5385
100003.5198
100003.5418
100003.4931
100003.4937
100003.5134
100003.5704
100003.6059
100003.623
100003.6197
100003.6118
100003.6055
100003.6006
100003.6
100003.6039
100003.607
100003.6027
100003.5704
100003.6872
100003.7185
100003.7348
100003.7551
100003.7538
100003.7413
100003.6343
100003.5233
100003.5091
100003.4724
100003.4562
100003.4988
100003.5302
100003.5942
100003.614
100003.6268
100003.6369
100003.6335
100003.6278
100003.6289
100003.6282
100003.6264
100003.6257
100003.6235
100003.6159
100003.6072
100003.6053
100003.7263
100003.7508
100003.7686
100003.7731
100003.7677
100003.6571
100003.6305
100003.6164
100003.6006
100003.586
100003.5723
100003.5603
100003.5504
100003.5431
100003.5384
100003.5365
100003.5372
100003.5401
100003.5447
100003.5505
100003.5573
100003.5646
100003.572
100003.5798
100003.5878
100003.5939
100003.5976
100003.6007
100003.6037
100003.6051
100003.6039
100003.6413
100003.6193
100003.6061
100003.5896
100003.5732
100003.5572
100003.5423
100003.5292
100003.5181
100003.5092
100003.5025
100003.4984
100003.497
100003.4982
100003.502
100003.5078
100003.5154
100003.524
100003.5333
100003.5432
100003.5517
100003.5576
100003.5621
100003.5655
100003.5655
100003.5608
100003.624
100003.6092
100003.5968
100003.5793
100003.561
100003.5425
100003.5248
100003.5088
100003.4947
100003.4831
100003.4744
100003.4687
100003.4662
100003.4669
100003.4705
100003.4761
100003.4828
100003.49
100003.4973
100003.5053
100003.5136
100003.5202
100003.5257
100003.5296
100003.5303
100003.5274
100003.6109
100003.5985
100003.5848
100003.5657
100003.5452
100003.5242
100003.504
100003.4855
100003.4695
100003.4564
100003.4468
100003.4408
100003.4386
100003.4394
100003.4429
100003.4477
100003.4537
100003.4599
100003.4663
100003.4732
100003.4804
100003.4864
100003.4913
100003.4952
100003.4963
100003.4937
100003.5991
100003.5866
100003.5714
100003.5512
100003.5293
100003.5067
100003.485
100003.4655
100003.4489
100003.4359
100003.427
100003.4214
100003.4194
100003.4205
100003.4241
100003.4292
100003.4348
100003.44
100003.4452
100003.4514
100003.4581
100003.4631
100003.4669
100003.4705
100003.472
100003.4697
100003.5846
100003.5716
100003.5566
100003.5364
100003.514
100003.4908
100003.4687
100003.4491
100003.4329
100003.4209
100003.4122
100003.4069
100003.4056
100003.4077
100003.4122
100003.4178
100003.4234
100003.4282
100003.4324
100003.4376
100003.4435
100003.4479
100003.4514
100003.4548
100003.4566
100003.4545
100003.5711
100003.5579
100003.5433
100003.5234
100003.5011
100003.4779
100003.456
100003.4366
100003.421
100003.4093
100003.4008
100003.3962
100003.3957
100003.3986
100003.4039
100003.4103
100003.4165
100003.4214
100003.4254
100003.4304
100003.436
100003.4402
100003.4438
100003.4474
100003.4492
100003.4473
100003.5594
100003.5464
100003.5325
100003.5132
100003.4914
100003.4687
100003.447
100003.4279
100003.4125
100003.4007
100003.3922
100003.3878
100003.3877
100003.3914
100003.3979
100003.4058
100003.4136
100003.4196
100003.4239
100003.4296
100003.4354
100003.4403
100003.4443
100003.4476
100003.4489
100003.4473
100003.5501
100003.5378
100003.5245
100003.506
100003.4852
100003.463
100003.4416
100003.4224
100003.4066
100003.3945
100003.3859
100003.3813
100003.3815
100003.3863
100003.3949
100003.406
100003.4166
100003.4239
100003.4289
100003.4362
100003.4423
100003.4477
100003.4518
100003.4547
100003.4554
100003.4543
100003.5433
100003.5316
100003.519
100003.5014
100003.4817
100003.4603
100003.4392
100003.4197
100003.4031
100003.3903
100003.3817
100003.3774
100003.3785
100003.385
100003.3966
100003.4111
100003.4239
100003.4304
100003.4375
100003.4494
100003.4551
100003.4612
100003.4654
100003.4681
100003.4688
100003.4679
100003.5375
100003.5266
100003.5146
100003.498
100003.4799
100003.4598
100003.4392
100003.4195
100003.4022
100003.3885
100003.3795
100003.3758
100003.3796
100003.3876
100003.401
100003.4147
100003.4266
100003.4316
100003.4425
100003.4638
100003.4725
100003.4797
100003.4836
100003.4866
100003.4886
100003.4883
100003.5302
100003.5201
100003.5094
100003.4942
100003.4782
100003.4599
100003.4406
100003.4213
100003.4036
100003.3892
100003.3793
100003.3751
100003.3776
100003.3868
100003.4017
100003.4094
100003.4222
100003.4298
100003.4457
100003.4817
100003.496
100003.5027
100003.5053
100003.508
100003.5132
100003.5149
100003.5201
100003.5106
100003.5016
100003.4882
100003.4747
100003.4592
100003.442
100003.4238
100003.4063
100003.3914
100003.3809
100003.3759
100003.3771
100003.3852
100003.3895
100003.4004
100003.4214
100003.4357
100003.453
100003.5006
100003.5285
100003.5304
100003.5272
100003.5307
100003.5381
100003.545
100003.5084
100003.4989
100003.4919
100003.4805
100003.4694
100003.4569
100003.4426
100003.4261
100003.409
100003.3938
100003.383
100003.3778
100003.3784
100003.3837
100003.3843
100003.39
100003.4089
100003.4305
100003.4598
100003.5173
100003.5616
100003.5565
100003.5507
100003.5565
100003.5655
100003.5763
100003.4963
100003.4869
100003.4821
100003.4725
100003.4635
100003.4532
100003.4418
100003.4276
100003.411
100003.3958
100003.3855
100003.3815
100003.3846
100003.3932
100003.3977
100003.4016
100003.4118
100003.4321
100003.4676
100003.5159
100003.5464
100003.559
100003.5707
100003.5838
100003.5964
100003.6088
100003.483
100003.4747
100003.4718
100003.464
100003.4569
100003.4487
100003.44
100003.4283
100003.4127
100003.3987
100003.39
100003.389
100003.3973
100003.4106
100003.4258
100003.4401
100003.4523
100003.4665
100003.4904
100003.5196
100003.5433
100003.566
100003.5896
100003.6107
100003.6307
100003.6424
100003.4651
100003.4598
100003.4597
100003.4542
100003.4488
100003.443
100003.4373
100003.4287
100003.4149
100003.4024
100003.3953
100003.3972
100003.4095
100003.4175
100003.4305
100003.4459
100003.46
100003.4748
100003.4946
100003.5178
100003.5425
100003.571
100003.6022
100003.6321
100003.6625
100003.671
100003.4376
100003.4373
100003.443
100003.4416
100003.4387
100003.4357
100003.4339
100003.4297
100003.4194
100003.4095
100003.4038
100003.4023
100003.409
100003.4134
100003.4247
100003.4492
100003.4682
100003.4803
100003.501
100003.5252
100003.5514
100003.5813
100003.6151
100003.6511
100003.692
100003.6951
100003.4046
100003.4062
100003.4177
100003.4235
100003.4246
100003.4254
100003.4287
100003.431
100003.4257
100003.4152
100003.4008
100003.3916
100003.3882
100003.3926
100003.4029
100003.438
100003.4696
100003.483
100003.5049
100003.5304
100003.5603
100003.5921
100003.6247
100003.6575
100003.6906
100003.694
100003.3787
100003.3757
100003.3836
100003.3962
100003.4019
100003.4089
100003.4185
100003.4286
100003.4268
100003.4125
100003.3898
100003.3684
100003.3556
100003.3524
100003.3698
100003.4197
100003.4581
100003.4778
100003.5
100003.5239
100003.5525
100003.5852
100003.6195
100003.6549
100003.6894
100003.7031
100003.3742
100003.3495
100003.3496
100003.3642
100003.3689
100003.3844
100003.4025
100003.4219
100003.4281
100003.4199
100003.4036
100003.3924
100003.3957
100003.403
100003.4169
100003.4378
100003.4545
100003.4697
100003.4885
100003.51
100003.5349
100003.5624
100003.5895
100003.6128
100003.6205
100003.5858
100003.3863
100003.3456
100003.3276
100003.3488
100003.3364
100003.3569
100003.3818
100003.4131
100003.4289
100003.4304
100003.4221
100003.412
100003.4067
100003.4073
100003.4162
100003.4299
100003.4439
100003.4585
100003.4754
100003.4959
100003.5196
100003.5445
100003.5679
100003.59
100003.6062
100003.6118
100003.466
100003.4058
100003.3662
100003.3513
100003.3162
100003.342
100003.3614
100003.4044
100003.4276
100003.4359
100003.4344
100003.4286
100003.4235
100003.4209
100003.4218
100003.4268
100003.4366
100003.4497
100003.4672
100003.4888
100003.5128
100003.5358
100003.5555
100003.5746
100003.5859
100003.582
100003.5609
100003.4868
100003.4469
100003.3991
100003.3385
100003.3409
100003.3599
100003.4031
100003.4285
100003.4407
100003.4422
100003.4383
100003.4324
100003.4272
100003.4248
100003.4271
100003.4355
100003.4474
100003.4655
100003.4884
100003.5133
100003.536
100003.5543
100003.5718
100003.5841
100003.5867
100003.584
100003.501
100003.4635
100003.419
100003.3778
100003.3868
100003.3956
100003.4181
100003.4369
100003.4473
100003.4481
100003.444
100003.4371
100003.4306
100003.4273
100003.4291
100003.4363
100003.4483
100003.4664
100003.4897
100003.5155
100003.5401
100003.5596
100003.5763
100003.591
100003.4651
100003.4638
100003.4645
100003.4514
100003.4383
100003.4424
100003.4462
100003.4455
100003.4524
100003.4571
100003.4554
100003.4504
100003.4431
100003.4367
100003.4333
100003.4349
100003.4412
100003.4525
100003.4697
100003.4925
100003.5184
100003.5444
100003.5678
100003.59
100003.6001
100003.5941
100003.5742
100003.5513
100003.5196
100003.5019
100003.5001
100003.4859
100003.4676
100003.4686
100003.469
100003.4653
100003.459
100003.4513
100003.445
100003.4417
100003.4433
100003.4485
100003.4587
100003.4748
100003.4969
100003.5208
100003.5443
100003.567
100003.5904
100003.5971
100003.5995
100003.5766
100003.5599
100003.5395
100003.5326
100003.53
100003.5005
100003.4775
100003.4843
100003.4831
100003.4783
100003.4709
100003.4631
100003.4567
100003.4529
100003.4532
100003.4581
100003.4668
100003.4815
100003.5068
100003.5331
100003.556
100003.578
100003.5994
100003.6111
100003.5764
100003.5253
100003.5308
100003.5352
100003.5432
100003.5223
100003.5067
100003.4949
100003.5073
100003.5025
100003.4952
100003.4869
100003.4794
100003.4737
100003.4697
100003.4684
100003.4706
100003.4761
100003.4859
100003.531
100003.552
100003.5741
100003.5927
100003.6088
100003.6171
100003.6206
100003.554
100003.5014
100003.5056
100003.5061
100003.5284
100003.5307
100003.5331
100003.5314
100003.532
100003.53
100003.5167
100003.5063
100003.4987
100003.4944
100003.4913
100003.489
100003.489
100003.4923
100003.501
100003.5193
100003.5433
100003.5804
100003.6037
100003.6198
100003.6289
100003.6365
100003.5066
100003.4801
100003.4658
100003.45
100003.4357
100003.4221
100003.4099
100003.3993
100003.3907
100003.3843
100003.3802
100003.3784
100003.3789
100003.3815
100003.3859
100003.3919
100003.399
100003.4065
100003.414
100003.4209
100003.4267
100003.4308
100003.4338
100003.4356
100003.4359
100003.4348
100003.4922
100003.4694
100003.456
100003.44
100003.4244
100003.4093
100003.3952
100003.3826
100003.3717
100003.3629
100003.356
100003.3514
100003.3491
100003.349
100003.3513
100003.3558
100003.3622
100003.3699
100003.378
100003.3858
100003.3927
100003.3985
100003.403
100003.4056
100003.4059
100003.4033
100003.4739
100003.4587
100003.4468
100003.4306
100003.4137
100003.3969
100003.3808
100003.3661
100003.3532
100003.3422
100003.3334
100003.3271
100003.3233
100003.3222
100003.3237
100003.3275
100003.333
100003.3395
100003.3464
100003.3537
100003.3608
100003.367
100003.372
100003.375
100003.3755
100003.3732
100003.4595
100003.4478
100003.4355
100003.4182
100003.4
100003.3815
100003.3636
100003.347
100003.3323
100003.3197
100003.3096
100003.3025
100003.2984
100003.2973
100003.2986
100003.3025
100003.3075
100003.3129
100003.3188
100003.3255
100003.332
100003.3374
100003.3418
100003.3446
100003.3451
100003.343
100003.4486
100003.4374
100003.4235
100003.4053
100003.3861
100003.3664
100003.3474
100003.3297
100003.314
100003.3009
100003.2908
100003.284
100003.2808
100003.2805
100003.2828
100003.2869
100003.2917
100003.2967
100003.3017
100003.307
100003.312
100003.3162
100003.3197
100003.3222
100003.3228
100003.3209
100003.4359
100003.4238
100003.4099
100003.3918
100003.3724
100003.3524
100003.3328
100003.3148