/*--------------------------------*- C++ -*----------------------------------*\
  =========                 |
  \\      /  F ield         | OpenFOAM: The Open Source CFD Toolbox
   \\    /   O peration     | Website:  https://openfoam.org
    \\  /    A nd           | Version:  8
     \\/     M anipulation  |
\*---------------------------------------------------------------------------*/
FoamFile
{
    version     2.0;
    format      ascii;
    class       volScalarField;
    location    "1.6";
    object      T;
}
// * * * * * * * * * * * * * * * * * * * * * * * * * * * * * * * * * * * * * //

dimensions      [0 0 0 1 0 0 0];

internalField   nonuniform List<scalar> 
67410
(
300.0021653
300.002247
300.0023024
300.0023417
300.0023681
300.0023867
300.0024008
300.0024136
300.0024269
300.002442
300.0024592
300.0024787
300.0025001
300.0025224
300.0025435
300.0025589
300.002561
300.0025372
300.0024697
300.0023658
300.002305
300.002293
300.0023005
300.0023071
300.0023577
300.002482
300.0021886
300.0023086
300.0023885
300.0024426
300.0024786
300.002504
300.0025238
300.0025413
300.0025587
300.002577
300.0025971
300.0026193
300.0026435
300.002669
300.0026938
300.0027133
300.0027205
300.0027025
300.0026376
300.0025134
300.0024278
300.0024307
300.0024564
300.0024646
300.0025161
300.0026565
300.0021917
300.0023389
300.0024304
300.0024912
300.0025336
300.0025649
300.0025891
300.0026091
300.0026267
300.002643
300.002659
300.0026756
300.0026934
300.0027132
300.0027341
300.0027531
300.0027651
300.0027597
300.0027131
300.0025886
300.0024804
300.0024982
300.0025396
300.0025409
300.0025741
300.0027048
300.0022155
300.0023728
300.0024568
300.0025166
300.0025641
300.0026015
300.0026298
300.0026512
300.0026678
300.0026811
300.0026923
300.0027033
300.0027145
300.0027289
300.0027466
300.0027655
300.0027811
300.0027835
300.0027507
300.0026358
300.0025063
300.002529
300.0025812
300.0025737
300.0025842
300.0027085
300.0023039
300.0024197
300.0024784
300.0025319
300.0025834
300.0026261
300.0026574
300.0026793
300.0026943
300.0027045
300.002711
300.0027172
300.0027252
300.002737
300.002753
300.0027719
300.0027893
300.0027956
300.0027703
300.0026682
300.0025241
300.0025401
300.0025965
300.0025825
300.0025741
300.0026952
300.0023875
300.0024645
300.0024967
300.0025421
300.0025964
300.0026434
300.0026768
300.0026987
300.0027121
300.00272
300.0027248
300.0027291
300.002735
300.002744
300.0027568
300.0027729
300.0027888
300.0027959
300.0027746
300.0026863
300.0025436
300.0025401
300.0025902
300.0025745
300.0025588
300.0026741
300.0024437
300.0024992
300.0025106
300.0025471
300.0026024
300.0026524
300.0026876
300.00271
300.0027231
300.0027306
300.0027353
300.0027389
300.0027425
300.0027473
300.0027542
300.0027637
300.0027741
300.0027786
300.0027599
300.0026861
300.0025555
300.0025245
300.002557
300.0025458
300.0025442
300.002647
300.0024758
300.0025221
300.0025183
300.0025446
300.0025987
300.002651
300.0026882
300.0027119
300.002726
300.0027349
300.0027404
300.0027436
300.0027447
300.0027444
300.0027435
300.002743
300.0027427
300.0027385
300.0027215
300.0026663
300.0025562
300.0024939
300.0024971
300.0025005
300.0025355
300.0026245
300.0024877
300.0025304
300.0025163
300.0025319
300.0025823
300.0026358
300.0026752
300.002701
300.0027174
300.0027284
300.0027353
300.0027386
300.002738
300.0027341
300.0027272
300.0027168
300.0027001
300.0026738
300.0026624
300.0026339
300.0025506
300.0024713
300.0024445
300.0024657
300.0025351
300.0026171
300.0024844
300.002522
300.0025016
300.0025074
300.0025519
300.0026051
300.002646
300.0026731
300.0026909
300.0027031
300.0027114
300.0027161
300.0027165
300.0027134
300.0027045
300.0026829
300.0026438
300.0025885
300.0026048
300.0026028
300.0025501
300.0024871
300.0024551
300.0024729
300.0025361
300.0026083
300.0024775
300.0025019
300.0024792
300.0024779
300.0025128
300.0025618
300.0026024
300.0026278
300.002642
300.0026504
300.0026561
300.0026622
300.0026631
300.0026601
300.0026431
300.0025985
300.0025178
300.0024449
300.0025364
300.0025706
300.0025598
300.0025287
300.0025178
300.0025222
300.0025406
300.0025914
300.0024863
300.0024924
300.0024736
300.002467
300.0024825
300.002516
300.0025527
300.0025772
300.0025871
300.0025876
300.0025854
300.002585
300.0025838
300.0025708
300.0025272
300.0024407
300.002342
300.0023192
300.0024116
300.0025028
300.0025732
300.002576
300.0025873
300.0025964
300.0025585
300.0025753
300.0025201
300.0025199
300.0025136
300.002503
300.0024881
300.0024844
300.002503
300.0025256
300.0025371
300.0025382
300.0025353
300.0025322
300.002522
300.0024851
300.0024012
300.0023072
300.0022713
300.0023612
300.0023394
300.0023969
300.0025881
300.0026304
300.0026612
300.0026897
300.0026027
300.0025757
300.0025714
300.0025806
300.0025886
300.0025778
300.0025401
300.0024905
300.0024702
300.0024816
300.0024958
300.0025048
300.0025112
300.0025125
300.0024952
300.002448
300.0023785
300.0023356
300.0024025
300.0026015
300.0024052
300.002349
300.0026135
300.0026931
300.0027406
300.0027857
300.0026679
300.0026152
300.0026309
300.0026476
300.002663
300.0026547
300.002613
300.002537
300.0024705
300.0024642
300.0024839
300.0025071
300.0025321
300.0025596
300.0025822
300.0025891
300.0025753
300.0025127
300.0024462
300.002467
300.0025026
300.0026402
300.0026946
300.0027611
300.0028233
300.0028824
300.0027426
300.002687
300.0026975
300.0027055
300.0027193
300.0027121
300.0026778
300.0026017
300.0024953
300.002462
300.0024834
300.0025158
300.0025536
300.0025966
300.0026243
300.0026171
300.0026057
300.002573
300.0024681
300.0024334
300.0025684
300.0026478
300.0027313
300.0028157
300.0029066
300.0029931
300.002849
300.0027738
300.0027666
300.0027518
300.0027581
300.0027478
300.0027226
300.0026623
300.0025307
300.0024589
300.0024706
300.0025008
300.0025436
300.002592
300.0025886
300.002502
300.0025308
300.0026938
300.0026364
300.0025808
300.0026001
300.0026737
300.0027604
300.0028573
300.0029606
300.0030527
300.0029092
300.0028563
300.0027875
300.002778
300.002781
300.0027694
300.0027489
300.0027058
300.0025656
300.0024534
300.0024465
300.0024656
300.0025
300.0025006
300.0023316
300.0020771
300.0021974
300.0026818
300.0026728
300.002636
300.0025779
300.002587
300.002648
300.0027305
300.0028208
300.0029
300.0028016
300.0028201
300.0026693
300.0027689
300.0027854
300.0027773
300.0027587
300.0027304
300.0025914
300.0024479
300.0024199
300.0024212
300.0024046
300.0022618
300.0018983
300.0017167
300.0019642
300.0024769
300.0026067
300.0026358
300.002544
300.0025349
300.0025648
300.0026109
300.0026758
300.0027495
300.0027562
300.0028418
300.0023989
300.0027025
300.0027946
300.0027688
300.0027442
300.0027333
300.0026078
300.002441
300.002396
300.0024266
300.0024718
300.002468
300.0023593
300.0022603
300.002275
300.0025852
300.0025526
300.002544
300.0025245
300.0025544
300.0025906
300.0026225
300.0026517
300.002676
300.0027921
300.0029831
300.0021042
300.0025919
300.0027801
300.00275
300.0026887
300.0026855
300.0026178
300.0024677
300.0023481
300.0023544
300.0023669
300.0023874
300.00238
300.0023597
300.0023504
300.00249
300.0024876
300.0025258
300.0025625
300.0026046
300.0026417
300.0026717
300.0026942
300.0026973
300.0027488
300.0028308
300.0019142
300.002502
300.0027077
300.0026362
300.0026084
300.0026096
300.0025815
300.0024606
300.0023114
300.0023012
300.0023024
300.0023395
300.002387
300.0024098
300.0024243
300.0024893
300.0025288
300.0025795
300.00262
300.0026555
300.0026868
300.0027129
300.0027288
300.0027308
300.0027537
300.0028173
300.0018361
300.002431
300.0025578
300.0023332
300.0024853
300.0025429
300.0025597
300.0024878
300.0023517
300.0023835
300.0024038
300.0024285
300.0024656
300.0024978
300.0025278
300.0025653
300.0025953
300.0026257
300.002654
300.0026814
300.0027095
300.0027342
300.0027402
300.0027414
300.0027476
300.0027906
300.0018031
300.0023337
300.002196
300.0018642
300.0023363
300.0024354
300.0025307
300.0025076
300.0023893
300.0024424
300.002495
300.0025293
300.0025564
300.0025772
300.0025968
300.0026178
300.0026376
300.0026583
300.0026802
300.0027039
300.0027291
300.0027502
300.0027483
300.0027519
300.0027449
300.0027826
300.0016219
300.0018914
300.0013193
300.0013643
300.002269
300.0023616
300.0025015
300.0025066
300.0024077
300.002478
300.002551
300.0025918
300.0026182
300.0026347
300.0026461
300.0026567
300.002669
300.0026845
300.0027032
300.0027256
300.0027507
300.0027707
300.002767
300.0027349
300.0027577
300.0019603
300.0024525
300.0024024
300.0022428
300.0025667
300.0026453
300.002643
300.0025299
300.0024108
300.0024917
300.0025829
300.0026314
300.0026611
300.0026762
300.0026831
300.0026881
300.0026968
300.0027114
300.0027318
300.002757
300.0027839
300.002808
300.0028183
300.0027968
300.0027893
300.0017022
300.002232
300.0023178
300.0022581
300.0023782
300.0025683
300.0026233
300.0025115
300.002395
300.0024866
300.0025952
300.0026502
300.0026855
300.0027032
300.0027089
300.0027089
300.0027113
300.0027232
300.0027476
300.0027826
300.0028171
300.0028509
300.0028709
300.0028034
300.0027748
300.0021126
300.0023008
300.0023189
300.0023423
300.0024724
300.0024965
300.0026076
300.0025414
300.0023793
300.0024758
300.0025925
300.0026499
300.0026892
300.0027118
300.0027208
300.0027174
300.0027102
300.002711
300.0027261
300.0027483
300.0027615
300.0027899
300.0027954
300.0027788
300.002794
300.002792
300.0026504
300.0024986
300.0023261
300.0022852
300.0023806
300.0026518
300.0026127
300.00242
300.0025081
300.0025944
300.0026419
300.0026735
300.0026925
300.0027062
300.0027088
300.0027029
300.0027
300.0027224
300.0028233
300.0027893
300.002763
300.0027574
300.0027778
300.0028104
300.0028815
300.0035208
300.0031441
300.0028076
300.0025649
300.0023714
300.0022942
300.0023633
300.0025258
300.0025795
300.0026295
300.0026267
300.0026516
300.0026655
300.0026598
300.0026632
300.0026754
300.0026882
300.0026992
300.0027131
300.0027201
300.0026093
300.0027676
300.0027741
300.0028082
300.0028331
300.0028714
300.0021362
300.0022127
300.0022659
300.0023044
300.0023298
300.0023459
300.0023556
300.0023614
300.0023654
300.0023694
300.0023744
300.0023812
300.00239
300.0024002
300.00241
300.002416
300.0024124
300.0023917
300.0023483
300.0022915
300.0022525
300.0022335
300.0022281
300.0022267
300.0022497
300.002328
300.0021567
300.0022655
300.0023423
300.0023962
300.0024321
300.0024559
300.0024717
300.0024828
300.0024917
300.0025004
300.0025105
300.0025232
300.0025387
300.0025559
300.002572
300.0025829
300.0025824
300.0025634
300.0025202
300.0024554
300.0024031
300.0023874
300.0023884
300.002387
300.0024055
300.0024951
300.0021587
300.0022913
300.0023825
300.0024449
300.0024877
300.0025177
300.0025389
300.0025544
300.0025672
300.0025795
300.0025935
300.0026105
300.002631
300.0026532
300.0026743
300.0026907
300.0026962
300.0026826
300.0026429
300.0025777
300.0025183
300.0025084
300.0025141
300.0025048
300.0025015
300.002581
300.0021632
300.0023205
300.0024113
300.0024734
300.0025197
300.0025547
300.0025808
300.0026006
300.0026174
300.0026343
300.0026534
300.0026755
300.0027017
300.0027289
300.0027532
300.0027723
300.002781
300.002771
300.0027334
300.0026682
300.0026068
300.002599
300.0026066
300.0025879
300.0025609
300.002628
300.002241
300.0023696
300.0024395
300.0024923
300.0025384
300.0025774
300.002608
300.0026324
300.0026543
300.0026767
300.002702
300.0027283
300.0027538
300.0027781
300.0028003
300.0028182
300.002827
300.0028187
300.0027839
300.0027227
300.0026642
300.0026537
300.0026606
300.0026366
300.0025947
300.0026507
300.0023379
300.0024261
300.002468
300.0025064
300.0025499
300.0025915
300.0026263
300.0026557
300.0026836
300.0027118
300.0027392
300.0027646
300.0027876
300.0028077
300.0028249
300.0028381
300.0028439
300.0028352
300.0028031
300.0027467
300.0026894
300.0026732
300.0026754
300.0026505
300.0026072
300.0026557
300.0024116
300.0024755
300.0024937
300.0025167
300.0025554
300.0025985
300.0026371
300.0026712
300.0027042
300.0027353
300.0027624
300.0027859
300.002805
300.0028195
300.0028299
300.0028361
300.0028362
300.0028251
300.0027956
300.0027458
300.0026912
300.0026665
300.0026597
300.0026348
300.0026037
300.0026505
300.0024602
300.0025126
300.0025134
300.0025218
300.0025544
300.0025979
300.0026395
300.0026772
300.0027132
300.0027446
300.0027705
300.0027913
300.0028061
300.0028147
300.0028179
300.0028161
300.0028087
300.0027934
300.002767
300.0027263
300.0026763
300.0026419
300.0026234
300.0026022
300.0025959
300.002646
300.0024847
300.0025314
300.0025213
300.0025181
300.0025448
300.0025882
300.0026319
300.0026714
300.0027076
300.002738
300.0027616
300.0027791
300.0027898
300.0027936
300.0027907
300.0027813
300.0027644
300.0027431
300.0027239
300.0026978
300.002655
300.0026122
300.0025848
300.0025748
300.0025961
300.00265
300.0024861
300.0025271
300.0025114
300.002502
300.0025249
300.002568
300.0026128
300.0026523
300.002686
300.0027139
300.002734
300.0027477
300.002755
300.0027549
300.0027464
300.0027288
300.0027005
300.0026758
300.0026722
300.0026701
300.0026422
300.0026042
300.002576
300.0025739
300.0026066
300.0026576
300.002475
300.0025028
300.0024849
300.0024751
300.0024964
300.0025384
300.0025829
300.002621
300.0026509
300.0026735
300.00269
300.0026988
300.0027021
300.0026953
300.0026763
300.0026527
300.0026384
300.0026381
300.0026258
300.0026453
300.0026421
300.0026212
300.0026025
300.0026009
300.0026232
300.0026629
300.002474
300.002479
300.0024602
300.0024525
300.0024697
300.0025051
300.0025459
300.0025816
300.0026081
300.0026254
300.0026356
300.0026393
300.0026343
300.0026159
300.0025935
300.0026003
300.0026335
300.0026751
300.0026201
300.002617
300.002643
300.0026472
300.0026432
300.0026446
300.0026439
300.002665
300.0025
300.0024855
300.0024679
300.0024595
300.0024636
300.00248
300.002508
300.0025386
300.002563
300.0025785
300.0025862
300.0025859
300.0025736
300.0025532
300.0025592
300.0026131
300.0027085
300.0027984
300.002689
300.0025939
300.0026436
300.0026827
300.0026984
300.0027062
300.0026794
300.0026702
300.0025489
300.0025322
300.0025189
300.0025058
300.0024911
300.0024782
300.0024802
300.0024988
300.0025209
300.0025388
300.0025513
300.0025562
300.0025496
300.0025461
300.0025869
300.0026726
300.0027939
300.0028996
300.0027729
300.0026114
300.0026599
300.0027294
300.0027681
300.0027826
300.002734
300.0026897
300.0026072
300.0025983
300.0025913
300.0025741
300.0025433
300.0025035
300.0024727
300.0024721
300.0024915
300.0025165
300.0025418
300.0025633
300.0025755
300.0025765
300.0025701
300.00257
300.0026028
300.0026768
300.0026861
300.002634
300.0026966
300.0027797
300.0028454
300.0028658
300.002799
300.0027263
300.002664
300.0026586
300.0026578
300.002642
300.0026028
300.0025439
300.0024827
300.0024559
300.0024694
300.0025014
300.0025374
300.0025668
300.002585
300.0026009
300.0026093
300.0026157
300.0025953
300.0025904
300.0026127
300.0026644
300.0027321
300.0028223
300.0029051
300.0029251
300.0028329
300.0027643
300.0027119
300.0026978
300.0027028
300.0026956
300.0026563
300.0025843
300.0024993
300.0024409
300.0024441
300.0024813
300.0025216
300.0025464
300.0025604
300.0026078
300.0026138
300.0026506
300.0026516
300.0026339
300.0026312
300.0026701
300.0027315
300.0028185
300.0029033
300.0029306
300.0028565
300.0028134
300.0027427
300.0027065
300.0027158
300.0027185
300.0026893
300.002614
300.0025115
300.0024235
300.0024171
300.0024614
300.0025058
300.0025216
300.0025274
300.002595
300.0026218
300.002612
300.0026552
300.0026513
300.002631
300.0026385
300.0026771
300.0027393
300.0028091
300.0028484
300.0028193
300.0028299
300.0027628
300.0026955
300.0026932
300.0027033
300.0026897
300.0026212
300.0025094
300.0024011
300.0023892
300.0024489
300.0025131
300.0025565
300.0026074
300.002774
300.0028211
300.0025547
300.0026154
300.0026284
300.0026014
300.0026001
300.0026242
300.0026641
300.0027142
300.0027628
300.0027901
300.0028601
300.0027788
300.002714
300.0026644
300.002653
300.0026501
300.0026029
300.0024922
300.0023726
300.0023509
300.00243
300.0024972
300.0024982
300.002454
300.0025433
300.0026872
300.0024727
300.0025399
300.0025731
300.0025739
300.0025938
300.0026231
300.0026534
300.0026854
300.0027274
300.0028165
300.0030019
300.0027845
300.0027803
300.002674
300.0026037
300.0025702
300.0025618
300.0024709
300.0023478
300.0022877
300.0023226
300.002397
300.0024621
300.0024574
300.0024427
300.0024674
300.0025092
300.0025346
300.0025593
300.0025863
300.0026211
300.0026557
300.0026815
300.0027025
300.0027219
300.002755
300.0027939
300.0027713
300.0028201
300.0027159
300.0026117
300.0025106
300.0025024
300.0024512
300.0023323
300.0022693
300.0022908
300.0023224
300.0023632
300.0023919
300.0024092
300.0024384
300.0025016
300.0025436
300.0025874
300.0026283
300.0026693
300.0027033
300.00272
300.0027336
300.0027436
300.0027627
300.0028019
300.0027754
300.0028573
300.00273
300.0027136
300.0025757
300.0024968
300.0024331
300.0023497
300.0022933
300.0023442
300.0023813
300.0024149
300.0024527
300.0024893
300.0025233
300.0025621
300.0025979
300.0026352
300.0026733
300.0027116
300.0027405
300.0027508
300.0027616
300.0027544
300.0027644
300.0027804
300.0027932
300.0028713
300.0026778
300.0027304
300.0027082
300.0025406
300.002435
300.0023824
300.002328
300.0023988
300.0024567
300.0024968
300.0025291
300.0025567
300.0025837
300.0026135
300.0026426
300.0026714
300.0026995
300.002726
300.0027496
300.0027705
300.0027882
300.0027565
300.002761
300.0027703
300.0028127
300.0028483
300.0026514
300.0029848
300.003031
300.0026437
300.0024888
300.002418
300.0023609
300.0024384
300.0025091
300.0025552
300.0025888
300.002615
300.0026375
300.0026591
300.00268
300.0027003
300.0027211
300.0027417
300.0027634
300.0027873
300.0028023
300.0027721
300.0027512
300.0029061
300.0028383
300.0026607
300.0026115
300.0025568
300.0026045
300.0025975
300.0024687
300.0023966
300.0024645
300.002546
300.0025986
300.0026358
300.0026624
300.0026822
300.0026974
300.0027097
300.0027225
300.0027383
300.0027579
300.0027833
300.0028105
300.002819
300.0027642
300.0027487
300.0026779
300.0027674
300.0026494
300.0026108
300.0026178
300.0027001
300.0027057
300.0025733
300.0024445
300.0024845
300.0025709
300.0026272
300.0026688
300.0026979
300.0027176
300.0027277
300.0027309
300.0027348
300.0027466
300.0027691
300.0028066
300.0028479
300.0028594
300.0027813
300.0027496
300.0028526
300.0028004
300.0027361
300.0027127
300.0027114
300.0027518
300.002786
300.0027123
300.0025079
300.0025095
300.0025891
300.0026435
300.002686
300.0027168
300.0027377
300.0027464
300.0027427
300.0027365
300.0027354
300.0027362
300.0027642
300.0027861
300.0027967
300.0027698
300.0027749
300.0028908
300.0028028
300.0027287
300.002723
300.0026928
300.0027679
300.0028629
300.0027733
300.0025786
300.0025613
300.002613
300.0026546
300.0026884
300.002712
300.0027298
300.0027388
300.0027369
300.002728
300.0027075
300.0026349
300.0027313
300.0027643
300.0027792
300.0027832
300.0027991
300.00283
300.0033885
300.0030146
300.0028068
300.0027563
300.002712
300.0026184
300.0026279
300.0025655
300.0026141
300.0026459
300.0026576
300.0026769
300.0026935
300.0026964
300.0026999
300.0027074
300.0027139
300.0027179
300.0027211
300.0027335
300.0028224
300.002767
300.0027949
300.0028106
300.0028246
300.0028476
300.0020535
300.0021267
300.0021791
300.0022184
300.0022452
300.0022627
300.0022731
300.0022783
300.0022802
300.0022806
300.0022805
300.0022812
300.0022831
300.002286
300.0022888
300.0022893
300.0022836
300.0022673
300.0022387
300.0022035
300.0021752
300.0021552
300.0021432
300.0021344
300.0021401
300.0021828
300.0020718
300.0021741
300.0022488
300.0023037
300.0023421
300.0023686
300.0023865
300.0023987
300.0024073
300.0024143
300.0024213
300.0024294
300.0024391
300.0024498
300.0024597
300.0024657
300.0024639
300.0024501
300.0024215
300.0023811
300.0023437
300.0023214
300.0023098
300.0022998
300.0023028
300.0023531
300.0020747
300.0021972
300.0022875
300.0023524
300.0023985
300.0024319
300.0024564
300.002475
300.0024901
300.0025037
300.0025176
300.0025327
300.0025496
300.0025675
300.0025846
300.0025976
300.002602
300.0025926
300.002566
300.0025254
300.0024863
300.0024663
300.0024558
300.0024399
300.0024276
300.0024646
300.0020714
300.0022217
300.0023177
300.0023849
300.0024346
300.0024731
300.0025035
300.0025283
300.00255
300.0025704
300.0025912
300.0026133
300.0026368
300.0026606
300.0026843
300.002703
300.0027116
300.0027045
300.0026777
300.0026363
300.0025983
300.0025805
300.0025708
300.0025483
300.0025198
300.0025398
300.0021264
300.0022682
300.0023512
300.0024104
300.0024586
300.0025
300.0025352
300.0025659
300.0025938
300.0026208
300.0026482
300.0026759
300.0027034
300.0027284
300.0027506
300.0027681
300.0027767
300.0027707
300.0027458
300.0027066
300.0026705
300.0026541
300.0026444
300.0026183
300.0025806
300.0025884
300.0022298
300.0023315
300.0023892
300.002433
300.0024753
300.0025171
300.0025559
300.0025914
300.0026249
300.0026577
300.0026902
300.0027193
300.0027448
300.002767
300.0027854
300.002799
300.0028048
300.0027981
300.0027749
300.0027387
300.0027044
300.0026878
300.0026778
300.0026508
300.0026132
300.0026166
300.0023166
300.0023925
300.0024265
300.0024526
300.002486
300.0025261
300.0025669
300.0026059
300.0026435
300.0026805
300.0027147
300.0027425
300.0027652
300.002783
300.0027959
300.0028037
300.0028049
300.0027962
300.0027746
300.0027426
300.0027108
300.0026921
300.0026796
300.0026551
300.0026249
300.0026316
300.0023786
300.002441
300.0024572
300.0024668
300.0024902
300.0025272
300.0025686
300.0026097
300.0026496
300.0026885
300.0027221
300.0027481
300.0027674
300.0027805
300.0027877
300.0027894
300.0027853
300.0027742
300.0027551
300.0027291
300.0027009
300.0026802
300.0026647
300.0026445
300.0026276
300.0026422
300.002414
300.0024691
300.0024733
300.0024707
300.0024859
300.0025198
300.0025612
300.0026031
300.0026433
300.0026813
300.0027139
300.0027375
300.0027536
300.0027626
300.0027652
300.0027618
300.002753
300.0027404
300.0027263
300.0027089
300.0026868
300.0026656
300.0026481
300.0026339
300.0026323
300.0026547
300.0024229
300.0024706
300.0024681
300.0024596
300.0024711
300.0025037
300.0025451
300.0025867
300.0026255
300.0026606
300.0026911
300.0027127
300.0027264
300.0027326
300.0027317
300.0027238
300.0027116
300.0027013
300.0026965
300.0026895
300.0026773
300.0026602
300.002644
300.0026363
300.002644
300.0026685
300.0024146
300.0024484
300.0024422
300.0024342
300.0024469
300.0024799
300.0025212
300.002562
300.0025987
300.0026306
300.002657
300.0026765
300.0026897
300.0026937
300.002689
300.0026763
300.002665
300.0026675
300.0026739
300.0026688
300.0026737
300.002668
300.002658
300.0026538
300.002661
300.002681
300.0024125
300.0024213
300.0024113
300.0024069
300.0024219
300.0024536
300.0024926
300.0025313
300.0025658
300.0025952
300.002619
300.0026367
300.0026474
300.0026495
300.0026435
300.0026281
300.0026272
300.0026588
300.0026702
300.0026409
300.0026706
300.0026832
300.0026823
300.0026799
300.0026799
300.0026907
300.0024367
300.0024189
300.0024047
300.0024015
300.0024126
300.0024346
300.0024645
300.0024979
300.0025301
300.0025588
300.0025827
300.0026009
300.0026117
300.0026143
300.0026058
300.0026012
300.0026298
300.002705
300.0027002
300.0026143
300.0026673
300.0027028
300.0027125
300.0027131
300.0027006
300.002699
300.0024857
300.0024566
300.002442
300.0024358
300.0024333
300.0024343
300.0024445
300.0024665
300.0024952
300.0025254
300.0025538
300.0025775
300.0025937
300.0026009
300.0026021
300.0026129
300.0026685
300.0027639
300.0027415
300.002615
300.0026745
300.0027279
300.0027526
300.0027569
300.002729
300.0027091
300.0025453
300.0025195
300.0025109
300.002502
300.0024824
300.0024565
300.0024385
300.0024421
300.0024654
300.0024995
300.0025365
300.0025702
300.0025954
300.0026082
300.002606
300.0025984
300.0026155
300.0026744
300.0026909
300.0026172
300.0026741
300.0027479
300.0027982
300.0028062
300.0027607
300.0027202
300.0026033
300.0025813
300.002581
300.0025748
300.0025433
300.0024927
300.0024445
300.0024243
300.0024401
300.0024787
300.0025249
300.0025672
300.0025979
300.0026157
300.0026263
300.0026142
300.0025913
300.0025829
300.0026024
300.0026303
300.0026962
300.0027727
300.0028347
300.0028417
300.0027791
300.0027269
300.002654
300.0026257
300.0026295
300.0026302
300.002596
300.0025284
300.0024534
300.0024077
300.002415
300.002459
300.0025131
300.002556
300.002577
300.0025894
300.0026265
300.0026297
300.0026335
300.0026223
300.0026227
300.0026499
300.0026998
300.0027685
300.0028321
300.0028462
300.0027938
300.0027418
300.0026982
300.0026494
300.0026476
300.0026526
300.0026233
300.0025488
300.0024539
300.0023868
300.002389
300.0024413
300.0025006
300.0025241
300.0025044
300.0025063
300.0025848
300.00258
300.0026273
300.002633
300.0026286
300.0026396
300.0026704
300.0027199
300.0027731
300.0027979
300.0027769
300.0027432
300.0027426
300.0026625
300.0026396
300.0026406
300.0026173
300.0025441
300.0024368
300.0023554
300.002358
300.0024223
300.0024867
300.0024925
300.0024634
300.0025464
300.0026753
300.0025257
300.0025867
300.0026121
300.0026084
300.0026134
300.0026315
300.0026603
300.0026949
300.0027222
300.0027281
300.0027262
300.0027807
300.0026814
300.0026247
300.0026047
300.0025815
300.0025153
300.0024026
300.0023108
300.0023133
300.0023929
300.0024762
300.0025016
300.0025047
300.0026063
300.0027148
300.0025068
300.0025376
300.0025775
300.0025885
300.0026017
300.0026203
300.0026414
300.0026634
300.0026861
300.0027072
300.0027118
300.0027832
300.0026866
300.0026251
300.0025703
300.0025319
300.0024725
300.002366
300.0022636
300.0022479
300.002315
300.002411
300.0024636
300.0024411
300.0024099
300.0024547
300.0024917
300.0025456
300.0025711
300.0025896
300.0026109
300.0026336
300.0026521
300.0026651
300.0026728
300.0026714
300.0026431
300.0027239
300.00267
300.0026221
300.002555
300.0025142
300.0024301
300.0023472
300.0022396
300.0022158
300.002256
300.0023089
300.0023617
300.0023956
300.0024186
300.0024561
300.0025061
300.0025476
300.0025805
300.0026099
300.0026394
300.0026653
300.0026808
300.0026882
300.0026901
300.0026896
300.0026828
300.0026452
300.0026448
300.002591
300.0024878
300.0025221
300.0023968
300.0023566
300.0022521
300.0022319
300.0022823
300.0023305
300.0023763
300.002422
300.0024658
300.0025065
300.0025449
300.0025792
300.0026102
300.0026412
300.0026716
300.0026963
300.0027087
300.002712
300.0027045
300.0026998
300.0026887
300.002588
300.0026134
300.0025026
300.0024267
300.0025453
300.0023908
300.0023935
300.0022939
300.0022718
300.0023315
300.0023894
300.0024361
300.0024769
300.0025139
300.0025487
300.002582
300.0026126
300.0026393
300.0026647
300.0026882
300.002709
300.002725
300.002731
300.0027126
300.002705
300.0027023
300.002578
300.002591
300.0024998
300.0025866
300.0027551
300.0025412
300.0024521
300.0023569
300.0023179
300.002376
300.0024394
300.0024888
300.0025291
300.0025635
300.0025936
300.0026202
300.0026438
300.0026644
300.0026833
300.0027009
300.0027185
300.0027358
300.0027433
300.002723
300.0027007
300.0026385
300.0025691
300.0025232
300.0024742
300.0024931
300.0025151
300.0025094
300.0024381
300.0023674
300.0024144
300.0024807
300.0025334
300.0025749
300.0026078
300.0026341
300.0026551
300.0026713
300.0026848
300.002698
300.0027121
300.0027289
300.0027456
300.0027493
300.0027218
300.0026925
300.002652
300.0025513
300.0025288
300.0025661
300.0026107
300.0026073
300.002584
300.0025436
300.0024258
300.00245
300.0025146
300.0025682
300.0026105
300.0026431
300.0026672
300.0026837
300.0026926
300.0026984
300.0027064
300.0027191
300.00274
300.0027619
300.0027656
300.002729
300.0027207
300.0026703
300.0026312
300.0026059
300.0026333
300.0026446
300.002616
300.0026602
300.0026512
300.0024909
300.0024911
300.0025461
300.0025951
300.0026349
300.0026653
300.0026872
300.0027
300.0027041
300.002703
300.0027028
300.0027084
300.0027188
300.0027294
300.0027334
300.0027181
300.0027204
300.0027003
300.0026505
300.0026235
300.002643
300.0026292
300.0026348
300.0027086
300.0026953
300.0025589
300.002548
300.0025843
300.00262
300.0026505
300.0026729
300.0026889
300.0026986
300.0027015
300.0026992
300.0026974
300.0027232
300.0027118
300.0027169
300.0027276
300.0027313
300.0027437
300.0027664
300.0029551
300.0027576
300.0026719
300.0026621
300.0026323
300.002594
300.0025621
300.0025467
300.0025726
300.0026198
300.0026364
300.0026527
300.0026688
300.0026759
300.0026805
300.002686
300.0026917
300.0026979
300.0027054
300.0027256
300.0027659
300.002732
300.0027435
300.0027543
300.0027655
300.0027869
300.0019561
300.002027
300.0020786
300.0021192
300.0021484
300.0021689
300.0021821
300.0021896
300.0021929
300.0021936
300.0021926
300.0021909
300.0021892
300.0021876
300.0021857
300.0021822
300.0021752
300.0021624
300.0021429
300.0021194
300.0020974
300.0020782
300.0020632
300.0020504
300.0020458
300.0020631
300.001972
300.0020689
300.0021424
300.0021988
300.0022402
300.0022705
300.0022921
300.0023075
300.0023186
300.0023268
300.0023335
300.0023398
300.0023462
300.0023528
300.0023585
300.0023617
300.0023599
300.0023502
300.0023309
300.0023036
300.0022752
300.0022524
300.0022354
300.0022206
300.0022147
300.0022382
300.0019758
300.00209
300.0021791
300.0022463
300.002296
300.0023334
300.002362
300.0023844
300.0024025
300.0024181
300.0024324
300.0024465
300.0024611
300.0024759
300.0024899
300.0025011
300.0025063
300.0025018
300.0024851
300.0024583
300.00243
300.0024093
300.0023936
300.0023754
300.0023598
300.0023733
300.0019711
300.0021103
300.0022093
300.0022813
300.0023351
300.0023773
300.0024115
300.00244
300.0024647
300.0024873
300.002509
300.0025307
300.002553
300.0025752
300.0025959
300.0026136
300.0026244
300.0026233
300.002608
300.0025823
300.0025557
300.0025381
300.0025247
300.0025036
300.0024776
300.0024775
300.0020002
300.0021509
300.002245
300.0023122
300.0023645
300.0024083
300.002446
300.0024794
300.0025097
300.0025384
300.0025665
300.0025948
300.0026231
300.0026506
300.0026732
300.0026915
300.0027027
300.0027028
300.0026888
300.0026641
300.0026395
300.0026243
300.0026134
300.0025919
300.0025603
300.0025506
300.0021007
300.0022158
300.0022896
300.002343
300.0023879
300.0024296
300.0024687
300.0025053
300.0025398