/*--------------------------------*- C++ -*----------------------------------*\
  =========                 |
  \\      /  F ield         | OpenFOAM: The Open Source CFD Toolbox
   \\    /   O peration     | Website:  https://openfoam.org
    \\  /    A nd           | Version:  8
     \\/     M anipulation  |
\*---------------------------------------------------------------------------*/
FoamFile
{
    version     2.0;
    format      ascii;
    class       volVectorField;
    location    "1.6";
    object      U;
}
// * * * * * * * * * * * * * * * * * * * * * * * * * * * * * * * * * * * * * //

dimensions      [0 1 -1 0 0 0 0];

internalField   nonuniform List<vector> 
67410
(
(-0.11144805 0.03195690618 0.07607146374)
(-0.1896917965 -0.01648320096 0.08180885134)
(-0.2679406524 -0.03660965154 0.08324666533)
(-0.3193763757 -0.04551888122 0.08462009449)
(-0.3648659816 -0.05180198781 0.08773626977)
(-0.4036411625 -0.0585854813 0.09336569902)
(-0.4367891175 -0.06753489559 0.1016599917)
(-0.4638967418 -0.07949040204 0.1123987406)
(-0.4839627195 -0.09479626732 0.1248403763)
(-0.4957169522 -0.1133286108 0.1376932664)
(-0.4977440038 -0.1343336435 0.1494402029)
(-0.4885610139 -0.1562869677 0.1585085827)
(-0.4671556248 -0.1773862124 0.1634473422)
(-0.4331672359 -0.1959089644 0.1635025391)
(-0.3866899672 -0.2104141024 0.1587836207)
(-0.3286978175 -0.2193334191 0.15045883)
(-0.2623766082 -0.22004379 0.1412285563)
(-0.194791274 -0.2073818077 0.1365194448)
(-0.1406000209 -0.1742983065 0.1438677573)
(-0.1225551902 -0.1318947603 0.1611551376)
(-0.1401739949 -0.1193113074 0.161749065)
(-0.1487588094 -0.1199276916 0.1494374687)
(-0.1532753474 -0.124962865 0.1479814376)
(-0.1656097761 -0.1197405903 0.1688187589)
(-0.210366341 -0.12580465 0.1895706221)
(-0.2429129326 -0.1704481347 0.178917708)
(-0.07528412418 0.06029095934 0.07566248266)
(-0.1421476573 -0.03426694869 0.08258906636)
(-0.229024343 -0.07068899673 0.08016237991)
(-0.2935314369 -0.08939074026 0.07832581901)
(-0.3506690046 -0.1050724448 0.07870655102)
(-0.398397011 -0.1223174498 0.08122344545)
(-0.4380686102 -0.143418978 0.08525146433)
(-0.4697719929 -0.1693341656 0.08965981413)
(-0.4931446316 -0.2000267322 0.09278049709)
(-0.5074495823 -0.2343452692 0.09283225579)
(-0.5115580844 -0.2698158167 0.08868430507)
(-0.5042918127 -0.3033277769 0.0800244521)
(-0.4849589613 -0.3320042742 0.06737330854)
(-0.4533236639 -0.3540122158 0.05185227201)
(-0.4096416668 -0.3685123466 0.03501669997)
(-0.3552960326 -0.3747068533 0.01925078327)
(-0.2938294553 -0.3712024808 0.009098596139)
(-0.2316654078 -0.3555961414 0.0123861258)
(-0.178855638 -0.3247890852 0.04029469344)
(-0.1455103064 -0.2881173183 0.09374971938)
(-0.1557830836 -0.269366825 0.1153393022)
(-0.1621088685 -0.2639465335 0.0890539463)
(-0.1586345866 -0.2614125313 0.0776695456)
(-0.1665311393 -0.2551039441 0.1059668815)
(-0.2060191926 -0.262858557 0.119600742)
(-0.2407388674 -0.3012231072 0.06605357229)
(-0.04000249294 0.04446206543 0.08285722797)
(-0.1067302951 -0.07266959664 0.08446552081)
(-0.2018190932 -0.1092465749 0.07901511934)
(-0.2772928858 -0.135244042 0.07522720571)
(-0.3444005033 -0.1602180165 0.07289720777)
(-0.4007521241 -0.1876725899 0.07164970562)
(-0.4476726024 -0.2198906418 0.0703676739)
(-0.4852452701 -0.2576742544 0.06722919848)
(-0.5129404597 -0.3001437481 0.06038243835)
(-0.5296036061 -0.3447147769 0.04895087531)
(-0.5340995666 -0.3877357116 0.03341618655)
(-0.5257125292 -0.4257043669 0.01528171148)
(-0.5042564967 -0.4556280064 -0.003971627214)
(-0.4698374153 -0.4763715955 -0.02302380004)
(-0.4227600376 -0.4880321289 -0.04102032719)
(-0.3642340045 -0.4905986572 -0.05635729659)
(-0.2976328926 -0.484166915 -0.06537539081)
(-0.2289092362 -0.4697799241 -0.0622105257)
(-0.1679695429 -0.4453491042 -0.03486854299)
(-0.1232386291 -0.4137910296 0.02923720221)
(-0.1387058285 -0.3879094657 0.06990301698)
(-0.1566892853 -0.3743794554 0.03725194697)
(-0.1518298407 -0.3646537718 0.01952103858)
(-0.1611060635 -0.3593111947 0.05234691076)
(-0.2123385794 -0.3692981318 0.06567790522)
(-0.2615688433 -0.3997149672 -0.0009925484405)
(-0.01517002406 -0.02267132473 0.09090708463)
(-0.09535308251 -0.09409353078 0.08258177938)
(-0.1934539104 -0.1273589726 0.07801513514)
(-0.2761073972 -0.1586567742 0.07366588987)
(-0.3501189467 -0.1901069684 0.06818540611)
(-0.4127684252 -0.2239396141 0.06196407992)
(-0.4649029431 -0.2622133564 0.05393798524)
(-0.5060691067 -0.305073906 0.04238285061)
(-0.5350586631 -0.3505580886 0.02635062116)
(-0.5506233771 -0.3953066832 0.00670444846)
(-0.5522439024 -0.4356355307 -0.01414864803)
(-0.53991031 -0.4686550891 -0.03389390941)
(-0.5136465819 -0.4915740355 -0.0516745252)
(-0.4746079817 -0.5045303839 -0.06759471504)
(-0.4236119104 -0.5092096822 -0.08250732216)
(-0.3618461055 -0.5073326997 -0.09558204999)
(-0.2917971296 -0.500470023 -0.1041333582)
(-0.2187292372 -0.4896890545 -0.1029848208)
(-0.1529307471 -0.4747348116 -0.08188909968)
(-0.09903605225 -0.4539811498 -0.02253302221)
(-0.1123299347 -0.4260990307 0.03385999879)
(-0.1422009742 -0.4087901359 0.004400838332)
(-0.1367782043 -0.3956701724 -0.01663006605)
(-0.1453754463 -0.3889984712 0.01806451487)
(-0.2055881595 -0.3951480232 0.03777829128)
(-0.2698711974 -0.4155491227 -0.02695103454)
(-0.03253982013 -0.089870433 0.08484034158)
(-0.1039943339 -0.1153156292 0.07727474944)
(-0.1988638304 -0.1453947479 0.07711815694)
(-0.2833649033 -0.1786143559 0.07269022364)
(-0.3614128704 -0.2124284779 0.06352644217)
(-0.4281361706 -0.248056834 0.05149224464)
(-0.4832158504 -0.287036864 0.0363172107)
(-0.5251983783 -0.3287012462 0.01706675777)
(-0.5524726573 -0.370618307 -0.005564780872)
(-0.5639990808 -0.4094324967 -0.02864802278)
(-0.5597613799 -0.4415436858 -0.04898515148)
(-0.5419933355 -0.4657561419 -0.06585462198)
(-0.5121050649 -0.4821863132 -0.08035452447)
(-0.4704329473 -0.4904598239 -0.09357513903)
(-0.4173053872 -0.4914543627 -0.1062762231)
(-0.3537045418 -0.4870219969 -0.1179324587)
(-0.2819478378 -0.4794840318 -0.1263339706)
(-0.2070242036 -0.4707313516 -0.1269080772)
(-0.1395606638 -0.4600314837 -0.1106334866)
(-0.08589398154 -0.4420918381 -0.05883563739)
(-0.08716183395 -0.4151776864 0.005758764736)
(-0.1247701626 -0.39800699 -0.0138489911)
(-0.1206542957 -0.3873383211 -0.03424025653)
(-0.1286973038 -0.380825305 0.0007211154937)
(-0.1921566507 -0.3841792648 0.03043775571)
(-0.2675572091 -0.4007812579 -0.02567197561)
(-0.04759997656 -0.1232573829 0.07526732227)
(-0.1120333846 -0.1364074473 0.07248564935)
(-0.2032495923 -0.1620081909 0.07604042405)
(-0.2886470653 -0.1929710396 0.07125277197)
(-0.3697038278 -0.2248855553 0.05821823968)
(-0.439149305 -0.2579072469 0.04049208251)
(-0.4953872682 -0.2927108971 0.01910469791)
(-0.5363010373 -0.3282746609 -0.005649663466)
(-0.5601196134 -0.3623101913 -0.03109549732)
(-0.5658735893 -0.3917271141 -0.05320699113)
(-0.5578473101 -0.4159144275 -0.07102738835)
(-0.5373263861 -0.4336387154 -0.08539882882)
(-0.5049549475 -0.4441781662 -0.09758522084)
(-0.4612153203 -0.4475260094 -0.1085302761)
(-0.4067825111 -0.4447164407 -0.1187440392)
(-0.3428928843 -0.4378702096 -0.1279965039)
(-0.2718666552 -0.4297938572 -0.1347622301)
(-0.1980507834 -0.4227704799 -0.1353001409)
(-0.1317615817 -0.4149738031 -0.1219682164)
(-0.08028735845 -0.4018946097 -0.07749147451)
(-0.07156398729 -0.373617436 -0.01316111656)
(-0.1092119718 -0.3597433831 -0.02056969395)
(-0.1101855959 -0.3572878078 -0.03706157855)
(-0.1204656336 -0.3521612971 -0.001222990856)
(-0.1815561145 -0.3546688577 0.03624692103)
(-0.2591493398 -0.3705301964 -0.007848236025)
(-0.05049217926 -0.1443818295 0.0665267919)
(-0.1099194131 -0.1561561141 0.06750276039)
(-0.1987195342 -0.1766400736 0.07405209389)
(-0.2850761084 -0.2026885853 0.06941856159)
(-0.3687025407 -0.2297065219 0.05337038367)
(-0.4400292957 -0.2567687225 0.03126404907)
(-0.4966358577 -0.2839840343 0.005601491535)
(-0.5362042832 -0.3105884188 -0.02187738452)
(-0.5565188623 -0.3348191587 -0.0470887084)
(-0.56028365 -0.3556382907 -0.06747516944)
(-0.5509448684 -0.3719999179 -0.08353963624)
(-0.5291907845 -0.3831677424 -0.09616761719)
(-0.4956484168 -0.3887587704 -0.1061238419)
(-0.4510401122 -0.3888616854 -0.113826007)
(-0.3964562831 -0.3844530925 -0.1195269448)
(-0.3334364068 -0.3775734821 -0.1233837797)
(-0.2641136055 -0.3709997412 -0.125072185)
(-0.1913540869 -0.3667031957 -0.1228209406)
(-0.1279629892 -0.3589617873 -0.1121665987)
(-0.08173750514 -0.3526574734 -0.07353177165)
(-0.06630411298 -0.3254557142 -0.01517069011)
(-0.09816077641 -0.3140222113 -0.01120978361)
(-0.1083995954 -0.3199666123 -0.02073314351)
(-0.1266649758 -0.3212399789 0.01343599304)
(-0.1830640886 -0.3277432124 0.04870554677)
(-0.2504968718 -0.3440571858 0.01697670806)
(-0.04674624007 -0.1614572704 0.06054419371)
(-0.09997185267 -0.1739841958 0.06299595547)
(-0.1845926754 -0.18862373 0.07182642156)
(-0.2700862633 -0.2084706944 0.06844738882)
(-0.3549731827 -0.2289974871 0.05118828974)
(-0.4275855236 -0.2481554446 0.02685061823)
(-0.4849871406 -0.2660188796 -0.000616357863)
(-0.5248578137 -0.2825124636 -0.02861627742)
(-0.5449798133 -0.2969811848 -0.05297131736)
(-0.5500721869 -0.3089433789 -0.07238174987)
(-0.5421010625 -0.3180598407 -0.08735005942)
(-0.5216910037 -0.3241950836 -0.09825501655)
(-0.4895603159 -0.3273001271 -0.105056144)
(-0.4466640097 -0.3277338562 -0.1073233701)
(-0.3941714458 -0.3266207698 -0.1047379218)
(-0.3331579955 -0.3256883664 -0.09782573718)
(-0.2641953449 -0.3264980048 -0.08848899918)
(-0.1857218104 -0.3282775454 -0.07975606289)
(-0.1227100449 -0.3126673106 -0.07525934814)
(-0.08658580655 -0.3150584792 -0.04310986525)
(-0.06999466628 -0.2910843079 0.004700733117)
(-0.0919871285 -0.2787205258 0.01806234283)
(-0.1129535265 -0.2893411724 0.01655399115)
(-0.140508312 -0.3027309835 0.041369665)
(-0.1916823164 -0.3182624372 0.05804613742)
(-0.2409006702 -0.3357973501 0.03297908504)
(-0.0390816724 -0.1836864103 0.05896414718)
(-0.0844196155 -0.194205545 0.06106763526)
(-0.1623219741 -0.2017185597 0.07140715433)
(-0.2436957792 -0.2144724473 0.07032100787)
(-0.3276987534 -0.2274677835 0.05402315666)
(-0.4011929944 -0.2376106913 0.02990292544)
(-0.4605984309 -0.2452581467 0.003082134577)
(-0.5035454816 -0.2511362541 -0.02389462621)
(-0.5281784532 -0.2558743733 -0.04757784011)
(-0.5379079068 -0.2594967733 -0.0665028722)
(-0.5349520625 -0.2626516698 -0.08053315865)
(-0.5199168389 -0.2660015406 -0.08903345662)
(-0.4939025819 -0.2702938304 -0.09077752596)
(-0.4582438874 -0.2768738515 -0.08400418588)
(-0.4135604771 -0.2878499903 -0.06745365547)
(-0.3580456436 -0.305092515 -0.04302413435)
(-0.285949184 -0.3284750876 -0.01914690089)
(-0.1835606656 -0.3460701176 -0.007767071991)
(-0.1064519236 -0.2968402801 -0.01100743501)
(-0.09026363129 -0.30633158 0.009729684976)
(-0.08077520747 -0.2895533293 0.03830381135)
(-0.09374944222 -0.2781563521 0.05574662382)
(-0.1182625795 -0.2881469306 0.06017070643)
(-0.1420687672 -0.3106668401 0.06656091083)
(-0.1840592303 -0.326209435 0.05682129299)
(-0.2204187161 -0.3432027222 0.03090282316)
(-0.0290022453 -0.2210578826 0.06546244116)
(-0.06589236768 -0.2233250467 0.06522386179)
(-0.1354415531 -0.222614201 0.07559298413)
(-0.2089807613 -0.2275553003 0.07674939645)
(-0.2896376621 -0.2316312366 0.06302358666)
(-0.3640669912 -0.2317203369 0.04123950431)
(-0.42717369 -0.2288360125 0.01743462448)
(-0.4759072734 -0.2240944286 -0.006275087881)
(-0.5091880669 -0.2189255771 -0.0281105589)
(-0.5270197776 -0.215519174 -0.04582191541)
(-0.5332190943 -0.2146244162 -0.05807917331)
(-0.5289331956 -0.2179562591 -0.06263161716)
(-0.5163562715 -0.2277851568 -0.05641035372)
(-0.4975100967 -0.2477634474 -0.03618585524)
(-0.4709938461 -0.2842996673 -0.002734331688)
(-0.4280901604 -0.3460133405 0.02924107349)
(-0.3486136956 -0.430961252 0.03035014967)
(-0.2056003289 -0.4821330795 -0.0008395790707)
(-0.07837181691 -0.3438339156 0.04645216278)
(-0.09677460954 -0.3392530084 0.06435817241)
(-0.09803981602 -0.3263157557 0.06478047429)
(-0.1103650685 -0.3225569573 0.07579053376)
(-0.1246306077 -0.33465554 0.07867068725)
(-0.1230665325 -0.3522602861 0.07230043841)
(-0.1506284923 -0.3384330803 0.05499424847)
(-0.1870595978 -0.3456769419 0.02996952532)
(-0.02268299006 -0.286354782 0.08390669659)
(-0.05219136192 -0.2704842921 0.07731995767)
(-0.1120664773 -0.2603982586 0.08446026642)
(-0.1736082289 -0.2560464452 0.08625164361)
(-0.24784765 -0.2478966205 0.07617436726)
(-0.3236188137 -0.2357251453 0.05833913336)
(-0.3925177487 -0.2227279416 0.03897655834)
(-0.4487488048 -0.2089091114 0.02132067559)
(-0.4916819193 -0.1951436514 0.005885737097)
(-0.5217916157 -0.1843876667 -0.006462964472)
(-0.5404115798 -0.1802475634 -0.0130795495)
(-0.5514153336 -0.1857458975 -0.01037666361)
(-0.5592892816 -0.2055335205 0.00600808284)
(-0.567234098 -0.2488560005 0.03599558724)
(-0.5720116574 -0.3310876118 0.06016521504)
(-0.5499339027 -0.4663307718 0.02900414502)
(-0.4482291664 -0.622869776 -0.08690737532)
(-0.2608366805 -0.6771242333 -0.2057105758)
(-0.02547145508 -0.4511938564 0.02635361876)
(-0.09271275251 -0.3957139535 0.1093258352)
(-0.1131984126 -0.3796193422 0.08500485904)
(-0.1358379885 -0.3860681771 0.07700033496)
(-0.1357361156 -0.4136306537 0.05981004782)
(-0.1013230662 -0.4234633486 0.04645312491)
(-0.1046673173 -0.35839968 0.05648053936)
(-0.1466707305 -0.3474389381 0.04235028743)
(-0.03072329771 -0.3818524938 0.11054879)
(-0.05698143524 -0.3438516353 0.09129073359)
(-0.1055229961 -0.3238579278 0.08905623702)
(-0.1495374309 -0.307465384 0.08911040524)
(-0.2106979547 -0.2811724725 0.08586594253)
(-0.2851165263 -0.2516191933 0.07566179689)
(-0.3611987488 -0.2294106138 0.06064336533)
(-0.4262395463 -0.2121449272 0.04792371882)
(-0.4784475114 -0.1972282632 0.04041177863)
(-0.5189147477 -0.1864766661 0.03810093065)
(-0.5506461133 -0.1829785361 0.04159105808)
(-0.5793934598 -0.1924900689 0.05338229864)
(-0.6134914815 -0.2240048393 0.07349710993)
(-0.6610873801 -0.2908362466 0.08247118926)
(-0.7128346114 -0.4085821319 0.0228445433)
(-0.702334578 -0.5700387044 -0.1540667175)
(-0.5455282687 -0.7046336411 -0.385463714)
(-0.3174347836 -0.723121003 -0.5399018628)
(0.07106073054 -0.5276859647 -0.1245351321)
(-0.03022474419 -0.4323247584 0.1295472851)
(-0.1177059622 -0.4296137807 0.1066235387)
(-0.1570735774 -0.4507935426 0.06187035997)
(-0.1466813485 -0.4960677158 0.005922818857)
(-0.08839300853 -0.5007479641 -0.02422798499)
(-0.05042472106 -0.3910156311 0.0390481391)
(-0.0950875396 -0.3490404641 0.06208255869)
(-0.05343439255 -0.4838614914 0.1320201964)
(-0.0840942954 -0.4371038228 0.09259742055)
(-0.1228022198 -0.4099965562 0.0739338766)
(-0.1460873658 -0.3813675641 0.07017035719)
(-0.1854910125 -0.3347698658 0.07906853813)
(-0.2490954819 -0.2814444999 0.086775986)
(-0.329505742 -0.2460611749 0.08102295398)
(-0.4038767434 -0.2271693178 0.07097390219)
(-0.466210439 -0.2162308265 0.06622265101)
(-0.5168366295 -0.213243806 0.06848555356)
(-0.5601649798 -0.2181732901 0.0772598042)
(-0.6067189873 -0.2330775445 0.09114494925)
(-0.6719751787 -0.2635242852 0.09505996956)
(-0.7659006426 -0.3162739197 0.03484161013)
(-0.8503407719 -0.391787127 -0.1549040068)
(-0.8081710617 -0.471870527 -0.4304023982)
(-0.6004691169 -0.538269143 -0.6766776574)
(-0.3434479788 -0.5594026846 -0.8127248599)
(0.1122374855 -0.4628350676 -0.3560234379)
(0.08415073717 -0.3972662497 0.06628975453)
(-0.1337290738 -0.4303591762 0.1136171783)
(-0.1863711067 -0.4841594999 0.01230974276)
(-0.1644098138 -0.5380998196 -0.08314362763)
(-0.09037202977 -0.5378157869 -0.1303805082)
(-0.0004750640354 -0.4272278284 -0.03809500418)
(-0.02524577 -0.3507169912 0.06993109689)
(-0.07741505004 -0.5680678185 0.1407268662)
(-0.1170851573 -0.527399287 0.07486698365)
(-0.1513949448 -0.4961276521 0.03683135565)
(-0.1576088975 -0.4588313884 0.02775124206)
(-0.1744529971 -0.4000414152 0.04813227065)
(-0.2189085104 -0.3268571464 0.08253805935)
(-0.2979769861 -0.2755141984 0.0983907406)
(-0.381779321 -0.254568537 0.09420160865)
(-0.4548034678 -0.2483760006 0.08899814092)
(-0.5144980716 -0.252267383 0.0884524204)
(-0.5646490158 -0.2573626493 0.09294505874)
(-0.6175750614 -0.255481635 0.09980043133)
(-0.6851743952 -0.2462524388 0.08269030521)
(-0.7639724062 -0.2408423589 -0.02890967321)
(-0.8088211027 -0.2585477409 -0.2830712285)
(-0.7528401125 -0.3067646151 -0.5991517349)
(-0.5854763728 -0.3535713113 -0.8421921362)
(-0.3807103098 -0.3713473637 -0.9081321531)
(-0.03367760874 -0.323732737 -0.4863046049)
(0.058077442 -0.2435310184 0.005683673406)
(-0.2056484468 -0.3467738236 0.07027612512)
(-0.2426383677 -0.4541269329 -0.07679437728)
(-0.1939571665 -0.5050792023 -0.1810606175)
(-0.09411633834 -0.5029738643 -0.2310463546)
(0.02740585141 -0.4119647665 -0.1677574864)
(0.06479117385 -0.3439117903 0.02746624558)
(-0.08897183254 -0.6351751366 0.1443163546)
(-0.1359108224 -0.5990099584 0.05275256912)
(-0.1708727111 -0.5614569198 -0.003863357124)
(-0.1663433333 -0.518019045 -0.02086438132)
(-0.1661195019 -0.4576722718 0.001616293352)
(-0.1895038859 -0.3788749166 0.05767613202)
(-0.2604012343 -0.3162364962 0.1059262325)
(-0.3541826567 -0.2936328668 0.1130525363)
(-0.4370108138 -0.2945874565 0.1031648433)
(-0.497536379 -0.3105021944 0.09056361399)
(-0.5318650447 -0.3252184964 0.08132416341)
(-0.5468330133 -0.3281813635 0.08224225418)
(-0.5437541366 -0.3197590826 0.09134539715)
(-0.5154863428 -0.2846034769 0.09528656753)
(-0.482351426 -0.1575765349 0.07653492406)
(-0.4980008831 0.09719797086 -0.01866721705)
(-0.4913115874 0.24405658 -0.1826394219)
(-0.4314238822 0.1420300865 -0.2864283694)
(-0.3286257403 -0.08841129711 -0.1463402206)
(-0.3088678673 -0.1624514838 0.04347243687)
(-0.3750382622 -0.2822323583 -0.06480005116)
(-0.3238984463 -0.3772441899 -0.1854032859)
(-0.2233605692 -0.4157810536 -0.2677513887)
(-0.08781264581 -0.4102631834 -0.3066095665)
(0.05242771523 -0.3339708834 -0.2624624853)
(0.1322565621 -0.2954061279 -0.0529178584)
(-0.07748269945 -0.7064089498 0.1568028783)
(-0.1267064515 -0.6554740194 0.0491541299)
(-0.1692055913 -0.6038067446 -0.02522323315)
(-0.1617042026 -0.5516326144 -0.05466689045)
(-0.1510376185 -0.4939738747 -0.04243574718)
(-0.1577249494 -0.4231240554 0.01846720643)
(-0.2172730932 -0.3604637563 0.1018794947)
(-0.3281144688 -0.3378044835 0.1282529038)
(-0.4306608506 -0.3467442441 0.1082153491)
(-0.5018719955 -0.3762189501 0.07660565006)
(-0.5375628708 -0.4036042107 0.0596578968)
(-0.5547070703 -0.4234797792 0.06886221561)
(-0.553869886 -0.4541186406 0.07715697146)
(-0.5048280345 -0.4763292948 0.0600877605)
(-0.4071491718 -0.3892932027 0.09937123271)
(-0.4143379943 -0.1799663797 0.1516402613)
(-0.398585438 -0.03248741374 0.1347360568)
(-0.3425698174 0.05870062918 0.07512831513)
(-0.3420468757 -0.06275478577 0.07660791386)
(-0.4243550536 -0.1594236482 -0.02108397852)
(-0.4145261146 -0.2153369141 -0.1515714921)
(-0.3463052302 -0.2685105008 -0.2536408983)
(-0.2238894949 -0.2918846307 -0.3220584194)
(-0.07255049975 -0.2905557876 -0.3459489063)
(0.09817917828 -0.2431965536 -0.2328208123)
(0.1508805004 -0.2113383588 -0.08616016313)
(-0.03834142464 -0.8236306776 0.1771475047)
(-0.07736910037 -0.7152327055 0.07874456891)
(-0.1369770213 -0.6335169247 -0.008319448299)
(-0.1384162675 -0.5644323352 -0.05723837191)
(-0.1257111801 -0.5053121788 -0.06656721759)
(-0.123401131 -0.4480281282 -0.02065757087)
(-0.1713833933 -0.3959087888 0.08682693836)
(-0.3078163014 -0.3746873604 0.1340760226)
(-0.4410776818 -0.38911216 0.08850447456)
(-0.5253306385 -0.4271302116 0.02469776873)
(-0.5628202484 -0.4624689451 0.003602553841)
(-0.5874663609 -0.5021955854 0.01299143407)
(-0.5861414076 -0.5834643801 -0.05245622994)
(-0.4879918653 -0.6512530778 -0.2068638204)
(-0.2672942771 -0.5203460291 -0.1203279013)
(-0.2614548372 -0.1662365872 0.07436262718)
(-0.3246840582 -0.09516997557 0.1003831977)
(-0.3172561264 -0.01194527165 0.09341874898)
(-0.3589548906 -0.05032231348 0.0326832755)
(-0.4077733429 -0.08529141115 -0.07577602713)
(-0.3985580376 -0.1319688867 -0.185199759)
(-0.335757553 -0.1577011284 -0.2740828953)
(-0.2241214308 -0.1670547784 -0.334359726)
(-0.09184694242 -0.17736003 -0.3489275885)
(0.06204656483 -0.1871434243 -0.2223700338)
(0.09925971148 -0.1500450492 -0.1113910345)
(0.007937566939 -1.036747892 0.162202258)
(0.01263093108 -0.8141847148 0.1192521137)
(-0.06330247153 -0.6693487684 0.05237642131)
(-0.08889630863 -0.5720886365 -0.01972808624)
(-0.08632367844 -0.5010669197 -0.06235592207)
(-0.08705062341 -0.4500097121 -0.04340747691)
(-0.1284748537 -0.4107579114 0.06686398199)
(-0.2951069431 -0.3862661501 0.1214879716)
(-0.4693494721 -0.3936064647 0.02986471027)
(-0.570466813 -0.4260075301 -0.07161095583)
(-0.6250259947 -0.4590394019 -0.1037837387)
(-0.693046266 -0.5081468102 -0.1667442896)
(-0.6987706062 -0.5906735474 -0.4229532675)
(-0.5249327587 -0.6299954635 -0.7204147099)
(-0.2176506275 -0.5181472044 -0.5676803191)
(-0.006261292986 -0.1877429971 0.01468665206)
(-0.2157840051 -0.1842828034 0.08325664941)
(-0.1733764057 -0.06827369458 0.06074937106)
(-0.2243792606 -0.04815308638 0.07907177215)
(-0.2648575768 -0.02648625448 0.06017627057)
(-0.2892778429 0.0005558649664 -0.00995897811)
(-0.263570943 0.01159182243 -0.1103945883)
(-0.1918121421 0.00574847008 -0.1989478783)
(-0.1244613163 -0.02373298577 -0.2246195511)
(-0.02559417863 -0.07945524515 -0.0435139901)
(-0.05493204021 -0.0542304977 0.05754898854)
(0.01993603717 -1.316414387 0.06170645446)
(0.1026103836 -0.9903868587 0.08136264483)
(0.05118889655 -0.7527169502 0.1185839027)
(-0.001603560426 -0.5998896318 0.06520586798)
(-0.02050687384 -0.4955107656 -0.01951210647)
(-0.03804646048 -0.4365981977 -0.03814221763)
(-0.08526610612 -0.3991607036 0.05492013162)
(-0.2695105334 -0.3503682371 0.0998644786)
(-0.4827523924 -0.3133133547 -0.04220422384)
(-0.5983310244 -0.2922410621 -0.1739870235)
(-0.6664410129 -0.2723814115 -0.2437383844)
(-0.7583358211 -0.2835388019 -0.4465404088)
(-0.7438673759 -0.346740177 -0.8700048741)
(-0.5391408163 -0.386925983 -1.189149036)
(-0.2820818523 -0.3198973906 -1.058664158)
(0.2789413049 -0.1480533756 -0.179235981)
(-0.1447528721 -0.1057859238 0.1039632898)
(-0.1465062829 -0.08776556973 0.07051108493)
(-0.2524209352 -0.0965222979 0.1051591557)
(-0.2729025792 -0.1055010208 0.1155934637)
(-0.2830151105 -0.0960076676 0.1064296576)
(-0.2517638086 -0.04649251794 0.07426339499)
(-0.1849411406 0.02711404915 0.008947834629)
(-0.1069509082 0.03477470282 -0.04578559871)
(-0.03900358196 -0.1447447204 0.08747653262)
(-0.0892570545 -0.1613668289 0.1020872973)
(-0.01131157046 -1.542275639 -0.09124437641)
(0.1351901074 -1.188827765 -0.09699634473)
(0.1639251213 -0.91714859 0.08172552201)
(0.1280999833 -0.7094664914 0.1485909692)
(0.09058769427 -0.5224956404 0.07424560767)
(0.04947521014 -0.4295173586 0.01019002893)
(-0.008317308976 -0.389188299 0.06116579808)
(-0.1503538906 -0.2990546355 0.1085276445)
(-0.3401335416 -0.2003530891 -0.05156510327)
(-0.4385468295 -0.1670596356 -0.2416700355)
(-0.4584277261 -0.1101109065 -0.2973832451)
(-0.4546757424 0.02255430567 -0.2459672333)
(-0.4533930593 0.2127283173 -0.223717176)
(-0.4454047547 0.2711666196 -0.4101759093)
(-0.3025479528 0.09274164961 -0.5225975551)
(-0.05024137554 -0.01516594467 -0.01398243516)
(-0.2778859265 0.03051088283 0.08468094982)
(-0.2678271405 -0.09220520547 0.08615768456)
(-0.3226125347 -0.134909079 0.08873788548)
(-0.3169958396 -0.1829692641 0.07289104276)
(-0.2936410094 -0.2043051459 0.0629006455)
(-0.2474345027 -0.1957024342 0.06992298198)
(-0.1822481782 -0.1633353773 0.08023876126)
(-0.09230489651 -0.1112602087 0.08843114666)
(-0.05109433041 -0.2123970276 0.08013518971)
(-0.1101847994 -0.18175597 0.06261398735)
(-0.06534242733 -1.617871704 -0.2235874187)
(0.1017214295 -1.28994974 -0.3247410578)
(0.226015772 -1.102756859 -0.08509376911)
(0.2526198693 -0.9263713292 0.08184967957)
(0.2476729206 -0.6469431837 0.1452661425)
(0.1836768206 -0.473290005 0.1109583922)
(0.1114180982 -0.4391796444 0.09961371616)
(0.02886659109 -0.3813426366 0.1519441998)
(-0.09867596152 -0.1721545453 0.1693494295)
(-0.2534945508 0.04056744048 0.07423620197)
(-0.3674083267 0.1251377562 -0.02754144895)
(-0.4037836127 0.1071662171 -0.02252266396)
(-0.3938543058 0.1663775366 0.04289326243)
(-0.3788978383 0.2651827795 0.01849912275)
(-0.2971485069 0.2074569122 -0.01606941708)
(-0.3330886164 -0.03549415139 0.1177909943)
(-0.3843081256 -0.07687366723 0.1080428168)
(-0.383773584 -0.1759122143 0.07123416371)
(-0.3869311003 -0.2267234804 0.03597364596)
(-0.355873092 -0.270291027 0.001602651045)
(-0.3035029491 -0.2937874444 -0.01574796299)
(-0.2369805479 -0.2980458193 -0.001832960242)
(-0.1642289799 -0.2928214198 0.008681648644)
(-0.07201118411 -0.2605309289 0.03879140696)
(-0.02353509269 -0.2910576608 0.050214624)
(-0.009225282615 -0.2454994497 0.05377566389)
(-0.1269870266 -1.508737483 -0.3004925956)
(0.02251886576 -1.236528724 -0.4826665616)
(0.2175802422 -1.189458866 -0.274545006)
(0.2844563407 -1.140970042 -0.20133462)
(0.3839783316 -0.8408199337 0.02517444658)
(0.3274370106 -0.5925111692 0.1603459175)
(0.2037824882 -0.5158948522 0.1724483801)
(0.0748338127 -0.4681268331 0.1865792491)
(-0.09591726874 -0.2995512629 0.2004644387)
(-0.1958456231 -0.1315097568 0.1915850949)
(-0.2743456846 0.01094135112 0.1507776883)
(-0.3275600248 0.04864566275 0.1256827274)
(-0.3766923308 0.0474246729 0.1446610574)
(-0.3971874423 0.05868016508 0.1440620943)
(-0.3647639315 0.01270968661 0.1237982642)
(-0.3989220192 -0.1262664837 0.09876336355)
(-0.4369628191 -0.167683682 0.06079300753)
(-0.443740229 -0.2232969841 0.01457998456)
(-0.4326701735 -0.2607521226 -0.03182353717)
(-0.3871254265 -0.289879793 -0.07250564538)
(-0.3162674127 -0.313044475 -0.0888409051)
(-0.2328356892 -0.3348797585 -0.06399955739)
(-0.1466409452 -0.3492933823 -0.06269043284)
(-0.04642332494 -0.3239655197 -0.01498714171)
(-0.006023888719 -0.3485572567 0.01684569001)
(0.03056164155 -0.3203969731 0.02525819058)
(-0.1932452922 -1.233840835 -0.351047345)
(-0.1022559346 -1.051252274 -0.5701489702)
(0.09276158279 -1.104867669 -0.4409955796)
(0.1568981496 -1.132387705 -0.6170407549)
(0.4115523357 -0.8987231314 -0.3036143648)
(0.4520633609 -0.7079689334 0.03239467623)
(0.2912836195 -0.6087848424 0.1783371443)
(0.1395723567 -0.5332851451 0.2050944751)
(-0.05717129272 -0.3740815892 0.1928493898)
(-0.1674414699 -0.2192324312 0.1563191642)
(-0.2452333397 -0.1227160453 0.1463964232)
(-0.3047134109 -0.09525702229 0.1390208017)
(-0.3650297869 -0.09193704182 0.1297961473)
(-0.4119850036 -0.08917856975 0.1179511005)
(-0.4380913711 -0.1120967465 0.09269088844)
(-0.469731024 -0.1644363209 0.05384014793)
(-0.4950391507 -0.1939373112 0.01635881893)
(-0.4964821091 -0.2234193261 -0.02482336796)
(-0.4724499282 -0.2439072029 -0.0675645437)
(-0.4193090062 -0.2646951598 -0.1049397084)
(-0.3400694947 -0.2930929722 -0.1224234552)
(-0.2467804349 -0.3339093117 -0.1125377271)
(-0.1415868756 -0.3618840123 -0.1367419902)
(-0.02003952501 -0.3559690909 -0.04410978851)
(0.005731983526 -0.3721366553 0.002244617024)
(0.05440370721 -0.3561569843 0.007269360896)
(-0.2718024961 -0.8034197306 -0.4016865109)
(-0.2639794402 -0.716504987 -0.6289761036)
(-0.1661227939 -0.7944966958 -0.6808272191)
(-0.08522371729 -0.7715373236 -1.081499925)
(0.3212772572 -0.6506226515 -0.6980071857)
(0.5164014401 -0.6782345319 -0.1916602353)
(0.3526227663 -0.663617017 0.09854551845)
(0.1903648482 -0.579447308 0.1886908301)
(-0.02579690359 -0.4327210074 0.1956347489)
(-0.1696109938 -0.3016245044 0.1450722511)
(-0.2534920616 -0.210593261 0.1175272476)
(-0.3259946495 -0.1714066847 0.102191181)
(-0.3897635302 -0.1606750694 0.08752551442)
(-0.4387445524 -0.1628602048 0.07100928805)
(-0.4723503764 -0.1754390306 0.04963242079)
(-0.4990987162 -0.1941160561 0.02387267674)
(-0.5155502402 -0.2037667805 -0.001621382622)
(-0.5141606586 -0.211661109 -0.02589813917)
(-0.4936326389 -0.2203425625 -0.04827184463)
(-0.4495068257 -0.2353192059 -0.07206100821)
(-0.3792571501 -0.2625555024 -0.1051395414)
(-0.2822253934 -0.2997697938 -0.1558599604)
(-0.1553577109 -0.3265216044 -0.2146332937)
(-0.005580272736 -0.3604184924 -0.0982515459)
(0.01467284265 -0.3716844581 -0.0009469350072)
(0.05704541636 -0.3668267308 0.003146186549)
(-0.3598704857 -0.1414481009 -0.4596405896)
(-0.4186063064 -0.1904343666 -0.7355886831)
(-0.3632269825 -0.2736572354 -1.050881983)
(-0.255614173 -0.3377059335 -1.483559958)
(0.2573739701 -0.405405583 -0.8704770305)
(0.4469326432 -0.5662246287 -0.2299984937)
(0.3227202831 -0.6589995779 0.01766208691)
(0.2084413377 -0.5892637635 0.1220773752)
(-0.0003809210246 -0.4569423941 0.1884050394)
(-0.1804496075 -0.3458931875 0.1448567262)
(-0.2714107082 -0.2650467553 0.1025012381)
(-0.3480868551 -0.2256728056 0.07912262445)
(-0.4063776682 -0.2070293024 0.06064393779)
(-0.4529348473 -0.2003169892 0.04287053213)
(-0.4867429615 -0.1998582777 0.02426727888)
(-0.5100726863 -0.199868522 0.005116049991)
(-0.523101328 -0.1952281439 -0.01374351785)
(-0.523338948 -0.1907181491 -0.0326204434)
(-0.5082332716 -0.1913035514 -0.05285098075)
(-0.4715986566 -0.2001192769 -0.0797029909)
(-0.4076701259 -0.2176569144 -0.1219172525)
(-0.3115379492 -0.2398155449 -0.1814539669)
(-0.192759293 -0.2558870278 -0.2402573766)
(-0.0212994059 -0.2674535032 -0.2882247145)
(0.02649380724 -0.3419419645 -0.02672921441)
(-0.110334293 0.5240350625 -0.3888458796)
(0.02081416342 0.3795551577 -0.4928946335)
(0.1953694843 0.3951682097 -0.2963668769)
(0.2975739725 0.4649101723 -0.3400520834)
(0.4769404594 -0.02528197525 0.06913373778)
(0.3143535454 -0.5315243091 0.1762591829)
(0.1554412573 -0.6887377947 -0.04719678187)
(0.1522157537 -0.5941213296 -0.01344614266)
(0.01238850399 -0.4737485362 0.1524379304)
(-0.1806299755 -0.3816806359 0.1519175386)
(-0.2763696583 -0.3046007096 0.09872313448)
(-0.3575021274 -0.2622632569 0.06542878913)
(-0.4121180742 -0.2356110962 0.04003511416)
(-0.4534828034 -0.219359803 0.01882404299)
(-0.4816530414 -0.2064093745 0.001448322422)
(-0.5000698754 -0.1913475187 -0.01191505058)
(-0.5124445388 -0.1726355073 -0.02435679011)