/*--------------------------------*- C++ -*----------------------------------*\
  =========                 |
  \\      /  F ield         | OpenFOAM: The Open Source CFD Toolbox
   \\    /   O peration     | Website:  https://openfoam.org
    \\  /    A nd           | Version:  8
     \\/     M anipulation  |
\*---------------------------------------------------------------------------*/
FoamFile
{
    version     2.0;
    format      ascii;
    class       volScalarField;
    location    "0.8/wallFilmRegion";
    object      delta;
}
// * * * * * * * * * * * * * * * * * * * * * * * * * * * * * * * * * * * * * //

dimensions      [0 1 0 0 0 0 0];

internalField   nonuniform List<scalar> 
1369
(
0.01129502636
0.008662663042
0.01359558266
0.008881917331
0.005423105235
0.003774453887
0.003574070541
0.00353091238
0.003474753275
0.003413136424
0.00335375647
0.003248063755
0.003087583881
0.002982915293
0.002982370161
0.002900254369
0.002707463848
0.002364667391
0.001905802378
0.001379964397
0.0008986463374
0.0005783846079
0.0004271645256
0.0003636367437
0.00032679269
0.0004375444935
7.269607994e-05
0.0003413439148
0.0007481733817
0.001355744078
0.001878402684
0.00249304281
0.003189773493
0.004648465269
0.00285584915
0.0004122615815
0.000694683231
0.001033889972
0.00122304602
0.001348149212
0.001593938271
0.002021802819
0.002370224129
0.002432062115
0.002245487096
0.002167931297
0.002147059531
0.002020263519
0.00191099665
0.001849394524
0.001857986352
0.002007456072
0.002301023528
0.002134058477
0.002092282211
0.002902918322
0.005195443862
0.01287048484
0.01288914821
0.0138812353
0.01020763366
0.002285312889
0.001533155879
0.000207758581
0.0001066618826
9.322825879e-05
6.062179348e-05
5.88994022e-05
7.06229934e-05
9.514495016e-05
0.0001367196234
0.0001568750524
0.0001012880255
3.756549752e-05
3.6003316e-05
5.560123884e-05
0.0001251084875
9.756279751e-05
5.927201988e-05
2.484965525e-05
3.38202203e-06
1.057844952e-06
1.179250393e-06
2.994529176e-06
2.188162066e-05
0.0003013268876
1.193997666e-05
4.072570736e-07
9.455863206e-07
6.920355591e-06
1.218995772e-05
1.714685141e-05
2.482986214e-05
0.0001014000996
0.0002674273925
5.008585024e-05
2.267681222e-05
4.127145964e-05
5.57250705e-05
6.672156612e-05
7.983344502e-05
0.000108752283
9.348341777e-05
4.322721707e-05
2.356631857e-05
2.220156443e-05
5.326565233e-05
5.038347671e-05
4.536093506e-05
4.445618279e-05
5.39850118e-05
8.217859731e-05
0.0002375014445
4.965055417e-05
5.832087385e-06
7.549052407e-06
9.477102299e-06
0.0004368796058
0.001142084697
0.006347830515
0.007527887993
0.001561197092
0.002080629058
0.0009601172948
0.002759355241
0.0001289820897
5.037601197e-05
4.586976745e-05
5.813296553e-05
8.593740328e-05
0.0001422637563
0.000214412794
0.000233566723
0.0001927936301
0.0001119920462
8.002225285e-05
7.115575655e-06
2.896336121e-06
2.146028532e-06
1.94930729e-06
1.542766634e-06
9.193641445e-07
1.203122288e-06
2.874133693e-06
2.167307211e-05
0.000330782291
8.940563971e-06
1.476065133e-07
3.982570072e-06
1.804892037e-05
3.799701604e-05
7.434280126e-05
0.0002526611497
0.001985907487
0.000411643961
7.23395252e-05
2.635666401e-05
4.505976957e-05
5.705764881e-05
6.801780943e-05
8.45642861e-05
0.000124286562
0.0001211075981
8.66500204e-05
4.712161808e-05
2.529500408e-05
4.889662277e-05
5.980683292e-05
5.598541625e-05
5.082990825e-05
5.570614682e-05
7.824592148e-05
0.0001830124607
0.001378103718
0.0001336709376
8.678288167e-05
0.0001713715245
0.0008114634691
0.0009725386228
0.007968353488
0.007858419272
0.001101546933
0.003607855605
0.003739111238
0.004800270588
0.0004941894781
3.093324459e-05
2.906286388e-05
3.966157353e-05
6.332566633e-05
0.0001077474308
0.0001595258898
0.0001447566784
7.84309536e-05
3.030615565e-05
9.217227548e-06
1.698897113e-06
3.438388973e-07
9.158879299e-08
1.54026989e-07
2.656667642e-07
4.726151361e-07
9.112317015e-07
1.857697246e-06
4.450933704e-06
9.773409668e-05
1.046268624e-06
1.174401855e-07
2.751553709e-06
1.962686904e-05
8.418501538e-05
0.000351386942
0.001216631162
0.000502371902
0.0004454972727
0.0001400135581
4.030289424e-05
4.939313231e-05
5.108996957e-05
5.510893071e-05
6.506698994e-05
0.0001203484006
9.711734296e-05
7.235753677e-05
4.453901086e-05
2.353059489e-05
4.704478191e-05
6.283638324e-05
6.089105688e-05
5.333006846e-05
5.000262863e-05
5.826165805e-05
0.000105733422
0.0004531504192
0.001089301537
0.0008759600097
0.0007160371665
0.0009885707741
0.0007043366671
0.008188162074
0.01529424292
0.001497436979
0.002786013357
0.004153679755
0.0001015806362
3.133920581e-05
2.481997625e-05
2.815618279e-05
3.818812179e-05
6.124929644e-05
0.0001051330282
0.0001560559819
0.0001387905773
6.471543237e-05
2.02271761e-05
7.863430176e-06
3.005568942e-06
5.719598012e-07
4.730104905e-08
8.510782255e-08
1.699389759e-07
3.893558732e-07
1.063575369e-06
3.067357618e-06
1.884153681e-06
2.008116893e-05
8.694181163e-07
1.047918859e-06
3.761036295e-06
4.734324488e-05
0.000135743952
0.0002474000562
0.0002769215407
0.0002307423112
0.0003710626593
0.0002769652528
8.612984883e-05
6.354366946e-05
4.361632648e-05
3.799933555e-05
4.358853768e-05
0.000177875859
9.69897496e-05
6.673249885e-05
4.593143276e-05
2.470840568e-05
5.503794693e-05
7.543123679e-05
7.336324948e-05
6.374818934e-05
5.489272779e-05
5.230218011e-05
7.181088679e-05
0.0002460718658
0.0009432047864
0.002918405185
0.005587964521
0.0009536785598
0.0005455553132
0.01066175771
0.005030302419
0.0001292556736
9.469360677e-05
6.266666462e-05
3.430201336e-05
2.636187166e-05
2.559147978e-05
2.871398209e-05
3.805973201e-05
5.971405438e-05
0.0001015096895
0.0001530988672
0.0001418849326
6.898855156e-05
2.16804026e-05
9.464445448e-06
4.916289859e-06
1.122832033e-06
1.681988734e-08
3.425527048e-08
9.10849041e-08
3.20507842e-07
1.514511459e-06
1.023620361e-05
8.251879627e-05
0.0007221055635
0.0002567989995
0.0005149001609
0.0009809024037
0.0001955450697
0.000114903455
0.0001088810533
0.0001146590452
0.0001141494669
0.0002117776565
0.0003766085769
0.0001784779291
9.477365765e-05
3.658359625e-05
2.173922958e-05
3.488545501e-05
0.0002869386133
0.0001495520327
7.698621028e-05
4.206241377e-05
2.063138895e-05
6.277964796e-05
9.104719084e-05
8.915552634e-05
7.771880794e-05
6.634927587e-05
5.669481745e-05
5.471148272e-05
9.45973257e-05
0.0001955956418
0.000332211872
0.001635543596
0.001608925945
0.0001154014675
0.004336909945
0.002538370874
5.733911437e-05
4.696258609e-05
3.800067234e-05
3.113757067e-05
2.863947736e-05
2.879769751e-05
3.225414152e-05
4.06467134e-05
5.960089614e-05
9.718746488e-05
0.0001440480191
0.0001346939903
6.674125694e-05
2.082035786e-05
9.706060863e-06
6.39322918e-06
2.320931732e-06
5.113945198e-10
2.811538531e-10
2.718873916e-10
2.732737843e-10
3.105119787e-10
4.96861344e-10
1.489147242e-09
8.562646554e-09
4.2667097e-08
2.279087335e-07
3.032566791e-05
0.0001704705519
0.0001121935498
8.658216502e-05
7.316759104e-05
5.966079784e-05
8.698796163e-05
0.0003386313398
0.0003075505194
0.000157351927
6.521841087e-05
5.311818455e-05
0.0001019161083
0.0004005073082
0.0002718628894
0.0001473860819
5.100697354e-05
2.202499594e-05
7.16825327e-05
0.0001102234837
0.00010960555
9.588327248e-05
8.317175139e-05
7.007303679e-05
5.824747566e-05
5.95678888e-05
8.787967759e-05
0.0001504171988
0.0004030757697
0.004272860069
0.0003054059004
0.003646589634
0.001904956716
4.449039246e-05
3.828033107e-05
3.281792033e-05
3.222588709e-05
3.323153685e-05
3.644528236e-05
4.146196019e-05
4.783849844e-05
6.169504665e-05
9.324081985e-05
0.0001328086398
0.0001247077729
6.309508632e-05
1.869691182e-05
9.411365782e-06
7.203556189e-06
4.057308674e-06
2.708230266e-10
1.103833862e-10
1.00724787e-10
8.483950251e-11
6.860747646e-11
4.116639278e-11
6.767814595e-12
4.63706301e-13
6.448734256e-12
6.58208972e-07
6.308718612e-05
0.0001392092598
8.86950739e-05
6.579101472e-05
5.13616306e-05
3.71580595e-05
3.172599707e-05
0.0001903317498
0.0007409863934
0.0004814344905
0.0003795219698
0.0004681191286
0.0002978969263
0.0005213858545
0.0004175348315
0.0003076214471
0.0001075830522
3.254835316e-05
8.171407982e-05
0.0001285044165
0.0001299574051
0.0001165399163
0.0001031191958
8.852059814e-05
7.122373593e-05
6.461829404e-05
8.763905267e-05
0.0001409316882
0.0002076869983
0.0005687243015
0.0005186251059
0.004356865675
0.001892235372
3.478910301e-05
3.177870281e-05
2.936155024e-05
3.357389777e-05
4.119562796e-05
5.244234112e-05
6.264801994e-05
6.415197999e-05
6.815660526e-05
9.395462066e-05
0.0001268577223
0.0001205059688
6.377318975e-05
1.643036522e-05
9.386626427e-06
8.186851327e-06
6.397766349e-06
1.553763991e-10
5.111343081e-11
5.489280437e-11
4.594079803e-11
4.626369916e-11
3.554463228e-11
4.012852467e-12
5.644256939e-14
3.306202943e-12
2.63153473e-06
7.492568856e-05
8.081511036e-05
5.370643252e-05
3.940223753e-05
2.986492572e-05
2.092539732e-05
1.203727931e-05
5.197563956e-05
0.0007370890835
0.0009889309521
0.000915942123
0.0008173011176
0.0005158828226
0.0006166863656
0.0005287988926
0.0004391959322
0.0002109362044
4.743101943e-05
8.934620824e-05
0.0001385161527
0.0001404125374
0.0001290669453
0.0001185046493
0.0001042778352
8.533723061e-05
8.215490187e-05
0.0001207451163
0.0001792491353
0.0002328915176
0.0003950864349
0.0003883410657
0.004888473034
0.001977045539
2.784181005e-05
2.630179458e-05
2.544918352e-05
3.468544164e-05
5.325429165e-05
8.394440328e-05
0.000112042543
0.0001009895585
8.384818327e-05
0.0001057966003
0.000133152218
0.0001228069906
6.736751088e-05
1.483635368e-05
9.776015085e-06
9.729539022e-06
1.100672265e-05
1.96265013e-09
2.438446532e-10
1.766302449e-10
1.242102387e-10
1.23039868e-10
1.359484231e-10
8.272308821e-11
1.91128032e-12
3.306956623e-12
7.06739416e-06
3.237166277e-05
2.682377235e-05
2.311430589e-05
1.644794833e-05
1.228178703e-05
9.730876168e-06
4.027976095e-06
1.711568936e-05
0.0001247244452
0.0002677322287
0.0002933968623
0.0003486539962
0.0001742064436
0.0003183775853
0.0001288521591
9.050173815e-05
7.373441704e-05
4.944390719e-05
8.62918901e-05
0.0001262604722
0.0001270256331
0.000117816976
0.000111359677
0.0001005495905
8.59574911e-05
0.0001047103095
0.0001773709164
0.0002383919102
0.0002690596053
0.0004162824932
0.0003459729902
0.005270581573
0.002156840251
2.373317788e-05
2.24030687e-05
2.131690799e-05
3.454596556e-05
6.833460779e-05
0.0001412298941
0.000218727084
0.0001809170618
0.0001138448954
0.0001267250113
0.0001426984574
0.0001220931175
6.794830455e-05
1.445167525e-05
1.032269016e-05
1.088465737e-05
1.958876432e-05
4.378775489e-05
5.438862054e-07
7.226446901e-08
2.712499323e-08
4.368062333e-08
1.150605738e-07
3.773438772e-07
1.962391976e-09
6.554730121e-12
1.525286278e-12
5.684754645e-08
1.111747836e-06
1.038452084e-05
4.471533897e-06
1.662139805e-06
3.024815133e-06
2.411376696e-05
0.0001249156688
0.0002140893752
0.0002673498836
5.866251346e-06
1.983030287e-06
4.547659816e-06
0.0002567249997
6.395155915e-05
5.519544416e-05
5.684200952e-05
5.289676694e-05
6.41061712e-05
7.567443109e-05
7.415518396e-05
7.356704446e-05
7.226426614e-05
6.638687223e-05
6.182082361e-05
0.0001202897039
0.0002253093585
0.0002770416172
0.0002777405338
0.0003998299097
0.0002639130463
0.005185394888
0.002425581214
2.228954594e-05
2.074987182e-05
1.77753973e-05
3.292046044e-05
8.217765856e-05
0.0002148242931
0.0003716962807
0.000311369977
0.0001578399338
0.0001431787442
0.0001396869692
0.0001117279962
6.488180303e-05
1.602991898e-05
1.01810768e-05
6.79757036e-06
8.114454327e-06
1.503641499e-05
2.566187962e-05
8.311548013e-06
1.040907217e-06
2.705333046e-06
1.127007031e-05
6.051545691e-05
0.0005748448745
1.0208956e-05
1.752019337e-07
2.838965457e-07
1.825194959e-06
9.467238152e-06
1.232932787e-05
3.502472606e-06
7.294408006e-05
0.0004177172857
0.0005290288607
0.0002191226654
0.0001247567917
6.467851601e-06
1.777613373e-06
1.275898488e-06
0.0001162478511
1.785614512e-05
1.858697358e-05
2.984277285e-05
5.04044953e-05
4.278384913e-05
3.324320701e-05
2.950462979e-05
3.426307834e-05
3.594494259e-05
2.948660301e-05
3.05414948e-05
0.000120042951
0.0002284310022
0.0002603649824
0.0002420954652
0.000315816534
0.0001786629712
0.004618911192
0.0004943826412
0.0004392702903
0.0001991621184
0.0001461648195
0.0001239273958
9.433975605e-05
6.14792524e-05
2.345404102e-05
9.761903534e-06
2.59190166e-06
8.784070317e-07
1.401655711e-06
3.571824987e-06
6.00246959e-06
1.163424502e-05
3.030637823e-05
8.857068548e-05
9.078079026e-05
2.539358392e-05
3.848354843e-07
1.593741094e-05
0.0001862511308
1.164493657e-05
4.768029153e-05
0.0001063646699
0.000378815355
0.002054291641
0.001763609505
0.0006213754662
0.0002357766395
0.0001754872635
9.159063513e-06
2.764418941e-06
6.205674019e-07
3.202778429e-06
8.344397093e-06
1.600216798e-05
2.70260523e-05
4.978034695e-05
0.0001324212865
0.0001645432608
0.0001626548155
0.0001171452169
6.925119493e-05
4.215941914e-05
3.650188645e-05
0.0001090224756
0.0001841980211
0.0001983621626
0.000181484187
0.0002075468781
0.0001293376258
0.00376875283
0.0001020480203
7.554542212e-05
6.134674789e-05
8.902085806e-05
0.0001609236474
0.0001367668194
7.519493146e-05
4.830232241e-05
3.6967375e-05
4.390855927e-05
7.066363779e-05
0.0002120809156
0.0002793525077
0.0002889195006
0.0003839732383
0.000355512593
0.0004383466055
0.0004280966227
5.250092614e-05
2.966747336e-05
4.996901345e-05
0.0001058641473
0.0002668538864
0.0005801251584
0.0001581458423
9.797303722e-05
0.0001090592066
1.288773249e-05
4.902428005e-06
9.348993697e-07
2.237984733e-06
8.10649186e-06
1.64959955e-05
2.830236839e-05
5.073684483e-05
0.0001770719637
0.0002553818143
0.000208075701
0.0001379489678
8.857218657e-05
5.672116318e-05
4.48966978e-05
8.178043034e-05
0.0001196098219
0.0001292882022
0.0001244917403
0.0001325930272
0.0001020637136
0.002954792007
3.986746046e-05
6.492229702e-05
0.0002195281808
0.0004175917357
0.0004763502153
0.0003690159838
0.0001411985836
6.205833399e-06
1.037825452e-05
0.0001941763986
9.902651079e-05
7.570111866e-05
8.880169735e-05
0.0001307918716
0.0001826048567
8.977489512e-05
1.344852244e-05
1.499261805e-05
2.309384463e-05
3.912755899e-05
7.164567833e-05
2.12244731e-05
1.575682176e-05
1.953266719e-05
2.205577025e-05
1.834560296e-05
9.222557193e-06
1.327303684e-06
2.261678594e-06
8.285450831e-06
1.717304865e-05
3.014468764e-05
5.006759808e-05
8.296869982e-05
0.0001060582089
0.0001163740616
0.0001160192174
9.613564429e-05
6.813957748e-05
5.026109851e-05
5.55397753e-05
6.957611157e-05
8.047789355e-05
8.543863855e-05
9.22294738e-05
8.390926271e-05
0.002386915268
0.0001758872809
0.000122194827
6.791907876e-05
1.88426702e-05
7.309242862e-06
3.992648935e-05
2.580451814e-05
3.776040101e-05
0.0001005568881
0.0001526902732
9.738994622e-05
3.304455719e-05
3.885254897e-06
2.364330196e-05
6.466158185e-05
8.920465412e-05
0.0001042633825
2.450808689e-05
3.439792345e-05
4.86884815e-05
5.583227846e-05
3.603145988e-05
1.45873452e-05
1.758545861e-06
2.26821683e-06
8.455613645e-06
1.796161564e-05
3.255456834e-05
5.214255418e-05
7.165552867e-05
9.018330588e-05
0.0001135291253
0.0001364167935
0.0001224442548
8.38079635e-05
5.44112712e-05
3.925415212e-05
4.478406724e-05
5.834904424e-05
6.743648259e-05
7.388910809e-05
7.319825329e-05
0.002070100422
5.983762059e-05
2.455883896e-05
8.72460356e-06
4.530408402e-05
8.571953692e-05
0.0001711894605
0.0003767812606
0.0003339589606
9.773091203e-05
4.684694627e-05
5.048003065e-08
3.75158654e-05
0.000135418652
0.0001850441227
0.0001489473966
4.346985259e-05
0.0001028447454
0.0001357301364
0.0001599622317
5.611876714e-05
1.653213124e-05
2.195426497e-06
2.22586957e-06
8.635507498e-06
1.888045864e-05
3.490612618e-05
5.430528662e-05
7.376363203e-05
9.591622722e-05
0.0001289610465
0.0001722147506
0.0001629035979
9.954528647e-05
5.155521536e-05
2.705008548e-05
3.673595241e-05
5.808650247e-05
7.051674524e-05
7.387647562e-05
7.053060176e-05
0.001928361384
0.000181753078
0.0003465837213
0.00042818584
0.0001735924543
6.748222966e-05
3.886406978e-05
2.608241582e-06
0.0001969295191
7.815904866e-05
0.0002022513391
0.0002176052762
0.0001384567518
0.0002774365894
0.0003076198146
0.0009032701296
7.307677166e-05
1.440341776e-05
2.175700068e-06
2.134652588e-06
8.964276566e-06
2.00821387e-05
3.653200458e-05
5.329356649e-05
6.890747502e-05
9.176925869e-05
0.0001383341723
0.0002298208263
0.0002270856133
0.0001042541629
3.143660941e-05
1.376274677e-05
3.703266498e-05
7.278938742e-05
9.222539237e-05
9.093561329e-05
7.791979708e-05
0.001904130001
0.0002755733898
8.412816692e-05
4.24830307e-05
2.33831355e-05
1.483930985e-05
0.000254165013
2.283128654e-05
0.0001383860431
0.0002431122043
0.0003032679469
0.0003856030988
0.0003082844484
0.0001685044351
5.827196767e-05
1.191577729e-05
1.778795807e-06
2.038707938e-06
9.73507381e-06
2.1820362e-05
3.657088072e-05
4.741534917e-05
5.733421107e-05
7.99503368e-05
0.0001518927729
0.0003920334829
0.0002889653322
4.197810473e-05
9.401329196e-06
6.382879283e-06
4.220391057e-05
9.351437683e-05
0.0001247827677
0.0001225801127
9.490618848e-05
0.001963202234
5.739032404e-05
2.360033082e-05
9.444917742e-06
5.902597805e-05
0.0002649754013
5.511714758e-05
7.071651125e-05
0.0001778231452
0.0003122872177
0.0002907031921
0.0001821065894
9.203105417e-05
6.176260769e-05
2.823360998e-05
1.646462522e-06
1.913076348e-06
1.121941546e-05
2.39181377e-05
3.398383194e-05
3.773943109e-05
4.358927746e-05
6.626548414e-05
0.0001987852333
0.0007509321449
0.0001735511678
3.580887078e-05
2.076312412e-05
1.096192544e-05
5.093596729e-05
0.0001063918346
0.0001458072659
0.0001530809962
0.0001170149888
0.002078833009
5.503641916e-05
5.863765217e-05
5.511589852e-05
0.0001699875708
0.0002025697148
4.897359035e-05
6.59917789e-05
0.0001224700047
0.0003634866068
0.0002167597806
0.0001055021754
6.916172205e-05
0.0001535566478
0.0001824864505
1.668654003e-06
1.651634022e-06
1.250571988e-05
2.360453127e-05
2.832844467e-05
2.674884356e-05
2.954409912e-05
4.99111281e-05
0.0002805719295
0.001092685055
0.0001954292376
0.0001157338944
8.978704635e-05
3.981180011e-05
6.416464588e-05
0.0001043318398
0.0001419161996
0.0001633752501
0.0001347945157
0.002231363146
0.000375041412
0.000611617937
0.0003875432431
0.0001180351573
0.0001731770959
0.0002386910823
0.0002593337077
0.0005003561957
0.0003192899476
0.0002559773876
0.0002174766614
0.0003078408994
0.000244226764
0.0001444157803
6.298439367e-05
2.66605686e-05
1.070449484e-05
2.087243443e-05
2.035485002e-05
2.197167259e-05
4.926452706e-05
0.0001594531995
0.0003819995451
0.0006011925492
0.0006837668297
0.0004145390329
0.0001606080631
8.76439241e-05
9.091887214e-05
0.0001158438813
0.0001460433756
0.0001402042269
0.002414869862
0.001030442132
0.0009208420752
0.0007036267543
0.0003605544239
0.0001465373066
0.000125798481
0.0001302938519
0.001140644328
0.0005656358817
0.0003630645307
0.0003352442427
0.000208625085
0.0002753003831
0.0005309636967
0.000300382927
0.0001354136933
0.0002480311767
0.0001101918889
9.154371832e-05
0.0002085034469
0.0004634742961
0.0007061948361
0.0007787079144
0.0006386409189
0.0005429470927
0.0001797448147
3.980025133e-05
4.769808463e-05
5.523651002e-05
7.120690725e-05
9.706676775e-05
0.0001188290361
0.002577874547
0.001944457179
0.001216221558
0.001036699017
0.0007579649356
0.0001164203579
6.428804482e-05
6.898777875e-05
0.0001791505077
0.0004165719051
0.0001679911066
6.699336671e-05
5.549358157e-05
8.150332937e-05
0.0001095636314
0.0002717199433
0.0004434902783
0.0008862173068
0.0008783193421
0.001091188058
0.00182641734
0.001846239875
0.0005650312585
0.0003988544674
0.0004440798567
0.0004357160874
0.0003139112674
0.0001621644477
2.968423243e-05
2.591315667e-05
3.229638717e-05
4.515986301e-05
7.270168332e-05
0.002470065004
0.001084052795
0.0006764333758
0.0006247391669
8.774304168e-05
3.783056202e-05
4.379557398e-05
2.61089082e-05
0.0001570448752
0.0001113886569
4.206916616e-05
3.459608098e-05
2.800389396e-05
2.34749096e-05
0.0002808554674
0.001177123181
0.000215382784
7.690377898e-05
9.509747818e-05
0.0008898170408
0.001212516061
0.0005652471679
0.000368321208
0.0001339777657
8.528118397e-05
0.0001412467777
0.0002292614618
0.0001699089873
0.0001110716001
9.378180468e-05
0.0001002468539
0.0001046682203
0.001490270609
1.050414613e-06
0.0001802141254
3.345357685e-05
4.880135519e-05
0.0003792227539
7.787376852e-05
5.168071615e-05
7.558760563e-05
0.0001305823641
0.0001010295784
6.618517532e-05
2.125888226e-05
1.88579216e-05
0.0001327460697
2.456198887e-05
9.637556481e-06
1.944353059e-05
0.0002848154298
0.001652240474
0.0009357320235
0.000814795281
0.0003277340461
0.0001169515939
6.938239833e-05
7.083470477e-05
0.0001566715868
0.0002295165842
0.0002854268717
0.0003176879008
0.000243630165
0.0009514772454
5.473044987e-08
2.266237956e-05
1.127389507e-05
7.260397917e-05
0.0003697340036
0.0005576035068
0.0003664928907
0.0002301171165
6.858032631e-05
2.517082999e-05
8.171167354e-06
5.401907616e-06
5.59101029e-06
5.711670696e-06
5.03200493e-06
5.301445294e-06
9.884429723e-06
4.907755663e-05
0.0002220622339
0.0006122404115
0.001021654872
0.0008002885512
0.0003453470344
0.0001290568529
6.20059428e-05
0.0002364703847
0.0004572444146
0.0005122814035
0.0004074413336
0.0002204521777
0.000864450634
3.382026875e-05
4.268348316e-05
7.003651594e-07
7.046491662e-07
6.182538984e-05
4.365034519e-05
7.151522459e-05
0.0001483925589
9.177333974e-06
1.625642929e-05
2.11048824e-06
1.179109559e-05
6.880232325e-06
6.077391616e-06
5.377530285e-06
5.240672435e-06
7.90714081e-06
3.449041083e-05
0.0001003200886
0.0002873359803
0.0006047824497
0.0005959691377
0.0003800243182
0.0002093954881
0.000109508419
8.503900471e-05
7.563490003e-05
7.073034227e-05
7.417400086e-05
6.406005943e-05
0.001455354415
1.852717302e-05
4.275296859e-05
0.0001714232076
0.0001019446498
1.60116651e-05
2.190885907e-06
5.169348116e-05
1.237500652e-05
1.001181421e-05
8.278059962e-06
6.674941546e-06
7.4846085e-06
3.084438016e-05
6.895376228e-05
0.0001619792436
0.0002910929149
0.0003526693149
0.0003250071762
0.0002629203489
0.000183206469
0.0001080040904
6.074382175e-05
3.820823498e-05
3.833772688e-05
4.46368481e-05
0.002139111356
4.735528596e-05
0.0003217569902
0.0006610006597
0.000795738466
1.746997623e-05
2.455572528e-06
0.0001198632168
0.0001453171017
6.518825554e-05
2.231884657e-05
1.036786907e-05
7.997604626e-06
3.005454391e-05
5.638690697e-05
0.0001261420519
0.0001587520571
0.0001814316935
0.0002023644666
0.0002162083358
0.0002067804962
0.0001578383936
9.605531874e-05
5.286861413e-05
3.713199057e-05
3.33035108e-05
0.002885388463
)
;

boundaryField
{
    walls
    {
        type            zeroGradient;
    }
    wallFilmFace_top
    {
        type            zeroGradient;
    }
    region0_to_wallFilmRegion_wallFilmFace
    {
        type            zeroGradient;
    }
    mirrorFace_top
    {
        type            zeroGradient;
    }
    region0_to_wallFilmRegion_mirrorFace
    {
        type            zeroGradient;
    }
    procBoundary0to1
    {
        type            processor;
        value           nonuniform List<scalar> 
52
(
0.002758761811
2.337069785e-05
2.26277362e-05
1.65333689e-05
3.259661128e-05
9.006781215e-05
0.0002618453249
0.0002618453249
0.000520247205
0.0004801477221
0.0002150043706
0.0001357290338
0.0001357290338
7.896090778e-05
5.484013167e-05
5.484013167e-05
2.098223668e-05
3.662362847e-05
0.0001038625666
0.0002005453235
0.0002005453235
0.0001577998711
0.0001001497724
0.0001001497724
3.09288756e-05
1.670368959e-05
8.594577643e-06
3.88069304e-05
3.88069304e-05
0.0003505724673
0.00049739877
0.00049739877
0.0001809285275
0.0001809285275
7.206157266e-05
0.0001019802004
0.0001019802004
0.0001078569217
0.0006779337583
0.0009746469902
0.0009746469902
2.224854009e-07
2.224854009e-07
1.01619879e-08
1.417528169e-05
4.874745292e-06
2.985644162e-05
1.093463827e-07
9.624723701e-07
2.283352133e-05
2.283352133e-05
8.330013512e-06
)
;
    }
    procBoundary0to2
    {
        type            processor;
        value           nonuniform List<scalar> 
26
(
5.076874225e-05
0.0003122632918
0.0007020886292
0.0001715108742
1.215859305e-05
2.511686985e-06
0.0001707233968
0.000122848626
5.896240578e-05
2.677113691e-05
1.289354777e-05
8.491932226e-06
3.231975877e-05
5.669383267e-05
0.0001638443406
0.0001527566165
0.0001148651857
0.0001062560367
0.0001277315343
0.0001571258621
0.0001612512087
0.0001244217717
7.87456254e-05
6.197834895e-05
4.217356204e-05
0.003368607032
)
;
    }
}


// ************************************************************************* //
