/*--------------------------------*- C++ -*----------------------------------*\
  =========                 |
  \\      /  F ield         | OpenFOAM: The Open Source CFD Toolbox
   \\    /   O peration     | Website:  https://openfoam.org
    \\  /    A nd           | Version:  8
     \\/     M anipulation  |
\*---------------------------------------------------------------------------*/
FoamFile
{
    version     2.0;
    format      ascii;
    class       volVectorField;
    location    "0.1/wallFilmRegion";
    object      U;
}
// * * * * * * * * * * * * * * * * * * * * * * * * * * * * * * * * * * * * * //

dimensions      [0 1 -1 0 0 0 0];

internalField   nonuniform List<vector> 
1369
(
(-1.38945946e-18 -4.041807396e-18 0)
(-2.624917192e-18 -2.27029089e-17 0)
(-4.073316103e-18 -5.845512676e-17 0)
(-5.596703618e-18 -1.105563787e-16 0)
(-7.17123435e-18 -1.771080835e-16 0)
(-8.775407451e-18 -2.55652778e-16 0)
(-1.039854289e-17 -3.432919574e-16 0)
(-1.203180107e-17 -4.367852557e-16 0)
(-1.366601866e-17 -5.326874375e-16 0)
(-1.528630905e-17 -6.27484756e-16 0)
(-1.688181571e-17 -7.17699354e-16 0)
(-1.84259444e-17 -8.000158639e-16 0)
(-1.989085794e-17 -8.714006474e-16 0)
(-2.124324088e-17 -9.292271243e-16 0)
(-2.245580723e-17 -9.713832583e-16 0)
(-2.350172491e-17 -9.963619151e-16 0)
(-2.435223305e-17 -1.003302937e-15 0)
(-2.495750696e-17 -9.92003868e-16 0)
(-2.530839245e-17 -9.629970567e-16 0)
(-2.539230885e-17 -9.175589136e-16 0)
(-2.518836799e-17 -8.574959358e-16 0)
(-2.466283325e-17 -7.850775223e-16 0)
(-2.38274214e-17 -7.030969925e-16 0)
(-2.267528912e-17 -6.146989247e-16 0)
(-2.122356412e-17 -5.23186811e-16 0)
(-1.948535411e-17 -4.319013914e-16 0)
(-1.748517291e-17 -3.440851039e-16 0)
(-1.525359061e-17 -2.627778298e-16 0)
(-1.28279451e-17 -1.906612277e-16 0)
(-1.025145449e-17 -1.299392329e-16 0)
(-7.578806909e-18 -8.226999899e-17 0)
(-4.904247971e-18 -4.867908385e-17 0)
(-2.866245592e-18 -2.886056293e-17 0)
(-3.190443941e-18 -1.477868303e-17 0)
(-4.825213376e-18 4.584701226e-18 0)
(-6.789116943e-18 3.170300585e-17 0)
(-8.873267227e-18 6.661661873e-17 0)
(-1.086531176e-17 1.080086679e-16 0)
(-1.267137757e-17 1.53777941e-16 0)
(-1.42306663e-17 2.014687555e-16 0)
(-1.552528153e-17 2.483888954e-16 0)
(-1.653348744e-17 2.920567636e-16 0)
(-1.725601742e-17 3.302351543e-16 0)
(-1.769101508e-17 3.609588265e-16 0)
(-1.784141965e-17 3.827063624e-16 0)
(-1.773736195e-17 3.946201377e-16 0)
(-1.738369413e-17 3.960015431e-16 0)
(-1.681289783e-17 3.868751977e-16 0)
(-1.603854417e-17 3.680939907e-16 0)
(-1.510045224e-17 3.406123639e-16 0)
(-1.401312752e-17 3.059098244e-16 0)
(-1.280110596e-17 2.657610241e-16 0)
(-1.149178541e-17 2.223085011e-16 0)
(-1.011357561e-17 1.778203351e-16 0)
(-8.673200053e-18 1.344790782e-16 0)
(-7.196957655e-18 9.447643391e-17 0)
(-5.707335241e-18 5.983214711e-17 0)
(-4.23071351e-18 3.224884923e-17 0)
(-2.827266797e-18 1.304278637e-17 0)
(-1.696013381e-18 2.642267205e-18 0)
(-4.754200521e-18 -4.670936098e-18 0)
(-8.16108807e-18 -2.416185601e-17 0)
(-1.238492737e-17 -6.093536487e-17 0)
(-1.69091071e-17 -1.14487877e-16 0)
(-2.160128027e-17 -1.828665502e-16 0)
(-2.640952389e-17 -2.635428209e-16 0)
(-3.130039392e-17 -3.535548651e-16 0)
(-3.624404176e-17 -4.495984288e-16 0)
(-4.12088966e-17 -5.481371146e-16 0)
(-4.614556697e-17 -6.455787546e-16 0)
(-5.101035423e-17 -7.383566869e-16 0)
(-5.572600852e-17 -8.230420342e-16 0)
(-6.021031249e-17 -8.96523106e-16 0)
(-6.437306552e-17 -9.561125454e-16 0)
(-6.812399987e-17 -9.996576284e-16 0)
(-7.137103803e-17 -1.025605565e-15 0)
(-7.401711595e-17 -1.033022514e-15 0)
(-7.595343499e-17 -1.021719598e-15 0)
(-7.711609094e-17 -9.922919435e-16 0)
(-7.745867726e-17 -9.460063169e-16 0)
(-7.690898037e-17 -8.846515274e-16 0)
(-7.540640166e-17 -8.105832523e-16 0)
(-7.295921639e-17 -7.266816896e-16 0)
(-6.956323475e-17 -6.361513162e-16 0)
(-6.525443663e-17 -5.423841538e-16 0)
(-6.008266755e-17 -4.487870534e-16 0)
(-5.412752342e-17 -3.586943859e-16 0)
(-4.750315387e-17 -2.752101446e-16 0)
(-4.034514712e-17 -2.01070255e-16 0)
(-3.284649211e-17 -1.385244664e-16 0)
(-2.53125199e-17 -8.921638627e-17 0)
(-1.841032798e-17 -5.390349141e-17 0)
(-1.388235281e-17 -3.10815049e-17 0)
(-1.389390697e-17 -1.372627225e-17 0)
(-1.748850688e-17 7.117961999e-18 0)
(-2.269220919e-17 3.519072738e-17 0)
(-2.845907126e-17 7.088965987e-17 0)
(-3.415395709e-17 1.130821068e-16 0)
(-3.940061338e-17 1.596827917e-16 0)
(-4.398802897e-17 2.082373927e-16 0)
(-4.78018105e-17 2.560375553e-16 0)
(-5.077482868e-17 3.005427492e-16 0)
(-5.288734563e-17 3.394525051e-16 0)
(-5.413695871e-17 3.707960716e-16 0)
(-5.454768416e-17 3.929821644e-16 0)
(-5.417943849e-17 4.051308027e-16 0)
(-5.306929164e-17 4.06528241e-16 0)
(-5.128866615e-17 3.972052569e-16 0)
(-4.891083008e-17 3.780199474e-16 0)
(-4.60331143e-17 3.499403462e-16 0)
(-4.271883875e-17 3.14500744e-16 0)
(-3.904143615e-17 2.734869769e-16 0)
(-3.507618131e-17 2.290777758e-16 0)
(-3.090954984e-17 1.836202772e-16 0)
(-2.658773539e-17 1.39332995e-16 0)
(-2.217773736e-17 9.8430161e-17 0)
(-1.7764029e-17 6.298217849e-17 0)
(-1.346395311e-17 3.471117554e-17 0)
(-9.540217387e-18 1.487613679e-17 0)
(-6.649314886e-18 3.493165407e-18 0)
(-9.426704431e-18 -5.575333957e-18 0)
(-1.453684505e-17 -2.593379368e-17 0)
(-2.129006631e-17 -6.313589524e-17 0)
(-2.869456965e-17 -1.171940887e-16 0)
(-3.642838526e-17 -1.861296221e-16 0)
(-4.437921306e-17 -2.674195384e-16 0)
(-5.248994169e-17 -3.581026336e-16 0)
(-6.07034158e-17 -4.548662248e-16 0)
(-6.895559705e-17 -5.541601123e-16 0)
(-7.717076461e-17 -6.52374991e-16 0)
(-8.525333214e-17 -7.459187495e-16 0)
(-9.30860508e-17 -8.31336604e-16 0)
(-1.005339851e-16 -9.055043938e-16 0)
(-1.0745662e-16 -9.657181516e-16 0)
(-1.137004743e-16 -1.009804184e-15 0)
(-1.191075165e-16 -1.036193236e-15 0)
(-1.235177723e-16 -1.043948985e-15 0)
(-1.26779858e-16 -1.032882213e-15 0)
(-1.287741901e-16 -1.003606598e-15 0)
(-1.294028475e-16 -9.573708781e-16 0)
(-1.285542345e-16 -8.959454519e-16 0)
(-1.26169551e-16 -8.21733242e-16 0)
(-1.222363972e-16 -7.376239547e-16 0)
(-1.167713595e-16 -6.468195833e-16 0)
(-1.098301467e-16 -5.527285644e-16 0)
(-1.015104744e-16 -4.587742187e-16 0)
(-9.197420376e-17 -3.683050941e-16 0)
(-8.143730813e-17 -2.8442112e-16 0)
(-7.019471913e-17 -2.098363546e-16 0)
(-5.867559759e-17 -1.467310777e-16 0)
(-4.75786041e-17 -9.654193688e-17 0)
(-3.81513961e-17 -5.945058478e-17 0)
(-3.24087772e-17 -3.31176203e-17 0)
(-3.202613267e-17 -1.16059394e-17 0)
(-3.636332115e-17 1.203427978e-17 0)
(-4.352630052e-17 4.175225369e-17 0)
(-5.19224923e-17 7.844796194e-17 0)
(-6.050356899e-17 1.212653864e-16 0)
(-6.858252049e-17 1.682729946e-16 0)
(-7.575060352e-17 2.171140831e-16 0)
(-8.174240308e-17 2.651258058e-16 0)
(-8.642945854e-17 3.097712681e-16 0)
(-8.9745161e-17 3.487520248e-16 0)
(-9.165935878e-17 3.800781178e-16 0)
(-9.223209976e-17 4.021724793e-16 0)
(-9.151171625e-17 4.141493973e-16 0)
(-8.962689132e-17 4.153093881e-16 0)
(-8.659447558e-17 4.056813593e-16 0)
(-8.26127392e-17 3.861120179e-16 0)
(-7.779389727e-17 3.575842242e-16 0)
(-7.227813022e-17 3.216633155e-16 0)
(-6.617673552e-17 2.801466175e-16 0)
(-5.961276402e-17 2.352170569e-16 0)
(-5.272893515e-17 1.892310447e-16 0)
(-4.563244465e-17 1.444373099e-16 0)
(-3.845159463e-17 1.030452638e-16 0)
(-3.134928372e-17 6.709900158e-17 0)
(-2.459687615e-17 3.826707925e-17 0)
(-1.875781601e-17 1.765800385e-17 0)
(-1.477700032e-17 4.692109999e-18 0)
(-1.562599573e-17 -6.67563691e-18 0)
(-2.201016158e-17 -2.836137387e-17 0)
(-3.096094584e-17 -6.629140551e-17 0)
(-4.103560803e-17 -1.210589065e-16 0)
(-5.166823524e-17 -1.907839939e-16 0)
(-6.265728493e-17 -2.729576653e-16 0)
(-7.389609892e-17 -3.646134879e-16 0)
(-8.530215863e-17 -4.624157908e-16 0)
(-9.677675599e-17 -5.627970042e-16 0)
(-1.082122021e-16 -6.621208e-16 0)
(-1.194692802e-16 -7.567629069e-16 0)
(-1.303872004e-16 -8.432354573e-16 0)
(-1.407794979e-16 -9.183858633e-16 0)
(-1.504483037e-16 -9.794899863e-16 0)
(-1.591831116e-16 -1.024349244e-15 0)
(-1.667675706e-16 -1.051377689e-15 0)
(-1.729830855e-16 -1.059616455e-15 0)
(-1.776282893e-16 -1.048888967e-15 0)
(-1.805307994e-16 -1.019820361e-15 0)
(-1.815515711e-16 -9.736336818e-16 0)
(-1.805511406e-16 -9.121066398e-16 0)
(-1.774606144e-16 -8.376712156e-16 0)
(-1.722573106e-16 -7.532340259e-16 0)
(-1.649852286e-16 -6.620105286e-16 0)
(-1.557327208e-16 -5.674131069e-16 0)
(-1.446661787e-16 -4.72894395e-16 0)
(-1.320444287e-16 -3.818092515e-16 0)
(-1.182129545e-16 -2.972296828e-16 0)
(-1.036616847e-16 -2.218149523e-16 0)
(-8.909072011e-17 -1.576137137e-16 0)
(-7.555543841e-17 -1.057684439e-16 0)
(-6.460971644e-17 -6.595029929e-17 0)
(-5.815455841e-17 -3.551701047e-17 0)
(-5.746150039e-17 -9.448843339e-18 0)
(-6.20516464e-17 1.784851444e-17 0)
(-7.028076999e-17 5.007931112e-17 0)
(-8.039332343e-17 8.844876464e-17 0)
(-9.104505894e-17 1.323815413e-16 0)
(-1.012796411e-16 1.801564127e-16 0)
(-1.104786965e-16 2.295527917e-16 0)
(-1.182145986e-16 2.779608697e-16 0)
(-1.242725606e-16 3.228639777e-16 0)
(-1.285185762e-16 3.620034186e-16 0)
(-1.309007278e-16 3.933591155e-16 0)
(-1.31465984e-16 4.153664198e-16 0)
(-1.302590184e-16 4.2707617e-16 0)
(-1.274885089e-16 4.279033247e-16 0)
(-1.231551239e-16 4.178720347e-16 0)
(-1.17532751e-16 3.977404859e-16 0)
(-1.107605378e-16 3.685688177e-16 0)
(-1.030504042e-16 3.319392026e-16 0)
(-9.456407518e-17 2.896897156e-16 0)
(-8.546947322e-17 2.439940924e-16 0)
(-7.597286045e-17 1.972345358e-16 0)
(-6.625007717e-17 1.516674888e-16 0)
(-5.651253354e-17 1.095131479e-16 0)
(-4.702687504e-17 7.27799958e-17 0)
(-3.824199085e-17 4.302640985e-17 0)
(-3.099272933e-17 2.112141551e-17 0)
(-2.625435337e-17 6.039183067e-18 0)
(-2.318084037e-17 -7.854677874e-18 0)
(-3.054020053e-17 -3.12006001e-17 0)
(-4.130630803e-17 -7.016077597e-17 0)
(-5.375623621e-17 -1.258763608e-16 0)
(-6.706535516e-17 -1.966417e-16 0)
(-8.091266414e-17 -2.799704963e-16 0)
(-9.513210798e-17 -3.728950051e-16 0)
(-1.095992825e-16 -4.720630201e-16 0)
(-1.241859834e-16 -5.738672754e-16 0)
(-1.38745119e-16 -6.746368635e-16 0)
(-1.531007505e-16 -7.707065957e-16 0)
(-1.670379266e-16 -8.585481131e-16 0)
(-1.803321095e-16 -9.349717114e-16 0)
(-1.927232148e-16 -9.972218939e-16 0)
(-2.039482589e-16 -1.043072478e-15 0)
(-2.137334374e-16 -1.070909599e-15 0)
(-2.218009579e-16 -1.079767534e-15 0)
(-2.279058687e-16 -1.069452481e-15 0)
(-2.31831967e-16 -1.040601477e-15 0)
(-2.333948217e-16 -9.944385923e-16 0)
(-2.324299727e-16 -9.327369004e-16 0)
(-2.288653944e-16 -8.579563393e-16 0)
(-2.22679253e-16 -7.730293288e-16 0)
(-2.13937116e-16 -6.811842187e-16 0)
(-2.027759029e-16 -5.858468916e-16 0)
(-1.894483921e-16 -4.90497181e-16 0)
(-1.743087584e-16 -3.984748739e-16 0)
(-1.578519433e-16 -3.128221789e-16 0)
(-1.407603089e-16 -2.361174467e-16 0)
(-1.239844737e-16 -1.702429375e-16 0)
(-1.088233562e-16 -1.160576049e-16 0)
(-9.693687828e-17 -7.289937765e-17 0)
(-9.003632179e-17 -3.810395963e-17 0)
(-8.912135085e-17 -7.359811488e-18 0)
(-9.377624925e-17 2.400538826e-17 0)
(-1.025635144e-16 5.934516898e-17 0)
(-1.137354437e-16 9.997199863e-17 0)
(-1.257800178e-16 1.455202592e-16 0)
(-1.375451032e-16 1.944662351e-16 0)
(-1.482378568e-16 2.447396401e-16 0)
(-1.572535206e-16 2.937784152e-16 0)
(-1.642991672e-16 3.391270564e-16 0)
(-1.691676199e-16 3.785473886e-16 0)
(-1.717716997e-16 4.099977445e-16 0)
(-1.72118762e-16 4.319563012e-16 0)
(-1.70304409e-16 4.434113239e-16 0)
(-1.664974195e-16 4.438219861e-16 0)
(-1.608096871e-16 4.332635271e-16 0)
(-1.535003201e-16 4.124365656e-16 0)
(-1.447756757e-16 3.824562882e-16 0)
(-1.348812779e-16 3.449030092e-16 0)
(-1.240728454e-16 3.016922412e-16 0)
(-1.125440877e-16 2.549994641e-16 0)
(-1.005626139e-16 2.071998632e-16 0)
(-8.840509009e-17 1.605916898e-16 0)
(-7.634671568e-17 1.173982506e-16 0)
(-6.479492949e-17 7.957216502e-17 0)
(-5.434865247e-17 4.852983878e-17 0)
(-4.604460263e-17 2.491388656e-17 0)
(-4.067158122e-17 7.429693433e-18 0)
(-3.173268456e-17 -9.040917794e-18 0)
(-3.988139126e-17 -3.42383668e-17 0)
(-5.215420097e-17 -7.448238419e-17 0)
(-6.669841319e-17 -1.313858319e-16 0)
(-8.244145868e-17 -2.034323444e-16 0)
(-9.893881315e-17 -2.881829212e-16 0)
(-1.159610734e-16 -3.826622047e-16 0)
(-1.333339101e-16 -4.834928616e-16 0)
(-1.508873612e-16 -5.870333419e-16 0)
(-1.684481716e-16 -6.895645302e-16 0)
(-1.857865002e-16 -7.873612199e-16 0)
(-2.026599092e-16 -8.76859278e-16 0)
(-2.187762589e-16 -9.5482115e-16 0)
(-2.338404853e-16 -1.018442784e-15 0)
(-2.475272311e-16 -1.065473402e-15 0)
(-2.595154517e-16 -1.09426028e-15 0)
(-2.694672852e-16 -1.103821486e-15 0)
(-2.770933163e-16 -1.093976088e-15 0)
(-2.821509932e-16 -1.065344251e-15 0)
(-2.844032455e-16 -1.019131459e-15 0)
(-2.836620155e-16 -9.571497942e-16 0)
(-2.798596432e-16 -8.81879539e-16 0)
(-2.729864927e-16 -7.962651199e-16 0)
(-2.631202684e-16 -7.035631104e-16 0)
(-2.504678752e-16 -6.072317695e-16 0)
(-2.35359187e-16 -5.107541019e-16 0)
(-2.18250791e-16 -4.174531829e-16 0)
(-1.997809427e-16 -3.303301804e-16 0)
(-1.808100182e-16 -2.51881469e-16 0)
(-1.624794422e-16 -1.838329956e-16 0)
(-1.462374444e-16 -1.268137867e-16 0)
(-1.337556609e-16 -7.998145365e-17 0)
(-1.26574973e-16 -4.076070979e-17 0)
(-1.255098925e-16 -5.371997549e-18 0)
(-1.301630808e-16 3.020447321e-17 0)
(-1.392421984e-16 6.898999869e-17 0)
(-1.510578146e-16 1.12295578e-16 0)
(-1.64003488e-16 1.598758734e-16 0)
(-1.768116133e-16 2.103616105e-16 0)
(-1.885531215e-16 2.618417509e-16 0)
(-1.984316205e-16 3.117818609e-16 0)
(-2.061248759e-16 3.57767393e-16 0)
(-2.113321419e-16 3.976189095e-16 0)
(-2.139132031e-16 4.293044965e-16 0)
(-2.138630307e-16 4.512531492e-16 0)
(-2.113023716e-16 4.624610024e-16 0)
(-2.06363425e-16 4.624335276e-16 0)
(-1.992575908e-16 4.5125934e-16 0)
(-1.902337004e-16 4.296267385e-16 0)
(-1.795798609e-16 3.986990414e-16 0)
(-1.675315506e-16 3.600336045e-16 0)
(-1.544684237e-16 3.156435275e-16 0)
(-1.406259727e-16 2.677466554e-16 0)
(-1.263007029e-16 2.186630085e-16 0)
(-1.118818668e-16 1.707632011e-16 0)
(-9.772133818e-17 1.262621219e-16 0)
(-8.435602775e-17 8.705204607e-17 0)
(-7.253226806e-17 5.442618234e-17 0)
(-6.337647292e-17 2.882375251e-17 0)
(-5.740351244e-17 8.814807347e-18 0)
(-4.082825518e-17 -1.018952155e-17 0)
(-4.96518607e-17 -3.731803507e-17 0)
(-6.31970023e-17 -7.903886735e-17 0)
(-7.957677909e-17 -1.373310517e-16 0)
(-9.751840043e-17 -2.108725789e-16 0)
(-1.164501506e-16 -2.972904645e-16 0)
(-1.360699339e-16 -3.935936249e-16 0)
(-1.561619265e-16 -4.963615799e-16 0)
(-1.765145137e-16 -6.019222772e-16 0)
(-1.969147383e-16 -7.064940663e-16 0)
(-2.171017766e-16 -8.062984483e-16 0)
(-2.367724593e-16 -8.977035953e-16 0)
(-2.556100198e-16 -9.774192446e-16 0)
(-2.732627623e-16 -1.042613926e-15 0)
(-2.893601662e-16 -1.090978985e-15 0)
(-3.035164166e-16 -1.120826634e-15 0)
(-3.153532463e-16 -1.131150795e-15 0)
(-3.245441161e-16 -1.121789538e-15 0)
(-3.308084535e-16 -1.093343081e-15 0)
(-3.33869177e-16 -1.046988011e-15 0)
(-3.335241256e-16 -9.845853071e-16 0)
(-3.297035395e-16 -9.086612295e-16 0)
(-3.224017409e-16 -8.22145178e-16 0)
(-3.117445229e-16 -7.28339909e-16 0)
(-2.97986232e-16 -6.307437342e-16 0)
(-2.815284831e-16 -5.328317557e-16 0)
(-2.62929855e-16 -4.379133895e-16 0)
(-2.429586508e-16 -3.489610104e-16 0)
(-2.226272429e-16 -2.683874553e-16 0)
(-2.032135677e-16 -1.9778313e-16 0)
(-1.862561098e-16 -1.376252977e-16 0)
(-1.734012462e-16 -8.698381023e-17 0)
(-1.660458844e-16 -4.340159172e-17 0)
(-1.648877024e-16 -3.502600704e-18 0)
(-1.695283003e-16 3.626079596e-17 0)
(-1.787709317e-16 7.862922923e-17 0)
(-1.909917802e-16 1.248707651e-16 0)
(-2.045128065e-16 1.747828708e-16 0)
(-2.180157084e-16 2.271038408e-16 0)
(-2.304488952e-16 2.800919764e-16 0)
(-2.409269928e-16 3.311932916e-16 0)
(-2.489690258e-16 3.780030942e-16 0)
(-2.542804092e-16 4.18487112e-16 0)
(-2.566510625e-16 4.505146053e-16 0)
(-2.560764799e-16 4.725289056e-16 0)
(-2.526377698e-16 4.835512129e-16 0)
(-2.465247876e-16 4.830860953e-16 0)
(-2.379561608e-16 4.712307229e-16 0)
(-2.272308644e-16 4.486965375e-16 0)
(-2.146686792e-16 4.167106385e-16 0)
(-2.005459663e-16 3.768029086e-16 0)
(-1.852975094e-16 3.310240689e-16 0)
(-1.692645106e-16 2.817324252e-16 0)
(-1.527493827e-16 2.311732564e-16 0)
(-1.36232019e-16 1.81757225e-16 0)
(-1.201674029e-16 1.357259246e-16 0)
(-1.051770653e-16 9.488082567e-17 0)
(-9.214900034e-17 6.044706934e-17 0)
(-8.226005851e-17 3.271616809e-17 0)
(-7.570088626e-17 1.016527642e-17 0)
(-4.997385962e-17 -1.126743081e-17 0)
(-5.939215101e-17 -4.031037862e-17 0)
(-7.402442604e-17 -8.36185637e-17 0)
(-9.201099212e-17 -1.434688249e-16 0)
(-1.119198875e-16 -2.187019019e-16 0)
(-1.330580835e-16 -3.069891412e-16 0)
(-1.550598567e-16 -4.053458858e-16 0)
(-1.776495788e-16 -5.103048437e-16 0)
(-2.005982364e-16 -6.18133269e-16 0)
(-2.236462379e-16 -7.250009497e-16 0)
(-2.464954275e-16 -8.270320008e-16 0)
(-2.688061886e-16 -9.205584081e-16 0)
(-2.902156743e-16 -1.002244171e-15 0)
(-3.103335715e-16 -1.069166527e-15 0)
(-3.287378799e-16 -1.118978075e-15 0)
(-3.449956397e-16 -1.149943582e-15 0)
(-3.586796882e-16 -1.161064947e-15 0)
(-3.694410405e-16 -1.152179801e-15 0)
(-3.769535131e-16 -1.123851313e-15 0)
(-3.809007715e-16 -1.07724289e-15 0)
(-3.81092205e-16 -1.014273781e-15 0)
(-3.774288176e-16 -9.374845323e-16 0)
(-3.699229354e-16 -8.498520916e-16 0)
(-3.587538345e-16 -7.547137236e-16 0)
(-3.442139002e-16 -6.555759789e-16 0)
(-3.267689226e-16 -5.559364133e-16 0)
(-3.07071232e-16 -4.590986771e-16 0)
(-2.860022377e-16 -3.680107308e-16 0)
(-2.646913058e-16 -2.850201698e-16 0)
(-2.445234413e-16 -2.116198972e-16 0)
(-2.270884861e-16 -1.481827926e-16 0)
(-2.139975195e-16 -9.373987656e-17 0)
(-2.065474622e-16 -4.596105316e-17 0)
(-2.053516591e-16 -1.77228684e-18 0)
(-2.10004208e-16 4.203549827e-17 0)
(-2.193672285e-16 8.797422494e-17 0)
(-2.318753672e-16 1.372681807e-16 0)
(-2.457839224e-16 1.896996479e-16 0)
(-2.597679618e-16 2.440872648e-16 0)
(-2.726394489e-16 2.987631556e-16 0)
(-2.835352973e-16 3.512596145e-16 0)
(-2.917295652e-16 3.991447447e-16 0)
(-2.96972339e-16 4.403910133e-16 0)
(-2.990115901e-16 4.728945479e-16 0)
(-2.978288335e-16 4.951052417e-16 0)
(-2.934623753e-16 5.059891084e-16 0)
(-2.861563716e-16 5.050901082e-16 0)
(-2.761335687e-16 4.925366536e-16 0)
(-2.637437401e-16 4.690579863e-16 0)
(-2.493189739e-16 4.359186574e-16 0)
(-2.332612906e-16 3.946583279e-16 0)
(-2.159199115e-16 3.473461072e-16 0)
(-1.97792421e-16 2.964755975e-16 0)
(-1.792738776e-16 2.442864035e-16 0)
(-1.608070354e-16 1.931748889e-16 0)
(-1.42992661e-16 1.454314832e-16 0)
(-1.265508669e-16 1.027975436e-16 0)
(-1.124217817e-16 6.641428582e-17 0)
(-1.01860755e-16 3.648871197e-17 0)
(-9.472080775e-17 1.145353316e-17 0)
(-5.865137359e-17 -1.224700345e-17 0)
(-6.860294344e-17 -4.311196777e-17 0)
(-8.417878254e-17 -8.80519477e-17 0)
(-1.035701194e-16 -1.495720256e-16 0)
(-1.252099382e-16 -2.26646661e-16 0)
(-1.483145523e-16 -3.16990668e-16 0)
(-1.724528056e-16 -4.175878177e-16 0)
(-1.973093807e-16 -5.249379796e-16 0)
(-2.226085504e-16 -6.352628803e-16 0)
(-2.4807204e-16 -7.446247154e-16 0)
(-2.733587363e-16 -8.490981531e-16 0)
(-2.981085689e-16 -9.449233787e-16 0)
(-3.219065878e-16 -1.028706854e-15 0)
(-3.443084596e-16 -1.097485554e-15 0)
(-3.648712138e-16 -1.148829308e-15 0)
(-3.831109419e-16 -1.180958833e-15 0)
(-3.985729928e-16 -1.192873774e-15 0)
(-4.108571795e-16 -1.184423163e-15 0)
(-4.196078023e-16 -1.156111251e-15 0)
(-4.244756144e-16 -1.10912681e-15 0)
(-4.252759518e-16 -1.045423217e-15 0)
(-4.218936952e-16 -9.675604916e-16 0)
(-4.143822961e-16 -8.785951276e-16 0)
(-4.029125528e-16 -7.81887207e-16 0)
(-3.878394268e-16 -6.809594675e-16 0)
(-3.696910463e-16 -5.793317683e-16 0)
(-3.491932548e-16 -4.803218061e-16 0)
(-3.273234884e-16 -3.868656228e-16 0)
(-3.053060266e-16 -3.01266389e-16 0)
(-2.846035517e-16 -2.249496041e-16 0)
(-2.668392837e-16 -1.582242841e-16 0)
(-2.535990139e-16 -1.001167429e-16 0)
(-2.461124066e-16 -4.839857713e-17 0)
(-2.449275392e-16 -2.12307828e-19 0)
(-2.496311686e-16 4.740363973e-17 0)
(-2.591197713e-16 9.678456968e-17 0)
(-2.718607858e-16 1.49121922e-16 0)
(-2.861229286e-16 2.041612467e-16 0)
(-3.004600897e-16 2.60741472e-16 0)
(-3.136704436e-16 3.172817086e-16 0)
(-3.247967779e-16 3.713279873e-16 0)
(-3.330755332e-16 4.204865098e-16 0)
(-3.381841092e-16 4.626658393e-16 0)
(-3.398215363e-16 4.957583657e-16 0)
(-3.379986361e-16 5.182515184e-16 0)
(-3.327353563e-16 5.291018224e-16 0)
(-3.24253818e-16 5.278178793e-16 0)
(-3.128530196e-16 5.145796788e-16 0)
(-2.988556363e-16 4.901288309e-16 0)
(-2.826885646e-16 4.557254499e-16 0)
(-2.648006939e-16 4.130381718e-16 0)
(-2.455497102e-16 3.641732599e-16 0)
(-2.254376213e-16 3.115281994e-16 0)
(-2.05047648e-16 2.57566849e-16 0)
(-1.848178062e-16 2.046839846e-16 0)
(-1.653993035e-16 1.550835007e-16 0)
(-1.476322662e-16 1.105524587e-16 0)
(-1.325069674e-16 7.217375543e-17 0)
(-1.21315292e-16 4.007363406e-17 0)
(-1.135955679e-16 1.266444474e-17 0)
(-6.636381085e-17 -1.310277547e-17 0)
(-7.679138818e-17 -4.563642986e-17 0)
(-9.318636076e-17 -9.218584859e-17 0)
(-1.137907695e-16 -1.554364976e-16 0)
(-1.369299199e-16 -2.34459648e-16 0)
(-1.617449459e-16 -3.269954916e-16 0)
(-1.877503612e-16 -4.300073151e-16 0)
(-2.145999748e-16 -5.399176861e-16 0)
(-2.419830739e-16 -6.528901511e-16 0)
(-2.69588759e-16 -7.649314866e-16 0)
(-2.970520349e-16 -8.719989362e-16 0)
(-3.239763035e-16 -9.70280794e-16 0)
(-3.499258524e-16 -1.056270165e-15 0)
(-3.744100781e-16 -1.126963673e-15 0)
(-3.969324221e-16 -1.179894494e-15 0)
(-4.169841909e-16 -1.213205884e-15 0)
(-4.340811279e-16 -1.225888585e-15 0)
(-4.478005076e-16 -1.217785773e-15 0)
(-4.577201474e-16 -1.189374773e-15 0)
(-4.63495027e-16 -1.141861566e-15 0)
(-4.649223895e-16 -1.077254985e-15 0)
(-4.619052652e-16 -9.981550649e-16 0)
(-4.544990196e-16 -9.076412177e-16 0)
(-4.428920811e-16 -8.091174041e-16 0)
(-4.274830339e-16 -7.061829851e-16 0)
(-4.088267719e-16 -6.023522263e-16 0)
(-3.877393561e-16 -5.009714465e-16 0)
(-3.652755852e-16 -4.049909143e-16 0)
(-3.427333065e-16 -3.166875013e-16 0)
(-3.216350283e-16 -2.374462794e-16 0)
(-3.03632449e-16 -1.675402393e-16 0)
(-2.902969011e-16 -1.059991238e-16 0)
(-2.828094588e-16 -5.067105237e-17 0)
(-2.816790789e-16 1.151339241e-18 0)
(-2.864859041e-16 5.226030897e-17 0)
(-2.961437635e-16 1.048666944e-16 0)
(-3.091094602e-16 1.60102666e-16 0)
(-3.237691284e-16 2.177403796e-16 0)
(-3.3841977e-16 2.765880212e-16 0)
(-3.519351217e-16 3.350979454e-16 0)
(-3.632341413e-16 3.908194254e-16 0)
(-3.715700916e-16 4.41366895e-16 0)
(-3.765491884e-16 4.846325312e-16 0)
(-3.777974072e-16 5.184605089e-16 0)
(-3.753760226e-16 5.413453281e-16 0)
(-3.692619952e-16 5.522468547e-16 0)
(-3.597179507e-16 5.506332988e-16 0)
(-3.470447988e-16 5.367544046e-16 0)
(-3.316105534e-16 5.113393209e-16 0)
(-3.138324681e-16 4.756432186e-16 0)
(-2.942322051e-16 4.314616477e-16 0)
(-2.732424648e-16 3.809745034e-16 0)
(-2.513651435e-16 3.265367386e-16 0)
(-2.292171453e-16 2.70668829e-16 0)
(-2.073785193e-16 2.159070064e-16 0)
(-1.865465462e-16 1.64413066e-16 0)
(-1.675633319e-16 1.179484808e-16 0)
(-1.51522828e-16 7.758785828e-17 0)
(-1.397365062e-16 4.340176561e-17 0)
(-1.314706583e-16 1.377998871e-17 0)
(-7.266455243e-17 -1.382074586e-17 0)
(-8.350985889e-17 -4.780932656e-17 0)
(-1.006145356e-16 -9.589225191e-17 0)
(-1.222367156e-16 -1.608834811e-16 0)
(-1.466321103e-16 -2.419189385e-16 0)
(-1.728856854e-16 -3.367470515e-16 0)
(-2.004678039e-16 -4.422835766e-16 0)
(-2.28995447e-16 -5.548949427e-16 0)
(-2.581580408e-16 -6.706633329e-16 0)
(-2.875977774e-16 -7.854906546e-16 0)
(-3.169321256e-16 -8.952751919e-16 0)
(-3.457305081e-16 -9.961035599e-16 0)
(-3.735289353e-16 -1.084398799e-15 0)
(-3.998276302e-16 -1.157052508e-15 0)
(-4.240667311e-16 -1.211546611e-15 0)
(-4.457175588e-16 -1.246017421e-15 0)
(-4.642655723e-16 -1.259431705e-15 0)
(-4.79267479e-16 -1.251588798e-15 0)
(-4.902412131e-16 -1.222929389e-15 0)
(-4.968669238e-16 -1.174745504e-15 0)
(-4.989007502e-16 -1.109064187e-15 0)
(-4.962756316e-16 -1.028537051e-15 0)
(-4.890205171e-16 -9.362828852e-16 0)
(-4.773772594e-16 -8.357718246e-16 0)
(-4.61741124e-16 -7.306037831e-16 0)
(-4.427222105e-16 -6.243784102e-16 0)
(-4.212002022e-16 -5.205066893e-16 0)
(-3.982781129e-16 -4.219235722e-16 0)
(-3.753191902e-16 -3.309066988e-16 0)
(-3.539010182e-16 -2.488279524e-16 0)
(-3.357016424e-16 -1.75943261e-16 0)
(-3.222968696e-16 -1.112861274e-16 0)
(-3.14837255e-16 -5.275018777e-17 0)
(-3.138046708e-16 2.280608796e-18 0)
(-3.187828809e-16 5.649450056e-17 0)
(-3.286857638e-16 1.120322374e-16 0)
(-3.419527623e-16 1.699475349e-16 0)
(-3.569995577e-16 2.300647863e-16 0)
(-3.720290268e-16 2.911936596e-16 0)
(-3.858808304e-16 3.517183922e-16 0)
(-3.973783089e-16 4.091975684e-16 0)
(-4.0580574e-16 4.612297225e-16 0)
(-4.106958846e-16 5.057149601e-16 0)
(-4.116645954e-16 5.403986826e-16 0)
(-4.087404904e-16 5.637818409e-16 0)
(-4.018881208e-16 5.74819946e-16 0)
(-3.914356305e-16 5.72959505e-16 0)
(-3.776466008e-16 5.584730121e-16 0)
(-3.60961004e-16 5.321398413e-16 0)
(-3.417400504e-16 4.95182304e-16 0)
(-3.20637653e-16 4.494914796e-16 0)
(-2.980876384e-16 3.973362873e-16 0)
(-2.746721982e-16 3.410685504e-16 0)
(-2.509881785e-16 2.832925301e-16 0)
(-2.276714276e-16 2.265738441e-16 0)
(-2.055597186e-16 1.731582375e-16 0)
(-1.854902469e-16 1.24805242e-16 0)
(-1.686192218e-16 8.253892694e-17 0)
(-1.562770634e-16 4.640578792e-17 0)
(-1.475112915e-16 1.477696226e-17 0)
(-7.716581596e-17 -1.437409877e-17 0)
(-8.836335787e-17 -4.956745234e-17 0)
(-1.060594831e-16 -9.905016056e-17 0)
(-1.285089652e-16 -1.657411315e-16 0)
(-1.539132946e-16 -2.488227732e-16 0)
(-1.813214108e-16 -3.460119595e-16 0)
(-2.101558059e-16 -4.541532471e-16 0)
(-2.400264184e-16 -5.695547303e-16 0)
(-2.706141407e-16 -6.882167432e-16 0)
(-3.015340739e-16 -8.0593025e-16 0)
(-3.323876563e-16 -9.184902697e-16 0)
(-3.62721319e-16 -1.021914349e-15 0)
(-3.92040775e-16 -1.112546142e-15 0)
(-4.198131719e-16 -1.187181508e-15 0)
(-4.454958334e-16 -1.243240521e-15 0)
(-4.684716511e-16 -1.278813645e-15 0)
(-4.882527392e-16 -1.292876001e-15 0)
(-5.043214694e-16 -1.28516135e-15 0)
(-5.162059524e-16 -1.256141151e-15 0)
(-5.235640047e-16 -1.207125695e-15 0)
(-5.261575754e-16 -1.140208874e-15 0)
(-5.238872194e-16 -1.058074558e-15 0)
(-5.168015127e-16 -9.638901124e-16 0)
(-5.051536159e-16 -8.611980673e-16 0)
(-4.893525476e-16 -7.536553683e-16 0)
(-4.70070647e-16 -6.449343859e-16 0)
(-4.481996232e-16 -5.384720776e-16 0)
(-4.248998092e-16 -4.372572883e-16 0)
(-4.01589641e-16 -3.435937679e-16 0)
(-3.798923257e-16 -2.588485231e-16 0)
(-3.615199025e-16 -1.832735273e-16 0)
(-3.480388462e-16 -1.158906841e-16 0)
(-3.406179099e-16 -5.461083956e-17 0)
(-3.397159856e-16 3.137904997e-18 0)
(-3.449336869e-16 6.000120304e-17 0)
(-3.551653245e-16 1.180908809e-16 0)
(-3.68843465e-16 1.784237468e-16 0)
(-3.843066122e-16 2.408356166e-16 0)
(-3.998040122e-16 3.041471455e-16 0)
(-4.140800532e-16 3.666957837e-16 0)
(-4.258707743e-16 4.259822287e-16 0)
(-4.344882532e-16 4.795708304e-16 0)
(-4.393678328e-16 5.253374491e-16 0)
(-4.402196668e-16 5.609938443e-16 0)
(-4.368968057e-16 5.850083602e-16 0)
(-4.295415898e-16 5.962994881e-16 0)
(-4.183220679e-16 5.94243315e-16 0)
(-4.036400992e-16 5.79249541e-16 0)
(-3.858805194e-16 5.520616875e-16 0)
(-3.655304283e-16 5.138935606e-16 0)
(-3.431126147e-16 4.666828871e-16 0)
(-3.19245854e-16 4.128492976e-16 0)
(-2.94511962e-16 3.547540046e-16 0)
(-2.694982041e-16 2.951014437e-16 0)
(-2.449607517e-16 2.364679038e-16 0)
(-2.21675681e-16 1.811336712e-16 0)
(-2.006344577e-16 1.309504061e-16 0)
(-1.830078416e-16 8.690564274e-17 0)
(-1.701670681e-16 4.902507805e-17 0)
(-1.609594587e-16 1.563893378e-17 0)
(-2.472933163e-16 -5.836262137e-16 0)
(-2.78908285e-16 -7.052353022e-16 0)
(-3.109053293e-16 -8.258717139e-16 0)
(-3.428834754e-16 -9.41265886e-16 0)
(-3.743664357e-16 -1.047304189e-15 0)
(-4.048350381e-16 -1.140251011e-15 0)
(-4.337449686e-16 -1.216867566e-15 0)
(-4.605006613e-16 -1.274430068e-15 0)
(-4.845111083e-16 -1.311030931e-15 0)
(-5.052542843e-16 -1.325652498e-15 0)
(-5.221585493e-16 -1.317941246e-15 0)
(-5.347680805e-16 -1.288415619e-15 0)
(-5.427116946e-16 -1.238440403e-15 0)
(-5.457539931e-16 -1.170115139e-15 0)
(-5.437737522e-16 -1.086185359e-15 0)
(-5.368503625e-16 -9.89925816e-16 0)
(-5.252077203e-16 -8.849043494e-16 0)
(-5.092847205e-16 -7.748585055e-16 0)
(-4.897762385e-16 -6.635439188e-16 0)
(-4.676045802e-16 -5.544643345e-16 0)
(-4.439741087e-16 -4.50667178e-16 0)
(-4.203411431e-16 -3.544885679e-16 0)
(-3.98367559e-16 -2.67314119e-16 0)
(-3.7979809e-16 -1.893803371e-16 0)
(-3.662331985e-16 -1.197170354e-16 0)
(-3.588642322e-16 -5.622457797e-17 0)
(-3.581175007e-16 3.690310876e-18 0)
(-3.636429461e-16 6.268367791e-17 0)
(-3.742900034e-16 1.22884496e-16 0)
(-3.884712509e-16 1.852999985e-16 0)
(-4.04461908e-16 2.497730562e-16 0)
(-4.205137705e-16 3.151099956e-16 0)
(-4.352841052e-16 3.796133663e-16 0)
(-4.475678384e-16 4.407284328e-16 0)
(-4.564682797e-16 4.959242977e-16 0)
(-4.615018724e-16 5.430534994e-16 0)
(-4.623657221e-16 5.797915551e-16 0)
(-4.588388034e-16 6.045085059e-16 0)
(-4.511903113e-16 6.161350314e-16 0)
(-4.394549121e-16 6.140534116e-16 0)
(-4.241057683e-16 5.986278609e-16 0)
(-4.0553544e-16 5.705907843e-16 0)
(-3.843238586e-16 5.313029125e-16 0)
(-3.609180446e-16 4.827068792e-16 0)
(-3.359574374e-16 4.271800222e-16 0)
(-3.101592606e-16 3.673199667e-16 0)
(-2.840387905e-16 3.057873152e-16 0)
(-2.584926217e-16 2.45295669e-16 0)
(-2.342553196e-16 1.881755427e-16 0)
(-2.123585962e-16 1.362635588e-16 0)
(-1.940537152e-16 9.059775666e-17 0)
(-1.80747932e-16 5.119458612e-17 0)
(-1.711697633e-16 1.63450451e-17 0)
(-3.801999683e-16 -1.071883681e-15 0)
(-4.114138547e-16 -1.167136615e-15 0)
(-4.410593535e-16 -1.245636066e-15 0)
(-4.685273609e-16 -1.304643017e-15 0)
(-4.932433513e-16 -1.342232669e-15 0)
(-5.146198785e-16 -1.357267215e-15 0)
(-5.321038294e-16 -1.349427075e-15 0)
(-5.452254942e-16 -1.319265369e-15 0)
(-5.535866739e-16 -1.26815735e-15 0)
(-5.569513264e-16 -1.19827938e-15 0)
(-5.552019692e-16 -1.112439423e-15 0)