/*--------------------------------*- C++ -*----------------------------------*\
  =========                 |
  \\      /  F ield         | OpenFOAM: The Open Source CFD Toolbox
   \\    /   O peration     | Website:  https://openfoam.org
    \\  /    A nd           | Version:  8
     \\/     M anipulation  |
\*---------------------------------------------------------------------------*/
FoamFile
{
    version     2.0;
    format      ascii;
    class       scalarField;
    location    "1.5/lagrangian/reactingCloud1";
    object      d;
}
// * * * * * * * * * * * * * * * * * * * * * * * * * * * * * * * * * * * * * //


157
(
0.0005043117178
0.0006688694871
0.0005182589234
0.0005740797728
0.0007293917849
0.0005397353759
0.0007822030247
0.0005878973422
0.0007171896866
0.000954229075
0.0005855515813
0.0007679899748
0.001065416873
0.00066744814
0.0006098042108
0.0005374039885
0.0007471769172
0.001131238929
0.000512611143
0.0005746543661
0.00076604103
0.0006583222286
0.001119106727
0.00076212909
0.0007845131375
0.0006815852385
0.0009078294201
0.0007214575785
0.0005086737973
0.001098874839
0.0005841985696
0.0005061437155
0.0005937606088
0.0008115389769
0.0009209654153
0.0005978609499
0.000841058745
0.0005494724311
0.0005334158986
0.0006658782366
0.0005862508271
0.0006553241765
0.0006757702343
0.00066744814
0.0005945488598
0.001021476516
0.0005606228368
0.0005040438855
0.0006403399819
0.0008391093154
0.0008154134522
0.0005281167807
0.0006174105247
0.0005769933958
0.0007642676673
0.0007681590935
0.0006554687239
0.000753159044
0.0005187261317
0.000879745235
0.001150381926
0.0007118141369
0.0008329314519
0.0006656650176
0.0006646843439
0.0007182885077
0.0009779829484
0.0005106612261
0.0007847799683
0.0007726005037
0.000688381251
0.0005355421348
0.0006018405429
0.0005477227135
0.0006199344071
0.0008255110953
0.001103781694
0.00052234376
0.00102072284
0.000793884029
0.0008583642832
0.0006454502751
0.0008757579925
0.0005380312029
0.001004132008
0.0007125543116
0.0006512981345
0.0007085103922
0.0005541507973
0.0009714396082
0.0006897177085
0.0009965955933
0.0009930354922
0.0006136782486
0.0007131500889
0.000590152026
0.000964844036
0.0010970688
0.0009005309842
0.0005789412234
0.0007431155275
0.0006473781666
0.0009331211369
0.00060182757
0.0008702973353
0.0005574192115
0.0006098042108
0.0009911550274
0.0007681780194
0.001186826396
0.0005551891586
0.0007364748666
0.0006395471085
0.0005687818606
0.0005061637935
0.0008304222102
0.0005630877075
0.0005529096138
0.0006831092983
0.0005258269392
0.0008368221902
0.0006444389549
0.0006522207586
0.0005145827633
0.0006289133668
0.0005644568626
0.0007181968579
0.0009095911106
0.0009685415935
0.0006908808263
0.0007309851149
0.0006890675224
0.0009519389237
0.001048705356
0.0005469399492
0.001148252512
0.0006175229682
0.0007174277373
0.0005816662695
0.0006977553391
0.0007643397694
0.0007215896994
0.0006701062705
0.0006359524601
0.0007591865787
0.0005957965509
0.0007359386349
0.0009715060132
0.0007288097101
0.0006063195588
0.0008968570718
0.0009008622239
0.0005272422973
0.0006165239516
0.0005602274757
0.000741942245
0.0005341841571
)


// ************************************************************************* //
