/*--------------------------------*- C++ -*----------------------------------*\
  =========                 |
  \\      /  F ield         | OpenFOAM: The Open Source CFD Toolbox
   \\    /   O peration     | Website:  https://openfoam.org
    \\  /    A nd           | Version:  8
     \\/     M anipulation  |
\*---------------------------------------------------------------------------*/
FoamFile
{
    version     2.0;
    format      ascii;
    class       vectorField;
    location    "1.5/lagrangian/reactingCloud1";
    object      U;
}
// * * * * * * * * * * * * * * * * * * * * * * * * * * * * * * * * * * * * * //


157
(
(-0.1845637576 0.02881426853 -1.891877789)
(-0.02006165689 -0.2036077151 -2.191096444)
(0.02047642655 -0.06975713661 -1.994824979)
(-0.2204290124 0.06325877687 -1.929452303)
(-0.1600040517 0.08002628402 -2.139302787)
(0.0301688521 -0.1350134383 -1.992890881)
(-0.1708855809 -0.2501289702 -2.300967074)
(0.07728609386 -0.06887803756 -1.978197393)
(-0.2209716834 0.05123579808 -2.043299511)
(0.01058272202 -0.09017214544 -2.164080213)
(-0.5434601292 -0.001384656821 -1.730560445)
(0.08254801237 0.009680973237 -1.94221289)
(0.1339359688 -0.02162890356 -1.959974311)
(-0.2195691661 0.03715771742 -1.834407558)
(-0.9092192025 -0.3495236343 -3.151746148)
(0.1086406399 0.01881773641 -1.769570553)
(0.08575672166 -0.06377335869 -1.834664182)
(0.1716856139 -0.1460580186 -1.90854046)
(0.1579960749 -0.006659757618 -1.632028779)
(-0.2124568853 0.03436858988 -1.758144804)
(0.1176591139 -0.02856804894 -1.836469887)
(0.08486976983 -0.09130779693 -1.74373031)
(0.1600601132 -0.2430343111 -1.849562168)
(0.1763215914 -0.06567224124 -1.773184312)
(0.008177874683 -0.02992567297 -1.777806267)
(0.03830280502 -0.05228435039 -1.743917869)
(0.1802923635 -0.2009011609 -1.777346333)
(0.1840731911 -0.1762017835 -1.726635551)
(0.1762246581 -0.1351716228 -1.627857165)
(0.007137233206 -0.1593773677 -1.766971055)
(-0.02659384981 -0.07127416295 -1.641004214)
(0.01714421872 -0.1760192975 -1.603404079)
(0.01225843705 -0.2107377638 -1.623431386)
(-0.4235166189 -0.07616633429 -1.719416465)
(-0.5476718822 -0.8534504214 -3.184260026)
(-0.02514968466 -0.07472132343 -1.575508367)
(0.09252193114 -0.1266872281 -1.607301332)
(-0.02071997399 -0.08180002023 -1.499990727)
(-0.05142166347 0.1169654571 -1.557004969)
(-0.4158159675 -0.9134064754 -3.051315665)
(0.1114493696 -0.13273831 -1.482066775)
(-0.1707287589 0.08049219012 -1.476877185)
(-0.009836372638 -0.08605161939 -1.470326655)
(0.08024866457 -0.104509074 -1.441632151)
(-1.11273023 -0.1898302599 -2.763470629)
(-1.12829646 -0.01167961582 -2.975339142)
(-1.186275581 -0.00978850765 -2.738794289)
(-0.1519272263 0.07890973419 -1.363821335)
(0.0008714230462 -0.09941199189 -1.336596463)
(-0.2434606631 -0.925551479 -3.176413435)
(0.1040490967 0.02743316327 -1.300748941)
(0.005689647926 -0.1012521169 -1.234781853)
(-1.150474277 -0.2236903845 -2.733517725)
(1.432434814 0.02256555361 -1.069967232)
(0.07074020862 -0.1254675387 -1.247972078)
(0.134416114 -0.233550919 -1.251583395)
(0.1789465327 -0.1330659798 -1.197309969)
(0.1177263206 -0.1213765143 -1.197503659)
(0.1802154653 -0.1006034697 -1.153603106)
(-1.013266304 -0.0803105145 -2.884758804)
(-0.799594096 -0.485771102 -2.978637076)
(-1.10224595 -0.248398539 -2.707820251)
(0.1865276074 -0.07749729736 -1.138104832)
(-0.1748898741 0.04696330185 -1.100394303)
(0.02224297173 -0.09551600344 -1.082689393)
(0.09417316716 -0.1371943603 -1.088411753)
(0.1836898558 -0.03522345305 -1.048874811)
(0.06525204895 -0.1417191228 -0.9670194041)
(0.002203190835 -0.04375414132 -0.9919579859)
(-0.149704312 -0.1653948447 -1.996092614)
(0.1858722757 -0.01391567226 -1.008696083)
(-0.1528408303 0.008967751218 -0.9624627862)
(0.184701497 -0.01280654844 -0.9863054149)
(0.1835218395 -0.0140199261 -0.9682367909)
(-0.5210067502 -0.771223184 -2.789192565)
(0.1845459271 -0.02404794368 -0.931015971)
(0.05750557741 0.09532041982 -0.9186786592)
(-4.113642684e-05 -0.1156747692 -0.8961833099)
(-0.7138602887 -0.5468598924 -2.797496769)
(-0.2988178707 -0.6573589736 -3.10371216)
(0.1922078835 -0.04598217708 -0.8714060138)
(0.1871859042 -0.08621647805 -0.8336140105)
(-0.0009703940588 -0.1639149552 -0.8349666708)
(-0.247946587 0.05182980439 -0.7823457868)
(0.1277578397 0.04117876406 -0.8098777521)
(0.1874598129 -0.1395178099 -0.791871029)
(-0.009170174245 -0.1655578141 -0.8097669093)
(0.01615019414 -0.1986088433 -0.8071559644)
(-0.3186686413 0.02422918026 -0.759248131)
(-0.6288236633 -0.7661853109 -1.276780717)
(0.1442355782 0.1028802921 -0.7310966528)
(0.7484734061 -0.06954452127 -0.7579926464)
(-0.05049758707 -0.1025150167 -0.7043241683)
(-0.1131425282 -0.04349465869 -0.6578920967)
(0.1470339514 0.1007777489 -0.6685712827)
(-0.111104105 -0.04905247018 -0.630133835)
(0.1362149067 0.1423991397 -0.6124680336)
(0.027627478 0.1278876524 -0.6132811673)
(0.1961442015 -0.2687327116 -0.5989666186)
(-0.07528757042 -0.2778743239 -0.5904238619)
(0.1892837993 -0.2847308985 -0.511019812)
(0.2698101355 0.02100102215 -0.5109197233)
(-0.08124048288 0.01486071122 -0.5149224884)
(-0.4484000755 -0.4203484877 -1.159657333)
(-0.1262414844 0.01196556731 -0.4913044918)
(0.1216705112 0.03138847434 -0.4766772784)
(-0.5259053308 -0.3268292513 -1.079340971)
(0.1475952328 0.06430417327 -0.4538180284)
(-0.5583324358 -0.5151734683 -1.111331811)
(-0.05868383877 0.1520426039 -0.4507097062)
(-0.1155393166 -0.006609910264 -0.4337459253)
(-0.5459627786 -0.5424520893 -1.104148304)
(0.2198409376 0.01989597115 -0.4222323814)
(-0.09734211177 -0.1871382088 -0.4114519705)
(-0.0795727289 -0.2829407477 -0.3974900108)
(-0.5404451093 -0.5752999593 -1.084999203)
(0.1558430446 -0.1913622328 -0.3726046779)
(-0.07813240396 -0.2873010712 -0.380047178)
(0.1485984627 0.01185959919 -0.3640149374)
(-0.07876783174 -0.2787224304 -0.364120429)
(-0.5169849311 -0.6009103394 -1.069224223)
(-0.500280179 -0.5934928046 -1.067845647)
(-0.51534605 -1.132308087 -1.999658613)
(-0.06330271532 -0.5658573587 -2.693168496)
(0.01502032094 -0.3321325544 -0.9577115193)
(-0.4539764973 0.1139131146 -0.2971690823)
(0.009635565524 -0.3326960367 -0.951947122)
(-2.06472581 0.03026860646 -0.2585648561)
(-0.6052088941 -0.3144059299 -0.8371490572)
(-1.945425671 0.0311207793 -0.2476613558)
(-0.3024341748 -0.7213966822 -2.494851893)
(-1.144066735 0.1059492319 -0.2034839159)
(0.002363154715 -0.7045076006 -0.6427164687)
(0.1134016422 0.02612405203 -0.1731076671)
(0.004581096812 -0.6726387802 -0.5562260432)
(-0.4619734978 -0.6710438204 -0.9765713915)
(-0.401403507 -0.6825139462 -1.039508587)
(-0.4042464365 -1.202235555 -2.002468636)
(0.1376717814 -0.1683052666 -0.1278798905)
(0.002414973596 -0.6752172219 -0.5450612395)
(-0.3921721197 -0.7072183727 -1.043207577)
(-0.03550317207 -0.1594672077 -0.1007146997)
(-0.4299865126 -0.5765219199 -0.9639698152)
(0.002510806468 -0.6519102716 -0.5305567058)
(-0.9992779688 0.5859805772 -1.766399255)
(0.1529385657 -0.1982246254 -0.08149322413)
(-1.471155328 -0.002730987835 -0.06679089142)
(0.00565159013 -0.2565218014 -1.033087622)
(-0.847967351 -0.005703347624 -2.006671752)
(-0.09818734996 0.04577336729 -0.03978538988)
(-0.1484227916 0.00203673898 -0.03855683601)
(-0.3180603822 0.05973258099 -0.03744703358)
(-0.3697136433 0.02111178501 -0.02302136967)
(-0.05289311582 -0.2502907039 -0.01516538215)
(-0.4806933104 0.1638574167 -0.01349004037)
(-0.2719674657 -0.2419881865 -0.9247152247)
(0.007751269239 -0.146205729 -0.004353850021)
)


// ************************************************************************* //
