/*--------------------------------*- C++ -*----------------------------------*\
  =========                 |
  \\      /  F ield         | OpenFOAM: The Open Source CFD Toolbox
   \\    /   O peration     | Website:  https://openfoam.org
    \\  /    A nd           | Version:  8
     \\/     M anipulation  |
\*---------------------------------------------------------------------------*/
FoamFile
{
    version     2.0;
    format      ascii;
    class       volScalarField;
    location    "2";
    object      htcConv;
}
// * * * * * * * * * * * * * * * * * * * * * * * * * * * * * * * * * * * * * //

dimensions      [1 0 -1 1 0 0 0];

internalField   uniform 0;

boundaryField
{
    walls
    {
        type            calculated;
        value           uniform 0;
    }
    region0_to_wallFilmRegion_wallFilmFace
    {
        type            convectiveHeatTransfer;
        L               1;
        value           nonuniform List<scalar> 
822
(
2.804380944
2.823916754
2.812028867
2.817145752
2.851458203
2.922121668
2.954321479
2.959469812
2.927399458
2.953664135
2.953437565
3.11512666
3.223745478
3.270741818
3.551201195
3.617151459
3.427140259
3.362037042
3.517136608
2.820833461
5.348554592
4.638195557
4.111860526
3.62258017
3.324402183
3.101510639
2.845022979
2.599099676
2.368503006
1.963139617
1.638092972
2.740103975
2.795998585
2.793014966
2.825872739
2.87690234
2.886788672
2.900800161
2.772108018
2.864932937
2.67668571
2.978142585
3.12479104
3.20461082
3.437124131
3.361695855
2.550587975
2.431939946
2.415654274
2.709776754
3.88265851
4.105281803
4.117932024
3.856232058
3.46650138
3.12286981
2.819846314
2.568695582
2.348104914
1.96126775
1.640352801
2.66191161
2.746330112
2.747741026
2.785474194
2.831391886
2.810647038
2.93059492
2.816670697
2.895828399
2.809450786
2.938476045
3.098707783
3.213085678
3.384040513
3.194061603
2.634886464
2.732522291
2.746327586
3.306179417
3.942769527
4.161375787
4.083063112
3.748796627
3.330744641
2.977119901
2.717672405
2.51876414
2.337180144
1.990111631
1.660403826
2.515822915
2.660658644
2.679030596
2.729018448
2.790561287
2.719687155
2.837173366
2.973900917
2.903595387
3.062675017
2.982877641
3.10635698
3.236094433
3.368916892
3.172406323
3.067513956
3.173352726
3.292306568
3.637669643
4.025441361
4.097826029
3.888803362
3.489089119
3.102545261
2.829860531
2.654335448
2.505870497
2.355780991
2.06402388
1.819035799
2.148299764
2.50381384
2.564261607
2.629841104
2.721747702
2.766099535
2.792541156
2.846655228
2.810907344
2.856582921
2.893299827
3.036771155
3.183963997
3.324353162
3.198897194
3.297443796
3.444508227
3.591842468
3.807592452
3.999539582
3.930139163
3.618907276
3.237070186
2.9543839
2.800719165
2.696425695
2.577375838
2.441891754
2.199372083
2.037076589
2.058660249
2.026908455
2.187569245
2.356441285
2.491265025
2.600238554
2.672459717
2.69070797
2.684682501
2.601460542
2.53895756
2.665913186
2.829353899
3.000322957
3.153240709
3.117901214
3.371896297
3.558863153
3.686364897
3.802737303
3.83563516
3.661489686
3.337197837
3.04985013
2.906811604
2.847726443
2.791388946
2.694232216
2.570061627
2.367230143
2.262075129
2.203617022
2.147346033
1.991762137
2.224969875
2.37643825
2.480003511
2.547399447
2.564563028
2.517452081
2.338493781
2.064837909
2.255580698
2.464085784
2.656928089
2.841989769
2.843539576
3.282445555
3.515323594
3.594440093
3.619856541
3.565274868
3.356868809
3.102135686
2.955307475
2.917513365
2.913049372
2.887220603
2.808961737
2.695969764
2.523720612
2.457465275
2.27524037
2.152506154
1.933640221
2.153945487
2.226163205
2.292877581
2.332325428
2.334424682
2.280484336
2.11544858
1.853788153
1.657247854
1.822281425
2.085691919
2.393773408
2.404382977
2.943001275
3.250799984
3.32919323
3.332103196
3.239131437
3.065886832
2.942077347
2.912650437
2.935612445
2.960804428
2.953616871
2.887269906
2.785141053
2.638934086
2.605681296
2.226411561
2.041422301
1.875126027
2.016806804
2.018575609
2.071493627
2.105668927
2.099404486
2.019416419
1.79267069
1.368677501
0.6123762023
1.151674072
1.586756455
1.951518767
2.116135198
2.491407117
2.853407086
2.987256412
3.004226412
2.910798889
2.814589495
2.813408036
2.866917523
2.926644399
2.967799814
2.964697289
2.903901187
2.816919088
2.697804356
2.699863312
2.056127027
1.906068151
1.864930074
1.917782402
1.915013176
1.98824187
2.053979068
2.061464986
1.968063641
1.7426534
1.401304046
1.346481357
1.591461514
1.886798161
2.132352138
2.285293879
2.410399401
2.633208875
2.759118596
2.77995165
2.699758822
2.625650686
2.665834799
2.763983391
2.846721244
2.891205205
2.89053864
2.841846265
2.778651237
2.692634845
2.737640172
1.899239469
1.81568267
1.818657352
1.863905436
1.908594178
2.055013967
2.155115205
2.162885005
2.071922537
1.878262027
1.643542314
1.608884416
1.810579219
2.100286857
2.349151511
2.521041881
2.64502733
2.7557552
2.81833377
2.814072857
2.736495676
2.615662109
2.561022242
2.61074416
2.680093351
2.718880104
2.721418911
2.690268048
2.661724217
2.618913944
2.717171698
1.863990337
1.846572462
1.850093074
1.849028333
1.734003244
1.940461514
2.208599573
2.247958997
2.186169579
2.032660489
1.852225718
1.803156632
1.958100982
2.214693352
2.467799822
2.668888495
2.815777407
2.917754038
2.975319032
2.975191949
2.909196702
2.778353978
2.63174705
2.548692383
2.526006649
2.515579932
2.498143802
2.471693625
2.473565807
2.475703346
2.633978003
1.822254109
1.823576347
1.853017842
1.888190411
1.93393294
2.137681891
2.311794081
2.343347185
2.297143604
2.181054834
2.044781071
2.000737089
2.107437886
2.31835267
2.558251305
2.764258859
2.921199414
3.028925151
3.087503898
3.096189036
3.051226683
2.938882915
2.778010071
2.618441362
2.497291141
2.412333572
2.351548209
2.303239553
2.297338745
2.305093865
2.495144159
1.789037019
1.75673028
1.783538023
1.878534058
1.992943468
2.174972997
2.345286862
2.400462009
2.387184639
2.315708367
2.22779089
2.207755871
2.291673985
2.457220435
2.665164413
2.856458441
3.009313541
3.117027786
3.177324075
3.189191414
3.150588537
3.053241176
2.89837188
2.717636022
2.551138023
2.423795565
2.337454627
2.272955979
2.239127432
2.199682403
2.34441118
1.709251478
1.619040517
1.580641171
1.686320686
1.907166376
2.148950915
2.347067663
2.433729942
2.455875005
2.428130105
2.386777612
2.395662502
2.476244022
2.612224747
2.789065361
2.958903431
3.099380367
3.200860586
3.258909207
3.270926221
3.233852145
3.142519958
2.991323489
2.803829197
2.619726494
2.476084587
2.383274171
2.31923695
2.277706826
2.198667255
2.252852481
1.602392845
1.470135354
1.342058311
1.414593937
1.732650043
2.073589501
2.32025301
2.448314962
2.499940401
2.50759527
2.506785652
2.545164513
2.635652195
2.759664789
2.914141886
3.063510373
3.18902331
3.280884289
3.333544785
3.343179469
3.30575211
3.21589678
3.066627318
2.877755758
2.68766132
2.538202351
2.444389462
2.384276489
2.346879635
2.256077865
2.247915167
1.280398393
1.069098149
1.08110354
1.541439333
1.994184591
2.287332339
2.452413558
2.515174259
2.54120709
2.573730673
2.644323182
2.75436067
2.880478952
3.02276432
3.156794275
3.26886584
3.350599394
3.396375112
3.401792655
3.362470415
3.271812452
3.124446651
2.938612785
2.750008224
2.600473072
2.507078352
2.449169231
2.415884288
2.325818346
2.296964569
1.100952616
0.6516698105
0.6991106517
1.401353801
1.916157108
2.247500638
2.43385504
2.494802125
2.510204814
2.570420445
2.684308193
2.823876599
2.963445182
3.102592015
3.227068211
3.328706672
3.401407017
3.440134465
3.440422436
3.398152646
3.304147097
3.15909121
2.97943429
2.797436031
2.652069601
2.560658284
2.503995057
2.471317833
2.384676981
2.359816998
1.068586757
1.064811049
0.8536065139
1.357615459
1.847898885
2.18275419
2.369085134
2.40013572
2.374596724
2.473523854
2.661116773
2.842374187
3.004468846
3.147180117
3.266634784
3.360649893
3.425840958
3.458040492
3.453131083
3.405339256
3.307167966
3.164335931
2.992206459
2.819634567
2.680906779
2.592315721
2.536103291
2.502429959
2.419028695
2.41020126
1.433634311
1.602126746
1.401200176
1.462757652
1.708456063
2.010603411
2.184902398
2.155387234
2.072298266
2.250545269
2.577768022
2.815420962
3.005652892
3.154958632
3.27148601
3.359452419
3.418328802
3.444924163
3.434639316
3.378634795
3.277089716
3.136292818
2.971527513
2.808698541
2.677325532
2.59144729
2.534395896
2.498687566
2.417777248
2.431803958
2.06502872
2.204400088
1.762908225
1.600434647
1.622447837
1.839455276
2.065349847
2.082828552
2.054729727
2.165770423
2.497131972
2.772944967
2.979609183
3.130131242
3.241263546
3.322382028
3.375344232
3.396682134
3.378634605
3.317824997
3.214760928
3.076216482
2.91723608
2.762027792
2.636153879
2.551073313
2.490865998
2.451004748
2.370804939
2.412079653
2.860424276
3.137019836
2.691526891
2.109776676
1.540049836
1.722349323
2.060808843
2.189571712
2.26408749
2.336515687
2.550037407
2.776124519
2.955591529
3.086050389
3.181168568
3.250944627
3.295798012
3.310637111
3.289851132
3.229247988
3.128723382
2.994139394
2.839684691
2.688076776
2.562173599
2.472132633
2.40298859
2.353166402
2.268091956
2.337594717
3.065368039
3.507244982
3.229843493
2.809795256
1.934763754
1.759119115
2.095604817
2.295026664
2.44533489
2.532656147
2.675919638
2.823990727
2.943996614
3.031963629
3.098501131
3.150030294
3.185558105
3.198725928
3.18166581
3.128481753
3.037263033
2.911554566
2.763034747
2.611520803
2.477871835
2.372797461
2.283753455
2.211661422
2.107651809
2.196347862
2.98018771
3.602294255
3.291659893
2.774289772
2.141907411
1.862363237
2.078623992
2.327498536
2.545601946
2.64333865
2.752239405
2.844553604
2.909993566
2.952748361
2.987941934
3.023871939
3.056540416
3.075612224
3.070117087
3.031928273
2.956895173
2.845882869
2.707005505
2.556176911
2.411640147
2.284296048
2.164407124
2.05400483
1.907022325
1.985305731
2.664022135
3.480057775
3.12633032
2.572946019
2.09472922
1.830470035
1.958343413
2.27811152
2.552956884
2.650126661
2.733542291
2.787819005
2.810893061
2.824918239
2.848259792
2.886146441
2.929828761
2.964797362
2.977824016
2.959747117
2.905555251
2.81449427
2.691727329
2.549004082
2.400494417
2.255148771
2.10474094
1.948617726
1.738997249
1.750396626
2.071305418
2.921458572
2.701167272
2.35451508
1.929366836
1.635188023
1.695870703
1.934350745
2.292997809
2.384076451
2.440931303
2.490282372
2.519559974
2.553951584
2.611780954
2.689555921
2.770994937
2.839098405
2.881492967
2.890882636
2.863408099
2.798288594
2.698920831
2.57286209
2.429251809
2.274043042
2.10023629
1.902898295
1.630912437
1.529336256
1.732241255
2.315230545
2.562796478
2.39748654
2.06339157
1.66900125
1.762604409
1.963176062
2.015852052
2.067439164
2.136878474
2.197322002
2.250470936
2.335645338
2.451601509
2.578793017
2.697774269
2.794368017
2.860022409
2.890170592
2.882777758
2.83792689
2.757494345
2.645499869
2.50867167
2.354875691
2.182316757
1.977671691
1.652228944
1.384235152
)
;
    }
    region0_to_wallFilmRegion_mirrorFace
    {
        type            convectiveHeatTransfer;
        L               1;
        value           nonuniform List<scalar> 
558
(
4.10430867
3.601839298
3.340168519
3.335167813
3.164429309
3.608044607
4.285767687
3.983545373
3.782100816
3.976720817
4.265517489
3.963512141
3.708127464
3.621974412
3.498123817
3.757077484
4.837375385
4.520536206
4.289170735
4.150463573
4.161410558
3.961462244
3.790579119
4.035865135
4.998114308
4.77058318
4.524013646
5.073180023
3.892887143
3.942248406
4.366358465
4.066194052
4.203090438
4.155200138
4.086056451
4.113568777
3.910697517
3.97955693
4.065250512
4.143530112
4.053401831
3.488370864
3.760109005
3.623202787
3.376053721
3.499777339
3.486208799
2.385328935
2.372534362
2.363537157
2.281191116
2.259450741
2.099994546
2.364367583
2.34057475
2.348850505
2.337632799
2.343212922
2.293309158
1.96706764
2.092582703
1.768718839
1.809880012
1.315012863
1.469507631
2.260309645
1.818382013
2.267475796
1.931485356
2.229018491
1.993952333
2.075311622
2.289002953
2.165536406
2.120797829
2.094680152
1.886377241
2.084825533
1.49246954
2.636691517
2.562292976
1.75145701
2.414322062
2.029015521
2.229760426
1.896105869
2.496057595
1.803885935
1.58911149
1.700026683
1.958424268
1.804370724
1.90290898
2.13084355
2.002038133
2.090253509
2.071204157
2.152906072
2.22523802
1.795822014
2.227941956
2.089551352
1.659385736
1.695594959
1.607554882
2.144150909
1.776457325
1.198715555
1.957448137
1.91493399
1.476037768
1.328247903
1.089006903
1.255286842
1.627812901
1.441351266
1.608150503
1.871616517
1.751687979
1.874727131
2.058024165
1.980616021
2.070409652
2.176095895
2.140245038
2.185744759
2.1786042
2.213514884
2.212641938
1.880077996
2.164484859
2.093848197
1.728076817
2.051125273
1.796261854
2.110632561
2.01481138
2.023736636
1.337005033
1.419663438
1.511629049
1.661948954
1.636964409
1.768308411
1.922616216
1.893082999
2.005129968
2.111029122
2.101486685
2.181333722
2.226773577
2.244826951
2.290849843
2.24627416
2.311734761
2.298873615
2.113293228
2.250537558
2.165587522
1.543336058
1.941477746
1.063486193
1.709516067
1.842983317
1.875862069
1.901363002
1.935928379
2.019006181
2.110133551
2.117565558
2.213840034
2.269128704
2.2944154
2.358188486
2.366948111
2.406720497
2.442174575
2.385602431
2.466826441
2.479604265
2.406743794
2.499060046
2.744373845
2.245088588
2.826502428
3.745330206
2.006102325
1.940848055
1.911036515
2.087713939
1.917021644
2.016519443
2.301482999
2.194516463
2.333473127
2.449482476
2.406728038
2.453285897
2.52889564
2.485029941
2.506151354
2.517954358
2.511121896
2.451709791
4.201314871
4.347138881
5.621468403
2.350770547
2.51564472
3.499258575
3.579686918
2.357906802
2.360394554
2.219190331
1.678162311
2.01605058
4.2509687
3.629054854
2.144212885
2.306505038
2.267326467
1.48369539
1.792739121
1.814411486
2.308364894
1.724708247
1.881107302
2.041026606
2.139240576
1.826972523
1.757065858
1.970862922
2.512085119
1.209100281
1.481696431
1.757496652
1.971964358
2.125301553
2.301350303
2.070382188
1.740294811
2.122191053
1.196597314
1.504280407
1.801670103
2.025504332
2.179206371
2.252347929
2.199257894
1.938064575
1.878280655
1.652139964
1.797728558
2.00905723
2.197455501
2.325395807
2.389597047
2.370907741
2.308059348
3.211902924
2.004385893
2.027635916
2.191828847
2.386980212
2.496007965
2.548782926
2.668797751
3.444711682
2.17512669
1.94767121
2.060611736
2.401736426
2.542105044
2.49564672
3.761780594
2.659720074
4.322178887
3.729363883
3.958505869
3.682338871
3.683837623
3.710809376
4.305939371
4.255961952
4.239959962
3.944833973
4.945242579
4.827291241
4.721541181
4.64379496
4.282562921
4.085960247
4.08164987
4.133376171
4.649053898
4.409617547
4.357485137
4.270660327
1.811743976
2.779509461
3.429984516
3.844511642
2.574628959
3.107126454
3.576439507
3.893683937
3.270408204
3.510790763
3.791838567
3.973902283
3.379134392
1.643305803
1.929959929
2.468926394
3.451378289
2.626668896
4.267719788
4.056349449
3.672625326
2.384013408
3.793619602
2.633994626
4.161148511
3.962319502
2.465960665
2.242795375
3.280022244
2.959750847
2.718469471
3.460838755
3.436772224
3.070212375
3.254144869
4.227722953
3.297421701
2.781239167
2.81758661
3.373237632
2.525710708
3.281983823
3.91336366
3.125919566
3.269708124
3.312893019
3.642135384
2.095989613
2.244914729
2.540265685
1.911203584
2.770320882
2.701333527
4.396416875
4.679533413
2.265148297
2.183566905
1.923626147
4.112465985
4.571478792
4.390060819
2.475781115
2.001506262
1.848445782
3.90667297
4.235775591
4.126933879
2.583441142
1.829615829
2.261479134
3.883962565
4.041976573
4.022356127
3.645114105
2.243633542
3.347687175
3.676768596
4.038030815
3.503099619
3.815782682
4.140731179
4.338989017
4.362323048
4.258795185
3.830014791
4.107565154
3.992624776
3.662359774
3.870297818
3.793273889
3.581672016
3.35355885
3.744088455
3.677340918
3.443889396
3.473248167
3.566693274
3.570695424
3.643958808
3.711837119
3.640894035
4.68018503
4.982572083
4.856167489
4.390649919
4.708649424
4.572546611
4.215642746
4.454795213
4.331499418
3.900435186
4.033437862
4.113750091
3.931356197
4.081318191
4.674636787
4.439906782
4.296006149
4.604437646
4.329655386
4.040664168
4.079784721
4.102871508
4.096290967
3.849497174
3.779095445
3.990981956
4.007868652
3.640660565
3.808159002
3.817812607
3.721966668
3.774451128
3.859052766
3.985445701
3.870658065
4.023593213
3.902676695
3.954623508
4.874827761
4.898662062
4.940322332
4.779076822
4.64059141
4.672452365
4.268775984
4.57425874
4.529271594
4.259494286
4.393898568
4.3024496
4.23422965
6.407033539
5.089676268
4.448465963
4.481210097
4.183746413
4.142025914
4.071736953
4.139727132
4.018475462
4.10827383
3.989653858
3.839942429
3.960594741
3.975727356
4.097499561
3.960251216
3.983293488
4.797884899
4.770592438
4.602838441
4.56124388
4.581785013
4.508972286
4.166871291
4.26580097
4.273697287
4.462764636
4.133188301
4.079272101
4.281246052
4.900369731
4.737851291
4.657711236
4.52944965
4.498046652
4.646176982
4.30574157
4.246912516
4.175099494
4.195837825
4.163624015
4.138607758
4.112309005
4.139786972
4.132335309
4.126910715
4.141566311
4.127283952
4.127172055
3.945516043
4.428541779
4.200416474
4.425425362
4.207778594
4.210290998
4.212554981
4.361426018
4.208899624
4.203907169
4.20282776
4.225507789
4.25336869
4.140200425
4.125224628
4.168025875
4.634597998
4.388541249
4.440505392
4.326750725
2.064072645
2.209174331
2.522712163
3.201412051
2.952184891
3.242945454
3.630540826
3.471897604
3.674282206
3.997494216
3.850187475
3.968721389
4.104697585
2.826414555
2.914846369
3.094629966
3.354176741
3.292670438
3.492121916
3.760071888
3.68332816
3.83437637
3.962524895
3.937244638
3.965784873
4.082447441
4.051078494
3.382751797
3.61651642
3.673235468
3.65064519
3.740064153
3.818686205
4.018813592
3.910695611
3.899494533
3.960286873
4.047437876
4.127039768
)
;
    }
    procBoundary1to0
    {
        type            processor;
        value           uniform 0;
    }
    procBoundary1to2
    {
        type            processor;
        value           uniform 0;
    }
    procBoundary1to3
    {
        type            processor;
        value           uniform 0;
    }
}


// ************************************************************************* //
