/*--------------------------------*- C++ -*----------------------------------*\
  =========                 |
  \\      /  F ield         | OpenFOAM: The Open Source CFD Toolbox
   \\    /   O peration     | Website:  https://openfoam.org
    \\  /    A nd           | Version:  8
     \\/     M anipulation  |
\*---------------------------------------------------------------------------*/
FoamFile
{
    version     2.0;
    format      ascii;
    class       volScalarField;
    location    "2";
    object      k;
}
// * * * * * * * * * * * * * * * * * * * * * * * * * * * * * * * * * * * * * //

dimensions      [0 2 -2 0 0 0 0];

internalField   nonuniform List<scalar> 
67451
(
0.03271410868
0.04077741597
0.03915779265
0.03163192725
0.02330854399
0.01878741403
0.02029990014
0.02236558709
0.02449920615
0.0266092742
0.02771813779
0.02206747776
0.01922722166
0.01759554904
0.02110837649
0.03336008947
0.04055223167
0.0373430645
0.02909272499
0.02147192731
0.01866082822
0.02108638593
0.02205822678
0.0237356469
0.02584045352
0.02718006165
0.02741775208
0.02652437478
0.02753485853
0.04257817272
0.0873729983
0.1285538181
0.1267410599
0.09213218003
0.04978041993
0.02548720068
0.01612190396
0.02096986987
0.0200052946
0.01915684673
0.01832304387
0.01740057897
0.01689645796
0.02062582559
0.02406926106
0.02204691492
0.01814053891
0.01678008977
0.01929054883
0.02351644863
0.02223776157
0.02273050664
0.0239164688
0.02522248681
0.02580313976
0.02489223749
0.02533757317
0.03878934984
0.07896967723
0.1348703315
0.1525359503
0.1332743954
0.09251604297
0.05382260435
0.02550246134
0.0232599113
0.02270144474
0.02200271483
0.02108631977
0.01987285542
0.01835311651
0.01737172245
0.01639283429
0.01536711601
0.01567862674
0.01775988558
0.02188676425
0.02829797139
0.0238821644
0.02288006217
0.02274851535
0.02265035202
0.02256146757
0.02205492574
0.02154775071
0.02398684874
0.04080163546
0.09182487911
0.1074297042
0.08758294392
0.05791945202
0.03282882966
0.01838979559
0.02646126047
0.02530689429
0.02397018737
0.02241628968
0.02048617691
0.01830507614
0.01649716882
0.01610036072
0.01786562351
0.02080339948
0.02482586933
0.03056458483
0.02690759386
0.02547505939
0.02456693475
0.02322560171
0.02166426842
0.02007972106
0.0187473691
0.01823588898
0.02105775993
0.04681110647
0.05928786343
0.04648122051
0.02992839421
0.01887077051
0.01416673616
0.0297919893
0.02828890779
0.02662431062
0.02492699399
0.0226188709
0.02015969274
0.01829843835
0.01844471193
0.02110951871
0.02434243878
0.02792799848
0.02953489574
0.03061015806
0.0302966136
0.02935260196
0.02770586633
0.02566998781
0.02356098915
0.02185718399
0.02074270915
0.02128713199
0.02458694345
0.02907376086
0.02395993243
0.01838005111
0.01475706193
0.01252919397
0.03280839004
0.03103700835
0.02907609034
0.02780115616
0.02462263251
0.0217807347
0.01993841402
0.0208203734
0.02467526845
0.02897592022
0.0334308543
0.03579058915
0.03706566548
0.03681087418
0.03558482088
0.03365999312
0.03129850508
0.02891958439
0.02732002256
0.0277052827
0.03001728442
0.03191607412
0.03088068516
0.0270633203
0.02176314417
0.01639059203
0.01233729635
0.03555933437
0.0336514718
0.03158463677
0.02866749942
0.02579751059
0.02292235893
0.02135143918
0.02317201626
0.02847076634
0.03424870142
0.03995997513
0.04314501982
0.04448558176
0.04414745065
0.04262707046
0.04021327542
0.03716221189
0.03418215489
0.03251846913
0.03499078023
0.03980486685
0.04315702097
0.04301558501
0.03935668021
0.03278316225
0.02437441094
0.01704253991
0.03746630161
0.03564313256
0.03483850261
0.03039567375
0.02697319631
0.02385371117
0.02279267075
0.02553413993
0.03241959857
0.04039132875
0.04659015675
0.04987741387
0.05104693506
0.05057696355
0.04887853979
0.04626695555
0.04298970759
0.03930666576
0.03694121288
0.04138268639
0.04917645308
0.05399970041
0.05487609103
0.05142874711
0.04424561448
0.03521945904
0.02627336022
0.03873250823
0.0366101321
0.03453488954
0.0310985667
0.02774456472
0.0245168391
0.02439116516
0.0277540256
0.03642443418
0.04599163516
0.05218367127
0.05522814218
0.05617980653
0.05562442606
0.05390737366
0.05128379394
0.04796328728
0.04414646479
0.04091338805
0.04440288119
0.05330832616
0.05949542245
0.06208922292
0.06087054086
0.0557300476
0.04761193611
0.03709006548
0.04081752532
0.03759757441
0.03777906705
0.03233371329
0.02848072662
0.02499884701
0.02527274509
0.02877155108
0.038978868
0.05020800745
0.05641011918
0.05906789526
0.05973688455
0.05910528021
0.05747868248
0.05504291341
0.05195540376
0.04838333853
0.04472765228
0.04368772201
0.0490665774
0.05585846105
0.05976784809
0.05959830422
0.05502203434
0.04671383969
0.03506824984
0.04640871985
0.03909552328
0.03505134138
0.03220406888
0.02934118924
0.0258680702
0.02316248451
0.02803920279
0.041987885
0.05361851451
0.05927494308
0.06138638571
0.06173793905
0.06102556914
0.05950602242
0.05730771181
0.05454316469
0.05136745679
0.04803644905
0.04535498107
0.04610134251
0.05032920768
0.0539715764
0.05423508368
0.0501689581
0.0426563905
0.03190646762
0.05719477333
0.04472966344
0.03851134057
0.03620984124
0.03359133154
0.02895789993
0.02406409789
0.02669465131
0.0409454906
0.05350574792
0.05986652413
0.06230644654
0.06264074936
0.06193486122
0.06050957153
0.05848998022
0.05594305011
0.05294453346
0.04962515734
0.04638355104
0.04475392795
0.04587646298
0.04782547583
0.04774355743
0.04429972506
0.03827204217
0.02980841652
0.07180784542
0.05569130565
0.04888703948
0.04877868679
0.04673624816
0.03913087319
0.02902432409
0.02562163081
0.03808116147
0.05161565569
0.05914624501
0.06239328014
0.06291894743
0.06229686199
0.06093934617
0.0590047561
0.05656159934
0.05366579304
0.05040233497
0.04698903034
0.04421336494
0.04308268816
0.04306098686
0.04218468755
0.03951841
0.03497479786
0.02873936918
0.09433803179
0.07645021682
0.06870409063
0.07078937904
0.06917123501
0.058772538
0.04223105501
0.02915394344
0.03422118873
0.04800834512
0.05708646235
0.06153322013
0.06256652115
0.06219926412
0.06098542072
0.05914553559
0.05677313655
0.05392772254
0.05067954484
0.04716840765
0.04382885941
0.0413747127
0.03988478626
0.03841888252
0.03637566814
0.03312457364
0.02841233392
0.09162180127
0.07727726674
0.0844137757
0.09774262177
0.09682699527
0.08179888964
0.05998835153
0.03760991883
0.03212465311
0.04361440865
0.05368101155
0.05952217063
0.06136062493
0.06142216259
0.06044705431
0.0587405762
0.0564404012
0.05362653502
0.05037226136
0.04678615859
0.043145731
0.03998643062
0.03768277777
0.03609258052
0.0345686615
0.03222970082
0.02835477436
0.07912532143
0.08010514252
0.1167370835
0.1305631126
0.1235839488
0.1051998254
0.08323686481
0.05921252961
0.03895407977
0.03873597759
0.04864373386
0.05621289723
0.05912258168
0.05977797037
0.05914121974
0.05762092294
0.05541330097
0.05263109969
0.0493624545
0.04570836085
0.04188550051
0.03838069332
0.03587277269
0.03442159416
0.03336673895
0.03159821972
0.02820217959
0.06591794062
0.07450355134
0.1161282977
0.1272438839
0.1197912354
0.1028767133
0.08297705224
0.06063188022
0.03958152344
0.03445862168
0.04315633324
0.05172814798
0.05580068819
0.05715870034
0.05693778462
0.05565136691
0.05356069989
0.05081906043
0.04753785529
0.04382699164
0.0399094939
0.03641115834
0.0340606
0.03287462272
0.0322011086
0.03078586405
0.02778294095
0.05785493618
0.07038744081
0.1086835873
0.1161349807
0.1070504638
0.0911952784
0.07278900435
0.05226069308
0.03427131629
0.02955731351
0.03761891104
0.04635212883
0.05144280134
0.05352604203
0.05375558172
0.05272928088
0.05077283865
0.04808522826
0.04481060823
0.04109558039
0.03729266023
0.03412798793
0.03205330075
0.03117092408
0.03078832295
0.02962844087
0.02706510844
0.1050222963
0.1291575204
0.1382834974
0.1237992971
0.1025347402
0.08163215085
0.0616579143
0.04313859543
0.02933641452
0.0254896668
0.03220353704
0.04069573694
0.04619647137
0.04890488788
0.0495609086
0.04878946062
0.04697525661
0.04437048969
0.04117524154
0.03766021145
0.03432025382
0.03152847638
0.02979652831
0.02921328336
0.0290553854
0.02813460341
0.02608846355
0.16930022
0.1451840832
0.1440182307
0.1209135266
0.09327965301
0.06966637433
0.05107773427
0.0380763417
0.0293782684
0.02486582567
0.02806348858
0.0353062091
0.04048468043
0.04346614938
0.04443145118
0.0438747705
0.0422208523
0.03979669045
0.03695090988
0.03397620682
0.03108219923
0.02869956302
0.0273425986
0.02703359624
0.02706187961
0.02640218223
0.02492045541
0.09147916688
0.1244341822
0.12284573
0.09849381136
0.07340831224
0.0549937667
0.04458811634
0.03938774282
0.03452182097
0.02874503982
0.02682803451
0.03090074839
0.03533118085
0.03795508033
0.03887419928
0.03846371154
0.03710006422
0.0351360506
0.03279485681
0.03026769508
0.02780320583
0.02584691529
0.02485588318
0.024775405
0.02496029731
0.02457320551
0.02362994645
0.05039447264
0.09538245592
0.08916475589
0.0694066777
0.05372718115
0.04654615453
0.045191947
0.0441769955
0.0403247825
0.03406312196
0.02873043532
0.02857752111
0.03141186689
0.03361416637
0.03439508707
0.03403081365
0.03287080197
0.0311846246
0.02916831286
0.02699158532
0.02490575946
0.02332622929
0.02262116522
0.02268401077
0.022969712
0.02280642789
0.0222769504
0.03359337438
0.06410161151
0.05791344021
0.0476259938
0.0442675083
0.04644976791
0.04905389697
0.04844998392
0.04416027009
0.03776928556
0.03131708699
0.02834774311
0.02945889563
0.03122612355
0.03191196635
0.0315204891
0.03037999426
0.02876096415
0.02685964563
0.02484886761
0.02296893131
0.02158237227
0.02097905819
0.02104152182
0.02131784516
0.0212450139
0.02091315093
0.02878822963
0.04164229934
0.0390908211
0.03832174746
0.04298251363
0.04855603689
0.05110741561
0.04974914055
0.04515209046
0.0388601357
0.03242162748
0.02868622311
0.02919666937
0.03102564233
0.03189100343
0.03154515221
0.0303304494
0.02857971328
0.02653750674
0.02440721599
0.02242708542
0.02091875931
0.02014262673
0.02001175845
0.02012708128
0.01996386776
0.01958411987
0.02783624641
0.03224905079
0.03280523985
0.0362665575
0.04294046571
0.04817456751
0.04976701675
0.04787423147
0.04333355259
0.03757465324
0.03169949957
0.02846191529
0.02957223326
0.0321484142
0.03363552889
0.03357733768
0.03232098462
0.03034431084
0.02798873034
0.02550688401
0.0231506842
0.0212264206
0.02001313651
0.01949609152
0.01930970779
0.018914472
0.01831207212
0.02869196686
0.03084199382
0.03239487216
0.03595073969
0.04143869782
0.04520003547
0.04588681932
0.04377120235
0.03980401286
0.03485430639
0.02984974754
0.02755349467
0.02963190725
0.03315865907
0.03550699421
0.0360267078
0.03487507609
0.03270035562
0.03004831015
0.02719565214
0.02440203994
0.02196290979
0.02018482394
0.01915661519
0.01858385622
0.01790968592
0.01704345817
0.02992707145
0.03162041945
0.03328139032
0.03599754903
0.03949593131
0.04155851701
0.04136237942
0.03934646795
0.03610756426
0.03200410117
0.02791171875
0.02628959349
0.02878712715
0.03281467394
0.03574514347
0.03686381992
0.03612612491
0.03403552814
0.03133682691
0.02832382517
0.02526012724
0.02242141603
0.02012436586
0.01856867008
0.01759192855
0.0166614558
0.01557814592
0.03020889354
0.03184944317
0.03378798853
0.03612456065
0.0381812338
0.03895222329
0.0382754775
0.03641444445
0.03364733576
0.03022142982
0.02676227653
0.02508671092
0.0268930875
0.03059365464
0.03361523114
0.03499023652
0.03475037128
0.03324980527
0.0309239476
0.0281058643
0.02506720722
0.02206171972
0.0194027852
0.01739228506
0.01603530787
0.01485702477
0.01353075718
0.02881664527
0.030565087
0.03296251827
0.03531954114
0.036807047
0.03711667553
0.03633539136
0.03468187877
0.03232990266
0.0294243863
0.02630281895
0.0240493549
0.0241985042
0.02653763121
0.02915457361
0.03074165411
0.0310131928
0.03014721034
0.02842885235
0.02611659267
0.02341541142
0.02051791556
0.01771400259
0.01537975729
0.01368131106
0.012203535
0.01038608006
0.02507519396
0.02676255437
0.02932928876
0.03178903296
0.03320038164
0.03371189697
0.03346820856
0.03257016236
0.0310626412
0.02895704464
0.02633925274
0.02365711072
0.02191547438
0.02195578692
0.02331604353
0.02472780744
0.02541837285
0.02525986271
0.02436136088
0.02284390442
0.02079886967
0.0183359028
0.01567519483
0.01314842807
0.01102465236
0.009129359695
0.006844475019
0.03686959685
0.04804074359
0.04711274179
0.03745944225
0.02977824848
0.02981256828
0.03507620928
0.04033625296
0.0443088142
0.04650252185
0.04732725741
0.02818495071
0.0237176221
0.02100853921
0.02333392001
0.03306893778
0.04200334622
0.04016021337
0.03260898092
0.02815443254
0.03059043248
0.03720242899
0.04154906171
0.04457719366
0.04644137993
0.04703205255
0.04703694906
0.0476131868
0.05298320019
0.08196100356
0.1309542594
0.1583449235
0.1703350938
0.1395460174
0.07793248297
0.03771429444
0.01937083652
0.02708923261
0.02488009953
0.02305520588
0.02158153753
0.02044803459
0.02035816888
0.02362150838
0.0269099143
0.02594219756
0.02431901294
0.02577535162
0.03253799329
0.04133697009
0.04371774775
0.04467796462
0.04613769073
0.04653733063
0.0464578924
0.0466660915
0.04991790758
0.0670786519
0.1193573219
0.1583007764
0.1773310687
0.1542970906
0.08801229003
0.03686605392
0.01866576967
0.02820037456
0.02733278038
0.02646262856
0.02544714209
0.02415031022
0.02265936986
0.02136690065
0.01999598027
0.01952409514
0.0218073708
0.02672675877
0.03618096054
0.04601548221
0.04691986494
0.04496808122
0.04480049689
0.04482601711
0.04433564885
0.04308739869
0.04251295018
0.04542559028
0.07004685057
0.1073870728
0.1241854758
0.09500096153
0.04850511055
0.02607640016
0.01618891421
0.03537665536
0.0338264899
0.03202073544
0.02975474164
0.02694533161
0.0235577189
0.02076586726
0.02063883107
0.02430964793
0.0303877081
0.03993564154
0.04879744832
0.04938689344
0.0458509426
0.04426925375
0.04280699985
0.0409393606
0.03847013391
0.03607307855
0.03384212358
0.03577127642
0.04864943045
0.04985285793
0.03817978651
0.0270928504
0.02034476006
0.01445246403
0.04400201038
0.04169047137
0.03925462139
0.0359870104
0.03144998132
0.02669103995
0.02354518865
0.02431397657
0.02933591055
0.03594008928
0.0432656815
0.04904808378
0.0508997652
0.0494236623
0.04782633483
0.04532728743
0.04209361665
0.03844863947
0.03501676716
0.03174771652
0.03046487723
0.03100967666
0.0297879781
0.02720080043
0.02407580628
0.01993067733
0.01357964703
0.05142634881
0.04862290352
0.04605357455
0.04195450521
0.0354777798
0.02930618612
0.02652883689
0.02901007834
0.03597256354
0.04378120272
0.05088757635
0.05547911401
0.0579402749
0.05777433153
0.05619832908
0.05321258548
0.04947595906
0.04560851775
0.04247127614
0.04017788121
0.03937788818
0.03856853031
0.03606286028
0.03165267998
0.02677365616
0.02123105602
0.01333874367
0.05717225933
0.05394181203
0.05009035869
0.04468947481
0.03758396998
0.03135878155
0.03042165297
0.03520490508
0.04423151586
0.05341759548
0.06066101287
0.06514261689
0.0671469105
0.06692217659
0.0650874091
0.06216097687
0.0587919458
0.05544179397
0.05365355083
0.05405534491
0.05537255411
0.05573227259
0.05330160683
0.04592798977
0.03562974517
0.024967926
0.0148927994
0.06249241266
0.0612380552
0.05879690557
0.04712775694
0.03928947532
0.03395209526
0.03716724172
0.04430164316
0.05452762188
0.06382527628
0.07042960626
0.07429015887
0.07570151752
0.0750021239
0.0726798405
0.06936474413
0.06597308293
0.06378205453
0.06382046881
0.06564389779
0.06801680383
0.07020821197
0.07024395291
0.06496681991
0.05298474961
0.03514134893
0.02048508247
0.06684400921
0.06155904836
0.05544720951
0.04776009589
0.04075878047
0.03729552662
0.0469016864
0.05607738559
0.06560777814
0.07315904188
0.07831561476
0.08103102822
0.08168705579
0.0805947722
0.07809011822
0.07465535884
0.07108545104
0.06864357562
0.06867979594
0.07043701385
0.07290549946
0.07600784582
0.07818660436
0.07617926823
0.06747948569
0.05047709483
0.03111462148
0.07212760774
0.07091278106
0.0639993517
0.05094359113
0.04233084076
0.03746780485
0.04432675698
0.05654956268
0.07009563307
0.07847624243
0.0829419279
0.08469281827
0.08462183885
0.08318577484
0.08067426474
0.07739803477
0.0738684125
0.07095674263
0.06985101497
0.07102179175
0.07339789404
0.07649033791
0.07910262557
0.07840790685
0.07177521645
0.0564981138
0.03265435998
0.07636605333
0.06754138898
0.06344586952
0.05229564207
0.04439727411
0.03742220175
0.03689246448
0.05010234363
0.06906602923
0.07977952367
0.08451314626
0.0857746564
0.08518125265
0.08344835641
0.08092010755
0.07781627071
0.07443445004
0.07132116879
0.06933591765
0.06928182543
0.07089036016
0.07329747756
0.07528457521
0.07458178187
0.0690626467
0.0553385666
0.03198838227
0.07950937136
0.06931912106
0.06170170535
0.05491195829
0.04789187789
0.03988427973
0.03501963161
0.04407553961
0.06517648638
0.07924684363
0.08519581822
0.08652559766
0.08568807582
0.08372307397
0.08111548125
0.07808051913
0.0747965387
0.07157600662
0.06895826332
0.06759141473
0.06766080606
0.06867113104
0.06955515391
0.06853034151
0.06397615031
0.05253160144
0.03219349887
0.08453816727
0.0775077447
0.07307484347
0.06711038359
0.05834731363
0.04683650292
0.03651971297
0.03836631655
0.05720601968
0.07579831006
0.08429429889
0.08667547216
0.08620141439
0.08434635914
0.08179347623
0.07880930678
0.07553240524
0.07215412241
0.06901856364
0.06659986294
0.0652351026
0.06482266735
0.06468383239
0.0635236047
0.05986081672
0.05109579234
0.03297252004
0.1000353671
0.106757359
0.1166225751
0.1114392766
0.09203270707
0.06655192839
0.04435381579
0.03588956947
0.04888783523
0.06954435117
0.08128935111
0.08562780224
0.08612323567
0.08474090138
0.08241575044
0.0795292594
0.0762483204
0.07272523321
0.0692094868
0.06607180538
0.06369142298
0.06222538553
0.06137484542
0.06022661697
0.05758264133
0.05098608125
0.03397074803
0.1132201342
0.1484410871
0.1615729208
0.1502458015
0.1255194264
0.09121167477
0.05687013209
0.03729738196
0.04187564637
0.0607321104
0.07601056721
0.08292727645
0.08494661779
0.08441350853
0.08252941428
0.0798381989
0.07658723045
0.07294953123
0.06915114572
0.06552334412
0.06246630622
0.06029426797
0.05898663051
0.05788560975
0.05622966117
0.05114038282
0.03467501332
0.10332042
0.1535630745
0.1691557396
0.1620769314
0.1410487098
0.1064483104
0.06845047357
0.0432132221
0.03837378195
0.05152663619
0.06851737233
0.07827375963
0.08228251491
0.08295736992
0.08174207974
0.07937030232
0.07620581821
0.0724833306
0.06845208543
0.06444742381
0.06089687668
0.05821930643
0.05653489813
0.05564662187
0.05478903999
0.05065191315
0.03475981183
0.09390504645
0.1470056959
0.1705809334
0.1642779709
0.1420896027
0.1074938635
0.07146522252
0.0458830868
0.03559733017
0.04287473434
0.0591197417
0.071722579
0.0780003808
0.08014255958
0.07978003829
0.07783587439
0.0748074765
0.07101641502
0.0667642984
0.06241602759
0.05843022914
0.05527842734
0.05342664417
0.05289333426
0.05264776569
0.04910853582
0.03414813368
0.1459065669
0.1812931263
0.1836145475
0.164018426
0.1322626061
0.09517122127
0.06390744696
0.04322338607
0.03264546842
0.03589619823
0.04984512547
0.0638830255
0.07229624887
0.0759681339
0.07653334537
0.07505945088
0.07217522138
0.06830337282
0.06381784598
0.05912872723
0.05472743283
0.05124253421
0.04953219047
0.04942324293
0.04961601036
0.04651471483
0.03293969886
0.294430345
0.2167884735
0.1938981116
0.1640308291
0.1230122617
0.08452399725
0.0585537498
0.04237452909
0.03238672101
0.03188366726
0.04217021527
0.05581975241
0.06567663209
0.07067308159
0.07207970401
0.07101210015
0.06821127254
0.0642119456
0.05948123045
0.05450537161
0.04980237736
0.04643010831
0.04508457491
0.04536847553
0.04584031697
0.04316158169
0.03132972825
0.2995655913
0.2158405239
0.1879794669
0.149492397
0.1049115034
0.07370979034
0.05696496604
0.04622026846
0.03682343191
0.03207903874
0.03746823035
0.04895008755
0.05902329085
0.06479112442
0.06675476227
0.06590462137
0.06305414824
0.0588624673
0.05392343153
0.04878848044
0.04431091477
0.04141149798
0.04053279733
0.0411051442
0.04172679002
0.03950987617
0.02952741487
0.180785752
0.1664634941
0.1513218974
0.1145444334
0.08277880072
0.06749675546
0.06065879992
0.05431938516
0.04506939637
0.03642859157
0.03638677149
0.04440213491
0.05327762584
0.05907424493
0.06122685218
0.06034491326
0.05730167351
0.05289703511
0.04789891138
0.04304290239
0.03912620631
0.03685332746
0.03641399233
0.03714918494
0.03782330016
0.03604023388
0.02770489924
0.09076400702
0.1076908856
0.1003996174
0.08047110373
0.0700717174
0.06803175056
0.06701783222
0.06264947792
0.05355585273
0.04266879649
0.03833136903
0.0426170474
0.04969266152
0.05485260007
0.05675715796
0.05568954837
0.0524589377
0.04795867856
0.04304636734
0.03852840373
0.03513664708
0.03338302425
0.03324410795
0.03401659857
0.03464179214
0.03312911905
0.02596677146
0.05667505708
0.06891401964
0.06786130353
0.06499729677
0.06753799563
0.07131082445
0.07194554835
0.06790808596
0.05930227458
0.04795116551
0.04133711418
0.04304858013
0.04874226436
0.0533976711
0.05510436217
0.053898359
0.05050702719
0.04583284181
0.04079780621
0.03627843854
0.03301760526
0.03142623614
0.0313414175
0.0320128021
0.0324589528
0.03093307432
0.02434811368
0.0476308502
0.05378061797
0.05684748504
0.06167285027
0.0685069778
0.07318836511
0.07375550627
0.06950804585
0.06113886134
0.05022493049
0.04318547711
0.04417771941
0.04968833906
0.05454080557
0.0564846873
0.05543052398
0.05203196415
0.04714030307
0.04169359598
0.03667521454
0.03295740376
0.03100951256
0.03064104133
0.03103651268
0.03115661929
0.02933352792
0.0228234086
0.04678635748
0.05080601906
0.05548886522
0.06207288302
0.06882385682
0.07266234441
0.07238379281
0.06762182937
0.05941749373
0.04915347665
0.04284115401
0.04449080332
0.05095162469
0.05677785245
0.0594488939
0.05891368643
0.05582498438
0.05090028528
0.04498187228
0.03913242831
0.03445516915
0.03164941664
0.03063251376
0.03054536001
0.03021762882
0.02795233997
0.02130201903
0.04863755331
0.05222143201
0.05689478689
0.06275805917
0.0679178755
0.07028207494
0.06882328973
0.06361086935
0.05533797658
0.04600200405
0.04075066353
0.04326369325
0.05095976965
0.058166649
0.06188934214
0.06208932263
0.05963059701
0.0550408239
0.04888492128
0.04222357468
0.03639831726
0.03244202917
0.03049620568
0.02973588316
0.02889723968
0.02624444044
0.01960496985
0.05107169876
0.05462002913
0.05876200275
0.06331945641
0.06675202862
0.06755980109
0.06509832904
0.05936517969
0.05118614209
0.04282348748
0.038141579
0.04053160026
0.04859082562
0.0569671785
0.06203416962
0.06325629148
0.06152533865
0.05745949355
0.05133636448
0.04414502967
0.03734758438
0.0322694195
0.02930997379
0.0277806557
0.02645297383
0.02363671482
0.017442685
0.05298511861
0.05660280192
0.06045714184
0.06415388654
0.06638830013
0.06604814344
0.06268381293
0.0566358591
0.0489080917
0.04120730126
0.03622851251
0.03692880138
0.04342728847
0.05176824739
0.05800031007
0.06067967347
0.05997108225
0.0564256107
0.05058915813
0.0433650654
0.0361726522
0.03039886931
0.02661431548
0.02435902999
0.02262054532
0.01989324901
0.01448542894
0.0505164595
0.05417672189
0.05831791503
0.0619757125
0.0637192143
0.06281573803
0.05925108673
0.05358162038
0.04670029354
0.03974689763
0.03433353603
0.03250353092
0.03533377391
0.04118145901
0.0469075296
0.05032671061
0.05075880342
0.04837666453
0.04372653861
0.03768852825
0.03145716272
0.02611379327
0.02218840036
0.01953735797
0.01760419666
0.01520105127
0.01057048674
0.03299138383
0.03554095782
0.03894624816
0.04212697858
0.04384054475
0.04388474404
0.04237735718
0.0396286632
0.03606443522
0.03215215884
0.02841428094
0.02557473084
0.02445991567
0.02539290701
0.02760148226
0.02967282933
0.03058818407
0.03004910779
0.02823592364
0.02555168877
0.02244697071
0.01929145741
0.0163314204
0.01372308295
0.01157911039
0.009605061754
0.006861102573
0.03425851516
0.04669777149
0.05682653389
0.05606194096
0.04740007749
0.04054154704
0.04060653183
0.04503755282
0.04927765578
0.05181546576
0.05254482807
0.05209312995
0.0511647604
0.05082773225
0.05412777412
0.03284629496
0.02839054346
0.02638084937
0.03069002211
0.04194515958
0.05053664917
0.04976564452
0.04332698444
0.03942043413
0.04186345766
0.04774761201
0.05218806765
0.0539755061
0.05384948816
0.05282877546
0.05178893029
0.05234955163
0.06052415096
0.0909547933
0.1205004439
0.142470095
0.1632611772
0.151081988
0.1003909047
0.05311470603
0.0239280863
0.03274047567
0.0299847076
0.02769189397
0.02598912894
0.02520499437
0.0267127563
0.03187823438
0.03624508058
0.03618200484
0.03495882505
0.03680981979
0.04330363056
0.05084181048
0.05545740965
0.05676468402
0.05594723519
0.0543502062
0.05289258025
0.05279224955
0.05829477821
0.0815731047
0.1238537127
0.1579109737
0.1723584347
0.1435077174
0.08146978887
0.04059541694
0.02018900133
0.0317287988
0.0309305822
0.0302373598
0.02948001982
0.02862202944
0.02779396922
0.02737606258
0.02698379662
0.02730495543
0.03031676474
0.03647048137
0.04590591864
0.05458820664
0.05933055476
0.05985739326
0.05831919046
0.05621295258
0.05428286648
0.05293500299
0.0534940965
0.06031237884
0.08425504831
0.1135812814
0.1212443905
0.09007761929
0.05131654595
0.03056175261
0.01774382952
0.03881260837
0.03778401153
0.03643108622
0.03481784054
0.03231350294
0.02922018993
0.02673004074
0.02705513952
0.03156721216
0.0391580137
0.04902266591
0.05753153313
0.06183010569
0.06163014238
0.05950481312
0.05709779655
0.05486192472
0.05267053479
0.05070681193
0.04935207131
0.05289312449
0.06146048852
0.05970148926
0.04785555845
0.03547257525
0.02630609271
0.01621723799
0.04719987752
0.04543949924
0.04365001417
0.04145583498
0.03732934398
0.03282054092
0.0299832999
0.03117257462
0.03672200134
0.04439496466
0.05262195793
0.0595840979
0.06279053178
0.06245402961
0.06047719764
0.05792737087
0.05512989485
0.05214188157
0.04905863333
0.04607448766
0.04458214628
0.04418647008
0.04195022798
0.03777534811
0.03301730647
0.02652895161
0.01560836977
0.05379238589
0.05187866825
0.05036479464
0.04692366993
0.04162916247
0.03634874773
0.03460798702
0.03788590179
0.04489618127
0.05279731213
0.05981875874
0.064928181
0.0670013221
0.06650237448
0.06450842134
0.06180361182
0.05873406097
0.05560677761
0.05286897427
0.0508901792
0.050062918
0.04923950577
0.04639486663
0.0415162188
0.03558359613
0.02798830636
0.01556230592
0.05881756522
0.05731997122
0.05599207175
0.04935481387
0.04336490662
0.03953775503
0.04159057593
0.04798831484
0.05629330316
0.06405418633
0.06982844332
0.07319394799
0.0740305273
0.07283399848
0.07029342198
0.06706297005
0.06378416728
0.06110814641
0.05957153491
0.05961039347
0.06096486818
0.0622509499
0.06081309589
0.05464728556
0.04414224086
0.03138439573
0.0162600217
0.06297039089
0.06655344865
0.06342294483
0.0542094211
0.04559459062
0.04483289875
0.05318098494
0.06270462025
0.07076547818
0.07605832155
0.07922519569
0.08056576651
0.08017096455
0.07827956456
0.07523927344
0.07156944947
0.06799275942
0.0654172759
0.06456589705
0.06545347076
0.06790914641
0.07136147422
0.0735770916
0.07061664825
0.05921989817
0.04048517045
0.01941233803
0.0648249815
0.06285997726
0.05928739192
0.05186182651
0.04706608839
0.0514207771
0.06608474943
0.07617176606
0.08193819563
0.08434492182
0.08477658803
0.0840134862
0.08244380201
0.08014627565
0.0771625757
0.07368660437
0.07021542641
0.06759533553
0.06667219805
0.06748047376
0.06988597042
0.0740959768
0.07888816519
0.07989296506
0.07162315303
0.05257770743
0.02741846797
0.06729503513
0.07037864577
0.06559664499
0.0560990198
0.04872980613
0.05221320096
0.0691860225
0.08228497103
0.08772019272
0.08809784419
0.08643782723
0.08410902421
0.08160521947
0.07899489617
0.0761898835
0.07315440133
0.07009586296
0.06759760546
0.06649396054
0.06723198194
0.06972463621
0.07408912325
0.07955766496
0.08235408169
0.07687984664
0.05992644919
0.03072793461
0.06780469434
0.06498627463
0.06552041311
0.05571161951
0.04992997393
0.05026974695
0.06369124779
0.08249191972
0.09031075
0.09007455531
0.08711927095
0.08350665783
0.08007947167
0.07703171263
0.07425329886
0.07156863774
0.06894977486
0.06669012831
0.06543265739
0.06583695857
0.06812189792
0.07216814239
0.07705947112
0.07973033012
0.07566603162
0.06117971296
0.03209892269
0.07151958039
0.06711124034
0.0648313782
0.05956086687
0.05360655727
0.0501388812
0.05676321989
0.07554766995
0.08943174437
0.09115655995
0.08821188188
0.08387179537
0.07968264471
0.07613825585
0.07320733231
0.07065530094
0.06829724397
0.06619088388
0.06472613494
0.06449064197
0.06589671506
0.06888146757
0.07253036986
0.07447551344
0.07136722639
0.05977119103
0.03383902699
0.08114893166
0.08079802779
0.08268531203
0.07764387791
0.06537135332
0.05392716907
0.05206753326
0.06633704086
0.08525395591
0.09093909832
0.08938765329
0.08519300084
0.08069260985
0.07680631342
0.07367484782
0.07108157069
0.06876333617
0.06662292241
0.06484246936
0.06385186081
0.06409967436
0.06568801295
0.06799708897
0.06940531832
0.06746796511
0.05893200558
0.03555009174
0.09860845789
0.1135828465
0.1214563263
0.1152686448
0.09387622854
0.06738615348
0.05225984631
0.05718533546
0.0759888033
0.08789076581
0.08943168553
0.08655329222
0.08242393734
0.0785268546
0.07528457122
0.07258626601
0.0701686852
0.06785740913
0.06570005905
0.0639928603
0.06316114305
0.0634656715
0.06466483116
0.06576444699
0.06503752209
0.05896379168
0.03702734101
0.1208421765
0.1479436931
0.1510421749
0.1430697862
0.1213581151
0.08683629779
0.05812414455
0.05115755716
0.06508519811
0.08150496603
0.087319738
0.08686945519
0.08389792925
0.08045705699
0.07732685378
0.07457995411
0.07202213746
0.06946944523
0.06690569987
0.06454994044
0.06281270253
0.06208860511
0.06245548086
0.06336037993
0.06351699336
0.05902374377
0.03791872353
0.1399556782
0.1714502217
0.1674803641
0.1580814684
0.1381340143
0.1012143902
0.06517014655
0.04895317851
0.0548721087
0.07131455338
0.08230460157
0.0852203033
0.08418572936
0.08173335965
0.07902940013
0.07638266201
0.07372028595
0.07090274609
0.06791058196
0.06494584623
0.06244048209
0.06090932592
0.06063890239
0.06138793778
0.06199980741
0.0583297146
0.0380242653
0.1579578547
0.1905402762
0.1798229653
0.1661586059
0.1432425513
0.1054137256
0.06907229113
0.04848695191
0.04697749116
0.06030606334
0.0743770681
0.08120690297
0.08270946968
0.08172413328
0.07976766024
0.07740021213
0.07469952795
0.0716099352
0.06815956196
0.06458955813
0.06139525179
0.05919500641
0.05846907373
0.05910234362
0.05985281613
0.05653434846
0.03734679755
0.2255354423
0.210403701