/*--------------------------------*- C++ -*----------------------------------*\
  =========                 |
  \\      /  F ield         | OpenFOAM: The Open Source CFD Toolbox
   \\    /   O peration     | Website:  https://openfoam.org
    \\  /    A nd           | Version:  8
     \\/     M anipulation  |
\*---------------------------------------------------------------------------*/
FoamFile
{
    version     2.0;
    format      ascii;
    class       volScalarField;
    location    "2";
    object      N2;
}
// * * * * * * * * * * * * * * * * * * * * * * * * * * * * * * * * * * * * * //

dimensions      [0 0 0 0 0 0 0];

internalField   nonuniform List<scalar> 
67451
(
0.7900008489
0.7900008292
0.7900007473
0.7900006183
0.7900004141
0.7900003111
0.7900003948
0.7900004646
0.7900005543
0.7900006404
0.790000699
0.7900008598
0.7900008812
0.7900009768
0.7900011131
0.7900010763
0.7900009896
0.790000879
0.7900007111
0.7900004746
0.7900003535
0.7900004
0.7900004119
0.7900004857
0.7900005802
0.7900006612
0.7900007097
0.7900006901
0.7900006118
0.7900005661
0.7900007554
0.7900009927
0.7900008759
0.7900004159
0.79000002
0.7900000017
0.7900001601
0.7900010906
0.7900011144
0.7900011651
0.7900012316
0.7900013034
0.790001339
0.7900013511
0.7900012373
0.790000989
0.7900006764
0.7900004311
0.7900003693
0.7900004283
0.7900003771
0.7900004016
0.7900004745
0.7900005632
0.790000632
0.7900006506
0.7900005742
0.790000532
0.7900007218
0.7900011012
0.7900015404
0.790001463
0.7900009592
0.7900002877
0.7900000426
0.7900014265
0.7900014172
0.7900014217
0.7900014439
0.7900014794
0.7900014945
0.7900014789
0.7900013284
0.7900010622
0.7900007282
0.7900004666
0.7900003829
0.7900004622
0.7900003653
0.7900003344
0.7900003569
0.7900004197
0.7900004914
0.7900005429
0.7900005488
0.790000487
0.7900005152
0.7900008545
0.7900011426
0.7900008389
0.7900002643
0.7899999695
0.7900000278
0.7900014095
0.7900013941
0.7900014004
0.7900014267
0.7900014579
0.7900014692
0.7900013685
0.7900011107
0.7900007389
0.7900004574
0.7900003603
0.790000464
0.790000343
0.790000289
0.7900002681
0.7900002878
0.7900003148
0.790000346
0.7900003775
0.7900004455
0.7900004369
0.7900005019
0.7900005359
0.7900002584
0.7900000635
0.7900000812
0.7900001718
0.7900013447
0.7900013155
0.7900013079
0.7900013298
0.7900013766
0.7900014213
0.7900013524
0.7900010771
0.7900006894
0.7900004217
0.7900002866
0.7900002715
0.790000215
0.7900001908
0.7900001721
0.7900001722
0.7900001714
0.7900001608
0.7900001469
0.7900001634
0.7900001941
0.7900002547
0.7900002226
0.7900001202
0.7900001027
0.7900001418
0.7900002101
0.7900012838
0.7900012469
0.7900012236
0.7900012897
0.7900012982
0.7900013586
0.7900013009
0.7900009842
0.7900005905
0.7900003683
0.7900002588
0.790000226
0.7900001737
0.7900001344
0.7900000969
0.7900000739
0.7900000595
0.7900000404
0.7900000167
0.7900000145
0.7900000573
0.7900001074
0.7900001169
0.7900001087
0.7900001182
0.7900001555
0.7900001953
0.7900012185
0.7900011624
0.7900010972
0.7900011786
0.7900012394
0.7900013066
0.7900012427
0.7900008745
0.7900004903
0.7900003203
0.7900002487
0.7900002114
0.790000164
0.7900001095
0.7900000527
0.790000006
0.7899999756
0.789999958
0.7899999542
0.7899999641
0.7900000227
0.7900001
0.7900001408
0.790000144
0.7900001436
0.7900001796
0.7900002396
0.7900011503
0.7900010349
0.7900006624
0.7900009991
0.7900011508
0.7900012452
0.7900011927
0.7900007808
0.7900004156
0.7900002953
0.790000259
0.7900002325
0.7900001857
0.7900001177
0.7900000389
0.7899999653
0.7899999127
0.7899998911
0.7899999125
0.7899999377
0.7899999895
0.7900000723
0.7900001299
0.7900001543
0.7900001681
0.7900001938
0.7900002391
0.7900011258
0.7900010578
0.7900010148
0.7900010798
0.7900011408
0.7900012142
0.7900011856
0.7900007383
0.7900003889
0.790000298
0.7900002885
0.790000275
0.7900002294
0.79000015
0.7900000489
0.7899999452
0.789999861
0.7899998183
0.7899998449
0.7899998767
0.7899999019
0.7899999859
0.7900000742
0.7900001489
0.7900002224
0.7900003093
0.7900003351
0.7900010327
0.7900008716
0.7900005026
0.7900009314
0.7900010615
0.7900011595
0.7900012231
0.7900007397
0.7900003823
0.7900003094
0.7900003216
0.7900003212
0.7900002774
0.7900001885
0.7900000671
0.7899999335
0.7899998118
0.7899997264
0.7899997045
0.7899997377
0.7899998022
0.7899998991
0.7899999952
0.7900000749
0.7900001442
0.7900001847
0.7900001289
0.7900009997
0.7900009797
0.7900009111
0.7900009949
0.7900010451
0.7900011171
0.7900011609
0.7900007524
0.7900003589
0.7900003207
0.7900003337
0.7900003389
0.7900002956
0.7900002005
0.7900000655
0.7899999109
0.7899997606
0.7899996386
0.7899995687
0.7899995646
0.7899996403
0.7899997539
0.7899998591
0.7899999396
0.7899999978
0.7900000015
0.7899999644
0.7900008839
0.7900009359
0.7900009546
0.7900009908
0.790001003
0.7900010449
0.7900011234
0.790000825
0.7900003534
0.7900003039
0.790000305
0.7900003062
0.790000262
0.7900001655
0.7900000274
0.7899998673
0.7899997086
0.7899995748
0.7899994886
0.7899994645
0.7899995137
0.789999614
0.7899997159
0.789999791
0.7899998287
0.7899998141
0.7899998493
0.790000699
0.7900007676
0.7900008705
0.7900009523
0.7900009727
0.7900009831
0.7900010559
0.7900009193
0.790000386
0.7900002592
0.7900002466
0.7900002376
0.790000191
0.7900000952
0.789999959
0.7899998008
0.7899996426
0.789999507
0.7899994147
0.7899993798
0.7899994117
0.789999495
0.7899995859
0.7899996509
0.7899996744
0.7899996865
0.7899998327
0.7900008014
0.7900006082
0.7900006666
0.7900008014
0.7900008964
0.7900009448
0.7900010145
0.7900009725
0.7900004835
0.7900002098
0.7900001716
0.7900001431
0.7900000892
0.7899999932
0.7899998612
0.7899997098
0.7899995594
0.7899994305
0.7899993421
0.7899993075
0.7899993334
0.7899994054
0.7899994843
0.7899995381
0.7899995682
0.7899996317
0.7899998652
0.7900005238
0.7900004226
0.7900005254
0.790000646
0.7900007312
0.7900008284
0.7900009459
0.7900009858
0.7900005932
0.7900001913
0.7900000996
0.7900000428
0.7899999761
0.7899998777
0.7899997507
0.7899996091
0.7899994711
0.7899993549
0.7899992773
0.7899992507
0.7899992793
0.789999347
0.7899994166
0.7899994633
0.7899995128
0.7899996242
0.7899999048
0.7900004406
0.7900008583
0.7900008807
0.7900009371
0.7900009437
0.7900009597
0.7900010119
0.7900010138
0.7900007584
0.7900002798
0.7900000475
0.7899999554
0.7899998719
0.7899997687
0.7899996461
0.7899995157
0.7899993925
0.7899992925
0.78999923
0.7899992158
0.7899992519
0.7899993187
0.7899993789
0.7899994236
0.7899994931
0.7899996365
0.7899999343
0.790000378
0.7900009981
0.7900010489
0.7900010959
0.7900010384
0.7900009924
0.7900009748
0.7900009189
0.7900007359
0.7900003383
0.7900000346
0.7899998978
0.7899997957
0.7899996852
0.7899995661
0.7899994469
0.7899993397
0.7899992573
0.7899992116
0.7899992113
0.7899992548
0.7899993156
0.7899993646
0.7899994095
0.7899994947
0.789999655
0.7899999527
0.7900000337
0.7900005942
0.7900008839
0.7900009697
0.7900009407
0.790000916
0.7900008793
0.7900007969
0.7900006347
0.790000341
0.7900000543
0.7899998867
0.7899997637
0.7899996444
0.7899995279
0.7899994198
0.7899993285
0.7899992637
0.7899992343
0.7899992456
0.789999289
0.7899993334
0.7899993691
0.7899994144
0.7899995101
0.7899996758
0.7899999643
0.7900007253
0.7900016245
0.7900013577
0.7900010193
0.7900008545
0.790000797
0.790000723
0.790000608
0.7900004497
0.7900002721
0.7900000815
0.7899999213
0.7899997852
0.7899996588
0.7899995458
0.7899994491
0.7899993735
0.7899993249
0.7899993077
0.7899993199
0.7899993457
0.7899993691
0.7899993899
0.7899994353
0.789999536
0.7899996982
0.7899999724
0.7899983228
0.7900009703
0.7900011422
0.7900007887
0.7900005803
0.7900004826
0.7900003761
0.7900002437
0.7900001446
0.790000117
0.7900000782
0.7899999749
0.7899998517
0.789999729
0.7899996244
0.7899995413
0.7899994808
0.789999444
0.7899994274
0.7899994248
0.7899994249
0.7899994204
0.7899994256
0.7899994695
0.7899995683
0.7899997201
0.7899999769
0.7899985593
0.7900010272
0.7900008438
0.7900004294
0.7900002074
0.7900001124
0.7900000047
0.7899999226
0.7899999112
0.789999971
0.7900000395
0.7900000121
0.7899999205
0.7899998219
0.7899997383
0.7899996734
0.7899996256
0.7899995933
0.7899995696
0.7899995466
0.7899995165
0.7899994834
0.7899994739
0.7899995117
0.7899996009
0.7899997377
0.7899999755
0.7899998464
0.7900007844
0.7900003561
0.7900000558
0.789999927
0.7899998465
0.7899997945
0.7899997913
0.789999829
0.7899998968
0.7899999783
0.7899999945
0.7899999376
0.7899998692
0.7899998144
0.7899997743
0.7899997448
0.7899997213
0.7899996957
0.7899996594
0.7899996081
0.7899995552
0.789999531
0.7899995545
0.7899996267
0.7899997477
0.7899999659
0.7900004625
0.7900003777
0.7899999644
0.7899998209
0.7899997398
0.7899996958
0.7899996935
0.7899997246
0.7899997772
0.7899998416
0.789999907
0.7899999196
0.7899998721
0.7899998237
0.7899997946
0.7899997814
0.7899997769
0.7899997739
0.7899997638
0.7899997372
0.7899996895
0.7899996321
0.7899995927
0.7899995933
0.7899996452
0.789999752
0.7899999498
0.7900004482
0.7900000324
0.78999975
0.789999667
0.7899996152
0.7899996035
0.7899996242
0.7899996616
0.7899997157
0.7899997784
0.7899998321
0.7899998236
0.7899997567
0.7899997048
0.7899996861
0.7899996918
0.7899997119
0.7899997381
0.789999761
0.7899997696
0.7899997522
0.7899997076
0.7899996568
0.7899996334
0.7899996662
0.789999761
0.7899999369
0.7900001461
0.7899997546
0.7899995863
0.7899995412
0.7899995247
0.7899995353
0.7899995612
0.7899995985
0.7899996511
0.7899997063
0.7899997537
0.789999734
0.7899996471
0.7899995813
0.7899995594
0.7899995718
0.7899996084
0.78999966
0.7899997175
0.7899997682
0.7899997926
0.7899997741
0.7899997239
0.7899996862
0.7899997066
0.7899997908
0.7899999434
0.7899998362
0.7899995633
0.7899994717
0.7899994472
0.7899994524
0.7899994734
0.7899995023
0.7899995394
0.7899995809
0.7899996253
0.7899996737
0.7899996636
0.7899995783
0.789999507
0.7899994802
0.7899994913
0.7899995345
0.7899995998
0.7899996785
0.7899997588
0.7899998179
0.7899998292
0.789999794
0.7899997589
0.789999778
0.7899998558
0.7899999853
0.7899996401
0.7899994768
0.7899994177
0.7899993877
0.7899993924
0.7899994157
0.7899994466
0.7899994777
0.7899995076
0.7899995477
0.7899996048
0.7899996214
0.7899995606
0.789999499
0.7899994741
0.7899994833
0.7899995238
0.7899995903
0.7899996737
0.7899997652
0.7899998435
0.7899998794
0.7899998676
0.7899998508
0.7899998821
0.7899999621
0.7900000713
0.7899995887
0.7899994929
0.7899994346
0.7899993888
0.7899993845
0.7899994026
0.7899994273
0.7899994519
0.7899994788
0.7899995193
0.7899995796
0.7899996165
0.7899995899
0.7899995501
0.7899995362
0.7899995489
0.7899995845
0.7899996411
0.7899997167
0.7899998049
0.7899998874
0.7899999379
0.7899999499
0.7899999608
0.7900000147
0.7900001059
0.7900002055
0.7899996485
0.789999587
0.7899995226
0.789999479
0.7899994789
0.789999494
0.789999511
0.7899995273
0.7899995465
0.7899995749
0.7899996148
0.7899996461
0.7899996458
0.7899996355
0.7899996388
0.7899996573
0.7899996892
0.7899997358
0.789999799
0.7899998756
0.7899999517
0.790000007
0.7900000395
0.7900000802
0.7900001576
0.7900002621
0.7900003785
0.789999833
0.7899997936
0.7899997536
0.7899997781
0.7899998192
0.7899998383
0.7899998359
0.7899998198
0.7899997974
0.7899997753
0.7899997589
0.7899997505
0.7899997523
0.7899997706
0.7899998027
0.7899998375
0.7899998706
0.7899999052
0.7899999459
0.7899999932
0.7900000392
0.7900000758
0.7900001101
0.7900001664
0.7900002589
0.7900003779
0.7900005364
0.7900004601
0.7900003697
0.7900003175
0.7900002563
0.7900002168
0.7900002268
0.790000301
0.7900003771
0.7900004709
0.7900005615
0.79000063
0.7900008074
0.790000819
0.790000853
0.7900008281
0.790000678
0.7900005655
0.7900004665
0.7900003543
0.7900002778
0.7900002671
0.7900003089
0.7900003385
0.7900004304
0.7900005184
0.7900005955
0.79000065
0.7900006639
0.7900006476
0.7900006458
0.7900006778
0.7900006505
0.7900006325
0.790000463
0.7900002103
0.7900000989
0.7900001303
0.7900009924
0.7900010065
0.790001047
0.7900011019
0.7900011516
0.7900011528
0.7900010497
0.7900008915
0.7900007121
0.790000499
0.7900003419
0.790000307
0.7900003242
0.7900003564
0.7900004003
0.7900004651
0.7900005313
0.7900005806
0.7900006033
0.7900005674
0.7900005522
0.7900005095
0.7900003324
0.7900002656
0.7900001889
0.790000033
0.7900000926
0.7900001422
0.7900013091
0.7900013072
0.7900013162
0.7900013325
0.7900013413
0.790001314
0.7900012382
0.7900010986
0.7900008809
0.7900006067
0.7900004038
0.790000327
0.7900003059
0.7900003547
0.7900003689
0.7900004061
0.7900004546
0.7900004987
0.7900005276
0.7900005262
0.7900005102
0.7900004755
0.7900004029
0.7900003
0.7900002315
0.7900001887
0.7900001961
0.7900002017
0.7900013442
0.7900013268
0.7900013218
0.7900013149
0.790001293
0.790001256
0.7900011605
0.7900009519
0.790000658
0.7900004274
0.7900003155
0.7900002735
0.7900003283
0.790000332
0.7900003464
0.7900003707
0.7900003941
0.7900004107
0.7900004162
0.7900004262
0.7900003892
0.7900003797
0.7900002443
0.7900002265
0.7900002116
0.7900002058
0.7900002272
0.7900012682
0.7900012265
0.7900012209
0.790001213
0.7900012257
0.7900012295
0.7900011583
0.7900009415
0.7900006493
0.7900004242
0.7900003063
0.7900002778
0.7900002708
0.7900002642
0.7900002673
0.7900002763
0.7900002801
0.7900002743
0.7900002647
0.7900002656
0.7900002568
0.7900002527
0.7900002158
0.7900001668
0.7900001356
0.7900001384
0.7900001851
0.7900011678
0.7900011341
0.7900011292
0.7900010984
0.7900011571
0.7900012029
0.790001131
0.79000088
0.7900005933
0.7900003916
0.7900002764
0.7900002302
0.7900002046
0.7900001869
0.7900001747
0.7900001669
0.790000158
0.7900001413
0.7900001209
0.7900001138
0.7900001195
0.7900001263
0.7900001102
0.7900001026
0.790000104
0.7900001207
0.7900001511
0.790001057
0.7900010267
0.7900010587
0.7900010922
0.7900011278
0.7900011723
0.7900010772
0.7900007898
0.7900005186
0.7900003546
0.7900002645
0.7900002163
0.7900001775
0.7900001375
0.7900000978
0.7900000644
0.7900000387
0.7900000163
0.7899999987
0.789999987
0.7899999898
0.790000005
0.7900000225
0.7900000472
0.7900000887
0.7900001469
0.7900001973
0.790000949
0.7900008607
0.7900009788
0.7900010082
0.7900010734
0.7900011233
0.7900009996
0.7900006968
0.7900004551
0.7900003364
0.7900002815
0.7900002454
0.7900001988
0.7900001338
0.7900000582
0.7899999866
0.7899999312
0.7899998958
0.7899998757
0.7899998458
0.7899998245
0.7899998409
0.7899998908
0.7899999556
0.7900000264
0.7900001339
0.7900002198
0.7900008975
0.7900008375
0.790000832
0.7900009342
0.7900010196
0.7900010766
0.7900009328
0.7900006469
0.7900004405
0.7900003558
0.7900003305
0.790000309
0.7900002579
0.7900001693
0.7900000547
0.789999936
0.7899998354
0.7899997667
0.7899997252
0.7899996715
0.7899996238
0.7899996316
0.7899996997
0.7899998008
0.7899998995
0.7900000117
0.7900001495
0.7900008639
0.7900008062
0.7900011068
0.7900008913
0.7900009468
0.7900010126
0.790000841
0.7900005806
0.7900004027
0.7900003627
0.7900003747
0.7900003736
0.7900003232
0.7900002156
0.7900000648
0.7899998973
0.7899997428
0.7899996256
0.7899995553
0.7899995089
0.7899994718
0.7899994788
0.7899995492
0.7899996603
0.7899997715
0.7899998973
0.7900000067
0.7900008403
0.790000764
0.7900007355
0.7900007851
0.7900008684
0.7900009661
0.7900009498
0.7900006237
0.7900004017
0.7900003625
0.7900003845
0.7900003925
0.7900003432
0.7900002251
0.7900000516
0.7899998514
0.7899996584
0.7899995024
0.7899994015
0.7899993495
0.7899993287
0.7899993471
0.7899994166
0.7899995205
0.7899996267
0.7899997589
0.7899998887
0.7900007914
0.790000768
0.7900007558
0.7900007542
0.7900008064
0.7900009026
0.7900009476
0.7900006709
0.7900003945
0.7900003312
0.7900003432
0.7900003495
0.7900003001
0.7900001784
0.7899999956
0.7899997804
0.7899995678
0.7899993904
0.7899992707
0.7899992122
0.7899992016
0.7899992311
0.7899992992
0.7899993922
0.7899994964
0.7899996309
0.7899998064
0.7900006737
0.7900007009
0.7900007047
0.7900007067
0.7900007527
0.7900008474
0.7900009361
0.7900007552
0.7900004118
0.7900002858
0.7900002623
0.7900002521
0.7900001975
0.7900000759
0.7899998944
0.7899996794
0.7899994648
0.7899992832
0.7899991586
0.7899990993
0.7899990961
0.7899991337
0.7899992001
0.7899992844
0.7899993921
0.7899995367
0.7899997813
0.7900004481
0.7900005132
0.7900004766
0.7900004434
0.7900005393
0.7900007374
0.790000906
0.7900008214
0.7900004501
0.7900002438
0.7900001649
0.7900001224
0.7900000546
0.7899999327
0.7899997589
0.7899995552
0.7899993527
0.7899991817
0.7899990656
0.7899990138
0.789999019
0.7899990622
0.789999126
0.7899992047
0.789999314
0.7899994754
0.7899997754
0.7900004153
0.7900004187
0.7900002289
0.7900001517
0.7900002687
0.790000545
0.7900008239
0.7900008528
0.7900005101
0.7900002239
0.7900000794
0.7899999906
0.7899999
0.7899997746
0.7899996106
0.7899994249
0.7899992439
0.7899990942
0.7899989966
0.7899989594
0.7899989748
0.7899990218
0.7899990817
0.789999155
0.7899992649
0.7899994415
0.7899997751
0.7900004658
0.7900002911
0.7900000126
0.7899999581
0.790000079
0.7900003458
0.7900006421
0.7900007951
0.7900005842
0.7900002384
0.7900000245
0.7899998824
0.7899997621
0.7899996291
0.7899994746
0.7899993099
0.7899991556
0.7899990335
0.7899989601
0.7899989412
0.789998967
0.7899990154
0.7899990696
0.7899991355
0.7899992449
0.7899994304
0.7899997782
0.7900004818
0.7900002947
0.7899999736
0.7899999003
0.7900000029
0.7900002587
0.7900005538
0.79000073
0.7900005972
0.7900002635
0.7900000042
0.7899998156
0.7899996637
0.7899995204
0.7899993744
0.7899992313
0.7899991056
0.7899990131
0.7899989653
0.789998964
0.7899989973
0.7899990433
0.789999087
0.7899991442
0.7899992515
0.7899994384
0.7899997854
0.7900003165
0.7900001973
0.7899999839
0.7899998959
0.7899999889
0.7900002488
0.7900005283
0.7900006431
0.7900005165
0.7900002515
0.7900000009
0.7899997928
0.7899996164
0.7899994642
0.7899993269
0.7899992053
0.7899991078
0.7899990437
0.7899990186
0.7899990297
0.7899990619
0.7899990982
0.7899991283
0.7899991767
0.7899992798
0.7899994617
0.789999797
0.7900004715
0.7900000631
0.7899999432
0.7899999151
0.7900000583
0.7900003155
0.7900004768
0.7900004606
0.7900003306
0.7900001701
0.7899999884
0.7899997958
0.7899996158
0.7899994625
0.7899993368
0.7899992375
0.7899991669
0.7899991276
0.7899991189
0.7899991322
0.7899991551
0.7899991716
0.7899991858
0.7899992262
0.7899993234
0.7899994949
0.7899998108
0.7900007028
0.7900002254
0.789999984
0.7899999575
0.7900001123
0.7900002519
0.7900002277
0.7900001288
0.790000055
0.7900000233
0.7899999479
0.7899998016
0.7899996391
0.7899994983
0.7899993907
0.7899993161
0.7899992715
0.7899992527
0.7899992516
0.7899992575
0.7899992593
0.7899992518
0.7899992506
0.7899992834
0.7899993726
0.7899995302
0.7899998234
0.7900007695
0.790000377
0.7900000683
0.7900000478
0.7900001232
0.7900000293
0.7899998848
0.7899998013
0.7899998059
0.7899998656
0.7899998807
0.789999789
0.7899996549
0.7899995367
0.7899994538
0.7899994069
0.7899993882
0.7899993849
0.7899993866
0.7899993806
0.7899993591
0.7899993287
0.7899993133
0.7899993375
0.7899994165
0.78999956
0.7899998309
0.7900008822
0.7900004373
0.7900001667
0.7900000555
0.789999909
0.7899997116
0.7899995869
0.789999569
0.7899996297
0.7899997331
0.7899997947
0.7899997402
0.7899996292
0.7899995327
0.7899994753
0.789999455
0.7899994599
0.7899994751
0.7899994851
0.7899994753
0.7899994408
0.7899993951
0.7899993671
0.78999938
0.7899994481
0.7899995807
0.7899998321
0.7900007039
0.7900003184
0.7900000614
0.7899998379
0.7899996087
0.7899994407
0.7899993917
0.7899994233
0.7899995074
0.7899996275
0.7899997057
0.7899996592
0.7899995521
0.7899994647
0.7899994231
0.7899994229
0.7899994503
0.7899994888
0.7899995197
0.7899995254
0.7899994979
0.7899994499
0.7899994119
0.7899994123
0.7899994712
0.7899995972
0.7899998312
0.7900003135
0.7899999897
0.7899997417
0.7899995331
0.789999359
0.7899992689
0.789999264
0.7899993216
0.7899994177
0.7899995472
0.7899996302
0.789999573
0.7899994515
0.7899993586
0.78999932
0.7899993297
0.7899993737
0.7899994359
0.789999497
0.7899995352
0.7899995345
0.7899994987
0.7899994576
0.7899994492
0.7899995025
0.7899996242
0.7899998393
0.7899999239
0.7899996287
0.7899994322
0.789999293
0.7899991972
0.7899991583
0.7899991799
0.7899992499
0.7899993533
0.789999491
0.7899995733
0.7899995054
0.789999368
0.7899992645
0.7899992223
0.7899992341
0.7899992865
0.7899993658
0.7899994544
0.7899995286
0.7899995639
0.7899995524
0.7899995197
0.7899995118
0.7899995646
0.789999681
0.7899998718
0.7899996086
0.789999366
0.7899992246
0.7899991383
0.7899990921
0.7899990869
0.7899991253
0.7899992008
0.7899993127
0.7899994497
0.78999953
0.7899994677
0.7899993292
0.7899992209
0.7899991756
0.7899991876
0.7899992419
0.7899993291
0.789999435
0.7899995366
0.7899996051
0.7899996235
0.7899996111
0.7899996152
0.7899996733
0.789999783
0.7899999424
0.7899994185
0.7899992301
0.789999121
0.7899990573
0.7899990339
0.7899990463
0.7899990927
0.7899991742
0.7899992881
0.7899994156
0.7899994992
0.7899994647
0.7899993482
0.7899992467
0.7899992007
0.7899992112
0.7899992655
0.7899993536
0.7899994661
0.7899995823
0.7899996744
0.7899997213
0.7899997357
0.7899997607
0.7899998298
0.7899999342
0.7900000586
0.7899993768
0.7899992223
0.7899991214
0.7899990568
0.7899990345
0.7899990518
0.7899991047
0.7899991888
0.7899992963
0.7899994117
0.7899994993
0.7899995024
0.7899994282
0.7899993488
0.7899993076
0.7899993138
0.7899993634
0.7899994483
0.7899995581
0.7899996766
0.7899997796
0.7899998466
0.7899998857
0.7899999336
0.7900000163
0.7900001205
0.7900002212
0.7899994776
0.7899993449
0.789999239
0.7899991633
0.7899991353
0.7899991502
0.7899991995
0.7899992754
0.7899993683
0.7899994653
0.789999545
0.7899995755
0.7899995514
0.7899995102
0.7899994859
0.7899994925
0.789999533
0.7899996043
0.7899996995
0.789999806
0.7899999041
0.7899999766
0.7900000305
0.7900000951
0.7900001868
0.7900002946
0.7900004093
0.7899997401
0.7899996398
0.7899995412
0.7899994772
0.7899994614
0.7899994755
0.7899995089
0.7899995548
0.7899996062
0.789999655
0.7899996938
0.7899997156
0.7899997222
0.7899997257
0.7899997364
0.789999758
0.789999792
0.7899998397
0.7899998996
0.789999965
0.7900000243
0.7900000699
0.7900001128
0.7900001772
0.790000275
0.7900003967
0.7900005554
0.7900005321
0.7900004054
0.7900002982
0.7900002432
0.7900001961
0.7900001524
0.7900001567
0.7900001992
0.7900002452
0.7900003598
0.7900004643
0.7900005507
0.7900006067
0.7900006134
0.7900005657
0.7900007516
0.7900007478
0.7900007496
0.7900007076
0.7900005844
0.7900004607
0.7900003712
0.7900002836
0.7900002115
0.7900001926
0.7900001853
0.7900000535
0.7900003067
0.7900004371
0.7900005286
0.7900005922
0.7900006152
0.7900006003
0.7900005317
0.7900003333
0.7900002237
0.7900002978
0.7900003481
0.7900002136
0.7900000586
0.790000025
0.790000915
0.790000913
0.7900009333
0.7900009644
0.7900009844
0.7900009611
0.79000086
0.7900007241
0.790000571
0.7900004043
0.7900002833
0.7900002444
0.7900002464
0.790000269
0.7900003481
0.7900004227
0.7900004889
0.7900005379
0.7900005556
0.7900005282
0.7900004731
0.7900003582
0.7900001815
0.7900001668
0.790000194
0.7900001192
0.7900000671
0.790000067
0.7900011673
0.7900011634
0.790001163
0.7900011632
0.7900011447
0.7900010955
0.7900010097
0.7900008868
0.7900007102
0.7900005003
0.7900003453
0.7900002761
0.7900002568
0.7900003006
0.7900003499
0.7900003974
0.7900004441
0.7900004837
0.7900005057
0.7900005027
0.7900004713
0.7900004197
0.7900003127
0.7900002761
0.7900002251
0.7900001488
0.7900001159
0.790000119
0.7900012354
0.7900011973
0.7900011675
0.7900011203
0.7900010731
0.7900010228
0.790000941
0.7900007811
0.7900005617
0.7900003847
0.7900002894
0.7900002542
0.7900002952
0.7900003303
0.7900003593
0.7900003884
0.7900004132
0.7900004255
0.7900004189
0.790000392
0.7900003371
0.7900002634
0.7900002081
0.7900001632
0.7900001231
0.7900001091
0.7900001319
0.7900011695
0.7900010636
0.7900010555
0.7900009923
0.7900009936
0.7900009932
0.7900009421
0.7900007893
0.7900005768
0.7900004011
0.7900003024
0.7900002697
0.7900002761
0.790000286
0.7900002983
0.7900003138
0.7900003264
0.7900003282
0.7900003196
0.7900003026
0.7900002713
0.7900002246
0.7900001721
0.7900001152
0.7900000764
0.7900000686
0.7900000993
0.7900010673
0.7900009984
0.7900009499
0.7900007365
0.7900009062
0.7900009682
0.7900009216
0.7900007547
0.7900005536
0.7900003944
0.7900002977
0.7900002547
0.7900002362
0.7900002243
0.7900002163
0.7900002129
0.7900002093
0.7900002037
0.790000193
0.7900001801
0.7900001635
0.7900001397
0.7900001086
0.7900000775
0.7900000586
0.7900000605
0.7900000775
0.7900009465
0.7900008858
0.7900009091
0.7900008637
0.7900009272
0.7900009588
0.7900008731
0.7900006921
0.7900005157
0.7900003924
0.7900003174
0.7900002716
0.7900002319
0.7900001885
0.790000144
0.7900001058
0.790000079
0.7900000614
0.7900000464
0.7900000314
0.7900000204
0.7900000204
0.7900000267
0.7900000372
0.7900000564
0.7900000904
0.7900001217
0.7900008555
0.7900008084
0.7900012758
0.7900009016
0.7900009241
0.7900009232
0.7900007892
0.7900006278
0.7900005021
0.7900004281
0.7900003857
0.7900003478
0.7900002912
0.7900002104
0.7900001155
0.7900000246
0.789999952
0.7899999007
0.78999986
0.789999816
0.789999782
0.7899997865
0.7899998418
0.7899999306
0.7900000169
0.7900001015
0.7900001713
0.790000746
0.7900006772
0.7900007232
0.7900007561
0.7900008503
0.7900008627
0.7900007095
0.7900006104
0.7900005414
0.7900005101
0.7900004967
0.7900004664
0.7900003946
0.7900002768
0.7900001277
0.7899999735
0.7899998395
0.7899997382
0.7899996609
0.789999586
0.7899995258
0.7899995241
0.7899996069
0.7899997537
0.7899999082
0.7900000344
0.7900001236
0.7900007002
0.7900006241
0.790000791
0.7900007368
0.7900008004
0.790000811
0.7900006749
0.7900005727
0.7900005341
0.7900005479
0.7900005718
0.7900005611
0.7900004861
0.7900003417
0.7900001462
0.7899999326
0.7899997358
0.7899995795
0.7899994657
0.7899993767
0.7899993143
0.7899993168
0.7899994141
0.7899995866
0.7899997733
0.7899999221
0.790000006
0.7900006121
0.7900005354
0.7900005551
0.7900005775
0.7900006847
0.7900007532
0.790000693
0.7900005405
0.7900004949
0.79000053
0.7900005806
0.7900005891
0.7900005183
0.7900003601
0.790000134
0.7899998771
0.7899996312
0.7899994291
0.7899992844
0.7899991899
0.7899991412
0.7899991597
0.7899992656
0.7899994398
0.7899996261
0.7899997835
0.7899999011
0.7900005431
0.7900004879
0.7900004781
0.7900005067
0.7900005959
0.7900006889
0.7900006853
0.7900005248
0.7900004406
0.7900004624
0.7900005147
0.7900005309
0.790000466
0.7900003058
0.7900000675
0.7899997894
0.7899995166
0.7899992875
0.7899991242
0.7899990289
0.7899989964
0.7899990318
0.7899991412
0.7899993062
0.7899994831
0.789999649
0.7899998229
0.7900004326
0.7900003863
0.7900003494
0.7900003593
0.7900004742
0.7900006095
0.7900006698
0.7900005372
0.7900003916
0.7900003648
0.7900003898
0.7900003965
0.7900003326
0.7900001775
0.7899999434
0.789999666
0.7899993898
0.7899991552
0.7899989887
0.7899988983
0.7899988791
0.7899989257
0.789999033
0.7899991847
0.789999356
0.7899995377
0.7899997759
0.7900003059
0.7900002889
0.7900002078
0.7900001554
0.7900002771
0.7900004857
0.7900006287
0.7900005526
0.7900003607
0.7900002634
0.7900002378
0.7900002163
0.7900001442
0.7899999955
0.789999776
0.7899995159
0.7899992561
0.7899990354
0.7899988808
0.7899988025
0.7899987951
0.7899988471
0.789998948
0.7899990861
0.7899992545
0.7899994522
0.7899997385
0.7900002001
0.7900001595
0.7900000091
0.7899999219
0.7900000524
0.7900003102
0.7900005368
0.7900005494
0.7900003527
0.7900001861
0.7900000949
0.7900000288
0.7899999376
0.7899997917
0.7899995907
0.7899993577
0.7899991278
0.7899989353
0.7899988048
0.7899987454
0.7899987501
0.7899988041
0.7899988959
0.7899990207
0.789999185
0.7899993928
0.7899997088
0.790000099
0.7900000235
0.7899998482
0.7899997828
0.7899999011
0.7900001652
0.7900004258
0.790000513
0.790000358
0.7900001439
0.789999984
0.7899998657
0.789999747
0.7899995989
0.789999416
0.7899992144
0.7899990217
0.7899988661
0.7899987672
0.7899987306
0.7899987472
0.7899988005
0.7899988799
0.7899989918
0.7899991489
0.7899993591
0.7899996886
0.7899999525
0.7899998892
0.7899997418
0.7899996945
0.789999804
0.7900000645
0.7900003267
0.7900004421
0.7900003373
0.790000116
0.7899999136
0.7899997462
0.7899995975
0.7899994438
0.7899992773
0.7899991078
0.789998955
0.7899988394
0.7899987742
0.7899987603
0.7899987855
0.789998833
0.7899988994
0.789998997
0.7899991436
0.7899993488
0.7899996788
0.7899996571
0.7899996575
0.7899996459
0.78999964
0.7899997546
0.7900000019
0.7900002319
0.790000328
0.7900002553
0.7900000727
0.7899998671
0.7899996712
0.7899994995
0.7899993414
0.789999191
0.7899990529
0.7899989393
0.7899988625
0.7899988282
0.7899988314
0.7899988569
0.7899988955
0.7899989469
0.7899990292
0.7899991626
0.7899993575
0.7899996784
0.7899995663
0.7899993752
0.7899994975
0.7899995642
0.7899997174
0.7899999336
0.7900001025
0.7900001522
0.7900001048
0.7899999902
0.7899998209
0.7899996296
0.789999448
0.7899992916
0.7899991591
0.7899990519
0.7899989752
0.7899989328
0.7899989223
0.7899989321
0.7899989528
0.7899989767
0.7899990113
0.7899990782
0.7899991973
0.7899993786
0.7899996847
0.7899991057
0.7899991459
0.789999411
0.7899995289
0.7899996795
0.7899998165
0.7899998897
0.7899999106
0.7899999067
0.7899998703
0.7899997599
0.7899995941
0.7899994236
0.7899992775
0.7899991665
0.78999909
0.7899990469
0.789999033
0.7899990366
0.7899990479
0.7899990568
0.7899990624
0.7899990799
0.7899991323
0.7899992375
0.7899994047
0.7899996935
0.7899992988
0.7899993793
0.7899994537
0.7899995139
0.7899995757
0.7899996197
0.789999641
0.7899996747
0.7899997182
0.7899997395
0.7899996824
0.7899995487
0.7899993981
0.7899992718
0.7899991836
0.7899991365
0.7899991225
0.7899991312
0.7899991474
0.7899991569
0.789999152
0.7899991395
0.7899991416
0.7899991812
0.7899992744
0.7899994297
0.7899997017
0.7899995272
0.7899995081
0.7899994527
0.7899994305
0.7899994158
0.7899994004
0.7899994196
0.7899994832
0.7899995629
0.7899996179
0.7899995938
0.7899994846
0.7899993519
0.7899992439
0.7899991782
0.7899991558
0.7899991668
0.7899991965
0.7899992262
0.7899992382
0.7899992259
0.7899992015
0.7899991917
0.7899992207
0.789999305
0.7899994524
0.7899997091
0.789999641
0.7899994919
0.7899993674
0.7899992942
0.7899992326
0.7899992125
0.789999246
0.7899993349
0.7899994376
0.7899995122
0.789999505
0.7899994059
0.7899992812
0.789999184
0.789999133
0.7899991283
0.7899991592
0.7899992094
0.7899992577