/*--------------------------------*- C++ -*----------------------------------*\
  =========                 |
  \\      /  F ield         | OpenFOAM: The Open Source CFD Toolbox
   \\    /   O peration     | Website:  https://openfoam.org
    \\  /    A nd           | Version:  8
     \\/     M anipulation  |
\*---------------------------------------------------------------------------*/
FoamFile
{
    version     2.0;
    format      ascii;
    class       volScalarField;
    location    "2";
    object      nut;
}
// * * * * * * * * * * * * * * * * * * * * * * * * * * * * * * * * * * * * * //

dimensions      [0 2 -1 0 0 0 0];

internalField   nonuniform List<scalar> 
67451
(
0.0002156586872
0.0002409144413
0.0002363907541
0.0002127095222
0.0001827586162
0.0001640426076
0.0001704441096
0.0001788833329
0.0001872032861
0.000195101838
0.0001991468534
0.0001778914134
0.0001660860321
0.0001587871551
0.0001733955035
0.0002174790503
0.000240005044
0.0002306634198
0.0002038516371
0.0001752979616
0.0001634625919
0.0001737653169
0.0001776802252
0.000184271334
0.0001922462531
0.0001971834231
0.0001980561232
0.0001948261624
0.0001987403334
0.0002476480689
0.000353647257
0.0004279216141
0.0004255706232
0.0003644345851
0.0002690520675
0.0001923786818
0.0001407101472
0.0001733623851
0.0001693377961
0.000165715291
0.0001620760666
0.0001579521626
0.000155592819
0.0001714224153
0.0001851310782
0.0001774534822
0.0001611673789
0.0001550254338
0.0001662154044
0.0001835283749
0.0001784624512
0.0001803712336
0.0001849600844
0.0001899196229
0.0001920985966
0.0001886872634
0.0001906075676
0.0002362690377
0.0003363085233
0.0004380226453
0.0004653347539
0.0004358202385
0.0003643358906
0.0002789792393
0.0001778603364
0.0001825934035
0.0001803756087
0.0001775749242
0.0001738444475
0.0001687872355
0.0001622230065
0.0001577308418
0.0001531967707
0.0001483664899
0.0001498502646
0.0001594640738
0.000177045181
0.0002012104777
0.0001849833826
0.0001810442486
0.000180479598
0.0001800415318
0.000179644666
0.0001776032851
0.0001755989053
0.0001856890551
0.000242564919
0.0003625576582
0.0003918874726
0.0003549166679
0.0002897355405
0.0002187834901
0.0001509700641
0.0001947263704
0.0001904309217
0.0001853428531
0.0001792576851
0.0001713887626
0.000162029793
0.0001538136227
0.000151894966
0.0001599265262
0.0001725617155
0.0001885240831
0.0002089785415
0.0001963340788
0.0001910868886
0.0001876389853
0.0001824334189
0.0001761806185
0.0001695978503
0.0001638604186
0.0001616471257
0.0001741016966
0.0002598710475
0.0002923422626
0.0002596695815
0.0002088391593
0.000165544189
0.000132024715
0.0002066078547
0.0002013289491
0.0001953286252
0.0001890308854
0.0001800854357
0.0001700271375
0.0001619682591
0.0001625271747
0.0001737983473
0.0001866655166
0.0001999826935
0.0002057081927
0.0002094320826
0.0002083736285
0.0002051004579
0.0001992694432
0.0001918143229
0.0001837688614
0.0001769919822
0.0001723997742
0.0001745897502
0.0001880436462
0.00020499139
0.0001862454736
0.0001628371133
0.0001455891923
0.0001238944224
0.0002167972512
0.0002108677142
0.0002041265716
0.0001995924709
0.0001878893176
0.0001767190587
0.0001690444534
0.0001726237588
0.0001878590697
0.0002036203453
0.0002187465678
0.0002263771588
0.0002304079802
0.0002296423152
0.0002257949962
0.0002196105915
0.0002117776724
0.0002035752765
0.0001978457598
0.000199165547
0.0002071882151
0.000213583519
0.0002101333219
0.0001967995898
0.0001765525689
0.0001532207974
0.0001228639661
0.0002256869889
0.0002195573543
0.0002128165981
0.000202715242
0.0001922948044
0.0001812717011
0.0001749070725
0.0001820645577
0.0002017449889
0.0002213291382
0.0002391045585
0.0002484935993
0.0002523546231
0.00025142642
0.0002470861284
0.0002400120813
0.0002307472719
0.0002213023054
0.0002157999967
0.0002236689737
0.0002384037373
0.000248206004
0.0002478501661
0.0002371958986
0.0002166420173
0.0001869450072
0.0001445770877
0.0002316530833
0.0002259649458
0.0002239429334
0.0002088419697
0.0001966483396
0.0001849186469
0.0001806885536
0.0001910848635
0.0002152376232
0.0002403114304
0.0002581374883
0.000267122404
0.0002702651763
0.0002690501449
0.0002645270008
0.0002573959463
0.0002481447355
0.0002373046456
0.0002299840763
0.0002430663212
0.00026481366
0.0002775085163
0.0002798219527
0.0002710140564
0.0002515248634
0.0002245758782
0.0001794737876
0.0002356186111
0.0002289994522
0.0002225407536
0.0002111320406
0.0001994159877
0.0001874663643
0.0001868419271
0.0001991895533
0.0002281104172
0.0002564098628
0.0002731674665
0.0002810477916
0.000283481184
0.0002821025068
0.0002777454005
0.0002709379991
0.0002620595444
0.0002514584852
0.0002420568432
0.0002517710194
0.0002756239148
0.0002912067148
0.0002975504891
0.0002947093948
0.0002821003165
0.0002608454955
0.0002129679881
0.0002421395443
0.0002321884203
0.0002333517981
0.0002155084574
0.0002021023681
0.0001893263536
0.0001900492317
0.0002027428447
0.0002359313485
0.0002678680635
0.000283989946
0.0002906284255
0.0002922867133
0.0002907559901
0.0002867514308
0.0002806407846
0.0002726934719
0.0002631936966
0.0002530852649
0.0002499952891
0.000264620083
0.0002822325319
0.0002919851277
0.0002916742518
0.0002803858372
0.0002584907642
0.0002072248244
0.0002586402284
0.0002370849688
0.0002242739781
0.0002148988987
0.0002051342243
0.0001926355869
0.0001821958279
0.0002000514369
0.000244709258
0.0002767961162
0.0002910926501
0.0002962607494
0.0002971238239
0.0002954184835
0.0002917351973
0.0002863203081
0.0002793599032
0.0002711398723
0.0002622327383
0.00025480189
0.0002567127322
0.0002680594144
0.0002775827899
0.0002783550598
0.0002678563215
0.0002471326505
0.0001977303147
0.0002872547056
0.0002539640085
0.0002353447583
0.0002279923564
0.0002196375428
0.0002040225157
0.0001859130285
0.0001952574802
0.000241626059
0.0002764764842
0.0002925279612
0.000298457368
0.000299275304
0.0002975971166
0.0002941676908
0.000289237742
0.0002828987271
0.000275247937
0.0002665182447
0.0002576912156
0.0002530636388
0.0002560994191
0.0002614469981
0.0002612925544
0.0002517965793
0.0002341526279
0.0001910685568
0.0003214984528
0.0002834318618
0.0002651848668
0.000264455257
0.00025895875
0.000237315144
0.0002045404548
0.0001916066632
0.0002330101448
0.0002715209265
0.0002907473148
0.0002986548571
0.0002999323736
0.0002984600827
0.000295205021
0.0002905014262
0.0002844508323
0.0002771079377
0.0002685895093
0.0002593716282
0.000251593227
0.0002483028848
0.0002482089102
0.0002457086355
0.000237876425
0.0002238268518
0.0001875218315
0.0003675644747
0.0003315147162
0.0003140610147
0.0003181462936
0.0003145110793
0.0002904195731
0.0002467444352
0.0002049323193
0.0002210358325
0.0002618043717
0.0002856302819
0.0002965869199
0.000299091859
0.0002982291804
0.0002953210999
0.0002908531863
0.0002849880854
0.0002777893616
0.0002693336599
0.0002598772328
0.0002505326318
0.0002434055608
0.0002389590032
0.0002345241135
0.0002282100889
0.0002177587253
0.0001863785864
0.0003626246896
0.0003334727478
0.0003472842506
0.0003729972874
0.0003715300373
0.0003421016086
0.0002936738559
0.0002329890536
0.0002145025567
0.0002495563372
0.0002769791202
0.0002917070728
0.0002962061888
0.0002963746083
0.0002940316539
0.0002898746895
0.0002841720338
0.0002770338007
0.0002685380653
0.0002588466531
0.0002486072896
0.0002393373773
0.0002323104678
0.0002273152155
0.0002224268729
0.0002147349196
0.0001861544265
0.0003373642133
0.0003380320517
0.0004068898332
0.0004306856061
0.0004194551356
0.0003874587936
0.0003450702094
0.0002916192557
0.00023673979
0.0002353832276
0.0002636351576
0.0002834880076
0.0002907738537
0.000292407032
0.0002908685008
0.0002871318044
0.0002816096866
0.0002744874086
0.0002658711342
0.0002558883235
0.0002449943833
0.0002345278833
0.0002266868572
0.0002219833405
0.0002184945542
0.0002125948742
0.00018564973
0.0003082536458
0.0003259265273
0.0004060286787
0.0004254987878
0.0004132796136
0.0003834258911
0.0003448092462
0.0002954378092
0.0002391219204
0.000222283398
0.0002483506755
0.0002719524583
0.0002825152404
0.0002859668407
0.0002854419537
0.0002822291959
0.0002769125246
0.000269773499
0.0002609658006
0.0002506231357
0.0002392002207
0.0002284642035
0.000220907564
0.0002169390891
0.0002146402978
0.0002098519828
0.0001842803719
0.0002895511464
0.0003170987599
0.0003933019222
0.0004071209475
0.0003912967936
0.0003615402098
0.0003235401775
0.0002748456174
0.0002228564923
0.0002060501533
0.0002319183252
0.0002574558536
0.0002712973935
0.0002767799716
0.000277407543
0.000274781892
0.0002696754754
0.0002624855846
0.000253439458
0.0002427551992
0.0002312677242
0.000221220245
0.0002143221971
0.0002112575457
0.0002098981512
0.0002058966619
0.0001819074804
0.0003928590623
0.0004282963129
0.0004434072481
0.0004205857418
0.0003835307886
0.0003427604783
0.0002984813655
0.0002501005094
0.0002061519919
0.0001913849794
0.0002146415945
0.0002412882224
0.0002571403483
0.0002646230946
0.0002664345708
0.000264394132
0.0002594755792
0.0002522255088
0.0002430199974
0.000232441399
0.0002219035433
0.000212663914
0.000206664973
0.0002045408487
0.000203937543
0.0002006729475
0.0001786189403
0.0005058153263
0.0004564393687
0.0004529284466
0.0004163775208
0.0003667100008
0.0003175146639
0.0002720627594
0.0002345592512
0.0002056024931
0.0001888732607
0.000200435938
0.0002247928369
0.0002407722199
0.000249540094
0.0002523479074
0.0002508098016
0.0002460820134
0.0002389518333
0.0002302671004
0.0002208236977
0.0002112171968
0.0002029297459
0.0001979953995
0.000196789966
0.0001968513401
0.0001944276926
0.0001745947056
0.0003748957125
0.0004206986807
0.0004193703464
0.0003770691849
0.0003263113166
0.0002824039344
0.0002534852684
0.000237514411
0.0002221726393
0.0002028114765
0.0001959833078
0.000210333439
0.0002249559614
0.0002332192949
0.0002360885642
0.0002348874221
0.0002307139242
0.0002245536623
0.0002169649167
0.0002084549543
0.0001997889662
0.0001925938105
0.0001887885855
0.0001884115686
0.0001890790108
0.0001875941538
0.0001700288394
0.0002750513467
0.0003692669778
0.0003588970243
0.0003176440308
0.0002792629029
0.0002587856052
0.0002540806274
0.0002509944773
0.0002399198032
0.0002206569468
0.000202761566
0.0002022585506
0.0002120854414
0.0002194491785
0.0002220403758
0.0002209088839
0.0002171476379
0.000211534272
0.0002046042538
0.0001968364719
0.0001890733417
0.0001829398535
0.000180087914
0.0001802837717
0.0001813901151
0.0001807322506
0.0001650993175
0.0002216671687
0.0003041885209
0.0002902840641
0.000263017814
0.0002522583054
0.0002574197214
0.0002643237429
0.0002628376991
0.0002511121658
0.0002323821893
0.0002117056899
0.0002014245533
0.000205304328
0.0002113961547
0.0002137519671
0.0002124838062
0.0002086454193
0.0002030444386
0.0001962464964
0.0001887764339
0.0001814952047
0.0001759043552
0.0001733838459
0.0001736081074
0.0001747311314
0.000174429187
0.0001599711164
0.0002038678268
0.0002456024425
0.0002381103402
0.0002347520312
0.0002476602259
0.0002629910406
0.000269947368
0.0002665136097
0.0002540538464
0.0002358150566
0.0002154846357
0.0002026387655
0.000204303384
0.0002105698428
0.0002135091153
0.0002123881496
0.0002083018796
0.0002022416294
0.0001949186055
0.0001869607946
0.0001792322901
0.0001730959634
0.0001698351789
0.0001692671619
0.000169753118
0.0001690727244
0.0001548052586
0.0001998376988
0.000215426768
0.0002170614481
0.0002277062494
0.0002474480898
0.0002621615281
0.0002666028212
0.0002616224758
0.0002490270524
0.0002319942176
0.0002131564239
0.0002018643657
0.0002055546056
0.0002142436144
0.0002191435023
0.0002189863824
0.0002148990287
0.00020827199
0.0002000678415
0.0001910291192
0.0001820210818
0.0001743066614
0.0001692502578
0.0001670443752
0.0001662487874
0.0001645554557
0.0001496906946
0.0002024866669
0.0002100510211
0.0002152108035
0.0002266151148
0.0002432540314
0.0002541423377
0.0002561730969
0.0002503014127
0.0002387724361
0.0002235211955
0.0002068940346
0.000198617757
0.0002057338407
0.0002175501287
0.0002251125397
0.000226784561
0.0002231822878
0.0002161749194
0.0002072709575
0.0001972268526
0.0001868556013
0.0001772934306
0.0001699718219
0.000165583149
0.0001630921567
0.0001601228573
0.0001444120799
0.0002067356856
0.0002125365826
0.0002180428314
0.0002267615766
0.0002375656515
0.0002437761304
0.0002432895205
0.0002373600265
0.0002274481539
0.0002142002851
0.0002000550764
0.0001940007407
0.0002027882196
0.0002164418666
0.0002259028683
0.0002294446948
0.0002271861304
0.00022057386
0.0002116960521
0.0002013007053
0.0001901348198
0.0001791578815
0.0001697430365
0.0001630463447
0.0001586977605
0.0001544556104
0.0001380755451
0.0002077747828
0.0002133405798
0.0002197033419
0.0002271530205
0.0002335605718
0.0002359781555
0.0002339931377
0.0002282960225
0.0002195066984
0.0002080837977
0.0001958347973
0.0001895139956
0.0001960514859
0.0002090395132
0.0002191364534
0.0002236144988
0.0002228906054
0.0002180677904
0.000210342785
0.0002005654288
0.0001894459883
0.0001777549562
0.0001667144066
0.0001578364993
0.0001515457375
0.0001458810506
0.0001287154296
0.0002029904913
0.0002090329691
0.0002170145814
0.0002246017847
0.0002292964497
0.0002303013094
0.0002279162489
0.0002227208092
0.0002150868766
0.0002052466465
0.000194098183
0.000185583132
0.0001860565608
0.0001947595122
0.0002041298001
0.0002096417565
0.0002106045561
0.0002076826905
0.0002017147172
0.0001933738847
0.0001831381847
0.0001714695499
0.000159345987
0.0001484737454
0.0001400228076
0.0001322555041
0.0001128300163
0.0001832599079
0.0001892961188
0.0001981052065
0.0002061984442
0.0002107320748
0.0002123756098
0.000211642071
0.0002088241352
0.0002039814727
0.0001970031713
0.0001879509221
0.0001781715558
0.0001714709086
0.0001715482025
0.0001767210565
0.0001819853342
0.0001845311756
0.0001839866252
0.0001807203548
0.0001750412034
0.0001670673453
0.0001569096317
0.0001451130607
0.0001329125947
0.0001216968743
0.0001107482978
8.937863248e-05
0.0003874070486
0.0004776122441
0.0004921856581
0.0004517990432
0.00041322048
0.0004715185541
0.0006013060917
0.0007396562194
0.0008480082
0.0009023240787
0.0009177975837
0.0003616704351
0.0003008341546
0.0002627691129
0.0002735913408
0.0003469680667
0.0004222301664
0.0004327168841
0.0004103843601
0.0004042207464
0.00049306117
0.0006486281636
0.0007613753385
0.0008415708772
0.0008950230714
0.0009078456657
0.0009022627181
0.0008881564192
0.000851778508
0.000840241689
0.0009803502178
0.001107406735
0.001165893393
0.001025658104
0.000700416521
0.0004349094391
0.0001432598543
0.0003298793461
0.0003023272349
0.0002813471314
0.0002667547735
0.0002583334888
0.000262320184
0.0002897424829
0.0003248058351
0.0003297158211
0.0003405304493
0.0003907184301
0.000534553279
0.0007309716383
0.0007867835736
0.0008056067101
0.0008621370499
0.0008789881606
0.0008758227576
0.0008638017297
0.0008343726179
0.0008275652954
0.001003455734
0.001162252635
0.00121971453
0.001080704541
0.0007198270837
0.0003855311345
0.0001408970102
0.000328487791
0.0003258725853
0.000323740546
0.0003204661547
0.0003144314475
0.0003054564693
0.0002897074772
0.0002714560834
0.0002702495345
0.0003113636945
0.0003975447632
0.0005895698083
0.000787162289
0.0008172061045
0.0007612699855
0.0007778198737
0.0007973597498
0.0008004863902
0.0007757592913
0.000740816312
0.0007082710836
0.0008063434427
0.000976015099
0.001019241656
0.0008180317525
0.0005145096827
0.0003066569945
0.0001310613639
0.0004663110299
0.0004576733912
0.0004437674462
0.0004237484092
0.000390642607
0.0003407767096
0.0002936123748
0.0002841328502
0.000334977519
0.0004368843027
0.0006272589916
0.000789975277
0.0008163873614
0.000731557328
0.0007104590524
0.00069379356
0.0006692183406
0.0006306021005
0.0005860999259
0.0005400103737
0.0005265462809
0.000579010744
0.0005876646101
0.0004590417727
0.0003526043866
0.0002690563616
0.0001236815019
0.0006475229558
0.0006253410097
0.000596761621
0.0005636679946
0.0004841853649
0.0003916408651
0.0003259359053
0.0003241007009
0.0003952601439
0.0005071713118
0.0006424091037
0.0007462164588
0.0007843713107
0.00075923259
0.0007332731872
0.0006904637364
0.0006352905401
0.0005741007113
0.0005148051722
0.0004614967875
0.0004265344917
0.0004081750639
0.0003832683133
0.0003624545933
0.0003348936713
0.000272864213
0.0001198272678
0.0008067177204
0.0007726885706
0.0007353987239
0.0006898971283
0.0005607053353
0.0004224362958
0.000355990508
0.0003797816783
0.0004854759233
0.0006223794878
0.0007492636427
0.0008255532557
0.0008781719934
0.0008815371142
0.0008583606712
0.0008040865652
0.0007345826953
0.000657619612
0.0005896837833
0.0005415989363
0.0005128225223
0.0004811097404
0.0004350904452
0.000385971412
0.0003413467601
0.0002777804363
0.0001187239944
0.0009095018147
0.0008702396276
0.0008209787033
0.0007166300282
0.0005685372019
0.0004355031649
0.0004009956249
0.0004621993679
0.0006066688809
0.0007722008148
0.0008899147768
0.0009580790771
0.0009899822223
0.0009909834387
0.0009698959628
0.0009321003132
0.0008809083687
0.00080182305
0.0007330614924
0.0007098853926
0.0007070627787
0.0006862714478
0.0006466119862
0.0005460857029
0.0004124946039
0.000288101238
0.0001255416949
0.0009885404572
0.0009736865388
0.0009734011291
0.0007680880171
0.0005888442632
0.0004622945134
0.0004926770389
0.0005924410776
0.0007580377537
0.0009088366869
0.001002650861
0.00105403584
0.001072858542
0.001066198327
0.001040740809
0.001002935524
0.0009594156771
0.0009140503821
0.0008641451097
0.0008338116116
0.0008144929182
0.0008030086672
0.0007812644106
0.0007163543468
0.0005952690503
0.0003727538931
0.0001474232252
0.001039635291
0.0009916135192
0.0009191645281
0.0007747151635
0.0006059618585
0.0005020004056
0.0006353265625
0.0007708473674
0.0009119793324
0.001017618505
0.001083897908
0.001116357861
0.001122630988
0.00110885044
0.001080140598
0.001041598633
0.0009992984024
0.0009589481487
0.0009210777455
0.0008854807615
0.0008609820954
0.0008541053087
0.0008486072298
0.0008103366599
0.0007051086099
0.0005025847262
0.0001815972487
0.001081019244
0.001083649468
0.00105314102
0.0008286478473
0.0006309165078
0.0005062139324
0.0005910834916
0.0007624243675
0.0009499320658
0.001063988805
0.001122406475
0.001143824585
0.001141149043
0.00112228769
0.001092174526
0.001054581188
0.001013893923
0.0009754335569
0.0009422061075
0.0009126808574
0.0008886765813
0.0008788775181
0.0008754912789
0.0008484520982
0.0007594321966
0.0005579967735
0.0001861341128
0.001080555458
0.001025998741
0.0009704970813
0.0007928346175
0.00063564025
0.0004988424538
0.0004653003454
0.000616414257
0.0008967159358
0.001054166249
0.001124441169
0.001145441333
0.001139650752
0.001118767348
0.001088842756
0.001053104978
0.00101434756
0.0009763299391
0.0009429051684
0.0009158380632
0.0008948549256
0.0008824332448
0.0008741110759
0.0008466849305
0.0007656809748
0.0005573309381
0.0001842107803
0.001029624059
0.0009511723542
0.0008450352235
0.0007308350975
0.0006196276817
0.0005026817698
0.0004279256524
0.0005184090783
0.0008163368238
0.001023139906
0.001113444178
0.001140351915
0.001135656514
0.001114897002
0.001085833331
0.001051859968
0.001014897695
0.0009773605227
0.0009425500961
0.0009132855228
0.0008900791433
0.0008730193067
0.0008580658725
0.0008270710791
0.0007462337705
0.0005470317977
0.0001846624478
0.00100839616
0.0009464488114
0.0008260192813
0.0007210208041
0.0006201858034
0.0005100980296
0.0004172988895
0.0004408027791
0.0006788282694
0.0009572903566
0.001085473884
0.00112920411
0.00113222736
0.001115357948
0.001088828578
0.001056840378
0.001021118402
0.0009832948792
0.0009459846909
0.000912325747
0.0008842439017
0.0008620151698
0.0008422258152
0.0008099415026
0.0007249342036
0.0005494777874
0.0001867573531
0.001015283403
0.0009813629535
0.0009683827327
0.0009133593142
0.0007768989547
0.0005794383894
0.0004183670996
0.000380658408
0.0005475031267
0.0008611592197
0.001036199373
0.001107397061
0.001125240542
0.001116476167
0.001094515944
0.001065068993
0.00103033449
0.0009917710726
0.0009516230555
0.000913171649
0.0008796209587
0.0008526453963
0.0008299775092
0.0007972451374
0.0007199420695
0.0005632281129
0.0001894869584
0.001005943818
0.001079836561
0.001130562888
0.001077823449
0.0009385805942
0.0007209182141
0.0004840250185
0.0003609332854
0.0004469729493
0.0007205595008
0.0009597772044
0.001068996818
0.001108840289
0.001112728182
0.001097800597
0.001071874706
0.001038198878
0.0009986068992
0.0009554004796
0.0009121144024
0.0008730267497
0.0008414956333
0.0008166829703
0.0007837000206
0.0007206435046
0.0005766295493
0.0001914155195
0.0008214149635
0.001075634359
0.001169005727
0.001138669826
0.001018213623
0.0008013296171
0.000554993692
0.0003714186942
0.0003737284135
0.0005709399783
0.0008526976821
0.001008068791
0.001077166544
0.001098389234
0.001093160172
0.001071969512
0.001039597599
0.0009986996352
0.000952016311
0.0009035137723
0.0008583865159
0.0008214120931
0.0007909760383
0.0007634904625
0.000714667561
0.0005799160929
0.0001916578363
0.0007392322495
0.00103610274
0.001188856745
0.001162073565
0.00103304462
0.0008151163187
0.0005797296888
0.0003887049894
0.0003382278649
0.0004575051915
0.000713377312
0.0009228472675
0.00102713693
0.001069487667
0.001076145086
0.001060653895
0.001029659274
0.00098695474
0.0009359794543
0.0008811622335
0.0008280821546
0.0007808918093
0.0007478553843
0.0007299115282
0.0006942202891
0.0005685424256
0.0001899881742
0.0009850490241
0.001200218803
0.001260023652
0.001174872661
0.0009963087441
0.0007621043831
0.0005431887724
0.0003878868292
0.0003276185662
0.0003872206055
0.0005861969761
0.0008213675158
0.0009599230573
0.001024880075
0.001044325408
0.001034631882
0.001004441567
0.0009588729845
0.0009021859403
0.000839073773
0.0007747082789
0.0007172593256
0.0006888683075
0.0006818007685
0.0006572756169
0.0005425673913
0.0001866226919
0.001450727182
0.001341700045
0.001303033017
0.001167203443
0.0009395614744
0.0006984188386
0.000516626146
0.0004103392513
0.0003479340738
0.000357709043
0.0004932272938
0.0007120447841
0.0008802663268
0.0009666164743
0.0009978306046
0.0009925652245
0.0009614312056
0.0009109847141
0.000846384588
0.0007729966869
0.0006953516367
0.0006405988327
0.0006213002368
0.0006234691461
0.0006073324592
0.0005059284048
0.0001820250415
0.001538604449
0.001350726131
0.00126581388
0.001085964711
0.0008414757309
0.0006482908693
0.0005497163035
0.0004856431386
0.000411122048
0.000370688203
0.000444124699
0.0006196056721
0.0007975010596
0.000899898885
0.0009396820648
0.0009356670862
0.0009002354117
0.0008416575282
0.0007660656726
0.0006811585393
0.0006077196561
0.0005642922987
0.0005550137528
0.0005630495787
0.0005523259557
0.0004652693098
0.0001767222273
0.001085441694
0.001119412711
0.001082042667
0.0009090594511
0.0007415849846
0.0006681259502
0.0006520101702
0.0006133506244
0.0005194180113
0.0004253473489
0.0004374366042
0.00056188172
0.0007164260335
0.0008268291942
0.0008738822763
0.0008672433799
0.0008226248254
0.000752197353
0.0006698057455
0.0005903433595
0.0005301231934
0.0005001719333
0.0004990572091
0.0005096699097
0.000501795135
0.0004274204312
0.0001711831954
0.0006941339801
0.0008319687175
0.0008295796589
0.0007525751732
0.0007257167569
0.0007602800998
0.0007832278415
0.0007456899034
0.0006402902501
0.0005048932153
0.0004625796517
0.0005407996092
0.0006669166481
0.000767504002
0.000811319374
0.0008002622802
0.0007494589621
0.0006756068627
0.0005951453236
0.0005240866454
0.0004755656709
0.0004558584451
0.0004598233202
0.0004706702189
0.0004633099585
0.000397416171
0.0001657230972
0.0005753125526
0.0006669905111
0.0006931247925
0.0007218178379
0.0007961912332
0.0008668227058
0.0008757820909
0.0008219959048
0.0007225560532
0.0005754758853
0.0004993195776
0.0005471857044
0.0006561019019
0.0007506072503
0.0007923048647
0.0007788216341
0.0007244531539
0.0006471319329
0.000565073531
0.0004951700046
0.0004500337579
0.0004337980663
0.0004390379221
0.0004485359614
0.000439544617
0.0003767077134
0.0001604702285
0.0005801164005
0.0006331613038
0.0006960031737
0.0007806325026
0.0008779364652
0.0009246335826
0.0009150101042
0.0008530530264
0.000752902517
0.0006082784051
0.0005223322807
0.0005620341369
0.0006714044444
0.0007719293191
0.0008196861697
0.0008098127558
0.0007554515562
0.0006738692491
0.0005839742062
0.0005050369716
0.0004521789576
0.0004306477743
0.0004324288197
0.0004388588942
0.0004265127369
0.0003626122855
0.0001553620196
0.0006291813812
0.0006858415392
0.0007612935084
0.0008483667987
0.0009193289451
0.0009394260237
0.0009164271872
0.0008466610378
0.0007435563552
0.0005966955032
0.000517814366
0.000565484567
0.0006883227485
0.0008045875957
0.0008644922679
0.0008642106304
0.0008171343122
0.0007360850172
0.0006372808242
0.0005425605846
0.0004726185371
0.0004373097663
0.0004301747517
0.0004311113097
0.0004145841787
0.0003490143124
0.00015009719
0.0006932381824
0.0007552643403
0.0008219959028
0.0008868791774
0.0009249036865
0.0009268525182
0.0008912286607
0.0008159907375
0.0006957147787
0.0005553519112
0.000490576901
0.0005464291625
0.0006817755488
0.0008150971714
0.0008878946521
0.0008973622798
0.0008646766367
0.0007946692226
0.0006934609456
0.0005840253239
0.000493883689
0.0004399914836
0.000419561358
0.0004125347261
0.0003922161128
0.0003283280286
0.0001440066349
0.0007402695471
0.0007981479704
0.0008487551002
0.0008899915602
0.0009073467465
0.0008964334964
0.0008532606313
0.0007651333976
0.0006360895835
0.000511323133
0.0004545293166
0.0005030580698
0.0006338999926
0.0007756604103
0.0008653688089
0.0008893090235
0.0008690667018
0.0008126071081
0.0007153936819
0.0005988022209
0.0004937953319
0.0004234359358
0.0003892429895
0.0003734524567
0.0003509877853
0.0002944456259
0.0001358602654
0.0007337939988
0.0007845131828
0.0008258264947
0.0008562848476
0.0008661943509
0.0008485955789
0.0007946360359
0.0007020202423
0.0005853551608
0.0004772222521
0.0004182509603
0.0004399149452
0.0005384045472
0.0006652332523
0.0007651822416
0.000813008758
0.0008089946623
0.0007593878806
0.0006704052367
0.0005595723276
0.000454900373
0.0003792086708
0.0003367584882
0.0003143382896
0.0002920701023
0.0002476393615
0.0001238539746
0.0006110963325
0.0006503820046
0.0006884392172
0.0007180317927
0.0007266235228
0.0007085772581
0.0006618925451
0.0005897926737
0.0005036937284
0.0004215896746
0.0003654394078
0.0003560986999
0.0004006988089
0.0004791551091
0.0005557036741
0.000603151456
0.0006115490644
0.0005817866953
0.0005205767077
0.0004416145682
0.0003643404511
0.0003043268792
0.0002660222513
0.0002430585303
0.0002244508044
0.0001945052942
0.0001058574998
0.0002037130734
0.0002114065585
0.0002212501205
0.0002300679248
0.0002347017254
0.000234846436
0.0002308205393
0.0002232626008
0.0002130439214
0.0002012123406
0.0001891978384
0.0001795063746
0.0001755111058
0.0001787604141
0.000186335502
0.0001932114235
0.0001962070318
0.0001945181273
0.0001886057041
0.000179457992
0.000168233418
0.0001559816717
0.0001435257845
0.0001315621094
0.0001208398682
0.0001100656546
8.529819341e-05
0.000494046183
0.000574380701
0.0006731503998
0.0006969886865
0.0006712469783
0.0006953513862
0.0008191097479
0.000992460859
0.001144565503
0.001244328363
0.001280346828
0.00127184679
0.0012351971
0.001176588566
0.001067517753
0.000569159223
0.0004786948373
0.0004266447554
0.0004403962446
0.0005264568526
0.000617890529
0.0006464409617
0.0006493820525
0.0007089398726
0.0008617338144
0.001054013307
0.001195767787
0.001270620471
0.001288446903
0.001269647657
0.001228226701
0.001156651639
0.0009988228973
0.0009069840007
0.0009975481064
0.001119876272
0.001219131695
0.001156329096
0.0008957776075
0.0006163162712
0.0001593250227
0.0005339115138
0.0004846295691
0.0004451073762
0.0004192136749
0.0004117072407
0.0004301037464
0.0004695008411
0.0005151372909
0.0005450399928
0.0005969364427
0.0007103780406
0.0009050742131
0.001112228335
0.001231920799
0.001282992967
0.001287678048
0.001260809795
0.001218689523
0.001172060678
0.001104427155
0.001039833742
0.001121396211
0.001260328899
0.001328127556
0.001196067995
0.0008515284212
0.0005405188337
0.0001463497192
0.0004865922673
0.0004826324982
0.0004822638345
0.0004841579588
0.0004878999929
0.0004902762734
0.0004804571528
0.0004686809417
0.0004842677823
0.0005627660563
0.0007141750549
0.0009472429206
0.001163599565
0.001265181476
0.001282541311
0.001271453163
0.001237051
0.001190300035
0.001141904636
0.001100998497
0.001060927763
0.001086638388
0.001185181036
0.001202845457
0.00100016382
0.0007109485213
0.0004686692514
0.0001370814359
0.0006681709705
0.0006682720933
0.0006646079424
0.0006567054769
0.0006245958845
0.0005628684627
0.0004993335734
0.000490170891
0.0005750951915
0.0007442759996
0.0009796028784
0.001179199391
0.001266990368
0.00126328034
0.001231948132
0.001184087918
0.001126000845
0.001060935722
0.0009994027576
0.0009466083252
0.0009269682933
0.0009306556735
0.0008923298915
0.0007573393331
0.0006073609785
0.0004271200086
0.0001309751046
0.0009182543506
0.0009049288866
0.0008871833449
0.0008609019684
0.0007693802948
0.0006450374024
0.0005495031591
0.0005449627477
0.0006466353982
0.0008168936045
0.001013780277
0.00117341666
0.001254870105
0.001259196326
0.001223430191
0.001162200718
0.001086637204
0.001006617114
0.0009278022121
0.0008577763619
0.0008086127143
0.000770549986
0.0007272335291
0.0006644690768
0.0005783139886
0.000428541643
0.0001284452772
0.001136879294
0.001113849569
0.001087684807
0.001033122985
0.000871694931
0.0006966941583
0.0006086449784
0.0006416815723
0.0007730845714
0.0009462533576
0.00111232521
0.001236890675
0.00130099827
0.001309050823
0.001279833061
0.001224145199
0.001144614395
0.001054736371
0.0009673484256
0.0008950469026
0.0008440403894
0.0008009795779
0.0007479947816
0.0006784400807
0.0005860779266
0.0004362528702
0.0001282135264
0.001280793513
0.001264573027
0.001232534059
0.001075846349
0.000880262923
0.0007237067678
0.0007020609455
0.0007923763388
0.0009484448904
0.001114580213
0.001242433784
0.0013231712
0.001359442602
0.001358074621
0.001329301648
0.001281606833
0.001219095013
0.001141171659
0.001051341599
0.000980435904
0.0009352407648
0.0009052913179
0.0008670743478
0.0007885064453
0.0006515995083
0.0004539181383
0.0001310836233
0.001379544811
0.001421921634
0.001385802857
0.001157596174
0.0009033704487
0.0007832781723
0.000862216038
0.001004582711