/*--------------------------------*- C++ -*----------------------------------*\
  =========                 |
  \\      /  F ield         | OpenFOAM: The Open Source CFD Toolbox
   \\    /   O peration     | Website:  https://openfoam.org
    \\  /    A nd           | Version:  8
     \\/     M anipulation  |
\*---------------------------------------------------------------------------*/
FoamFile
{
    version     2.0;
    format      ascii;
    class       volScalarField;
    location    "2";
    object      O2;
}
// * * * * * * * * * * * * * * * * * * * * * * * * * * * * * * * * * * * * * //

dimensions      [0 0 0 0 0 0 0];

internalField   nonuniform List<scalar> 
67451
(
0.2099991511
0.2099991708
0.2099992527
0.2099993817
0.2099995859
0.2099996889
0.2099996052
0.2099995354
0.2099994457
0.2099993596
0.209999301
0.2099991402
0.2099991188
0.2099990232
0.2099988869
0.2099989237
0.2099990104
0.209999121
0.2099992889
0.2099995254
0.2099996465
0.2099996
0.2099995881
0.2099995143
0.2099994198
0.2099993388
0.2099992903
0.2099993099
0.2099993882
0.2099994339
0.2099992446
0.2099990073
0.2099991241
0.2099995841
0.20999998
0.2099999983
0.2099998399
0.2099989094
0.2099988856
0.2099988349
0.2099987684
0.2099986966
0.209998661
0.2099986489
0.2099987627
0.209999011
0.2099993236
0.2099995689
0.2099996307
0.2099995717
0.2099996229
0.2099995984
0.2099995255
0.2099994368
0.209999368
0.2099993494
0.2099994258
0.209999468
0.2099992782
0.2099988988
0.2099984596
0.209998537
0.2099990408
0.2099997123
0.2099999574
0.2099985735
0.2099985828
0.2099985783
0.2099985561
0.2099985206
0.2099985055
0.2099985211
0.2099986716
0.2099989378
0.2099992718
0.2099995334
0.2099996171
0.2099995378
0.2099996347
0.2099996656
0.2099996431
0.2099995803
0.2099995086
0.2099994571
0.2099994512
0.209999513
0.2099994848
0.2099991455
0.2099988574
0.2099991611
0.2099997357
0.2100000305
0.2099999722
0.2099985905
0.2099986059
0.2099985996
0.2099985733
0.2099985421
0.2099985308
0.2099986315
0.2099988893
0.2099992611
0.2099995426
0.2099996397
0.209999536
0.209999657
0.209999711
0.2099997319
0.2099997122
0.2099996852
0.209999654
0.2099996225
0.2099995545
0.2099995631
0.2099994981
0.2099994641
0.2099997416
0.2099999365
0.2099999188
0.2099998282
0.2099986553
0.2099986845
0.2099986921
0.2099986702
0.2099986234
0.2099985787
0.2099986476
0.2099989229
0.2099993106
0.2099995783
0.2099997134
0.2099997285
0.209999785
0.2099998092
0.2099998279
0.2099998278
0.2099998286
0.2099998392
0.2099998531
0.2099998366
0.2099998059
0.2099997453
0.2099997774
0.2099998798
0.2099998973
0.2099998582
0.2099997899
0.2099987162
0.2099987531
0.2099987764
0.2099987103
0.2099987018
0.2099986414
0.2099986991
0.2099990158
0.2099994095
0.2099996317
0.2099997412
0.209999774
0.2099998263
0.2099998656
0.2099999031
0.2099999261
0.2099999405
0.2099999596
0.2099999833
0.2099999855
0.2099999427
0.2099998926
0.2099998831
0.2099998913
0.2099998818
0.2099998445
0.2099998047
0.2099987815
0.2099988376
0.2099989028
0.2099988214
0.2099987606
0.2099986934
0.2099987573
0.2099991255
0.2099995097
0.2099996797
0.2099997513
0.2099997886
0.209999836
0.2099998905
0.2099999473
0.209999994
0.2100000244
0.210000042
0.2100000458
0.2100000359
0.2099999773
0.2099999
0.2099998592
0.209999856
0.2099998564
0.2099998204
0.2099997604
0.2099988497
0.2099989651
0.2099993376
0.2099990009
0.2099988492
0.2099987548
0.2099988073
0.2099992192
0.2099995844
0.2099997047
0.209999741
0.2099997675
0.2099998143
0.2099998823
0.2099999611
0.2100000347
0.2100000873
0.2100001089
0.2100000875
0.2100000623
0.2100000105
0.2099999277
0.2099998701
0.2099998457
0.2099998319
0.2099998062
0.2099997609
0.2099988742
0.2099989422
0.2099989852
0.2099989202
0.2099988592
0.2099987858
0.2099988144
0.2099992617
0.2099996111
0.209999702
0.2099997115
0.209999725
0.2099997706
0.20999985
0.2099999511
0.2100000548
0.210000139
0.2100001817
0.2100001551
0.2100001233
0.2100000981
0.2100000141
0.2099999258
0.2099998511
0.2099997776
0.2099996907
0.2099996649
0.2099989673
0.2099991284
0.2099994974
0.2099990686
0.2099989385
0.2099988405
0.2099987769
0.2099992603
0.2099996177
0.2099996906
0.2099996784
0.2099996788
0.2099997226
0.2099998115
0.2099999329
0.2100000665
0.2100001882
0.2100002736
0.2100002955
0.2100002623
0.2100001978
0.2100001009
0.2100000048
0.2099999251
0.2099998558
0.2099998153
0.2099998711
0.2099990003
0.2099990203
0.2099990889
0.2099990051
0.2099989549
0.2099988829
0.2099988391
0.2099992476
0.2099996411
0.2099996793
0.2099996663
0.2099996611
0.2099997044
0.2099997995
0.2099999345
0.2100000891
0.2100002394
0.2100003614
0.2100004313
0.2100004354
0.2100003597
0.2100002461
0.2100001409
0.2100000604
0.2100000022
0.2099999985
0.2100000356
0.2099991161
0.2099990641
0.2099990454
0.2099990092
0.209998997
0.2099989551
0.2099988766
0.209999175
0.2099996466
0.2099996961
0.209999695
0.2099996938
0.209999738
0.2099998345
0.2099999726
0.2100001327
0.2100002914
0.2100004252
0.2100005114
0.2100005355
0.2100004863
0.210000386
0.2100002841
0.210000209
0.2100001713
0.2100001859
0.2100001507
0.209999301
0.2099992324
0.2099991295
0.2099990477
0.2099990273
0.2099990169
0.2099989441
0.2099990807
0.209999614
0.2099997408
0.2099997534
0.2099997624
0.209999809
0.2099999048
0.210000041
0.2100001992
0.2100003574
0.210000493
0.2100005853
0.2100006202
0.2100005883
0.210000505
0.2100004141
0.2100003491
0.2100003256
0.2100003135
0.2100001673
0.2099991986
0.2099993918
0.2099993334
0.2099991986
0.2099991036
0.2099990552
0.2099989855
0.2099990275
0.2099995165
0.2099997902
0.2099998284
0.2099998569
0.2099999108
0.2100000068
0.2100001388
0.2100002902
0.2100004406
0.2100005695
0.2100006579
0.2100006925
0.2100006666
0.2100005946
0.2100005157
0.2100004619
0.2100004318
0.2100003683
0.2100001348
0.2099994762
0.2099995774
0.2099994746
0.209999354
0.2099992688
0.2099991716
0.2099990541
0.2099990142
0.2099994068
0.2099998087
0.2099999004
0.2099999572
0.2100000239
0.2100001223
0.2100002493
0.2100003909
0.2100005289
0.2100006451
0.2100007227
0.2100007493
0.2100007207
0.210000653
0.2100005834
0.2100005367
0.2100004872
0.2100003758
0.2100000952
0.2099995594
0.2099991417
0.2099991193
0.2099990629
0.2099990563
0.2099990403
0.2099989881
0.2099989862
0.2099992416
0.2099997202
0.2099999525
0.2100000446
0.2100001281
0.2100002313
0.2100003539
0.2100004843
0.2100006075
0.2100007075
0.21000077
0.2100007842
0.2100007481
0.2100006813
0.2100006211
0.2100005764
0.2100005069
0.2100003635
0.2100000657
0.209999622
0.2099990019
0.2099989511
0.2099989041
0.2099989616
0.2099990076
0.2099990252
0.2099990811
0.2099992641
0.2099996617
0.2099999654
0.2100001022
0.2100002043
0.2100003148
0.2100004339
0.2100005531
0.2100006603
0.2100007427
0.2100007884
0.2100007887
0.2100007452
0.2100006844
0.2100006354
0.2100005905
0.2100005053
0.210000345
0.2100000473
0.2099999663
0.2099994058
0.2099991161
0.2099990303
0.2099990593
0.209999084
0.2099991207
0.2099992031
0.2099993653
0.209999659
0.2099999457
0.2100001133
0.2100002363
0.2100003556
0.2100004721
0.2100005802
0.2100006715
0.2100007363
0.2100007657
0.2100007544
0.210000711
0.2100006666
0.2100006309
0.2100005856
0.2100004899
0.2100003242
0.2100000357
0.2099992747
0.2099983755
0.2099986423
0.2099989807
0.2099991455
0.209999203
0.209999277
0.209999392
0.2099995503
0.2099997279
0.2099999185
0.2100000787
0.2100002148
0.2100003412
0.2100004542
0.2100005509
0.2100006265
0.2100006751
0.2100006923
0.2100006801
0.2100006543
0.2100006309
0.2100006101
0.2100005647
0.210000464
0.2100003018
0.2100000276
0.2100016772
0.2099990297
0.2099988578
0.2099992113
0.2099994197
0.2099995174
0.2099996239
0.2099997563
0.2099998554
0.209999883
0.2099999218
0.2100000251
0.2100001483
0.210000271
0.2100003756
0.2100004587
0.2100005192
0.210000556
0.2100005726
0.2100005752
0.2100005751
0.2100005796
0.2100005744
0.2100005305
0.2100004317
0.2100002799
0.2100000231
0.2100014407
0.2099989728
0.2099991562
0.2099995706
0.2099997926
0.2099998876
0.2099999953
0.2100000774
0.2100000888
0.210000029
0.2099999605
0.2099999879
0.2100000795
0.2100001781
0.2100002617
0.2100003266
0.2100003744
0.2100004067
0.2100004304
0.2100004534
0.2100004835
0.2100005166
0.2100005261
0.2100004883
0.2100003991
0.2100002623
0.2100000245
0.2100001536
0.2099992156
0.2099996439
0.2099999442
0.210000073
0.2100001535
0.2100002055
0.2100002087
0.210000171
0.2100001032
0.2100000217
0.2100000055
0.2100000624
0.2100001308
0.2100001856
0.2100002257
0.2100002552
0.2100002787
0.2100003043
0.2100003406
0.2100003919
0.2100004448
0.210000469
0.2100004455
0.2100003733
0.2100002523
0.2100000341
0.2099995375
0.2099996223
0.2100000356
0.2100001791
0.2100002602
0.2100003042
0.2100003065
0.2100002754
0.2100002228
0.2100001584
0.210000093
0.2100000804
0.2100001279
0.2100001763
0.2100002054
0.2100002186
0.2100002231
0.2100002261
0.2100002362
0.2100002628
0.2100003105
0.2100003679
0.2100004073
0.2100004067
0.2100003548
0.210000248
0.2100000502
0.2099995518
0.2099999676
0.21000025
0.210000333
0.2100003848
0.2100003965
0.2100003758
0.2100003384
0.2100002843
0.2100002216
0.2100001679
0.2100001764
0.2100002433
0.2100002952
0.2100003139
0.2100003082
0.2100002881
0.2100002619
0.210000239
0.2100002304
0.2100002478
0.2100002924
0.2100003432
0.2100003666
0.2100003338
0.210000239
0.2100000631
0.2099998539
0.2100002454
0.2100004137
0.2100004588
0.2100004753
0.2100004647
0.2100004388
0.2100004015
0.2100003489
0.2100002937
0.2100002463
0.210000266
0.2100003529
0.2100004187
0.2100004406
0.2100004282
0.2100003916
0.21000034
0.2100002825
0.2100002318
0.2100002074
0.2100002259
0.2100002761
0.2100003138
0.2100002934
0.2100002092
0.2100000566
0.2100001638
0.2100004367
0.2100005283
0.2100005528
0.2100005476
0.2100005266
0.2100004977
0.2100004606
0.2100004191
0.2100003747
0.2100003263
0.2100003364
0.2100004217
0.210000493
0.2100005198
0.2100005087
0.2100004655
0.2100004002
0.2100003215
0.2100002412
0.2100001821
0.2100001708
0.210000206
0.2100002411
0.210000222
0.2100001442
0.2100000147
0.2100003599
0.2100005232
0.2100005823
0.2100006123
0.2100006076
0.2100005843
0.2100005534
0.2100005223
0.2100004924
0.2100004523
0.2100003952
0.2100003786
0.2100004394
0.210000501
0.2100005259
0.2100005167
0.2100004762
0.2100004097
0.2100003263
0.2100002348
0.2100001565
0.2100001206
0.2100001324
0.2100001492
0.2100001179
0.2100000379
0.2099999287
0.2100004113
0.2100005071
0.2100005654
0.2100006112
0.2100006155
0.2100005974
0.2100005727
0.2100005481
0.2100005212
0.2100004807
0.2100004204
0.2100003835
0.2100004101
0.2100004499
0.2100004638
0.2100004511
0.2100004155
0.2100003589
0.2100002833
0.2100001951
0.2100001126
0.2100000621
0.2100000501
0.2100000392
0.2099999853
0.2099998941
0.2099997945
0.2100003515
0.210000413
0.2100004774
0.210000521
0.2100005211
0.210000506
0.210000489
0.2100004727
0.2100004535
0.2100004251
0.2100003852
0.2100003539
0.2100003542
0.2100003645
0.2100003612
0.2100003427
0.2100003108
0.2100002642
0.210000201
0.2100001244
0.2100000483
0.209999993
0.2099999605
0.2099999198
0.2099998424
0.2099997379
0.2099996215
0.210000167
0.2100002064
0.2100002464
0.2100002219
0.2100001808
0.2100001617
0.2100001641
0.2100001802
0.2100002026
0.2100002247
0.2100002411
0.2100002495
0.2100002477
0.2100002294
0.2100001973
0.2100001625
0.2100001294
0.2100000948
0.2100000541
0.2100000068
0.2099999608
0.2099999242
0.2099998899
0.2099998336
0.2099997411
0.2099996221
0.2099994636
0.2099995399
0.2099996303
0.2099996825
0.2099997437
0.2099997832
0.2099997732
0.209999699
0.2099996229
0.2099995291
0.2099994385
0.20999937
0.2099991926
0.209999181
0.209999147
0.2099991719
0.209999322
0.2099994345
0.2099995335
0.2099996457
0.2099997222
0.2099997329
0.2099996911
0.2099996615
0.2099995696
0.2099994816
0.2099994045
0.20999935
0.2099993361
0.2099993524
0.2099993542
0.2099993222
0.2099993495
0.2099993675
0.209999537
0.2099997897
0.2099999011
0.2099998697
0.2099990076
0.2099989935
0.209998953
0.2099988981
0.2099988484
0.2099988472
0.2099989503
0.2099991085
0.2099992879
0.209999501
0.2099996581
0.209999693
0.2099996758
0.2099996436
0.2099995997
0.2099995349
0.2099994687
0.2099994194
0.2099993967
0.2099994326
0.2099994478
0.2099994905
0.2099996676
0.2099997344
0.2099998111
0.209999967
0.2099999074
0.2099998578
0.2099986909
0.2099986928
0.2099986838
0.2099986675
0.2099986587
0.209998686
0.2099987618
0.2099989014
0.2099991191
0.2099993933
0.2099995962
0.209999673
0.2099996941
0.2099996453
0.2099996311
0.2099995939
0.2099995454
0.2099995013
0.2099994724
0.2099994738
0.2099994898
0.2099995245
0.2099995971
0.2099997
0.2099997685
0.2099998113
0.2099998039
0.2099997983
0.2099986558
0.2099986732
0.2099986782
0.2099986851
0.209998707
0.209998744
0.2099988395
0.2099990481
0.209999342
0.2099995726
0.2099996845
0.2099997265
0.2099996717
0.209999668
0.2099996536
0.2099996293
0.2099996059
0.2099995893
0.2099995838
0.2099995738
0.2099996108
0.2099996203
0.2099997557
0.2099997735
0.2099997884
0.2099997942
0.2099997728
0.2099987318
0.2099987735
0.2099987791
0.209998787
0.2099987743
0.2099987705
0.2099988417
0.2099990585
0.2099993507
0.2099995758
0.2099996937
0.2099997222
0.2099997292
0.2099997358
0.2099997327
0.2099997237
0.2099997199
0.2099997257
0.2099997353
0.2099997344
0.2099997432
0.2099997473
0.2099997842
0.2099998332
0.2099998644
0.2099998616
0.2099998149
0.2099988322
0.2099988659
0.2099988708
0.2099989016
0.2099988429
0.2099987971
0.209998869
0.20999912
0.2099994067
0.2099996084
0.2099997236
0.2099997698
0.2099997954
0.2099998131
0.2099998253
0.2099998331
0.209999842
0.2099998587
0.2099998791
0.2099998862
0.2099998805
0.2099998737
0.2099998898
0.2099998974
0.209999896
0.2099998793
0.2099998489
0.209998943
0.2099989733
0.2099989413
0.2099989078
0.2099988722
0.2099988277
0.2099989228
0.2099992102
0.2099994814
0.2099996454
0.2099997355
0.2099997837
0.2099998225
0.2099998625
0.2099999022
0.2099999356
0.2099999613
0.2099999837
0.2100000013
0.210000013
0.2100000102
0.209999995
0.2099999775
0.2099999528
0.2099999113
0.2099998531
0.2099998027
0.209999051
0.2099991393
0.2099990212
0.2099989918
0.2099989266
0.2099988767
0.2099990004
0.2099993032
0.2099995449
0.2099996636
0.2099997185
0.2099997546
0.2099998012
0.2099998662
0.2099999418
0.2100000134
0.2100000688
0.2100001042
0.2100001243
0.2100001542
0.2100001755
0.2100001591
0.2100001092
0.2100000444
0.2099999736
0.2099998661
0.2099997802
0.2099991025
0.2099991625
0.209999168
0.2099990658
0.2099989804
0.2099989234
0.2099990672
0.2099993531
0.2099995595
0.2099996442
0.2099996695
0.209999691
0.2099997421
0.2099998307
0.2099999453
0.210000064
0.2100001646
0.2100002333
0.2100002748
0.2100003285
0.2100003762
0.2100003684
0.2100003003
0.2100001992
0.2100001005
0.2099999883
0.2099998505
0.2099991361
0.2099991938
0.2099988932
0.2099991087
0.2099990532
0.2099989874
0.209999159
0.2099994194
0.2099995973
0.2099996373
0.2099996253
0.2099996264
0.2099996768
0.2099997844
0.2099999352
0.2100001027
0.2100002572
0.2100003744
0.2100004447
0.2100004911
0.2100005282
0.2100005212
0.2100004508
0.2100003397
0.2100002285
0.2100001027
0.2099999933
0.2099991597
0.209999236
0.2099992645
0.2099992149
0.2099991316
0.2099990339
0.2099990502
0.2099993763
0.2099995983
0.2099996375
0.2099996155
0.2099996075
0.2099996568
0.2099997749
0.2099999484
0.2100001486
0.2100003416
0.2100004976
0.2100005985
0.2100006505
0.2100006713
0.2100006529
0.2100005834
0.2100004795
0.2100003733
0.2100002411
0.2100001113
0.2099992086
0.209999232
0.2099992442
0.2099992458
0.2099991936
0.2099990974
0.2099990524
0.2099993291
0.2099996055
0.2099996688
0.2099996568
0.2099996505
0.2099996999
0.2099998216
0.2100000044
0.2100002196
0.2100004322
0.2100006096
0.2100007293
0.2100007878
0.2100007984
0.2100007689
0.2100007008
0.2100006078
0.2100005036
0.2100003691
0.2100001936
0.2099993263
0.2099992991
0.2099992953
0.2099992933
0.2099992473
0.2099991526
0.2099990639
0.2099992448
0.2099995882
0.2099997142
0.2099997377
0.2099997479
0.2099998025
0.2099999241
0.2100001056
0.2100003206
0.2100005352
0.2100007168
0.2100008414
0.2100009007
0.2100009039
0.2100008663
0.2100007999
0.2100007156
0.2100006079
0.2100004633
0.2100002187
0.2099995519
0.2099994868
0.2099995234
0.2099995566
0.2099994607
0.2099992626
0.209999094
0.2099991786
0.2099995499
0.2099997562
0.2099998351
0.2099998776
0.2099999454
0.2100000673
0.2100002411
0.2100004448
0.2100006473
0.2100008183
0.2100009344
0.2100009862
0.210000981
0.2100009378
0.210000874
0.2100007953
0.210000686
0.2100005246
0.2100002246
0.2099995847
0.2099995813
0.2099997711
0.2099998483
0.2099997313
0.209999455
0.2099991761
0.2099991472
0.2099994899
0.2099997761
0.2099999206
0.2100000094
0.2100001
0.2100002254
0.2100003894
0.2100005751
0.2100007561
0.2100009058
0.2100010034
0.2100010406
0.2100010252
0.2100009782
0.2100009183
0.210000845
0.2100007351
0.2100005585
0.2100002249
0.2099995342
0.2099997089
0.2099999874
0.2100000419
0.209999921
0.2099996542
0.2099993579
0.2099992049
0.2099994158
0.2099997616
0.2099999755
0.2100001176
0.2100002379
0.2100003709
0.2100005254
0.2100006901
0.2100008444
0.2100009665
0.2100010399
0.2100010588
0.210001033
0.2100009846
0.2100009304
0.2100008645
0.2100007551
0.2100005696
0.2100002218
0.2099995182
0.2099997053
0.2100000264
0.2100000997
0.2099999971
0.2099997413
0.2099994462
0.20999927
0.2099994028
0.2099997365
0.2099999958
0.2100001844
0.2100003363
0.2100004796
0.2100006256
0.2100007687
0.2100008944
0.2100009869
0.2100010347
0.210001036
0.2100010027
0.2100009567
0.210000913
0.2100008558
0.2100007485
0.2100005616
0.2100002146
0.2099996835
0.2099998027
0.2100000161
0.2100001041
0.2100000111
0.2099997512
0.2099994717
0.2099993569
0.2099994835
0.2099997485
0.2099999991
0.2100002072
0.2100003836
0.2100005358
0.2100006731
0.2100007947
0.2100008922
0.2100009563
0.2100009814
0.2100009703
0.2100009381
0.2100009018
0.2100008717
0.2100008233
0.2100007202
0.2100005383
0.210000203
0.2099995285
0.2099999369
0.2100000568
0.2100000849
0.2099999417
0.2099996845
0.2099995232
0.2099995394
0.2099996694
0.2099998299
0.2100000116
0.2100002042
0.2100003842
0.2100005375
0.2100006632
0.2100007625
0.2100008331
0.2100008724
0.2100008811
0.2100008678
0.2100008449
0.2100008284
0.2100008142
0.2100007738
0.2100006766
0.2100005051
0.2100001892
0.2099992972
0.2099997746
0.210000016
0.2100000425
0.2099998877
0.2099997481
0.2099997723
0.2099998712
0.209999945
0.2099999767
0.2100000521
0.2100001984
0.2100003609
0.2100005017
0.2100006093
0.2100006839
0.2100007285
0.2100007473
0.2100007484
0.2100007425
0.2100007407
0.2100007482
0.2100007494
0.2100007166
0.2100006274
0.2100004698
0.2100001766
0.2099992305
0.209999623
0.2099999317
0.2099999522
0.2099998768
0.2099999707
0.2100001152
0.2100001987
0.2100001941
0.2100001344
0.2100001193
0.210000211
0.2100003451
0.2100004633
0.2100005462
0.2100005931
0.2100006118
0.2100006151
0.2100006134
0.2100006194
0.2100006409
0.2100006713
0.2100006867
0.2100006625
0.2100005835
0.21000044
0.2100001691
0.2099991178
0.2099995627
0.2099998333
0.2099999445
0.210000091
0.2100002884
0.2100004131
0.210000431
0.2100003703
0.2100002669
0.2100002053
0.2100002598
0.2100003708
0.2100004673
0.2100005247
0.210000545
0.2100005401
0.2100005249
0.2100005149
0.2100005247
0.2100005592
0.2100006049
0.2100006329
0.21000062
0.2100005519
0.2100004193
0.2100001679
0.2099992961
0.2099996816
0.2099999386
0.2100001621
0.2100003913
0.2100005593
0.2100006083
0.2100005767
0.2100004926
0.2100003725
0.2100002943
0.2100003408
0.2100004479
0.2100005353
0.2100005769
0.2100005771
0.2100005497
0.2100005112
0.2100004803
0.2100004746
0.2100005021
0.2100005501
0.2100005881
0.2100005877
0.2100005288
0.2100004028
0.2100001688
0.2099996865
0.2100000103
0.2100002583
0.2100004669
0.210000641
0.2100007311
0.210000736
0.2100006784
0.2100005823
0.2100004528
0.2100003698
0.210000427
0.2100005485
0.2100006414
0.21000068
0.2100006703
0.2100006263
0.2100005641
0.210000503
0.2100004648
0.2100004655
0.2100005013
0.2100005424
0.2100005508
0.2100004975
0.2100003758
0.2100001607
0.2100000761
0.2100003713
0.2100005678
0.210000707
0.2100008028
0.2100008417
0.2100008201
0.2100007501
0.2100006467
0.210000509
0.2100004267
0.2100004946
0.210000632
0.2100007355
0.2100007777
0.2100007659
0.2100007135
0.2100006342
0.2100005456
0.2100004714
0.2100004361
0.2100004476
0.2100004803
0.2100004882
0.2100004354
0.210000319
0.2100001282
0.2100003914
0.210000634
0.2100007754
0.2100008617
0.2100009079
0.2100009131
0.2100008747
0.2100007992
0.2100006873
0.2100005503
0.21000047
0.2100005323
0.2100006708
0.2100007791
0.2100008244
0.2100008124
0.2100007581
0.2100006709
0.210000565
0.2100004634
0.2100003949
0.2100003765
0.2100003889
0.2100003848
0.2100003267
0.210000217
0.2100000576
0.2100005815
0.2100007699
0.210000879
0.2100009427
0.2100009661
0.2100009537
0.2100009073
0.2100008258
0.2100007119
0.2100005844
0.2100005008
0.2100005353
0.2100006518
0.2100007533
0.2100007993
0.2100007888
0.2100007345
0.2100006464
0.2100005339
0.2100004177
0.2100003256
0.2100002787
0.2100002643
0.2100002393
0.2100001702
0.2100000658
0.2099999414
0.2100006232
0.2100007777
0.2100008786
0.2100009432
0.2100009655
0.2100009482
0.2100008953
0.2100008112
0.2100007037
0.2100005883
0.2100005007
0.2100004976
0.2100005718
0.2100006512
0.2100006924
0.2100006862
0.2100006366
0.2100005517
0.2100004419
0.2100003234
0.2100002204
0.2100001534
0.2100001143
0.2100000664
0.2099999837
0.2099998795
0.2099997788
0.2100005224
0.2100006551
0.210000761
0.2100008367
0.2100008647
0.2100008498
0.2100008005
0.2100007246
0.2100006317
0.2100005347
0.210000455
0.2100004245
0.2100004486
0.2100004898
0.2100005141
0.2100005075
0.210000467
0.2100003957
0.2100003005
0.210000194
0.2100000959
0.2100000234
0.2099999695
0.2099999049
0.2099998132
0.2099997054
0.2099995907
0.2100002599
0.2100003602
0.2100004588
0.2100005228
0.2100005386
0.2100005245
0.2100004911
0.2100004452
0.2100003938
0.210000345
0.2100003062
0.2100002844
0.2100002778
0.2100002743
0.2100002636
0.210000242
0.210000208
0.2100001603
0.2100001004
0.210000035
0.2099999757
0.2099999301
0.2099998872
0.2099998228
0.209999725
0.2099996033
0.2099994446
0.2099994679
0.2099995946
0.2099997018
0.2099997568
0.2099998039
0.2099998476
0.2099998433
0.2099998008
0.2099997548
0.2099996402
0.2099995357
0.2099994493
0.2099993933
0.2099993866
0.2099994343
0.2099992484
0.2099992522
0.2099992504
0.2099992924
0.2099994156
0.2099995393
0.2099996288
0.2099997164
0.2099997885
0.2099998074
0.2099998147
0.2099999465
0.2099996933
0.2099995629
0.2099994714
0.2099994078
0.2099993848
0.2099993997
0.2099994683
0.2099996667
0.2099997763
0.2099997022
0.2099996519
0.2099997864
0.2099999414
0.209999975
0.209999085
0.209999087
0.2099990667
0.2099990356
0.2099990156
0.2099990389
0.20999914
0.2099992759
0.209999429
0.2099995957
0.2099997167
0.2099997556
0.2099997536
0.209999731
0.2099996519
0.2099995773
0.2099995111
0.2099994621
0.2099994444
0.2099994718
0.2099995269
0.2099996418
0.2099998185
0.2099998332
0.209999806
0.2099998808
0.2099999329
0.209999933
0.2099988327
0.2099988366
0.209998837
0.2099988368
0.2099988553
0.2099989045
0.2099989903
0.2099991132
0.2099992898
0.2099994997
0.2099996547
0.2099997239
0.2099997432
0.2099996994
0.2099996501
0.2099996026
0.2099995559
0.2099995163
0.2099994943
0.2099994973
0.2099995287
0.2099995803
0.2099996873
0.2099997239
0.2099997749
0.2099998512
0.2099998841
0.209999881
0.2099987646
0.2099988027
0.2099988325
0.2099988797
0.2099989269
0.2099989772
0.209999059
0.2099992189
0.2099994383
0.2099996153
0.2099997106
0.2099997458
0.2099997048
0.2099996697
0.2099996407
0.2099996116
0.2099995868
0.2099995745
0.2099995811
0.209999608
0.2099996629
0.2099997366
0.2099997919
0.2099998368
0.2099998769
0.2099998909
0.2099998681
0.2099988305
0.2099989364
0.2099989445
0.2099990077
0.2099990064
0.2099990068
0.2099990579
0.2099992107
0.2099994232
0.2099995989
0.2099996976
0.2099997303
0.2099997239
0.209999714
0.2099997017
0.2099996862
0.2099996736
0.2099996718
0.2099996804
0.2099996974
0.2099997287
0.2099997754
0.2099998279
0.2099998848
0.2099999236
0.2099999314
0.2099999007
0.2099989327
0.2099990016
0.2099990501
0.2099992635
0.2099990938
0.2099990318
0.2099990784
0.2099992453
0.2099994464
0.2099996056
0.2099997023
0.2099997453
0.2099997638
0.2099997757
0.2099997837
0.2099997871
0.2099997907
0.2099997963
0.209999807
0.2099998199
0.2099998365
0.2099998603
0.2099998914
0.2099999225
0.2099999414
0.2099999395
0.2099999225
0.2099990535
0.2099991142
0.2099990909
0.2099991363
0.2099990728
0.2099990412
0.2099991269
0.2099993079
0.2099994843
0.2099996076
0.2099996826
0.2099997284
0.2099997681
0.2099998115
0.209999856
0.2099998942
0.209999921
0.2099999386
0.2099999536
0.2099999686
0.2099999796
0.2099999796
0.2099999733
0.2099999628
0.2099999436
0.2099999096
0.2099998783
0.2099991445
0.2099991916
0.2099987242
0.2099990984
0.2099990759
0.2099990768
0.2099992108
0.2099993722
0.2099994979
0.2099995719
0.2099996143
0.2099996522
0.2099997088
0.2099997896
0.2099998845
0.2099999754
0.210000048
0.2100000993
0.21000014
0.210000184
0.210000218
0.2100002135
0.2100001582
0.2100000694
0.2099999831
0.2099998985
0.2099998287
0.209999254
0.2099993228
0.2099992768
0.2099992439
0.2099991497
0.2099991373
0.2099992905
0.2099993896
0.2099994586
0.2099994899
0.2099995033
0.2099995336
0.2099996054
0.2099997232
0.2099998723
0.2100000265
0.2100001605
0.2100002618
0.2100003391
0.210000414
0.2100004742
0.2100004759
0.2100003931
0.2100002463
0.2100000918
0.2099999656
0.2099998764
0.2099992998
0.2099993759
0.209999209
0.2099992632
0.2099991996
0.209999189
0.2099993251
0.2099994273
0.2099994659
0.2099994521
0.2099994282
0.2099994389
0.2099995139
0.2099996583
0.2099998538
0.2100000674
0.2100002642
0.2100004205
0.2100005343
0.2100006233
0.2100006857
0.2100006832
0.2100005859
0.2100004134
0.2100002267
0.2100000779
0.209999994
0.2099993879
0.2099994646
0.2099994449
0.2099994225
0.2099993153
0.2099992468
0.209999307
0.2099994595
0.2099995051
0.20999947
0.2099994194
0.2099994109
0.2099994817
0.2099996399
0.209999866
0.2100001229
0.2100003688
0.2100005709
0.2100007156
0.2100008101
0.2100008588
0.2100008403
0.2100007344
0.2100005602
0.2100003739
0.2100002165
0.2100000989
0.2099994569
0.2099995121
0.2099995219
0.2099994933
0.2099994041
0.2099993111
0.2099993147
0.2099994752
0.2099995594
0.2099995376
0.2099994853
0.2099994691
0.209999534
0.2099996942
0.2099999325
0.2100002106
0.2100004834
0.2100007125
0.2100008758
0.2100009711
0.2100010036
0.2100009682
0.2100008588
0.2100006938
0.2100005169
0.210000351
0.2100001771
0.2099995674
0.2099996137
0.2099996506
0.2099996407
0.2099995258
0.2099993905
0.2099993302
0.2099994628
0.2099996084
0.2099996352
0.2099996102
0.2099996035
0.2099996674
0.2099998225
0.2100000566
0.210000334
0.2100006102
0.2100008448
0.2100010113
0.2100011017
0.2100011209
0.2100010743
0.210000967
0.2100008153
0.210000644
0.2100004623
0.2100002241
0.2099996941
0.2099997111
0.2099997922
0.2099998446
0.2099997229
0.2099995143
0.2099993713
0.2099994474
0.2099996393
0.2099997366
0.2099997622
0.2099997837
0.2099998558
0.2100000045
0.210000224
0.2100004841
0.2100007439
0.2100009646
0.2100011192
0.2100011975
0.2100012049
0.2100011529
0.210001052
0.2100009139
0.2100007455
0.2100005478
0.2100002615
0.2099997999
0.2099998405
0.2099999909
0.2100000781
0.2099999476
0.2099996898
0.2099994632
0.2099994506
0.2099996473
0.2099998139
0.2099999051
0.2099999712
0.2100000624
0.2100002083
0.2100004093
0.2100006423
0.2100008722
0.2100010647
0.2100011952
0.2100012546
0.2100012499
0.2100011959
0.2100011041
0.2100009793
0.210000815
0.2100006072
0.2100002912
0.209999901
0.2099999765
0.2100001518
0.2100002172
0.2100000989
0.2099998348
0.2099995742
0.209999487
0.209999642
0.2099998561
0.210000016
0.2100001343
0.210000253
0.2100004011
0.210000584
0.2100007856
0.2100009783
0.2100011339
0.2100012328
0.2100012694
0.2100012528
0.2100011995
0.2100011201
0.2100010082
0.2100008511
0.2100006409
0.2100003114
0.2100000475
0.2100001108
0.2100002582
0.2100003055
0.210000196
0.2099999355
0.2099996733
0.2099995579
0.2099996627
0.209999884
0.2100000864
0.2100002538
0.2100004025
0.2100005562
0.2100007227
0.2100008922
0.210001045
0.2100011606
0.2100012258
0.2100012397
0.2100012145
0.210001167
0.2100011006
0.210001003
0.2100008564
0.2100006512
0.2100003212
0.2100003429
0.2100003425
0.2100003541
0.21000036
0.2100002454
0.2099999981
0.2099997681
0.209999672
0.2099997447
0.2099999273
0.2100001329
0.2100003288
0.2100005005
0.2100006586
0.210000809
0.2100009471
0.2100010607
0.2100011375
0.2100011718
0.2100011686
0.2100011431
0.2100011045
0.2100010531
0.2100009708
0.2100008374
0.2100006425
0.2100003216
0.2100004337
0.2100006248
0.2100005025
0.2100004358
0.2100002826
0.2100000664
0.2099998975
0.2099998478
0.2099998952
0.2100000098
0.2100001791
0.2100003704
0.210000552
0.2100007084
0.2100008409
0.2100009481
0.2100010248
0.2100010672
0.2100010777
0.2100010679
0.2100010472
0.2100010233
0.2100009887
0.2100009218
0.2100008027
0.2100006214
0.2100003153
0.2100008943
0.2100008541
0.210000589
0.2100004711
0.2100003205
0.2100001835
0.2100001103
0.2100000894
0.2100000933
0.2100001297
0.2100002401
0.2100004059
0.2100005764
0.2100007225
0.2100008335
0.21000091
0.2100009531
0.210000967
0.2100009634
0.2100009521
0.2100009432
0.2100009376
0.2100009201
0.2100008677
0.2100007625
0.2100005953
0.2100003065
0.2100007012
0.2100006207
0.2100005463
0.2100004861
0.2100004243
0.2100003803
0.210000359
0.2100003253
0.2100002818
0.2100002605
0.2100003176
0.2100004513
0.2100006019
0.2100007282
0.2100008164
0.2100008635
0.2100008775
0.2100008688
0.2100008526
0.2100008431
0.210000848
0.2100008605
0.2100008584
0.2100008188
0.2100007256
0.2100005703
0.2100002983
0.2100004728
0.2100004919
0.2100005473
0.2100005695
0.2100005842
0.2100005996
0.2100005804
0.2100005168
0.2100004371
0.2100003821
0.2100004062
0.2100005154
0.2100006481
0.2100007561
0.2100008218
0.2100008442
0.2100008332
0.2100008035
0.2100007738
0.2100007618
0.2100007741
0.2100007985
0.2100008083
0.2100007793
0.210000695
0.2100005476
0.2100002909
0.210000359
0.2100005081
0.2100006326
0.2100007058
0.2100007674
0.2100007875
0.210000754
0.2100006651
0.2100005624
0.2100004878
0.210000495
0.2100005941
0.2100007188
0.210000816
0.210000867
0.2100008717
0.2100008408
0.2100007906
0.2100007423