/*--------------------------------*- C++ -*----------------------------------*\
  =========                 |
  \\      /  F ield         | OpenFOAM: The Open Source CFD Toolbox
   \\    /   O peration     | Website:  https://openfoam.org
    \\  /    A nd           | Version:  8
     \\/     M anipulation  |
\*---------------------------------------------------------------------------*/
FoamFile
{
    version     2.0;
    format      ascii;
    class       volScalarField;
    location    "2";
    object      p;
}
// * * * * * * * * * * * * * * * * * * * * * * * * * * * * * * * * * * * * * //

dimensions      [1 -1 -2 0 0 0 0];

internalField   nonuniform List<scalar> 
67451
(
100003.7637
100003.7631
100003.7639
100003.7658
100003.771
100003.7726
100003.7685
100003.7619
100003.7539
100003.7524
100003.758
100003.7597
100003.7636
100003.7673
100003.7677
100003.7645
100003.7609
100003.7612
100003.765
100003.7706
100003.7708
100003.7666
100003.7658
100003.7585
100003.7568
100003.7612
100003.7692
100003.7789
100003.7886
100003.7943
100003.8398
100003.9598
100003.9942
100003.9196
100003.8857
100003.9082
100003.9595
100003.7899
100003.7821
100003.7762
100003.7721
100003.7701
100003.7693
100003.7688
100003.7679
100003.7679
100003.7694
100003.7702
100003.7654
100003.7557
100003.76
100003.7589
100003.7604
100003.765
100003.7716
100003.7806
100003.7926
100003.7883
100003.7983
100003.9166
100004.01
100003.9232
100003.8467
100003.892
100004.0167
100003.7796
100003.771
100003.7669
100003.7649
100003.7647
100003.7657
100003.7685
100003.7712
100003.7722
100003.7713
100003.7678
100003.7603
100003.7494
100003.7563
100003.7592
100003.7649
100003.7713
100003.7783
100003.7861
100003.7965
100003.802
100003.7857
100003.8134
100003.8714
100003.8621
100003.86
100003.8961
100003.9631
100003.7535
100003.7571
100003.7579
100003.7581
100003.7594
100003.7643
100003.7695
100003.7718
100003.7701
100003.7648
100003.7563
100003.7517
100003.7533
100003.7575
100003.7641
100003.7722
100003.7804
100003.7896
100003.7978
100003.8049
100003.7978
100003.795
100003.8008
100003.8307
100003.8607
100003.8881
100003.9252
100003.7502
100003.7611
100003.7637
100003.7601
100003.7566
100003.7626
100003.7699
100003.7726
100003.7691
100003.7618
100003.7537
100003.7516
100003.7499
100003.753
100003.7588
100003.7671
100003.776
100003.7857
100003.7958
100003.8081
100003.8184
100003.8309
100003.8421
100003.8584
100003.8738
100003.8873
100003.9109
100003.7553
100003.7681
100003.7843
100003.7832
100003.7662
100003.7683
100003.7758
100003.7775
100003.7719
100003.7622
100003.7533
100003.7514
100003.7496
100003.7519
100003.7559
100003.7614
100003.7675
100003.7746
100003.782
100003.7902
100003.7984
100003.8211
100003.8484
100003.8588
100003.8717
100003.8855
100003.9127
100003.7765
100003.7877
100003.7955
100003.7738
100003.772
100003.7785
100003.7869
100003.7875
100003.7809
100003.7701
100003.7638
100003.7633
100003.7646
100003.7665
100003.7678
100003.769
100003.7709
100003.775
100003.7802
100003.7851
100003.7906
100003.8012
100003.817
100003.8329
100003.8555
100003.8772
100003.9168
100003.823
100003.8787
100004.1363
100003.8306
100003.7963
100003.7998
100003.8066
100003.8059
100003.7994
100003.7903
100003.7902
100003.7953
100003.8001
100003.8016
100003.7993
100003.7947
100003.7904
100003.7898
100003.7929
100003.7958
100003.8003
100003.81
100003.8192
100003.8258
100003.8418
100003.8642
100003.9247
100003.8338
100003.8378
100003.8093
100003.7759
100003.7937
100003.8152
100003.8298
100003.8309
100003.8268
100003.8226
100003.83
100003.8412
100003.8497
100003.8512
100003.8454
100003.835
100003.8241
100003.8176
100003.818
100003.8221
100003.8282
100003.8373
100003.8445
100003.8462
100003.8542
100003.8752
100003.9673
100003.8936
100003.9956
100004.2557
100003.8113
100003.824
100003.8448
100003.8637
100003.8619
100003.8526
100003.8504
100003.8662
100003.8861
100003.9012
100003.9052
100003.898
100003.8829
100003.865
100003.8503
100003.8433
100003.8432
100003.8476
100003.8544
100003.8604
100003.8631
100003.8736
100003.8975
100003.9949
100003.8488
100003.8774
100003.9197
100003.8408
100003.8341
100003.8539
100003.8794
100003.8864
100003.8728
100003.8663
100003.8924
100003.9206
100003.9425
100003.9497
100003.9425
100003.9243
100003.901
100003.8791
100003.8641
100003.8591
100003.8614
100003.8639
100003.8652
100003.8681
100003.884
100003.9146
100004.0123
100003.8337
100003.8551
100003.8817
100003.8571
100003.8519
100003.8685
100003.8966
100003.9092
100003.8973
100003.8777
100003.9077
100003.94
100003.9687
100003.9806
100003.9757
100003.9572
100003.9312
100003.9044
100003.883
100003.8702
100003.8647
100003.8626
100003.863
100003.8692
100003.8915
100003.9261
100004.0172
100003.8378
100003.8415
100003.856
100003.8516
100003.8503
100003.8663
100003.8965
100003.9195
100003.9148
100003.8838
100003.9028
100003.9373
100003.9718
100003.9894
100003.9891
100003.973
100003.9468
100003.9172
100003.8906
100003.8715
100003.8608
100003.8571
100003.8593
100003.8701
100003.8964
100003.9316
100004.0143
100003.9018
100003.8955
100003.9046
100003.8857
100003.8549
100003.8517
100003.8789
100003.9149
100003.9207
100003.8913
100003.8867
100003.9168
100003.9516
100003.9729
100003.977
100003.9647
100003.9409
100003.9123
100003.8853
100003.8648
100003.8532
100003.8505
100003.8559
100003.8708
100003.8988
100003.9321
100004.0055
100003.9631
100004.0037
100004.0054
100003.952
100003.8786
100003.835
100003.8444
100003.8865
100003.909
100003.8934
100003.8689
100003.8873
100003.9174
100003.94
100003.9477
100003.9398
100003.9204
100003.8955
100003.8712
100003.8529
100003.8435
100003.8438
100003.853
100003.8706
100003.8986
100003.9288
100003.9933
100004.0444
100004.1065
100004.0917
100004.0298
100003.9427
100003.8537
100003.8212
100003.8614
100003.9064
100003.9052
100003.8666
100003.8594
100003.8793
100003.8995
100003.909
100003.9053
100003.8909
100003.8711
100003.8518
100003.8379
100003.8329
100003.8375
100003.8503
100003.8694
100003.8965
100003.9234
100003.9801
100004.1024
100004.1371
100004.1081
100004.0618
100003.967
100003.8628
100003.8162
100003.8426
100003.8857
100003.8952
100003.8613
100003.8376
100003.8439
100003.8592
100003.8686
100003.8679
100003.8584
100003.8443
100003.8308
100003.8228
100003.8232
100003.8326
100003.8481
100003.8679
100003.8936
100003.9176
100003.9671
100004.1856
100004.1683
100004.0946
100004.0173
100003.9094
100003.8178
100003.7966
100003.8257
100003.864
100003.8758
100003.8518
100003.8224
100003.8166
100003.8254
100003.833
100003.8342
100003.8287
100003.8202
100003.8129
100003.811
100003.8169
100003.8303
100003.8476
100003.8674
100003.8915
100003.9129
100003.9558
100003.904
100004.0073
100004.0311
100003.9542
100003.8457
100003.7832
100003.7877
100003.8185
100003.8487
100003.8591
100003.8427
100003.8145
100003.8013
100003.8029
100003.8075
100003.8092
100003.8071
100003.8036
100003.8023
100003.8065
100003.8171
100003.8323
100003.8503
100003.8695
100003.8918
100003.9107
100003.9476
100004.2399
100004.3015
100004.1643
100003.9404
100003.8196
100003.7888
100003.8
100003.8191
100003.8357
100003.8432
100003.8347
100003.8131
100003.7979
100003.7937
100003.7951
100003.7968
100003.7973
100003.7981
100003.8024
100003.8105
100003.8234
100003.8396
100003.8573
100003.8753
100003.8957
100003.9122
100003.9435
100003.922
100004.1991
100004.0083
100003.868
100003.8317
100003.8162
100003.8172
100003.8178
100003.8208
100003.827
100003.8269
100003.8156
100003.8027
100003.7969
100003.7964
100003.798
100003.8009
100003.8044
100003.8111
100003.8216
100003.8357
100003.852
100003.8687
100003.8852
100003.9036
100003.918
100003.9444
100003.7981
100003.9989
100003.8855
100003.8437
100003.8431
100003.8363
100003.8235
100003.8117
100003.8086
100003.8143
100003.8209
100003.8196
100003.8117
100003.8069
100003.8066
100003.8089
100003.8128
100003.8182
100003.8263
100003.8379
100003.8522
100003.8678
100003.8836
100003.8987
100003.9154
100003.928
100003.9505
100003.8372
100003.9121
100003.8685
100003.8639
100003.8576
100003.8409
100003.8236
100003.8097
100003.805
100003.8089
100003.8183
100003.8238
100003.8217
100003.8191
100003.82
100003.8234
100003.8284
100003.8351
100003.8442
100003.8561
100003.8703
100003.8855
100003.9006
100003.915
100003.9305
100003.9419
100003.9616
100003.8879
100003.9097
100003.8816
100003.873
100003.8575
100003.8399
100003.8249
100003.8135
100003.8082
100003.8119
100003.8224
100003.8308
100003.8325
100003.8317
100003.8337
100003.8382
100003.8442
100003.8518
100003.8616
100003.8739
100003.8882
100003.9035
100003.9187
100003.9331
100003.9481
100003.959
100003.9768
100003.9085
100003.9089
100003.8876
100003.8733
100003.8584
100003.8444
100003.8334
100003.8238
100003.8193
100003.8237
100003.8346
100003.8436
100003.8463
100003.846
100003.8482
100003.8531
100003.8596
100003.8677
100003.8781
100003.8909
100003.9059
100003.9218
100003.9376
100003.9525
100003.9676
100003.9784
100003.9952
100003.9173
100003.9087
100003.8928
100003.8799
100003.8684
100003.8584
100003.8492
100003.841
100003.8382
100003.8431
100003.8536
100003.8622
100003.8645
100003.8638
100003.8656
100003.8704
100003.8767
100003.885
100003.8955
100003.9088
100003.9243
100003.9409
100003.9576
100003.9732
100003.9886
100003.9996
100004.0159
100003.9328
100003.9214
100003.9091
100003.8987
100003.8897
100003.8813
100003.8728
100003.8659
100003.8638
100003.8681
100003.8773
100003.8848
100003.8869
100003.886
100003.887
100003.8912
100003.8972
100003.9051
100003.9155
100003.9287
100003.9445
100003.9616
100003.9789
100003.9951
100004.0108
100004.0219
100004.0374
100003.962
100003.9499
100003.939
100003.9297
100003.9213
100003.9132
100003.9051
100003.8987
100003.8963
100003.8992
100003.9062
100003.9123
100003.9146
100003.914
100003.9143
100003.9173
100003.9228
100003.9305
100003.9406
100003.9534
100003.9687
100003.9855
100004.0027
100004.0189
100004.0342
100004.0449
100004.0591
100003.9962
100003.9832
100003.9719
100003.9615
100003.9522
100003.9431
100003.9341
100003.9268
100003.9231
100003.9241
100003.9291
100003.9348
100003.9384
100003.9396
100003.9402
100003.9422
100003.9466
100003.9534
100003.9627
100003.9746
100003.989
100004.005
100004.0218
100004.038
100004.0534
100004.0643
100004.0771
100004.0622
100004.0478
100004.0358
100004.0236
100004.0122
100004.0007
100003.9893
100003.9792
100003.9723
100003.9695
100003.9704
100003.9733
100003.9767
100003.9796
100003.9825
100003.9865
100003.9918
100003.9985
100004.0064
100004.0157
100004.0263
100004.038
100004.0504
100004.0631
100004.0761
100004.0859
100004.0964
100003.6219
100003.6223
100003.6254
100003.6256
100003.6333
100003.6389
100003.6319
100003.628
100003.6164
100003.6123
100003.6176
100003.6185
100003.6304
100003.6392
100003.6362
100003.6235
100003.6214
100003.6234
100003.6264
100003.6361
100003.64
100003.6345
100003.6521
100003.6286
100003.6224
100003.6237
100003.6291
100003.6371
100003.6374
100003.6272
100003.6181
100003.6283
100003.657
100003.6663
100003.6801
100003.7188
100003.7704
100003.6458
100003.6425
100003.6423
100003.6436
100003.6455
100003.6457
100003.641
100003.6357
100003.6366
100003.6408
100003.6427
100003.6343
100003.6201
100003.6382
100003.6305
100003.6282
100003.6294
100003.6334
100003.64
100003.6451
100003.6277
100003.6058
100003.585
100003.6117
100003.6136
100003.6074
100003.6143
100003.7082
100003.6354
100003.6329
100003.6343
100003.635
100003.6363
100003.6393
100003.643
100003.646
100003.6485
100003.6476
100003.6413
100003.6275
100003.6114
100003.6292
100003.632
100003.6351
100003.6383
100003.642
100003.646
100003.6482
100003.6388
100003.6121
100003.5644
100003.5849
100003.5979
100003.6071
100003.648
100003.7251
100003.6172
100003.6274
100003.6269
100003.6259
100003.6297
100003.637
100003.6442
100003.6481
100003.6452
100003.6366
100003.6242
100003.6123
100003.6232
100003.6283
100003.6347
100003.6417
100003.649
100003.6566
100003.6613
100003.6588
100003.6424
100003.5875
100003.5755
100003.5941
100003.6348
100003.6952
100003.7461
100003.6166
100003.6446
100003.6317
100003.6214
100003.622
100003.6322
100003.6424
100003.6467
100003.6421
100003.6329
100003.6234
100003.6191
100003.6186
100003.6208
100003.6261
100003.634
100003.6431
100003.653
100003.6619
100003.6674
100003.6663
100003.657
100003.6405
100003.6689
100003.7054
100003.7342
100003.7624
100003.6111
100003.627
100003.627
100003.6301
100003.621
100003.6327
100003.6445
100003.648
100003.6404
100003.6289
100003.6185
100003.6136
100003.6128
100003.6149
100003.6191
100003.6244
100003.6309
100003.6389
100003.6464
100003.6489
100003.6454
100003.6476
100003.6607
100003.683
100003.7132
100003.7397
100003.7681
100003.6192
100003.6193
100003.5768
100003.598
100003.6222
100003.6396
100003.6509
100003.6529
100003.6433
100003.6307
100003.6221
100003.6184
100003.6184
100003.6204
100003.6233
100003.6262
100003.6294
100003.6339
100003.6396
100003.6407
100003.6379
100003.6403
100003.6479
100003.6653
100003.6932
100003.7247
100003.768
100003.6527
100003.6914
100003.6577
100003.5813
100003.6274
100003.6525
100003.6617
100003.6622
100003.6537
100003.6426
100003.6361
100003.6346
100003.6358
100003.6376
100003.6386
100003.6388
100003.6392
100003.6407
100003.644
100003.6443
100003.6417
100003.6442
100003.6518
100003.6638
100003.6815
100003.6977
100003.7496
100003.6527
100003.6516
100003.6344
100003.6093
100003.64
100003.6708
100003.6803
100003.6808
100003.6752
100003.6642
100003.6589
100003.6594
100003.6619
100003.6632
100003.6621
100003.6592
100003.6564
100003.656
100003.6591
100003.6608
100003.6572
100003.6577
100003.6626
100003.67
100003.6845
100003.691
100003.7536
100003.6641
100003.6629
100003.4968
100003.5795
100003.6484
100003.691
100003.7034
100003.7049
100003.6966
100003.6834
100003.6804
100003.6851
100003.6911
100003.6936
100003.6914
100003.6857
100003.6792
100003.6754
100003.6763
100003.6803
100003.6808
100003.6799
100003.6813
100003.686
100003.6996
100003.7159
100003.7906
100003.6482
100003.67
100003.6818
100003.665
100003.6858
100003.7137
100003.7402
100003.7419
100003.7124
100003.6957
100003.6968
100003.7066
100003.7169
100003.7217
100003.7196
100003.712
100003.7021
100003.6938
100003.6902
100003.6917
100003.6943
100003.6945
100003.6949
100003.6997
100003.7152
100003.7402
100003.8231
100003.6262
100003.6568
100003.6797
100003.6925
100003.7049
100003.726
100003.7537
100003.7612
100003.7264
100003.704
100003.7067
100003.7195
100003.734
100003.742
100003.7414
100003.7332
100003.7212
100003.7094
100003.7014
100003.6989
100003.6998
100003.701
100003.7033
100003.7113
100003.731
100003.763
100003.8449
100003.6177
100003.6506
100003.6749
100003.6887
100003.696
100003.7163
100003.7482
100003.7692
100003.7393
100003.7051
100003.7057
100003.7192
100003.7371
100003.7488
100003.7508
100003.744
100003.7314
100003.7175
100003.7064
100003.7004
100003.6995
100003.702
100003.7078
100003.7201
100003.7449
100003.779
100003.8546
100003.6212
100003.6626
100003.6934
100003.6999
100003.6772
100003.6784
100003.712
100003.7535
100003.7441
100003.7004
100003.696
100003.7071
100003.7259
100003.74
100003.7449
100003.7403
100003.729
100003.7154
100003.7036
100003.6967
100003.6958
100003.7004
100003.71
100003.7264
100003.7537
100003.7865
100003.8543
100003.66
100003.7388
100003.7686
100003.7457
100003.6873
100003.6556
100003.6606
100003.7077
100003.7304
100003.6965
100003.6818
100003.6885
100003.7052
100003.7201
100003.7272
100003.7253
100003.7166
100003.7051
100003.6949
100003.6894
100003.6903
100003.6976
100003.7107
100003.7301
100003.7576
100003.7876
100003.8482
100003.67
100003.8041
100003.7838
100003.7344
100003.6714
100003.6314
100003.6191
100003.6457
100003.7027
100003.7018
100003.6728
100003.6708
100003.6823
100003.6955
100003.7035
100003.704
100003.6984
100003.69
100003.6829
100003.6804
100003.6842
100003.6945
100003.7106
100003.7316
100003.7581
100003.7852
100003.8394
100003.7243
100003.8471
100003.7921
100003.7339
100003.6646
100003.6174
100003.6016
100003.6269
100003.6884
100003.7072
100003.6734
100003.6586
100003.6627
100003.6722
100003.6795
100003.6817
100003.679
100003.6742
100003.6708
100003.6719
100003.6791
100003.6923
100003.711
100003.7323
100003.7575
100003.782
100003.8301
100003.7837
100003.8298
100003.7657
100003.6945
100003.6245
100003.5832
100003.5774
100003.6212
100003.6868
100003.7099
100003.6787
100003.6533
100003.6501
100003.6548
100003.6604
100003.6632
100003.6629
100003.6614
100003.6619
100003.6667
100003.6772
100003.6934
100003.7132
100003.7341
100003.7577
100003.7798
100003.8222
100003.6385
100003.5863
100003.6212
100003.594
100003.5588
100003.5391
100003.5718
100003.632
100003.689
100003.7094
100003.686
100003.6565
100003.6457
100003.646
100003.6494
100003.6522
100003.6536
100003.655
100003.6588
100003.6669
100003.6807
100003.6989
100003.7188
100003.7387
100003.7605
100003.7804
100003.8172
100002.7524
100003.1723
100003.4867
100003.5042
100003.5111
100003.534
100003.5891
100003.6434
100003.6818
100003.6995
100003.6891
100003.6636
100003.6491
100003.6462
100003.6479
100003.6504
100003.653
100003.6568
100003.663
100003.6746
100003.6907
100003.7095
100003.7286
100003.747
100003.767
100003.7847
100003.8166
100003.0756
100003.2557
100003.4465
100003.4802
100003.4922
100003.5636
100003.6172
100003.6472
100003.6661
100003.682
100003.6858
100003.6725
100003.6598
100003.6547
100003.6552
100003.6577
100003.6607
100003.6672
100003.6764
100003.6897
100003.7065
100003.7249
100003.7428
100003.7595
100003.7776
100003.7933
100003.8207
100003.245
100003.3431
100003.461
100003.508
100003.561
100003.6128
100003.6368
100003.6465
100003.6551
100003.6677
100003.6801
100003.6809
100003.674
100003.6699
100003.6701
100003.673
100003.6778
100003.6851
100003.6956
100003.7095
100003.7261
100003.7437
100003.7603
100003.7755
100003.7919
100003.8058
100003.8294
100003.4435
100003.465
100003.5264
100003.5819
100003.6247
100003.6431
100003.6439
100003.6481
100003.6532
100003.6634
100003.6782
100003.6883
100003.6881
100003.6863
100003.6873
100003.691
100003.6968
100003.705
100003.7161
100003.7302
100003.7467
100003.7635
100003.7792
100003.7936
100003.8089
100003.8215
100003.8421
100003.5825
100003.5926
100003.6249
100003.6533
100003.6631
100003.6602
100003.6574
100003.6571
100003.661
100003.6692
100003.6845
100003.6985
100003.7021
100003.7016
100003.7033
100003.7077
100003.7143
100003.7232
100003.7348
100003.7492
100003.7657
100003.7825
100003.7983
100003.8126
100003.8275
100003.8394
100003.8581
100003.6571
100003.6778
100003.6901
100003.6938
100003.6863
100003.6808
100003.6756
100003.673
100003.6753
100003.6836
100003.6999
100003.7145
100003.7183
100003.7176
100003.7191
100003.7236
100003.7304
100003.7396
100003.7516
100003.7663
100003.7832
100003.8007
100003.8174
100003.8324
100003.8473
100003.859
100003.8766
100003.7085
100003.7226
100003.7258
100003.7226
100003.7136
100003.7062
100003.6996
100003.6959
100003.6972
100003.7063
100003.723
100003.7361
100003.7385
100003.7366
100003.7374
100003.7414
100003.7482
100003.7572
100003.7689
100003.7837
100003.8009
100003.8193
100003.8372
100003.8533
100003.8687
100003.8803
100003.8971
100003.7546
100003.7588
100003.7577
100003.7529
100003.744
100003.736
100003.7292
100003.7248
100003.7261
100003.7353
100003.7504
100003.7618
100003.7631
100003.7602
100003.76
100003.7632
100003.7692
100003.7777
100003.789
100003.8034
100003.8206
100003.8395
100003.8584
100003.8755
100003.8914
100003.9029
100003.9189
100003.8024
100003.8003
100003.7955
100003.7887
100003.7804
100003.7719
100003.7644
100003.7599
100003.761
100003.769
100003.7815
100003.7918
100003.7935
100003.7902
100003.7885
100003.7902
100003.7951
100003.8028
100003.8136
100003.8275
100003.8444
100003.8632
100003.8825
100003.9
100003.9159
100003.9271
100003.9417
100003.8503
100003.8435
100003.8344
100003.8244
100003.8143
100003.8042
100003.7951
100003.7893
100003.789
100003.795
100003.8057
100003.8164
100003.8211
100003.8197
100003.8173
100003.8173
100003.8202
100003.8263
100003.8358
100003.8487
100003.8647
100003.8832
100003.9024
100003.9202
100003.9365
100003.948
100003.9611
100003.9238
100003.9147
100003.903
100003.8903
100003.8775
100003.8643
100003.8516
100003.8419
100003.8374
100003.8392
100003.8467
100003.8556
100003.8614
100003.8626
100003.8616
100003.8619
100003.8649
100003.8703
100003.8781
100003.8885
100003.9014
100003.9159
100003.931
100003.9455
100003.9594
100003.9694
100003.9796
100003.4969
100003.509
100003.5139
100003.515
100003.5155
100003.5132
100003.5085
100003.5075
100003.5203
100003.4996
100003.4905
100003.4918
100003.4996
100003.5108
100003.5205
100003.4726
100003.485
100003.4976
100003.5077
100003.5155
100003.5183
100003.5179
100003.5169
100003.5153
100003.5149
100003.5421
100003.6694
100003.5356
100003.5035
100003.4984
100003.5028
100003.51
100003.5126
100003.5124
100003.5122
100003.5336
100003.5577
100003.5745
100003.6004
100003.618
100003.6432
100003.4856
100003.4885
100003.4943
100003.5001
100003.5064
100003.5123
100003.5168
100003.5193
100003.5189
100003.5164
100003.512
100003.5044
100003.5036
100003.5239
100003.5085
100003.5016
100003.5024
100003.5077
100003.5155
100003.5225
100003.525
100003.5199
100003.5323
100003.5582
100003.5731
100003.6057
100003.6125
100003.6283
100003.489
100003.4928
100003.5003
100003.5021
100003.5052
100003.5088
100003.513
100003.5163
100003.5173
100003.5148
100003.5086
100003.499
100003.4939
100003.5023
100003.5035
100003.5051
100003.5091
100003.5148
100003.5217
100003.527
100003.5296
100003.5264
100003.5267
100003.545
100003.5716
100003.5966
100003.6043
100003.6192
100003.4886
100003.5084
100003.5023
100003.5036
100003.5045
100003.5086
100003.5127
100003.5144
100003.5119
100003.5053
100003.4965
100003.4916
100003.4967
100003.5022
100003.5073
100003.5132
100003.5197
100003.5264
100003.5321
100003.5375
100003.5433
100003.5512
100003.5678
100003.5783
100003.5894
100003.5982
100003.6124
100003.5006
100003.6034
100003.5223
100003.5165
100003.5058
100003.5078
100003.5116
100003.5132
100003.5104
100003.5039
100003.4967
100003.4934
100003.4955
100003.4999
100003.5054
100003.5119
100003.5186
100003.5252
100003.5315
100003.5377
100003.5441
100003.5526
100003.5635
100003.5764
100003.5892
100003.6001
100003.6138
100003.4849
100003.5119
100003.5142
100003.6227
100003.5223
100003.5133
100003.5143
100003.5146
100003.5107
100003.504
100003.4974
100003.4944
100003.4948
100003.498
100003.5027
100003.5081
100003.513
100003.5177
100003.5223
100003.5273
100003.5335
100003.5436
100003.5572
100003.5717
100003.5871
100003.6
100003.6153
100003.4818
100003.4916
100003.4557
100003.5067
100003.5062
100003.5149
100003.5192
100003.5193
100003.5153
100003.5089
100003.5024
100003.499
100003.4988
100003.5007
100003.5039
100003.5077
100003.5116
100003.5153
100003.5186
100003.5224
100003.5284
100003.5372
100003.5502
100003.5659
100003.5843
100003.5985
100003.6175
100003.4832
100003.4921
100003.1885
100003.445
100003.495
100003.5233
100003.5304
100003.5313
100003.5278
100003.5206
100003.5138
100003.5104
100003.5099
100003.5109
100003.5124
100003.5138
100003.5153
100003.517
100003.5187
100003.5204
100003.5241
100003.5324
100003.5451
100003.5611
100003.5807
100003.5956
100003.6164
100003.5093
100003.5199
100003.5053
100003.5143
100003.5271
100003.5485
100003.5544
100003.5535
100003.5486
100003.5397
100003.533
100003.5296
100003.5288
100003.5285
100003.5277
100003.5264
100003.5253
100003.5252
100003.5265
100003.5284
100003.5317
100003.5387
100003.5491
100003.5627
100003.5805
100003.5943
100003.6254
100003.5145
100003.5411
100003.4058
100003.4939
100003.5302
100003.5694
100003.588
100003.5864
100003.5744
100003.561
100003.5528
100003.55
100003.5497
100003.5492
100003.5468
100003.5431
100003.5391
100003.5368
100003.5371
100003.5397
100003.5438
100003.5497
100003.558
100003.5692
100003.585
100003.601
100003.6391
100003.5406
100003.5595
100003.5694
100003.5712
100003.5772
100003.5965
100003.6156
100003.6157
100003.5968
100003.5787
100003.5699
100003.5685
100003.5699
100003.57
100003.5671
100003.5615
100003.555
100003.55
100003.548
100003.5495
100003.5534
100003.5586
100003.5657
100003.5764
100003.593
100003.6122
100003.657
100003.5499
100003.5671
100003.5709
100003.5854
100003.5965
100003.6129
100003.6309
100003.6347
100003.6147
100003.5916
100003.5813
100003.5806
100003.5839
100003.5855
100003.583
100003.5767
100003.5685
100003.5611
100003.5565
100003.5558
100003.5582
100003.563
100003.5705
100003.5824
100003.6009
100003.6234
100003.6729
100003.5681
100003.5922
100003.6073
100003.6184
100003.6145
100003.6224
100003.6356
100003.6427
100003.626
100003.5985
100003.5849
100003.5834
100003.5878
100003.5911
100003.59
100003.5842
100003.5754
100003.5665
100003.5599
100003.5573
100003.5587
100003.5639
100003.5729
100003.5869
100003.6074
100003.6324
100003.6835
100003.6113
100003.6392
100003.6502
100003.6645
100003.6313
100003.6252
100003.6288
100003.638
100003.6274
100003.5999
100003.5818
100003.5775
100003.5814
100003.5858
100003.5863
100003.5817
100003.5736
100003.5647
100003.5578
100003.5547
100003.5565
100003.5629
100003.5739
100003.5896
100003.6119
100003.6378
100003.6878
100003.6709
100003.6994
100003.6966
100003.6962
100003.6359
100003.6097
100003.6097
100003.6183
100003.6164
100003.5959
100003.5746
100003.5663
100003.5681
100003.5724
100003.574
100003.5712
100003.5648
100003.5573
100003.5515
100003.5497
100003.5529
100003.5612
100003.5743
100003.5914
100003.6147
100003.6401
100003.6873
100003.7355
100003.7503
100003.7189
100003.6824
100003.6196
100003.5879
100003.5896
100003.5972
100003.6026
100003.5897
100003.568
100003.5547
100003.5526
100003.5554
100003.5575
100003.5563
100003.552
100003.5468
100003.5434
100003.5438
100003.5493
100003.5597
100003.5743
100003.5926
100003.616
100003.6403
100003.6839
100003.7867
100003.7796
100003.7203
100003.6568
100003.5928
100003.56
100003.563
100003.5743
100003.5862
100003.5811
100003.5616
100003.5453
100003.539
100003.5394
100003.5411
100003.541
100003.539
100003.5364
100003.5358
100003.539
100003.5469
100003.5592
100003.5749
100003.594
100003.617
100003.6398
100003.6792
100003.826
100003.7545
100003.6852
100003.6103
100003.5536
100003.5299
100003.5349
100003.5508
100003.5689
100003.5711
100003.5548
100003.5393
100003.5298
100003.5277
100003.5285
100003.5292
100003.529
100003.529
100003.5312
100003.5371
100003.5473
100003.5605
100003.5774
100003.5967
100003.6188
100003.6399
100003.675
100003.7037
100003.6462
100003.6201
100003.5526
100003.5168
100003.5151
100003.5159
100003.5336
100003.554
100003.5616
100003.5504
100003.5357
100003.5259
100003.5221
100003.5221
100003.5232
100003.5245
100003.5268
100003.5314
100003.5395
100003.5506
100003.5655
100003.5829
100003.6017
100003.6227
100003.6419
100003.6728
100003.712
100003.6274
100003.6019
100003.5276
100003.5046
100003.5047
100003.5099
100003.5248
100003.5416
100003.5515
100003.5469
100003.5353
100003.527
100003.523
100003.5226
100003.5242
100003.5268
100003.5307
100003.537
100003.5463
100003.5592
100003.575
100003.5922
100003.61
100003.6295
100003.6469
100003.6738
100003.6764
100003.6095
100003.5787
100003.5308
100003.5229
100003.513
100003.5144
100003.5226
100003.5337
100003.543
100003.5444
100003.5379
100003.5317
100003.5292
100003.5295
100003.5317
100003.5355
100003.5403
100003.5479
100003.5589
100003.5728
100003.5886
100003.6051
100003.6217
100003.6395
100003.6551
100003.6785
100003.6591
100003.6012
100003.5732
100003.5509
100003.5357
100003.5253
100003.5225
100003.5252
100003.5322
100003.5402
100003.5447
100003.5436
100003.5403
100003.5389
100003.5401
100003.5433
100003.548
100003.5545
100003.5637
100003.5757
100003.5899
100003.6052
100003.6208
100003.6363
100003.6526
100003.6665
100003.6869
100003.5939
100003.5927
100003.5771
100003.5591
100003.5462
100003.5354
100003.5329
100003.5316
100003.536
100003.5432
100003.5492
100003.5519
100003.5515
100003.5516
100003.5538
100003.558
100003.5639
100003.5718
100003.5819
100003.5945
100003.6087
100003.6236
100003.6386
100003.6531
100003.6683
100003.6808
100003.6988
100003.5697
100003.5776
100003.5724
100003.5644
100003.557
100003.549
100003.5448
100003.5422
100003.5447
100003.5514
100003.5587
100003.5636
100003.5651
100003.5663
100003.5693
100003.5742
100003.581
100003.5897
100003.6006
100003.6135
100003.6279
100003.6429
100003.6576
100003.6717
100003.6861
100003.6976
100003.7136
100003.5758
100003.5822
100003.5799
100003.5757
100003.5708
100003.5633
100003.558
100003.5563
100003.5584
100003.5652
100003.5735
100003.5796
100003.582
100003.5835
100003.5867
100003.5919
100003.5991
100003.6082
100003.6195
100003.6328
100003.6475
100003.6627
100003.6777
100003.6918
100003.7058
100003.7165
100003.7309
100003.5956
100003.5994
100003.5977
100003.5941
100003.589
100003.5829
100003.578
100003.5755
100003.5776
100003.5845
100003.5935
100003.6002
100003.6027
100003.6041
100003.607
100003.612
100003.6191
100003.6283
100003.6397
100003.6531
100003.6679
100003.6835
100003.6989
100003.7133
100003.7272
100003.7372
100003.75
100003.6244
100003.6255
100003.6235
100003.6197
100003.6152
100003.6089
100003.6029
100003.6
100003.6019
100003.6083
100003.6173
100003.6242
100003.627
100003.6282
100003.6307
100003.6351
100003.6417
100003.6505
100003.6615
100003.6745
100003.6892
100003.7048
100003.7206
100003.7355
100003.7495
100003.7588
100003.7701
100003.6611
100003.66
100003.6566
100003.6517
100003.6457
100003.6389
100003.633
100003.6299
100003.6312
100003.6368
100003.6451
100003.652
100003.6554
100003.6566
100003.6584
100003.6618
100003.6674
100003.6753
100003.6855
100003.6979
100003.712
100003.7274
100003.7431
100003.7581
100003.7722
100003.781
100003.7911
100003.7015
100003.6982
100003.6928
100003.6858
100003.6778
100003.6691
100003.6613
100003.6564
100003.6561
100003.6605
100003.6682
100003.6759
100003.6812
100003.684
100003.6856
100003.6878
100003.6915
100003.6974
100003.7057
100003.7164
100003.7292
100003.7437
100003.7592
100003.7746
100003.7892
100003.7987
100003.808
100003.7654
100003.7614
100003.755
100003.7463
100003.7356
100003.7232
100003.7108
100003.7011
100003.6962
100003.6968
100003.7016
100003.7079
100003.7132
100003.717
100003.7198
100003.7226
100003.7262
100003.731
100003.7371
100003.7449
100003.7543
100003.7653
100003.7779
100003.7913