/*--------------------------------*- C++ -*----------------------------------*\
  =========                 |
  \\      /  F ield         | OpenFOAM: The Open Source CFD Toolbox
   \\    /   O peration     | Website:  https://openfoam.org
    \\  /    A nd           | Version:  8
     \\/     M anipulation  |
\*---------------------------------------------------------------------------*/
FoamFile
{
    version     2.0;
    format      ascii;
    class       volVectorField;
    location    "2";
    object      U;
}
// * * * * * * * * * * * * * * * * * * * * * * * * * * * * * * * * * * * * * //

dimensions      [0 1 -1 0 0 0 0];

internalField   nonuniform List<vector> 
67451
(
(0.2255477301 -0.1366224955 -0.05179477257)
(0.2272638113 -0.1548531056 -0.1377840615)
(0.2431325555 -0.1688434989 -0.1411112143)
(0.2427241384 -0.1825166252 -0.08020866741)
(0.1815665764 -0.1951216858 0.02796805923)
(0.06548253095 -0.2019426208 0.08507279764)
(-0.02768218562 -0.2107852056 0.05783032188)
(-0.06549973126 -0.1980402018 0.02883025767)
(-0.08888564662 -0.1823102037 0.006527886957)
(-0.08982438277 -0.1612096746 -0.01569307785)
(-0.07945186417 -0.1390213193 -0.02919643857)
(0.4599924307 0.04344850784 0.1150945701)
(0.4262456513 -0.02348596918 0.1406572943)
(0.3607595127 -0.08176078454 0.1565827905)
(0.2520925722 -0.1248056627 0.08359652416)
(0.2152174207 -0.1272914287 -0.07319096569)
(0.2159205834 -0.1261409729 -0.1508519062)
(0.2232605771 -0.1336016461 -0.1358349584)
(0.2114362154 -0.1479043873 -0.05628386525)
(0.1457036971 -0.1715595802 0.04882285973)
(0.03306798062 -0.1905084165 0.07937534638)
(-0.03259046826 -0.2109816199 0.03367205087)
(-0.05897778696 -0.200534923 0.02754411368)
(-0.07815992206 -0.1787978552 0.01433486343)
(-0.07567371487 -0.1474977765 -0.01180051372)
(-0.06481390428 -0.1171814596 -0.02899991186)
(-0.04918810469 -0.08488203006 -0.03431823812)
(-0.04148153543 -0.06209494879 -0.01810391069)
(-0.06007948373 -0.04054043647 0.0008545183653)
(-0.1243659213 -0.01994592453 -0.03341283943)
(-0.09547723763 0.02667667824 -0.2516311198)
(0.1567575418 -0.05243667633 -0.4909485048)
(0.3407211352 -0.1387719925 -0.4671653979)
(0.4486704334 -0.1640937298 -0.2968878045)
(0.4224459145 -0.131652633 -0.08261345148)
(0.2596557131 -0.02533373983 0.07800634823)
(0.1039041895 0.07247907053 0.1419849575)
(0.4737091159 -0.0390686326 0.1508992929)
(0.4715140253 -0.08773922272 0.1463596894)
(0.4582305539 -0.1301885591 0.1373721291)
(0.4312721599 -0.1635456919 0.1268993794)
(0.3910918876 -0.1847370003 0.1207403772)
(0.3294183052 -0.1926039013 0.1125030172)
(0.2650047383 -0.1409733445 0.04819199399)
(0.2394521908 -0.0763416002 -0.01544671366)
(0.222695566 -0.0814908613 0.00563327092)
(0.1699595919 -0.1294696169 0.06402397352)
(0.0856875783 -0.1762093031 0.1012282047)
(-0.0155268729 -0.2019441205 0.05427034873)
(-0.02947936605 -0.2140937452 -0.01812468408)
(-0.03955643856 -0.2123126701 0.02706537079)
(-0.05899645274 -0.1893321252 0.0368547388)
(-0.05629015235 -0.1476232623 0.01243120489)
(-0.04172893033 -0.10612229 -0.007274238709)
(-0.0277521472 -0.06425529596 -0.01893740012)
(-0.01107778996 -0.02457940209 -0.00135998712)
(-0.04886435399 0.03343749958 0.04092175619)
(-0.1251768554 0.1022203334 0.01856916745)
(-0.1700840682 0.1696708971 -0.1919836755)
(0.1227850642 0.211667299 -0.5715182741)
(0.3492781671 0.2270054924 -0.6550831244)
(0.5146764041 0.2278360418 -0.5956361287)
(0.5813673859 0.205946023 -0.4536427074)
(0.4840470607 0.1764642086 -0.1642001685)
(0.2367846883 0.1914180573 0.150373038)
(0.4249308886 -0.251374273 0.1093182261)
(0.4228517914 -0.2564328257 0.09333275564)
(0.4120123008 -0.2619947051 0.07965538277)
(0.3915074351 -0.2663293891 0.07136611397)
(0.362295697 -0.2666614974 0.0699421422)
(0.3186940108 -0.2583382605 0.07566043194)
(0.2645017492 -0.217291257 0.08413714866)
(0.2341374112 -0.1844254052 0.09937260303)
(0.2021241673 -0.181260389 0.1136295704)
(0.1356351893 -0.18972491 0.1103715937)
(0.05365580506 -0.2048968739 0.09762857517)
(-0.03316300137 -0.2170108592 0.01749989129)
(-0.01072628042 -0.2013663828 -0.07897956994)
(0.005424016138 -0.2255667252 0.01310470227)
(-0.01990912378 -0.2157835319 0.05584525804)
(-0.0235844395 -0.1732300419 0.04462222942)
(-0.01828429468 -0.1211143633 0.03373079601)
(-0.005937575999 -0.07063556283 0.0222064207)
(0.00624472774 -0.018765424 0.02408826787)
(-0.0004137834896 0.01853425883 0.04247842597)
(-0.0117924983 0.09498569167 0.07959760678)
(-0.09814030349 0.1700449491 0.01640176788)
(0.06285724455 0.3179280624 -0.3244249302)
(0.2764774022 0.3741554871 -0.4669786903)
(0.4153716185 0.3676931257 -0.4024037147)
(0.474418646 0.3300974683 -0.2228194369)
(0.3548897967 0.2957586351 0.02678462155)
(0.1641334615 0.335906601 0.1835101732)
(0.3799404326 -0.3467605145 0.03550777027)
(0.3782543072 -0.3354729267 0.02934136604)
(0.3689030884 -0.3244450908 0.02871081016)
(0.353138154 -0.3125557315 0.02756300996)
(0.3265921187 -0.2902597578 0.04008153535)
(0.2840051909 -0.2660103806 0.06061569282)
(0.2412425179 -0.250502504 0.08630442509)
(0.1839289786 -0.2340571776 0.1013362557)
(0.1033284547 -0.2194657325 0.08948484249)
(0.03039975114 -0.2195929494 0.07043511747)
(-0.03467232246 -0.2282036648 0.008890552464)
(0.00617319176 -0.1770099247 -0.07058086365)
(0.05038640528 -0.2317670384 0.003971473396)
(0.03390411572 -0.2447557379 0.04904387498)
(0.03291427643 -0.2221910892 0.0528754892)
(0.03715349312 -0.1774924458 0.05848301573)
(0.05006037082 -0.1264074377 0.06538381344)
(0.06458153073 -0.07404245265 0.07675772371)
(0.06357826669 -0.03060724629 0.09329072931)
(0.05528054492 0.04176251519 0.1166790186)
(0.01445711758 0.08020798354 0.140335644)
(0.0133950939 0.2805525604 -0.02717417618)
(0.1967662172 0.4116864154 -0.2044812188)
(0.284374338 0.3837925296 -0.1004083001)
(0.2901903879 0.2979020652 0.05920692252)
(0.1961863304 0.2502728331 0.1507249437)
(0.08883256545 0.3070612283 0.1760703281)
(0.3675141627 -0.3976168353 0.00454698736)
(0.3684266305 -0.3738014013 0.002220916936)
(0.362304686 -0.3567063692 0.005243787085)
(0.3563227941 -0.3410633794 -0.02305360209)
(0.351003057 -0.3121838052 0.01113026164)
(0.3103900598 -0.2924956052 0.0459859049)
(0.2524188307 -0.2869889721 0.07871379507)
(0.1780981519 -0.2674558286 0.08972699868)
(0.09847398222 -0.2451692322 0.06589017617)
(0.05011836789 -0.2411315159 0.04713523373)
(0.005923884408 -0.2662798052 0.0278742739)
(0.02427639062 -0.2363479732 0.02605515403)
(0.06274262611 -0.2822571674 0.01969635255)
(0.069747747 -0.2907614033 0.0246367385)
(0.08524098668 -0.27888346 0.02737386411)
(0.09936274777 -0.2512383352 0.03743586153)
(0.1148988486 -0.2182304751 0.05310725074)
(0.1264393261 -0.1816635861 0.07258680285)
(0.1288611078 -0.1468146237 0.09357867896)
(0.1184334318 -0.08809269799 0.1117715817)
(0.08973378067 -0.0623597936 0.1262622071)
(0.04788625472 0.03743845829 0.137431984)
(0.131004065 0.175986018 0.09062086377)
(0.1831332364 0.1834448822 0.1321972863)
(0.1726285503 0.1501798913 0.1588270974)
(0.1047448139 0.1458158602 0.1538595708)
(0.04082098516 0.218165393 0.1543735056)
(0.3727267353 -0.4090030568 -0.0120684311)
(0.3695770355 -0.3775986247 -0.01120701976)
(0.3564720775 -0.352334376 -0.00752595045)
(0.3551424147 -0.2877877887 -0.1054113588)
(0.3882356603 -0.2896204338 -0.02705024373)
(0.3420846523 -0.2943961011 0.03935406994)
(0.263361421 -0.3053467045 0.08303406977)
(0.1733548513 -0.2855410944 0.08718729182)
(0.09253877738 -0.261186835 0.04886928616)
(0.05672890773 -0.2607397554 0.02008073278)
(0.03512262658 -0.2923785605 -0.001686657948)
(0.05450090492 -0.3044626651 -0.002586695845)
(0.08834045153 -0.3268319983 -0.01340369026)
(0.1116831847 -0.3301267707 -0.01286415022)
(0.1380107643 -0.3207748754 -0.00843529147)
(0.1608085113 -0.3011596198 0.001830136929)
(0.1788360243 -0.2788695243 0.01858145761)
(0.1887010118 -0.2555124028 0.0416658596)
(0.1870751621 -0.228020269 0.06567186559)
(0.1769174512 -0.173140663 0.06682935606)
(0.1639384039 -0.1298346679 0.04784805074)
(0.1521814005 -0.1007406652 0.04494451648)
(0.1705311669 -0.05934025236 0.07627979712)
(0.1877716878 -0.02507695163 0.1114975555)
(0.1611935076 0.004608313503 0.1383695683)
(0.07812410014 0.04121402112 0.1448949413)
(0.01547103039 0.08860294189 0.1522653496)
(0.3890783989 -0.3958875944 -0.02006557885)
(0.3858895277 -0.3680808759 -0.02010700085)
(0.4002834968 -0.370401552 -0.01641474143)
(0.4206224949 -0.2901451638 -0.003681411813)
(0.4064244607 -0.2814850818 0.01736801575)
(0.3507531815 -0.2918356766 0.05240835565)
(0.2600710486 -0.3147442701 0.08587655859)
(0.16486924 -0.2923605908 0.08349924789)
(0.08421742712 -0.2644752712 0.03464155024)
(0.05642678195 -0.2634733804 -0.007143691264)
(0.05382896983 -0.2893928369 -0.03633401094)
(0.07742451357 -0.3070484945 -0.04856675905)
(0.1126189983 -0.3247928404 -0.05473582973)
(0.1482716952 -0.3296989983 -0.05247647581)
(0.1832609001 -0.3246444274 -0.04515812751)
(0.2126532571 -0.3133034836 -0.03278848506)
(0.2324649627 -0.3020149719 -0.01376935364)
(0.2374310266 -0.2907475612 0.01399084989)
(0.2219358114 -0.2750929183 0.04181089083)
(0.1988370639 -0.2271887047 0.02296197635)
(0.203970355 -0.1753613308 -0.02778144588)
(0.221278817 -0.1409693986 -0.05948705722)
(0.2450459657 -0.1169849233 -0.06003558339)
(0.2549206749 -0.09492767713 -0.02964754002)
(0.2315236523 -0.06536864873 0.03400689738)
(0.1376086918 -0.03403734587 0.1145049668)
(0.05348054589 -0.05899248209 0.1801990252)
(0.4054038974 -0.3612102672 -0.01692954681)
(0.3611988821 -0.3243057564 -0.02594459147)
(0.4111705348 -0.2839505737 -0.0501385145)
(0.4929731004 -0.2697269747 -0.01171986696)
(0.438248348 -0.2687356524 0.01439345192)
(0.357206618 -0.2803472888 0.05409349024)
(0.2498389793 -0.3077879192 0.06664442362)
(0.1599408134 -0.2806284828 0.06780915301)
(0.07525678399 -0.2468312784 0.01994980062)
(0.05496240884 -0.2370651387 -0.03370608064)
(0.06202035077 -0.2558064406 -0.0691970784)
(0.09494071376 -0.2745205213 -0.0860770135)
(0.1383498023 -0.2905563453 -0.09117558134)
(0.1842358303 -0.2981271913 -0.0875646923)
(0.2273975718 -0.2973279126 -0.07800727545)
(0.2621834035 -0.2902637208 -0.06340452529)
(0.2826842765 -0.2814417966 -0.04231402829)
(0.2825867212 -0.2753279581 -0.01133287007)
(0.2511979739 -0.2644661045 0.0216401928)
(0.2072708159 -0.2094188715 -0.009956071264)
(0.2202419328 -0.140526187 -0.08585188524)
(0.2546708113 -0.1015806482 -0.1304926899)
(0.2917079916 -0.08202389797 -0.1393573252)
(0.3127213854 -0.07010346244 -0.1223614091)
(0.3113689559 -0.06629922398 -0.0819289888)
(0.2271704307 -0.06726901918 0.007919830355)
(0.1395495062 -0.1398121306 0.1435973938)
(0.4509702126 -0.320701403 0.00361883068)
(0.4359828473 -0.2842384095 -0.01462374594)
(0.4555140581 -0.2728820989 -0.02824526004)
(0.4769278195 -0.2414976811 -0.01034274151)
(0.4398083042 -0.2395589385 0.01569923782)
(0.3465273797 -0.2476922351 0.0541782984)
(0.2306004923 -0.2590773409 0.007290827269)
(0.1647546946 -0.2298646838 0.02575954579)
(0.07415237237 -0.1900653648 0.0005364469586)
(0.05417876699 -0.1745441416 -0.06085950197)
(0.06624019447 -0.1883089446 -0.1008700598)
(0.1079602665 -0.206216042 -0.1200415597)
(0.16027619 -0.2227639119 -0.124912647)
(0.2157449359 -0.2334099014 -0.1204859136)
(0.2673231582 -0.2371048202 -0.1095974756)
(0.3085608696 -0.2345366389 -0.09336390858)
(0.3328883818 -0.2276734714 -0.07092432583)
(0.3324234571 -0.2183093708 -0.03943813465)
(0.2946917922 -0.202930668 -0.001844977713)
(0.2282470819 -0.1477552403 -0.02207336011)
(0.2337314427 -0.07229770483 -0.1085267428)
(0.2789586137 -0.01719618288 -0.1651058254)
(0.3317129754 0.01446299256 -0.1819031736)
(0.371250987 0.03022000606 -0.1719713693)
(0.3854556617 0.03283166388 -0.1436624821)
(0.322230296 0.01140597101 -0.08279437491)
(0.2335090676 -0.06797036423 0.08424238713)
(0.4793277075 -0.2738381494 0.02976648508)
(0.3981302075 -0.2159564354 0.008915478402)
(0.423210075 -0.142699939 -0.2341609664)
(0.566269912 -0.1856186243 -0.01306630726)
(0.4807732486 -0.1909868232 0.02339588223)
(0.357910794 -0.1897204845 0.0589809503)
(0.2276456705 -0.1327545367 -0.06228558867)
(0.1799056047 -0.1219191208 -0.01844363784)
(0.07109134901 -0.09492052995 -0.01146811444)
(0.0426857676 -0.08143795221 -0.08398860329)
(0.05842590107 -0.09243527538 -0.1317544417)
(0.109688805 -0.1085642603 -0.1531965731)
(0.1720960003 -0.124938294 -0.1581449088)
(0.2378533593 -0.1373312312 -0.1534136202)
(0.2989822521 -0.144253869 -0.1421592294)
(0.348994469 -0.1452351448 -0.1257814455)
(0.3819031278 -0.1402701701 -0.1042942209)
(0.391335183 -0.1288942171 -0.07625045764)
(0.3704256455 -0.1087488479 -0.04035800062)
(0.3139057708 -0.06687011119 -0.01978056527)
(0.2909167202 0.006372008233 -0.06202278312)
(0.3164665289 0.07048743167 -0.1203416492)
(0.361841795 0.1082905553 -0.1494199565)
(0.3994010259 0.121767333 -0.1462806912)
(0.4135452769 0.11477132 -0.116615245)
(0.3444964218 0.09260107898 -0.04794332191)
(0.2333131202 0.06376095446 0.1215879743)
(0.5644165865 -0.242632 0.03226683969)
(0.5385990165 -0.1562949462 0.03720539812)
(0.5416287367 -0.07428734236 0.02877370179)
(0.5469207784 -0.1366388395 0.03205740632)
(0.5070027358 -0.1517470777 0.04446214335)
(0.421429449 -0.1433299089 0.07270916419)
(0.2895909216 -0.0860867949 0.1146951827)
(0.1313051247 -0.05775149442 0.09985392573)
(0.01513585466 0.01304308552 -0.01266725466)
(0.004215302338 0.04017439269 -0.1073857055)
(0.03422489984 0.03495091175 -0.1565000982)
(0.1004089759 0.01865368751 -0.1789568464)
(0.1737188832 -2.732435292e-05 -0.1849051926)
(0.2495015212 -0.01558705234 -0.1815300249)
(0.3196971546 -0.02655245857 -0.171560357)
(0.378381108 -0.03173994106 -0.1563535793)
(0.42070099 -0.03001936222 -0.1364732393)
(0.4425572541 -0.01956395064 -0.1117289528)
(0.4416387529 0.00268269054 -0.08128105752)
(0.4167078533 0.03939199257 -0.04922187736)
(0.382333311 0.09077250155 -0.04411982828)
(0.3775142486 0.1476647813 -0.0740039879)
(0.3999070697 0.1883219428 -0.1016066592)
(0.4217232411 0.2036933787 -0.1040164566)
(0.4236223135 0.1968448856 -0.07610724757)
(0.3368539685 0.1702131367 -0.001616761486)
(0.210298358 0.122665293 0.1562500746)
(0.6185796258 -0.2247558325 -0.02709774816)
(0.597930514 -0.1545699154 0.04108499505)
(0.5888738223 -0.1388422592 0.06799261578)
(0.5863006307 -0.159517619 0.07376904452)
(0.5580412891 -0.1562592432 0.08010456146)
(0.482099911 -0.125811 0.09918787402)
(0.3493431878 -0.07727466016 0.1436291961)
(0.1510270378 -0.0148451725 0.1468780172)
(-0.004609507756 0.08179626827 0.01745875243)
(-0.01675306536 0.1302776467 -0.09182743531)
(0.007406276151 0.1446763708 -0.1487282293)
(0.08180516519 0.1419048098 -0.1794203758)
(0.1613267247 0.1326779114 -0.1886516476)
(0.2456648164 0.122785048 -0.1880396926)
(0.3248896976 0.1139311636 -0.1802915494)
(0.3930016745 0.1077125386 -0.1667891958)
(0.4451752319 0.1053811899 -0.1482362787)
(0.4777346016 0.108384723 -0.1247730149)
(0.4888456689 0.1190199738 -0.09599200487)
(0.4783367693 0.1404542115 -0.06357266776)
(0.4526920334 0.1758647004 -0.04228277245)
(0.4341551528 0.219026511 -0.0461547524)
(0.4332851392 0.2529343984 -0.0601627611)
(0.4342447029 0.2656207857 -0.0606115287)
(0.4187621026 0.2568860989 -0.03376568336)
(0.3188251798 0.227268786 0.03364425044)
(0.1933709175 0.1789740766 0.155671997)
(0.6268876224 -0.1864217473 -0.178406556)
(0.6226654063 -0.1827561401 -0.05144628577)
(0.6183812145 -0.2123123585 0.0310405008)
(0.6179027848 -0.2367318897 0.05619781941)
(0.6033911095 -0.2116077042 0.06757065202)
(0.5448730136 -0.1419771136 0.09569096969)
(0.4215350761 -0.05765025455 0.1407540269)
(0.2158781595 0.02826478155 0.1703506895)
(0.01149982035 0.1468323647 0.06108027801)
(-0.02501356622 0.2141189527 -0.06559057406)
(-0.01373860574 0.2461875801 -0.1314395571)
(0.06042415699 0.253307034 -0.16961496)
(0.1430054849 0.2507284893 -0.1808146791)
(0.2325542014 0.2437665506 -0.1814335809)
(0.3179986842 0.235445343 -0.1745491568)
(0.3933416606 0.2280256323 -0.1620648544)
(0.4535925084 0.2231069667 -0.1450484826)
(0.4951176092 0.2221489776 -0.1239938749)
(0.5159647346 0.2268062067 -0.09881870997)
(0.515847021 0.2386745019 -0.07011966295)
(0.4976367382 0.2591018437 -0.04464593398)
(0.4733642902 0.2854248902 -0.03284888558)
(0.4544312612 0.3069669103 -0.03192948367)
(0.4351452909 0.3130444368 -0.02602404359)
(0.4010358221 0.2999360963 -0.0007656756507)
(0.2932571626 0.2707915295 0.05109252904)
(0.1748811542 0.2305304586 0.1392707485)
(0.7037461188 0.03100493463 -0.374536072)
(0.7188847253 -0.08504277438 -0.1884540362)
(0.6990617341 -0.1889939563 -0.04581203106)
(0.678114014 -0.2399108519 -0.01544704063)
(0.6633550808 -0.2255622666 -0.01116453339)
(0.6118065772 -0.1493913074 0.03381323098)
(0.4964216578 -0.04002766051 0.1209483772)
(0.300910358 0.069290427 0.1922953479)
(0.06656854169 0.1964353518 0.1237122397)
(-0.02061912168 0.2860068107 -0.02585436687)
(-0.02087509335 0.3323628188 -0.1064096864)
(0.04264069426 0.3518239464 -0.1526924606)
(0.1255204175 0.3578586645 -0.1678977282)
(0.2167853775 0.355665704 -0.1707003588)
(0.3056311192 0.3496959817 -0.1653385733)
(0.3855022262 0.3424286944 -0.1542701127)
(0.4510528926 0.3356264251 -0.1388093775)
(0.4985527814 0.3307235432 -0.1196866994)
(0.5257859933 0.3290754491 -0.09711692204)
(0.5319922432 0.3317079716 -0.07136474944)
(0.5182834294 0.3392719945 -0.04556092014)
(0.4910384539 0.3503176078 -0.02628552522)
(0.459389307 0.3582686311 -0.01527185556)
(0.423271053 0.3554249617 -0.004677197305)
(0.3756915353 0.3384907331 0.01570004013)
(0.2661200905 0.3123240367 0.05162062973)
(0.1576380761 0.2841008414 0.1186969914)
(0.7668516837 0.1838065385 -0.2528073934)
(0.7127315684 0.01647202761 -0.06690392974)
(0.6387854067 -0.09546584163 -0.03802367632)
(0.6113624713 -0.1314338996 -0.1271311889)
(0.614152611 -0.1208541948 -0.1700978148)
(0.5969652575 -0.08256412276 -0.1291805452)
(0.5123402655 -0.0188831658 -0.01901730542)
(0.3362191523 0.06904048415 0.1297945455)
(0.1115097231 0.2061298731 0.1603699053)
(-0.004041101701 0.3299131249 0.02375898253)
(-0.0155114 0.3954443396 -0.07432793706)
(0.03212023784 0.4312347184 -0.1293827581)
(0.1110601227 0.4467440643 -0.1502469475)
(0.2004596242 0.4504388693 -0.1559192872)
(0.2899029999 0.4478421315 -0.1525273681)
(0.3717459614 0.4417200297 -0.1430911682)
(0.4401794224 0.4341263163 -0.1292001305)
(0.4911493281 0.4265756682 -0.1117715064)
(0.5220681465 0.420281426 -0.09120872879)
(0.5316350012 0.416039822 -0.06767090816)
(0.5198482125 0.4141717587 -0.0426793663)
(0.4900801208 0.4135980616 -0.0205693245)
(0.4497188104 0.4102149443 -0.005044680021)
(0.4016121582 0.3988984757 0.005753798742)
(0.3469687029 0.3792606882 0.01921488929)
(0.2409874091 0.3565116556 0.04345390819)
(0.1429817786 0.3386009011 0.1005697986)
(0.6730812955 0.3175598177 -0.03202919742)
(0.3932268563 0.124119663 0.04464361798)
(0.3704791369 0.1144519861 -0.206804946)
(0.4642260396 0.1285160037 -0.3498423512)
(0.5684323583 0.1393273814 -0.3619949371)
(0.6310255079 0.1522306546 -0.3111104704)
(0.6282761863 0.1602451443 -0.2130363579)
(0.5230474814 0.1640968721 -0.03291270159)
(0.2982379204 0.218137083 0.1359141004)
(0.08742430576 0.3442085183 0.0971287525)
(0.01434229751 0.4420678973 -0.02920577949)
(0.03633582279 0.4910048743 -0.1002494515)
(0.1023817664 0.5153320591 -0.1282092534)
(0.1859736954 0.5253059631 -0.1374315374)
(0.2730164338 0.5268109786 -0.1363822203)
(0.3542986561 0.5228356035 -0.1287426919)
(0.4233556711 0.5156472381 -0.1164525061)
(0.4756152949 0.50687487 -0.1005957267)
(0.5080539593 0.4977293658 -0.08167696896)
(0.5188659221 0.488957627 -0.0597723726)
(0.5072999047 0.4807456381 -0.03565505562)
(0.4752479579 0.4722440832 -0.01283212163)
(0.428869868 0.4603755434 0.00317658666)
(0.374221223 0.4427493593 0.01084471102)
(0.3179014592 0.4214250994 0.01741591328)
(0.2186900193 0.4016374552 0.03460647343)
(0.1303409315 0.3912282673 0.08764513804)
(0.5625370888 0.4140450233 0.1592553413)
(0.2197583058 0.2736070544 0.1369033333)
(0.3499223739 0.2546843793 -0.1889787528)
(0.4874335719 0.2751030993 -0.3045583462)
(0.62116977 0.2844889482 -0.311710792)
(0.7025829822 0.2763547763 -0.2704692618)
(0.7138966554 0.2612859292 -0.1871529914)
(0.6204091356 0.2516032877 -0.03022730398)
(0.4142816831 0.2784366059 0.1331118054)
(0.1746816462 0.3776102488 0.1420698421)
(0.05364863005 0.4779494293 0.01686561482)
(0.04955126454 0.5328903876 -0.06853521925)
(0.1000020565 0.563425247 -0.1033900549)
(0.174609022 0.57901355 -0.116153638)
(0.2566531868 0.5848341125 -0.1175062225)
(0.3350693932 0.5837354951 -0.1117047844)
(0.4026421264 0.5779653477 -0.1010004117)
(0.4542297442 0.5692155986 -0.08660617291)
(0.4863747278 0.558741856 -0.06904753934)
(0.4968611829 0.5473253282 -0.04827249751)
(0.4845429405 0.5351464077 -0.02473133924)
(0.4502179968 0.521244404 -0.002250643035)
(0.4005384268 0.503506973 0.01182562738)
(0.3439359742 0.4821306577 0.01486377171)
(0.2896628348 0.4605102496 0.0157832666)
(0.1984113043 0.4435628562 0.02915517487)
(0.1185760703 0.4386314539 0.07991955469)
(0.5935168828 0.4073097087 0.3134719599)
(0.2978220211 0.1289243607 0.185147941)
(0.4094805153 0.2164026898 -0.1188673015)
(0.5541405921 0.3382627242 -0.2224539346)
(0.6803929301 0.3899013946 -0.2288982376)
(0.7463274592 0.3852481075 -0.189032263)
(0.7341329773 0.3502630832 -0.09738784222)
(0.6293029913 0.3112388643 0.04142615341)
(0.4453768186 0.3109592454 0.1606652972)
(0.2281973558 0.3906513174 0.169024806)
(0.09338662609 0.4913887957 0.05797680927)
(0.06788088927 0.5558649906 -0.03609694688)
(0.1035385389 0.5903733299 -0.07673527471)
(0.1672314554 0.6107217353 -0.09261484313)
(0.2421746869 0.6207450661 -0.09619257279)
(0.3156920114 0.6229289709 -0.09215438651)
(0.3798337294 0.6193045794 -0.08296331133)
(0.4289347862 0.6115240063 -0.0699010346)
(0.4591692767 0.6008488441 -0.05343244719)
(0.4681030526 0.5881277117 -0.03335847312)
(0.4542579626 0.5733482579 -0.01017969402)
(0.4179552207 0.5552102298 0.01089283045)
(0.3677293164 0.534155075 0.02169239811)
(0.3125677548 0.5115791184 0.01997920859)
(0.26238746 0.4914021744 0.01693227746)
(0.1790481991 0.4777720257 0.0282779364)
(0.1068237546 0.4772540032 0.07627926335)
(0.4790767206 0.1197990197 0.100473113)
(0.3513310114 0.2096669284 -0.2178454048)
(0.5094182133 0.3182694406 -0.3395217068)
(0.6694162416 0.4137190434 -0.2848938899)
(0.7736323007 0.452588883 -0.1981784014)
(0.8007392243 0.4338861879 -0.1032614256)
(0.7422590545 0.3742053861 0.01045661569)
(0.6202547417 0.3141684288 0.1157595285)
(0.452823731 0.3010641946 0.1811459489)
(0.2658323735 0.3700006291 0.1817158657)
(0.1320895224 0.4752428788 0.0943283099)
(0.09143536004 0.5537092223 -0.001276131186)
(0.1124277605 0.5953865616 -0.04747393572)
(0.1645878369 0.619903253 -0.06642482326)
(0.2306810473 0.6337555205 -0.07207259809)
(0.2975349641 0.6392831 -0.06967486634)
(0.356501607 0.6382017167 -0.0618890476)
(0.4014686802 0.6320235619 -0.05001990004)
(0.4284165235 0.6219614072 -0.03443280793)
(0.434795028 0.6084814859 -0.01486890972)
(0.4182344358 0.5907895613 0.007267795935)
(0.381267769 0.5701708415 0.02592983785)
(0.3328083613 0.548016483 0.03275575531)
(0.2813098338 0.5266853089 0.02706704463)
(0.2359984281 0.5098476091 0.02176125315)
(0.1599802626 0.5004824538 0.03176199079)
(0.09483001514 0.504173557 0.07539555971)
(1.136465532 0.7484469081 -1.198973499)
(0.667135153 0.5671337945 -0.3914147488)
(0.6822787654 0.5654689705 -0.4239166338)
(0.7829305816 0.5687683145 -0.3392465061)
(0.8365225817 0.5399690319 -0.1891842356)
(0.8071629955 0.4674477593 -0.03319338238)
(0.7124033724 0.3706825408 0.08063636911)
(0.5843868323 0.2931223302 0.1300567571)
(0.4397302973 0.2728047341 0.1484629092)
(0.2847629308 0.3273098338 0.1611455155)
(0.160653658 0.431295077 0.1177113377)
(0.1140840014 0.523233361 0.03557886953)
(0.1242475068 0.5769380877 -0.01456120582)
(0.1661115003 0.6059694768 -0.03668431362)
(0.2225768442 0.6230369935 -0.04429679535)
(0.2815096184 0.6316315098 -0.04338999832)
(0.3339784799 0.6332418285 -0.03689558134)
(0.3736436105 0.6291289612 -0.02617760232)
(0.3960977017 0.6194383666 -0.01156399984)
(0.3982885365 0.6044626682 0.006766510212)
(0.3794847042 0.5854003207 0.02670837393)
(0.3429552509 0.5639985626 0.04179039604)
(0.2978489489 0.5428112552 0.0445292296)
(0.251086391 0.5248756691 0.03623981218)
(0.2106288533 0.5130916487 0.03011260903)
(0.1413107371 0.5091977772 0.03862565765)
(0.08300525055 0.5174573976 0.07592769247)
(0.7805909414 1.105395726 -0.2156629182)
(0.4615130911 0.8957136743 -0.351914698)
(0.6271804541 0.7942138539 -0.4200285701)
(0.7433141107 0.7059255486 -0.2847781819)
(0.770654262 0.5983521925 -0.09298017613)
(0.7091879026 0.4690069186 0.04880702209)
(0.6137197319 0.3580534296 0.08986284601)
(0.5156381849 0.2931200237 0.07063481783)
(0.4157802502 0.2763509592 0.06267464081)
(0.3022752194 0.301764867 0.09561383503)
(0.1907249251 0.3734067679 0.1126146515)
(0.1362875929 0.4654414632 0.06737968465)
(0.1381314422 0.5297010052 0.02020080757)
(0.1699992463 0.5662372775 -0.004392481631)
(0.2171230093 0.587283324 -0.01346721913)
(0.2678873436 0.5984887859 -0.01370644388)
(0.3133784052 0.6021425829 -0.008441091894)
(0.3468899963 0.5991941363 0.0007516459497)
(0.3639308009 0.5903738764 0.0136317877)
(0.3621367187 0.5761502835 0.02960232772)
(0.3415530297 0.5576245114 0.04605476523)
(0.3062169665 0.5372008377 0.05664056023)
(0.2650126482 0.5186910275 0.05577380895)
(0.222890171 0.5056028026 0.04652129087)
(0.1868396003 0.5000308734 0.04059077874)
(0.1236327118 0.5027495065 0.04707308686)
(0.07191643018 0.5162312055 0.07700030144)
(0.3749196115 1.001394692 0.14416776)
(0.3251082033 0.9739482596 -0.3142340765)
(0.5259333059 0.8675846697 -0.2958357144)
(0.6160137601 0.7272048461 -0.1160606445)
(0.6062563915 0.5691933155 0.03492580097)
(0.5509567925 0.4387843068 0.07275431619)
(0.4957158375 0.3563717343 0.03532892992)
(0.4499332072 0.3154820662 -0.006090180106)
(0.4019041839 0.3008343121 -0.01361387647)
(0.3324351066 0.3034631358 0.02563388229)
(0.2390389629 0.3311048329 0.07995744867)
(0.1689651933 0.3970847788 0.08265351967)
(0.1549250259 0.461784819 0.04895849393)
(0.1755475078 0.5025479785 0.02391695918)
(0.2133071667 0.5257887204 0.01387944914)
(0.256228849 0.5385059788 0.01306200204)
(0.295073609 0.5440868529 0.01747267925)
(0.3230530183 0.5437677948 0.02541719172)
(0.3356521349 0.5379565628 0.03635149452)
(0.3307545302 0.5267494833 0.04943624591)
(0.3090186476 0.5109418469 0.06171907922)
(0.2748638864 0.4932311831 0.06783854281)
(0.2368063195 0.4784442139 0.06459064798)
(0.1982934227 0.4705724842 0.05577304916)
(0.1658049306 0.4714851914 0.05056183278)
(0.1079823467 0.4815051118 0.05499213741)
(0.06225527615 0.5007425292 0.07831585423)
(0.2656337826 0.765964136 0.2078504649)
(0.259973327 0.8953631693 -0.1455121165)
(0.4164897947 0.7857373021 -0.07798054942)
(0.4487459064 0.628986391 0.04509099479)
(0.433160233 0.5013019991 0.07132592633)
(0.4153540822 0.4198491266 0.02365211461)
(0.408989877 0.3730695484 -0.02940210681)
(0.4074232249 0.3468590324 -0.05672845844)
(0.3984475213 0.3313802671 -0.05482296107)
(0.3625877442 0.3207426039 -0.01668558175)
(0.2888445083 0.3181577951 0.04695448818)
(0.2080935979 0.3464976718 0.08007216861)
(0.1734098277 0.3939039692 0.06259415861)
(0.1812704741 0.4303035034 0.03849192767)
(0.2104022916 0.4513111025 0.02757732347)
(0.2468571133 0.4629652868 0.02665888681)
(0.2808196652 0.4692889732 0.03114118428)
(0.3051620038 0.471634048 0.03880706074)
(0.3152211409 0.4698895784 0.04877058311)
(0.3087991901 0.4634521568 0.05988197272)
(0.2865539772 0.4522514771 0.06929587134)
(0.2529323135 0.4386221333 0.07288765861)
(0.2162821437 0.4277522198 0.06905477043)
(0.1796112997 0.4242353398 0.0614857932)
(0.1493446516 0.4307481407 0.057256438)
(0.09577734979 0.4477691425 0.0606710041)
(0.0547508685 0.4722827674 0.07998521917)
(0.2808627767 0.6127795149 0.2009116969)
(0.2313611151 0.7263021139 0.04105102763)
(0.3144044442 0.6275312259 0.06939401109)
(0.3110579665 0.5204756608 0.08381973268)
(0.3147919328 0.4554757671 0.03138263088)
(0.3343264359 0.418158724 -0.02983614879)
(0.3631108542 0.3939002731 -0.06577237092)
(0.3896988875 0.3751823323 -0.07603333409)
(0.4022951709 0.3585113687 -0.06591895239)
(0.3842992142 0.3397347268 -0.02798703555)
(0.3225305678 0.3197623921 0.03436278496)
(0.2380256797 0.3188028625 0.07411697583)
(0.1878543481 0.3426036856 0.06170272721)
(0.1850036271 0.3673244485 0.03560341092)
(0.2078029544 0.3818738157 0.02236917261)
(0.240206194 0.3896259621 0.02071515869)
(0.2717590849 0.3944396804 0.02546133359)
(0.2949512248 0.3977640619 0.03375759949)
(0.3047974154 0.3992379724 0.04432789065)
(0.2987006742 0.3974889963 0.05588970765)
(0.276827374 0.3913641594 0.06581375503)
(0.2431396566 0.3820662835 0.07045025477)
(0.2059385091 0.3742236442 0.06827309019)
(0.1690448589 0.3731599485 0.0624270303)
(0.139248413 0.3832135279 0.05937413743)
(0.08834951093 0.4054129276 0.0634525043)
(0.05012513046 0.4332050765 0.08215096223)
(0.2295600599 0.5454825308 0.1544971367)
(0.1936334737 0.58127602 0.09293042828)
(0.2328089607 0.5064350761 0.08184974735)
(0.2296655165 0.4508975547 0.0526723325)
(0.2549786756 0.4274972433 -0.005081261071)
(0.2980755783 0.4160551031 -0.04973033083)
(0.346518364 0.4054782517 -0.06927447683)
(0.3875739478 0.3918806681 -0.06961610093)
(0.4099856981 0.3748707178 -0.05437976342)
(0.3970430987 0.3505654066 -0.01491361736)
(0.3394055904 0.3205200547 0.04245267414)
(0.2533386509 0.3022097858 0.07481436461)
(0.1951943046 0.3083420581 0.0552080087)
(0.1861044626 0.3219486008 0.02259844577)
(0.2054216317 0.3300440569 0.005137246199)
(0.2359728521 0.3334697933 0.001322887089)
(0.2671183776 0.3353799125 0.00528697695)
(0.2911624656 0.3375072378 0.01379053545)
(0.3026739038 0.3397152397 0.02545530747)
(0.2985468536 0.340447427 0.0391733937)
(0.2781974528 0.3376643553 0.05255266118)
(0.2446116007 0.3311566029 0.061595543)
(0.2057654309 0.324396148 0.06337567163)
(0.1670010428 0.3233117522 0.05988890996)
(0.1359835682 0.334102144 0.05810346836)
(0.08612402228 0.3584442389 0.0640438465)
(0.04882102136 0.386841645 0.08483850898)