/*--------------------------------*- C++ -*----------------------------------*\
  =========                 |
  \\      /  F ield         | OpenFOAM: The Open Source CFD Toolbox
   \\    /   O peration     | Website:  https://openfoam.org
    \\  /    A nd           | Version:  8
     \\/     M anipulation  |
\*---------------------------------------------------------------------------*/
FoamFile
{
    version     2.0;
    format      ascii;
    class       volVectorField;
    location    "1.9/wallFilmRegion";
    object      contactForce:contactAngle;
}
// * * * * * * * * * * * * * * * * * * * * * * * * * * * * * * * * * * * * * //

dimensions      [1 -2 -2 0 0 0 0];

internalField   nonuniform List<vector> 
1369
(
(0 0 0)
(0 0 0)
(0 0 0)
(0 0 0)
(0 0 0)
(0 0 0)
(0 0 0)
(0 0 0)
(0 0 0)
(-346.1297358 0 0)
(-523.102753 0 0)
(-319.1552011 0 0)
(0 0 0)
(0 0 0)
(0 0 0)
(0 0 0)
(0 0 0)
(0 0 0)
(0 0 0)
(0 -286.3053068 -8.465804577e-13)
(0 0 0)
(0 0 0)
(0 0 0)
(0 361.9063385 -1.070126283e-12)
(0 0 0)
(0 0 0)
(0 0 0)
(0 0 0)
(0 0 0)
(-416.5437137 -381.8317389 -1.129043998e-12)
(0 0 0)
(0 0 0)
(0 -326.6092551 0)
(0 0 0)
(0 0 0)
(0 0 0)
(-1031.680843 945.7074378 0)
(0 0 0)
(0 0 0)
(0 0 0)
(0 0 0)
(0 -270.4924124 0)
(0 0 0)
(0 0 0)
(0 0 0)
(0 0 0)
(932.751663 855.0223609 0)
(0 0 0)
(0 0 0)
(0 -343.317738 0)
(0 0 0)
(0 0 0)
(0 0 0)
(0 0 0)
(-363.0044827 332.7541086 0)
(0 0 0)
(0 0 0)
(0 0 0)
(0 -668.7021848 0)
(0 0 0)
(0 0 0)
(0 0 0)
(496.2770326 454.9206124 0)
(-386.2151757 0 0)
(-459.2129474 -420.945201 0)
(0 0 0)
(957.3881872 877.6058366 0)
(0 0 0)
(0 -510.7128181 0)
(0 0 0)
(0 0 0)
(0 0 0)
(0 0 0)
(0 0 0)
(0 244.4436464 0)
(0 0 0)
(0 0 0)
(0 0 0)
(661.3687486 0 0)
(294.5696718 0 0)
(693.3371404 0 0)
(-964.4719525 -884.099293 -2.614206465e-12)
(0 0 0)
(0 0 0)
(619.1332369 567.5387994 0)
(0 0 0)
(0 0 0)
(0 0 0)
(0 0 0)
(0 0 0)
(0 0 0)
(0 -404.1366392 0)
(0 0 0)
(0 0 0)
(0 0 0)
(0 0 0)
(0 0 0)
(-361.4945911 331.3700412 0)
(0 0 0)
(0 0 0)
(0 0 0)
(0 0 0)
(0 -345.0343454 0)
(0 0 0)
(0 0 0)
(0 0 0)
(0 0 0)
(0 265.3047157 0)
(0 0 0)
(0 0 0)
(0 0 0)
(0 0 0)
(0 0 0)
(0 0 0)
(0 0 0)
(0 0 0)
(0 0 0)
(865.2021772 -793.1019943 0)
(0 0 0)
(0 0 0)
(0 0 0)
(0 0 0)
(0 0 0)
(0 418.683858 0)
(0 0 0)
(0 0 0)
(0 0 0)
(0 -624.4260806 0)
(0 0 0)
(0 0 0)
(0 0 0)
(548.5222947 502.8121026 0)
(0 0 0)
(-281.7368441 0 0)
(-550.2368361 0 0)
(0 0 0)
(0 0 0)
(0 0 0)
(0 0 0)
(0 0 0)
(0 0 0)
(0 0 0)
(-553.6123147 0 0)
(0 0 0)
(625.6288535 0 0)
(662.1336071 0 0)
(313.0599424 0 0)
(328.1035774 0 0)
(592.3808945 0 0)
(0 0 0)
(0 0 0)
(0 0 0)
(0 0 0)
(0 0 0)
(311.695976 0 0)
(227.7185954 0 0)
(334.4254347 0 0)
(0 0 0)
(-379.6436962 -348.0067228 0)
(0 0 0)
(0 0 0)
(-751.9157602 689.256116 0)
(0 0 0)
(0 0 0)
(0 0 0)
(0 0 0)
(0 0 0)
(0 -471.4048274 0)
(0 0 0)
(0 -1470.528155 0)
(0 0 0)
(0 732.3096547 0)
(0 0 0)
(0 0 0)
(0 0 0)
(0 0 0)
(0 0 0)
(0 0 0)
(0 0 0)
(0 0 0)
(0 0 0)
(0 0 0)
(0 0 0)
(0 -502.7939703 0)
(0 0 0)
(0 0 0)
(0 0 0)
(0 0 0)
(0 705.4607948 0)
(0 0 0)
(0 0 0)
(0 0 0)
(0 0 0)
(-2.867178598e-13 -775.7216134 0)
(0 -266.1748263 -7.870563464e-13)
(0 0 0)
(0 586.4725943 0)
(569.2216703 0 0)
(0 0 0)
(0 0 0)
(0 0 0)
(0 0 0)
(0 0 0)
(0 0 0)
(0 0 0)
(0 0 0)
(-495.9623862 0 0)
(0 0 0)
(0 0 0)
(0 0 0)
(0 -760.1506713 0)
(0 0 0)
(0 0 0)
(0 0 0)
(924.6285827 847.5761992 0)
(0 0 0)
(0 0 0)
(0 0 0)
(0 0 0)
(0 0 0)
(0 -329.9192279 -9.755431262e-13)
(0 -268.4426863 0)
(0 0 0)
(0 300.9954078 0)
(0 0 0)
(0 0 0)
(0 0 0)
(0 0 0)
(-469.5899444 0 0)
(0 0 0)
(0 0 0)
(0 0 0)
(-437.0538991 -400.6327423 0)
(0 0 0)
(-915.3125935 839.0365471 0)
(0 0 0)
(0 0 0)
(0 0 0)
(323.9795419 0 0)
(346.5555606 0 0)
(371.9043903 0 0)
(0 0 0)
(0 0 0)
(0 0 0)
(0 0 0)
(0 0 0)
(0 0 0)
(0 0 0)
(0 -415.9743518 0)
(0 0 0)
(0 326.9455625 0)
(0 0 0)
(-632.7617855 0 0)
(-344.0566871 0 0)
(-999.730233 -916.4193785 0)
(0 0 0)
(0 574.8087398 0)
(0 0 0)
(0 -437.6100839 0)
(0 0 0)
(0 0 0)
(0 0 0)
(0 470.9123937 0)
(0 0 0)
(0 0 0)
(0 0 0)
(0 0 0)
(0 0 0)
(0 0 0)
(0 0 0)
(0 0 0)
(0 0 0)
(0 0 0)
(0 0 0)
(0 0 0)
(0 0 0)
(0 0 0)
(263.0290962 0 7.129417976e-13)
(0 0 0)
(-437.0409416 -400.6208624 0)
(0 0 0)
(0 0 0)
(0 0 0)
(0 0 0)
(0 736.9955974 -2.179233364e-12)
(0 0 0)
(0 -480.3561315 1.420372269e-12)
(0 0 0)
(0 0 0)
(0 0 0)
(-416.8433883 382.1064385 -1.129856274e-12)
(0 0 0)
(0 0 0)
(0 0 0)
(0 0 0)
(0 0 0)
(0 0 0)
(0 0 0)
(0 0 0)
(0 0 0)
(0 0 0)
(0 0 0)
(0 0 0)
(0 0 0)
(0 0 0)
(0 0 0)
(0 0 0)
(-1086.384008 -995.8520113 0)
(0 0 0)
(0 0 0)
(8.882834347e-06 1492.80458 0)
(1424.72008 0 0)
(1419.584707 0 0)
(-587.9716973 0 -1.593700479e-12)
(-511.514656 0 0)
(-373.9073966 0 0)
(1.248563948e-05 -2098.273937 0)
(0 0 0)
(0 0 0)
(0 0 0)
(-711.8081927 652.4908456 0)
(-446.1598197 0 0)
(-701.4682758 0 0)
(0 0 0)
(0 0 0)
(0 0 0)
(0 0 0)
(0 0 0)
(0 0 0)
(0 0 0)
(0 0 0)
(0 0 0)
(0 0 0)
(0 0 0)
(0 0 0)
(-441.68596 -404.878796 0)
(0 0 0)
(0 0 0)
(0 0 0)
(0 0 0)
(0 0 0)
(0 0 0)
(0 0 0)
(0 0 0)
(0 0 0)
(0 0 0)
(0 0 0)
(0 0 0)
(0 0 0)
(0 0 0)
(0 0 0)
(0 0 0)
(0 662.3218811 0)
(0 0 0)
(0 0 0)
(0 0 0)
(0 0 0)
(0 0 0)
(0 0 0)
(0 0 0)
(0 0 0)
(0 0 0)
(0 0 0)
(0 -595.2406742 -3.520152201e-12)
(0 0 0)
(0 0 0)
(0 0 0)
(0 0 0)
(0 0 0)
(0 0 0)
(0 0 0)
(0 0 0)
(0 0 0)
(0 0 0)
(0 0 0)
(0 0 0)
(0 0 0)
(0 0 0)
(0 0 0)
(0 0 0)
(0 0 0)
(0 319.3755461 0)
(0 0 0)
(0 0 0)
(-336.6197554 0 0)
(0 0 0)
(0 0 0)
(0 0 0)
(0 0 0)
(0 0 0)
(0 0 0)
(0 0 0)
(0 0 0)
(0 0 0)
(0 0 0)
(0 0 0)
(0 0 0)
(0 -706.23204 0)
(0 0 0)
(0 0 0)
(0 0 0)
(0 0 0)
(0 0 0)
(0 0 0)
(0 0 0)
(0 0 0)
(0 0 0)
(0 0 0)
(0 0 0)
(0 0 0)
(0 0 0)
(0 0 0)
(0 0 0)
(0 0 0)
(1053.981031 966.149277 0)
(0 0 0)
(0 0 0)
(0 -708.361561 2.094564929e-12)
(0 0 0)
(0 266.3280373 0)
(0 0 0)
(0 0 0)
(0 0 0)
(0 0 0)
(0 0 0)
(0 0 0)
(0 0 0)
(0 0 0)
(0 0 0)
(0 0 0)
(0 0 0)
(0 -756.7681391 0)
(0 0 0)
(0 0 0)
(0 0 0)
(0 0 0)
(0 0 0)
(0 0 0)
(0 0 0)
(0 0 0)
(0 0 0)
(0 0 0)
(0 0 0)
(0 0 0)
(0 0 0)
(0 0 0)
(0 0 0)
(0 0 0)
(0 487.6086975 -1.441817474e-12)
(0 0 0)
(0 0 0)
(0 0 0)
(529.238931 0 -1.434504997e-12)
(0 0 0)
(0 0 0)
(0 0 0)
(0 0 0)
(0 0 0)
(0 0 0)
(0 0 0)
(0 0 0)
(0 0 0)
(0 0 0)
(0 0 0)
(0 0 0)
(0 0 0)
(1027.03109 -941.4451642 0)
(0 0 0)
(0 0 0)
(0 0 0)
(0 0 0)
(0 0 0)
(0 0 0)
(0 0 0)
(0 0 0)
(0 0 0)
(0 0 0)
(0 0 0)
(0 0 0)
(0 0 0)
(0 0 0)
(455.2730632 417.3336405 0)
(0 0 0)
(-466.594973 0 0)
(-304.6604924 0 0)
(0 0 0)
(0 0 0)
(0 0 0)
(0 0 0)
(0 0 0)
(0 0 0)
(0 0 0)
(0 0 0)
(0 0 0)
(0 0 0)
(0 0 0)
(0 0 0)
(0 0 0)
(0 0 0)
(0 0 0)
(402.6837128 0 0)
(270.8652504 0 0)
(508.0920563 0 0)
(258.6289073 0 0)
(594.359164 0 0)
(479.9819436 -439.9834475 0)
(0 0 0)
(0 0 0)
(0 0 0)
(664.9498006 609.5373161 0)
(465.4590948 0 0)
(440.6674055 0 0)
(274.6677656 0 0)
(707.4411686 0 0)
(0 0 0)
(0 -516.2555597 0)
(0 0 0)
(0 0 0)
(0 428.5378592 0)
(0 0 0)
(0 0 0)
(0 0 0)
(0 0 0)
(0 0 0)
(0 0 0)
(0 0 0)
(0 0 0)
(0 0 0)
(0 0 0)
(0 0 0)
(0 0 0)
(0 0 0)
(0 0 0)
(0 0 0)
(0 0 0)
(0 0 0)
(0 0 0)
(0 0 0)
(278.9258087 0 0)
(226.1532746 0 0)
(608.4441706 0 0)
(0 0 0)
(0 0 0)
(0 0 0)
(0 0 0)
(0 0 0)
(0 0 0)
(0 0 0)
(588.9783902 0 0)
(316.4234043 0 0)
(0 0 0)
(0 0 0)
(0 0 0)
(0 0 0)
(0 0 0)
(0 0 0)
(0 0 0)
(0 0 0)
(0 0 0)
(0 0 0)
(0 0 0)
(0 0 0)
(0 0 0)
(0 0 0)
(-331.4854807 0 0)
(-311.8093805 0 0)
(-270.5639669 0 0)
(0 0 0)
(0 0 0)
(0 0 0)
(0 0 0)
(0 0 0)
(0 0 0)
(0 0 0)
(0 0 0)
(0 0 0)
(0 0 0)
(0 0 0)
(0 0 0)
(0 0 0)
(0 0 0)
(0 0 0)
(0 0 0)
(0 0 0)
(0 0 0)
(0 0 0)
(0 0 0)
(0 0 0)
(0 0 0)
(0 0 0)
(0 0 0)
(0 0 0)
(0 0 0)
(0 0 0)
(0 0 0)
(-788.3335745 -722.6391126 0)
(0 0 0)
(0 0 0)
(0 0 0)
(-924.1374658 847.1260134 0)
(0 0 0)
(0 0 0)
(0 0 0)
(0 0 0)
(0 0 0)
(0 0 0)
(0 0 0)
(0 0 0)
(0 0 0)
(-496.9572674 0 0)
(0 0 0)
(0 0 0)
(0 0 0)
(-326.4248096 0 0)
(0 0 0)
(0 0 0)
(0 0 0)
(0 0 0)
(0 0 0)
(0 0 0)
(0 0 0)
(0 0 0)
(0 0 0)
(0 0 0)
(0 0 0)
(0 -409.5495431 0)
(0 0 0)
(0 0 0)
(0 0 0)
(0 0 0)
(0 0 0)
(0 774.9420923 0)
(0 0 0)
(0 0 0)
(0 0 0)
(0 0 0)
(0 0 0)
(0 0 0)
(-346.4590074 0 0)
(-1098.83954 -1007.269577 -2.978410525e-12)
(0 0 0)
(0 467.5606923 0)
(0 0 0)
(0 -404.1360008 0)
(0 0 0)
(0 622.0272522 -1.839281716e-12)
(0 0 0)
(0 0 0)
(0 0 0)
(0 0 0)
(0 0 0)
(0 0 0)
(0 0 0)
(0 0 0)
(0 0 0)
(0 0 0)
(0 -340.9506715 0)
(0 0 0)
(0 0 0)
(0 0 0)
(0 0 0)
(0 0 0)
(-530.397647 486.1978422 0)
(0 0 0)
(0 0 0)
(0 0 0)
(0 0 0)
(0 0 0)
(-507.9209196 -465.5941755 0)
(0 0 0)
(0 0 0)
(0 0 0)
(-617.2664731 565.8275993 0)
(0 0 0)
(0 0 0)
(354.6443797 0 0)
(0 0 0)
(0 0 0)
(0 0 0)
(0 0 0)
(0 0 0)
(0 0 0)
(0 0 0)
(0 0 0)
(0 0 0)
(0 0 0)
(0 0 0)
(0 -367.1082542 0)
(0 0 0)
(0 0 0)
(0 0 0)
(0 0 0)
(0 0 0)
(0 0 0)
(0 338.0710092 0)
(0 0 0)
(-396.6047126 0 0)
(0 0 0)
(0 -506.941838 0)
(0 0 0)
(0 0 0)
(0 0 0)
(0 0 0)
(0 0 0)
(0 643.5028482 0)
(0 0 0)
(0 0 0)
(0 0 0)
(0 0 0)
(0 0 0)
(0 0 0)
(0 0 0)
(0 0 0)
(0 0 0)
(0 0 0)
(0 0 0)
(0 0 0)
(0 0 0)
(0 0 0)
(577.1195073 0 0)
(900.328728 -825.301337 0)
(0 0 0)
(1103.178437 1011.246904 0)
(252.3688885 0 0)
(364.3684152 0 0)
(0 0 0)
(-622.7264033 -570.8325354 -1.687903289e-12)
(0 0 0)
(-1064.576555 975.8618402 0)
(0 -767.009862 0)
(0 0 0)
(0 0 0)
(0 0 0)
(0 0 0)
(355.1805305 325.5821542 0)
(0 0 0)
(0 0 0)
(0 0 0)
(0 0 0)
(0 0 0)
(0 0 0)
(0 0 0)
(0 0 0)
(0 0 0)
(0 0 0)
(0 0 0)
(0 0 0)
(0 0 0)
(0 0 0)
(0 0 0)
(0 0 0)
(0 0 0)
(407.1383578 0 0)
(0 0 0)
(-241.8208978 0 0)
(-286.5639203 0 0)
(-564.0275999 -517.025299 0)
(0 0 0)
(0 0 0)
(0 0 0)
(0 1421.327912 0)
(0 0 0)
(0 0 0)
(0 0 0)
(360.2530641 330.2319748 0)
(0 0 0)
(0 0 0)
(0 0 0)
(0 0 0)
(-662.1162875 0 0)
(-456.465727 0 0)
(-643.4119737 0 0)
(-220.196896 0 0)
(0 0 0)
(0 0 0)
(0 0 0)
(0 0 0)
(0 0 0)
(0 0 0)
(0 0 0)
(0 0 0)
(0 0 0)
(0 0 0)
(0 0 0)
(-989.5504953 -907.0879573 0)
(0 0 0)
(0 0 0)
(0 0 0)
(0 0 0)
(0 0 0)
(0 0 0)
(0 743.8390209 0)
(239.4299789 0 0)
(520.7224999 0 0)
(604.1205997 0 -1.637472158e-12)
(0 0 0)
(0 0 0)
(-340.5267574 0 0)
(-656.7767598 0 0)
(-383.2047316 -351.2710053 0)
(0 0 0)
(0 0 0)
(0 0 0)
(0 0 0)
(-414.3582372 379.8283854 0)
(-506.3222517 0 0)
(-420.9782892 0 0)
(0 0 0)
(0 0 0)
(0 0 0)
(0 0 0)
(0 0 0)
(0 0 0)
(0 0 0)
(0 -680.302366 -2.011596274e-12)
(0 0 0)
(0 0 0)
(0 0 0)
(0 0 0)
(0 0 0)
(0 0 0)
(-4.265929531e-06 716.9083348 0)
(-274.5536598 0 0)
(0 0 0)
(0 0 0)
(0 0 0)
(0 0 0)
(0 -639.5411296 0)
(0 0 0)
(0 0 0)
(0 0 0)
(0 0 0)
(0 0 0)
(0 0 0)
(0 0 0)
(0 0 0)
(0 0 0)
(0 0 0)
(-753.536873 690.7421323 0)
(0 0 0)
(0 0 0)
(0 0 0)
(0 0 0)
(0 0 0)
(0 0 0)
(0 0 0)
(815.3732525 -747.4254801 0)
(0 0 0)
(0 0 0)
(0 0 0)
(0 0 0)
(0 0 0)
(0 0 0)
(0 0 0)
(0 721.9636285 0)
(0 0 0)
(0 0 0)
(0 0 0)
(0 -470.385651 0)
(0 0 0)
(0 0 0)
(0 0 0)
(0 0 0)
(0 0 0)
(0 0 0)
(0 0 0)
(0 0 0)
(0 0 0)
(0 0 0)
(0 0 0)
(-632.2708038 579.5815691 0)
(-538.0801383 0 0)
(0 0 0)
(0 0 0)
(0 0 0)
(0 0 0)
(0 0 0)
(0 0 0)
(902.4542343 -827.2497133 0)
(0 0 0)
(0 0 0)
(1034.317162 948.1240633 -2.803522269e-12)
(504.0692716 0 0)
(497.0329536 0 0)
(607.6475369 0 0)
(0 0 0)
(0 0 0)
(0 0 0)
(0 0 0)
(0 -762.5796699 0)
(0 0 0)
(0 0 0)
(0 0 0)
(0 0 0)
(0 0 0)
(0 0 0)
(0 0 0)
(0 0 0)
(0 0 0)
(0 0 0)
(0 0 0)
(0 0 0)
(0 0 0)
(0 388.8037262 0)
(0 0 0)
(0 0 0)
(0 0 0)
(0 0 0)
(0 0 0)
(0 -316.6178441 0)
(0 0 0)
(0 0 0)
(0 529.6150326 -1.566026637e-12)
(0 0 0)
(0 0 0)
(0 0 0)
(0 0 0)
(0 0 0)
(-232.4616332 0 -6.300885159e-13)
(-586.5530996 0 0)
(-991.9351016 -909.2738415 0)
(0 0 0)
(0 0 0)
(0 0 0)
(0 0 0)
(0 0 0)
(0 0 0)
(0 0 0)
(0 0 0)
(0 0 0)
(0 0 0)
(0 0 0)
(0 0 0)
(0 0 0)
(-681.899844 625.0748559 0)
(0 0 0)
(0 0 0)
(0 0 0)
(0 0 0)
(0 0 0)
(0 0 0)
(401.8355882 -368.3492885 0)
(0 0 0)
(-1010.855856 926.6178665 0)
(0 0 0)
(0 0 0)
(0 0 0)
(0 0 0)
(0 -452.4159617 0)
(0 0 0)
(0 0 0)
(0 0 0)
(0 0 0)
(0 0 0)
(0 0 0)
(0 0 0)
(0 0 0)
(0 0 0)
(0 0 0)
(0 0 0)
(0 0 0)
(0 0 0)
(0 0 0)
(0 0 0)
(0 0 0)
(0 0 0)
(0 0 0)
(0 0 0)
(0 0 0)
(0 0 0)
(0 0 0)
(0 0 0)
(0 -755.3105912 0)
(0 0 0)
(0 0 0)
(0 638.9001252 0)
(0 0 0)
(0 0 0)
(0 0 0)
(0 -772.7577638 0)
(0 0 0)
(0 0 0)
(0 0 0)
(0 0 0)
(0 0 0)
(0 0 0)
(0 0 0)
(0 0 0)
(0 0 0)
(1022.892005 937.651003 0)
(675.9160137 -619.5896781 0)
(0 0 0)
(0 0 0)
(0 0 0)
(0 0 0)
(0 0 0)
(0 0 0)
(0 0 0)
(0 0 0)
(0 0 0)
(0 0 0)
(0 0 0)
(0 0 0)
(0 0 0)
(283.5337673 0 0)
(281.6927418 0 -7.635297066e-13)
(0 0 0)
(0 0 0)
(0 0 0)
(0 0 0)
(0 0 0)
(442.0241124 0 -1.198108757e-12)
(702.9697413 0 0)
(305.3119117 0 0)
(672.237817 0 0)
(702.56772 0 0)
(997.9743289 -914.8098048 0)
(0 0 0)
(792.7332643 726.6721616 0)
(541.3770976 0 0)
(0 0 0)
(0 0 0)
(527.6277378 -483.6587614 0)
(0 0 0)
(0 0 0)
(0 0 0)
(0 0 0)
(0 0 0)
(0 0 0)
(0 0 0)
(0 0 0)
(0 0 0)
(0 0 0)
(0 0 0)
(0 0 0)
(0 0 0)
(0 0 0)
(0 0 0)
(0 0 0)
(0 0 0)
(0 0 0)
(0 0 0)
(0 0 0)
(0 0 0)
(0 0 0)
(0 0 0)
(0 0 0)
(0 0 0)
(268.1602157 0 0)
(0 0 0)
(0 0 0)
(0 0 0)
(0 0 0)
(0 -735.4692841 0)
(0 0 0)
(0 0 0)
(0 0 0)
(0 0 0)
(0 0 0)
(0 0 0)
(0 0 0)
(0 0 0)
(0 0 0)
(0 0 0)
(0 0 0)
(0 0 0)
(0 0 0)
(0 0 0)
(0 0 0)
(0 0 0)
(0 0 0)
(0 0 0)
(0 0 0)
(0 0 0)
(0 0 0)
(0 0 0)
(0 0 0)
(0 0 0)
(0 0 0)
(0 0 0)
(0 0 0)
(0 0 0)
(0 0 0)
(0 0 0)
(-1100.354738 -1008.658514 0)
(0 0 0)
(0 0 0)
(0 0 0)
(0 0 0)
(0 0 0)
(0 0 0)
(0 0 0)
(0 0 0)
(0 0 0)
(0 0 0)
(0 0 0)
(0 0 0)
(0 0 0)
(0 0 0)
(0 0 0)
(0 0 0)
(0 0 0)
(0 0 0)
(0 0 0)
(0 0 0)
(-576.7084641 0 0)
(-443.932555 0 0)
(-475.1800699 0 0)
(-632.1121398 0 0)
(0 0 0)
(0 0 0)
(0 0 0)
(0 0 0)
(0 0 0)
(0 -441.316345 0)
(0 0 0)
(0 0 0)
(0 0 0)
(0 0 0)
(0 0 0)
(0 0 0)
(0 0 0)
(0 0 0)
(0 0 0)
(0 0 0)
(0 0 0)
(0 0 0)
(0 0 0)
(0 0 0)
(0 0 0)
(0 0 0)
(0 0 0)
(0 0 0)
(0 0 0)
(0 0 0)
(-374.6605336 -343.4388218 0)
(0 0 0)
(0 0 0)
(0 0 0)
(0 0 0)
(-895.5176942 820.8912182 0)
(0 0 0)
(0 0 0)
(0 0 0)
(0 0 0)
(-1102.004071 -1010.170396 0)
(0 0 0)
(0 0 0)
(0 0 0)
(0 0 0)
(0 0 0)
(0 0 0)
(0 0 0)
(0 0 0)
(0 0 0)
(0 0 0)
(0 0 0)
(0 0 0)
(0 0 0)
(0 0 0)
(0 0 0)
(0 0 0)
(0 0 0)
(0 0 0)
(0 0 0)
(0 -446.4655917 0)
(0 0 0)
(0 0 0)
(0 0 0)
(0 0 0)
(0 0 0)
(0 0 0)
(0 304.0614062 -8.990837344e-13)
(0 0 0)
(0 0 0)
(0 -779.2026185 0)
(0 0 0)
(0 0 0)
(0 0 0)
(0 0 0)
(0 0 0)
(0 0 0)
(0 0 0)
(0 0 0)
(0 0 0)
(0 0 0)
(0 0 0)
(0 0 0)
(0 0 0)
(0 0 0)
(0 0 0)
(0 0 0)
(0 0 0)
(0 0 0)
(0 0 0)
(0 0 0)
(0 -303.2550302 0)
(0 0 0)
(0 0 0)
(0 0 0)
(0 0 0)
(0 0 0)
(356.4082637 326.7075763 0)
(0 0 0)
(0 0 0)
(0 0 0)
(-963.2435844 -882.9732841 0)
(0 0 0)
(0 0 0)
(0 0 0)
(0 0 0)
(0 0 0)
(0 0 0)
(0 0 0)
(0 0 0)
(0 0 0)
(0 0 0)
(0 0 0)
(0 0 0)
(0 0 0)
(0 0 0)
(0 0 0)
(0 0 0)
(0 0 0)
(0 0 0)
(0 0 0)
(0 0 0)
(0 -745.5731333 0)
(0 0 0)
(0 0 0)
(0 0 0)
(0 0 0)
(492.2196002 451.2012994 0)
(0 0 0)
(0 0 0)
(0 0 0)
(0 -560.7553594 0)
(0 0 0)
(0 0 0)
(0 0 0)
(0 0 0)
(0 0 0)
(0 0 0)
(0 0 0)
(0 0 0)
(0 0 0)
(0 0 0)
(0 0 0)
(0 0 0)
(0 0 0)
(0 0 0)
(0 0 0)
(0 0 0)
(0 0 0)
(0 0 0)
(0 0 0)
(0 0 0)
(0 0 0)
(0 -263.0085511 0)
(0 0 0)
(0 0 0)
(0 0 0)
(1059.318751 971.0421865 0)
(0 0 0)
(0 0 0)
(0 0 0)
(0 0 0)
(0 -668.9216156 0)
(0 0 0)
(0 0 0)
(0 0 0)
(0 0 0)
(0 0 0)
(0 0 0)
(0 0 0)
(0 0 0)
(0 0 0)
(0 0 0)
(0 0 0)
(0 0 0)
(0 0 0)
(0 0 0)
(0 0 0)
(0 0 0)
(0 0 0)
(0 0 0)
(0 0 0)
(0 0 0)
(0 0 0)
(0 0 0)
(413.7299288 0 -1.121417219e-12)
(330.3938619 0 0)
(574.8621199 0 0)
(0 0 0)
(0 0 0)
(0 0 0)
(0 0 0)
(0 0 0)
(0 0 0)
(397.6193553 -364.4844103 0)
(0 0 0)
(0 0 0)
(0 0 0)
(0 0 0)
(0 0 0)
(0 0 0)
(0 0 0)
(0 0 0)
(0 0 0)
(0 0 0)
(0 0 0)
(0 0 0)
(0 0 0)
(0 0 0)
(0 0 0)
(0 0 0)
(0 0 0)
(0 0 0)
(0 0 0)
(0 0 0)
(0 0 0)
(0 0 0)
(0 0 0)
(0 0 0)
(0 0 0)
(0 0 0)
(0 0 0)
(0 0 0)
(0 0 0)
(0 0 0)
(0 -448.7326515 0)
(0 0 0)
(0 0 0)
(0 0 0)
(0 0 0)
(0 0 0)
(957.1757486 877.4111013 0)
(574.2506477 0 0)
(0 0 0)
(0 0 0)
(0 0 0)
(0 0 0)
(0 0 0)
(0 0 0)
(0 0 0)
(0 0 0)
(0 0 0)
(0 0 0)
(0 0 0)
(0 0 0)
(0 0 0)
(0 0 0)
(0 0 0)
(0 0 0)
(0 0 0)
(0 0 0)
(0 0 0)
(0 0 0)
(0 0 0)
(0 0 0)
(0 0 0)
(0 -390.3467039 0)
(0 0 0)
(0 0 0)
(958.7413165 878.8462052 0)
(397.8726707 0 0)
(670.9529409 0 0)
(0 0 0)
(0 0 0)
)
;

boundaryField
{
    walls
    {
        type            calculated;
        value           uniform (0 0 0);
    }
    wallFilmFace_top
    {
        type            calculated;
        value           uniform (0 0 0);
    }
    region0_to_wallFilmRegion_wallFilmFace
    {
        type            calculated;
        value           uniform (0 0 0);
    }
    mirrorFace_top
    {
        type            calculated;
        value           nonuniform List<vector> 0();
    }
    region0_to_wallFilmRegion_mirrorFace
    {
        type            calculated;
        value           nonuniform List<vector> 0();
    }
    procBoundary1to0
    {
        type            processor;
        value           uniform (0 0 0);
    }
    procBoundary1to2
    {
        type            processor;
        value           uniform (0 0 0);
    }
}


// ************************************************************************* //
