/*--------------------------------*- C++ -*----------------------------------*\
  =========                 |
  \\      /  F ield         | OpenFOAM: The Open Source CFD Toolbox
   \\    /   O peration     | Website:  https://openfoam.org
    \\  /    A nd           | Version:  8
     \\/     M anipulation  |
\*---------------------------------------------------------------------------*/
FoamFile
{
    version     2.0;
    format      ascii;
    class       volScalarField;
    location    "1.9/wallFilmRegion";
    object      delta;
}
// * * * * * * * * * * * * * * * * * * * * * * * * * * * * * * * * * * * * * //

dimensions      [0 1 0 0 0 0 0];

internalField   nonuniform List<scalar> 
1369
(
0.008324223671
0.0008602649602
0.0007035235301
0.0006553315251
0.000998236321
0.001372293389
0.001758117997
0.005956129571
0.0002600459575
0.0001721688726
0.0001469793017
0.0001892325545
0.000250438376
0.0003420933248
0.0004676083599
0.0006335374157
0.0008484308618
0.001024268022
0.004795747608
0.0001580134791
8.499570717e-05
7.051513399e-05
9.291358893e-05
0.0001358617886
0.000202904931
0.0002832027701
0.0003546300485
0.0003705280894
0.0002846607116
0.0001490255641
7.980344618e-05
0.004101420282
0.0001395674231
7.366880427e-05
6.472162357e-05
8.446369056e-05
0.0001177567149
0.000159644671
0.0001902052293
0.0001950570831
0.0001705539648
0.0001305124408
8.949960183e-05
7.729889825e-05
8.036167669e-05
8.640891428e-05
0.0001032443582
0.0001537257014
0.003657158164
0.0001228416972
6.097773088e-05
5.402745082e-05
6.792445597e-05
8.711845435e-05
0.0001090910069
0.0001290841581
0.0001400102381
0.0001340142774
0.0001249061648
9.36381353e-05
8.933859456e-05
9.605640052e-05
0.0001029899884
0.0001110145788
0.0001227253235
9.543979478e-05
0.0005809299375
0.003401524302
0.0001089260375
4.759189495e-05
4.072271526e-05
5.035510932e-05
6.425430575e-05
8.596243174e-05
0.0001238372173
0.0001633207661
0.0001614563652
0.0001687190501
0.000120985422
0.0001059181485
0.0001050755876
0.0001010180107
9.300944199e-05
8.845078929e-05
0.0001029288843
0.001239154164
0.002779761014
0.002057756832
0.001922577147
0.001307856324
0.003208892264
0.0001028462032
3.322915483e-05
2.443978353e-05
3.216697274e-05
4.493980158e-05
7.165384765e-05
0.0001260014373
0.0001857235556
0.0001672980915
0.0001891506349
0.0001460449703
0.000107480935
8.50351111e-05
7.275463374e-05
6.928921752e-05
9.029737181e-05
0.0001591728376
0.000425455712
0.001590802937
0.002122746209
0.00166785292
0.001076167017
0.001191198001
0.001114512202
0.002985193508
0.0003389032253
0.000233903018
6.934165288e-05
3.439654754e-05
2.441599778e-05
3.244545535e-05
6.522523847e-05
0.0001211418287
0.0001541722068
0.0001956878232
0.0001791811629
0.0001078170282
4.395561624e-05
4.535731731e-05
7.896307505e-05
0.0001574626519
0.0002329340248
0.0002578999476
0.0003242995749
0.001114374732
0.00122530927
0.00109286349
0.001591888206
0.001938424694
0.001641941205
0.00273803367
0.0001472574992
0.0004541674908
0.0003506062815
0.000364366142
0.0003126023992
0.0002193656047
0.0002414001763
0.0003637531181
0.0004104489516
0.0005751665075
0.0006005983135
0.0004221220358
0.0001131651759
0.0001060511553
0.0001661957209
0.0002197518675
0.0001590360717
7.299342893e-05
3.657290251e-05
0.0001939811431
0.0005391258445
0.001303427185
0.001959280088
0.001946321715
0.002012855372
0.002861424876
7.25922464e-05
0.000154613747
8.578190463e-05
0.0001308462754
0.0002807586788
0.0004992006405
0.0006315598735
0.0005538506542
0.0005486643686
0.000623115293
0.0009003006055
0.00121824438
0.001339794218
0.0008452226957
0.0003262001717
0.0001261256347
4.295045773e-05
1.433309011e-05
6.17101018e-06
6.541579111e-05
0.0001612011356
0.000369445835
0.001165143569
0.002811332516
0.001888285185
0.0007577642659
0.003053106074
5.772110217e-05
0.0001796495968
0.0001334089148
0.000149380843
0.0002483103066
0.0004262537351
0.000647846124
0.0004263399694
0.0003109265483
0.000257595443
0.000311006341
0.0003223989648
0.0004968020774
0.0005710549932
0.0003087151268
0.0001243642704
6.063259937e-05
4.963261444e-05
8.903456046e-05
0.0002245708871
0.0002622679491
0.0001307327138
0.001184351857
0.003022956347
0.001283926656
0.0004502770107
0.003219923804
6.670755282e-05
0.0003268177393
0.000263734347
0.0001722347389
0.0001502312601
0.0001617655445
0.0001374531526
0.0001412165882
0.0001388045172
0.0001301887635
0.0001055554013
5.760748967e-05
0.0001582015397
0.0003237724835
0.0003148440534
0.0001708110453
0.0001062736695
0.0001060586537
0.0001926866197
0.0004898826005
0.0004795853768
0.0001994023738
0.0009120552829
0.002531585133
0.001955184364
0.0004572839314
0.00327024146
9.605956114e-05
0.0009452063443
0.000410797459
0.0001661985229
0.000145245627
0.0006295915632
9.369039868e-05
0.0001020743097
0.0001127952219
0.0001127526953
7.940425847e-05
2.169987328e-05
7.44214216e-05
0.0002330764907
0.0003248776959
0.0002325620245
0.0001546901959
0.000164211801
0.0002813123598
0.0007333047135
0.00168848601
0.0004781754262
0.001000306706
0.001671848579
0.001910563499
0.001021683616
0.000509045554
0.003119818416
0.000154042331
0.0005548672697
0.0001531110095
9.397504991e-05
8.418976648e-05
8.696229453e-05
9.651578701e-05
0.0001125167196
0.0001283119605
0.0001296900047
8.782163258e-05
2.160043657e-05
5.481858999e-05
0.0001285525978
0.0001914375964
0.0002931325106
0.0001999816638
0.0002167676507
0.0003014093648
0.0003675968491
0.001430811915
0.001616519319
0.001654196569
0.001759617258
0.002197536989
0.001356873992
0.001026269878
0.001135028262
0.002935388077
0.0002901062186
0.0001701009827
8.341574097e-05
9.030131933e-05
0.0001016917208
0.0001135035939
0.0001240646835
0.0001414773123
0.0001599732388
0.0001602289494
0.0001080794974
4.210071912e-05
7.077562147e-05
8.996531561e-05
0.0001031521849
0.000149446425
0.0001945711063
0.0002413431833
0.000508064114
0.0002607071531
0.0006173835617
0.0022620408
0.0009489469196
0.0009440578534
0.000795551726
0.0008403689179
0.001013073278
0.001250345095
0.002822930123
0.0002062804311
6.951798477e-05
1.891070365e-05
1.628738582e-05
2.321400845e-05
3.866019255e-05
5.798680588e-05
7.621958813e-05
9.258197989e-05
9.508129961e-05
6.226775973e-05
9.829472034e-07
9.116945578e-07
3.656658184e-06
6.247010572e-06
1.381143942e-05
5.679053077e-05
0.0001670103839
0.0009185966429
0.0003571316601
0.000528021889
0.00186640267
0.0009249556724
0.0005599719916
0.0003581210125
0.0007516244616
0.0006064573737
0.0009857121064
0.003055352664
5.224328844e-05
1.021262376e-05
5.447636933e-06
6.08156255e-06
1.06077848e-05
2.180069671e-05
3.947995776e-05
5.901975743e-05
7.547333513e-05
7.932910453e-05
5.1877599e-05
1.658230032e-08
2.503869278e-09
2.9288864e-08
3.206487253e-07
4.783496229e-06
4.18046443e-05
0.0003477113542
0.0008958865815
0.0002726717568
0.00028329294
0.0007770269733
0.002675154761
0.001286411799
0.0005386332955
0.0005182215873
0.0005682865909
0.000891309393
0.0003740810205
0.0001775410188
0.0001883101035
0.0005177092219
0.001089041
0.002899239562
5.840030746e-05
1.55911183e-05
8.431662773e-06
6.763038177e-06
7.71583868e-06
1.360893919e-05
2.686690521e-05
4.505527918e-05
6.136713246e-05
6.576459084e-05
4.345101138e-05
4.696803781e-07
5.724608149e-07
4.226850567e-06
5.678189002e-05
4.0516971e-05
0.0001640384486
0.0005746244988
0.0006234811244
0.0001492360862
7.518489959e-05
0.0002759342148
0.00130147558
0.002473435747
0.001171307544
0.0006992428529
0.001026236934
0.0008397378135
0.0006399704984
0.0005780342615
0.0008228665928
0.001037509527
0.001256291934
0.002787272462
7.405209045e-05
2.509538581e-05
1.431969594e-05
1.087093813e-05
9.202920718e-06
1.078935572e-05
1.860518984e-05
3.382543936e-05
5.013749771e-05
5.570245692e-05
3.740390227e-05
1.720582027e-06
2.697398825e-06
9.175309162e-06
6.473696869e-05
7.985357487e-05
0.0003052823276
0.0005730301612
0.0004143568173
0.0005230466482
0.000698927853
0.0006131898741
0.001604120484
0.002352935913
0.00175807527
0.001091583718
0.00123640996
0.001230889881
0.002032017064
0.002287899889
0.001756811246
0.001275685204
0.00158332721
0.002601888845
0.0001024180314
4.931960186e-05
3.434560043e-05
3.005877354e-05
2.474192493e-05
2.015519612e-05
1.974991963e-05
2.762683416e-05
4.231062703e-05
5.136930417e-05
3.960670892e-05
5.385216261e-06
9.047596008e-06
2.182584813e-05
6.796842279e-05
0.0001652613023
0.0003734107619
0.0003131578506
0.0002115573817
0.0007282155829
0.0009466897072
0.0009445323523
0.001326817554
0.001274774854
0.001811561972
0.001696074528
0.001557975429
0.001625130262
0.001616891983
0.001738433393
0.001746298704
0.001589999314
0.002599527177
0.0001871689578
0.0001735020352
0.0001781323207
0.0002167953477
0.0002292597805
0.0002034940466
0.0001478196548
9.036755402e-05
6.259127837e-05
6.93510163e-05
0.000114922745
0.0002421290029
0.0004771982423
0.0006806649333
0.0006006789393
0.0002694872741
0.00011493998
3.830025945e-05
9.410715021e-06
0.0002027248333
0.001040933864
0.001947950104
0.00117195947
0.0006927803988
0.002127019757
0.001856136934
0.001500756754
0.00145404865
0.001783657336
0.002260769753
0.001859541192
0.002696402866
0.000383408764
0.0006729826838
0.0006893752753
0.0008869595192
0.001047408904
0.001065480216
0.0008130413869
0.0004521176748
0.0002156765103
0.0001420431578
0.0002085966482
0.0002180218971
0.0005202334177
0.001045668633
0.001111578378
0.0005593338213
0.0005363065465
0.0005016357067
0.0004545241487
0.0007334936702
0.001073345528
0.0009817657038
0.0006535734913
0.000826395004
0.001950304906
0.001679334512
0.001596910226
0.001677025044
0.002033725432
0.00180374583
0.001274383669
0.003371723366
0.0006167390944
0.0003559049079
0.0001633918771
0.0002980251844
0.000526624127
0.0007618964249
0.0008643731929
0.0007158794678
0.0004681054829
0.0004319267517
0.0007969175634
0.0005116762008
0.0008145351168
0.0007532041379
0.0006198912692
0.0008615558336
0.001555545005
0.002843905472
0.00309410635
0.0008935963536
0.001221007154
0.001191709225
0.001016581564
0.001117678974
0.0006666980991
0.001777898368
0.001994576713
0.001626895414
0.001429862693
0.001185786032
0.001070365791
0.004173801112
0.0002706966207
5.340394961e-05
3.019532323e-05
5.826448512e-05
0.0001465211234
0.0003024369618
0.0005022071741
0.0006129450562
0.0005752057111
0.0006000132796
0.0008153109891
0.0004114523732
0.0003352263771
0.000202044253
0.0002850998524
0.0007961759615
0.001132478093
0.001100028072
0.0004298979321
0.0006514700222
0.001071246922
0.001304423836
0.00129772609
0.001361466657
0.001020115277
0.001776661717
0.001811271808
0.001789351106
0.001266271928
0.001057209513
0.0042453717
9.060807063e-05
2.748552409e-05
2.514514714e-05
4.466835656e-05
9.370140326e-05
0.000198619234
0.0003894421962
0.0006582286955
0.0008668164465
0.0009004621953
0.0008543671063
0.0004663905526
0.0003196287948
0.0001308467846
5.782956027e-05
0.0008720077789
0.001794104909
0.0001373793808
6.3369363e-05
0.0009931096827
0.0008746229063
0.002678945319
0.002553578469
0.001661745628
0.001407642806
0.00164202317
0.001729027152
0.001407941627
0.00130301801
0.001052958583
0.003788886249
4.417165939e-05
2.272272901e-05
2.373893667e-05
4.180338898e-05
7.612290882e-05
0.0001332467657
0.0002168085727
0.0003112397107
0.0003860021372
0.0004646130046
0.0005815332048
0.0001177761055
6.333745459e-05
2.454224679e-05
1.384893072e-05
0.0002154995544
0.00155731991
0.0003956407273
0.0002440086425
0.001298329307
0.001831717856
0.001657284994
0.001800888349
0.001606127288
0.001577474706
0.002373987068
0.002205867747
0.0006403149155
0.001068297912
0.0012118801
0.004304927466
4.843902804e-05
1.778838272e-05
1.021351248e-05
1.726040398e-05
3.708700499e-05
0.0001000437554
0.0002198047855
0.0001838250121
0.0001871845163
0.0002669001942
0.000389791401
5.721500513e-05
3.502427682e-05
2.064961724e-05
1.197750005e-05
6.085682071e-05
0.001328758398
0.000929860172
0.0007474605448
0.001528387836
0.001554507146
0.001384948069
0.001382774389
0.001675816458
0.001935712167
0.002672169633
0.002915965447
0.001697920732
0.001329881467
0.00126821
0.005599678026
0.0008220265836
0.001097786706
3.5287756e-05
0.0001032266077
0.0001386015696
0.0002253348462
0.0002761565512
0.000117623034
9.758812103e-05
0.0001403542375
0.0002213070096
4.606285901e-05
3.505724258e-05
2.938145506e-05
3.903515424e-05
0.0001724297819
0.001036303143
0.001521616888
0.001279881323
0.0007192157153
0.0009306027133
0.001048200987
0.001013024797
0.001403245712
0.001560522715
0.001943931668
0.001857432672
0.002171136848
0.001749241072
0.001558925118
0.005218084954
0.0008306700286
0.00497217009
0.0001718243216
0.0002769850322
0.0001492972241
0.0001280722264
0.0001447526765
7.907581093e-05
6.499605545e-05
7.853748832e-05
0.0001092695581
5.032431842e-05
4.889334609e-05
5.766222426e-05
0.0001121258398
0.0003403892428
0.0006147923839
0.0009401602122
0.001132105027
0.0001635285946
0.0002535292037
0.0004921659277
0.0009340759298
0.001093240029
0.001276064533
0.0008804114387
0.000846793574
0.0009348323652
0.00123732231
0.001115463096
0.005911752102
0.0008397423374
0.005314302263
0.0002560974899
0.0001278424302
5.794961714e-05
4.77076797e-05
6.914181127e-05
5.728617084e-05
5.902753826e-05
7.834680818e-05
0.0001155486415
0.0001559406674
0.0002062224027
0.0001780579397
0.0003168357269
0.0004150846216
0.0002755804772
0.0001819461746
0.0002253583326
1.853815846e-05
1.928760437e-05
2.368574753e-05
8.007450354e-05
0.0003664780873
0.0005843883258
0.0002974572112
0.000409053203
0.0007125868578
0.001688570871
0.001199788557
0.005326251928
0.001036226131
0.005865067054
0.001145276848
7.939491803e-05
2.704302173e-05
2.663033327e-05
3.885166682e-05
4.050111315e-05
5.552736481e-05
0.0001052148783
0.0002170682432
0.0003834592179
0.0004785251343
0.0002946326406
0.00044785745
0.0002429940881
5.029275067e-05
1.351789504e-05
4.726933694e-06
2.211822187e-06
1.344662772e-06
8.930078497e-07
6.405758026e-07
9.625892335e-06
2.645549918e-05
3.705255053e-05
0.0002420945146
0.000872671854
0.00140444144
0.001374517789
0.004615300349
0.001066148327
0.006551676321
0.003904277733
0.0003902327497
4.033454591e-05
2.130639631e-05
2.126776026e-05
3.94273623e-05
9.243902883e-05
8.180649458e-05
9.931642285e-05
0.000140448194
0.0001451592891
0.0001525815139
0.0001900495827
0.0002581929394
1.037549558e-05
2.609651239e-06
1.132187678e-06
6.308591384e-07
3.705797903e-07
2.440936112e-07
2.707139807e-07
8.701999787e-07
1.68926004e-06
4.732105703e-06
3.484200656e-06
0.0001682877505
0.0004917177385
0.0009166143519
0.004511323958
0.0006082831512
0.005108197059
0.004049844755
0.004613115056
0.0001873641286
2.431178151e-05
1.914700352e-05
0.0001759311414
0.0002163344107
0.000158508323
0.0001603410277
0.0001835994566
0.0001634576763
0.00014391907
0.0002939399227
0.0004425507715
2.094658445e-06
6.253162119e-07
4.151048744e-07
2.608260489e-07
1.168903662e-07
5.171032626e-08
2.777672567e-08
5.696429089e-10
2.741771847e-07
2.257595287e-06
9.993880272e-07
2.483490946e-05
8.074915245e-05
0.0006571833145
0.004591973109
0.0007157401887
0.004455365206
0.003123823478
0.004856875772
0.002088156009
3.973725728e-05
2.193394266e-05
0.0001677514259
0.0002019795923
0.0001712226284
0.0001878391562
0.0002187602228
0.0001915533728
0.0001356904145
0.0002666384519
0.0001024393963
1.417425517e-06
3.477760722e-07
1.65127235e-07
5.9894092e-08
3.067018032e-08
2.650260838e-08
3.783544063e-08
5.280531355e-09
8.582660769e-09
1.477538205e-06
7.834402768e-07
4.818119993e-06
9.916043659e-06
0.0001419726852
0.005078508717
0.002109527937
0.003815082359
0.003257720268
0.004317023495
0.004491877842
0.0001360156321
3.471489002e-05
0.0001039251028
0.0001502879816
0.0001650687975
0.0001942630406
0.0002219447603
0.0001951374544
7.68931295e-05
5.556838683e-05
1.939025156e-05
2.701029756e-06
1.625093218e-06
1.306433025e-06
8.541354751e-07
4.030962884e-07
5.220288275e-07
1.768823235e-05
4.109760366e-05
6.868669505e-06
1.797171467e-06
5.293876992e-07
3.663692526e-07
1.396392541e-06
2.363142632e-05
0.005329622449
0.002398652851
0.003897889076
0.00336442778
0.004260204302
0.004308571101
0.001564778753
9.498195272e-05
8.417204352e-05
0.000126424905
0.0001767631454
0.0002275016233
0.0002536562579
0.0002151872174
5.177744105e-05
3.857600954e-05
3.033091049e-05
2.63178765e-05
2.57200557e-05
2.307749751e-05
2.274081271e-05
3.463112166e-05
8.283353835e-05
0.0001759702944
0.000186026866
8.781009206e-05
1.679229666e-06
1.330653894e-06
2.099107653e-06
5.042811707e-06
3.161626843e-05
0.005514296872
0.002902465897
0.003896391684
0.003370556675
0.004483667846
0.003668323943
0.005254825359
0.002631494964
0.0001743089488
0.0001663084023
0.0002124537001
0.0002695230981
0.0003195724252
0.0002931133598
0.0001282544433
0.0001349724533
0.0001447852155
0.0001498517091
0.0001397075142
0.0001078827084
8.404804154e-05
0.0001272376218
0.0002594116219
0.0003201801031
0.0002950360205
0.0001406734736
4.093160804e-06
3.802320003e-06
4.810216934e-06
7.01309341e-06
1.043226093e-05
0.005901970902
0.003833289842
0.004260053436
0.003521557323
0.004402521512
0.003688077228
0.004031139948
0.005114341862
0.0003782212046
0.0002624202164
0.0002405607162
0.0002856884213
0.0003589544776
0.0003961558209
0.0003024889758
0.0003411664954
0.0003693884933
0.0003716681267
0.0003372442822
0.0002771112075
0.0002434963894
0.0002950049815
0.0003485576307
0.0003529929933
0.0002939281707
0.0001468684782
1.04539923e-05
9.670633117e-06
1.290408546e-05
2.481885692e-05
8.253325819e-05
0.006313286396
0.004406061491
0.005122409099
0.003954480292
0.004593549584
0.003779238673
0.003584764776
0.005579065096
0.001152918151
0.0003611194108
0.0002379413982
0.0002611310409
0.0003082704863
0.0003648595262
0.0003649181918
0.0004171291368
0.0004434886388
0.000439502286
0.0004125290467
0.0003793281594
0.0003480192733
0.0003255602311
0.0003126321625
0.0002823170731
0.0002197395294
0.0001202898779
2.266414697e-05
1.982332212e-05
2.47186523e-05
4.03524849e-05
8.683811051e-05
0.006058369131
0.004231877659
0.005692412341
0.004448743518
0.004778079004
0.003689355681
0.003319672496
0.003394115661
0.004790417106
0.001874194731
0.0003157247835
0.0002263496868
0.0002211095122
0.0002319385612
0.0002361394391
0.000239533004
0.0002421084917
0.0002413599557
0.0002352661738
0.0002155865276
0.0002185950513
0.0002374263413
0.0002356693867
0.0001997327103
0.0001479090342
9.024057547e-05
3.521494781e-05
2.754079079e-05
2.74780278e-05
2.796454778e-05
2.606955646e-05
0.005545404283
0.004182069202
0.005665281833
0.004726186081
0.004809762323
0.003687488508
0.00292022757
0.002785018762
0.003008445978
0.004113709741
0.000470230337
0.0002318560893
0.0001702139794
0.0001387956412
0.0001085330462
9.039688672e-05
8.519264744e-05
8.489432945e-05
8.653020513e-05
0.0001059136708
0.0001511080871
0.0001946971514
0.0001929050378
0.0001511335536
0.0001004820411
6.705100912e-05
4.165795127e-05
3.14844867e-05
2.965786673e-05
2.681836486e-05
2.395813371e-05
0.005572734526
0.004568018969
0.005680957699
0.004891277595
0.004723873508
0.00355911795
0.00267320779
0.002187454347
0.002100044725
0.003807405167
0.0007590530833
0.0002715716419
0.0001677666298
0.0001100897329
6.932448051e-05
4.988780911e-05
4.274169909e-05
4.54159136e-05
6.062481108e-05
9.728526219e-05
0.0001569956306
0.0002003672641
0.0001827438267
0.0001234301064
6.891996371e-05
4.848280943e-05
4.057572969e-05
3.243251481e-05
3.314392962e-05
3.383989326e-05
3.944667866e-05
0.006375733094
0.005309939924
0.005929516698
0.005085247121
0.004544906183
0.003373963329
0.002341139297
0.001869961513
0.001667249826
0.00374062863
0.001455084205
0.0003465316342
0.0001961863384
0.0001199328326
6.873329704e-05
4.246016552e-05
3.458113228e-05
4.179248967e-05
7.044448576e-05
0.0001324999209
0.0002132182244
0.0002415291526
0.000190832274
0.0001055034674
4.733754556e-05
3.258047842e-05
3.367454937e-05
3.008868918e-05
3.462321531e-05
3.824786486e-05
3.83141041e-05
0.007676555254
0.006316478877
0.006387475613
0.005336966918
0.004414580896
0.003165543925
0.002169913376
0.00187257981
0.001793794911
0.004352207244
0.004339602374
0.0004799728388
0.0002283071576
0.0001300058049
7.266863701e-05
4.429768106e-05
4.070885747e-05
6.26201027e-05
0.0001327782055
0.0002517550018
0.0003470628102
0.0003312921928
0.0002185373797
9.558159197e-05
3.281432331e-05
2.026408662e-05
2.437429257e-05
2.461622394e-05
3.230262693e-05
3.891293148e-05
3.692594404e-05
0.008640942789
0.0073874217
0.006935127845
0.005627865369
0.004101893205
0.00302515424
0.002591412875
0.00235619201
0.002736467751
0.004863404314
0.007779885946
0.000745399828
0.0002817545298
0.0001397838247
8.73013889e-05
6.689909603e-05
9.63941628e-05
0.0002264663625
0.0004186310234
0.0005988733315
0.0006493131713
0.0005149218929
0.0002778721084
9.440415267e-05
2.345539632e-05
1.214770945e-05
1.641570676e-05
1.773941468e-05
2.546838084e-05
3.365903984e-05
3.195767535e-05
0.008971938213
0.008205944873
0.007385007727
0.00547915118
0.003850261461
0.003205419234
0.003249824278
0.003802021849
0.00429865838
0.005679444104
0.00678620866
0.001773028071
0.0005774437979
0.0003806067764
0.0004938609014
0.0007231219161
0.0009925202345
0.001207846303
0.001366616413
0.001408371508
0.001244746674
0.0008469573504
0.0003883245647
0.0001050340763
1.778594649e-05
7.933773966e-06
1.35707597e-05
2.020747278e-05
4.948174229e-05
8.741419037e-05
7.802952925e-05
0.009201535065
0.008848672819
0.007555727597
0.005162290565
0.003476855732
0.003056872268
0.003095403136
0.003253800861
0.003101660671
0.004897632927
0.006249801927
0.004791273277
0.003278893232
0.003140637198
0.003186569606
0.003207172823
0.003143137403
0.002993432849
0.002755533843
0.002434988541
0.00197742347
0.001307064606
0.0005831993376
0.0001384525575
1.439193059e-05
9.213115318e-06
1.932837876e-05
2.715418203e-05
9.059406168e-05
0.0001756707576
0.0001622776992
0.009375977341
0.008934727153
0.007441290592
0.004241158368
0.002743233179
0.002535689477
0.002806234556
0.003408387421
0.00438695316
0.005804696079
0.005950130771
0.005320243111
0.004474690746
0.003901171073
0.003713021124
0.003808827764
0.004071176148
0.004398938167
0.004672103041
0.004711575537
0.004260120334
0.003073588402
0.001405413262
0.0002558103428
6.413458874e-06
9.218598737e-08
0.0001245888248
0.0006417825472
0.001893813874
0.003487269725
0.004469408738
)
;

boundaryField
{
    walls
    {
        type            zeroGradient;
    }
    wallFilmFace_top
    {
        type            zeroGradient;
    }
    region0_to_wallFilmRegion_wallFilmFace
    {
        type            zeroGradient;
    }
    mirrorFace_top
    {
        type            zeroGradient;
    }
    region0_to_wallFilmRegion_mirrorFace
    {
        type            zeroGradient;
    }
    procBoundary1to0
    {
        type            processor;
        value           nonuniform List<scalar> 
52
(
0.01150054989
0.003805520688
0.00439384931
0.003894506312
0.004540718637
0.004530642065
0.004404112723
0.002154229309
0.002154229309
0.002756243231
0.003978511531
0.0026340619
0.0005968489923
0.0005968489923
0.0001208465848
7.346579275e-05
7.346579275e-05
7.51750997e-05
8.780684277e-05
0.000162318322
0.0001455752949
0.0001455752949
1.054255984e-08
0.001612864815
0.001612864815
0.001963865307
0.002526736609
0.001893812365
0.001263092563
0.001263092563
0.001620156405
0.001110209259
0.001110209259
0.001242779706
0.001236272694
0.001236272694
4.082218814e-05
3.905805599e-05
0.0001519716945
0.0001519716945
0.0007053395842
0.0007053395842
0.001114954556
0.0008257567978
0.0006322636917
0.0006322636917
0.0004043764205
0.0004089356883
0.0009544804954
0.0009814742116
0.001706379105
0.001537677934
)
;
    }
    procBoundary1to2
    {
        type            processor;
        value           nonuniform List<scalar> 
33
(
0.001700437683
0.001226383714
0.001226383714
0.001504431274
0.001504431274
0.001335528593
0.001201199389
0.000922540028
0.000922540028
0.001265147569
0.001042080363
0.001029583108
0.0009427752475
0.0005131321459
0.0003407284695
0.000592579501
0.0006704691052
0.0007143183061
0.0006195658991
0.0005096527962
7.713354582e-05
1.265170077e-05
0.0001113891434
9.047292507e-05
5.14295957e-06
2.501467231e-05
6.518673882e-05
2.699863718e-05
3.61641342e-05
1.858956688e-05
6.461194512e-05
0.0001397131454
0.005332008006
)
;
    }
}


// ************************************************************************* //
