/*--------------------------------*- C++ -*----------------------------------*\
  =========                 |
  \\      /  F ield         | OpenFOAM: The Open Source CFD Toolbox
   \\    /   O peration     | Website:  https://openfoam.org
    \\  /    A nd           | Version:  8
     \\/     M anipulation  |
\*---------------------------------------------------------------------------*/
FoamFile
{
    version     2.0;
    format      ascii;
    class       volScalarField;
    location    "1.9/wallFilmRegion";
    object      mu;
}
// * * * * * * * * * * * * * * * * * * * * * * * * * * * * * * * * * * * * * //

dimensions      [1 -1 -1 0 0 0 0];

internalField   nonuniform List<scalar> 
1369
(
0.0008861473852
0.0008861473812
0.0008861473789
0.0008861473752
0.0008861473706
0.0008861473678
0.0008861473659
0.0008861473848
0.0008861473791
0.000886147378
0.0008861473766
0.0008861473761
0.0008861473753
0.0008861473745
0.0008861473736
0.0008861473729
0.0008861473729
0.0008861473753
0.0008861473837
0.0008861473763
0.0008861473752
0.0008861473746
0.0008861473765
0.0008861473789
0.0008861473811
0.0008861473832
0.0008861473855
0.0008861473885
0.000886147393
0.0008861473973
0.0008861474011
0.0008861473821
0.0008861473748
0.0008861473741
0.0008861473747
0.0008861473785
0.0008861473835
0.000886147389
0.000886147395
0.0008861474013
0.0008861474062
0.0008861474088
0.0008861474001
0.0008861474001
0.0008861474019
0.0008861474043
0.0008861474081
0.0008861474134
0.0008861473801
0.0008861473729
0.0008861473717
0.0008861473736
0.0008861473807
0.0008861473915
0.0008861474064
0.0008861474238
0.0008861474368
0.0008861474372
0.0008861474325
0.0008861474052
0.0008861474008
0.0008861474023
0.0008861474038
0.000886147406
0.0008861474091
0.0008861474131
0.0008861474244
0.000886147378
0.0008861473703
0.0008861473673
0.0008861473713
0.0008861473853
0.0008861474083
0.0008861474388
0.0008861474651
0.0008861474743
0.0008861474614
0.0008861474524
0.0008861474139
0.0008861474022
0.0008861474029
0.0008861474039
0.0008861474056
0.0008861474097
0.0008861474184
0.0008861474271
0.0008861474285
0.0008861474455
0.0008861474627
0.0008861474751
0.0008861473763
0.000886147367
0.0008861473612
0.0008861473682
0.0008861473926
0.0008861474288
0.0008861474667
0.0008861474888
0.0008861474895
0.0008861474625
0.0008861474542
0.0008861474223
0.0008861474041
0.0008861474029
0.0008861474042
0.0008861474085
0.0008861474161
0.0008861474217
0.0008861474238
0.000886147427
0.000886147445
0.0008861474652
0.0008861474733
0.0008861474644
0.0008861474659
0.0008861473751
0.0008861473662
0.0008861473711
0.0008861473672
0.0008861473564
0.0008861473569
0.0008861473828
0.0008861474079
0.000886147417
0.0008861474007
0.0008861474081
0.0008861474145
0.0008861474146
0.0008861474019
0.0008861474081
0.000886147417
0.000886147422
0.0008861474236
0.0008861474239
0.0008861474242
0.0008861474449
0.0008861474643
0.0008861474699
0.000886147468
0.0008861474698
0.0008861474729
0.0008861473752
0.0008861473539
0.00088614738
0.0008861473982
0.0008861473993
0.0008861473985
0.0008861474065
0.0008861474379
0.0008861474475
0.0008861474025
0.0008861474145
0.0008861474271
0.0008861474335
0.0008861474105
0.0008861474171
0.0008861474218
0.0008861474229
0.0008861474217
0.000886147418
0.0008861474149
0.000886147447
0.0008861474548
0.0008861474622
0.0008861474652
0.0008861474698
0.0008861474708
0.0008861473741
0.0008861473557
0.0008861473492
0.0008861473776
0.0008861473932
0.0008861473992
0.000886147403
0.0008861474086
0.0008861473953
0.0008861474035
0.0008861474189
0.0008861474332
0.0008861474387
0.0008861474236
0.000886147424
0.0008861474198
0.0008861474166
0.0008861474097
0.0008861473949
0.0008861473715
0.000886147431
0.0008861474376
0.0008861474383
0.0008861474615
0.0008861474778
0.0008861474827
0.0008861474858
0.0008861473727
0.0008861473584
0.0008861473512
0.0008861473786
0.0008861473907
0.0008861474047
0.000886147432
0.0008861474557
0.0008861473962
0.0008861473999
0.0008861474077
0.0008861474166
0.0008861474135
0.0008861474151
0.0008861474211
0.0008861474222
0.0008861474206
0.0008861474209
0.0008861474297
0.0008861474487
0.0008861474687
0.0008861474726
0.0008861474608
0.0008861474742
0.0008861474785
0.0008861474875
0.000886147497
0.000886147371
0.0008861473595
0.0008861473628
0.0008861473903
0.0008861473912
0.0008861473901
0.0008861474173
0.00088614739
0.0008861473959
0.0008861474009
0.0008861474036
0.000886147403
0.0008861473896
0.0008861474019
0.0008861474149
0.0008861474229
0.0008861474224
0.000886147424
0.0008861474325
0.0008861474475
0.0008861474652
0.0008861474753
0.0008861474762
0.0008861474698
0.0008861474639
0.0008861474738
0.0008861474939
0.0008861473692
0.000886147359
0.0008861473775
0.0008861473968
0.0008861473949
0.0008861474447
0.000886147542
0.0008861473969
0.0008861474018
0.0008861474046
0.0008861474059
0.0008861474053
0.0008861473786
0.0008861473897
0.0008861474051
0.0008861474223
0.0008861474228
0.000886147424
0.000886147432
0.0008861474453
0.0008861474615
0.0008861474711
0.0008861474837
0.0008861474726
0.0008861474663
0.0008861474723
0.0008861474797
0.0008861474944
0.0008861473678
0.0008861473569
0.0008861473723
0.0008861473853
0.0008861473852
0.0008861473913
0.0008861473979
0.0008861474024
0.0008861474051
0.0008861474067
0.0008861474075
0.0008861474074
0.0008861473885
0.0008861473913
0.0008861473947
0.0008861474111
0.000886147424
0.0008861474208
0.0008861474277
0.000886147438
0.0008861474418
0.0008861474464
0.0008861474784
0.0008861474797
0.0008861474714
0.0008861474696
0.000886147471
0.0008861474814
0.0008861474683
0.0008861473673
0.000886147349
0.0008861473551
0.0008861473795
0.0008861473912
0.0008861473987
0.0008861474033
0.0008861474057
0.0008861474072
0.0008861474081
0.0008861474084
0.0008861474082
0.0008861473993
0.0008861474018
0.0008861473994
0.0008861473952
0.0008861474146
0.0008861474145
0.0008861474181
0.0008861474303
0.0008861474219
0.0008861474313
0.0008861474717
0.0008861474839
0.0008861474691
0.0008861474588
0.0008861474644
0.0008861474725
0.0008861474765
0.0008861473669
0.0008861473421
0.0008861473414
0.000886147322
0.0008861473201
0.0008861473502
0.0008861473788
0.0008861473942
0.0008861474011
0.0008861474042
0.0008861474049
0.0008861474017
0.0008861466914
0.0008861468464
0.0008861472557
0.0008861473004
0.0008861473483
0.0008861473891
0.0008861474062
0.0008861474274
0.0008861474153
0.0008861474227
0.0008861474644
0.0008861474729
0.0008861474708
0.0008861474694
0.0008861474614
0.000886147474
0.0008861474757
0.0008861473687
0.000886147346
0.0008861472747
0.0008861472088
0.0008861472322
0.0008861473061
0.0008861473586
0.0008861473842
0.000886147396
0.0008861474013
0.0008861474028
0.0008861473997
0.0008861267086
0.0008860990388
0.0008861381854
0.0008861458808
0.0008861472361
0.0008861473959
0.0008861474302
0.0008861474358
0.0008861474244
0.0008861474203
0.0008861474449
0.0008861474784
0.0008861474786
0.0008861474757
0.0008861474713
0.0008861474779
0.0008861474722
0.0008861474802
0.0008861474753
0.0008861474888
0.0008861475055
0.0008861475071
0.0008861473697
0.0008861473474
0.00088614731
0.0008861472634
0.0008861472326
0.0008861472553
0.0008861473206
0.0008861473658
0.0008861473873
0.0008861473967
0.0008861473997
0.0008861473956
0.0008861461111
0.0008861465074
0.0008861472022
0.0008861473463
0.0008861473974
0.0008861474348
0.0008861474381
0.0008861474376
0.0008861474533
0.0008861474351
0.0008861474488
0.0008861474737
0.0008861474845
0.0008861474816
0.000886147469
0.0008861474869
0.0008861474961
0.0008861474995
0.0008861474953
0.0008861475108
0.0008861475262
0.0008861475327
0.0008861473714
0.0008861473477
0.0008861473335
0.0008861473086
0.0008861472817
0.0008861472613
0.0008861472827
0.0008861473352
0.0008861473713
0.0008861473882
0.000886147394
0.0008861473888
0.0008861468895
0.0008861470597
0.0008861472549
0.0008861473539
0.0008861474118
0.0008861474354
0.000886147437
0.0008861474385
0.0008861474634
0.0008861474739
0.0008861474832
0.0008861474897
0.0008861474928
0.0008861474886
0.0008861474818
0.0008861475016
0.0008861475135
0.0008861475182
0.0008861475156
0.0008861475104
0.0008861475168
0.0008861475278
0.0008861473729
0.0008861473482
0.0008861473526
0.0008861473491
0.0008861473423
0.0008861473308
0.0008861473171
0.0008861473183
0.0008861473462
0.0008861473719
0.0008861473829
0.0008861473773
0.0008861471577
0.0008861472384
0.0008861473146
0.0008861473703
0.0008861474239
0.0008861474325
0.0008861474325
0.000886147439
0.000886147456
0.0008861474657
0.0008861474768
0.0008861474856
0.0008861474929
0.0008861474954
0.0008861474962
0.0008861475114
0.0008861475191
0.0008861475091
0.000886147506
0.0008861474932
0.0008861474918
0.0008861473747
0.0008861473496
0.0008861473651
0.0008861473742
0.0008861473779
0.0008861473801
0.0008861473806
0.0008861473783
0.0008861473716
0.0008861473664
0.0008861473762
0.0008861473935
0.0008861474096
0.000886147416
0.0008861474189
0.0008861474199
0.0008861474185
0.0008861474157
0.0008861474095
0.0008861473896
0.000886147428
0.0008861474376
0.0008861474489
0.0008861474652
0.0008861474921
0.0008861474979
0.0008861475041
0.0008861475117
0.0008861475112
0.0008861474979
0.0008861474699
0.0008861474569
0.0008861473763
0.000886147345
0.0008861473581
0.0008861473722
0.0008861473777
0.000886147382
0.0008861473851
0.0008861473875
0.0008861473887
0.0008861473867
0.0008861473852
0.0008861473959
0.0008861474068
0.000886147416
0.0008861474211
0.0008861474247
0.0008861474273
0.0008861474277
0.0008861474268
0.0008861474273
0.0008861474391
0.000886147444
0.0008861474562
0.0008861474752
0.0008861474933
0.0008861474877
0.0008861475033
0.000886147501
0.0008861474918
0.0008861474639
0.0008861474379
0.0008861474343
0.0008861473753
0.0008861473566
0.0008861473638
0.0008861473686
0.0008861473745
0.0008861473798
0.000886147384
0.0008861473878
0.0008861473913
0.0008861473944
0.000886147399
0.0008861474068
0.0008861474123
0.0008861474177
0.0008861474215
0.0008861474272
0.0008861474345
0.0008861474379
0.0008861474387
0.0008861474362
0.0008861474462
0.000886147448
0.0008861474547
0.0008861474658
0.0008861474827
0.0008861474672
0.000886147487
0.0008861474855
0.0008861474747
0.0008861474479
0.0008861474273
0.0008861474211
0.0008861473767
0.0008861473712
0.0008861473621
0.0008861473507
0.0008861473619
0.0008861473739
0.0008861473819
0.0008861473877
0.0008861473924
0.0008861473969
0.0008861474029
0.0008861474089
0.000886147411
0.0008861474152
0.0008861474198
0.0008861474286
0.0008861474345
0.0008861474395
0.0008861474446
0.0008861474408
0.0008861474534
0.0008861474532
0.0008861474547
0.0008861474606
0.0008861474707
0.0008861474642
0.000886147477
0.0008861474796
0.0008861474741
0.0008861474507
0.0008861474291
0.0008861473776
0.0008861473679
0.0008861473419
0.0008861473405
0.0008861473575
0.0008861473743
0.0008861473855
0.0008861473929
0.0008861473992
0.000886147405
0.0008861474088
0.0008861474103
0.0008861474105
0.0008861474091
0.0008861474059
0.0008861474118
0.000886147427
0.0008861474279
0.0008861474247
0.0008861474616
0.0008861474711
0.0008861474456
0.0008861474535
0.0008861474597
0.0008861474646
0.0008861474661
0.0008861474724
0.0008861474755
0.0008861474726
0.0008861474541
0.0008861474316
0.0008861473759
0.0008861473563
0.0008861473232
0.000886147329
0.0008861473512
0.0008861473716
0.0008861473848
0.0008861473925
0.0008861473978
0.0008861474029
0.0008861474072
0.0008861474094
0.0008861474041
0.0008861473991
0.0008861473868
0.000886147388
0.0008861474189
0.0008861474304
0.0008861474388
0.000886147454
0.0008861474689
0.0008861474731
0.0008861474749
0.0008861474745
0.0008861474729
0.0008861474761
0.0008861474813
0.0008861474783
0.0008861474581
0.0008861474547
0.0008861474417
0.0008861473764
0.0008861473727
0.0008861473253
0.0008861472995
0.0008861473206
0.0008861473509
0.0008861473741
0.0008861473818
0.0008861473912
0.0008861473991
0.0008861474046
0.0008861474077
0.0008861473951
0.0008861473905
0.0008861473806
0.0008861473725
0.0008861474003
0.0008861474409
0.0008861474512
0.0008861474634
0.0008861474842
0.0008861474854
0.0008861474835
0.0008861474796
0.0008861474777
0.0008861474833
0.0008861474849
0.0008861474944
0.0008861474796
0.000886147467
0.0008861474609
0.0008861473781
0.0008861473792
0.0008861473772
0.0008861473569
0.0008861473736
0.0008861473771
0.0008861473785
0.0008861473722
0.0008861473793
0.0008861473921
0.0008861473996
0.0008861474046
0.000886147392
0.0008861473917
0.0008861473951
0.0008861474224
0.0008861474573
0.000886147461
0.0008861474645
0.0008861474671
0.0008861474892
0.0008861474861
0.0008861474796
0.0008861474726
0.0008861474805
0.0008861474886
0.0008861474721
0.0008861474911
0.0008861474958
0.0008861474882
0.000886147496
0.0008861473838
0.0008861473824
0.0008861473768
0.000886147376
0.000886147381
0.0008861473804
0.0008861473726
0.0008861473624
0.0008861473649
0.0008861473822
0.0008861473916
0.0008861473986
0.0008861473954
0.0008861474028
0.0008861474206
0.0008861474532
0.0008861474772
0.0008861474744
0.0008861474708
0.0008861474699
0.0008861474763
0.0008861474832
0.0008861474894
0.0008861474903
0.0008861474959
0.0008861474982
0.000886147455
0.0008861474806
0.0008861475069
0.0008861475039
0.0008861475103
0.000886147394
0.0008861473895
0.0008861473765
0.0008861473844
0.0008861473866
0.0008861473783
0.000886147359
0.000886147347
0.0008861473511
0.0008861473745
0.0008861473892
0.0008861474006
0.0008861474117
0.0008861474239
0.0008861474452
0.0008861474661
0.0008861474803
0.000886147454
0.0008861474436
0.0008861474622
0.0008861473765
0.0008861473744
0.0008861473981
0.0008861474618
0.0008861474897
0.0008861474765
0.000886147444
0.0008861474801
0.0008861475318
0.0008861475228
0.0008861475031
0.0008861474054
0.0008861473944
0.0008861473756
0.0008861473804
0.0008861473875
0.0008861473672
0.0008861473396
0.0008861473271
0.0008861473405
0.0008861473708
0.0008861473947
0.0008861474118
0.0008861474235
0.0008861474349
0.0008861474745
0.0008861475004
0.0008861475134
0.0008861474223
0.0008861473298
0.0008861470955
0.0008861467438
0.0008861462549
0.0008861458024
0.0008861459246
0.0008861472549
0.0008861473346
0.0008861473558
0.0008861474758
0.0008861474901
0.0008861474777
0.0008861475041
0.000886147408
0.0008861473908
0.0008861473746
0.000886147381
0.0008861473966
0.0008861473971
0.0008861473792
0.0008861473403
0.0008861473591
0.0008861473664
0.0008861473851
0.0008861474087
0.0008861474158
0.0008861474293
0.0008861474887
0.0008861475332
0.0008861475592
0.0008861473037
0.0008861469475
0.0008861463947
0.0008861454987
0.0008861441505
0.0008861432268
0.0008861455221
0.00088614655
0.0008861466794
0.000886147012
0.0008861468708
0.0008861474254
0.0008861474349
0.0008861474794
0.0008861474045
0.0008861473824
0.0008861473706
0.0008861473743
0.0008861473806
0.0008861474031
0.0008861473916
0.0008861473588
0.000886147384
0.0008861473945
0.0008861474059
0.0008861474094
0.00088614741
0.0008861474103
0.0008861474341
0.0008861474583
0.0008861475099
0.0008861465593
0.0008861454001
0.0008861444642
0.0008861428062
0.0008861385739
0.000886133022
0.0008861376841
0.0008861002377
0.000886145189
0.000886146728
0.0008861460976
0.0008861473826
0.0008861474049
0.0008861474729
0.0008861473998
0.0008861473712
0.0008861473683
0.0008861473701
0.0008861473756
0.0008861473871
0.0008861473948
0.0008861473559
0.0008861473792
0.0008861473953
0.0008861474066
0.0008861474094
0.0008861474103
0.0008861474105
0.0008861474371
0.0008861474783
0.0008861474976
0.0008861462552
0.0008861442477
0.0008861417697
0.0008861350935
0.0008861283619
0.00088612792
0.0008861334782
0.0008861109144
0.0008861083942
0.0008861464846
0.0008861458131
0.0008861472491
0.0008861473142
0.000886147458
0.0008861473931
0.0008861473662
0.0008861473664
0.0008861473683
0.0008861473713
0.0008861473796
0.0008861473947
0.0008861473549
0.0008861473759
0.0008861473963
0.0008861474087
0.0008861474116
0.0008861474121
0.0008861474133
0.0008861474576
0.0008861474841
0.0008861474526
0.0008861470651
0.0008861469368
0.0008861468602
0.0008861466393
0.0008861460025
0.0008861464632
0.0008861473048
0.0008861473472
0.0008861471197
0.0008861464396
0.0008861455912
0.0008861456566
0.0008861469765
0.0008861474183
0.0008861473881
0.0008861473658
0.0008861473661
0.0008861473677
0.0008861473693
0.000886147375
0.0008861473885
0.0008861473805
0.0008861473949
0.0008861474136
0.0008861474243
0.000886147424
0.0008861474201
0.0008861474205
0.000886147495
0.000886147515
0.0008861475166
0.0008861475109
0.0008861474975
0.0008861474617
0.0008861474108
0.0008861473835
0.00088614738
0.0008861473823
0.000886147386
0.000886147374
0.0008861468095
0.0008861470345
0.0008861471831
0.0008861473431
0.0008861474201
0.0008861473844
0.0008861473671
0.0008861473665
0.0008861473679
0.0008861473685
0.0008861473698
0.0008861473819
0.0008861473873
0.0008861474255
0.0008861474412
0.0008861474525
0.000886147454
0.0008861474474
0.0008861474485
0.0008861475312
0.0008861475417
0.0008861475436
0.0008861475382
0.0008861475237
0.0008861474945
0.000886147442
0.0008861473992
0.0008861473921
0.0008861473939
0.0008861473952
0.000886147391
0.0008861471673
0.0008861472335
0.0008861472913
0.0008861473456
0.0008861473765
0.0008861473817
0.0008861473697
0.0008861473678
0.0008861473689
0.0008861473685
0.0008861473678
0.0008861473712
0.000886147382
0.0008861474325
0.0008861474516
0.0008861474671
0.000886147479
0.0008861474835
0.0008861474898
0.0008861475268
0.000886147532
0.000886147532
0.0008861475265
0.0008861475124
0.0008861474839
0.0008861474382
0.0008861474024
0.0008861473952
0.0008861473963
0.0008861473969
0.0008861473942
0.0008861473179
0.0008861473426
0.0008861473728
0.0008861474009
0.0008861474179
0.0008861473797
0.000886147372
0.0008861473699
0.0008861473704
0.0008861473693
0.0008861473679
0.0008861473682
0.0008861473768
0.0008861474216
0.0008861474462
0.0008861474627
0.0008861474771
0.0008861474901
0.0008861475002
0.0008861475109
0.0008861475144
0.0008861475136
0.0008861475064
0.0008861474887
0.0008861474571
0.0008861474177
0.0008861473966
0.0008861473944
0.0008861473959
0.0008861473962
0.0008861473938
0.0008861473723
0.0008861473828
0.0008861473974
0.0008861474101
0.0008861474175
0.0008861473789
0.0008861473738
0.000886147372
0.0008861473717
0.0008861473704
0.0008861473687
0.0008861473675
0.0008861473699
0.0008861473819
0.0008861474013
0.0008861474437
0.0008861474583
0.000886147471
0.0008861474813
0.0008861474874
0.00088614749
0.0008861474876
0.0008861474763
0.0008861474524
0.0008861474156
0.0008861473927
0.0008861473904
0.0008861473934
0.0008861473951
0.0008861473943
0.0008861473916
0.000886147387
0.0008861473912
0.0008861473976
0.0008861474022
0.0008861474017
0.0008861473789
0.0008861473749
0.0008861473737
0.000886147373
0.0008861473715
0.0008861473695
0.0008861473677
0.0008861473673
0.00088614737
0.0008861473802
0.0008861474257
0.0008861474356
0.0008861474434
0.0008861474493
0.0008861474517
0.0008861474511
0.0008861474434
0.0008861474253
0.0008861473953
0.0008861473799
0.0008861473838
0.0008861473902
0.0008861473937
0.0008861473942
0.0008861473915
0.0008861473874
0.0008861473884
0.0008861473907
0.0008861473941
0.0008861473945
0.0008861473886
0.0008861473791
0.000886147376
0.000886147375
0.0008861473741
0.0008861473723
0.0008861473701
0.0008861473678
0.0008861473666
0.0008861473675
0.0008861473761
0.0008861474151
0.000886147421
0.0008861474219
0.00088614742
0.0008861474139
0.0008861474041
0.0008861473883
0.0008861473705
0.0008861473642
0.0008861473758
0.0008861473867
0.0008861473923
0.0008861473943
0.0008861473933
0.0008861473878
0.0008861473803
0.0008861473837
0.0008861473871
0.0008861473921
0.0008861473959
0.0008861473991
0.0008861473793
0.0008861473769
0.0008861473761
0.0008861473752
0.000886147373
0.0008861473702
0.0008861473677
0.0008861473661
0.0008861473664
0.0008861473761
0.0008861474076
0.0008861474148
0.0008861474116
0.0008861474044
0.0008861473919
0.0008861473727
0.0008861473536
0.0008861473513
0.0008861473675
0.000886147383
0.0008861473909
0.0008861473942
0.0008861473949
0.0008861473925
0.000886147383
0.0008861473693
0.0008861473739
0.0008861473803
0.0008861473891
0.0008861473961
0.0008861473999
0.0008861473793
0.0008861473777
0.0008861473771
0.000886147376
0.0008861473731
0.0008861473694
0.0008861473663
0.0008861473652
0.0008861473658
0.0008861473728
0.0008861473938
0.0008861474125
0.0008861474068
0.0008861473969
0.0008861473812
0.0008861473594
0.0008861473484
0.000886147362
0.0008861473807
0.00088614739
0.0008861473941
0.0008861473958
0.0008861473957
0.000886147392
0.0008861473774
0.0008861473535
0.0008861473587
0.0008861473692
0.0008861473827
0.0008861473936
0.0008861473995
0.0008861473788
0.0008861473783
0.0008861473781
0.0008861473764
0.0008861473725
0.0008861473691
0.0008861473653
0.000886147364
0.0008861473656
0.0008861473705
0.0008861473847
0.0008861474112
0.000886147403
0.0008861473903
0.0008861473739
0.0008861473602
0.0008861473686
0.0008861473836
0.0008861473905
0.0008861473941
0.0008861473961
0.0008861473971
0.0008861473966
0.000886147392
0.0008861473711
0.0008861473334
0.0008861473378
0.0008861473523
0.0008861473713
0.000886147387
0.0008861473956
0.0008861473782
0.0008861473791
0.0008861473792
0.0008861473769
0.0008861473741
0.0008861473715
0.0008861473689
0.0008861473663
0.00088614737
0.0008861473725
0.0008861473871
0.0008861474058
0.0008861473967
0.0008861473867
0.0008861473836
0.0008861473853
0.0008861473882
0.0008861473912
0.0008861473938
0.0008861473958
0.0008861473972
0.0008861473979
0.0008861473973
0.0008861473923
0.0008861473622
0.000886147311
0.0008861473135
0.0008861473298
0.0008861473525
0.0008861473757
0.0008861473903
0.0008861473778
0.0008861473802
0.0008861473809
0.0008861473795
0.0008861473783
0.0008861473775
0.0008861473771
0.0008861473772
0.0008861473788
0.0008861473822
0.0008861473857
0.0008861473877
0.0008861473868
0.0008861473867
0.0008861473876
0.000886147389
0.0008861473909
0.000886147393
0.000886147395
0.0008861473967
0.0008861473979
0.0008861473986
0.0008861473982
0.0008861473936
0.0008861473479
0.0008861472912
0.0008861473114
0.0008861473279
0.0008861473736
0.0008861473845
0.0008861473886
0.0008861473757
0.0008861473818
0.0008861473832
0.0008861473828
0.0008861473826
0.0008861473827
0.000886147383
0.0008861473834
0.0008861473839
0.0008861473842
0.0008861473841
0.0008861473839
0.0008861473839
0.0008861473846
0.0008861473861
0.0008861473883
0.0008861473909
0.0008861473935
0.0008861473958
0.0008861473975
0.0008861473986
0.0008861473993
0.0008861473994
0.0008861473969
0.0008861473211
0.0008861444826
0.0008861473801
0.0008861473963
0.0008861474003
0.0008861474008
0.0008861474003
)
;

boundaryField
{
    walls
    {
        type            zeroGradient;
    }
    wallFilmFace_top
    {
        type            zeroGradient;
    }
    region0_to_wallFilmRegion_wallFilmFace
    {
        type            zeroGradient;
    }
    mirrorFace_top
    {
        type            zeroGradient;
    }
    region0_to_wallFilmRegion_mirrorFace
    {
        type            zeroGradient;
    }
    procBoundary1to0
    {
        type            processor;
        value           nonuniform List<scalar> 
52
(
0.0008861473829
0.0008861473723
0.0008861473678
0.0008861473651
0.0008861473639
0.0008861473634
0.0008861473629
0.0008861473643
0.0008861473643
0.0008861473625
0.0008861473614
0.0008861473621
0.000886147386
0.000886147386
0.0008861474045
0.0008861474032
0.0008861474032
0.0008861474067
0.0008861474128
0.0008861474209
0.0008861474126
0.0008861474126
0.0008861125975
0.0008861474281
0.0008861474281
0.0008861474408
0.0008861474549
0.000886147472
0.0008861474575
0.0008861474575
0.0008861474549
0.0008861474609
0.0008861474609
0.0008861474732
0.0008861474767
0.0008861474767
0.0008861475162
0.0008861475136
0.0008861475033
0.0008861475033
0.0008861474671
0.0008861474671
0.0008861474774
0.0008861474808
0.0008861474582
0.0008861474582
0.0008861474552
0.0008861474599
0.0008861474943
0.0008861474863
0.0008861474905
0.0008861475124
)
;
    }
    procBoundary1to2
    {
        type            processor;
        value           nonuniform List<scalar> 
33
(
0.000886147511
0.0008861474956
0.0008861474956
0.0008861474704
0.0008861474704
0.0008861474497
0.0008861474238
0.0008861474254
0.0008861474254
0.0008861474409
0.000886147443
0.000886147466
0.0008861474917
0.0008861475067
0.0008861474899
0.0008861474871
0.0008861475051
0.0008861475023
0.0008861474948
0.0008861474885
0.0008861474399
0.0008861473893
0.0008861474199
0.0008861474174
0.0008861473441
0.0008861473755
0.000886147406
0.0008861473802
0.0008861473932
0.0008861473818
0.0008861473847
0.0008861473883
0.000886147399
)
;
    }
}


// ************************************************************************* //
