/*--------------------------------*- C++ -*----------------------------------*\
  =========                 |
  \\      /  F ield         | OpenFOAM: The Open Source CFD Toolbox
   \\    /   O peration     | Website:  https://openfoam.org
    \\  /    A nd           | Version:  8
     \\/     M anipulation  |
\*---------------------------------------------------------------------------*/
FoamFile
{
    version     2.0;
    format      ascii;
    class       surfaceScalarField;
    location    "1.9/wallFilmRegion";
    object      phi;
}
// * * * * * * * * * * * * * * * * * * * * * * * * * * * * * * * * * * * * * //

dimensions      [1 0 -1 0 0 0 0];

internalField   nonuniform List<scalar> 
2656
(
-0.002848676687
-0.01636769294
-0.003798499321
-0.001197288196
-0.004260858497
-0.0007134737466
-0.004924591796
-0.0005295878876
-0.004839123131
-0.0005587408241
-0.004498581792
-0.0006070765869
-0.0006649670406
-0.0008677186579
-0.01365819958
-0.001095918386
-0.0008986586648
-0.001295150768
-0.0005413183212
-0.001496303571
-0.0004593894497
-0.001794429863
-0.000589037564
-0.002226205438
-0.0008036365406
-0.002771875867
-0.001086746178
-0.003366037731
-0.0013587618
-0.003926538396
-0.001516172559
-0.004131355275
-0.001461689665
-0.001256253326
-0.0006464046483
-0.01089388613
-0.000632153024
-0.0006744281214
-0.0006803930263
-0.0004075757448
-0.0008173260002
-0.0003844611874
-0.001116299082
-0.0005217235413
-0.001620655592
-0.0007453282227
-0.002260533997
-0.0009794374038
-0.002811738217
-0.001151668788
-0.002936977021
-0.001193019767
-0.002300915609
-0.001086699629
-0.00125393456
-0.000898926982
-0.0006542598914
-0.0006933376751
-0.0006210554489
-0.0007131194463
-0.008596942791
-0.000628795234
-0.0004926142282
-0.000662070499
-0.0002968411055
-0.0008150304143
-0.0002975920006
-0.001102517768
-0.0004047510845
-0.001503549392
-0.0005564612496
-0.001838461468
-0.0007121868083
-0.00190844918
-0.0008294183057
-0.00167214271
-0.0008983543541
-0.001275570564
-0.0008602672621
-0.000852397712
-0.0008072182652
-0.0006675539917
-0.0006071613727
-0.0005851410372
-0.0005749911968
-0.0005046590924
-0.0006221804985
-0.0004198793735
-0.0006946454272
-0.000361799514
-0.0008228952607
-0.001085391623
-0.0007232802918
-0.007048584781
-0.0005725160431
-0.0003361825632
-0.0005913421998
-0.0001932581814
-0.000726750992
-0.0001964116639
-0.0009339556221
-0.0002665389334
-0.001167001773
-0.0003679736995
-0.001367305984
-0.0005227597064
-0.001445408785
-0.0007469168142
-0.001332603838
-0.0009615604766
-0.001205276986
-0.0009029037506
-0.0008843239576
-0.0009076021605
-0.0007909045053
-0.0006056622104
-0.0007365660423
-0.000545489032
-0.0006509085121
-0.0005795194369
-0.00054398602
-0.000628960599
-0.000417756097
-0.0006639543457
-0.0002138444102
-0.0007056259969
-0.0001105561288
-0.0008452541181
-0.004696582463
-0.0006951517423
-0.005973596201
-0.0004706344591
-0.0002069412963
-0.0004714502027
-9.885824688e-05
-0.0005782202157
-9.403979634e-05
-0.0007311031575
-0.0001359286497
-0.0009308927096
-0.000212823175
-0.001213811062
-0.000371780261
-0.001465459648
-0.0006825039788
-0.001419511219
-0.0009615167217
-0.001487893132
-0.0007783753522
-0.001108601817
-0.0008391451594
-0.0009873468964
-0.0005765972764
-0.0009010872069
-0.0004541732669
-0.0007517360124
-0.0004207275676
-0.0005671337943
-0.000409586042
-0.0004060276557
-0.0004187962973
-0.000301097946
-0.0005680836362
-0.0003938458058
-0.0009803707101
0.001365338439
-0.002216481014
0.0008169768929
-0.009288478207
-0.0004062053069
-0.004715736581
-0.000148164759
-0.002704633449
-0.00206762658
-0.0006288253342
-0.005043145115
-0.0003163426134
-0.0001029414871
-0.0002885183032
-2.210853323e-05
-0.0003757129157
-1.185719743e-05
-0.0004990502835
-3.011167958e-05
-0.0007136418962
-4.698801725e-05
-0.001088900427
-8.703041244e-05
-0.001481549061
-0.0002007641961
-0.001382157208
-0.0003829865821
-0.001648804368
-0.000440494223
-0.001362956906
-0.0006013634409
-0.00108299934
-0.0005221074261
-0.0008409929241
-0.0003248692038
-0.0006381672499
-0.0001710556667
-0.0004993700159
-0.0001831730639
-0.0005001369484
-0.0003326931037
-0.0006291469171
-0.0007502350005
-0.0008068190235
-0.001417348885
5.258851401e-05
-0.00191797248
0.0008521862656
-0.002769365653
4.121539996e-05
-0.002929759137
-0.0003037286633
-0.00182934686
-0.00076213589
-0.001428250708
-0.0009842265508
-0.0002866373753
-0.0004088063424
-0.001689042076
-0.004533332088
-0.001649845105
-0.0001064449449
-0.0006814762158
9.278304085e-05
-0.0003729887368
0.0001133403405
-0.0002735684462
4.934638546e-05
-0.0003570281033
2.315568076e-05
-0.0006596450501
1.084375233e-05
-0.001112324634
-0.0002721525524
-0.001401376867
-0.0007699850336
-0.001813489015
-0.0009652543274
-0.001672766331
-0.001725576596
-0.001066049172
-0.001630016005
-0.0004703523632
-0.0007709340577
-0.0004451811848
-3.829189217e-06
-0.0005931505079
-9.284455993e-05
-0.0009632062084
-0.0003694408051
-0.001275656116
-0.0008412365462
-0.001110446765
-0.0009669324781
-0.0006279805962
-0.0006144611782
6.058568434e-05
-0.0003445742019
0.0004766269761
-0.0004143023675
-0.0004543702845
-0.0007626026282
-0.001804191042
-0.001211053339
-0.002494933229
6.239287203e-05
-0.001799332904
-6.132739298e-05
0.0005915007208
0.0001625291276
-0.004739541055
0.0001311868647
-0.0001502802651
-0.001641762747
-0.0002424139387
-0.002094513263
-7.659606685e-05
-0.001855984345
-5.406794669e-05
-0.001363455469
1.196358449e-05
-0.001486349822
5.958646524e-06
-0.002062976886
-0.0009104784092
-0.002210139196
-0.001328142796
-0.003212465808
-0.002254820098
-0.003516002146
-0.003251433186
-0.002543110796
-0.003687199247
-0.0008271098864
-0.002469988973
-0.0008315630941
0.0001372754242
-0.001187153917
0.0001279739176
-0.001630269932
-6.257740807e-05
-0.001246170445
-0.0002652091508
-0.0005318186195
-0.0001765742106
-0.0001794262861
-8.599451709e-05
-1.889873873e-05
-3.901157004e-05
0.0005310798521
-0.0001138434354
0.0008129845441
-0.0002871090563
-0.0005724986965
-0.0006017879723
-0.001918519148
-0.0004473817177
-0.001276022536
0.0001343808575
0.001354372762
0.0001732191518
-0.004704946187
0.0002448776099
-9.628149799e-05
-0.0001370829926
-0.0002356661027
-0.0005392840383
-0.0002751289242
-0.001116865819
-0.0003606902835
-0.002063789738
-0.0006272978682
-0.002757198996
-0.001094586068
-0.002498816753
-0.001915239566
-0.002666360823
-0.00158283942
-0.003231056667
-0.002134101688
-0.004474166896
-0.002253781511
-0.005579783492
-0.00211803332
-0.006526438728
-0.001065140096
-0.005697241403
-0.0009924213196
-0.003190516059
0.0004225907385
-0.001516172259
0.000612469304
-0.0005242621192
0.0001831776455
-0.0001474118337
4.775777752e-05
-4.153279326e-05
1.299901289e-05
1.46430268e-06
1.18035595e-06
0.0003804714539
-0.0001379830557
0.001159484813
-0.0003131402053
0.002184789744
-0.0002715643762
0.002864158995
-0.0006396725364
0.0009160563106
0.00128575773
-0.0002886064174
0.001773952759
0.0005275979528
0.0001938216416
-0.004485342962
0.0002555504761
-8.628823139e-05
-0.0001715308793
-0.0002474220997
-0.000874659754
-0.0005256117399
-0.001513150538
-0.0005771852744
-0.00262387017
-0.0006756271987
-0.003852291131
-0.000953665754
-0.002394478021
-0.0008286346722
-0.001890821335
-0.00108516986
-0.001683725294
-0.001380453293
-0.001755847119
-0.001477097758
-0.00129315007
-0.00106900642
-0.001732808778
-0.0002896668163
-0.002821924774
-0.0006346274175
-0.002326119273
-8.199728706e-05
-0.001166146184
0.001073455311
-0.0005290635107
0.0006008285573
-0.000301547416
0.0003540304247
-0.0003053924736
0.0003201869081
-0.0004682011531
0.0004350483159
-0.0004147568361
0.0002629075215
-0.0001244023602
0.0001914967991
-0.0002400112484
-3.417100289e-05
0.0002095248712
-0.0001828059071
-1.540931277e-05
0.0009757822228
-0.0002824297154
0.0008364062796
0.000450430739
0.0002176600699
-0.003956429021
0.0002121095125
-9.680089105e-05
-0.0007709828786
-0.0006758844449
-0.001230853173
-0.0008338597013
-0.001240373675
-0.0006489207998
-0.001435414944
-0.0007645859331
-0.001306237673
-0.00377720591
-0.001427588216
-0.0007082530699
-0.001369416077
-0.0009143321948
-0.001150135927
-0.001099942052
-0.0007763637892
-0.001142495601
-0.0002215298897
-0.0008009605473
-0.0001991880263
-0.000116813468
-0.0008648852696
-0.0003502719572
-0.0017343778
-0.0003665579261
-0.001255371129
0.001135226338
-0.0007337443151
0.001085997237
-0.0005262137091
0.000807911994
-0.0005776178717
0.0008514843706
-0.0008133709759
0.001185057281
-0.0004895311767
0.0007692023942
-0.0001512714427
0.0007573544863
-0.0004930398062
0.000384927509
2.941199336e-05
5.139156137e-05
0.001737549834
0.0005435520952
0.0002976489452
0.0009375711425
0.0007171373579
0.0002188207905
-0.003143893743
0.0001623836927
-7.339980038e-05
-0.001870110465
-0.0008422979435
-0.001401854998
-0.0004911458124
-0.001609567802
-0.0003862140897
-0.006310425054
-0.0003736263772
-0.0008871438051
-0.0002435729418
-0.00118796525
-0.0005704630359
-0.00126840246
-0.0007135621392
-0.001085948488
-0.0008475735618
-0.0006323450085
-0.0008760923272
-5.220168512e-05
-0.0005956296678
4.346069051e-05
-7.676464208e-05
4.014811064e-05
-0.0002105205158
-0.0008694504661
-0.0004460995657
-0.001254821188
0.0002539571279
-0.0008647562848
0.001437895386
-0.0006911426035
0.001262738194
-0.0007565763562
0.0014542359
-0.001081372804
0.002124538422
-0.001238203417
0.000761181255
-0.0001650712371
7.675305274e-06
9.80259592e-05
0.001050702258
0.0005489453807
0.0002233430184
0.00103354548
9.11864721e-05
0.0007739891902
0.001016110909
-3.017008698e-05
0.001373387765
0.0009734056397
0.0001943529737
-0.002411165557
6.637028726e-05
-0.0001138682113
-0.001212665966
-0.0003635408091
-0.001274906204
-0.0002749453503
-0.001375452817
-0.0002698139053
-0.001476772235
-0.0002658438918
-0.001532280448
-0.0001504892809
-0.001567877165
-0.0003636981497
-0.001522235368
-0.0004473635303
-0.001290029694
-0.0005110864049
-0.0007281689301
-0.0005185924143
-5.548539724e-06
-0.0003557703091
0.0001491281445
-7.087224673e-05
0.0002987342034
-0.0001393475136
0.0002648972312
-0.0002809044497
-0.0006474196933
-0.0002374506468
-0.0008587040113
0.000740008479
-0.000756021643
0.001377321845
-0.0007283494132
0.001788837116
-0.0004122834676
0.002744783203
-9.2687637e-05
0.0003281507349
0.0002238105981
-0.000826495821
0.0006508919497
0.002067487433
0.0006060735141
-0.0001008731935
0.0004721711107
-0.0004084728683
0.001033717176
7.955933534e-05
0.0004225502451
0.001053344948
0.000208722047
0.001319170043
0.001494729211
-0.0005551876216
-0.001869441993
-0.001019932788
-0.0001504142628
-0.001298368931
-0.000128456911
-0.001740983937
-4.118460892e-05
-0.002009311372
-2.89806725e-05
-0.002139447956
-1.624105679e-05
-0.002122440846
4.930067981e-05
-0.002083524406
0.00010105875
-0.001968727611
0.0001304238479
-0.001622705081
0.0001670564548
-0.0009068499497
0.0001809100674
-5.404773877e-06
0.0001277420112
0.0003552887943
-2.828433591e-06
0.0006765270011
-2.632227256e-06
0.0007649646711
-1.015639767e-05
0.0004210961164
-1.855256908e-05
-0.0001447802286
-1.989452336e-05
-0.0004298974075
0.0005984345189
-0.000730479143
0.0007732907071
0.0001825872763
0.001836735287
0.0004737299842
-0.0001435375481
0.0005268082992
-0.0008672956262
0.0004533244631
1.579340716e-05
-0.0003141458453
-0.0005271349506
-0.0002685033635
-0.000355253633
0.000240487247
0.0001195112624
0.0003955883099
0.0001411847499
0.0005000344357
0.001084944666
0.0006896729077
-0.0009236245163
-0.001209096068
-0.000578059769
-1.098016114e-05
-0.0002364199976
-8.200005164e-06
-0.0002129234697
-5.628354845e-06
-0.0003077101816
-5.049294095e-06
-0.0005200483202
1.037002929e-05
-0.000775344997
0.0001021045398
-0.0009557306003
0.0002383795557
-0.001026250132
0.0003667920373
-0.0009157104077
0.0004749554823
-0.0005165458893
0.0005078437282
-5.901368021e-06
0.0003493757877
-3.028679711e-06
-4.222648329e-08
-4.633360683e-07
-6.341760082e-09
9.57881441e-06
-5.585158071e-08
2.472814667e-05
-5.419252285e-07
5.122958609e-05
-7.4422154e-06
0.0001550002845
-3.90172531e-05
0.0002281372445
-0.001022208096
0.00134477547
-0.004939634604
0.0008200813389
-0.0007713105683
0.0005729175262
-0.0005720915338
-0.0002853277672
-0.0006313432992
-0.0005233201427
-0.0006605973659
-0.0002385828421
5.994121672e-05
-0.0001118961007
0.0002960009653
0.0003267389707
0.0003401747004
0.0003080376733
0.0006050066251
3.098684127e-05
-0.0004090567635
-0.0001390369538
-0.0001382598367
4.887583162e-05
-8.995248136e-05
1.043546673e-05
-9.870800526e-05
6.189348874e-06
-0.000164874405
7.699381646e-06
-0.0003107285447
1.933722448e-05
-0.0005083475126
7.970580185e-05
-0.0006943494095
0.0002333654138
-0.0007981548129
0.0004333528947
-0.0007386636219
0.000610237768
-0.0004227945445
0.0006735761372
-1.408026015e-07
0.0004602423392
-2.16014567e-08
3.366129551e-08
1.459450128e-09
4.564335071e-09
2.666789751e-07
2.456684653e-08
2.792704005e-06
1.373581188e-07
2.584313977e-05
-5.845039945e-05
5.057338534e-05
-0.0005055228811
-0.0006250369262
-0.003117566388
0.0004129219569
-0.005330201753
0.0005406282735
-0.0003171021239
0.0003786543737
-5.035651016e-05
0.0001126894436
-9.773557656e-05
-0.0008067056099
0.00154075857
-2.706090966e-05
0.00145624536
0.0003141050857
0.0007077231907
0.0002044791461
0.0005559185918
0.0002329374957
0.000410693594
0.0007419573728
0.0006186277975
0.0003245519049
0.0003327907838
0.0001224912619
9.893192744e-05
9.876610649e-05
7.461406731e-05
2.012660564e-06
0.0003071634348
0.0005230700252
-0.0004184981433
0.0007049316398
-0.0001898998282
0.000126357299
-0.0001212988869
4.095225753e-05
-9.49349152e-05
2.525453035e-05
-0.0001049753585
2.222126672e-05
-0.000176101922
2.814076176e-05
-0.0003230718595
6.263590421e-05
-0.00049864822
0.0001829666446
-0.0006195029222
0.0004084403747
-0.0005944919768
0.0006415849885
-0.0003483670735
0.0007378709769
-3.166967047e-06
0.0005089643914
-2.543858446e-06
2.325328078e-06
-1.921925968e-06
2.422260314e-06
4.915494878e-06
1.03272902e-05
-5.060142435e-05
8.488960314e-05
-0.0003568884674
-0.000109980235
-0.001018615495
-0.0009846922639
-0.001210749788
-0.003190225574
-0.0001737559343
-0.003295168707
3.419850851e-05
-0.0002578708673
9.34495777e-05
3.178896462e-05
0.0003700762806
8.156599483e-05
0.001178215545
0.001015740807
0.0008619199262
0.003187167812
-2.053313451e-05
0.001915431198
0.0002402306732
0.001070281219
0.000785569734
0.000849861931
0.0004733849398
0.0008595056678
0.0001657294843
7.579601927e-05
9.408788332e-05
-0.000826121925
0.000161645978
-0.0005410067155
0.0002403216101
0.0003781557953
0.0006438891273
-0.0004835592538
0.001200515256
-0.000273597435
0.0002543351845
-0.0001838554381
0.0001001624969
-0.0001361219106
6.433493847e-05
-0.0001118799283
5.27606486e-05
-0.0001262148115
4.77928162e-05
-0.0002062472674
6.137741109e-05
-0.0003506102521
0.0001321450943
-0.0004813310975
0.0003243161339
-0.0004878490677
0.0005913917288
-0.000294543392
0.0007328542776
-1.061649475e-05
0.0005178956002
-9.769398842e-06
9.966080046e-06
-8.700654807e-06
1.210168366e-05
2.229554059e-06
2.514810472e-05
-5.238076775e-05
9.460450238e-05
-0.0004779171627
-0.0001195074974
-0.001212066475
-0.001000368206
-0.0009102369941
-0.001565115013
-0.0006756259221
-0.001280940098
-0.0003093576222
-0.0001772588178
-0.0002137010865
4.457711541e-05
6.296930263e-06
9.298851942e-05
0.000941748652
0.0007340622572
0.0006357168692
0.002874697183
-6.163838393e-05
0.002306876023
0.0001283744044
0.001560267051
0.0001733417185
0.0009003158091
-9.925645385e-05
0.0005667934008
-0.0003393188272
-0.0005480041995
-0.0001907738066
-0.0006454545422
0.0001596833713
-0.0003431652475
0.0003169588916
0.000203572039
-0.000616744583
0.001493909206
-0.0004697189872
0.0004396063573
-0.0003782069284
0.0002416416508
-0.0003221263095
0.0001788070426
-0.0002591302905
0.0001612839206
-0.0002060417762
0.0001367659124
-0.0001957530527
0.0001167474836
-0.0002627551548
0.000128703491
-0.0003813393162
0.0002279600668
-0.0004310737321
0.0004464223845
-0.0003029380731
0.0006080505709
-3.152864342e-05
0.0004018530359
-3.096458053e-05
1.97149517e-05
-3.442308323e-05
2.311467182e-05
-5.294106589e-05
3.04886062e-05
-0.000209269578
4.762176409e-05
-0.0008823833097
-1.253673099e-05
-0.001007816202
-0.0001131297802
-0.0005644408979
-7.901146977e-05
-0.001007771962
-2.04131613e-05
-0.0007098454931
0.0001048396883
-0.0004907244653
0.0001293379341
-0.0002043747385
0.0001669620352
0.0003974643307
0.0004039506818
3.76497653e-05
0.001351038563
-0.0005291580974
0.001390978799
-0.0003174919504
0.001397534212
-0.0003406945646
0.0007130350783
-0.0001449621887
0.0004474327287
0.0003361703099
-6.462380518e-05
0.0008520066269
-0.0001418863821
0.0009615894257
-0.0001859882495
-0.0008771323064
0.001987946036
-0.001197896706
0.0007225906265
-0.001416973581
0.0006635203506
-0.001635645587
0.0006385303758
-0.001675892252
0.0007785807246
-0.001457333485
0.0008440627091
-0.001057167643
0.0008055120586
-0.0006653232621
0.0006774324573
-0.0004753968036
0.0005184334144
-0.0005370224484
0.0004680641679
-0.0009377078434
0.000567306217
-0.002194311824
0.0004046040203
-0.004700646714
0.0003385482519
-0.00684506947
-5.195924385e-05
-0.006217118605
-0.001170020399
-0.003085024913
-0.001062229298
-0.001348745391
0.000484711886
-0.00038174268
0.0002919130579
-5.807320372e-05
0.0001378563797
2.539429817e-05
3.83453856e-05
0.001693335286
5.753080262e-05
0.00660630815
0.0004612780897
0.007530255752
0.0009884999058
0.00159022897
0.0007511791922
-0.0002039137655
0.000740863413
-0.0002859714039
0.0004988761231
-0.0001635454788
0.00118719546
-0.000152994872
0.0004913962146
-0.0001611169214
0.0003087927479
-0.000168183478
0.0001641693702
-0.0003210433136
0.0001759422435
-0.0001211475587
-0.001204759618
0.002455334878
-0.00278841724
0.0005495959242
-0.003619623634
0.0001300221708
-0.004416518746
0.0002506145359
-0.005196729721
0.001406516137
-0.005389169092
0.002130605536
-0.004269093787
0.002613683773
-0.002514831019
0.002534025977
-0.001270514891
0.001870564145
-0.000848947019
0.00113621849
-0.001169673574
0.0005476306235
-0.001039254128
-0.003231124501
-0.001947215538
0.0002845640703
-0.003207670698
-0.0008365405697
-0.003373054134
-0.002154319998
-0.002445207371
-0.001378015216
-0.002809095406
0.001255002891
-0.002193235127
0.001449121745
-0.001344790928
0.00169431795
-0.0008157593692
0.001701531846
7.650490051e-05
-5.538379136e-06
0.0001960359403
0.0003892972901
-8.373510117e-05
0.0005751111377
-0.0002664345621
0.0005292197211
-0.000547191367
0.001006497606
-9.816875858e-05
0.0007921481202
-1.258631864e-05
0.0009091991625
-0.0003345309969
0.0003468605931
-0.0006396605093
0.0001581160998
-0.0005404125989
0.0002491735485
-0.0004618514133
0.0001332861191
-9.823650396e-05
-0.002290315781
0.003003178102
-0.001872031892
-0.0004457926994
-0.0009796781049
-0.0001603317169
-0.001465482121
-3.856672299e-05
-0.002333479415
0.0002750134749
-0.003412648915
0.0008747397124
-0.00407488762
0.001708894977
-0.00360285775
0.002499340887
-0.002480517559
0.002634894094
-0.002274572498
0.001835570297
-0.004150263847
-0.0007020033532
-0.002229813386
-0.00903875539
-0.002629630293
0.0005337965836
-0.002179012625
-0.0005198656403
-0.001595688312
-0.0006943664104
-0.002046393154
-0.0004682632039
-0.003602998861
0.001298494931
-0.006228915926
0.0008692219469
-0.006423199475
-0.001212566271
-0.001148197906
-0.001053588847
-0.001019727848
-0.0006195676648
-0.001252230725
0.0001595624082
-0.0008657847688
0.0004786702016
-0.0004569167362
0.0008042729316
-3.702317863e-05
0.001365463173
1.280617934e-05
0.0004892099467
-0.0001075789683
0.0008398709911
-0.0003311491341
0.0008599669019
-0.0003564142248
0.0004944951113
-0.0003709701853
0.0005578032043
-0.0005031838586
0.0003577301104
-0.001162518862
0.003855938001
-0.0003467600825
-0.0002877162582
-0.0002216332726
-8.021946189e-05
-0.0003200050288
-1.391541353e-05
-0.0006408285534
6.61394788e-05
-0.001270004672
0.0002600510192
-0.002257902137
0.0007005095707
-0.002952108628
0.001455833641
-0.002893420786
0.002048303811
-0.003126390237
0.001767219762
-0.004739770247
-0.0004848094649
-0.001997401705
-0.004426075732
-0.001088024008
0.0006561070798
-0.0005914018153
3.321818494e-05
-0.0006721958925
-0.0001009514974
-0.001334296905
0.0001106540027
-0.001437654274
0.001225857656
-0.001269399833
0.0009356758256
-0.0007044090336
-1.482071363e-05
-0.00103004507
-2.495691519e-05
-0.001153634968
0.0008082609997
-0.001384629905
0.0004621970244
-0.001203940508
0.0002754720549
-0.000772752664
0.0006401193104
-0.0003091745727
0.001273244171
-0.000461733897
0.0004402795353
-0.0004887808732
0.0005480574339
-0.0005459812213
0.0007363602737
-0.0001807380947
0.000501306547
-9.729971032e-05
0.0007475749109
0.0004911282881
-0.0002658357096
0.004168929956
-0.0001414398923
-0.0001194967925
-0.000199259232
-2.931447019e-05
-0.0003127368641
1.64325392e-05
-0.0006058343326
8.021679812e-05
-0.001266522786
0.0002083692952
-0.002788442715
0.0004897132592
-0.006406108182
0.001159916639
-0.01212879444
0.00228874464
-0.01452580034
0.003840060664
-0.009938467694
0.005468190682
0.001639891449
0.006409340805
0.006154434278
0.001067262187
0.004583351736
0.0007899314778
0.001010143305
0.0003641326512
2.879992892e-05
0.0001511114796
-0.004561715189
0.00133229493
-0.000935899627
0.003935534495
-0.0004737872203
0.0004625585373
-0.00269748592
0.0002415381577
0.003835611296
0.002731266543
0.005039646315
0.0002898175121
0.00541150387
8.47648724e-05
-0.0003169510127
0.0001325361511
-0.0007391711649
0.0007753406198
-0.0006717055176
0.0002517579671
-0.0005522062624
-0.0005669799719
-0.0003902139713
-0.0003811005761
-0.0001418152799
0.0003508427505
5.531409283e-05
0.0009682213254
0.0005586969771
-5.651916593e-05
0.003857140869
-8.330319422e-05
-2.226732231e-06
-0.0001997072838
1.441982695e-05
-0.0003388211006
3.969331756e-05
-0.0006220990492
8.869893888e-05
-0.001111446124
0.0001794923802
-0.001886241574
0.0003876454639
-0.002992872866
0.000729762797
-0.004416241277
0.001200205369
-0.005885918138
0.002470785915
-0.005845269967
0.005281923819
-0.0003197881437
0.008991482056
0.0001907382026
0.00039567978
-1.931582615e-05
0.0002503447627
-4.233915744e-05
0.0001137685369
-4.179689914e-05
6.508329871e-05
-0.000381274391
0.0003192342779
-0.001797886119
0.005206449479
-0.0008997175811
0.00195442317
-0.001270608552
0.001009323097
-0.0009256848804
0.0007239348689
-0.001238440753
-0.0002502722422
-0.00131583649
-0.0001847827118
-0.001097430695
-0.000209115049
-0.001116300941
0.0004101052769
-0.00144457974
-1.073262809e-05
-0.0007621269759
-0.00281882906
-0.0001373243698
-0.002527367172
2.997014456e-05
0.0001815341606
0.0004147904702
0.0007813956396
0.0006323161748
-8.11860885e-05
0.004667976076
-6.136502813e-05
4.467346885e-05
-8.189629752e-05
-5.37972566e-05
-0.0001072555668
1.324776513e-05
-0.0001699834226
-3.113561119e-05
-0.0003990530691
-5.170947222e-05
-0.001128928276
0.0001781126491
-0.00152554433
0.0007997078117
-0.002015581365
0.0007462730292
-0.002926598613
0.001246546674
-0.00363567699
0.00336180985
-0.0004359186782
0.007205072422
-0.0002564785182
0.0002999527601
-0.0001414003132
0.0002048516586
-6.538670196e-05
0.000126215575
-1.791313064e-05
6.016257349e-05
3.056029578e-05
0.0001043559836
-0.003126656454
0.004424203386
-0.002197217656
0.004441926866
-0.00244935568
0.003589948394
-0.001764390671
-0.0002344078686
-0.001267581352
-0.0001460396379
-0.0009524960605
-3.172235181e-05
-0.0008909297835
6.716237211e-05
-0.001056856941
0.0004633354983
-0.001275373625
-0.0004876261912
0.0001302016162
-0.003473826527
0.001489211822
-0.00246934834
0.0009690546401
-0.0001448273989
0.0007820867422
0.0007304388017
0.0006543921137
-0.003074628532
0.004689901057
-0.003452531069
-0.0004222474902
-0.0001467554538
-0.008803674763
-0.0005348614959
8.398229028e-06
-0.000599409283
-0.0009519947257
-0.0004379303194
-0.0006113835386
-0.000469871442
-0.0001575118794
-0.0008144905468
0.0009714900929
-0.001047146919
0.0005620062174
-0.001465821864
0.0006413336451
-0.002048984753
0.001509722091
-0.0003955670511
0.003673431045
-0.0002869333859
0.000328465571
-0.0001949256406
0.0002598873573
-0.0001675905008
0.0001955786718
-0.0003544481375
0.0001472604931
-0.001777006521
0.0001232575196
-0.003797296303
0.001436683623
-0.003061273645
0.004998327133
-0.001233622664
0.005791703886
-0.001391552194
-0.0002402963438
-0.001586700825
-0.0001999234778
-0.001276859943
-5.214288565e-05
-0.0009188572154
0.0003563535103
-0.0006741366205
0.0004942596649
-0.0008649389356
-0.0005127793551
-3.950790954e-05
-0.002151273766
0.0009428888871
-0.001398677805
0.00175089072
-9.270933014e-05
0.001460614628
0.0007433435101
0.0009248894619
-0.0001219246586
0.001356453394
0.000281735327
-0.0007296577618
0.0003270108376
-0.008241217952
-0.0006039114287
-1.913103242e-05
-0.0009511299715
-0.0005968707473
-0.000711137361
-0.0002931991493
-0.0006289445203
-9.013730607e-05
-0.0005478057977
0.0005468748889
-0.0006626046248
0.0004468531892
-0.0007956272324
0.0004510240811
-0.001024624897
0.0006964229669
-0.0004271820323
0.001319667073
-0.0003605687488
0.0004303102984
-0.0003204517295
0.000400508473
-0.0003844606602
0.0003677257735
-0.0007534247951
0.0003305655849
-0.001348705573
-0.0003037331496
-0.00221661241
-0.0002134567826
-0.002511159686
0.0007902784091
-0.0002850398291
0.003802090596
-0.0003476677679
-5.003213039e-05
-0.0005732432552
-3.837523012e-05
-0.0008737848165
-2.745033462e-05
-0.0007120573116
-9.007127523e-05
-0.0003578380826
-5.545033112e-06
-4.685310548e-05
-0.0004226775128
-0.0001087239953
-0.000968110344
0.0001751036747
-0.0007647985872
0.0006811404655
4.467092316e-06
0.001061305198
0.000688748717
0.0008284669437
0.0004369264186
0.000463871801
0.0005105542117
-0.0006903471091
-0.0004375955376
-0.008974902736
-0.0006975234533
7.317644289e-05
-0.0004784815534
-0.0003134842712
-0.0003296317576
-0.0001068253788
-0.0003757355387
-7.114435823e-06
-0.0003971093098
0.0002968679035
-0.0005357802614
0.0003311860099
-0.0006950789348
0.0003806122115
-0.0009324390853
0.0004764911148
-0.001070580364
0.000547809799
-0.00117689255
0.00036059271
-0.0008015248631
0.0002671655342
-0.001055858432
0.0009090807082
-0.001160724851
0.0006548782064
-0.0008370018915
-0.0002521198306
-0.0006233640194
-0.000104662615
-0.0006411506727
-1.560970385e-05
-4.053027435e-05
-3.34763164e-07
-3.485935127e-05
-6.493329599e-06
-2.815495964e-05
-3.743383185e-06
3.056936647e-06
-2.329218674e-06
3.930302926e-05
-1.936987383e-06
0.0001004288588
-1.24632333e-05
0.0002996261112
-6.291478639e-05
-4.508064965e-05
-0.0001658937349
-0.0001906083646
-0.0004698412417
0.0001538661548
-0.0002548816719
0.0008209714689
-4.781810466e-05
0.0006298844054
0.0001191353914
0.002757279825
0.0003559399012
-0.0004800713476
-0.001697572354
-0.0089759524
-0.0004331169257
0.0004107620009
-0.0002333822309
-0.0001532772835
-0.0001978459843
2.093128889e-05
-0.000244040249
5.868589685e-05
-0.0002760035855
0.0001691545751
-0.0004269473949
0.000208695367
-0.0007550881966
0.0002824572636
-0.00137198862
0.0001532160309
-0.002177376211
-0.0003002682922
-0.0024462103
-0.0007431300363
-0.001136484656
-0.0007779942203
-0.001175963737
0.001137341413
-0.0005876686687
0.0005924888137
-0.0001604436942
-7.17992966e-05
-4.978666122e-05
-2.583975355e-05
-1.619026187e-05
-4.876467664e-06
-7.007688633e-06
-2.810655094e-06
-3.823025797e-06
-1.635175101e-06
-2.123297505e-06
-1.039083097e-06
-1.031264147e-06
-8.063357505e-07
-3.196188677e-07
-1.0231812e-06
1.206087338e-05
-2.98462357e-06
2.51761645e-05
-7.953922999e-06
2.801837102e-06
-2.574075187e-05
-0.0002687383301
-1.104442931e-05
5.425598971e-05
-0.0002629602026
0.0006703173584
-0.0006262991428
-0.0001545072909
-0.0003049095937
0.004264377568
-0.002491570461
-5.899392981e-05
-0.009421930187
-0.006225496989
-0.002474913576
-0.002913082793
-0.0003773442334
0.0002463692892
-0.0001633445117
0.0002124062495
-6.478804785e-05
0.0001036442217
2.018602092e-05
9.076347333e-05
6.542828594e-05
0.0001967517847
-0.0002103483567
0.000461159174
-0.0006666091542
0.0001866361428
-0.0009213711604
-1.475262463e-05
-0.0008300753732
-5.958689032e-05
-0.0005762131508
3.29536404e-05
-0.0003745539605
0.0006401794386
-0.0003768032658
0.0004902447755
-2.35434347e-05
0.0002841766077
-8.458854117e-06
-1.616805989e-06
-3.761711152e-06
-4.177513088e-07
-1.998327009e-06
-3.006862309e-07
-1.095101397e-06
-2.522120434e-07
-6.373646108e-07
-2.064037689e-07
-4.875187358e-07
-1.758572432e-07
-8.351706258e-07
1.743962373e-07
-9.801841974e-07
-8.51127555e-10
-1.879365254e-06
-1.574769346e-06
-2.92724821e-06
-1.15198809e-05
1.358277271e-06
-4.448527708e-06
0.0002400685826
-7.419408439e-05
0.000350505047
-0.0002247618363
-0.0002275320414
-3.661549351e-05
0.005231748972
-0.0003587177029
-0.0001352119018
-0.003453682269
-0.004840087722
-0.006758172926
-0.004796366361
-0.0008995108787
-0.004468650136
-0.0001724614571
0.0007097446042
-2.249318683e-05
0.0001716993498
-4.333292898e-05
8.59616749e-05
-0.001844807247
0.0009520450203
-0.002002972253
0.001313136458
-0.001921949772
0.001031503862
-0.001731855698
0.001098876117
-0.001150953149
0.001275316971
-7.186213917e-05
0.001149729487
0.0008609366461
0.0006572384348
0.001453699619
0.000878245816
-1.735977587e-06
0.0006289967122
-2.933455106e-06
1.841458089e-06
-1.969740016e-06
5.446269087e-07
-1.159841335e-06
2.863522172e-07
-4.614877448e-07
6.336734221e-09
-1.645637022e-07
-5.08532949e-08
-7.819325134e-08
-9.411679034e-08
-3.538510298e-10
1.804769631e-07
3.518429252e-10
1.506204412e-09
-6.476806132e-07
-9.74359264e-09
-7.40477532e-07
-5.644260262e-06
4.601989549e-07
-3.227458633e-06
4.991760482e-05
-1.682913614e-05
0.0001046117781
-3.490838362e-05
-0.0001471279294
-0.0003958059702
0.005959041341
-0.002906272417
-0.001272989945
-0.001811398912
-0.003062540714
-0.002103854176
-0.005639397923
-0.003414845891
-0.00664098791
-0.0001520420394
0.001028070122
-3.341764035e-05
0.0003876829508
-0.0002717172953
0.0001065163882
-0.001800514712
0.0009494071205
-0.002148812861
0.001421528232
-0.002161512552
0.001435140207
-0.001996211852
0.001740996123
-0.001333661364
0.0021421726
2.361558239e-06
0.001916418328
0.0006424943606
0.0004973183218
0.0005027198773