/*--------------------------------*- C++ -*----------------------------------*\
  =========                 |
  \\      /  F ield         | OpenFOAM: The Open Source CFD Toolbox
   \\    /   O peration     | Website:  https://openfoam.org
    \\  /    A nd           | Version:  8
     \\/     M anipulation  |
\*---------------------------------------------------------------------------*/
FoamFile
{
    version     2.0;
    format      ascii;
    class       volScalarField;
    location    "1.9/wallFilmRegion";
    object      sigma;
}
// * * * * * * * * * * * * * * * * * * * * * * * * * * * * * * * * * * * * * //

dimensions      [1 0 -2 0 0 0 0];

internalField   nonuniform List<scalar> 
1369
(
0.07244713456
0.07244713452
0.0724471345
0.07244713446
0.07244713441
0.07244713438
0.07244713436
0.07244713456
0.0724471345
0.07244713449
0.07244713447
0.07244713447
0.07244713446
0.07244713445
0.07244713444
0.07244713443
0.07244713443
0.07244713446
0.07244713455
0.07244713447
0.07244713446
0.07244713445
0.07244713447
0.0724471345
0.07244713452
0.07244713454
0.07244713457
0.0724471346
0.07244713464
0.07244713469
0.07244713473
0.07244713453
0.07244713445
0.07244713445
0.07244713445
0.07244713449
0.07244713454
0.0724471346
0.07244713466
0.07244713473
0.07244713478
0.07244713481
0.07244713472
0.07244713472
0.07244713474
0.07244713476
0.0724471348
0.07244713486
0.07244713451
0.07244713443
0.07244713442
0.07244713444
0.07244713452
0.07244713463
0.07244713478
0.07244713496
0.0724471351
0.0724471351
0.07244713505
0.07244713477
0.07244713472
0.07244713474
0.07244713476
0.07244713478
0.07244713481
0.07244713485
0.07244713497
0.07244713449
0.07244713441
0.07244713438
0.07244713442
0.07244713456
0.0724471348
0.07244713512
0.07244713539
0.07244713549
0.07244713535
0.07244713526
0.07244713486
0.07244713474
0.07244713475
0.07244713476
0.07244713477
0.07244713482
0.07244713491
0.072447135
0.07244713501
0.07244713519
0.07244713537
0.0724471355
0.07244713447
0.07244713437
0.07244713431
0.07244713439
0.07244713464
0.07244713502
0.07244713541
0.07244713564
0.07244713565
0.07244713537
0.07244713528
0.07244713495
0.07244713476
0.07244713475
0.07244713476
0.0724471348
0.07244713488
0.07244713494
0.07244713496
0.072447135
0.07244713518
0.07244713539
0.07244713548
0.07244713538
0.0724471354
0.07244713446
0.07244713437
0.07244713442
0.07244713438
0.07244713426
0.07244713427
0.07244713454
0.0724471348
0.07244713489
0.07244713472
0.0724471348
0.07244713487
0.07244713487
0.07244713474
0.0724471348
0.07244713489
0.07244713494
0.07244713496
0.07244713496
0.07244713497
0.07244713518
0.07244713538
0.07244713544
0.07244713542
0.07244713544
0.07244713547
0.07244713446
0.07244713424
0.07244713451
0.0724471347
0.07244713471
0.0724471347
0.07244713478
0.07244713511
0.07244713521
0.07244713474
0.07244713487
0.072447135
0.07244713506
0.07244713483
0.07244713489
0.07244713494
0.07244713495
0.07244713494
0.0724471349
0.07244713487
0.0724471352
0.07244713528
0.07244713536
0.07244713539
0.07244713544
0.07244713545
0.07244713445
0.07244713426
0.07244713419
0.07244713448
0.07244713465
0.07244713471
0.07244713475
0.07244713481
0.07244713467
0.07244713475
0.07244713491
0.07244713506
0.07244713512
0.07244713496
0.07244713497
0.07244713492
0.07244713489
0.07244713482
0.07244713466
0.07244713442
0.07244713504
0.07244713511
0.07244713511
0.07244713536
0.07244713552
0.07244713558
0.07244713561
0.07244713443
0.07244713428
0.07244713421
0.07244713449
0.07244713462
0.07244713477
0.07244713505
0.07244713529
0.07244713468
0.07244713472
0.0724471348
0.07244713489
0.07244713486
0.07244713487
0.07244713494
0.07244713495
0.07244713493
0.07244713493
0.07244713502
0.07244713522
0.07244713543
0.07244713547
0.07244713535
0.07244713549
0.07244713553
0.07244713562
0.07244713572
0.07244713441
0.0724471343
0.07244713433
0.07244713461
0.07244713463
0.07244713461
0.0724471349
0.07244713461
0.07244713467
0.07244713473
0.07244713475
0.07244713475
0.07244713461
0.07244713474
0.07244713487
0.07244713495
0.07244713495
0.07244713497
0.07244713505
0.07244713521
0.07244713539
0.0724471355
0.07244713551
0.07244713544
0.07244713538
0.07244713548
0.07244713569
0.0724471344
0.07244713429
0.07244713448
0.07244713468
0.07244713466
0.07244713518
0.07244713619
0.07244713468
0.07244713473
0.07244713476
0.07244713478
0.07244713477
0.07244713449
0.07244713461
0.07244713477
0.07244713495
0.07244713495
0.07244713497
0.07244713505
0.07244713519
0.07244713536
0.07244713545
0.07244713559
0.07244713547
0.0724471354
0.07244713547
0.07244713554
0.0724471357
0.07244713438
0.07244713427
0.07244713443
0.07244713456
0.07244713456
0.07244713463
0.07244713469
0.07244713474
0.07244713477
0.07244713479
0.07244713479
0.07244713479
0.0724471346
0.07244713463
0.07244713466
0.07244713483
0.07244713496
0.07244713493
0.072447135
0.07244713511
0.07244713515
0.0724471352
0.07244713553
0.07244713554
0.07244713546
0.07244713544
0.07244713545
0.07244713556
0.07244713543
0.07244713438
0.07244713419
0.07244713425
0.0724471345
0.07244713462
0.0724471347
0.07244713475
0.07244713478
0.07244713479
0.0724471348
0.0724471348
0.0724471348
0.07244713471
0.07244713474
0.07244713471
0.07244713467
0.07244713487
0.07244713487
0.0724471349
0.07244713503
0.07244713494
0.07244713504
0.07244713546
0.07244713559
0.07244713543
0.07244713533
0.07244713538
0.07244713547
0.07244713551
0.07244713437
0.07244713412
0.07244713411
0.07244713391
0.07244713389
0.0724471342
0.0724471345
0.07244713466
0.07244713473
0.07244713476
0.07244713477
0.07244713473
0.07244712736
0.07244712897
0.07244713322
0.07244713368
0.07244713418
0.0724471346
0.07244713478
0.072447135
0.07244713487
0.07244713495
0.07244713538
0.07244713547
0.07244713545
0.07244713544
0.07244713535
0.07244713548
0.0724471355
0.07244713439
0.07244713416
0.07244713341
0.07244713273
0.07244713297
0.07244713374
0.07244713429
0.07244713455
0.07244713467
0.07244713473
0.07244713475
0.07244713471
0.07244691986
0.07244663254
0.07244703904
0.07244711894
0.07244713301
0.07244713467
0.07244713503
0.07244713509
0.07244713497
0.07244713493
0.07244713518
0.07244713553
0.07244713553
0.0724471355
0.07244713546
0.07244713553
0.07244713547
0.07244713555
0.0724471355
0.07244713564
0.07244713581
0.07244713583
0.0724471344
0.07244713417
0.07244713378
0.0724471333
0.07244713298
0.07244713321
0.07244713389
0.07244713436
0.07244713458
0.07244713468
0.07244713471
0.07244713467
0.07244712133
0.07244712545
0.07244713266
0.07244713416
0.07244713469
0.07244713508
0.07244713511
0.07244713511
0.07244713527
0.07244713508
0.07244713522
0.07244713548
0.07244713559
0.07244713556
0.07244713543
0.07244713562
0.07244713571
0.07244713575
0.07244713571
0.07244713587
0.07244713603
0.07244713609
0.07244713442
0.07244713417
0.07244713403
0.07244713377
0.07244713349
0.07244713328
0.0724471335
0.07244713404
0.07244713442
0.07244713459
0.07244713465
0.0724471346
0.07244712942
0.07244713118
0.07244713321
0.07244713424
0.07244713484
0.07244713508
0.0724471351
0.07244713512
0.07244713537
0.07244713548
0.07244713558
0.07244713565
0.07244713568
0.07244713564
0.07244713557
0.07244713577
0.0724471359
0.07244713594
0.07244713592
0.07244713586
0.07244713593
0.07244713604
0.07244713444
0.07244713418
0.07244713422
0.07244713419
0.07244713412
0.072447134
0.07244713386
0.07244713387
0.07244713416
0.07244713442
0.07244713454
0.07244713448
0.0724471322
0.07244713304
0.07244713383
0.07244713441
0.07244713496
0.07244713505
0.07244713505
0.07244713512
0.0724471353
0.0724471354
0.07244713551
0.07244713561
0.07244713568
0.07244713571
0.07244713572
0.07244713587
0.07244713595
0.07244713585
0.07244713582
0.07244713568
0.07244713567
0.07244713445
0.07244713419
0.07244713435
0.07244713445
0.07244713449
0.07244713451
0.07244713451
0.07244713449
0.07244713442
0.07244713437
0.07244713447
0.07244713465
0.07244713482
0.07244713488
0.07244713491
0.07244713492
0.07244713491
0.07244713488
0.07244713481
0.07244713461
0.07244713501
0.07244713511
0.07244713522
0.07244713539
0.07244713567
0.07244713573
0.0724471358
0.07244713588
0.07244713587
0.07244713573
0.07244713544
0.07244713531
0.07244713447
0.07244713414
0.07244713428
0.07244713443
0.07244713448
0.07244713453
0.07244713456
0.07244713459
0.0724471346
0.07244713458
0.07244713456
0.07244713467
0.07244713479
0.07244713488
0.07244713494
0.07244713497
0.072447135
0.072447135
0.07244713499
0.072447135
0.07244713512
0.07244713517
0.0724471353
0.0724471355
0.07244713569
0.07244713563
0.07244713579
0.07244713577
0.07244713567
0.07244713538
0.07244713511
0.07244713507
0.07244713446
0.07244713427
0.07244713434
0.07244713439
0.07244713445
0.07244713451
0.07244713455
0.07244713459
0.07244713463
0.07244713466
0.07244713471
0.07244713479
0.07244713484
0.0724471349
0.07244713494
0.072447135
0.07244713507
0.07244713511
0.07244713512
0.07244713509
0.0724471352
0.07244713521
0.07244713528
0.0724471354
0.07244713558
0.07244713541
0.07244713562
0.0724471356
0.07244713549
0.07244713521
0.072447135
0.07244713494
0.07244713447
0.07244713442
0.07244713432
0.0724471342
0.07244713432
0.07244713445
0.07244713453
0.07244713459
0.07244713464
0.07244713468
0.07244713475
0.07244713481
0.07244713483
0.07244713487
0.07244713492
0.07244713501
0.07244713507
0.07244713513
0.07244713518
0.07244713514
0.07244713527
0.07244713527
0.07244713528
0.07244713535
0.07244713545
0.07244713538
0.07244713552
0.07244713554
0.07244713549
0.07244713524
0.07244713502
0.07244713448
0.07244713438
0.07244713411
0.0724471341
0.07244713427
0.07244713445
0.07244713457
0.07244713464
0.07244713471
0.07244713477
0.07244713481
0.07244713482
0.07244713483
0.07244713481
0.07244713478
0.07244713484
0.072447135
0.07244713501
0.07244713497
0.07244713536
0.07244713545
0.07244713519
0.07244713527
0.07244713534
0.07244713539
0.0724471354
0.07244713547
0.0724471355
0.07244713547
0.07244713528
0.07244713504
0.07244713447
0.07244713426
0.07244713392
0.07244713398
0.07244713421
0.07244713442
0.07244713456
0.07244713464
0.07244713469
0.07244713475
0.07244713479
0.07244713481
0.07244713476
0.07244713471
0.07244713458
0.07244713459
0.07244713491
0.07244713503
0.07244713512
0.07244713528
0.07244713543
0.07244713548
0.07244713549
0.07244713549
0.07244713547
0.07244713551
0.07244713556
0.07244713553
0.07244713532
0.07244713528
0.07244713515
0.07244713447
0.07244713443
0.07244713394
0.07244713367
0.07244713389
0.07244713421
0.07244713445
0.07244713453
0.07244713462
0.07244713471
0.07244713476
0.0724471348
0.07244713467
0.07244713462
0.07244713451
0.07244713443
0.07244713472
0.07244713514
0.07244713525
0.07244713537
0.07244713559
0.0724471356
0.07244713558
0.07244713554
0.07244713552
0.07244713558
0.0724471356
0.0724471357
0.07244713554
0.07244713541
0.07244713535
0.07244713449
0.0724471345
0.07244713448
0.07244713427
0.07244713444
0.07244713448
0.07244713449
0.07244713443
0.0724471345
0.07244713463
0.07244713471
0.07244713476
0.07244713463
0.07244713463
0.07244713467
0.07244713495
0.07244713531
0.07244713535
0.07244713539
0.07244713541
0.07244713564
0.07244713561
0.07244713554
0.07244713547
0.07244713555
0.07244713564
0.07244713546
0.07244713566
0.07244713571
0.07244713563
0.07244713571
0.07244713455
0.07244713453
0.07244713448
0.07244713447
0.07244713452
0.07244713451
0.07244713443
0.07244713433
0.07244713435
0.07244713453
0.07244713463
0.0724471347
0.07244713467
0.07244713475
0.07244713493
0.07244713527
0.07244713552
0.07244713549
0.07244713545
0.07244713544
0.07244713551
0.07244713558
0.07244713564
0.07244713565
0.07244713571
0.07244713574
0.07244713529
0.07244713555
0.07244713583
0.0724471358
0.07244713586
0.07244713465
0.07244713461
0.07244713447
0.07244713455
0.07244713458
0.07244713449
0.07244713429
0.07244713417
0.07244713421
0.07244713445
0.0724471346
0.07244713472
0.07244713484
0.07244713496
0.07244713519
0.0724471354
0.07244713555
0.07244713528
0.07244713517
0.07244713536
0.07244713447
0.07244713445
0.0724471347
0.07244713536
0.07244713565
0.07244713551
0.07244713517
0.07244713555
0.07244713608
0.07244713599
0.07244713579
0.07244713477
0.07244713466
0.07244713446
0.07244713451
0.07244713459
0.07244713438
0.07244713409
0.07244713396
0.0724471341
0.07244713441
0.07244713466
0.07244713484
0.07244713496
0.07244713508
0.07244713549
0.07244713576
0.07244713589
0.07244713495
0.07244713399
0.07244713155
0.0724471279
0.07244712283
0.07244711813
0.0724471194
0.07244713321
0.07244713404
0.07244713426
0.0724471355
0.07244713565
0.07244713552
0.0724471358
0.0724471348
0.07244713462
0.07244713445
0.07244713452
0.07244713468
0.07244713469
0.0724471345
0.0724471341
0.07244713429
0.07244713437
0.07244713456
0.07244713481
0.07244713488
0.07244713502
0.07244713564
0.0724471361
0.07244713637
0.07244713372
0.07244713002
0.07244712428
0.07244711497
0.07244710097
0.07244709138
0.07244711522
0.07244712589
0.07244712723
0.07244713069
0.07244712922
0.07244713498
0.07244713508
0.07244713554
0.07244713476
0.07244713453
0.07244713441
0.07244713445
0.07244713451
0.07244713475
0.07244713463
0.07244713429
0.07244713455
0.07244713466
0.07244713478
0.07244713481
0.07244713482
0.07244713482
0.07244713507
0.07244713532
0.07244713586
0.07244712599
0.07244711395
0.07244710423
0.07244708702
0.07244704307
0.07244698542
0.07244703383
0.07244664499
0.07244711176
0.07244712774
0.07244712119
0.07244713454
0.07244713477
0.07244713547
0.07244713471
0.07244713442
0.07244713439
0.07244713441
0.07244713446
0.07244713458
0.07244713466
0.07244713426
0.0724471345
0.07244713467
0.07244713478
0.07244713481
0.07244713482
0.07244713483
0.0724471351
0.07244713553
0.07244713573
0.07244712283
0.07244710198
0.07244707625
0.07244700693
0.07244693703
0.07244693244
0.07244699016
0.07244675586
0.07244672969
0.07244712521
0.07244711824
0.07244713315
0.07244713383
0.07244713532
0.07244713464
0.07244713437
0.07244713437
0.07244713439
0.07244713442
0.0724471345
0.07244713466
0.07244713425
0.07244713447
0.07244713468
0.07244713481
0.07244713484
0.07244713484
0.07244713485
0.07244713531
0.07244713559
0.07244713526
0.07244713124
0.07244712991
0.07244712911
0.07244712682
0.0724471202
0.07244712499
0.07244713373
0.07244713417
0.07244713181
0.07244712474
0.07244711593
0.07244711661
0.07244713032
0.07244713491
0.07244713459
0.07244713436
0.07244713436
0.07244713438
0.0724471344
0.07244713446
0.0724471346
0.07244713451
0.07244713466
0.07244713486
0.07244713497
0.07244713497
0.07244713493
0.07244713493
0.0724471357
0.07244713591
0.07244713593
0.07244713587
0.07244713573
0.07244713536
0.07244713483
0.07244713454
0.07244713451
0.07244713453
0.07244713457
0.07244713445
0.07244712858
0.07244713092
0.07244713246
0.07244713413
0.07244713493
0.07244713455
0.07244713437
0.07244713437
0.07244713438
0.07244713439
0.0724471344
0.07244713453
0.07244713458
0.07244713498
0.07244713514
0.07244713526
0.07244713528
0.07244713521
0.07244713522
0.07244713608
0.07244713619
0.07244713621
0.07244713615
0.072447136
0.0724471357
0.07244713515
0.07244713471
0.07244713463
0.07244713465
0.07244713467
0.07244713462
0.0724471323
0.07244713299
0.07244713359
0.07244713415
0.07244713447
0.07244713453
0.0724471344
0.07244713438
0.07244713439
0.07244713439
0.07244713438
0.07244713442
0.07244713453
0.07244713505
0.07244713525
0.07244713541
0.07244713554
0.07244713558
0.07244713565
0.07244713603
0.07244713609
0.07244713609
0.07244713603
0.07244713588
0.07244713559
0.07244713511
0.07244713474
0.07244713467
0.07244713468
0.07244713468
0.07244713466
0.07244713386
0.07244713412
0.07244713443
0.07244713473
0.0724471349
0.07244713451
0.07244713443
0.0724471344
0.07244713441
0.0724471344
0.07244713438
0.07244713439
0.07244713448
0.07244713494
0.0724471352
0.07244713537
0.07244713552
0.07244713565
0.07244713576
0.07244713587
0.0724471359
0.0724471359
0.07244713582
0.07244713564
0.07244713531
0.0724471349
0.07244713468
0.07244713466
0.07244713467
0.07244713468
0.07244713465
0.07244713443
0.07244713454
0.07244713469
0.07244713482
0.0724471349
0.0724471345
0.07244713444
0.07244713443
0.07244713442
0.07244713441
0.07244713439
0.07244713438
0.0724471344
0.07244713453
0.07244713473
0.07244713517
0.07244713532
0.07244713545
0.07244713556
0.07244713562
0.07244713565
0.07244713563
0.07244713551
0.07244713526
0.07244713488
0.07244713464
0.07244713462
0.07244713465
0.07244713466
0.07244713466
0.07244713463
0.07244713458
0.07244713462
0.07244713469
0.07244713474
0.07244713473
0.0724471345
0.07244713446
0.07244713444
0.07244713444
0.07244713442
0.0724471344
0.07244713438
0.07244713438
0.0724471344
0.07244713451
0.07244713498
0.07244713509
0.07244713517
0.07244713523
0.07244713525
0.07244713525
0.07244713517
0.07244713498
0.07244713467
0.07244713451
0.07244713455
0.07244713461
0.07244713465
0.07244713466
0.07244713463
0.07244713459
0.0724471346
0.07244713462
0.07244713465
0.07244713466
0.0724471346
0.0724471345
0.07244713447
0.07244713446
0.07244713445
0.07244713443
0.07244713441
0.07244713438
0.07244713437
0.07244713438
0.07244713447
0.07244713487
0.07244713493
0.07244713494
0.07244713492
0.07244713486
0.07244713476
0.0724471346
0.07244713441
0.07244713434
0.07244713447
0.07244713458
0.07244713464
0.07244713466
0.07244713465
0.07244713459
0.07244713451
0.07244713455
0.07244713458
0.07244713463
0.07244713467
0.07244713471
0.0724471345
0.07244713448
0.07244713447
0.07244713446
0.07244713444
0.07244713441
0.07244713438
0.07244713436
0.07244713437
0.07244713447
0.07244713479
0.07244713487
0.07244713484
0.07244713476
0.07244713463
0.07244713443
0.07244713423
0.07244713421
0.07244713438
0.07244713454
0.07244713462
0.07244713466
0.07244713466
0.07244713464
0.07244713454
0.0724471344
0.07244713445
0.07244713451
0.0724471346
0.07244713468
0.07244713471
0.0724471345
0.07244713448
0.07244713448
0.07244713447
0.07244713444
0.0724471344
0.07244713437
0.07244713435
0.07244713436
0.07244713443
0.07244713465
0.07244713485
0.07244713479
0.07244713468
0.07244713452
0.07244713429
0.07244713418
0.07244713432
0.07244713452
0.07244713461
0.07244713465
0.07244713467
0.07244713467
0.07244713463
0.07244713448
0.07244713423
0.07244713429
0.0724471344
0.07244713454
0.07244713465
0.07244713471
0.0724471345
0.07244713449
0.07244713449
0.07244713447
0.07244713443
0.0724471344
0.07244713436
0.07244713434
0.07244713436
0.07244713441
0.07244713456
0.07244713483
0.07244713475
0.07244713462
0.07244713445
0.0724471343
0.07244713439
0.07244713455
0.07244713462
0.07244713465
0.07244713468
0.07244713469
0.07244713468
0.07244713463
0.07244713442
0.07244713402
0.07244713407
0.07244713422
0.07244713442
0.07244713458
0.07244713467
0.07244713449
0.0724471345
0.0724471345
0.07244713448
0.07244713445
0.07244713442
0.07244713439
0.07244713437
0.07244713441
0.07244713443
0.07244713458
0.07244713478
0.07244713468
0.07244713458
0.07244713455
0.07244713456
0.07244713459
0.07244713462
0.07244713465
0.07244713467
0.07244713469
0.07244713469
0.07244713469
0.07244713464
0.07244713432
0.07244713379
0.07244713382
0.07244713399
0.07244713422
0.07244713446
0.07244713462
0.07244713449
0.07244713451
0.07244713452
0.0724471345
0.07244713449
0.07244713448
0.07244713448
0.07244713448
0.0724471345
0.07244713453
0.07244713457
0.07244713459
0.07244713458
0.07244713458
0.07244713459
0.0724471346
0.07244713462
0.07244713464
0.07244713466
0.07244713468
0.07244713469
0.0724471347
0.0724471347
0.07244713465
0.07244713417
0.07244713359
0.0724471338
0.07244713397
0.07244713444
0.07244713456
0.0724471346
0.07244713446
0.07244713453
0.07244713454
0.07244713454
0.07244713454
0.07244713454
0.07244713454
0.07244713454
0.07244713455
0.07244713455
0.07244713455
0.07244713455
0.07244713455
0.07244713456
0.07244713457
0.07244713459
0.07244713462
0.07244713465
0.07244713467
0.07244713469
0.0724471347
0.07244713471
0.07244713471
0.07244713468
0.0724471339
0.07244710442
0.07244713451
0.07244713468
0.07244713472
0.07244713472
0.07244713472
)
;

boundaryField
{
    walls
    {
        type            zeroGradient;
    }
    wallFilmFace_top
    {
        type            zeroGradient;
    }
    region0_to_wallFilmRegion_wallFilmFace
    {
        type            zeroGradient;
    }
    mirrorFace_top
    {
        type            zeroGradient;
    }
    region0_to_wallFilmRegion_mirrorFace
    {
        type            zeroGradient;
    }
    procBoundary1to0
    {
        type            processor;
        value           nonuniform List<scalar> 
52
(
0.07244713454
0.07244713443
0.07244713438
0.07244713435
0.07244713434
0.07244713434
0.07244713433
0.07244713435
0.07244713435
0.07244713433
0.07244713432
0.07244713432
0.07244713457
0.07244713457
0.07244713476
0.07244713475
0.07244713475
0.07244713479
0.07244713485
0.07244713493
0.07244713485
0.07244713485
0.07244677333
0.07244713501
0.07244713501
0.07244713514
0.07244713529
0.07244713546
0.07244713531
0.07244713531
0.07244713529
0.07244713535
0.07244713535
0.07244713548
0.07244713551
0.07244713551
0.07244713592
0.0724471359
0.07244713579
0.07244713579
0.07244713541
0.07244713541
0.07244713552
0.07244713555
0.07244713532
0.07244713532
0.07244713529
0.07244713534
0.0724471357
0.07244713561
0.07244713566
0.07244713588
)
;
    }
    procBoundary1to2
    {
        type            processor;
        value           nonuniform List<scalar> 
33
(
0.07244713587
0.07244713571
0.07244713571
0.07244713545
0.07244713545
0.07244713523
0.07244713496
0.07244713498
0.07244713498
0.07244713514
0.07244713516
0.0724471354
0.07244713567
0.07244713582
0.07244713565
0.07244713562
0.07244713581
0.07244713578
0.0724471357
0.07244713564
0.07244713513
0.0724471346
0.07244713492
0.0724471349
0.07244713414
0.07244713446
0.07244713478
0.07244713451
0.07244713465
0.07244713453
0.07244713456
0.07244713459
0.07244713471
)
;
    }
}


// ************************************************************************* //
