/*--------------------------------*- C++ -*----------------------------------*\
  =========                 |
  \\      /  F ield         | OpenFOAM: The Open Source CFD Toolbox
   \\    /   O peration     | Website:  https://openfoam.org
    \\  /    A nd           | Version:  8
     \\/     M anipulation  |
\*---------------------------------------------------------------------------*/
FoamFile
{
    version     2.0;
    format      ascii;
    class       volVectorField;
    location    "1.9/wallFilmRegion";
    object      U;
}
// * * * * * * * * * * * * * * * * * * * * * * * * * * * * * * * * * * * * * //

dimensions      [0 1 -1 0 0 0 0];

internalField   nonuniform List<vector> 
1369
(
(-0.2619664346 -0.3402370401 0)
(-0.3068666275 -0.3900561803 0)
(-0.1399539144 -0.7928806843 0)
(-0.02885196389 -0.6335601765 0)
(0.05857425275 -0.44873528 0)
(0.087746261 -0.3248921288 0)
(0.09986353034 -0.2364668352 0)
(-0.2907273889 -0.3690675933 0)
(-0.6188219741 -0.3695346426 0)
(-0.6929716978 -1.024323281 0)
(-0.695396121 -0.9088758927 0)
(-0.6521895678 -0.8258566909 0)
(-0.5753110592 -0.7460795682 0)
(-0.4910227056 -0.6815979783 0)
(-0.3967959958 -0.6188745063 0)
(-0.2913665678 -0.5467444326 0)
(-0.1948852067 -0.4685854265 0)
(-0.2126751891 -0.4162703141 0)
(-0.2819818151 -0.391004823 0)
(-0.5248818044 -0.513444265 0)
(-0.5877954863 -1.115454226 0)
(-0.6147281727 -1.001391186 0)
(-0.6226713467 -0.9284646533 0)
(-0.6141254487 -0.874106405 0)
(-0.5859251008 -0.8781888352 0)
(-0.5678947638 -0.872957745 0)
(-0.5682166534 -0.8664756224 0)
(-0.5980997523 -0.8724771239 0)
(-0.6748768708 -0.9008280324 0)
(-0.8236594255 -0.9451446744 0)
(-0.895177499 -0.8534671276 0)
(-0.2521719072 -0.4213500314 0)
(-0.446905298 -0.7053749492 0)
(-0.5248166143 -1.164880007 0)
(-0.5798713054 -1.079341979 0)
(-0.619523203 -1.0376174 0)
(-0.6587367841 -1.016422248 0)
(-0.6478682189 -1.049776135 0)
(-0.6497679568 -1.070736033 0)
(-0.6617985925 -1.075747865 0)
(-0.6832630636 -1.075153499 0)
(-0.7102176959 -1.069028278 0)
(-0.7342238903 -1.020413639 0)
(-0.72058416 -0.8742045017 0)
(-0.7141588011 -0.723219549 0)
(-0.7230391188 -0.558073307 0)
(-0.7443032324 -0.3341380891 0)
(-0.9106023365 -0.1821929908 0)
(-0.2205662808 -0.4649077731 0)
(-0.3595526482 -0.832025563 0)
(-0.4541619718 -1.225702359 0)
(-0.5278415062 -1.175534313 0)
(-0.5788232263 -1.171763438 0)
(-0.6257973392 -1.180169262 0)
(-0.6650156086 -1.166713282 0)
(-0.6424082884 -1.157101575 0)
(-0.6285515271 -1.107749335 0)
(-0.6076593879 -1.073768926 0)
(-0.5894301902 -1.043186 0)
(-0.5697574143 -1.028709907 0)
(-0.573737592 -0.9134881512 0)
(-0.5884383284 -0.768775454 0)
(-0.6333617126 -0.617768658 0)
(-0.7463768284 -0.4572513285 0)
(-0.8679753089 -0.2895341236 0)
(-1.000987111 -0.2020873706 0)
(-0.3632476263 0.1602369879 0)
(-0.1961530032 -0.5190165476 0)
(-0.2611215344 -0.8861503346 0)
(-0.3624672774 -1.281329096 0)
(-0.4421117988 -1.258529126 0)
(-0.4856567038 -1.260646546 0)
(-0.5258906507 -1.235587244 0)
(-0.5579474847 -1.140158057 0)
(-0.5705346487 -1.010190062 0)
(-0.5554553444 -0.9583349544 0)
(-0.5169590797 -0.9704901272 0)
(-0.4923791966 -0.9642195506 0)
(-0.4369828503 -1.046041064 0)
(-0.4619660743 -0.9990276292 0)
(-0.5207006783 -0.8823396202 0)
(-0.6187546321 -0.7502434212 0)
(-0.6892173331 -0.5874830529 0)
(-0.7363546541 -0.4195917168 0)
(-0.6504852768 -0.2224645549 0)
(-0.398926656 0.1524396021 0)
(-0.4571621921 0.08952581898 0)
(-0.1945838208 -0.02515151222 0)
(-0.1662835053 -0.02114241068 0)
(-0.2232793384 -0.003772473082 0)
(-0.1782131258 -0.5518639321 0)
(-0.1435548225 -0.7942823226 0)
(-0.2358563557 -1.292368572 0)
(-0.3317011509 -1.297550962 0)
(-0.3641520553 -1.264895007 0)
(-0.4264839651 -1.171356187 0)
(-0.4854899578 -1.013636481 0)
(-0.5187682667 -0.8822911977 0)
(-0.4856826792 -0.8677857761 0)
(-0.4187010753 -0.944707786 0)
(-0.3997940119 -0.9676497223 0)
(-0.3569905112 -1.079761661 0)
(-0.3878210753 -1.130815587 0)
(-0.4742997252 -1.038899795 0)
(-0.5133992152 -0.8854438056 0)
(-0.5262913585 -0.6956794488 0)
(-0.5288421728 -0.5194518494 0)
(-0.5881407078 -0.3477016173 0)
(-0.6489429799 -0.06844513582 0)
(-0.7172318811 0.09579290367 0)
(-0.2521235038 0.02177499598 0)
(-0.1598066691 -0.01754815595 0)
(-0.1630910436 -0.04441880511 0)
(-0.03007000334 -0.095900255 0)
(-0.04554526917 -0.09785681932 0)
(-0.1615314917 -0.5427315129 0)
(0.08247989378 -0.5519003781 0)
(0.2168191117 -0.9950483011 0)
(0.2972753265 -1.161068165 0)
(0.1880226523 -1.217895146 0)
(0.03939358216 -1.240208544 0)
(-0.0539725916 -1.173903251 0)
(-0.1002563029 -1.044823432 0)
(-0.1501324491 -0.96957936 0)
(-0.1559058007 -1.024570723 0)
(-0.218248135 -1.008533254 0)
(-0.2290351981 -1.039569793 0)
(-0.2181648322 -1.129631047 0)
(-0.3083094343 -1.217940176 0)
(-0.2987499923 -0.9353270454 0)
(-0.321017672 -0.7126477191 0)
(-0.4293225917 -0.6293480119 0)
(-0.6355238866 -0.5721104628 0)
(-0.846575251 -0.3725047788 0)
(-1.000406397 -0.05239673593 0)
(-0.2767193515 0.09354741578 0)
(-0.1404473099 0.0002799638944 0)
(-0.0997331331 -0.09153616424 0)
(-0.006135035734 -0.157090051 0)
(0.003218676654 -0.1252579353 0)
(0.02641276943 -0.1151865314 0)
(-0.1714527895 -0.5864105481 0)
(-0.2278878016 0.6001875273 0)
(-0.137007265 -0.4036911325 0)
(0.03152743 -0.6236400897 0)
(0.1006839657 -0.6374628023 0)
(0.1515238666 -0.6650787839 0)
(0.1212387494 -0.6985125239 0)
(-0.1264956243 -0.6522912843 0)
(-0.2755629003 -0.5919207599 0)
(-0.3170330483 -0.5894142846 0)
(-0.3850864359 -0.6359090236 0)
(-0.3167750922 -0.6484108429 0)
(-0.1491934181 -0.6733109472 0)
(0.3011353745 -0.9302148232 0)
(0.1225450002 -0.7899937752 0)
(-0.1260275841 -0.7771023969 0)
(-0.3405209234 -0.8504492535 0)
(-0.5871872335 -0.8686151092 0)
(-0.8463615502 -0.7298040307 0)
(-0.8942988945 -0.3465108846 0)
(-0.153055721 0.3251099792 0)
(-0.144101522 0.2755259135 0)
(-0.08706669649 0.05538636775 0)
(0.01407770771 -0.1194745289 0)
(-0.009654535737 -0.09682233905 0)
(0.04605855445 -0.04220636277 0)
(-0.161632272 -0.6077611224 0)
(-0.188429472 0.6229517096 0)
(-0.1783691804 0.1192482256 0)
(-0.2111773084 -0.4698540029 0)
(-0.1838406604 -0.4343498102 0)
(-0.1438381011 -0.4383825349 0)
(-0.1157305575 -0.4686004366 0)
(-0.163420232 -0.4891679639 0)
(-0.2066795288 -0.5006508728 0)
(-0.5094229186 -0.5655042103 0)
(-0.6642762837 -0.572093284 0)
(-0.5068258704 -0.5181775854 0)
(-0.2585124536 -0.4866450607 0)
(-0.05635614999 -0.5820158288 0)
(0.120482786 -0.896811168 0)
(0.08745076087 -1.249024581 0)
(-0.0823642067 -1.388234448 0)
(-0.2395969901 -1.28963632 0)
(-0.3602047398 -0.9666853051 0)
(-0.3770104353 -0.5098507528 0)
(-0.1968338207 0.5619273698 0)
(-0.2141177713 0.7140688413 0)
(-0.2407369535 0.8638984691 0)
(-0.09143123937 0.433509888 0)
(0.02364867223 0.1060656566 0)
(0.08925503943 -0.03465142727 0)
(0.1039553879 -0.04902318675 0)
(-0.1482738976 -0.6169460267 0)
(-0.1470192453 0.6336225393 0)
(-0.08541604118 0.3406799658 0)
(-0.2035315183 -0.622769777 0)
(-0.3017143323 -0.6617871269 0)
(-0.3641997491 -0.6751098134 0)
(-0.4006960839 -0.675361892 0)
(-0.4311008151 -0.6291574692 0)
(-0.5399552439 -0.6030231295 0)
(-0.8709236332 -0.7311138321 0)
(-1.095303328 -0.7028644026 0)
(-0.8628660411 -0.5357153236 0)
(-0.4061367652 -0.3442592228 0)
(-0.3455619862 -0.4209371571 0)
(-0.01996431449 -0.6631704587 0)
(0.2901327784 -0.9898991089 0)
(0.3744401671 -1.06726541 0)
(0.4632205799 -0.8470322046 0)
(0.5425971231 -0.4858662305 0)
(0.4155198711 -0.2666439906 0)
(0.07325760544 -0.190747646 0)
(-0.02596479762 -0.1561898876 0)
(-0.1769580955 -0.05278443492 0)
(-0.01711229305 0.008083403889 0)
(0.06833200744 0.03106848216 0)
(0.09958767474 -0.0340191405 0)
(0.03608196049 -0.1035899785 0)
(-0.1318597641 -0.6092768549 0)
(-0.1131136584 0.6267599303 0)
(-0.06688972438 0.07381331764 0)
(-0.197265455 -0.7151626374 0)
(-0.3722150987 -0.8526570686 0)
(-0.5402242806 -0.9586839899 0)
(-0.7849918709 -0.9880226622 0)
(-0.7814016509 -1.096835122 0)
(-1.005461669 -1.120980484 0)
(-1.129121942 -1.043434334 0)
(-1.186369922 -0.8947037756 0)
(-1.173787995 -0.7188886286 0)
(-0.6050578244 -0.1247718268 0)
(-0.461155947 -0.1514561754 0)
(-0.03097952345 -0.4345840713 0)
(0.4091420958 -0.7739426909 0)
(0.5971344179 -0.8384460652 0)
(0.7110159362 -0.6762562039 0)
(0.75475537 -0.4122357743 0)
(0.5671395148 -0.2454364328 0)
(0.1622022151 -0.1188117919 0)
(0.1726903091 -0.1051315725 0)
(0.1425056802 -0.06140455483 0)
(-0.02323528872 -0.05732102542 0)
(-0.003432087285 0.06468938489 0)
(0.03155811371 0.0858425679 0)
(0.1650591725 -0.05238018429 0)
(-0.1114370207 -0.5823453095 0)
(-0.08954823383 0.5987211564 0)
(-0.0768885634 -0.2252630089 0)
(-0.2109346451 -0.7735720892 0)
(-0.4129921766 -1.076906594 0)
(-0.5183983516 -1.354309771 0)
(-0.4214838257 -0.8445976372 0)
(-0.7387849422 -1.23295135 0)
(-0.7959129975 -1.320216297 0)
(-0.8319744141 -1.146818949 0)
(-0.8513651873 -0.9661391582 0)
(-0.8547617194 -0.7809678882 0)
(-0.4774964208 0.2531959848 0)
(-0.485351954 0.1861926531 0)
(-0.2852874754 -0.0678160872 0)
(0.3159776872 -0.5193078074 0)
(0.6814613541 -0.6644313985 0)
(0.8178135725 -0.5619932653 0)
(0.8597943317 -0.3613696546 0)
(0.6696901371 -0.2286849924 0)
(0.1535971564 -0.09489917847 0)
(0.145188217 -0.06592449439 0)
(0.245629366 -0.01014383352 0)
(0.03455036172 0.05529368212 0)
(0.04657012467 0.06514544917 0)
(0.06481950411 0.0705106804 0)
(0.1504036653 0.01833997022 0)
(0.2212023068 -0.03137679221 0)
(-0.09122686089 -0.5381977761 0)
(-0.006281833507 0.5528256139 0)
(-0.2284555893 -0.4569653322 0)
(-0.4342138242 -1.280712748 0)
(-0.4135037167 -1.695536762 0)
(-0.3740891263 -1.888685598 0)
(-0.1420335006 -1.836876286 0)
(-0.4498490898 -1.646080538 0)
(-0.4794524283 -1.410979591 0)
(-0.4964288167 -1.191715961 0)
(-0.5071464311 -0.9905200338 0)
(-0.5091770842 -0.8285109549 0)
(-0.2371944383 0.7721430621 0)
(-0.286945108 0.7424898689 0)
(-0.4125862237 0.4530619158 0)
(-0.1587801437 -0.0009937228105 0)
(0.561943218 -0.483539173 0)
(0.8238018541 -0.4585008397 0)
(0.9211544715 -0.3066487652 0)
(0.8490813434 -0.2234900017 0)
(0.05512937211 -0.02267423787 0)
(-0.1443111796 0.008444868503 0)
(0.1964741535 0.02585177445 0)
(0.01046376893 0.06248496022 0)
(-0.03550939828 0.01787176677 0)
(0.04222159192 0.04107341074 0)
(0.1199618888 0.06207226758 0)
(0.163420463 0.006271091074 0)
(0.1598802382 0.03837097105 0)
(-0.07396740531 -0.4913954409 0)
(-0.07264243243 0.07013438174 0)
(-0.2014011687 -1.385021355 0)
(-0.2286250474 -2.029739576 0)
(-0.1873732075 -2.199954968 0)
(-0.1516317843 -2.13485857 0)
(-0.1244783482 -2.000382779 0)
(-0.1396880495 -1.752770336 0)
(-0.1564509366 -1.478107798 0)
(-0.1460573207 -1.221787399 0)
(-0.1437345592 -1.000023022 0)
(-0.1528012519 -0.8407566949 0)
(-0.1013409812 0.8125825463 0)
(-0.1089969491 1.038826876 0)
(-0.2153282725 1.058230299 0)
(-0.304150342 0.8071816269 0)
(-0.0542662611 0.0884144384 0)
(0.5612512539 -0.2516584521 0)
(0.7384225061 -0.1391422945 0)
(0.9822681756 -0.1762697344 0)
(0.124412393 0.2550789433 0)
(-0.1250344243 0.1434630902 0)
(0.06079875582 0.04414319685 0)
(-0.03196872333 -0.0002716178132 0)
(-0.05160876447 -0.07261420501 0)
(-0.03497227753 -0.001454389232 0)
(0.03611582519 0.06777834888 0)
(0.0950775389 0.03549841265 0)
(0.1049639632 0.07281631574 0)
(-0.05922525421 -0.4799298359 0)
(-0.07400784232 -0.5042243952 0)
(-0.1701803613 -1.31931122 0)
(-0.2093614552 -1.423443789 0)
(-0.1704788728 -1.444565432 0)
(0.01091410158 -1.463475618 0)
(0.2118246495 -1.487655507 0)
(0.3034971581 -1.445767027 0)
(0.3418390625 -1.305151478 0)
(0.3560608644 -1.126691012 0)
(0.370790278 -0.9861730343 0)
(0.3904880799 -0.8337580603 0)
(-0.4773957925 -0.4835048381 0)
(-0.4718202075 -0.2453020899 0)
(-0.3433182833 0.2175036033 0)
(-0.2931548873 0.3571900231 0)
(-0.2354725101 0.5112241032 0)
(0.05727604471 0.3025286342 0)
(-0.0940807421 0.2961655254 0)
(-0.2551907525 0.003765122903 0)
(-0.205226514 0.3173655514 0)
(-0.2052149581 0.1863428966 0)
(-0.05941434935 0.05201672213 0)
(-0.08277202006 -0.1198651065 0)
(-0.0760233416 -0.0851203683 0)
(0.06528658349 -0.06107229784 0)
(-0.002288678032 0.02844625332 0)
(0.1202714387 0.06687142448 0)
(0.005940808352 0.04462955914 0)
(-0.02032232683 -0.5788909498 0)
(0.03170483023 -1.147252902 0)
(0.008695216688 -1.819549269 0)
(0.001589470327 -1.803002254 0)
(0.00351561446 -1.757784498 0)
(0.07892910115 -1.652081622 0)
(0.3193119141 -1.474858837 0)
(0.5232300125 -1.349974802 0)
(0.6259376316 -1.231033918 0)
(0.6756265173 -1.089042656 0)
(0.7033387851 -0.9537426928 0)
(0.7378790904 -0.8342210905 0)
(-0.03471069533 -1.033685807 0)
(-0.0375319253 -0.8590079779 0)
(-0.0401690455 0.9868832417 0)
(-0.04672416211 1.01065475 0)
(-0.07739180907 0.9000959344 0)
(-0.244972061 0.2851196548 0)
(-0.4971326982 -0.01962365089 0)
(-0.853639591 -0.1334126479 0)
(-0.3636467063 0.2345109082 0)
(-0.2009242827 0.200499873 0)
(-0.104152302 0.09261794115 0)
(0.03321123162 -0.06034846162 0)
(0.09760346791 -0.07748226818 0)
(0.1009401782 0.06645129866 0)
(0.09328056974 0.06152885331 0)
(0.08034386983 0.02501804533 0)
(0.0003944338689 0.0649623796 0)
(0.1167261225 0.1176401872 0)
(0.1412240767 0.07273166742 0)
(0.1061071232 0.0786185552 0)
(0.06300004761 0.03646689724 0)
(0.04972744725 -0.03557228222 0)
(0.01065475788 -0.5057821593 0)
(0.1564554678 -1.073157071 0)
(0.1967999733 -1.596332946 0)
(0.2268952836 -1.559786224 0)
(0.251085891 -1.51980364 0)
(0.2876686573 -1.464980947 0)
(0.4159464063 -1.373909451 0)
(0.6654914913 -1.264184974 0)
(0.8506679707 -1.163863811 0)
(0.9503929527 -1.050843109 0)
(1.004214648 -0.932338605 0)
(1.046252331 -0.8265822771 0)
(0.4429420117 -0.6528167566 0)
(0.4041266563 -0.3220739102 0)
(0.2088519856 0.2223169733 0)
(0.13321961 0.03284376383 0)
(-0.2127262839 -0.3068570831 0)
(-0.374787114 -0.1704777895 0)
(-0.5939265309 -0.2184261759 0)
(-0.8656398065 -0.2075992269 0)
(-0.06371715729 -0.04794735904 0)
(0.06604964459 0.09825620182 0)
(0.03289888549 0.1743743439 0)
(0.08245301493 0.1200521883 0)
(0.1302224949 0.07874723304 0)
(0.163353405 -0.002376428887 0)
(0.1224638594 -0.004050355685 0)
(0.06505340995 0.07949444888 0)
(0.1391604276 0.08841954776 0)
(0.06209498396 0.03525396931 0)
(-0.02925509456 0.0215493018 0)
(-0.02629273902 0.01418452134 0)
(0.05641972545 0.02891671158 0)
(0.04685441674 0.02189612296 0)
(0.03825026448 -0.4727491525 0)
(0.2786601754 -0.9648262014 0)
(0.3314270526 -1.42502462 0)
(0.3754509364 -1.391753819 0)
(0.4096792718 -1.355316357 0)
(0.4457854341 -1.311758842 0)
(0.5096451409 -1.254636669 0)
(0.7040481258 -1.177359731 0)
(0.9724017117 -1.096637852 0)
(1.152119808 -1.009515599 0)
(1.252146363 -0.9118932648 0)
(1.309381666 -0.8156995854 0)
(0.5526973136 -0.5379983827 0)
(0.4468063156 -0.2565702766 0)
(0.2824987513 0.04852428764 0)
(0.1674264121 0.004814886805 0)
(-0.06425267225 -0.1487669119 0)
(-0.2738763645 -0.1946873369 0)
(-0.5256759982 -0.2693462522 0)
(-0.7336401885 -0.2126204159 0)
(-0.03543578949 -0.07075493148 0)
(0.01932150268 -0.02633495539 0)
(0.02662048129 -0.05021414284 0)
(0.07466924741 0.05260476112 0)
(0.1288882476 0.07626753059 0)
(0.1655617789 -0.01703459595 0)
(0.1853560095 0.004588977647 0)
(0.1014699623 0.02126548287 0)
(0.06670070928 0.009432519587 0)
(-0.03795925857 -0.0201118016 0)
(-0.0433637972 -0.01241374765 0)
(-0.0356212344 -0.01145907515 0)
(0.01685855417 0.03137822609 0)
(0.05626458666 0.0231855633 0)
(0.04835644911 -0.4626082976 0)
(0.4120381897 -0.8616584719 0)
(0.4712271222 -1.226521509 0)
(0.5280497784 -1.189319603 0)
(0.5663326548 -1.161740077 0)
(0.5985676085 -1.135960817 0)
(0.634354263 -1.106769427 0)
(0.7243001241 -1.067693456 0)
(0.9557654351 -1.018857239 0)
(1.21997858 -0.9584350602 0)
(1.39369254 -0.8825765079 0)
(1.475102557 -0.7954313236 0)
(0.6121194879 -0.4890085933 0)
(0.4552727142 -0.2618198442 0)
(0.2683968961 -0.08422270747 0)
(0.12648152 -0.08659893666 0)
(-0.08117547968 -0.1912751757 0)
(-0.2648678006 -0.3271130359 0)
(-0.479439378 -0.3789385897 0)
(-0.4840178903 -0.2064431458 0)
(-0.0134931631 -0.09716327528 0)
(-0.006490753229 -0.06733911933 0)
(0.003823373739 -0.04667406809 0)
(0.01732570457 0.0129152751 0)
(0.1167855228 0.05275317763 0)
(0.0982806795 -0.04620718451 0)
(0.1021513658 -0.02225979001 0)
(0.04499758964 -0.02245960843 0)
(0.02594731005 -0.02351606736 0)
(-0.030306157 0.003831849786 0)
(-0.03146130254 0.04178916684 0)
(-0.003938817233 0.06573879672 0)
(0.0152701328 0.05506902798 0)
(0.06711663306 -0.4180549784 0)
(0.4511533827 -0.6117817145 0)
(0.5140519894 -0.9022088761 0)
(0.5189062907 -0.8429269167 0)
(0.5127122815 -0.8122621556 0)
(0.5130750129 -0.791452014 0)
(0.5305034266 -0.7796931517 0)
(0.5861836753 -0.7892999684 0)
(0.7035918457 -0.8259124811 0)
(0.9018715644 -0.8403803128 0)
(0.9867406469 -0.8584443733 0)
(0.5653238236 -0.9316337167 0)
(0.124530454 -1.056577781 0)
(0.05954885224 -1.10449038 0)
(0.01354145742 -1.101748925 0)
(0.01467908561 -1.168921529 0)
(0.07180335974 -1.342609712 0)
(0.06682427197 -1.231731091 0)
(0.06437922938 -0.954916409 0)
(0.0475210693 -0.3989184077 0)
(0.0423760852 0.9909907408 0)
(0.03396196677 0.841696188 0)
(0.03191931661 0.5507761793 0)
(0.04392141246 0.2972524981 0)
(0.09638304666 0.0003250589728 0)
(0.05617553881 -0.02129842462 0)
(0.06355378803 -0.0125593342 0)
(0.04701826529 -0.0113655157 0)
(0.02937288355 -0.01172119918 0)
(0.02304706631 -0.008097198933 0)
(0.01894327357 -0.008183221943 0)
(-0.01613754819 -0.02973892966 0)
(0.08664697614 -0.3822395922 0)
(0.3252448701 -0.3080376921 0)
(0.2551610427 -0.6005767644 0)
(0.2021083105 -0.551351875 0)
(0.2097065144 -0.541050537 0)
(0.2275766459 -0.5474322774 0)
(0.2658346442 -0.562210987 0)
(0.3356601417 -0.5897494512 0)
(0.450223967 -0.6305758095 0)
(0.6020201685 -0.6618005631 0)
(0.6583169451 -0.6493967364 0)
(0.1426375621 -0.5807703359 0)
(0.1566238332 -0.4650048188 0)
(-0.07966828976 -0.3561780706 0)
(-0.2385448739 -0.3167968523 0)
(-0.2068180457 -0.3489107027 0)
(0.2899332883 -0.6102532689 0)
(0.4439894688 -0.5388155586 0)
(0.659505005 -0.4203832353 0)
(0.7723948058 -0.2287320613 0)
(0.01488793867 -0.01524480139 0)
(0.0551496719 0.03815162196 0)
(0.07002923534 0.001904699432 0)
(0.08493644322 -0.03004697414 0)
(0.1187175099 -0.04073809339 0)
(-0.008990372305 -0.02077159147 0)
(0.06504255919 0.007878522377 0)
(0.01881917291 -0.009599138002 0)
(0.0133731658 -0.03417047198 0)
(-0.004489823634 -0.03479887368 0)
(-0.00333058907 -0.03094936676 0)
(-0.003052144277 -0.04860899902 0)
(0.09650287742 -0.3893787302 0)
(-0.03693440069 -0.4261755141 0)
(-0.216331002 -0.7274564535 0)
(-0.1290013199 -0.5879854799 0)
(0.1091766521 -0.4907963169 0)
(0.1814657021 -0.4813122974 0)
(0.2274526023 -0.5013490888 0)
(0.2911242854 -0.5328897379 0)
(0.3818394995 -0.5712386799 0)
(0.4574585001 -0.5913195178 0)
(0.1170649497 -0.5640047592 0)
(-0.9580248168 -0.5785035255 0)
(0.1059149213 -0.3776154181 0)
(-0.1268290023 -0.3306074331 0)
(-0.336684622 -0.3040876161 0)
(-0.2403160058 -0.2606640315 0)
(0.161322953 -0.2604449778 0)
(0.09961027979 -0.247762081 0)
(0.02060146687 -0.232727929 0)
(-0.01841847589 -0.2226524921 0)
(-0.01614968852 -0.05975658023 0)
(0.0178085927 -0.1232063885 0)
(0.04787656442 -0.1073342898 0)
(0.07797581381 -0.0795279815 0)
(0.1262344684 -0.01012081961 0)
(0.09062727037 -0.002225055558 0)
(0.04386215052 0.006662234837 0)
(0.0249146093 -0.01849911677 0)
(0.005560737987 -0.02619591483 0)
(0.02908077738 -0.02847793308 0)
(0.01818374404 -0.04016727219 0)
(-0.01538136785 -0.06297146553 0)
(0.08267600472 -0.439959666 0)
(-0.2943167 -0.5052700554 0)
(-0.3875278258 -0.9180405009 0)
(-0.1278344927 -0.6922540798 0)
(0.07646327095 -0.5126795741 0)
(0.1526155296 -0.4468401398 0)
(0.2236239677 -0.4744214723 0)
(0.2903517511 -0.5119284179 0)
(0.3583285126 -0.5446905473 0)
(0.3311068177 -0.5588812012 0)
(-0.3523703969 -0.584245286 0)
(-1.271488157 -0.6911167151 0)
(0.1038610402 -0.3739562596 0)
(-0.1851405873 -0.3380703859 0)
(-0.3545669629 -0.3041083447 0)
(-0.0899956573 -0.2131731123 0)
(0.141751018 -0.1545014362 0)
(0.01265550492 -0.1240062041 0)
(-0.2426450779 -0.1291439541 0)
(-0.475639488 -0.2304662607 0)
(-0.1751467429 -0.1163523306 0)
(0.008468781317 -0.1199021616 0)
(0.0327877498 -0.1129811289 0)
(0.081048259 -0.09056033674 0)
(0.1194492115 -0.03393517836 0)
(0.05709599368 -0.03264135067 0)
(0.05113937558 -0.0243208586 0)
(0.06175813793 -0.0349103626 0)
(0.05560447699 -0.03200589975 0)
(0.04939031321 0.0006386840543 0)
(0.04251404214 -0.02081439487 0)
(0.1031072913 -0.4588379576 0)
(-0.344272572 -0.1942843998 0)
(-0.1993720859 -0.930866852 0)
(0.01655210437 -0.8076412927 0)
(0.1518462311 -0.7283485774 0)
(0.2043441272 -0.6901144641 0)
(0.2422083287 -0.70883887 0)
(0.2926442398 -0.8619957209 0)
(0.3137321377 -1.2731463 0)
(0.2868006535 -1.796573469 0)
(0.2441255888 -1.742455205 0)
(0.229681325 -0.8095520193 0)
(0.2168475807 1.230637466 0)
(0.2051160446 1.664368901 0)
(0.1994646835 1.481547614 0)
(0.1680769028 0.2118844385 0)
(0.1679169155 -0.1020606439 0)
(0.1536347353 -0.4556971039 0)
(0.2206199695 -1.03998507 0)
(0.3968152764 -0.6000797023 0)
(0.4246952803 0.003965277942 0)
(0.07819788611 0.843136955 0)
(0.009948499439 0.4213639617 0)
(0.01836540292 0.02175993149 0)
(0.06864172472 -0.06369357327 0)
(0.02972308596 -0.05148691263 0)
(0.01083702308 -0.03824266713 0)
(0.0199790577 -0.03181188425 0)
(0.0007299245623 -0.02901681726 0)
(0.06936106489 0.005154071682 0)
(0.05090043631 0.004128396588 0)
(0.09430834366 -0.4514127555 0)
(-0.199755619 0.1553710632 0)
(-0.06006866996 -0.9540000302 0)
(0.1148708701 -0.8916261669 0)
(0.209302754 -0.8865220445 0)
(0.2428642496 -0.9063668234 0)
(0.2536330823 -0.9235909858 0)
(0.306320059 -0.9850763874 0)
(0.3855193131 -1.124533233 0)
(0.6040811408 -1.38545812 0)
(0.9770818187 -1.393822715 0)
(1.278957552 -0.8113104153 0)
(0.2433479003 0.2154950302 0)
(0.2919014202 0.1398547406 0)
(0.3601896862 -0.3125233199 0)
(0.3574470973 -0.3581994514 0)
(0.1393473407 0.3154066494 0)
(0.2874632578 -0.3692047089 0)
(0.4567070171 -0.6280377832 0)
(0.3697431141 -0.1809156184 0)
(0.128380261 -0.03385184468 0)
(-0.01136434845 -0.076996933 0)
(-0.003701837869 -0.08699990657 0)
(-0.008011788526 -0.07326027472 0)
(0.02517174915 -0.07666175829 0)
(0.006220452434 -0.07862650316 0)
(-0.05882090115 -0.0548157894 0)
(-0.054723158 -0.02098101115 0)
(0.04927371216 -0.02642813363 0)
(0.08003870169 0.03690061749 0)
(0.05582477449 0.0482827624 0)
(0.1104239353 -0.6160642613 0)
(0.1902448951 0.2303585823 0)
(0.186932818 -0.9802925943 0)
(0.2213915771 -0.7788446784 0)
(0.2173934578 -0.5844139977 0)
(0.2313131874 -0.4211159589 0)
(0.3314142917 -0.4539749687 0)
(0.3705896936 -0.6727980458 0)
(0.3899998691 -1.147869771 0)
(0.6832094493 -1.214454415 0)
(1.309179173 -1.191146153 0)
(1.830454233 -0.8551055712 0)
(0.4323177595 -0.8165113098 0)
(0.5030038042 -0.7899762889 0)
(0.5720605885 -0.7122916009 0)
(0.5876418659 -0.4853617232 0)
(0.1586301817 0.4202307553 0)
(0.3848760263 -0.3086859644 0)
(0.5367663866 -0.4290662949 0)
(0.4621707874 -0.2158831208 0)
(-0.01619979743 -0.135655911 0)
(-0.02106291074 -0.1133739878 0)
(-0.02306724148 -0.08743295674 0)
(-0.02238504686 -0.06369347341 0)
(0.02619917783 -0.05292914832 0)
(-0.00729590528 -0.06688033489 0)
(-0.1533026377 -0.03780859136 0)
(-0.1195067994 0.04854101262 0)
(0.007979118163 0.06344202878 0)
(0.06706905334 0.06181701588 0)
(0.04908094209 0.06722136886 0)
(0.1077839948 -0.4629118317 0)
(-0.004040520729 -0.3594584356 0)
(-0.1980039061 -0.3297304324 0)
(0.03946933769 -0.5843296537 0)
(-0.2780673628 -0.5519251797 0)
(-0.3063390897 -0.396857584 0)
(0.02664728098 -0.02951031989 0)
(0.3610893749 -0.3437622973 0)
(0.4264230189 -1.175420484 0)
(0.6560404863 -1.17864177 0)
(1.223881816 -1.112567595 0)
(1.886841126 -0.918623304 0)
(0.6219832955 -0.9654134013 0)
(0.6732220421 -0.8301789023 0)
(0.6571350525 -0.6252954069 0)
(0.4224952284 -0.3166037934 0)
(0.1862397762 -0.1344851165 0)
(0.2847168645 -0.2417850322 0)
(0.4239888684 -0.3056877217 0)
(0.5037664435 -0.2190713012 0)
(-0.04947405677 -0.1573004336 0)
(-0.01053920929 -0.1707066703 0)
(0.01697568775 -0.1613825501 0)
(0.03214754136 -0.1151725825 0)
(0.02939029494 -0.02845947123 0)
(-0.05559165684 -0.0663390235 0)
(-0.2061277027 -0.03124628278 0)
(-0.1479891724 0.02653253304 0)
(-0.02134498351 0.08489862103 0)
(0.04344647041 0.0919785962 0)
(0.05473857013 0.09123927464 0)
(0.06051231578 -0.3348720665 0)
(-0.09822165183 0.300466842 0)
(-0.1581967663 -0.2239259493 0)
(0.008426453177 0.2408965616 0)
(-0.413116383 -0.7161054892 0)
(-0.5171957968 -0.6815703422 0)
(-0.2739943406 -0.5365927111 0)
(0.3463661529 -0.4166260354 0)
(0.5344590999 -1.103200676 0)
(0.6655849279 -1.13333526 0)
(0.9392976099 -1.089163188 0)
(1.451245206 -0.9680242122 0)
(0.812042204 -0.8942599077 0)
(0.8175914327 -0.7236204177 0)
(0.6815136616 -0.4955948981 0)
(0.3361670756 -0.2566571104 0)
(-0.04246679766 -0.2289497291 0)
(-0.005910239091 -0.2523427219 0)
(0.236575573 -0.2649058063 0)
(0.4062659391 -0.2216887728 0)
(-0.2461298618 -0.1610929302 0)
(-0.1481682619 -0.1395948572 0)
(-0.03834397104 -0.11595501 0)
(0.03863854048 -0.08926172011 0)
(0.0414582138 -0.05364747433 0)
(-0.02520089792 -0.007847724781 0)
(-0.2853861922 -0.003881149292 0)
(-0.1842579344 -0.02426762954 0)
(0.001171906965 0.06962357608 0)
(0.04193249076 0.09025731605 0)
(0.06452580183 0.09792052862 0)
(-0.00810711982 -0.2613972358 0)
(-0.07652393453 0.2773027626 0)
(-0.1537987676 -0.1413941451 0)
(-0.0235373559 -0.238788718 0)
(-0.5258239336 -0.955932994 0)
(-0.5003149005 -0.8555282531 0)
(-0.1059719956 -0.6602968334 0)
(0.4134101815 -0.5319043543 0)
(0.6019685664 -0.9888865696 0)
(0.729926159 -1.002432446 0)
(0.8439706978 -0.9439211505 0)
(0.9775193634 -0.8264510651 0)
(0.9075458507 -0.6797015107 0)
(0.8297612965 -0.5723108985 0)
(0.600986166 -0.4152627891 0)
(0.2567440686 -0.3158407329 0)
(-0.1046815569 -0.2976336933 0)
(-0.1498824902 -0.3687087125 0)
(-0.06746088771 -0.3829340733 0)
(0.2691701883 -0.2412117809 0)
(-0.2966334283 -0.2385550276 0)
(-0.2520510145 -0.1579218165 0)
(-0.1951921295 -0.1028614363 0)
(-0.2654084705 0.1311532878 0)
(-0.04462694366 -0.02340862527 0)
(-0.1203406912 0.08355704873 0)
(-0.3691670771 0.02890071499 0)
(-0.1917371982 -0.05306548799 0)
(-0.0001402445563 -0.005684288275 0)
(0.07011189286 0.05322428612 0)
(0.0848588627 0.05339941158 0)
(0.0238319472 -0.2035307298 0)
(-0.05743716271 0.2079163978 0)
(-0.1539315014 -0.130355728 0)
(0.08096516743 -0.1963162995 0)
(-0.2682002155 -1.000728043 0)
(-0.2940822552 -0.8923994654 0)
(0.0522499065 -0.7374973665 0)
(0.4500546654 -0.6405385286 0)
(0.5606641958 -0.8545149603 0)
(0.5667979306 -0.8323356245 0)
(0.3791101322 -0.7421214044 0)
(-0.02407816207 -0.6445237332 0)
(-0.4424722424 -0.6012044053 0)
(-0.5691702707 -0.5202824895 0)
(0.4257782984 -0.3259906746 0)
(0.1589557014 -0.2500295445 0)
(-0.10400363 -0.2805838387 0)
(-0.2686805683 -0.4193309753 0)
(-0.1647777347 -0.3886596283 0)
(-0.2837030936 -0.3627599279 0)
(-0.2937506908 -0.3323175566 0)
(-0.3077689863 -0.2914210484 0)
(-0.3292117513 -0.2302110882 0)
(-0.3428138259 -0.1229787076 0)
(-0.2162883273 0.1156938396 0)
(-0.3585026398 0.159188833 0)
(-0.5313037926 0.04956556833 0)
(-0.1985427678 -0.03296295783 0)
(-0.05854732071 -0.03462911096 0)
(-0.07698488503 0.04830998738 0)
(0.02075373587 0.05640660642 0)
(0.08025148758 -0.1660807255 0)
(-0.03310636165 0.1016009347 0)
(-0.1214909989 -0.1848985365 0)
(-0.008214596653 -0.3449037456 0)
(0.1878993519 -1.048164006 0)
(0.4497645661 -1.003664349 0)
(0.3909279665 -0.6782802724 0)
(0.4255233272 0.009963177649 0)
(0.4755732215 0.1982618408 0)
(0.4561745083 0.1658096857 0)
(-0.08626694192 -0.7299182724 0)
(-0.5839561833 -0.742594583 0)
(-0.6216538736 -0.6966241844 0)
(-0.5087536228 -0.5579084165 0)
(0.3505067097 -0.2705863578 0)
(0.1070599769 -0.161787407 0)
(0.04808011984 -0.1583728994 0)
(-0.2321449122 -0.3396944371 0)
(-0.2109959598 -0.3713713023 0)
(-0.2155178726 -0.3575418713 0)
(-0.2275065704 -0.3373911225 0)
(-0.2561137045 -0.3109168779 0)
(-0.335111949 -0.2619323336 0)
(-0.4172710133 -0.1331516352 0)
(-0.4733737448 -0.07740305261 0)
(-0.5881971507 -0.04989447494 0)
(-0.5625930051 -0.03723497938 0)
(-0.4395520591 -0.1470891519 0)
(-0.2559251966 0.2328702999 0)
(-0.1793158413 0.08012188719 0)
(-0.05470914095 0.0763164509 0)
(0.1055893708 -0.1304554688 0)
(0.0135364901 0.1148107431 0)
(-0.1237726644 -0.1299857236 0)
(-0.1364973233 -0.05737067497 0)
(-0.05816773815 -0.2637910359 0)
(0.6087987145 -0.7947731059 0)
(0.5873385696 -0.759159526 0)
(0.4327183268 0.5013775153 0)
(0.5280203679 -0.555427113 0)
(0.5471112169 -1.315401205 0)
(0.5450840362 -1.456851661 0)
(0.5654646729 -1.172846371 0)
(0.5564119473 -0.8965732676 0)
(0.5544499305 -0.6481860853 0)
(0.4932686711 0.5386298064 0)
(0.4117416488 0.773769059 0)
(0.1732977792 0.3112423863 0)
(0.07691994751 -0.4962454269 0)
(0.07664575019 -0.5328801454 0)
(0.06984591901 -0.5081417175 0)
(0.03304442434 -0.4674237103 0)
(-0.09899321828 -0.3987205912 0)
(-0.3488047977 -0.2994565082 0)
(0.5468237755 -0.3181289384 0)
(0.1728957935 0.1818506417 0)
(-0.566866404 -0.04634572961 0)
(-0.4635835667 -0.01659380895 0)
(-0.4555914126 -0.1459560544 0)
(-0.344827898 0.2469943158 0)
(-0.3805225888 0.1938678121 0)
(-0.01490266772 0.09059700901 0)
(0.1276166716 -0.1053221896 0)
(-0.05162808914 -0.01795402547 0)
(-0.09463827362 -0.1247359395 0)
(-0.1723953844 -0.002849203234 0)
(-0.1269459583 -0.09190439067 0)
(0.154018099 -0.2673249002 0)
(0.8329413847 -0.5771748683 0)
(0.4701496875 0.2446065998 0)
(0.5602424785 -0.5999740904 0)
(0.6735722584 -1.355706924 0)
(0.7636113104 -1.397551209 0)
(0.8127737137 -1.126977136 0)
(0.8404944069 -0.8749418814 0)
(0.86007499 -0.6524987929 0)
(0.425117347 0.6551903531 0)
(0.1891280419 0.3836302324 0)
(0.1125330334 0.02999224732 0)
(0.09987466904 -0.5744547434 0)
(0.09850807395 -0.5673276698 0)
(0.06888170323 -0.5324994329 0)
(-0.0281586345 -0.46596373 0)
(-0.2344508919 -0.3584320905 0)
(-0.365360576 -0.2707047658 0)
(0.7598314065 -0.3200304354 0)
(0.3588470674 0.3513149358 0)
(0.3385603152 0.2206107004 0)