/*--------------------------------*- C++ -*----------------------------------*\
  =========                 |
  \\      /  F ield         | OpenFOAM: The Open Source CFD Toolbox
   \\    /   O peration     | Website:  https://openfoam.org
    \\  /    A nd           | Version:  8
     \\/     M anipulation  |
\*---------------------------------------------------------------------------*/
FoamFile
{
    version     2.0;
    format      ascii;
    class       scalarField;
    location    "0.3/lagrangian/reactingCloud1";
    object      d;
}
// * * * * * * * * * * * * * * * * * * * * * * * * * * * * * * * * * * * * * //


89
(
0.0005596438763
0.000524916601
0.0005239517469
0.0005210221087
0.0009157261777
0.0005280594098
0.0005321052409
0.0007318101651
0.0005597914869
0.0005858064043
0.0006725330374
0.0005716830791
0.0006711915277
0.0007532012092
0.0007408311217
0.0006082761535
0.0007785663525
0.0006564594948
0.001133454205
0.0008781144487
0.0007908147222
0.0005449817349
0.0005515407599
0.0007925246869
0.0006524410633
0.000742986804
0.000769129551
0.0008514805486
0.000507869593
0.0006715089591
0.0009101678995
0.0005820021559
0.0005209213335
0.0008169523123
0.0009397628908
0.0007074127226
0.000551827654
0.0007124013117
0.0009482703241
0.001059932607
0.001184162953
0.0006379617125
0.0005078406666
0.0007443006471
0.0006685264708
0.0006532886859
0.0006967454425
0.0006538555129
0.0007917837805
0.000525755183
0.0009077092675
0.0005516653332
0.0006864974306
0.0006486753298
0.0005468310961
0.0006838802127
0.0005920047692
0.0005946516072
0.0006026391724
0.0008649923225
0.0005260068465
0.0006771506146
0.0006952983264
0.000546396792
0.0005061762352
0.0006162908846
0.000533506078
0.0008012197961
0.0005250752483
0.00053499422
0.0007333494227
0.0007062206356
0.000954229075
0.0009596533239
0.0007725044341
0.0006856854143
0.0005130432945
0.0008946237925
0.0007498642385
0.000563082118
0.0006581905202
0.0008128028533
0.0006364511144
0.0005573785733
0.0008809894625
0.0006110263173
0.0009249657451
0.0005904385876
0.0006326176124
)


// ************************************************************************* //
