/*--------------------------------*- C++ -*----------------------------------*\
  =========                 |
  \\      /  F ield         | OpenFOAM: The Open Source CFD Toolbox
   \\    /   O peration     | Website:  https://openfoam.org
    \\  /    A nd           | Version:  8
     \\/     M anipulation  |
\*---------------------------------------------------------------------------*/
FoamFile
{
    version     2.0;
    format      ascii;
    class       scalarField;
    location    "0.3/lagrangian/reactingCloud1";
    object      mass0;
}
// * * * * * * * * * * * * * * * * * * * * * * * * * * * * * * * * * * * * * //


89
(
9.177700694e-08
7.531462917e-08
7.531344268e-08
7.365069932e-08
4.020642978e-07
7.667552815e-08
7.845145956e-08
2.052078336e-07
9.134552729e-08
1.046816994e-07
1.583978521e-07
9.782832918e-08
1.574518675e-07
2.225058553e-07
2.117220418e-07
1.171954609e-07
2.457510096e-07
1.473099971e-07
7.624485735e-07
3.545291847e-07
2.589541406e-07
8.428577025e-08
8.736575976e-08
2.592070543e-07
1.446213061e-07
2.135756419e-07
2.369228304e-07
3.214641988e-07
6.821267089e-08
1.585455497e-07
3.947872929e-07
1.026554944e-07
7.360797148e-08
2.854885805e-07
4.321786363e-07
1.843431556e-07
8.750216567e-08
1.882706193e-07
4.464728979e-07
6.200735089e-07
8.694268175e-07
1.352048481e-07
6.857740507e-08
2.147106609e-07
1.564423917e-07
1.459869492e-07
1.771010077e-07
1.463672764e-07
2.584807606e-07
7.567616346e-08
3.894473266e-07
8.790745423e-08
1.684710052e-07
1.421315729e-07
8.561665023e-08
1.674706618e-07
1.08039866e-07
1.094954848e-07
1.145963266e-07
3.370118536e-07
7.620313054e-08
1.616829594e-07
1.750338205e-07
8.541281684e-08
6.753263138e-08
1.218893192e-07
7.950908156e-08
2.693107166e-07
7.538293761e-08
8.01762782e-08
2.053720234e-07
1.83412795e-07
4.549425504e-07
4.602052141e-07
2.400553343e-07
1.688003553e-07
7.031864049e-08
3.749038968e-07
2.19561579e-07
9.296588863e-08
1.484784028e-07
2.811604831e-07
1.342466855e-07
9.016940983e-08
3.580228652e-07
1.187922662e-07
4.143578498e-07
1.07184656e-07
1.325630411e-07
)


// ************************************************************************* //
