/*--------------------------------*- C++ -*----------------------------------*\
  =========                 |
  \\      /  F ield         | OpenFOAM: The Open Source CFD Toolbox
   \\    /   O peration     | Website:  https://openfoam.org
    \\  /    A nd           | Version:  8
     \\/     M anipulation  |
\*---------------------------------------------------------------------------*/
FoamFile
{
    version     2.0;
    format      ascii;
    class       Cloud<basicReactingMultiphaseParcel>;
    location    "0.3/lagrangian/reactingCloud1";
    object      positions;
}
// * * * * * * * * * * * * * * * * * * * * * * * * * * * * * * * * * * * * * //

89
(
(0.05036425401 0.4472703966 0.2951623359 0.2072030135) 18672 51990 1
(0.1184678836 0.0474575678 0.01991610219 0.8141584464) 17700 51793 1
(0.2520795561 0.1347520091 0.4260903072 0.1870781276) 17970 52592 1
(0.1047168957 0.3840021789 0.2408965799 0.2703843455) 14559 42620 2
(0.1427207545 0.06632257411 0.1984813697 0.5924753016) 17938 52503 1
(0.2927952193 0.1529975406 0.4199206772 0.1342865629) 14560 42625 1
(0.1542471061 0.354954368 0.2022721445 0.2885263814) 18176 53203 2
(0.2937072416 0.283259045 0.05299590718 0.3700378062) 20546 60032 1
(0.391652263 0.3748821952 0.1630814267 0.07038411503) 17931 52384 2
(0.2007918154 0.2354229505 0.490590739 0.07319449515) 18027 52761 2
(0.1043319482 0.2347529465 0.300162072 0.3607530333) 20006 58475 2
(0.07227582841 0.5208923647 0.09333689506 0.3134949119) 22349 65609 1
(0.1358896146 0.5885719865 0.1324151373 0.1431232616) 14553 39917 2
(0.2956587428 0.2874923172 0.06153834818 0.3553105919) 18178 53206 2
(0.291605814 0.5317306529 0.01910625064 0.1575572825) 14553 39917 2
(0.5367031776 0.04667187046 0.2578934104 0.1587315415) 14551 42512 1
(0.2750314802 0.3126803002 0.1647790678 0.2475091518) 18119 52950 1
(0.1656630806 0.5805327706 0.2218472996 0.03195684919) 14549 39905 1
(0.1556730702 0.08444103958 0.5543873381 0.2054985521) 5190 15207 2
(0.06235105305 0.380869511 0.1725304982 0.3842489377) 62729 185791 2
(0.3188810183 0.2330948453 0.01689360389 0.4311305325) 61993 183985 2
(0.4943761396 0.02139270413 0.4806274851 0.003603671108) 18211 53301 2
(0.02189501404 0.1066689517 0.8119143995 0.05952163467) 17332 50662 1
(0.2256527425 0.5491190812 0.02788793269 0.1973402436) 21763 63853 1
(0.5165241555 0.09432280058 0.2648167362 0.1243363078) 21763 63745 2
(0.195010201 0.3263284896 0.1796841634 0.2989771459) 20876 61096 2
(0.222994188 0.176008531 0.4628871875 0.1381100936) 20876 61095 2
(0.3265083202 0.2141450837 0.2831739948 0.1761726014) 22639 66619 2
(0.376065498 0.3041253182 0.09765000153 0.2221591822) 59545 177979 1
(0.05280429569 0.8261326803 0.005315568999 0.115747455) 11325 33155 1
(0.280000863 0.4426687168 0.1077575525 0.1695728676) 37016 110354 2
(0.1066383607 0.5825107337 0.08673463318 0.2241162724) 20904 61165 2
(0.6408752261 0.1227233892 0.1952034214 0.04119796326) 21788 63955 1
(0.1924494103 0.3435708124 0.1656905511 0.2982892261) 38204 116835 2
(0.07356192818 0.2602865099 0.2620857422 0.4040658198) 60909 181324 1
(0.1936902625 0.3638387757 0.158110691 0.2843602708) 20904 58557 2
(0.7195539215 0.2363380783 0.0009289613384 0.04317903885) 25971 206264 1
(0.3168636904 0.1001159096 0.271098873 0.311921527) 60970 181294 1
(0.02635556239 0.3302302305 0.6257277495 0.01768645759) 26167 78075 2
(0.154895571 0.01182598843 0.7527545958 0.0805238448) 60257 179732 2
(0.0009995267226 0.2593476444 0.144359934 0.595292895) 42291 125810 1
(0.2768984301 0.1241807197 0.4952574568 0.1036633934) 24339 72071 2
(0.2260022601 0.3796940434 0.1256162596 0.2686874369) 42291 128822 1
(0.3025508678 0.1955907112 0.4976978781 0.004160542868) 60773 180999 2
(0.1745742042 0.3991395579 0.2959692614 0.1303169765) 42291 128917 1
(0.3579276391 0.3460891224 0.2591080985 0.03687513998) 43353 132032 1
(0.04143363102 0.01764537761 0.07439911833 0.866521873) 18767 54930 2
(0.4262643927 0.008073394346 0.1674372826 0.3982249304) 43512 132473 1
(0.3200930834 0.2025440592 0.3039479062 0.1734149512) 61133 181895 1
(0.05662262873 0.08350303917 0.4059288236 0.4539455085) 61731 183345 2
(0.4123125212 0.04620705865 0.4794649306 0.06201548954) 18227 53345 2
(0.2163189958 0.6628951276 0.03776078578 0.08302509079) 45622 138684 2
(0.05746814236 0.0696938347 0.06297652569 0.8098614973) 59712 177138 2
(0.2561184375 0.1102308695 0.1913703248 0.4422803683) 58564 175516 1
(0.1673249453 0.01026902379 0.789887263 0.03251876797) 44519 135457 1
(0.1903145252 0.1664247633 0.353911692 0.2893490195) 45650 138680 2
(0.3113170212 0.3594676531 0.2581473485 0.0710679772) 21789 63957 1
(0.01288988405 0.4704477047 0.1341445732 0.382517838) 26134 77927 1
(0.04934441419 0.7614839794 0.08929082501 0.09988078139) 46655 141713 1
(0.4783800457 0.09445833892 0.1029847744 0.324176841) 58556 175493 2
(0.5467205314 0.116996213 0.1793677079 0.1569155478) 46656 141721 2
(0.1715803519 0.06441088492 0.1351442778 0.6288644853) 20008 58556 1
(0.2672744549 0.3725352325 0.008078239618 0.352112073) 60259 179738 2
(0.1620353829 0.8112349924 0.0186221569 0.008107467778) 42412 129276 1
(0.10686209 0.3114037363 0.4614565456 0.1202776281) 58556 175479 1
(0.3236856969 0.1953746395 0.2171906972 0.2637489664) 20031 58619 1
(0.01847584348 0.2075493381 0.6103215903 0.1636532282) 46686 141810 2
(0.1720933931 0.525526062 0.1962395353 0.1061410096) 31193 206455 2
(0.200813805 0.3307559437 0.1763537006 0.2920765507) 59259 69556 1
(0.1282295118 0.151178837 0.2261546836 0.4944369676) 25909 77056 1
(0.01873337378 0.3886663911 0.3382810459 0.2543191893) 20031 58619 2
(0.008336269167 0.5959613009 0.3894501064 0.006252323586) 59752 178482 2
(0.439334594 0.04319435254 0.3148471414 0.2026239121) 47753 144939 2
(0.1537481703 0.2285377296 0.2502023669 0.3675117332) 61220 182102 2
(0.6137633751 0.1307782178 0.1461406089 0.1093177982) 58550 175475 2
(0.05265599443 0.04727826736 0.4619212077 0.4381445305) 47751 144933 1
(0.0404845374 0.5195558155 0.2644996727 0.1754599744) 58556 175493 1
(0.205820977 0.1580350983 0.1318875823 0.5042563423) 48786 207205 2
(0.1209277591 0.0863717667 0.1712533935 0.6214470807) 58557 175497 2
(0.04320056139 0.7764448338 0.06198661362 0.1183679912) 58557 175496 2
(0.1049839447 0.02505878495 0.7633827073 0.1065745631) 19975 55838 2
(0.1452339069 0.3082201603 0.06197986323 0.4845660696) 48817 148058 1
(0.375397954 0.01120176369 0.1685468002 0.4448534822) 19077 205990 2
(0.2063157482 0.1461962878 0.5755223925 0.07196557141) 58559 175500 1
(0.06604294433 0.3501942584 0.1873139574 0.3964488399) 48817 148060 1
(0.3228605591 0.1218029933 0.1998311959 0.3555052516) 61220 204936 1
(0.04113812494 0.08445647176 0.1484018151 0.7260035882) 49854 151094 2
(0.1408502555 0.2105590818 0.1855633389 0.4630273238) 20927 203495 1
(0.03126482707 0.4572970448 0.509878543 0.001559585101) 49855 151097 1
)


// ************************************************************************* //
