/*--------------------------------*- C++ -*----------------------------------*\
  =========                 |
  \\      /  F ield         | OpenFOAM: The Open Source CFD Toolbox
   \\    /   O peration     | Website:  https://openfoam.org
    \\  /    A nd           | Version:  8
     \\/     M anipulation  |
\*---------------------------------------------------------------------------*/
FoamFile
{
    version     2.0;
    format      ascii;
    class       volScalarField;
    location    "2/wallFilmRegion";
    object      delta;
}
// * * * * * * * * * * * * * * * * * * * * * * * * * * * * * * * * * * * * * //

dimensions      [0 1 0 0 0 0 0];

internalField   nonuniform List<scalar> 
1342
(
7.65229224e-05
0.0001754043796
0.0002631155275
0.0001200364321
0.00017909757
0.001099709107
0.0005088374914
4.482545145e-08
4.47572888e-08
6.633671989e-08
1.623283323e-07
5.398229628e-07
2.032245844e-06
8.45417764e-06
8.518487194e-05
0.0002555678283
0.0001558017341
0.0001094634978
7.990760126e-06
7.867042801e-06
1.004159039e-05
1.997148997e-05
2.666879559e-05
1.277727635e-05
1.482459583e-05
1.623570896e-08
2.836946383e-08
7.857914344e-08
2.620511273e-07
9.513847779e-07
3.706217347e-06
1.680637214e-05
6.956449934e-05
6.666904601e-05
4.278147112e-05
3.286458503e-05
1.391678594e-06
3.486221039e-06
3.475824448e-06
3.626397556e-06
6.845436754e-06
1.314838836e-05
1.831501293e-05
1.836184181e-07
6.286222847e-07
2.270772741e-06
8.922065516e-06
3.561855897e-05
5.664055953e-05
3.256341371e-05
2.250414443e-05
4.451448357e-06
5.169342617e-06
5.742780527e-06
5.392534491e-06
4.51762645e-06
3.956404844e-06
1.901861701e-06
4.492373144e-07
1.037399121e-06
6.693899659e-07
5.892296851e-06
7.600709018e-06
1.046242049e-05
3.509202765e-06
3.833224121e-06
3.922555507e-06
3.192584579e-06
2.127341414e-06
1.152178629e-06
4.439363384e-07
1.340690674e-07
9.415890565e-08
7.318144316e-08
1.925760801e-06
3.412554856e-06
2.459185845e-06
1.874587713e-06
1.3399322e-06
7.842810157e-07
3.556917469e-07
1.236486178e-07
3.248069725e-08
6.148627066e-09
5.731438734e-10
2.2312049e-09
1.358848573e-08
6.308652674e-08
2.39437277e-07
6.34146895e-07
1.860034429e-06
6.722094946e-06
2.448252027e-05
1.361655671e-05
3.627295158e-06
8.043950764e-07
2.283913843e-07
2.407678782e-07
7.851276769e-06
7.176420773e-05
1.147013584e-05
1.242800179e-05
1.131528297e-05
1.153011215e-05
7.448131776e-05
0.0001848589745
2.381448291e-05
2.945438613e-05
0.0001223775367
3.394513386e-05
4.031553556e-05
1.272102487e-05
6.8815467e-05
1.373934036e-05
9.428691005e-06
4.094847834e-06
2.14738658e-06
1.278096808e-05
2.427883054e-06
3.647678872e-06
1.604743124e-05
5.207488474e-06
6.995055908e-06
1.992736363e-05
8.648698313e-06
1.015528235e-05
2.260898463e-05
1.141453394e-05
1.270267274e-05
1.961834189e-05
1.354314347e-05
1.356250369e-05
2.492502217e-05
1.527902178e-05
1.721420621e-05
8.48493607e-06
1.726668684e-05
9.873288195e-06
0.0009093971276
0.0001210270231
0.000348295254
0.0006062452191
0.0002392853607
7.26725201e-05
1.377831356e-05
1.772189803e-06
2.038423165e-06
1.77883494e-06
1.852187739e-06
7.44736202e-07
2.284677526e-06
8.493838531e-07
7.960730784e-07
4.550906806e-06
7.074246559e-07
1.022402687e-06
8.830115043e-06
3.42757071e-06
9.249904735e-06
1.127562527e-05
9.647859052e-06
1.387543556e-05
1.180791224e-05
1.568356642e-05
1.358834941e-05
1.416347646e-05
1.054508695e-05
9.810274291e-06
2.413748107e-05
1.183453516e-05
1.779497871e-05
5.053825381e-05
3.519456651e-05
0.0001498417612
0.0006815404694
0.0003843768038
0.0002730180518
0.001060987841
0.0006637517672
0.0009803387219
2.985430869e-06
9.507171671e-05
1.824860239e-06
1.259237359e-06
6.705316953e-07
9.400594671e-07
3.90756251e-07
7.916900441e-07
2.438571173e-07
2.919127055e-07
1.3135121e-07
9.177597414e-08
2.598717146e-07
8.011852625e-08
1.261733377e-07
8.634878618e-06
1.7436071e-06
1.063455204e-05
2.512100134e-05
4.241562973e-06
1.856818495e-06
7.19743673e-05
6.307021951e-06
3.338175997e-05
0.000188714574
9.310415622e-05
0.0001757887436
0.0001936571851
0.0002520917197
0.0002930721627
0.0001878787625
0.0003537578296
0.0005117317771
0.000204730919
0.0007600472931
0.0009952287312
0.001396968167
0.001327100539
0.001796307766
1.357984921e-06
3.785983574e-06
1.756510938e-06
7.847966606e-07
1.181744633e-06
8.50452393e-07
2.563281737e-07
7.707332321e-07
3.474736198e-07
3.763097376e-08
1.03865032e-07
3.258021853e-08
7.916263236e-08
3.187328977e-08
6.228368836e-08
9.852581638e-06
2.015172231e-05
1.513684305e-05
1.756290086e-06
1.635466448e-05
2.556464106e-06
7.663890921e-07
2.204251127e-07
7.547325906e-08
5.124425937e-06
1.516316773e-07
2.90894146e-07
3.91479568e-05
4.542268586e-07
5.77150128e-07
0.0001218162624
7.144258485e-07
1.231356516e-06
0.0003718643246
3.86957962e-06
1.624735443e-05
0.002198859044
6.264947581e-06
2.415568781e-05
0.009709431226
0.0005140939836
0.005076601561
3.051739079e-06
5.272029826e-06
4.806602883e-06
1.657569098e-06
4.446804254e-06
3.902922202e-06
7.83367143e-07
3.200071309e-06
2.315307466e-06
4.265714331e-08
2.941618598e-06
5.52564404e-05
1.506052882e-06
3.754605014e-05
6.863134766e-06
7.837927618e-06
1.611567245e-06
1.41372652e-06
8.28790653e-06
2.356636431e-06
1.442600363e-05
8.57796875e-08
1.176462268e-06
1.097916226e-07
2.149802813e-07
1.883107475e-07
2.679483244e-07
3.151307207e-07
3.437630365e-07
3.976846786e-07
2.794989968e-07
4.079426768e-07
3.563969771e-07
2.217706408e-06
6.7512491e-07
3.216273458e-06
4.162908321e-05
1.092587121e-05
0.0001184792573
0.003148281962
0.0007115472609
0.002565310325
3.808327696e-06
1.385443501e-06
1.435552405e-06
4.094988755e-06
1.453367601e-06
1.447273022e-06
3.974038535e-06
1.434503633e-06
1.426933901e-06
2.244584039e-06
1.41894519e-06
1.388216679e-06
1.140263892e-06
1.304906859e-06
1.148338886e-06
5.644087558e-07
9.110981023e-07
6.150822483e-07
3.762549195e-06
3.142346712e-07
3.026192136e-09
1.054604249e-07
6.547354121e-08
1.236943223e-07
2.897745507e-07
1.743992922e-07
2.54353189e-07
5.233521324e-07
3.929806118e-07
5.853875998e-07
5.954896592e-07
9.667933757e-07
1.978812392e-06
1.214642165e-05
9.328211184e-06
4.985509822e-05
0.0002755182599
0.0001864017956
0.0004976195067
6.997408281e-07
1.085915453e-06
8.098460901e-07
1.153302167e-06
1.034342251e-06
7.636475188e-07
9.006568854e-07
7.607061209e-07
7.608505593e-07
6.289875945e-07
5.324116292e-07
9.474801209e-07
5.012916906e-07
5.68726996e-07
1.250386665e-06
7.675823647e-07
1.059058161e-06
1.138087056e-06
1.449506346e-06
1.904376067e-06
2.04739908e-08
2.391380739e-06
1.407667551e-07
7.380962975e-08
1.07881388e-07
1.067633027e-07
7.520553933e-08
9.798450346e-08
6.99017609e-08
1.292968217e-08
3.551016323e-08
3.805676298e-09
5.616522571e-06
3.743013989e-06
1.457841301e-05
0.0001459621749
8.47400567e-05
0.000292800399
0.000817492424
0.0007341735285
0.001324539401
3.211205828e-06
1.470141774e-05
2.553730002e-06
1.270023607e-05
1.036580635e-05
1.665852632e-06
8.280455596e-06
6.506445611e-06
1.066839555e-06
5.085728549e-06
4.219872877e-06
9.764075239e-07
3.73009561e-06
3.783748969e-06
2.000393069e-06
5.470648549e-06
7.307272606e-06
2.924355548e-06
8.491574506e-06
8.975686912e-06
6.699713599e-06
8.72848772e-06
8.672864997e-06
2.717786884e-05
8.778372861e-06
8.942337311e-06
4.61369335e-05
9.28790769e-06
9.757707517e-06
2.197345187e-05
1.029269207e-05
1.284572945e-05
4.366543006e-05
3.682728353e-05
8.906437455e-05
4.454970661e-06
4.587918809e-06
5.355585354e-06
4.953345299e-06
5.470195291e-06
6.545172308e-06
6.040462925e-06
6.583074289e-06
7.374754728e-06
7.028398768e-06
7.26990838e-06
6.954210194e-06
7.177281683e-06
6.727313451e-06
4.596748843e-06
5.971422082e-06
4.922991144e-06
1.351520162e-05
6.867741142e-06
1.279982673e-05
1.11405071e-05
1.120957408e-05
6.210911591e-06
2.62577816e-06
2.442852686e-06
1.725282107e-06
4.078805559e-06
5.304121092e-06
5.90389557e-06
5.703790022e-06
8.420010388e-06
5.460977338e-06
4.575666278e-06
5.416329553e-06
6.422561252e-06
6.962860244e-06
6.320785725e-06
5.133666915e-06
9.995851298e-06
3.667951802e-06
4.480235899e-06
4.815134172e-06
6.554773216e-06
6.31468858e-06
5.838144639e-06
5.298326315e-06
2.437829656e-06
9.587216465e-07
9.592885546e-07
4.195588869e-07
2.630772997e-06
8.853947336e-07
3.757129751e-06
1.985033356e-06
2.133816743e-06
4.178203342e-06
4.797043252e-06
5.521503025e-06
4.725183636e-06
5.006705465e-06
5.706495334e-06
5.144549469e-06
4.937725092e-06
4.23151984e-06
3.769215155e-06
3.384325531e-06
3.110464088e-06
2.87752281e-06
2.074935857e-06
9.97634296e-07
2.639858091e-07
8.034168752e-07
2.121613022e-07
1.09307474e-06
4.631244075e-07
4.700538108e-07
2.535022206e-07
3.437796811e-06
2.759599478e-06
3.651581226e-06
2.580789065e-06
9.91470395e-07
6.614488206e-07
7.441775491e-07
4.126041054e-07
2.419003501e-07
2.503137242e-07
1.34791764e-07
6.204809288e-08
8.285377005e-09
2.606320256e-08
4.23512059e-06
2.034184959e-06
1.172360551e-07
6.033849102e-10
4.615258851e-09
0.0007046633696
8.187861841e-06
0.000617811997
1.054454484e-05
0.0004702644343
1.298140197e-05
0.0002447383764
1.417295757e-05
6.809749397e-05
1.086043645e-05
0.0001128860675
1.006434176e-05
0.0001513809107
3.531532358e-05
0.0004519001665
5.637195467e-05
5.587268606e-05
0.001749236215
6.159991075e-05
3.668206615e-05
8.854812698e-06
1.103867716e-05
1.436798005e-05
1.818043338e-05
2.172825516e-05
2.155791253e-05
2.225178434e-05
2.398614064e-05
0.0003689871249
0.001928303839
6.846072945e-05
0.001558856196
5.895756212e-05
0.0005280128331
8.606690335e-05
4.713020052e-06
1.844504653e-06
3.04253902e-06
6.361769275e-06
1.000549831e-05
1.195032473e-05
1.225832836e-05
1.784423542e-05
3.756902538e-05
0.0002777584559
0.001024080572
6.925388874e-05
7.42182152e-05
0.00106679991
0.0005554169565
7.851798655e-07
1.166840502e-06
3.630865797e-07
2.353083355e-07
5.161690986e-07
5.852005996e-06
4.471340344e-05
0.0001253331232
0.0002080881491
0.0001840458476
0.0001772764437
0.0004146215919
0.001752416223
6.085922123e-06
7.940713033e-07
6.553102597e-07
1.315012183e-07
3.823570804e-08
1.983037452e-06
7.220142797e-06
7.251748034e-07
1.849012203e-06
1.476369516e-05
7.730209108e-05
0.0001950638491
0.0009411139579
0.003089158142
4.506973798e-06
2.350873183e-06
1.256964077e-06
4.308875634e-08
7.20996752e-08
3.077076274e-05
1.442818878e-05
4.554663163e-07
1.469869027e-07
2.777984276e-07
3.075697208e-07
3.363115963e-07
6.026411475e-06
0.0005723016854
3.610938229e-06
3.988271882e-06
4.100571333e-06
3.636650599e-06
1.578239089e-06
8.094830685e-07
3.95372144e-07
3.897875817e-06
1.894093385e-07
4.079228442e-07
6.219851805e-07
2.228542103e-06
4.058535562e-05
0.0008912270206
8.110853731e-07
7.914156785e-07
7.454559439e-07
8.277694206e-07
1.102917872e-06
1.305558314e-06
6.689188315e-07
5.271805069e-08
8.674426951e-08
4.582457838e-08
1.848900631e-06
3.074512591e-05
0.000462599468
0.001466422331
8.910426211e-06
3.029561097e-06
2.089128461e-06
1.312342192e-06
9.375121069e-07
1.442324241e-06
2.514602182e-06
3.334105236e-06
1.467850469e-05
3.945393806e-05
3.630276103e-05
2.089035562e-05
0.0002110810938
0.001359928977
6.084707408e-05
4.187980218e-05
3.205362252e-05
3.208105455e-05
3.798843014e-05
3.585584054e-05
2.187021557e-05
2.528555482e-05
3.424342759e-05
3.211219489e-05
0.0001433503554
5.710653478e-05
0.000786373482
4.23852862e-06
4.82796215e-06
5.956834619e-06
7.050996446e-06
7.371992511e-06
6.056297692e-06
6.636945018e-06
1.586589605e-05
4.520332678e-06
3.178606781e-06
5.33558555e-06
2.171644224e-06
8.50611158e-06
8.092376456e-06
8.210888954e-06
5.695635256e-06
1.822045507e-05
2.18223479e-05
4.930321299e-06
5.935385867e-06
5.724114532e-06
6.803781224e-06
6.477368857e-06
6.790396663e-06
5.689884168e-06
6.789472524e-06
6.026382837e-06
7.161853164e-06
4.683166519e-06
1.378174516e-06
1.332473186e-05
1.172326776e-05
1.147375809e-05
2.018848066e-05
4.076658366e-07
4.418402169e-07
1.036414253e-06
8.46767396e-07
4.932676951e-07
4.140222544e-06
4.159310252e-07
5.215682831e-07
1.381225983e-06
4.783525797e-06
5.738160719e-06
1.822155014e-05
4.424340031e-05
4.131820199e-05
3.209610441e-05
1.252359521e-05
9.08077665e-06
7.923062127e-06
3.737936754e-08
2.09278577e-07
1.756255253e-07
1.078880419e-06
1.262026949e-06
4.912286862e-07
2.135832775e-06
2.247175251e-06
2.284423167e-05
2.442021553e-05
1.560496691e-05
2.387859526e-06
3.190389023e-06
1.129129401e-06
1.230022125e-05
4.893038698e-06
1.961389089e-06
5.749450181e-07
7.329857538e-07
2.087301151e-07
2.393211644e-07
6.46998621e-08
1.364737166e-08
2.108076563e-09
9.006619844e-05
3.931660629e-05
8.908754773e-06
1.941356534e-06
4.617811853e-07
1.088635724e-07
2.442711019e-08
5.591970871e-09
2.908440761e-09
6.183450852e-06
2.962520941e-05
5.620545852e-05
1.342637504e-05
1.885660778e-06
3.359016509e-07
7.29663022e-08
1.83578457e-08
8.897753264e-09
1.329884547e-06
4.538465958e-06
1.931884704e-05
2.819328392e-05
5.917140997e-06
1.060958363e-06
2.201765726e-07
5.548780208e-08
2.628261196e-08
0.0007382683817
7.2742711e-06
0.0001060415703
4.138067772e-06
0.000662513222
9.300513712e-06
9.514586527e-05
9.252803887e-05
4.539673418e-06
5.073930018e-06
0.0005581772706
1.180921655e-05
8.400560644e-05
7.847521324e-05
5.687193091e-06
6.303510366e-06
0.0003639759126
1.388271574e-05
9.589542308e-05
0.0001403369881
6.854671538e-06
7.247014484e-06
0.0001411317569
1.336694242e-05
0.0001860691002
0.0001736049247
7.328141206e-06
6.94862235e-06
4.220937315e-05
7.344016515e-06
0.000204297818
0.0009556373216
5.917040204e-06
4.2444765e-06
0.0001282823316
2.054297918e-05
0.001295928978
0.00015235545
6.127441486e-06
1.275275248e-05
0.0002158314888
5.201953102e-05
8.131747464e-05
3.886988436e-05
1.829889596e-05
1.763784901e-05
0.001148254828
4.721447195e-05
3.566907702e-05
0.0002528692267
8.236170421e-06
4.158998454e-06
0.001154085187
0.002113439038
4.927607592e-06
0.002478753209
0.0007423404862
0.0008215433303
0.001197487721
0.001145243438
0.001366695721
1.194171291e-05
0.001705562493
1.160708917e-05
1.23860206e-05
0.001870195611
0.001470287684
0.0001869430741
0.0007702460416
1.416848527e-05
1.639136138e-05
0.002096429356
0.001172289345
0.0003438275812
0.0004838374403
0.001518437808
4.193644439e-05
3.616282598e-05
3.288558547e-05
0.001027807107
0.001508229547
2.773037512e-05
0.0005388343011
0.0005232056784
3.750635786e-05
0.001356468973
0.001042688696
0.001959284148
0.002015153823
2.660210858e-05
2.620007864e-05
2.575771888e-05
7.138980685e-05
0.0002482416333
5.086705645e-08
1.746686171e-08
5.03898026e-05
0.0002343448275
0.0002203973145
4.313975197e-08
1.522986994e-08
1.671403516e-08
3.57235384e-05
0.0002110245822
0.0002054436721
5.11536304e-08
2.153600357e-08
3.156449597e-08
3.089427453e-05
0.0002024727883
0.0002005889931
9.823634513e-08
5.121698274e-08
8.923198597e-08
3.496686663e-05
0.0001983306621
0.0001944241543
2.891876414e-07
1.626352728e-07
3.050354038e-07
3.860913157e-05
0.0001875638025
0.0001762592354
1.0371065e-06
5.839315505e-07
1.137006599e-06
3.035016664e-05
0.0001584667766
0.0001300563505
4.057235102e-06
2.25386102e-06
4.585020449e-06
2.186633904e-05
8.826213135e-05
8.443668122e-05
2.314959759e-05
9.944627479e-06
2.560829167e-05
2.909379656e-05
0.0001609514727
0.0004088320112
0.0002085953976
6.490336599e-05
9.673648585e-05
3.455305655e-05
0.0008268480093
0.0009868329624
0.0002118922881
9.001137156e-05
6.95441861e-05
4.069104046e-05
0.0008054452444
0.0006027643212
0.0001209187776
5.381041628e-05
4.388725409e-05
6.613243172e-05
0.0004830140442
0.0005269114925
3.013584729e-05
3.611176564e-05
1.932750544e-05
2.244819881e-05
8.785068439e-06
5.490630387e-06
8.189056597e-06
5.329416433e-06
3.344973105e-06
8.138911827e-06
4.821443341e-06
2.990110627e-06
4.989803785e-06
1.427778961e-05
6.099249035e-06
8.523811639e-06
2.50733367e-05
1.207182369e-05
1.636453345e-05
2.218451254e-05
1.806708088e-05
1.983394868e-05
1.947483113e-05
1.308745185e-05
1.340934417e-05
1.684652565e-05
1.31760852e-05
1.433594313e-05
1.246295408e-05
1.206789795e-05
1.866673628e-08
1.964123244e-08
4.561545778e-08
6.845583777e-08
1.414846046e-07
1.220947792e-07
2.234884645e-07
4.95124275e-07
4.166116118e-07
7.885261017e-07
1.858557101e-06
1.515310006e-06
2.962933307e-06
7.647761005e-06
5.940471813e-06
1.241677816e-05
3.802487486e-05
2.632192033e-05
4.856562423e-05
7.984822214e-05
6.572930612e-05
6.141746572e-05
5.157129754e-05
4.685586139e-05
3.612285951e-05
3.766314228e-05
3.200257615e-05
2.986045995e-05
2.841287458e-05
2.859943448e-05
2.381735219e-05
1.726524433e-05
2.047041145e-05
5.25800096e-06
6.159009684e-06
4.995108236e-06
6.976468892e-06
3.449960803e-06
1.479989591e-06
2.119191925e-06
1.919329354e-06
1.952022364e-06
1.124350049e-06
1.72624778e-06
2.971913165e-06
2.973911075e-06
1.442089738e-06
1.73153847e-06
2.225444209e-06
4.889109054e-06
2.646473119e-06
1.606062875e-06
9.897435213e-06
5.913769426e-06
3.867254356e-06
2.503184497e-06
1.426420865e-05
8.622798411e-06
9.494239836e-06
8.972108119e-06
9.467856254e-06
6.43675817e-06
1.21278016e-05
1.281123366e-05
1.426609943e-05
9.306176884e-06
9.806998825e-06
1.425396772e-07
1.015273709e-07
3.374906369e-07
2.584860194e-07
4.738520386e-07
8.781110356e-07
1.645909765e-06
1.186096102e-06
3.129779011e-06
6.081485823e-06
4.430666531e-06
1.857056336e-05
1.226028124e-05
2.467684156e-05
4.141638457e-05
5.097677384e-05
5.258892674e-05
3.476234838e-05
4.5797759e-05
4.71956201e-05
2.346295584e-05
2.460760075e-05
1.718895202e-05
2.281320019e-05
1.532714381e-05
1.429064039e-05
1.957979576e-05
1.473463205e-05
1.464236694e-05
1.396855298e-05
3.933774729e-06
4.144526729e-06
4.418282606e-06
5.029313356e-06
4.670465294e-06
4.204979522e-06
1.255204027e-06
6.739556924e-07
3.177077613e-07
1.191625102e-07
3.653239228e-06
3.961526058e-06
2.658346116e-06
1.624124536e-06
3.663239318e-07
1.170982447e-07
1.326298977e-07
4.403049384e-07
9.011779235e-07
6.793665568e-07
3.599593941e-07
2.723453824e-07
7.426674616e-07
1.124635926e-06
4.284627349e-07
1.694380043e-06
6.829337341e-07
3.131630402e-06
5.085937285e-06
2.621385762e-06
2.552739892e-06
2.570604525e-06
3.638635492e-06
4.245032545e-06
6.836552035e-07
9.372150901e-07
1.20542529e-06
1.695711364e-06
3.096334835e-06
6.921259617e-06
1.29377151e-05
2.108201976e-05
2.355167225e-05
3.342589712e-05
3.599519735e-05
2.489979451e-05
2.530554905e-05
1.544964924e-05
4.721014102e-06
2.843156682e-06
5.025507639e-06
2.277999429e-06
9.592716514e-06
1.108302081e-05
5.856127538e-06
5.468607703e-06
7.774152508e-06
5.329484589e-06
5.391044535e-06
2.306257366e-07
2.916273216e-07
7.548061729e-07
2.552357207e-06
9.200054205e-06
1.094063289e-05
3.295395252e-05
3.483134119e-05
4.263547877e-05
2.046447737e-05
8.703378146e-06
5.96808779e-06
9.220886969e-06
5.338978276e-06
2.906873752e-06
2.803031563e-06
2.793014087e-06
2.806758497e-06
2.254317884e-06
1.831108066e-06
1.391430365e-06
7.210566343e-08
3.804413708e-08
2.094167947e-08
1.710800108e-08
2.94171817e-06
8.486577677e-06
2.13844169e-06
6.010431293e-06
1.614449441e-06
2.956275822e-06
1.056670889e-06
1.371694001e-06
9.01778965e-07
5.459324964e-07
3.538341841e-07
2.168167131e-07
6.579498729e-08
6.225097582e-08
3.087456913e-08
1.470250548e-08
1.406970469e-08
5.725396166e-09
2.503049181e-09
2.028509955e-09
3.036642113e-08
8.064661101e-11
1.305109515e-08
2.27970608e-10
2.075325913e-08
1.241130349e-07
9.484525973e-10
1.720987563e-08
5.801090993e-09
1.191436511e-07
4.099184517e-08
5.963952123e-08
2.611853275e-08
4.570165765e-08
1.001436267e-07
1.716506779e-07
8.484402249e-08
1.523661839e-07
2.965541763e-07
2.861650153e-07
4.240118846e-07
7.150046636e-07
1.018772598e-06
3.876876638e-07
3.958634051e-07
7.528305973e-07
6.433180269e-07
1.297081491e-06
1.051062392e-06
1.748081852e-06
3.013318788e-06
1.433599027e-05
7.025752013e-06
5.563718849e-06
1.151979664e-05
2.190949618e-05
2.919059563e-05
2.442300612e-05
7.250074256e-06
1.682542321e-05
9.612284699e-06
1.724922568e-06
9.150230073e-06
5.022111865e-06
4.769468809e-06
2.444946231e-06
1.154069655e-06
5.759562714e-07
8.997811005e-07
3.387973513e-07
2.631237979e-07
8.169693044e-07
1.388435712e-06
2.985911887e-06
4.196127738e-07
1.129327203e-06
1.476835224e-06
3.887020724e-07
4.378728946e-07
3.814576432e-06
3.931811565e-06
1.30122729e-05
3.383628614e-05
1.597044502e-05
8.734891102e-06
1.29216947e-06
2.50671348e-06
9.165502826e-07
1.97322306e-05
5.968865317e-05
7.721092648e-06
3.60432891e-05
2.01058005e-05
3.110120415e-06
1.086424813e-05
5.885402286e-06
1.215111076e-06
3.238360656e-06
1.80154307e-06
4.275264733e-07
9.999165871e-07
5.464687029e-07
1.277915238e-07
2.910285781e-07
1.49890101e-07
3.079546159e-08
7.43098597e-08
3.537085605e-08
5.558182049e-09
1.616765227e-08
7.123941783e-09
8.600474042e-10
3.154418808e-09
1.570067239e-09
1.625170963e-09
9.136620135e-05
1.795482567e-05
6.769621566e-05
3.698870603e-05
6.214616622e-05
1.937300044e-05
7.441199326e-05
5.876593787e-05
4.10065371e-06
3.090341648e-05
1.294810647e-05
9.419513614e-07
5.138596315e-06
2.099635705e-06
2.255756852e-07
9.011198125e-07
4.02755454e-07
5.181939535e-08
1.850926812e-07
8.673123172e-08
1.149533823e-08
4.133685736e-08
2.007561899e-08
2.974386875e-09
1.016545268e-08
5.513883978e-09
8.004285734e-09
5.119522867e-09
1.550968409e-08
3.052300551e-08
2.751136893e-06
1.07139791e-06
1.381399894e-05
2.077235949e-06
4.207298252e-06
5.140107173e-05
9.01458524e-06
1.96137967e-05
3.325464568e-05
3.656246831e-05
4.205239763e-05
4.940822083e-06
2.384517641e-05
9.545002685e-06
7.705391974e-07
3.617576331e-06
1.44081969e-06
1.538099213e-07
6.139119888e-07
2.762747144e-07
3.573698846e-08
1.29494128e-07
6.323900608e-08
1.008481625e-08
3.260841356e-08
1.814943838e-08
2.914870651e-08
1.700329785e-08
5.117659064e-08
1.343034681e-07
1.575411902e-07
7.504967787e-07
5.727307723e-07
3.809549852e-07
2.407347999e-06
9.779725237e-07
1.694384401e-06
1.071164904e-06
9.218146637e-06
3.021894943e-06
5.709362298e-06
3.387455187e-06
3.18581294e-05
1.185054767e-05
2.320750837e-05
1.419183954e-05
2.754306057e-05
1.744575676e-05
2.236060422e-05
2.456850804e-06
8.295416595e-06
3.706481751e-06
4.751635366e-07
1.657998172e-06
7.474688817e-07
1.070193489e-07
3.435832932e-07
1.65400732e-07
3.952440458e-07
3.197121423e-08
8.44221975e-08
4.5799257e-08
1.382450318e-07
1.923888681e-07
)
;

boundaryField
{
    walls
    {
        type            zeroGradient;
    }
    wallFilmFace_top
    {
        type            zeroGradient;
    }
    region0_to_wallFilmRegion_wallFilmFace
    {
        type            zeroGradient;
    }
    mirrorFace_top
    {
        type            zeroGradient;
    }
    region0_to_wallFilmRegion_mirrorFace
    {
        type            zeroGradient;
    }
    procBoundary3to2
    {
        type            processor;
        value           nonuniform List<scalar> 
64
(
6.145286262e-08
3.736144555e-08
1.880725061e-08
3.996314691e-08
5.743190213e-08
4.052822324e-06
3.465305544e-06
3.756973575e-06
2.29729487e-07
8.330647066e-05
0.0003317515886
0.00034651147
0.00034651147
0.0006293570413
0.001926726269
0.000297391362
0.0009090350982
0.000157922115
3.34842628e-05
1.020320357e-05
6.727232245e-06
3.780043491e-06
1.340201367e-06
1.340201367e-06
1.535438467e-06
2.673386255e-06
2.673386255e-06
0.00057862587
4.046587584e-05
4.046587584e-05
4.113209763e-06
4.408183804e-06
4.408183804e-06
4.416189556e-06
4.333170631e-06
0.0007518797433
6.537350265e-06
0.0001323301631
8.564664731e-05
3.85204483e-06
1.285184028e-07
1.194168076e-05
3.138390582e-05
7.104948924e-05
1.24118995e-06
4.285622513e-07
0.0001323301631
3.85204483e-06
0.0003879976043
2.945377329e-08
2.190086202e-08
2.516378944e-08
3.996314691e-08
7.966475028e-08
3.841448797e-06
1.633727275e-07
2.208002182e-07
3.156510442e-06
2.543874137e-07
2.430033414e-07
8.684043509e-05
8.122311946e-06
5.665739246e-07
3.365597099e-07
)
;
    }
}


// ************************************************************************* //
