/*--------------------------------*- C++ -*----------------------------------*\
  =========                 |
  \\      /  F ield         | OpenFOAM: The Open Source CFD Toolbox
   \\    /   O peration     | Website:  https://openfoam.org
    \\  /    A nd           | Version:  8
     \\/     M anipulation  |
\*---------------------------------------------------------------------------*/
FoamFile
{
    version     2.0;
    format      ascii;
    class       volScalarField;
    location    "2/wallFilmRegion";
    object      mu;
}
// * * * * * * * * * * * * * * * * * * * * * * * * * * * * * * * * * * * * * //

dimensions      [1 -1 -1 0 0 0 0];

internalField   nonuniform List<scalar> 
1342
(
0.0008861474167
0.0008861474476
0.0008861474744
0.0008861474569
0.000886147468
0.0008861474347
0.0008861474405
0.00088615187
0.0008861519117
0.000886150685
0.000886148999
0.0008861481183
0.0008861478221
0.0008861477367
0.0008861477036
0.0008861476559
0.0008861475923
0.0008861475666
0.0008861474265
0.000886147424
0.0008861474278
0.0008861474392
0.0008861474647
0.0008861475093
0.0008861475141
0.0008861537251
0.0008861512244
0.0008861490994
0.0008861481621
0.0008861478441
0.0008861477468
0.0008861477177
0.0008861476998
0.000886147643
0.0008861475611
0.0008861475342
0.0008861474724
0.0008861474394
0.0008861474371
0.00088614744
0.0008861474415
0.0008861474538
0.0008861475045
0.0008861483339
0.0008861479065
0.0008861477679
0.0008861477243
0.0008861477098
0.0008861476941
0.0008861476353
0.0008861475448
0.0008861484842
0.0008861483202
0.0008861481495
0.000886147982
0.0008861478393
0.0008861477249
0.0008861476055
0.0008861476024
0.0008861475166
0.0008861475509
0.0008861474656
0.0008861474798
0.0008861475077
0.0008861483115
0.0008861481408
0.0008861480686
0.0008861478465
0.0008861477359
0.0008861476594
0.0008861476662
0.0008861479118
0.000886148076
0.0008861484643
0.0008861474873
0.000886147489
0.0008861480214
0.0008861478724
0.0008861477675
0.0008861476901
0.0008861476991
0.0008861479275
0.0008861488448
0.0008861529497
0.0008861651354
0.0008861586993
0.0008861507094
0.0008861483945
0.0008861477461
0.0008861477849
0.0008861477208
0.0008861476971
0.0008861476836
0.0008861476565
0.0008861476165
0.0008861476107
0.0008861477382
0.0008861477252
0.0008861474276
0.0008861474161
0.0008861474222
0.0008861474204
0.0008861474198
0.0008861474197
0.0008861474178
0.0008861474625
0.0008861474259
0.0008861474314
0.0008861474709
0.0008861474405
0.0008861474569
0.0008861475427
0.000886147577
0.000886147492
0.0008861476131
0.0008861474428
0.0008861475429
0.0008861476313
0.0008861475904
0.0008861476047
0.0008861476368
0.0008861476127
0.0008861476153
0.0008861476351
0.000886147617
0.0008861476188
0.0008861476279
0.0008861476204
0.0008861476172
0.0008861476171
0.0008861476145
0.0008861476122
0.0008861476067
0.0008861476094
0.0008861476051
0.0008861475942
0.0008861476
0.000886147594
0.0008861474231
0.000886147438
0.0008861474333
0.0008861475991
0.0008861475082
0.0008861475595
0.0008861475464
0.0008861474484
0.0008861474297
0.0008861473388
0.0008861473427
0.0008861471944
0.0008861475396
0.0008861473242
0.0008861473662
0.0008861475808
0.0008861473923
0.0008861474389
0.0008861475913
0.0008861474838
0.0008861475249
0.0008861476065
0.0008861475958
0.0008861475979
0.0008861476046
0.0008861475958
0.0008861475948
0.0008861476023
0.0008861475956
0.0008861475944
0.0008861475918
0.0008861475904
0.0008861475856
0.0008861475144
0.0008861475804
0.0008861475742
0.0008861474429
0.0008861475663
0.0008861475452
0.0008861474277
0.0008861474771
0.0008861474519
0.0008861474443
0.0008861474668
0.000886147429
0.0008861474093
0.0008861473976
0.0008861473988
0.0008861470008
0.0008861473541
0.0008861469648
0.0008861471553
0.000886146864
0.0008861468409
0.0008861470136
0.0008861465532
0.0008861450844
0.0008861472487
0.0008861467501
0.0008861470351
0.0008861475915
0.0008861471545
0.0008861474348
0.0008861475858
0.0008861475792
0.0008861475908
0.0008861475785
0.0008861475907
0.0008861475886
0.0008861475684
0.0008861475851
0.00088614758
0.0008861475545
0.000886147574
0.0008861475694
0.0008861475293
0.0008861475654
0.0008861475584
0.0008861474761
0.0008861475484
0.0008861475323
0.0008861474176
0.0008861474342
0.0008861474179
0.000886147396
0.0008861474107
0.000886147403
0.0008861471246
0.0008861473905
0.000886147266
0.0008861464256
0.0008861465187
0.0008861461503
0.0008861456763
0.0008861458828
0.0008861457869
0.0008861470409
0.0008861473456
0.0008861472013
0.0008861472823
0.0008861472359
0.0008861471689
0.0008861475128
0.0008861469572
0.0008861469908
0.0008861475712
0.0008861472368
0.0008861473255
0.0008861475828
0.0008861473728
0.0008861474127
0.0008861475751
0.0008861474627
0.0008861475174
0.0008861475642
0.0008861475523
0.0008861475632
0.0008861475581
0.0008861474974
0.0008861474734
0.0008861475158
0.0008861474395
0.0008861474361
0.0008861474207
0.0008861474222
0.0008861474199
0.0008861474114
0.0008861474177
0.000886147415
0.0008861473792
0.000886147411
0.0008861474037
0.0008861460778
0.0008861473912
0.0008861474207
0.0008861470163
0.0008861474248
0.0008861474144
0.0008861473357
0.0008861473855
0.0008861473685
0.0008861472478
0.0008861473512
0.0008861472869
0.0008861470733
0.0008861472099
0.000886147164
0.0008861473506
0.0008861473248
0.0008861473761
0.0008861473941
0.0008861473978
0.0008861474083
0.0008861474113
0.0008861474144
0.0008861474187
0.0008861474249
0.0008861474231
0.0008861474253
0.0008861474498
0.0008861474383
0.0008861474429
0.0008861474309
0.0008861474323
0.0008861474305
0.000886147412
0.0008861473844
0.0008861473878
0.0008861474127
0.0008861473911
0.0008861473945
0.0008861474124
0.0008861473979
0.0008861474011
0.0008861474091
0.0008861474038
0.0008861474056
0.0008861474035
0.0008861474062
0.0008861474053
0.0008861473861
0.0008861474023
0.0008861473955
0.0008861473118
0.0008861473794
0.0008861460301
0.0008861472147
0.0008861470672
0.0008861473054
0.0008861473925
0.0008861473784
0.0008861474046
0.0008861474187
0.0008861474179
0.0008861474255
0.0008861474272
0.0008861474294
0.0008861474291
0.0008861474258
0.0008861474261
0.0008861474253
0.0008861474382
0.000886147436
0.000886147434
0.0008861473672
0.0008861473923
0.0008861473738
0.0008861473932
0.0008861473925
0.000886147377
0.0008861473903
0.0008861473867
0.0008861473851
0.0008861473818
0.0008861473776
0.0008861473984
0.0008861473779
0.000886147385
0.0008861474064
0.0008861473954
0.0008861474032
0.0008861474038
0.0008861474092
0.0008861474124
0.00088614693
0.0008861474013
0.0008861470759
0.0008861472838
0.0008861471839
0.0008861472706
0.0008861473677
0.0008861473143
0.0008861473328
0.0008861473794
0.000886147338
0.0008861473401
0.0008861474285
0.0008861474289
0.0008861474267
0.0008861474244
0.0008861474242
0.0008861474235
0.0008861474292
0.0008861474242
0.0008861474239
0.0008861474109
0.0008861474177
0.0008861474104
0.0008861474176
0.0008861474174
0.0008861474077
0.000886147417
0.0008861474164
0.000886147404
0.0008861474159
0.0008861474159
0.0008861474039
0.0008861474162
0.0008861474167
0.0008861474102
0.000886147417
0.0008861474172
0.0008861474133
0.0008861474174
0.0008861474176
0.0008861474204
0.0008861474177
0.0008861474179
0.0008861474313
0.0008861474182
0.0008861474188
0.0008861474338
0.0008861474199
0.000886147421
0.0008861474338
0.000886147421
0.0008861474218
0.0008861474261
0.0008861474284
0.0008861474271
0.0008861487322
0.0008861487013
0.0008861486851
0.0008861486747
0.0008861486328
0.0008861485746
0.0008861485739
0.0008861485003
0.000886148408
0.0008861484164
0.000886148325
0.0008861482024
0.0008861482269
0.000886148125
0.0008861479984
0.0008861480268
0.0008861479433
0.0008861479278
0.0008861478961
0.000886147869
0.0008861477312
0.0008861477831
0.0008861476563
0.0008861474699
0.0008861475196
0.0008861474777
0.0008861474387
0.0008861474334
0.0008861474304
0.0008861474275
0.0008861474227
0.0008861474275
0.0008861486628
0.0008861485738
0.0008861484239
0.0008861482461
0.0008861480557
0.0008861478939
0.0008861478086
0.0008861476129
0.0008861486218
0.0008861485768
0.0008861481779
0.0008861480874
0.0008861479991
0.0008861479188
0.0008861475946
0.0008861475097
0.0008861475436
0.0008861475688
0.000886147452
0.0008861475028
0.0008861474402
0.0008861474674
0.0008861474551
0.0008861485451
0.0008861484067
0.0008861482333
0.0008861482563
0.0008861481741
0.0008861480647
0.0008861481003
0.0008861479061
0.0008861477807
0.0008861478066
0.0008861477531
0.0008861476641
0.0008861477016
0.0008861476491
0.0008861475772
0.000886147641
0.0008861475385
0.0008861477447
0.0008861475005
0.0008861476279
0.0008861476025
0.0008861478141
0.0008861483949
0.0008861479717
0.0008861479189
0.0008861479145
0.000886147692
0.0008861476801
0.0008861476454
0.0008861476996
0.0008861477697
0.0008861477438
0.0008861479216
0.0008861482674
0.000886151571
0.0008861492918
0.0008861478673
0.0008861477274
0.0008861478619
0.0008861653826
0.0008861537605
0.0008861474543
0.0008861487313
0.0008861474753
0.0008861487363
0.0008861475164
0.0008861486735
0.0008861476263
0.0008861485264
0.0008861478787
0.0008861483062
0.0008861476478
0.0008861481044
0.0008861477678
0.0008861480404
0.0008861476784
0.000886147724
0.0008861474199
0.0008861474466
0.0008861474329
0.0008861475486
0.0008861475858
0.0008861476246
0.0008861476353
0.0008861476367
0.0008861476322
0.0008861476228
0.0008861476122
0.0008861476014
0.0008861474263
0.0008861474211
0.0008861474164
0.0008861474196
0.0008861474163
0.0008861475886
0.0008861475981
0.0008861473573
0.0008861474731
0.0008861475719
0.0008861475841
0.0008861476086
0.0008861476049
0.0008861476044
0.000886147598
0.0008861475795
0.00088614745
0.000886147435
0.0008861474167
0.0008861474169
0.000886147424
0.0008861474883
0.000886147402
0.0008861473378
0.000886147139
0.0008861471279
0.0008861463009
0.0008861475447
0.0008861475893
0.0008861475823
0.000886147574
0.0008861475619
0.0008861475427
0.0008861475054
0.0008861474794
0.0008861474556
0.000886147403
0.0008861473795
0.0008861465693
0.0008861460498
0.0008861467293
0.0008861471587
0.0008861474368
0.0008861475498
0.0008861475812
0.0008861475798
0.00088614757
0.000886147561
0.0008861475478
0.0008861474262
0.0008861474166
0.0008861474038
0.0008861463386
0.0008861459967
0.0008861473862
0.0008861472983
0.0008861471103
0.0008861472803
0.0008861473801
0.0008861474027
0.0008861474145
0.0008861474427
0.0008861474343
0.0008861474115
0.0008861474124
0.0008861474127
0.0008861474115
0.0008861474069
0.0008861473975
0.0008861473625
0.0008861472682
0.0008861473525
0.0008861474096
0.0008861474242
0.0008861474261
0.0008861474382
0.0008861474311
0.0008861473718
0.0008861473752
0.00088614738
0.0008861473918
0.0008861474035
0.0008861474069
0.0008861473924
0.0008861471372
0.0008861473443
0.000886147376
0.00088614743
0.0008861474253
0.0008861474303
0.0008861474285
0.0008861474121
0.0008861474109
0.0008861474093
0.0008861474057
0.000886147403
0.0008861474079
0.0008861474118
0.0008861474152
0.0008861474277
0.0008861474329
0.0008861474344
0.0008861474301
0.0008861474244
0.000886147423
0.0008861474196
0.0008861474197
0.0008861474197
0.0008861474198
0.0008861474198
0.0008861474199
0.0008861474199
0.0008861474207
0.0008861474431
0.0008861474258
0.0008861474435
0.0008861475581
0.0008861474552
0.0008861487378
0.0008861487155
0.0008861486382
0.000886148497
0.0008861483088
0.0008861480955
0.0008861479461
0.0008861478638
0.0008861475374
0.0008861474486
0.0008861474331
0.000886147457
0.0008861474232
0.000886147423
0.0008861474228
0.0008861474272
0.0008861475186
0.0008861475199
0.0008861486266
0.0008861485046
0.0008861484378
0.000886148337
0.0008861482664
0.0008861481511
0.0008861479669
0.0008861478495
0.0008861478079
0.0008861477186
0.0008861476773
0.0008861475217
0.0008861474714
0.0008861474787
0.0008861474875
0.0008861475146
0.0008861475908
0.0008861476077
0.0008861474966
0.0008861475107
0.0008861475748
0.000886147457
0.0008861479743
0.0008861479095
0.0008861477928
0.0008861477322
0.0008861477246
0.0008861477107
0.0008861476998
0.000886147695
0.0008861476804
0.0008861476225
0.0008861476189
0.0008861475369
0.0008861490209
0.0008861478357
0.0008861478256
0.0008861475012
0.0008861475005
0.0008861475755
0.0008861477479
0.0008861477325
0.0008861476915
0.0008861476734
0.00088614766
0.0008861476018
0.0008861475072
0.0008861475402
0.000886148011
0.0008861478346
0.0008861476942
0.0008861476339
0.0008861476226
0.0008861477211
0.00088614766
0.0008861479531
0.0008861505349
0.0008861560579
0.0008861479016
0.0008861478765
0.0008861477908
0.0008861476635
0.0008861475919
0.0008861476976
0.0008861484331
0.0008861516362
0.0008861556183
0.0008861477376
0.000886147729
0.0008861477324
0.000886147703
0.0008861476186
0.0008861476089
0.0008861479581
0.0008861493301
0.0008861513136
0.0008861477568
0.0008861477118
0.0008861476966
0.0008861476874
0.000886147641
0.0008861475934
0.0008861477131
0.0008861483019
0.0008861491861
0.0008861474476
0.0008861487113
0.0008861474398
0.0008861487503
0.0008861474634
0.0008861487405
0.0008861474467
0.0008861474535
0.0008861487437
0.0008861487247
0.0008861474916
0.000886148715
0.0008861474615
0.0008861474696
0.0008861486901
0.000886148638
0.0008861475562
0.0008861486105
0.0008861474703
0.0008861474652
0.000886148569
0.0008861484849
0.0008861477396
0.0008861484235
0.0008861474573
0.0008861474538
0.0008861483872
0.0008861482789
0.0008861479158
0.0008861481738
0.0008861474489
0.0008861474345
0.0008861481663
0.0008861480557
0.0008861477039
0.000886148074
0.0008861474436
0.0008861474842
0.0008861479977
0.0008861479792
0.0008861478047
0.0008861479712
0.0008861474904
0.0008861474978
0.0008861479327
0.0008861478209
0.0008861474922
0.0008861474509
0.0008861474843
0.0008861474456
0.000886147578
0.0008861474647
0.0008861474309
0.0008861474237
0.0008861474423
0.000886147421
0.00088614742
0.0008861474279
0.0008861474266
0.0008861474237
0.000886147421
0.0008861474199
0.0008861474448
0.0008861474198
0.00088614742
0.0008861475111
0.000886147535
0.0008861474581
0.0008861474955
0.0008861474208
0.0008861474223
0.0008861474304
0.0008861474298
0.0008861474549
0.0008861474444
0.0008861474298
0.0008861474863
0.0008861475102
0.0008861475249
0.0008861474368
0.0008861474246
0.0008861475378
0.0008861474235
0.0008861474318
0.000886147561
0.0008861474292
0.0008861474346
0.0008861474225
0.0008861474252
0.0008861475413
0.0008861475413
0.0008861475371
0.0008861474195
0.000886147424
0.0008861515383
0.0008861533356
0.0008861474197
0.0008861474244
0.0008861474248
0.0008861520088
0.0008861536522
0.000886153073
0.0008861474197
0.0008861474252
0.0008861474255
0.0008861514675
0.0008861520065
0.0008861507722
0.0008861474198
0.0008861474258
0.0008861474261
0.0008861497783
0.0008861496827
0.0008861488918
0.0008861474198
0.0008861474264
0.0008861474267
0.0008861484538
0.0008861483848
0.0008861480833
0.0008861474199
0.0008861474273
0.0008861474283
0.0008861479268
0.0008861479119
0.0008861478172
0.00088614742
0.0008861474302
0.0008861474346
0.0008861477664
0.0008861477659
0.0008861477382
0.00088614742
0.0008861474468
0.0008861474747
0.0008861477193
0.000886147723
0.0008861477129
0.0008861474273
0.0008861475111
0.0008861475829
0.000886147683
0.0008861477013
0.0008861476813
0.0008861474402
0.0008861476069
0.0008861476005
0.0008861476221
0.0008861476474
0.000886147604
0.0008861474244
0.0008861475805
0.0008861475528
0.0008861475751
0.0008861475702
0.000886147553
0.0008861475602
0.0008861474685
0.0008861475293
0.0008861475375
0.0008861475426
0.0008861475314
0.0008861475308
0.0008861474242
0.000886147429
0.0008861474227
0.0008861474284
0.0008861474382
0.0008861474255
0.0008861474299
0.0008861474395
0.0008861474311
0.000886147432
0.0008861474321
0.0008861474341
0.00088614745
0.000886147439
0.0008861474473
0.0008861474806
0.0008861474938
0.0008861474575
0.0008861474682
0.0008861474904
0.0008861475047
0.0008861474799
0.0008861475139
0.0008861475037
0.0008861474984
0.0008861474974
0.0008861535114
0.0008861526119
0.0008861499993
0.0008861492957
0.0008861485148
0.0008861486384
0.0008861482384
0.0008861479584
0.0008861480048
0.0008861478718
0.0008861477811
0.0008861477972
0.000886147756
0.0008861477282
0.0008861477333
0.0008861477208
0.00088614771
0.0008861477135
0.0008861477073
0.0008861476795
0.0008861476975
0.0008861476768
0.000886147596
0.0008861476388
0.000886147589
0.0008861475449
0.0008861475526
0.0008861475366
0.0008861475281
0.000886147528
0.0008861475152
0.0008861475085
0.0008861475108
0.0008861485145
0.0008861483533
0.0008861478531
0.0008861477606
0.0008861474441
0.00088614748
0.0008861474604
0.0008861474586
0.0008861474576
0.0008861474944
0.0008861474589
0.0008861474391
0.0008861474411
0.000886147471
0.000886147461
0.0008861474526
0.0008861474393
0.0008861474509
0.0008861474711
0.0008861474471
0.0008861474511
0.0008861474481
0.0008861474592
0.0008861474644
0.0008861474542
0.0008861474595
0.0008861474683
0.0008861474732
0.0008861474731
0.0008861474909
0.0008861474932
0.0008861474961
0.0008861474796
0.0008861474829
0.000886148478
0.0008861487941
0.0008861480627
0.0008861481491
0.0008861479579
0.0008861478482
0.0008861477856
0.0008861478178
0.0008861477501
0.0008861477298
0.00088614774
0.0008861477154
0.0008861477181
0.0008861477112
0.0008861477062
0.0008861477004
0.0008861477041
0.0008861476689
0.0008861476731
0.00088614769
0.000886147632
0.0008861475851
0.0008861475844
0.000886147532
0.0008861475447
0.0008861475189
0.0008861475076
0.0008861475104
0.0008861475013
0.0008861474972
0.0008861484951
0.0008861484262
0.0008861483433
0.0008861480134
0.0008861479359
0.0008861478671
0.0008861476079
0.0008861476044
0.0008861476686
0.0008861478636
0.0008861482228
0.000886148079
0.0008861477875
0.0008861476924
0.0008861476751
0.0008861481037
0.0008861479802
0.0008861476641
0.0008861475129
0.0008861475409
0.0008861476549
0.0008861476748
0.0008861475223
0.0008861474919
0.0008861475867
0.0008861474755
0.0008861475337
0.0008861474575
0.0008861474628
0.0008861474723
0.0008861474663
0.0008861474882
0.0008861474705
0.0008861474767
0.0008861478392
0.0008861478223
0.0008861477817
0.0008861477718
0.0008861477422
0.0008861477147
0.0008861477059
0.0008861477063
0.0008861476991
0.0008861476851
0.000886147687
0.0008861476747
0.0008861476743
0.0008861476527
0.0008861476092
0.000886147575
0.0008861475407
0.0008861475453
0.0008861474906
0.0008861474987
0.0008861474963
0.0008861475012
0.0008861474824
0.000886147482
0.0008861474845
0.0008861481739
0.0008861480604
0.0008861478591
0.0008861477546
0.000886147719
0.0008861477136
0.000886147705
0.0008861477007
0.0008861476926
0.0008861476585
0.0008861475758
0.0008861475763
0.0008861475146
0.0008861475176
0.0008861482752
0.0008861481845
0.0008861481011
0.0008861480309
0.0008861478329
0.0008861477727
0.0008861477247
0.0008861482129
0.000886148712
0.0008861494925
0.0008861502134
0.0008861481168
0.0008861480444
0.0008861479398
0.0008861479531
0.0008861478161
0.0008861477912
0.0008861477225
0.0008861476778
0.0008861476449
0.0008861476786
0.0008861476541
0.0008861477703
0.0008861482427
0.0008861481212
0.0008861485904
0.000886150259
0.0008861491713
0.0008861520479
0.0008861568141
0.0008861572846
0.0008861491753
0.0008861755416
0.000886150451
0.00088617416
0.0008861499883
0.0008861480662
0.0008861646572
0.0008861503244
0.0008861535057
0.0008861480599
0.0008861488223
0.000886148401
0.0008861492562
0.0008861486115
0.0008861480223
0.0008861477925
0.0008861481445
0.0008861478699
0.0008861476516
0.0008861476941
0.0008861476058
0.0008861475496
0.0008861475319
0.0008861476447
0.0008861478349
0.0008861477993
0.0008861477759
0.0008861477576
0.0008861477412
0.0008861477201
0.0008861477067
0.0008861476904
0.0008861477063
0.0008861476977
0.0008861476911
0.0008861476847
0.0008861476838
0.0008861476755
0.0008861476364
0.0008861476613
0.0008861476434
0.0008861476032
0.000886147643
0.0008861476242
0.0008861476229
0.0008861476072
0.0008861476023
0.000886147625
0.0008861475766
0.0008861476723
0.000886147708
0.0008861475568
0.0008861475201
0.0008861474998
0.0008861476295
0.0008861475184
0.0008861475131
0.000886147938
0.0008861478706
0.0008861477275
0.0008861477168
0.0008861476984
0.0008861476928
0.0008861476598
0.0008861476387
0.0008861475866
0.0008861475232
0.0008861475588
0.0008861480932
0.0008861480451
0.0008861479216
0.0008861480135
0.0008861479641
0.0008861477573
0.0008861478976
0.0008861478206
0.0008861476481
0.0008861477437
0.0008861476775
0.0008861476232
0.0008861476296
0.0008861476062
0.0008861477516
0.0008861476147
0.0008861476684
0.0008861485476
0.0008861477992
0.0008861481285
0.0008861520678
0.0008861489907
0.0008861505885
0.000886162102
0.000886153648
0.0008861576936
0.0008861585424
0.0008861479045
0.0008861477865
0.0008861478946
0.0008861477855
0.0008861477871
0.0008861478423
0.0008861477901
0.0008861477882
0.0008861477272
0.0008861477749
0.0008861477442
0.0008861476142
0.0008861476968
0.0008861476426
0.0008861476108
0.0008861475999
0.0008861475905
0.0008861479182
0.0008861476418
0.0008861478006
0.00088614959
0.000886148165
0.0008861489324
0.0008861544268
0.0008861502632
0.0008861521382
0.0008861519995
0.0008861531294
0.0008861502576
0.0008861491806
0.0008861477536
0.0008861477807
0.000886147731
0.0008861477419
0.0008861477216
0.0008861477297
0.0008861477115
0.0008861477067
0.0008861477261
0.0008861477049
0.0008861477048
0.0008861476634
0.0008861476953
0.0008861476698
0.0008861475908
0.0008861476328
0.0008861475997
0.0008861477103
0.0008861475947
0.000886147649
0.0008861484622
0.0008861478073
0.0008861481363
0.0008861505702
0.0008861487027
0.0008861495015
0.0008861491619
0.0008861498137
0.0008861485347
0.0008861479365
0.00088614785
0.0008861478061
0.0008861478262
0.000886147854
0.0008861477283
0.0008861477692
0.0008861477357
0.0008861477446
0.0008861477023
0.0008861477157
0.0008861477034
0.0008861477063
0.0008861476929
0.0008861476955
0.0008861476896
0.0008861476701
0.0008861476832
0.0008861476696
0.000886147673
0.0008861476098
0.0008861476462
0.0008861476184
0.0008861476162
0.0008861475977
0.0008861476022
0.0008861479289
0.0008861476601
0.0008861478073
0.0008861476581
0.0008861488105
0.0008861480746
0.0008861484849
0.0008861478699
0.0008861477716
)
;

boundaryField
{
    walls
    {
        type            zeroGradient;
    }
    wallFilmFace_top
    {
        type            zeroGradient;
    }
    region0_to_wallFilmRegion_wallFilmFace
    {
        type            zeroGradient;
    }
    mirrorFace_top
    {
        type            zeroGradient;
    }
    region0_to_wallFilmRegion_mirrorFace
    {
        type            zeroGradient;
    }
    procBoundary3to2
    {
        type            processor;
        value           nonuniform List<scalar> 
64
(
0.0008861509186
0.0008861511616
0.0008861531721
0.0008861503029
0.0008861495445
0.0008861485874
0.000886148462
0.0008861482183
0.0008861479728
0.0008861475697
0.0008861475766
0.000886147594
0.000886147594
0.0008861475517
0.0008861475146
0.0008861474759
0.0008861474649
0.0008861474675
0.0008861474622
0.0008861474426
0.0008861474273
0.0008861474124
0.0008861473817
0.0008861473817
0.0008861473848
0.0008861473973
0.0008861473973
0.0008861475203
0.0008861474178
0.0008861474178
0.0008861487346
0.0008861487155
0.0008861487155
0.0008861486848
0.000886148651
0.0008861474426
0.0008861486807
0.0008861474366
0.0008861474194
0.0008861487468
0.0008861485172
0.0008861481369
0.0008861481597
0.0008861479029
0.0008861477892
0.0008861478919
0.0008861474366
0.0008861487468
0.000886147423
0.0008861515901
0.0008861529985
0.0008861516947
0.0008861503029
0.0008861490306
0.0008861485454
0.0008861483208
0.0008861481089
0.0008861483597
0.0008861479938
0.0008861479368
0.0008861480613
0.0008861477915
0.0008861478528
0.0008861479235
)
;
    }
}


// ************************************************************************* //
