/*--------------------------------*- C++ -*----------------------------------*\
  =========                 |
  \\      /  F ield         | OpenFOAM: The Open Source CFD Toolbox
   \\    /   O peration     | Website:  https://openfoam.org
    \\  /    A nd           | Version:  8
     \\/     M anipulation  |
\*---------------------------------------------------------------------------*/
FoamFile
{
    version     2.0;
    format      ascii;
    class       volScalarField;
    location    "2/wallFilmRegion";
    object      sigma;
}
// * * * * * * * * * * * * * * * * * * * * * * * * * * * * * * * * * * * * * //

dimensions      [1 0 -2 0 0 0 0];

internalField   nonuniform List<scalar> 
1342
(
0.07244713489
0.07244713521
0.07244713549
0.07244713531
0.07244713542
0.07244713508
0.07244713514
0.07244718113
0.07244718156
0.07244716883
0.07244715132
0.07244714218
0.0724471391
0.07244713821
0.07244713787
0.07244713737
0.07244713671
0.07244713645
0.07244713499
0.07244713497
0.072447135
0.07244713512
0.07244713539
0.07244713585
0.0724471359
0.07244720039
0.07244717443
0.07244715236
0.07244714263
0.07244713933
0.07244713832
0.07244713801
0.07244713783
0.07244713724
0.07244713639
0.07244713611
0.07244713547
0.07244713513
0.0724471351
0.07244713513
0.07244713515
0.07244713528
0.0724471358
0.07244714441
0.07244713998
0.07244713854
0.07244713808
0.07244713793
0.07244713777
0.07244713716
0.07244713622
0.07244714597
0.07244714427
0.0724471425
0.07244714076
0.07244713928
0.07244713809
0.07244713685
0.07244713682
0.07244713593
0.07244713628
0.0724471354
0.07244713555
0.07244713583
0.07244714418
0.07244714241
0.07244714166
0.07244713935
0.0724471382
0.07244713741
0.07244713748
0.07244714003
0.07244714174
0.07244714577
0.07244713562
0.07244713564
0.07244714117
0.07244713962
0.07244713853
0.07244713773
0.07244713782
0.07244714019
0.07244714972
0.07244719234
0.07244731887
0.07244725204
0.07244716908
0.07244714504
0.07244713831
0.07244713871
0.07244713805
0.0724471378
0.07244713766
0.07244713738
0.07244713696
0.0724471369
0.07244713823
0.07244713809
0.072447135
0.07244713488
0.07244713495
0.07244713493
0.07244713492
0.07244713492
0.0724471349
0.07244713536
0.07244713498
0.07244713504
0.07244713545
0.07244713514
0.07244713531
0.0724471362
0.07244713655
0.07244713567
0.07244713693
0.07244713516
0.0724471362
0.07244713712
0.07244713669
0.07244713684
0.07244713718
0.07244713692
0.07244713695
0.07244713716
0.07244713697
0.07244713699
0.07244713708
0.07244713701
0.07244713697
0.07244713697
0.07244713694
0.07244713692
0.07244713686
0.07244713689
0.07244713685
0.07244713673
0.07244713679
0.07244713673
0.07244713496
0.07244713511
0.07244713506
0.07244713678
0.07244713584
0.07244713637
0.07244713624
0.07244713522
0.07244713502
0.07244713408
0.07244713412
0.07244713258
0.07244713617
0.07244713393
0.07244713436
0.07244713659
0.07244713464
0.07244713512
0.0724471367
0.07244713559
0.07244713601
0.07244713686
0.07244713675
0.07244713677
0.07244713684
0.07244713675
0.07244713674
0.07244713682
0.07244713675
0.07244713673
0.07244713671
0.07244713669
0.07244713664
0.0724471359
0.07244713659
0.07244713652
0.07244713516
0.07244713644
0.07244713622
0.072447135
0.07244713552
0.07244713525
0.07244713518
0.07244713541
0.07244713502
0.07244713481
0.07244713469
0.0724471347
0.07244713057
0.07244713424
0.0724471302
0.07244713218
0.07244712915
0.07244712891
0.0724471307
0.07244712592
0.07244711067
0.07244713315
0.07244712797
0.07244713093
0.07244713671
0.07244713217
0.07244713508
0.07244713665
0.07244713658
0.0724471367
0.07244713657
0.0724471367
0.07244713667
0.07244713646
0.07244713664
0.07244713659
0.07244713632
0.07244713652
0.07244713648
0.07244713606
0.07244713643
0.07244713636
0.07244713551
0.07244713626
0.07244713609
0.0724471349
0.07244713507
0.0724471349
0.07244713468
0.07244713483
0.07244713475
0.07244713186
0.07244713462
0.07244713332
0.0724471246
0.07244712557
0.07244712174
0.07244711682
0.07244711896
0.07244711797
0.07244713099
0.07244713415
0.07244713265
0.07244713349
0.07244713301
0.07244713232
0.07244713589
0.07244713012
0.07244713047
0.07244713649
0.07244713302
0.07244713394
0.07244713661
0.07244713443
0.07244713485
0.07244713653
0.07244713537
0.07244713594
0.07244713642
0.0724471363
0.07244713641
0.07244713636
0.07244713573
0.07244713548
0.07244713592
0.07244713513
0.07244713509
0.07244713493
0.07244713495
0.07244713492
0.07244713483
0.0724471349
0.07244713487
0.0724471345
0.07244713483
0.07244713475
0.07244712099
0.07244713463
0.07244713493
0.07244713073
0.07244713497
0.07244713487
0.07244713405
0.07244713457
0.07244713439
0.07244713314
0.07244713421
0.07244713354
0.07244713132
0.07244713274
0.07244713227
0.0724471342
0.07244713394
0.07244713447
0.07244713466
0.07244713469
0.0724471348
0.07244713483
0.07244713487
0.07244713491
0.07244713498
0.07244713496
0.07244713498
0.07244713523
0.07244713511
0.07244713516
0.07244713504
0.07244713505
0.07244713503
0.07244713484
0.07244713455
0.07244713459
0.07244713485
0.07244713462
0.07244713466
0.07244713484
0.07244713469
0.07244713473
0.07244713481
0.07244713476
0.07244713477
0.07244713475
0.07244713478
0.07244713477
0.07244713457
0.07244713474
0.07244713467
0.0724471338
0.0724471345
0.07244712049
0.07244713279
0.07244713126
0.07244713373
0.07244713464
0.07244713449
0.07244713476
0.07244713491
0.0724471349
0.07244713498
0.072447135
0.07244713502
0.07244713502
0.07244713498
0.07244713499
0.07244713498
0.07244713511
0.07244713509
0.07244713507
0.07244713438
0.07244713464
0.07244713444
0.07244713465
0.07244713464
0.07244713448
0.07244713462
0.07244713458
0.07244713456
0.07244713453
0.07244713448
0.0724471347
0.07244713449
0.07244713456
0.07244713478
0.07244713467
0.07244713475
0.07244713476
0.07244713481
0.07244713484
0.07244712984
0.07244713473
0.07244713135
0.07244713351
0.07244713247
0.07244713337
0.07244713438
0.07244713383
0.07244713402
0.0724471345
0.07244713407
0.07244713409
0.07244713501
0.07244713502
0.07244713499
0.07244713497
0.07244713497
0.07244713496
0.07244713502
0.07244713497
0.07244713496
0.07244713483
0.0724471349
0.07244713482
0.0724471349
0.0724471349
0.0724471348
0.07244713489
0.07244713489
0.07244713476
0.07244713488
0.07244713488
0.07244713476
0.07244713488
0.07244713489
0.07244713482
0.07244713489
0.07244713489
0.07244713485
0.0724471349
0.0724471349
0.07244713493
0.0724471349
0.0724471349
0.07244713504
0.07244713491
0.07244713491
0.07244713507
0.07244713492
0.07244713493
0.07244713507
0.07244713493
0.07244713494
0.07244713499
0.07244713501
0.072447135
0.07244714855
0.07244714823
0.07244714806
0.07244714795
0.07244714752
0.07244714691
0.07244714691
0.07244714614
0.07244714518
0.07244714527
0.07244714432
0.07244714305
0.0724471433
0.07244714224
0.07244714093
0.07244714122
0.07244714036
0.0724471402
0.07244713987
0.07244713959
0.07244713816
0.07244713869
0.07244713738
0.07244713544
0.07244713596
0.07244713552
0.07244713512
0.07244713506
0.07244713503
0.072447135
0.07244713495
0.072447135
0.07244714783
0.0724471469
0.07244714535
0.0724471435
0.07244714152
0.07244713984
0.07244713896
0.07244713693
0.0724471474
0.07244714694
0.07244714279
0.07244714185
0.07244714094
0.0724471401
0.07244713674
0.07244713586
0.07244713621
0.07244713647
0.07244713526
0.07244713578
0.07244713513
0.07244713542
0.07244713529
0.07244714661
0.07244714517
0.07244714337
0.07244714361
0.07244714275
0.07244714162
0.07244714199
0.07244713997
0.07244713867
0.07244713894
0.07244713838
0.07244713746
0.07244713785
0.0724471373
0.07244713656
0.07244713722
0.07244713615
0.0724471383
0.07244713576
0.07244713708
0.07244713682
0.07244713902
0.07244714505
0.07244714065
0.0724471401
0.07244714006
0.07244713775
0.07244713762
0.07244713726
0.07244713783
0.07244713856
0.07244713829
0.07244714013
0.07244714372
0.07244717803
0.07244715436
0.07244713957
0.07244713812
0.07244713951
0.07244732144
0.07244720076
0.07244713528
0.07244714854
0.0724471355
0.07244714859
0.07244713592
0.07244714794
0.07244713707
0.07244714641
0.07244713969
0.07244714413
0.07244713729
0.07244714203
0.07244713853
0.07244714137
0.07244713761
0.07244713808
0.07244713492
0.0724471352
0.07244713506
0.07244713626
0.07244713665
0.07244713705
0.07244713716
0.07244713717
0.07244713713
0.07244713703
0.07244713692
0.07244713681
0.07244713499
0.07244713494
0.07244713489
0.07244713492
0.07244713489
0.07244713667
0.07244713677
0.07244713427
0.07244713548
0.0724471365
0.07244713663
0.07244713688
0.07244713684
0.07244713684
0.07244713677
0.07244713658
0.07244713524
0.07244713508
0.07244713489
0.07244713489
0.07244713497
0.07244713563
0.07244713474
0.07244713407
0.07244713201
0.07244713189
0.0724471233
0.07244713622
0.07244713668
0.07244713661
0.07244713652
0.0724471364
0.0724471362
0.07244713581
0.07244713554
0.07244713529
0.07244713475
0.0724471345
0.07244712609
0.0724471207
0.07244712775
0.07244713221
0.0724471351
0.07244713627
0.0724471366
0.07244713658
0.07244713648
0.07244713639
0.07244713625
0.07244713499
0.07244713489
0.07244713476
0.0724471237
0.07244712015
0.07244713457
0.07244713366
0.07244713171
0.07244713347
0.07244713451
0.07244713474
0.07244713487
0.07244713516
0.07244713507
0.07244713484
0.07244713485
0.07244713485
0.07244713484
0.07244713479
0.07244713469
0.07244713433
0.07244713335
0.07244713422
0.07244713482
0.07244713497
0.07244713499
0.07244713511
0.07244713504
0.07244713442
0.07244713446
0.07244713451
0.07244713463
0.07244713475
0.07244713479
0.07244713464
0.07244713199
0.07244713414
0.07244713447
0.07244713503
0.07244713498
0.07244713503
0.07244713501
0.07244713484
0.07244713483
0.07244713481
0.07244713478
0.07244713475
0.0724471348
0.07244713484
0.07244713487
0.072447135
0.07244713506
0.07244713507
0.07244713503
0.07244713497
0.07244713495
0.07244713492
0.07244713492
0.07244713492
0.07244713492
0.07244713492
0.07244713492
0.07244713492
0.07244713493
0.07244713516
0.07244713498
0.07244713517
0.07244713636
0.07244713529
0.07244714861
0.07244714838
0.07244714757
0.07244714611
0.07244714415
0.07244714194
0.07244714039
0.07244713953
0.07244713614
0.07244713522
0.07244713506
0.07244713531
0.07244713496
0.07244713496
0.07244713495
0.072447135
0.07244713595
0.07244713596
0.07244714745
0.07244714619
0.07244714549
0.07244714445
0.07244714371
0.07244714251
0.0724471406
0.07244713938
0.07244713895
0.07244713802
0.0724471376
0.07244713598
0.07244713546
0.07244713553
0.07244713563
0.07244713591
0.0724471367
0.07244713687
0.07244713572
0.07244713587
0.07244713653
0.07244713531
0.07244714068
0.07244714001
0.07244713879
0.07244713817
0.07244713809
0.07244713794
0.07244713783
0.07244713778
0.07244713763
0.07244713703
0.07244713699
0.07244713614
0.07244715155
0.07244713924
0.07244713914
0.07244713577
0.07244713576
0.07244713654
0.07244713833
0.07244713817
0.07244713774
0.07244713756
0.07244713742
0.07244713681
0.07244713583
0.07244713617
0.07244714106
0.07244713923
0.07244713777
0.07244713715
0.07244713703
0.07244713805
0.07244713742
0.07244714046
0.07244716727
0.07244722462
0.07244713992
0.07244713966
0.07244713877
0.07244713745
0.07244713671
0.07244713781
0.07244714544
0.0724471787
0.07244722005
0.07244713822
0.07244713813
0.07244713817
0.07244713786
0.07244713699
0.07244713688
0.07244714051
0.07244715476
0.07244717535
0.07244713842
0.07244713795
0.0724471378
0.0724471377
0.07244713722
0.07244713672
0.07244713797
0.07244714408
0.07244715326
0.07244713521
0.07244714833
0.07244713513
0.07244714874
0.07244713537
0.07244714864
0.0724471352
0.07244713527
0.07244714867
0.07244714847
0.07244713567
0.07244714837
0.07244713535
0.07244713544
0.07244714811
0.07244714757
0.07244713634
0.07244714729
0.07244713545
0.07244713539
0.07244714686
0.07244714598
0.07244713824
0.07244714534
0.07244713531
0.07244713528
0.07244714497
0.07244714384
0.07244714007
0.07244714275
0.07244713522
0.07244713507
0.07244714267
0.07244714152
0.07244713787
0.07244714171
0.07244713517
0.07244713559
0.07244714092
0.07244714073
0.07244713892
0.07244714065
0.07244713565
0.07244713573
0.07244714025
0.07244713909
0.07244713567
0.07244713524
0.07244713559
0.07244713519
0.07244713656
0.07244713539
0.07244713504
0.07244713496
0.07244713516
0.07244713493
0.07244713492
0.07244713501
0.07244713499
0.07244713496
0.07244713493
0.07244713492
0.07244713518
0.07244713492
0.07244713492
0.07244713587
0.07244713612
0.07244713532
0.07244713571
0.07244713493
0.07244713495
0.07244713503
0.07244713503
0.07244713529
0.07244713518
0.07244713503
0.07244713561
0.07244713586
0.07244713601
0.0724471351
0.07244713497
0.07244713615
0.07244713496
0.07244713505
0.07244713639
0.07244713502
0.07244713508
0.07244713495
0.07244713498
0.07244713618
0.07244713618
0.07244713614
0.07244713492
0.07244713497
0.07244717769
0.07244719635
0.07244713492
0.07244713497
0.07244713497
0.07244718257
0.07244719964
0.07244719362
0.07244713492
0.07244713498
0.07244713498
0.07244717695
0.07244718255
0.07244716973
0.07244713492
0.07244713498
0.07244713499
0.07244715941
0.07244715842
0.07244715021
0.07244713492
0.07244713499
0.07244713499
0.07244714566
0.07244714494
0.07244714181
0.07244713492
0.072447135
0.07244713501
0.07244714019
0.07244714003
0.07244713905
0.07244713492
0.07244713503
0.07244713508
0.07244713852
0.07244713852
0.07244713823
0.07244713492
0.0724471352
0.07244713549
0.07244713803
0.07244713807
0.07244713796
0.072447135
0.07244713587
0.07244713662
0.07244713765
0.07244713785
0.07244713764
0.07244713513
0.07244713686
0.0724471368
0.07244713702
0.07244713729
0.07244713683
0.07244713497
0.07244713659
0.0724471363
0.07244713653
0.07244713648
0.07244713631
0.07244713638
0.07244713543
0.07244713606
0.07244713614
0.0724471362
0.07244713608
0.07244713607
0.07244713497
0.07244713502
0.07244713495
0.07244713501
0.07244713511
0.07244713498
0.07244713503
0.07244713513
0.07244713504
0.07244713505
0.07244713505
0.07244713507
0.07244713524
0.07244713512
0.07244713521
0.07244713555
0.07244713569
0.07244713531
0.07244713542
0.07244713566
0.0724471358
0.07244713555
0.0724471359
0.07244713579
0.07244713574
0.07244713573
0.07244719817
0.07244718883
0.07244716171
0.0724471544
0.07244714629
0.07244714757
0.07244714342
0.07244714051
0.072447141
0.07244713961
0.07244713867
0.07244713884
0.07244713841
0.07244713812
0.07244713818
0.07244713805
0.07244713794
0.07244713797
0.07244713791
0.07244713762
0.07244713781
0.07244713759
0.07244713675
0.0724471372
0.07244713668
0.07244713622
0.0724471363
0.07244713613
0.07244713605
0.07244713605
0.07244713591
0.07244713584
0.07244713587
0.07244714629
0.07244714462
0.07244713942
0.07244713846
0.07244713517
0.07244713555
0.07244713534
0.07244713532
0.07244713531
0.0724471357
0.07244713533
0.07244713512
0.07244713514
0.07244713545
0.07244713535
0.07244713526
0.07244713512
0.07244713524
0.07244713545
0.07244713521
0.07244713525
0.07244713522
0.07244713533
0.07244713539
0.07244713528
0.07244713533
0.07244713542
0.07244713548
0.07244713548
0.07244713566
0.07244713568
0.07244713571
0.07244713554
0.07244713558
0.07244714591
0.07244714919
0.0724471416
0.07244714249
0.07244714051
0.07244713937
0.07244713872
0.07244713905
0.07244713835
0.07244713814
0.07244713825
0.07244713799
0.07244713802
0.07244713795
0.0724471379
0.07244713784
0.07244713787
0.07244713751
0.07244713755
0.07244713773
0.07244713713
0.07244713664
0.07244713663
0.07244713609
0.07244713622
0.07244713595
0.07244713583
0.07244713586
0.07244713577
0.07244713573
0.07244714609
0.07244714537
0.07244714451
0.07244714109
0.07244714028
0.07244713957
0.07244713687
0.07244713684
0.0724471375
0.07244713953
0.07244714326
0.07244714177
0.07244713874
0.07244713775
0.07244713757
0.07244714202
0.07244714074
0.07244713746
0.07244713589
0.07244713618
0.07244713736
0.07244713757
0.07244713599
0.07244713567
0.07244713666
0.0724471355
0.0724471361
0.07244713531
0.07244713537
0.07244713547
0.0724471354
0.07244713563
0.07244713545
0.07244713551
0.07244713928
0.0724471391
0.07244713868
0.07244713858
0.07244713827
0.07244713798
0.07244713789
0.0724471379
0.07244713782
0.07244713768
0.0724471377
0.07244713757
0.07244713756
0.07244713734
0.07244713689
0.07244713653
0.07244713618
0.07244713622
0.07244713566
0.07244713574
0.07244713572
0.07244713577
0.07244713557
0.07244713557
0.07244713559
0.07244714275
0.07244714157
0.07244713948
0.0724471384
0.07244713803
0.07244713797
0.07244713788
0.07244713784
0.07244713775
0.0724471374
0.07244713654
0.07244713655
0.07244713591
0.07244713594
0.0724471438
0.07244714286
0.072447142
0.07244714127
0.07244713921
0.07244713859
0.07244713809
0.07244714316
0.07244714834
0.07244715644
0.07244716393
0.07244714216
0.07244714141
0.07244714032
0.07244714046
0.07244713904
0.07244713878
0.07244713806
0.0724471376
0.07244713726
0.07244713761
0.07244713735
0.07244713856
0.07244714347
0.0724471422
0.07244714708
0.0724471644
0.07244715311
0.07244718298
0.07244723247
0.07244723735
0.07244715315
0.07244742692
0.0724471664
0.07244741257
0.07244716159
0.07244714163
0.0724473139
0.07244716508
0.07244719811
0.07244714157
0.07244714948
0.07244714511
0.07244715399
0.0724471473
0.07244714118
0.07244713879
0.07244714245
0.0724471396
0.07244713733
0.07244713777
0.07244713685
0.07244713627
0.07244713609
0.07244713726
0.07244713923
0.07244713886
0.07244713862
0.07244713843
0.07244713826
0.07244713804
0.0724471379
0.07244713773
0.0724471379
0.07244713781
0.07244713774
0.07244713767
0.07244713766
0.07244713758
0.07244713717
0.07244713743
0.07244713724
0.07244713683
0.07244713724
0.07244713704
0.07244713703
0.07244713687
0.07244713682
0.07244713705
0.07244713655
0.07244713754
0.07244713791
0.07244713634
0.07244713596
0.07244713575
0.0724471371
0.07244713595
0.07244713589
0.0724471403
0.0724471396
0.07244713812
0.07244713801
0.07244713781
0.07244713776
0.07244713741
0.07244713719
0.07244713665
0.072447136
0.07244713636
0.07244714191
0.07244714142
0.07244714013
0.07244714109
0.07244714057
0.07244713843
0.07244713988
0.07244713908
0.07244713729
0.07244713829
0.0724471376
0.07244713703
0.0724471371
0.07244713686
0.07244713837
0.07244713695
0.0724471375
0.07244714663
0.07244713886
0.07244714228
0.07244718318
0.07244715123
0.07244716782
0.07244728737
0.07244719959
0.0724472416
0.07244725041
0.07244713995
0.07244713873
0.07244713985
0.07244713872
0.07244713874
0.07244713931
0.07244713877
0.07244713875
0.07244713811
0.07244713861
0.07244713829
0.07244713694
0.0724471378
0.07244713724
0.0724471369
0.07244713679
0.07244713669
0.0724471401
0.07244713723
0.07244713888
0.07244715746
0.07244714266
0.07244715063
0.07244720768
0.07244716445
0.07244718392
0.07244718248
0.07244719421
0.07244716439
0.0724471532
0.07244713839
0.07244713867
0.07244713815
0.07244713827
0.07244713806
0.07244713814
0.07244713795
0.0724471379
0.0724471381
0.07244713788
0.07244713788
0.07244713745
0.07244713778
0.07244713752
0.0724471367
0.07244713713
0.07244713679
0.07244713794
0.07244713674
0.0724471373
0.07244714575
0.07244713895
0.07244714236
0.07244716763
0.07244714824
0.07244715654
0.07244715301
0.07244715978
0.0724471465
0.07244714029
0.07244713939
0.07244713893
0.07244713914
0.07244713943
0.07244713812
0.07244713855
0.0724471382
0.07244713829
0.07244713785
0.07244713799
0.07244713787
0.0724471379
0.07244713776
0.07244713778
0.07244713772
0.07244713752
0.07244713766
0.07244713752
0.07244713755
0.07244713689
0.07244713727
0.07244713698
0.07244713696
0.07244713677
0.07244713682
0.07244714021
0.07244713742
0.07244713895
0.0724471374
0.07244714936
0.07244714172
0.07244714598
0.0724471396
0.07244713857
)
;

boundaryField
{
    walls
    {
        type            zeroGradient;
    }
    wallFilmFace_top
    {
        type            zeroGradient;
    }
    region0_to_wallFilmRegion_wallFilmFace
    {
        type            zeroGradient;
    }
    mirrorFace_top
    {
        type            zeroGradient;
    }
    region0_to_wallFilmRegion_mirrorFace
    {
        type            zeroGradient;
    }
    procBoundary3to2
    {
        type            processor;
        value           nonuniform List<scalar> 
64
(
0.07244717125
0.07244717378
0.07244719465
0.07244716486
0.07244715698
0.07244714705
0.07244714574
0.07244714321
0.07244714066
0.07244713648
0.07244713655
0.07244713673
0.07244713673
0.07244713629
0.07244713591
0.0724471355
0.07244713539
0.07244713542
0.07244713536
0.07244713516
0.072447135
0.07244713484
0.07244713453
0.07244713453
0.07244713456
0.07244713469
0.07244713469
0.07244713597
0.0724471349
0.0724471349
0.07244714857
0.07244714838
0.07244714838
0.07244714806
0.07244714771
0.07244713516
0.07244714801
0.0724471351
0.07244713492
0.0724471487
0.07244714632
0.07244714237
0.0724471426
0.07244713994
0.07244713876
0.07244713982
0.0724471351
0.0724471487
0.07244713495
0.07244717822
0.07244719285
0.07244717931
0.07244716486
0.07244715165
0.07244714661
0.07244714428
0.07244714208
0.07244714468
0.07244714088
0.07244714029
0.07244714158
0.07244713878
0.07244713942
0.07244714015
)
;
    }
}


// ************************************************************************* //
