/*--------------------------------*- C++ -*----------------------------------*\
  =========                 |
  \\      /  F ield         | OpenFOAM: The Open Source CFD Toolbox
   \\    /   O peration     | Website:  https://openfoam.org
    \\  /    A nd           | Version:  8
     \\/     M anipulation  |
\*---------------------------------------------------------------------------*/
FoamFile
{
    version     2.0;
    format      ascii;
    class       volScalarField;
    location    "1.5/wallFilmRegion";
    object      Cp;
}
// * * * * * * * * * * * * * * * * * * * * * * * * * * * * * * * * * * * * * //

dimensions      [0 2 -2 -1 0 0 0];

internalField   nonuniform List<scalar> 
1342
(
4182.948103
4182.948105
4182.948103
4182.948101
4182.948101
4182.948101
4182.948095
4182.948083
4182.948069
4182.948043
4182.94798
4182.947998
4182.948047
4182.948079
4182.948098
4182.948098
4182.948098
4182.948098
4182.948098
4182.948098
4182.948098
4182.948098
4182.948098
4182.948097
4182.948097
4182.948098
4182.948103
4182.948103
4182.948104
4182.948103
4182.948101
4182.9481
4182.948099
4182.948097
4182.948065
4182.948
4182.947914
4182.947861
4182.94794
4182.948027
4182.948073
4182.948097
4182.948098
4182.948098
4182.948098
4182.948098
4182.948098
4182.948098
4182.948098
4182.948097
4182.948096
4182.948096
4182.948097
4182.948102
4182.948101
4182.948101
4182.948102
4182.948102
4182.948101
4182.948101
4182.948098
4182.948097
4182.948035
4182.947869
4182.947548
4182.947752
4182.947934
4182.94803
4182.948072
4182.948096
4182.948098
4182.948098
4182.948098
4182.948098
4182.948098
4182.948098
4182.948097
4182.948097
4182.948096
4182.948096
4182.948097
4182.9481
4182.9481
4182.9481
4182.948101
4182.948101
4182.948101
4182.9481
4182.948099
4182.948097
4182.94797
4182.947376
4182.946746
4182.947817
4182.947946
4182.948037
4182.948073
4182.948095
4182.948098
4182.948098
4182.948098
4182.948098
4182.948098
4182.948097
4182.948098
4182.948097
4182.948096
4182.948097
4182.948097
4182.9481
4182.9481
4182.948099
4182.9481
4182.9481
4182.9481
4182.948102
4182.9481
4182.948097
4182.947871
4182.946865
4182.946302
4182.947895
4182.947968
4182.948044
4182.948075
4182.948094
4182.948097
4182.948098
4182.948098
4182.948098
4182.948097
4182.948098
4182.948099
4182.948098
4182.948097
4182.948096
4182.948097
4182.948101
4182.9481
4182.948098
4182.948099
4182.9481
4182.948098
4182.948095
4182.948096
4182.948096
4182.948096
4182.947751
4182.94676
4182.946193
4182.947957
4182.947995
4182.948052
4182.948078
4182.948094
4182.948097
4182.948098
4182.948098
4182.948097
4182.948097
4182.948096
4182.948098
4182.948096
4182.948096
4182.948096
4182.948097
4182.948096
4182.948096
4182.948095
4182.948094
4182.948095
4182.948095
4182.948095
4182.948094
4182.948095
4182.948095
4182.947631
4182.945877
4182.945877
4182.948016
4182.948029
4182.948063
4182.948081
4182.948093
4182.948097
4182.948097
4182.948097
4182.948097
4182.948096
4182.948096
4182.948097
4182.948092
4182.948094
4182.948096
4182.948097
4182.948097
4182.948098
4182.948098
4182.948098
4182.948099
4182.948098
4182.948094
4182.948092
4182.948093
4182.948093
4182.947928
4182.947866
4182.947864
4182.948068
4182.948065
4182.948076
4182.948086
4182.948093
4182.948096
4182.948097
4182.948097
4182.948096
4182.948096
4182.948095
4182.948094
4182.948091
4182.948091
4182.948096
4182.948097
4182.948096
4182.948099
4182.9481
4182.9481
4182.948099
4182.948098
4182.948092
4182.948091
4182.948092
4182.948091
4182.947983
4182.947876
4182.947835
4182.948033
4182.948075
4182.948084
4182.948089
4182.948093
4182.948095
4182.948096
4182.948096
4182.948096
4182.948095
4182.948094
4182.948093
4182.948091
4182.94809
4182.948096
4182.948097
4182.948088
4182.948099
4182.948101
4182.948102
4182.948099
4182.948095
4182.94809
4182.948091
4182.948092
4182.948089
4182.948002
4182.947831
4182.947717
4182.948003
4182.948079
4182.948088
4182.948092
4182.948094
4182.948095
4182.948096
4182.948096
4182.948095
4182.948094
4182.948093
4182.948092
4182.94809
4182.948089
4182.948095
4182.948097
4182.948045
4182.947971
4182.948092
4182.948099
4182.948099
4182.948097
4182.948094
4182.948094
4182.948092
4182.948087
4182.948013
4182.947773
4182.947576
4182.947977
4182.948078
4182.948089
4182.948093
4182.948095
4182.948095
4182.948095
4182.948095
4182.948095
4182.948094
4182.948092
4182.948091
4182.948088
4182.948087
4182.948095
4182.948097
4182.948093
4182.948091
4182.948098
4182.9481
4182.948099
4182.948098
4182.948098
4182.948096
4182.948094
4182.948092
4182.948079
4182.947957
4182.947682
4182.94798
4182.948072
4182.948088
4182.948093
4182.948094
4182.948095
4182.948095
4182.948095
4182.948094
4182.948093
4182.948091
4182.948089
4182.948086
4182.948086
4182.948094
4182.948097
4182.9481
4182.948096
4182.948098
4182.9481
4182.948099
4182.948099
4182.9481
4182.948099
4182.948098
4182.948095
4182.948098
4182.948099
4182.948098
4182.948095
4182.94809
4182.948089
4182.948092
4182.948094
4182.948094
4182.948094
4182.948094
4182.948092
4182.948091
4182.948089
4182.948086
4182.948083
4182.948085
4182.948094
4182.948097
4182.9481
4182.948097
4182.948099
4182.9481
4182.948099
4182.9481
4182.948098
4182.948099
4182.948099
4182.948097
4182.948093
4182.948088
4182.948087
4182.948091
4182.948089
4182.948088
4182.948091
4182.948092
4182.948093
4182.948092
4182.948092
4182.94809
4182.948096
4182.948094
4182.948087
4182.948083
4182.948086
4182.948093
4182.948097
4182.9481
4182.948099
4182.9481
4182.9481
4182.948098
4182.948099
4182.948098
4182.948098
4182.948099
4182.948096
4182.948091
4182.948083
4182.948083
4182.948088
4182.948088
4182.948087
4182.948088
4182.94809
4182.94809
4182.94809
4182.948088
4182.948087
4182.948097
4182.948097
4182.948096
4182.948096
4182.948095
4182.948095
4182.948097
4182.9481
4182.9481
4182.9481
4182.9481
4182.948097
4182.948098
4182.948096
4182.948096
4182.948097
4182.948092
4182.948086
4182.94808
4182.948079
4182.948085
4182.948086
4182.948086
4182.948086
4182.948087
4182.948087
4182.948086
4182.948096
4182.948097
4182.948098
4182.948098
4182.948097
4182.948097
4182.948097
4182.948096
4182.948097
4182.9481
4182.9481
4182.948099
4182.948098
4182.948092
4182.948097
4182.948097
4182.948097
4182.948097
4182.948097
4182.948096
4182.948096
4182.948096
4182.948094
4182.948092
4182.94809
4182.948088
4182.948087
4182.948086
4182.948085
4182.948097
4182.948098
4182.948098
4182.948098
4182.948097
4182.948097
4182.948097
4182.948097
4182.948097
4182.9481
4182.948099
4182.948099
4182.948098
4182.948092
4182.948097
4182.948098
4182.948098
4182.948098
4182.948098
4182.948098
4182.948098
4182.948098
4182.948097
4182.948096
4182.948093
4182.948091
4182.948089
4182.948089
4182.948089
4182.948097
4182.948098
4182.948098
4182.948098
4182.948098
4182.948097
4182.948097
4182.948097
4182.948097
4182.9481
4182.948099
4182.948099
4182.948098
4182.948095
4182.948098
4182.948099
4182.948099
4182.948099
4182.948099
4182.948098
4182.948098
4182.948098
4182.948097
4182.948096
4182.948095
4182.948093
4182.948093
4182.948097
4182.948098
4182.948098
4182.948098
4182.948098
4182.948098
4182.948098
4182.948098
4182.948097
4182.948097
4182.948097
4182.9481
4182.9481
4182.9481
4182.948101
4182.948104
4182.948099
4182.948099
4182.948099
4182.948099
4182.948099
4182.948099
4182.948098
4182.948098
4182.948097
4182.948096
4182.948095
4182.948096
4182.948096
4182.948097
4182.948098
4182.948098
4182.948098
4182.948098
4182.948097
4182.948097
4182.948097
4182.948097
4182.948097
4182.948097
4182.9481
4182.948101
4182.948103
4182.948105
4182.948104
4182.9481
4182.948099
4182.948099
4182.948099
4182.948098
4182.948098
4182.948098
4182.948098
4182.948097
4182.948096
4182.948097
4182.948098
4182.948099
4182.948098
4182.948098
4182.948098
4182.948098
4182.948098
4182.948097
4182.948097
4182.948097
4182.948097
4182.948097
4182.948098
4182.9481
4182.9481
4182.948102
4182.948107
4182.948104
4182.9481
4182.948098
4182.948097
4182.948098
4182.948098
4182.948098
4182.948097
4182.948097
4182.948097
4182.948097
4182.948098
4182.948099
4182.948099
4182.948098
4182.948098
4182.948098
4182.948097
4182.948097
4182.948098
4182.948097
4182.948097
4182.948097
4182.948097
4182.948098
4182.948099
4182.9481
4182.948101
4182.948107
4182.948103
4182.9481
4182.948098
4182.948097
4182.948097
4182.948098
4182.948098
4182.948098
4182.948098
4182.948098
4182.948098
4182.948099
4182.948099
4182.948099
4182.948098
4182.948097
4182.948098
4182.948098
4182.948098
4182.948098
4182.948098
4182.948097
4182.948097
4182.948097
4182.948098
4182.948099
4182.948099
4182.9481
4182.9481
4182.948102
4182.9481
4182.948099
4182.948098
4182.948098
4182.948098
4182.948099
4182.948099
4182.948099
4182.948099
4182.948099
4182.948099
4182.9481
4182.948098
4182.948097
4182.948097
4182.948098
4182.948098
4182.948098
4182.948098
4182.948098
4182.948098
4182.948097
4182.948097
4182.948098
4182.9481
4182.948099
4182.948099
4182.948099
4182.948099
4182.948099
4182.948099
4182.948098
4182.948098
4182.948098
4182.948099
4182.948099
4182.948099
4182.948099
4182.9481
4182.9481
4182.9481
4182.948098
4182.948097
4182.948097
4182.948098
4182.948098
4182.948098
4182.948098
4182.948098
4182.948098
4182.948098
4182.948097
4182.948097
4182.948094
4182.948098
4182.948098
4182.948103
4182.9481
4182.948099
4182.948098
4182.948098
4182.948098
4182.948098
4182.948099
4182.948099
4182.948099
4182.948099
4182.9481
4182.9481
4182.9481
4182.948097
4182.948097
4182.948098
4182.948098
4182.948098
4182.948098
4182.948098
4182.948098
4182.948098
4182.948098
4182.948098
4182.948098
4182.948094
4182.948098
4182.948098
4182.948104
4182.948102
4182.948099
4182.948098
4182.948098
4182.948098
4182.948098
4182.948098
4182.948099
4182.948099
4182.948099
4182.9481
4182.9481
4182.9481
4182.948097
4182.948097
4182.948098
4182.948098
4182.948098
4182.948098
4182.948098
4182.948098
4182.948098
4182.948098
4182.948098
4182.948098
4182.948099
4182.948098
4182.948098
4182.948099
4182.9481
4182.948099
4182.948098
4182.948098
4182.948098
4182.948098
4182.948098
4182.948098
4182.948099
4182.948099
4182.9481
4182.9481
4182.9481
4182.948097
4182.948097
4182.948097
4182.948098
4182.948098
4182.948098
4182.948098
4182.948098
4182.948098
4182.948098
4182.948098
4182.948098
4182.948099
4182.948099
4182.948098
4182.948105
4182.948104
4182.948099
4182.948099
4182.948098
4182.948098
4182.948098
4182.948098
4182.948098
4182.948099
4182.948099
4182.948099
4182.948096
4182.948096
4182.948096
4182.948097
4182.948097
4182.948097
4182.948098
4182.948098
4182.948098
4182.948098
4182.948098
4182.948098
4182.948098
4182.948098
4182.948098
4182.948021
4182.948056
4182.948105
4182.948104
4182.948099
4182.948098
4182.948098
4182.948098
4182.948098
4182.948098
4182.948098
4182.948098
4182.948098
4182.948098
4182.948098
4182.948098
4182.948098
4182.948098
4182.948098
4182.948098
4182.948098
4182.948098
4182.948098
4182.948098
4182.948098
4182.948098
4182.948098
4182.948098
4182.948099
4182.948099
4182.9481
4182.948102
4182.948109
4182.948122
4182.948127
4182.948128
4182.948597
4182.948929
4182.9489
4182.948704
4182.949062
4182.949059
4182.949081
4182.949084
4182.949223
4182.949129
4182.949121
4182.949125
4182.94933
4182.949136
4182.949104
4182.949048
4182.948102
4182.948116
4182.948182
4182.948102
4182.948294
4182.948331
4182.948101
4182.948363
4182.948395
4182.9481
4182.948428
4182.948458
4182.9481
4182.948476
4182.94849
4182.9481
4182.948469
4182.948422
4182.9481
4182.948405
4182.948415
4182.9481
4182.948414
4182.948399
4182.9481
4182.948379
4182.948289
4182.9481
4182.948104
4182.9481
4182.948205
4182.948206
4182.948224
4182.948102
4182.948113
4182.948109
4182.948257
4182.948571
4182.948113
4182.948351
4182.948801
4182.948691
4182.948872
4182.948787
4182.948752
4182.948801
4182.948859
4182.948968
4182.948732
4182.949084
4182.94894
4182.948829
4182.948935
4182.949152
4182.949219
4182.949242
4182.9493
4182.949294
4182.948102
4182.948102
4182.948102
4182.948103
4182.948102
4182.948103
4182.948104
4182.948105
4182.948105
4182.948102
4182.948101
4182.948101
4182.948039
4182.948063
4182.947863
4182.948101
4182.948101
4182.948101
4182.948101
4182.948101
4182.948102
4182.948101
4182.9481
4182.948101
4182.948103
4182.948101
4182.948102
4182.9481
4182.9481
4182.9481
4182.948101
4182.9481
4182.9481
4182.948101
4182.9481
4182.948101
4182.9481
4182.948073
4182.948064
4182.948101
4182.9481
4182.948101
4182.948098
4182.948101
4182.9481
4182.948101
4182.948101
4182.948157
4182.948129
4182.948202
4182.948189
4182.948288
4182.948281
4182.948139
4182.948233
4182.948187
4182.948154
4182.948431
4182.948479
4182.948489
4182.948459
4182.948496
4182.948507
4182.948504
4182.948524
4182.948545
4182.948527
4182.948555
4182.948561
4182.948455
4182.948531
4182.948488
4182.948481
4182.948482
4182.948524
4182.948515
4182.948554
4182.948572
4182.948429
4182.948585
4182.948509
4182.948294
4182.948415
4182.948268
4182.948224
4182.94836
4182.948278
4182.948552
4182.948638
4182.948621
4182.948561
4182.948616
4182.948621
4182.948587
4182.948622
4182.94863
4182.948596
4182.948629
4182.94863
4182.948521
4182.948593
4182.948555
4182.948564
4182.948551
4182.9486
4182.948628
4182.948642
4182.948671
4182.94859
4182.948683
4182.948665
4182.948877
4182.948714
4182.948913
4182.948934
4182.948971
4182.948983
4182.948822
4182.948678
4182.948731
4182.948712
4182.948671
4182.948696
4182.94867
4182.948659
4182.948667
4182.94866
4182.948585
4182.948643
4182.948611
4182.948627
4182.948605
4182.948644
4182.94869
4182.948674
4182.948703
4182.949154
4182.949092
4182.94907
4182.949096
4182.949101
4182.949087
4182.94911
4182.94865
4182.948841
4182.94879
4182.948673
4182.948768
4182.948788
4182.948674
4182.948652
4182.948848
4182.948653
4182.948824
4182.948828
4182.949121
4182.948103
4182.948102
4182.948102
4182.9481
4182.948112
4182.948101
4182.948107
4182.948101
4182.948109
4182.948102
4182.948102
4182.948102
4182.948103
4182.948101
4182.948101
4182.948102
4182.948101
4182.948101
4182.948101
4182.9481
4182.948101
4182.948102
4182.9481
4182.9481
4182.948101
4182.9481
4182.9481
4182.948101
4182.9481
4182.948101
4182.948086
4182.9481
4182.9481
4182.9481
4182.9481
4182.948101
4182.948159
4182.948111
4182.948197
4182.948162
4182.948412
4182.948443
4182.948481
4182.948517
4182.948499
4182.948448
4182.948505
4182.948521
4182.948108
4182.948205
4182.94818
4182.948433
4182.94859
4182.948342
4182.948454
4182.948208
4182.948555
4182.948553
4182.948572
4182.948592
4182.948563
4182.948518
4182.948602
4182.948642
4182.94812
4182.948743
4182.948678
4182.948672
4182.948662
4182.948616
4182.948579
4182.948668
4182.948716
4182.948827
4182.948625
4182.948793
4182.948702
4182.948131
4182.948132
4182.948131
4182.948841
4182.94868
4182.948653
4182.948649
4182.94865
4182.948694
4182.949052
4182.9493
4182.949327
4182.949319
4182.949243
4182.949264
4182.94931
4182.949145
4182.949092
4182.949078
4182.949062
4182.949219
4182.949415
4182.949119
4182.949017
4182.948958
4182.949129
4182.949393
4182.949109
4182.948979
4182.948876
4182.949286
4182.949435
4182.949132
4182.949001
4182.948861
4182.9481
4182.948109
4182.948102
4182.9481
4182.948102
4182.948133
4182.948101
4182.948108
4182.9481
4182.9481
4182.948153
4182.948144
4182.948101
4182.948108
4182.9481
4182.9481
4182.948129
4182.948119
4182.9481
4182.948113
4182.9481
4182.9481
4182.9481
4182.948099
4182.948099
4182.9481
4182.9481
4182.9481
4182.9481
4182.948101
4182.948103
4182.948111
4182.948122
4182.948124
4182.948125
4182.948126
4182.948589
4182.948538
4182.94812
4182.948122
4182.948111
4182.948128
4182.948126
4182.948127
4182.948129
4182.948128
4182.948129
4182.94813
4182.948967
4182.948917
4182.948825
4182.949045
4182.949259
4182.949099
4182.949276
4182.948965
4182.948894
4182.949415
4182.94944
4182.948132
4182.949456
4182.948919
4182.948132
4182.948131
4182.948132
4182.949121
4182.949129
4182.949143
4182.949121
4182.9491
4182.949087
4182.949123
4182.949083
4182.949081
4182.949165
4182.949309
4182.949231
4182.949119
4182.949273
4182.949224
4182.9493
4182.949223
4182.949219
4182.949206
4182.949325
4182.949182
4182.949244
4182.949376
4182.949327
4182.94919
4182.949372
4182.949194
4182.949112
4182.949131
4182.949083
4182.949077
4182.949052
4182.94903
4182.949008
4182.949192
4182.949428
4182.949178
4182.949058
4182.949111
4182.949042
4182.948986
4182.948991
4182.948952
4182.948915
4182.949147
4182.949449
4182.949198
4182.94904
4182.94911
4182.949033
4182.948928
4182.948975
4182.948922
4182.948864
4182.949222
4182.949374
4182.949232
4182.949059
4182.949166
4182.949114
4182.948941
4182.94907
4182.949021
4182.949082
4182.948954
)
;

boundaryField
{
    walls
    {
        type            zeroGradient;
    }
    wallFilmFace_top
    {
        type            zeroGradient;
    }
    region0_to_wallFilmRegion_wallFilmFace
    {
        type            zeroGradient;
    }
    mirrorFace_top
    {
        type            zeroGradient;
    }
    region0_to_wallFilmRegion_mirrorFace
    {
        type            zeroGradient;
    }
    procBoundary2to0
    {
        type            processor;
        value           nonuniform List<scalar> 
26
(
4182.948103
4182.948103
4182.948102
4182.948101
4182.948101
4182.9481
4182.948094
4182.948088
4182.948078
4182.94806
4182.948014
4182.948019
4182.948061
4182.948086
4182.948098
4182.948098
4182.948098
4182.948098
4182.948098
4182.948098
4182.948098
4182.948098
4182.948098
4182.948098
4182.948097
4182.948098
)
;
    }
    procBoundary2to1
    {
        type            processor;
        value           nonuniform List<scalar> 
33
(
4182.948103
4182.948103
4182.948103
4182.948103
4182.948102
4182.9481
4182.9481
4182.9481
4182.948101
4182.948099
4182.948095
4182.948088
4182.948077
4182.948054
4182.948096
4182.948102
4182.948102
4182.948101
4182.948101
4182.9481
4182.9481
4182.948101
4182.9481
4182.9481
4182.948099
4182.948099
4182.948099
4182.948099
4182.948099
4182.9481
4182.9481
4182.948099
4182.948098
)
;
    }
    procBoundary2to3
    {
        type            processor;
        value           nonuniform List<scalar> 
64
(
4182.948099
4182.948112
4182.948119
4182.948122
4182.948129
4182.948566
4182.94906
4182.949125
4182.948997
4182.948105
4182.948105
4182.948105
4182.948105
4182.948105
4182.948105
4182.948102
4182.948103
4182.948103
4182.948102
4182.948101
4182.9481
4182.9481
4182.948075
4182.948094
4182.948094
4182.9481
4182.9481
4182.9481
4182.948101
4182.9481
4182.948124
4182.948134
4182.948124
4182.948168
4182.948216
4182.948102
4182.948111
4182.948105
4182.948101
4182.948124
4182.948132
4182.949071
4182.949043
4182.948924
4182.948811
4182.948742
4182.9481
4182.948112
4182.9481
4182.948102
4182.948112
4182.948121
4182.948126
4182.94813
4182.948699
4182.948132
4182.949465
4182.949135
4182.949317
4182.949148
4182.948982
4182.948873
4182.948789
4182.948855
)
;
    }
}


// ************************************************************************* //
