/*--------------------------------*- C++ -*----------------------------------*\
  =========                 |
  \\      /  F ield         | OpenFOAM: The Open Source CFD Toolbox
   \\    /   O peration     | Website:  https://openfoam.org
    \\  /    A nd           | Version:  8
     \\/     M anipulation  |
\*---------------------------------------------------------------------------*/
FoamFile
{
    version     2.0;
    format      ascii;
    class       volScalarField;
    location    "1.5/wallFilmRegion";
    object      kappa;
}
// * * * * * * * * * * * * * * * * * * * * * * * * * * * * * * * * * * * * * //

dimensions      [1 1 -3 -1 0 0 0];

internalField   nonuniform List<scalar> 
1342
(
0.6088099924
0.6088099901
0.6088099936
0.6088099954
0.6088099955
0.6088099964
0.6088100067
0.6088100266
0.6088100505
0.608810095
0.6088102044
0.6088101728
0.6088100882
0.6088100344
0.6088100019
0.6088100012
0.6088100009
0.6088100007
0.6088100007
0.6088100008
0.608810001
0.6088100014
0.6088100019
0.6088100025
0.6088100031
0.6088100022
0.6088099936
0.6088099935
0.6088099919
0.6088099932
0.6088099954
0.6088099976
0.6088099997
0.608810003
0.6088100575
0.6088101701
0.6088103169
0.6088104081
0.6088102719
0.6088101237
0.6088100449
0.6088100031
0.6088100013
0.6088100009
0.6088100008
0.6088100008
0.608810001
0.6088100014
0.608810002
0.6088100029
0.608810004
0.6088100048
0.6088100023
0.6088099944
0.6088099957
0.6088099965
0.6088099941
0.6088099949
0.6088099957
0.6088099959
0.6088100013
0.6088100027
0.6088101096
0.6088103941
0.6088109444
0.6088105948
0.6088102833
0.6088101173
0.6088100456
0.6088100047
0.6088100016
0.608810001
0.6088100009
0.608810001
0.6088100015
0.6088100021
0.6088100025
0.6088100035
0.6088100045
0.6088100043
0.6088100025
0.6088099976
0.6088099978
0.6088099978
0.6088099964
0.6088099967
0.6088099968
0.6088099974
0.608809999
0.6088100025
0.6088102209
0.6088112412
0.6088123224
0.6088104839
0.6088102626
0.6088101069
0.6088100439
0.6088100063
0.6088100019
0.6088100012
0.6088100011
0.6088100015
0.6088100021
0.6088100026
0.6088100012
0.6088100034
0.6088100042
0.6088100039
0.6088100028
0.6088099978
0.6088099988
0.6088099994
0.6088099985
0.6088099975
0.6088099986
0.608809995
0.6088099975
0.6088100029
0.6088103915
0.6088121178
0.6088130846
0.6088103501
0.6088102239
0.6088100939
0.6088100404
0.6088100077
0.6088100024
0.6088100015
0.6088100015
0.608810002
0.6088100026
0.6088100021
0.6088100001
0.6088100006
0.6088100038
0.6088100046
0.6088100026
0.6088099971
0.6088099984
0.6088100012
0.6088099992
0.6088099983
0.6088100009
0.6088100067
0.6088100054
0.6088100044
0.6088100041
0.6088105972
0.6088122975
0.6088132701
0.6088102431
0.6088101774
0.6088100795
0.6088100357
0.608810009
0.608810003
0.608810002
0.608810002
0.6088100025
0.6088100032
0.6088100041
0.6088100007
0.6088100047
0.6088100048
0.6088100049
0.6088100024
0.608810004
0.6088100045
0.6088100061
0.6088100079
0.6088100074
0.6088100063
0.6088100074
0.6088100079
0.6088100071
0.6088100064
0.6088108036
0.6088138134
0.6088138131
0.6088101419
0.6088101201
0.6088100622
0.60881003
0.6088100103
0.6088100039
0.6088100028
0.6088100028
0.6088100033
0.6088100041
0.6088100056
0.6088100025
0.608810011
0.608810009
0.6088100049
0.6088100025
0.6088100032
0.6088100018
0.6088100014
0.608810001
0.6088100004
0.6088100017
0.608810009
0.6088100111
0.6088100097
0.6088100097
0.608810294
0.6088104001
0.6088104023
0.6088100525
0.6088100587
0.60881004
0.6088100227
0.6088100107
0.6088100051
0.6088100038
0.6088100038
0.6088100043
0.6088100053
0.608810007
0.6088100082
0.608810013
0.6088100127
0.6088100047
0.6088100026
0.6088100052
0.6088099989
0.6088099975
0.6088099981
0.6088099998
0.6088100019
0.6088100123
0.6088100132
0.6088100113
0.6088100131
0.6088101993
0.6088103821
0.6088104533
0.6088101135
0.6088100401
0.6088100258
0.6088100162
0.6088100097
0.608810006
0.6088100048
0.6088100048
0.6088100054
0.6088100065
0.6088100082
0.6088100106
0.6088100141
0.6088100152
0.6088100056
0.6088100027
0.608810019
0.6088100004
0.6088099954
0.6088099941
0.6088099997
0.6088100061
0.6088100146
0.6088100126
0.6088100118
0.6088100163
0.608810167
0.6088104596
0.6088106552
0.6088101651
0.6088100341
0.6088100187
0.608810012
0.6088100082
0.6088100061
0.6088100054
0.6088100055
0.6088100062
0.6088100075
0.6088100093
0.608810012
0.6088100158
0.6088100175
0.6088100065
0.6088100026
0.6088100916
0.6088102186
0.6088100113
0.6088099992
0.6088099997
0.6088100024
0.6088100081
0.6088100089
0.6088100114
0.6088100204
0.6088101465
0.6088105591
0.6088108971
0.6088102096
0.6088100363
0.6088100163
0.6088100101
0.6088100074
0.6088100061
0.6088100058
0.6088100062
0.6088100071
0.6088100087
0.608810011
0.6088100142
0.6088100186
0.6088100198
0.608810007
0.6088100026
0.6088100104
0.6088100132
0.6088100014
0.6088099982
0.6088099998
0.6088100017
0.6088100012
0.6088100044
0.6088100081
0.6088100114
0.6088100336
0.6088102439
0.608810716
0.6088102045
0.6088100468
0.6088100179
0.6088100103
0.6088100075
0.6088100066
0.6088100065
0.6088100072
0.6088100085
0.6088100106
0.6088100136
0.6088100176
0.6088100225
0.6088100219
0.6088100075
0.6088100025
0.6088099987
0.6088100045
0.6088100015
0.6088099974
0.6088099998
0.6088099999
0.6088099988
0.6088099989
0.6088100009
0.6088100061
0.6088100012
0.6088100005
0.6088100015
0.6088100063
0.6088100152
0.6088100167
0.6088100115
0.6088100088
0.6088100079
0.608810008
0.6088100091
0.6088100109
0.6088100139
0.6088100175
0.6088100223
0.6088100271
0.6088100236
0.6088100081
0.6088100025
0.6088099975
0.6088100032
0.6088099996
0.6088099983
0.6088100005
0.6088099987
0.6088100006
0.60881
0.6088099989
0.6088100025
0.6088100093
0.6088100181
0.6088100195
0.6088100126
0.6088100165
0.6088100178
0.6088100141
0.6088100113
0.6088100104
0.6088100108
0.6088100124
0.6088100151
0.6088100047
0.6088100087
0.6088100206
0.6088100275
0.6088100225
0.6088100099
0.6088100025
0.6088099979
0.6088099995
0.6088099985
0.6088099985
0.6088100012
0.6088099996
0.6088100016
0.6088100011
0.6088100002
0.6088100054
0.6088100142
0.6088100265
0.6088100263
0.6088100178
0.6088100186
0.6088100198
0.6088100178
0.6088100155
0.6088100147
0.6088100155
0.6088100188
0.6088100205
0.6088100027
0.6088100031
0.6088100044
0.6088100054
0.6088100058
0.6088100059
0.6088100026
0.608809998
0.6088099981
0.6088099972
0.6088099983
0.6088100024
0.6088100015
0.6088100048
0.6088100045
0.6088100037
0.6088100119
0.6088100214
0.6088100323
0.6088100331
0.6088100235
0.6088100212
0.6088100216
0.6088100213
0.6088100204
0.6088100203
0.6088100216
0.6088100045
0.608810003
0.6088100018
0.6088100021
0.6088100027
0.6088100032
0.6088100037
0.608810004
0.6088100027
0.6088099983
0.6088099985
0.6088099989
0.6088100022
0.608810012
0.6088100023
0.6088100037
0.6088100036
0.6088100032
0.6088100036
0.6088100041
0.6088100047
0.6088100057
0.6088100075
0.6088100109
0.6088100154
0.6088100191
0.6088100211
0.6088100224
0.6088100236
0.6088100032
0.608810002
0.6088100014
0.6088100017
0.6088100023
0.6088100027
0.608810003
0.6088100037
0.6088100026
0.6088099985
0.6088099989
0.6088099997
0.6088100022
0.6088100118
0.6088100025
0.6088100021
0.6088100017
0.6088100013
0.6088100012
0.6088100013
0.6088100015
0.6088100021
0.6088100032
0.6088100055
0.6088100094
0.6088100136
0.6088100161
0.6088100171
0.6088100163
0.6088100025
0.6088100018
0.6088100011
0.6088100016
0.6088100022
0.6088100025
0.6088100026
0.6088100028
0.6088100026
0.6088099984
0.6088099989
0.6088099995
0.6088100009
0.6088100064
0.6088100005
0.6088100003
0.6088100003
0.6088100003
0.6088100004
0.6088100005
0.6088100008
0.6088100014
0.6088100023
0.6088100042
0.6088100071
0.6088100095
0.6088100096
0.6088100027
0.6088100015
0.6088100011
0.608810001
0.6088100006
0.6088100012
0.6088100018
0.6088100022
0.6088100025
0.6088100027
0.6088100024
0.6088099981
0.6088099982
0.608809998
0.6088099969
0.6088099919
0.608809999
0.6088099998
0.6088099999
0.6088100001
0.6088100002
0.6088100005
0.6088100008
0.6088100015
0.6088100025
0.6088100043
0.6088100059
0.6088100056
0.6088100042
0.6088100026
0.6088100016
0.6088100013
0.6088100019
0.6088100017
0.6088100022
0.6088100025
0.6088100026
0.6088100026
0.6088100025
0.6088100023
0.6088099976
0.6088099962
0.6088099929
0.6088099895
0.6088099913
0.6088099982
0.6088100003
0.6088100005
0.6088100005
0.6088100006
0.6088100009
0.6088100014
0.6088100022
0.6088100034
0.6088100044
0.6088100039
0.6088100015
0.6088100002
0.6088100011
0.6088100015
0.6088100014
0.6088100021
0.608810002
0.6088100023
0.6088100024
0.6088100025
0.6088100025
0.6088100025
0.6088100022
0.6088099978
0.6088099971
0.6088099939
0.6088099856
0.6088099918
0.6088099979
0.6088100008
0.6088100039
0.6088100017
0.6088100016
0.6088100019
0.6088100025
0.6088100033
0.6088100038
0.6088100031
0.6088100014
0.6088099997
0.6088100001
0.6088100017
0.6088100021
0.6088100021
0.6088100023
0.6088100022
0.6088100022
0.6088100023
0.6088100024
0.6088100025
0.6088100025
0.6088100022
0.6088099988
0.6088099987
0.6088099968
0.6088099863
0.6088099935
0.6088099978
0.6088100011
0.6088100032
0.6088100024
0.6088100018
0.6088100016
0.6088100015
0.6088100014
0.6088100013
0.6088100007
0.6088099998
0.6088099989
0.6088100003
0.6088100022
0.6088100024
0.6088100021
0.6088100022
0.6088100021
0.6088100021
0.6088100021
0.6088100023
0.6088100025
0.6088100024
0.6088100022
0.608809999
0.6088099991
0.6088099988
0.6088099981
0.6088099953
0.608809998
0.6088100004
0.6088100014
0.6088100008
0.6088100006
0.6088100004
0.6088100003
0.6088100002
0.6088099999
0.6088099995
0.6088099988
0.6088099984
0.6088100013
0.6088100024
0.6088100024
0.6088100022
0.6088100021
0.608810002
0.6088100019
0.608810002
0.6088100021
0.6088100025
0.6088100024
0.6088100022
0.6088099986
0.6088099995
0.6088099998
0.6088099993
0.6088099995
0.6088099997
0.6088100004
0.6088100009
0.6088100008
0.6088100006
0.6088100003
0.60881
0.6088099997
0.6088099992
0.6088099987
0.6088099983
0.6088099981
0.6088100021
0.6088100024
0.6088100023
0.6088100021
0.608810002
0.6088100019
0.6088100018
0.6088100018
0.6088100019
0.608810002
0.6088100023
0.6088100022
0.6088100082
0.6088100014
0.608810001
0.6088099936
0.6088099977
0.60881
0.6088100005
0.6088100008
0.6088100008
0.6088100007
0.6088100004
0.6088099999
0.6088099995
0.6088099989
0.6088099984
0.6088099979
0.6088099978
0.6088100024
0.6088100023
0.6088100022
0.608810002
0.6088100019
0.6088100018
0.6088100018
0.6088100017
0.6088100017
0.6088100017
0.6088100019
0.6088100022
0.6088100082
0.6088100017
0.6088100013
0.6088099914
0.6088099948
0.6088099996
0.6088100006
0.6088100008
0.6088100009
0.608810001
0.6088100008
0.6088100001
0.6088099996
0.608809999
0.6088099983
0.6088099978
0.6088099976
0.6088100024
0.6088100024
0.6088100022
0.608810002
0.6088100019
0.6088100018
0.6088100017
0.6088100016
0.6088100016
0.6088100016
0.6088100017
0.6088100021
0.6088099998
0.6088100013
0.6088100012
0.6088099997
0.6088099988
0.6088100004
0.6088100007
0.6088100008
0.608810001
0.6088100012
0.6088100016
0.6088100007
0.60881
0.6088099992
0.6088099984
0.6088099979
0.6088099979
0.6088100025
0.6088100025
0.6088100024
0.6088100022
0.608810002
0.6088100018
0.6088100017
0.6088100016
0.6088100015
0.6088100015
0.6088100015
0.6088100015
0.6088099998
0.6088100003
0.6088100007
0.6088099897
0.6088099912
0.6088099995
0.6088100005
0.6088100008
0.608810001
0.6088100013
0.6088100021
0.6088100012
0.6088100005
0.6088099996
0.60881
0.608810004
0.6088100045
0.6088100043
0.6088100026
0.6088100026
0.6088100023
0.6088100022
0.6088100021
0.6088100019
0.6088100016
0.6088100015
0.6088100015
0.6088100014
0.6088100013
0.6088100007
0.6088101334
0.6088100743
0.6088099895
0.6088099912
0.6088099995
0.6088100007
0.6088100009
0.6088100011
0.6088100013
0.6088100015
0.6088100013
0.6088100011
0.608810001
0.608810001
0.608810001
0.6088100009
0.6088100008
0.6088100013
0.6088100015
0.6088100016
0.6088100016
0.6088100016
0.6088100016
0.6088100016
0.6088100016
0.6088100016
0.6088100016
0.6088100014
0.6088099991
0.6088099993
0.6088099982
0.6088099948
0.6088099818
0.6088099596
0.6088099515
0.6088099494
0.6088091452
0.6088085756
0.6088086255
0.6088089615
0.6088083478
0.6088083529
0.6088083146
0.6088083094
0.6088080707
0.6088082329
0.6088082463
0.6088082383
0.6088078867
0.6088082196
0.6088082745
0.6088083714
0.6088099946
0.6088099706
0.6088098572
0.608809995
0.6088096646
0.6088096008
0.6088099958
0.6088095458
0.6088094925
0.6088099973
0.6088094356
0.6088093831
0.6088099973
0.6088093528
0.608809329
0.6088099973
0.6088093649
0.6088094458
0.6088099972
0.6088094751
0.608809457
0.6088099972
0.6088094587
0.6088094843
0.6088099973
0.6088095199
0.6088096744
0.6088099986
0.6088099913
0.6088099982
0.6088098176
0.6088098154
0.6088097856
0.6088099949
0.6088099762
0.6088099821
0.6088097279
0.6088091904
0.6088099749
0.6088095674
0.6088087954
0.6088089839
0.6088086725
0.6088088186
0.6088088799
0.6088087941
0.6088086952
0.6088085076
0.6088089131
0.60880831
0.608808557
0.6088087469
0.6088085659
0.6088081925
0.6088080776
0.6088080376
0.6088079388
0.6088079494
0.6088099952
0.608809995
0.6088099944
0.6088099935
0.6088099938
0.6088099928
0.6088099911
0.60880999
0.6088099896
0.608809995
0.6088099955
0.6088099957
0.6088101026
0.6088100612
0.6088104054
0.6088099961
0.6088099967
0.6088099962
0.6088099962
0.608809996
0.6088099952
0.6088099958
0.6088099971
0.608809996
0.6088099936
0.6088099963
0.6088099943
0.6088099971
0.6088099972
0.6088099971
0.6088099966
0.6088099971
0.6088099971
0.6088099971
0.6088099971
0.608809997
0.6088099971
0.6088100449
0.6088100602
0.608809997
0.6088099972
0.6088099969
0.6088100008
0.6088099962
0.6088099972
0.6088099969
0.608809997
0.6088099002
0.6088099486
0.6088098233
0.6088098444
0.6088096761
0.6088096873
0.6088099315
0.6088097697
0.6088098493
0.608809906
0.6088094293
0.6088093475
0.6088093307
0.6088093812
0.6088093186
0.6088092987
0.6088093042
0.6088092696
0.6088092349
0.6088092656
0.6088092171
0.608809206
0.608809388
0.6088092588
0.6088093327
0.6088093434
0.6088093416
0.6088092709
0.6088092859
0.6088092184
0.6088091874
0.6088094329
0.6088091659
0.608809296
0.6088096648
0.6088094577
0.6088097102
0.6088097853
0.6088095513
0.6088096929
0.6088092225
0.6088090742
0.6088091035
0.608809206
0.6088091126
0.6088091047
0.6088091622
0.6088091017
0.6088090878
0.6088091465
0.6088090898
0.6088090885
0.6088092749
0.6088091517
0.6088092178
0.6088092011
0.6088092241
0.6088091396
0.608809092
0.6088090685
0.6088090181
0.6088091574
0.6088089973
0.608809029
0.6088086647
0.6088089451
0.6088086034
0.608808566
0.6088085033
0.6088084828
0.6088087595
0.6088090061
0.6088089146
0.6088089481
0.6088090184
0.6088089759
0.6088090205
0.6088090387
0.6088090244
0.6088090365
0.6088091664
0.6088090668
0.6088091212
0.608809093
0.6088091321
0.6088090646
0.6088089853
0.6088090122
0.6088089625
0.6088081885
0.6088082949
0.6088083334
0.6088082895
0.60880828
0.6088083034
0.6088082642
0.6088090546
0.608808726
0.6088088136
0.6088090145
0.6088088509
0.6088088174
0.6088090126
0.6088090503
0.6088087152
0.6088090486
0.6088087559
0.6088087487
0.608808246
0.6088099932
0.6088099948
0.6088099944
0.6088099978
0.6088099776
0.6088099964
0.6088099852
0.6088099955
0.6088099819
0.6088099948
0.6088099945
0.6088099944
0.6088099924
0.6088099954
0.6088099954
0.6088099949
0.6088099962
0.6088099962
0.6088099962
0.6088099973
0.608809997
0.608809995
0.6088099973
0.6088099972
0.6088099969
0.6088099973
0.6088099971
0.6088099971
0.6088099972
0.6088099971
0.6088100226
0.6088099972
0.6088099972
0.6088099975
0.6088099975
0.608809997
0.6088098966
0.6088099785
0.608809831
0.6088098914
0.6088094623
0.6088094086
0.6088093437
0.6088092815
0.6088093127
0.6088094015
0.6088093026
0.6088092758
0.6088099847
0.6088098177
0.6088098608
0.6088094259
0.6088091567
0.608809582
0.6088093911
0.6088098121
0.6088092178
0.6088092207
0.6088091885
0.6088091528
0.6088092039
0.6088092807
0.6088091372
0.6088090684
0.6088099632
0.6088088953
0.6088090059
0.6088090167
0.6088090331
0.6088091118
0.6088091761
0.608809023
0.6088089406
0.6088087505
0.6088090964
0.6088088094
0.6088089657
0.6088099441
0.6088099433
0.608809944
0.6088087259
0.6088090025
0.6088090497
0.6088090554
0.6088090544
0.6088089786
0.608808364
0.6088079394
0.6088078918
0.608807906
0.6088080372
0.6088080007
0.6088079212
0.6088082048
0.6088082956
0.6088083197
0.6088083465
0.6088080773
0.608807742
0.6088082489
0.6088084249
0.6088085259
0.6088082327
0.6088077797
0.6088082659
0.60880849
0.6088086659
0.6088079627
0.6088077072
0.6088082277
0.6088084516
0.6088086928
0.6088099985
0.6088099828
0.6088099945
0.6088099987
0.6088099944
0.6088099411
0.6088099971
0.6088099843
0.6088099986
0.6088099985
0.6088099063
0.6088099222
0.6088099959
0.6088099841
0.6088099985
0.6088099984
0.608809948
0.6088099661
0.6088099985
0.6088099751
0.6088099971
0.6088099983
0.6088099978
0.6088099994
0.6088099991
0.6088099988
0.6088099982
0.6088099984
0.6088099975
0.6088099954
0.608809993
0.6088099786
0.6088099607
0.6088099566
0.6088099548
0.6088099539
0.6088091591
0.6088092459
0.6088099639
0.6088099607
0.6088099795
0.6088099497
0.6088099531
0.6088099522
0.6088099485
0.6088099504
0.6088099475
0.6088099466
0.6088085096
0.6088085957
0.6088087533
0.6088083763
0.6088080094
0.6088082829
0.6088079797
0.608808514
0.6088086354
0.6088077417
0.6088076979
0.6088099436
0.6088076711
0.6088085919
0.6088099432
0.6088099441
0.6088099436
0.6088082466
0.6088082314
0.608808208
0.6088082459
0.6088082824
0.6088083034
0.6088082423
0.6088083104
0.608808314
0.6088081704
0.6088079236
0.6088080568
0.60880825
0.6088079857
0.6088080689
0.6088079392
0.6088080716
0.6088080778
0.6088080997
0.6088078951
0.6088081405
0.6088080347
0.6088078081
0.6088078928
0.6088081273
0.6088078143
0.6088081212
0.6088082611
0.6088082293
0.6088083115
0.6088083209
0.6088083638
0.6088084022
0.6088084392
0.6088081236
0.6088077184
0.6088081485
0.6088083541
0.6088082623
0.6088083807
0.6088084772
0.6088084691
0.6088085358
0.6088085986
0.6088082014
0.6088076834
0.6088081141
0.6088083845
0.6088082646
0.608808397
0.6088085764
0.6088084971
0.6088085872
0.6088086866
0.6088080726
0.6088078119
0.6088080549
0.6088083524
0.6088081686
0.6088082577
0.6088085553
0.6088083326
0.6088084172
0.6088083121
0.6088085323
)
;

boundaryField
{
    walls
    {
        type            zeroGradient;
    }
    wallFilmFace_top
    {
        type            zeroGradient;
    }
    region0_to_wallFilmRegion_wallFilmFace
    {
        type            zeroGradient;
    }
    mirrorFace_top
    {
        type            zeroGradient;
    }
    region0_to_wallFilmRegion_mirrorFace
    {
        type            zeroGradient;
    }
    procBoundary2to0
    {
        type            processor;
        value           nonuniform List<scalar> 
26
(
0.6088099927
0.6088099925
0.6088099937
0.6088099957
0.6088099969
0.6088099987
0.6088100084
0.6088100182
0.6088100356
0.608810067
0.6088101449
0.6088101363
0.608810065
0.6088100222
0.6088100013
0.6088100013
0.6088100009
0.6088100008
0.6088100007
0.6088100007
0.6088100008
0.608810001
0.6088100014
0.608810002
0.6088100028
0.6088100022
)
;
    }
    procBoundary2to1
    {
        type            processor;
        value           nonuniform List<scalar> 
33
(
0.6088099924
0.6088099924
0.6088099926
0.6088099926
0.6088099937
0.6088099971
0.6088099972
0.6088099972
0.6088099963
0.6088099992
0.6088100057
0.6088100192
0.6088100379
0.6088100762
0.6088100054
0.6088099948
0.6088099942
0.6088099956
0.6088099966
0.6088099975
0.6088099976
0.6088099968
0.6088099973
0.608809998
0.608809999
0.6088099992
0.6088099993
0.6088099995
0.608809999
0.6088099982
0.6088099982
0.6088099993
0.6088100006
)
;
    }
    procBoundary2to3
    {
        type            processor;
        value           nonuniform List<scalar> 
64
(
0.608809999
0.6088099779
0.6088099656
0.6088099596
0.6088099485
0.6088091977
0.6088083512
0.6088082385
0.6088084578
0.60880999
0.6088099891
0.6088099889
0.6088099888
0.6088099891
0.6088099892
0.6088099938
0.6088099926
0.6088099927
0.6088099941
0.6088099964
0.6088099971
0.6088099972
0.6088100415
0.6088100091
0.6088100091
0.6088099987
0.6088099977
0.6088099977
0.6088099971
0.6088099977
0.6088099561
0.6088099403
0.6088099561
0.6088098816
0.6088097997
0.6088099954
0.6088099789
0.60880999
0.6088099969
0.6088099561
0.6088099439
0.6088083324
0.6088083799
0.6088085841
0.6088087782
0.6088088964
0.6088099987
0.608809978
0.6088099982
0.608809994
0.6088099779
0.6088099612
0.6088099534
0.6088099459
0.6088089708
0.6088099435
0.6088076552
0.6088082222
0.6088079097
0.6088081997
0.6088084846
0.608808672
0.6088088164
0.6088087029
)
;
    }
}


// ************************************************************************* //
