/*--------------------------------*- C++ -*----------------------------------*\
  =========                 |
  \\      /  F ield         | OpenFOAM: The Open Source CFD Toolbox
   \\    /   O peration     | Website:  https://openfoam.org
    \\  /    A nd           | Version:  8
     \\/     M anipulation  |
\*---------------------------------------------------------------------------*/
FoamFile
{
    version     2.0;
    format      ascii;
    class       volScalarField;
    location    "1.5/wallFilmRegion";
    object      sigma;
}
// * * * * * * * * * * * * * * * * * * * * * * * * * * * * * * * * * * * * * //

dimensions      [1 0 -2 0 0 0 0];

internalField   nonuniform List<scalar> 
1342
(
0.07244713592
0.07244713625
0.07244713576
0.07244713548
0.07244713548
0.07244713534
0.07244713385
0.07244713097
0.0724471275
0.07244712106
0.07244710519
0.07244710977
0.07244712203
0.07244712983
0.07244713455
0.07244713465
0.0724471347
0.07244713471
0.07244713472
0.0724471347
0.07244713467
0.07244713462
0.07244713455
0.07244713446
0.07244713438
0.0724471345
0.07244713576
0.07244713576
0.072447136
0.07244713581
0.07244713549
0.07244713517
0.07244713486
0.07244713439
0.07244712648
0.07244711017
0.07244708889
0.07244707566
0.07244709541
0.07244711689
0.07244712832
0.07244713438
0.07244713463
0.0724471347
0.07244713471
0.0724471347
0.07244713468
0.07244713462
0.07244713453
0.07244713441
0.07244713424
0.07244713412
0.07244713449
0.07244713563
0.07244713544
0.07244713533
0.07244713567
0.07244713557
0.07244713544
0.07244713542
0.07244713464
0.07244713443
0.07244711893
0.07244707769
0.07244699792
0.0724470486
0.07244709376
0.07244711783
0.07244712821
0.07244713415
0.07244713459
0.07244713468
0.0724471347
0.07244713467
0.07244713461
0.07244713452
0.07244713446
0.07244713431
0.07244713418
0.0724471342
0.07244713446
0.07244713518
0.07244713515
0.07244713515
0.07244713534
0.0724471353
0.07244713528
0.07244713519
0.07244713496
0.07244713447
0.0724471028
0.0724469549
0.07244679818
0.07244706468
0.07244709676
0.07244711933
0.07244712845
0.07244713391
0.07244713454
0.07244713465
0.07244713466
0.07244713461
0.07244713452
0.07244713444
0.07244713465
0.07244713433
0.07244713421
0.07244713426
0.07244713441
0.07244713515
0.072447135
0.07244713491
0.07244713505
0.07244713519
0.07244713502
0.07244713555
0.07244713518
0.07244713441
0.07244707807
0.07244682782
0.07244668769
0.07244708407
0.07244710237
0.07244712121
0.07244712896
0.07244713371
0.07244713448
0.07244713461
0.07244713461
0.07244713454
0.07244713444
0.07244713452
0.0724471348
0.07244713474
0.07244713428
0.07244713416
0.07244713445
0.07244713525
0.07244713506
0.07244713465
0.07244713494
0.07244713506
0.07244713469
0.07244713386
0.07244713404
0.07244713418
0.07244713423
0.07244704825
0.07244680178
0.07244666079
0.07244709958
0.07244710911
0.0724471233
0.07244712965
0.07244713352
0.07244713439
0.07244713453
0.07244713453
0.07244713446
0.07244713437
0.07244713423
0.07244713473
0.07244713415
0.07244713413
0.07244713411
0.07244713448
0.07244713424
0.07244713417
0.07244713393
0.07244713368
0.07244713375
0.07244713392
0.07244713376
0.07244713368
0.07244713379
0.0724471339
0.07244701834
0.07244658203
0.07244658207
0.07244711425
0.07244711741
0.07244712581
0.07244713047
0.07244713333
0.07244713426
0.07244713442
0.07244713442
0.07244713435
0.07244713422
0.07244713401
0.07244713447
0.07244713323
0.07244713351
0.07244713412
0.07244713447
0.07244713437
0.07244713456
0.07244713462
0.07244713467
0.07244713476
0.07244713458
0.07244713352
0.07244713321
0.07244713342
0.07244713342
0.07244709221
0.07244707683
0.0724470765
0.07244712722
0.07244712631
0.07244712903
0.07244713154
0.07244713327
0.07244713409
0.07244713427
0.07244713428
0.07244713419
0.07244713405
0.07244713381
0.07244713363
0.07244713293
0.07244713299
0.07244713414
0.07244713444
0.07244713407
0.07244713498
0.07244713519
0.07244713509
0.07244713486
0.07244713455
0.07244713304
0.07244713291
0.07244713319
0.07244713293
0.07244710593
0.07244707944
0.07244706912
0.07244711836
0.07244712901
0.07244713108
0.07244713248
0.07244713342
0.07244713396
0.07244713413
0.07244713413
0.07244713404
0.07244713388
0.07244713364
0.07244713329
0.07244713278
0.07244713262
0.07244713401
0.07244713444
0.07244713207
0.07244713477
0.07244713549
0.07244713567
0.07244713486
0.07244713394
0.07244713271
0.072447133
0.07244713311
0.07244713246
0.07244711062
0.0724470682
0.07244703984
0.07244711088
0.07244712989
0.07244713211
0.07244713309
0.07244713364
0.07244713393
0.07244713404
0.07244713402
0.07244713392
0.07244713374
0.07244713347
0.07244713308
0.07244713253
0.07244713229
0.07244713389
0.07244713444
0.07244712154
0.07244710314
0.07244713319
0.07244713494
0.07244713487
0.07244713448
0.07244713365
0.07244713354
0.07244713317
0.07244713187
0.07244711358
0.07244705377
0.07244700477
0.07244710444
0.07244712956
0.07244713246
0.07244713336
0.07244713376
0.07244713394
0.07244713398
0.07244713393
0.07244713379
0.07244713357
0.07244713323
0.07244713276
0.07244713213
0.07244713196
0.0724471338
0.07244713445
0.07244713332
0.07244713291
0.07244713462
0.07244713509
0.07244713485
0.07244713457
0.07244713465
0.07244713418
0.07244713366
0.07244713317
0.07244712996
0.07244709946
0.07244703103
0.07244710519
0.07244712803
0.07244713222
0.07244713334
0.07244713373
0.07244713387
0.07244713387
0.07244713378
0.07244713359
0.07244713329
0.07244713285
0.07244713227
0.07244713156
0.07244713165
0.07244713373
0.07244713446
0.07244713501
0.07244713418
0.07244713461
0.07244713521
0.07244713485
0.07244713484
0.072447135
0.07244713499
0.0724471347
0.07244713395
0.07244713465
0.07244713475
0.07244713461
0.07244713392
0.07244713262
0.0724471324
0.07244713315
0.07244713355
0.07244713368
0.07244713366
0.07244713351
0.07244713324
0.07244713282
0.07244713228
0.07244713159
0.07244713089
0.07244713141
0.07244713365
0.07244713446
0.07244713518
0.07244713436
0.07244713489
0.07244713507
0.07244713475
0.07244713501
0.07244713474
0.07244713483
0.07244713498
0.07244713447
0.07244713347
0.07244713221
0.07244713199
0.072447133
0.07244713243
0.07244713224
0.07244713278
0.07244713318
0.07244713331
0.07244713325
0.07244713303
0.07244713263
0.07244713415
0.07244713357
0.07244713184
0.07244713084
0.07244713156
0.07244713338
0.07244713446
0.07244713513
0.0724471349
0.07244713504
0.07244713505
0.07244713465
0.07244713488
0.07244713459
0.07244713466
0.0724471348
0.07244713405
0.07244713276
0.07244713099
0.07244713101
0.07244713224
0.07244713213
0.07244713196
0.07244713224
0.07244713257
0.07244713269
0.07244713258
0.0724471321
0.07244713185
0.07244713444
0.07244713437
0.07244713418
0.07244713403
0.07244713398
0.07244713397
0.07244713444
0.07244713512
0.0724471351
0.07244713523
0.07244713506
0.07244713448
0.07244713461
0.07244713413
0.07244713418
0.07244713428
0.0724471331
0.07244713172
0.07244713014
0.07244713002
0.07244713141
0.07244713176
0.07244713169
0.07244713174
0.07244713186
0.07244713189
0.07244713169
0.07244713417
0.07244713439
0.07244713456
0.07244713452
0.07244713444
0.07244713435
0.07244713429
0.07244713424
0.07244713444
0.07244713507
0.07244713504
0.07244713499
0.07244713451
0.07244713309
0.07244713448
0.07244713428
0.0724471343
0.07244713436
0.07244713431
0.07244713424
0.07244713415
0.072447134
0.07244713373
0.07244713324
0.07244713259
0.07244713205
0.07244713177
0.07244713158
0.0724471314
0.07244713437
0.07244713453
0.07244713462
0.07244713458
0.0724471345
0.07244713444
0.0724471344
0.07244713429
0.07244713444
0.07244713504
0.07244713498
0.07244713487
0.07244713451
0.07244713311
0.07244713446
0.07244713452
0.07244713458
0.07244713463
0.07244713465
0.07244713464
0.0724471346
0.07244713452
0.07244713435
0.07244713402
0.07244713347
0.07244713286
0.07244713249
0.07244713235
0.07244713246
0.07244713445
0.07244713457
0.07244713466
0.0724471346
0.07244713451
0.07244713447
0.07244713444
0.07244713441
0.07244713445
0.07244713505
0.07244713499
0.07244713489
0.07244713469
0.0724471339
0.07244713475
0.07244713478
0.07244713479
0.07244713478
0.07244713477
0.07244713474
0.0724471347
0.07244713463
0.07244713448
0.07244713422
0.0724471338
0.07244713345
0.07244713344
0.07244713443
0.07244713461
0.07244713467
0.07244713468
0.07244713474
0.07244713465
0.07244713456
0.0724471345
0.07244713446
0.07244713444
0.07244713447
0.0724471351
0.07244713508
0.07244713511
0.07244713527
0.072447136
0.07244713497
0.07244713486
0.07244713483
0.07244713481
0.07244713479
0.07244713476
0.0724471347
0.07244713461
0.07244713446
0.07244713421
0.07244713397
0.07244713401
0.07244713422
0.07244713444
0.07244713459
0.07244713463
0.07244713455
0.07244713458
0.0724471345
0.07244713446
0.07244713445
0.07244713445
0.07244713446
0.07244713449
0.07244713517
0.07244713538
0.07244713585
0.07244713634
0.07244713608
0.07244713508
0.07244713479
0.07244713476
0.07244713476
0.07244713474
0.0724471347
0.07244713463
0.07244713451
0.07244713434
0.07244713418
0.07244713426
0.07244713461
0.07244713479
0.07244713466
0.07244713461
0.07244713462
0.07244713451
0.07244713453
0.0724471345
0.07244713448
0.07244713446
0.07244713445
0.07244713446
0.0724471345
0.07244713515
0.07244713524
0.07244713571
0.07244713691
0.07244713601
0.07244713513
0.07244713471
0.07244713426
0.07244713457
0.07244713459
0.07244713454
0.07244713446
0.07244713434
0.07244713427
0.07244713437
0.07244713462
0.07244713486
0.07244713481
0.07244713458
0.07244713452
0.07244713451
0.07244713448
0.0724471345
0.0724471345
0.0724471345
0.07244713447
0.07244713445
0.07244713447
0.0724471345
0.072447135
0.07244713501
0.07244713529
0.07244713681
0.07244713576
0.07244713514
0.07244713467
0.07244713436
0.07244713447
0.07244713456
0.0724471346
0.07244713461
0.07244713462
0.07244713464
0.07244713472
0.07244713486
0.07244713498
0.07244713478
0.0724471345
0.07244713448
0.07244713451
0.07244713451
0.07244713452
0.07244713452
0.07244713452
0.07244713449
0.07244713446
0.07244713447
0.0724471345
0.07244713496
0.07244713496
0.072447135
0.0724471351
0.0724471355
0.07244713512
0.07244713477
0.07244713462
0.0724471347
0.07244713474
0.07244713476
0.07244713478
0.0724471348
0.07244713483
0.0724471349
0.07244713499
0.07244713505
0.07244713464
0.07244713447
0.07244713448
0.07244713451
0.07244713453
0.07244713454
0.07244713454
0.07244713454
0.07244713451
0.07244713447
0.07244713447
0.0724471345
0.07244713503
0.0724471349
0.07244713485
0.07244713493
0.0724471349
0.07244713486
0.07244713476
0.07244713469
0.07244713471
0.07244713474
0.07244713477
0.07244713482
0.07244713487
0.07244713493
0.07244713501
0.07244713508
0.0724471351
0.07244713452
0.07244713448
0.0724471345
0.07244713451
0.07244713454
0.07244713455
0.07244713456
0.07244713456
0.07244713455
0.07244713453
0.07244713448
0.0724471345
0.07244713364
0.07244713461
0.07244713467
0.07244713575
0.07244713516
0.07244713483
0.07244713475
0.0724471347
0.0724471347
0.07244713472
0.07244713476
0.07244713483
0.0724471349
0.07244713498
0.07244713506
0.07244713512
0.07244713514
0.07244713448
0.07244713449
0.07244713451
0.07244713453
0.07244713455
0.07244713456
0.07244713457
0.07244713458
0.07244713458
0.07244713457
0.07244713455
0.0724471345
0.07244713364
0.07244713457
0.07244713463
0.07244713608
0.07244713558
0.07244713489
0.07244713474
0.0724471347
0.07244713469
0.07244713469
0.07244713471
0.0724471348
0.07244713489
0.07244713498
0.07244713506
0.07244713514
0.07244713517
0.07244713447
0.07244713448
0.0724471345
0.07244713453
0.07244713454
0.07244713456
0.07244713458
0.07244713459
0.07244713459
0.07244713459
0.07244713458
0.07244713452
0.07244713485
0.07244713464
0.07244713466
0.07244713487
0.072447135
0.07244713477
0.07244713472
0.0724471347
0.07244713468
0.07244713465
0.0724471346
0.07244713472
0.07244713482
0.07244713494
0.07244713505
0.07244713512
0.07244713513
0.07244713446
0.07244713447
0.07244713448
0.0724471345
0.07244713453
0.07244713456
0.07244713458
0.0724471346
0.0724471346
0.07244713461
0.07244713461
0.07244713461
0.07244713486
0.07244713478
0.07244713472
0.07244713632
0.07244713609
0.0724471349
0.07244713475
0.07244713471
0.07244713468
0.07244713463
0.07244713453
0.07244713464
0.07244713476
0.07244713488
0.07244713483
0.07244713425
0.07244713416
0.0724471342
0.07244713445
0.07244713444
0.07244713449
0.07244713451
0.07244713452
0.07244713455
0.07244713459
0.0724471346
0.07244713461
0.07244713462
0.07244713464
0.07244713473
0.07244711549
0.07244712406
0.07244713634
0.07244713609
0.0724471349
0.07244713472
0.07244713469
0.07244713466
0.07244713463
0.07244713461
0.07244713463
0.07244713466
0.07244713468
0.07244713468
0.07244713469
0.07244713469
0.0724471347
0.07244713463
0.07244713461
0.07244713459
0.07244713459
0.07244713459
0.07244713459
0.07244713459
0.07244713459
0.07244713459
0.0724471346
0.07244713462
0.07244713495
0.07244713492
0.07244713508
0.07244713558
0.07244713746
0.07244714068
0.07244714185
0.07244714217
0.07244725873
0.0724473413
0.07244733406
0.07244728537
0.07244737433
0.07244737358
0.07244737913
0.07244737988
0.0724474145
0.07244739098
0.07244738903
0.07244739019
0.07244744116
0.0724473929
0.07244738495
0.0724473709
0.07244713561
0.07244713909
0.07244715552
0.07244713554
0.07244718344
0.0724471927
0.07244713543
0.07244720067
0.07244720839
0.07244713522
0.07244721664
0.07244722425
0.07244713521
0.07244722864
0.07244723209
0.07244713522
0.07244722689
0.07244721516
0.07244713523
0.07244721091
0.07244721354
0.07244713523
0.07244721329
0.07244720958
0.07244713522
0.07244720441
0.07244718202
0.07244713503
0.07244713608
0.07244713509
0.07244716127
0.07244716158
0.0724471659
0.07244713556
0.07244713828
0.07244713742
0.07244717427
0.07244725218
0.07244713846
0.07244719754
0.07244730945
0.07244728211
0.07244732725
0.07244730607
0.0724472972
0.07244730962
0.07244732397
0.07244735116
0.07244729238
0.0724473798
0.072447344
0.07244731647
0.07244734271
0.07244739683
0.0724474135
0.07244741928
0.07244743361
0.07244743207
0.07244713552
0.07244713555
0.07244713564
0.07244713576
0.07244713573
0.07244713587
0.07244713612
0.07244713627
0.07244713632
0.07244713554
0.07244713548
0.07244713545
0.07244711995
0.07244712595
0.07244707606
0.07244713538
0.0724471353
0.07244713538
0.07244713538
0.07244713541
0.07244713553
0.07244713543
0.07244713524
0.0724471354
0.07244713575
0.07244713536
0.07244713565
0.07244713524
0.07244713523
0.07244713524
0.07244713532
0.07244713524
0.07244713524
0.07244713525
0.07244713524
0.07244713525
0.07244713524
0.07244712831
0.0724471261
0.07244713526
0.07244713523
0.07244713528
0.07244713471
0.07244713537
0.07244713523
0.07244713527
0.07244713525
0.07244714929
0.07244714227
0.07244716044
0.07244715738
0.07244718178
0.07244718015
0.07244714476
0.07244716821
0.07244715666
0.07244714845
0.07244721755
0.0724472294
0.07244723185
0.07244722452
0.0724472336
0.07244723648
0.07244723569
0.07244724071
0.07244724573
0.07244724128
0.07244724831
0.07244724992
0.07244722354
0.07244724227
0.07244723155
0.07244723001
0.07244723026
0.07244724051
0.07244723834
0.07244724812
0.07244725261
0.07244721702
0.07244725573
0.07244723688
0.07244718342
0.07244721343
0.07244717683
0.07244716594
0.07244719986
0.07244717934
0.07244724753
0.07244726902
0.07244726477
0.07244724992
0.07244726346
0.07244726461
0.07244725627
0.07244726504
0.07244726706
0.07244725854
0.07244726677
0.07244726695
0.07244723994
0.07244725779
0.07244724821
0.07244725064
0.0724472473
0.07244725955
0.07244726645
0.07244726985
0.07244727716
0.07244725697
0.07244728017
0.07244727558
0.07244732839
0.07244728774
0.07244733728
0.07244734269
0.07244735178
0.07244735475
0.07244731464
0.0724472789
0.07244729216
0.07244728731
0.07244727712
0.07244728328
0.07244727681
0.07244727418
0.07244727625
0.07244727448
0.07244725567
0.07244727009
0.07244726222
0.0724472663
0.07244726063
0.07244727042
0.07244728192
0.07244727802
0.07244728522
0.07244739742
0.07244738199
0.0724473764
0.07244738278
0.07244738415
0.07244738076
0.07244738644
0.07244727187
0.07244731951
0.07244730681
0.07244727767
0.07244730139
0.07244730625
0.07244727795
0.07244727249
0.07244732107
0.07244727273
0.07244731516
0.0724473162
0.07244738908
0.07244713581
0.07244713557
0.07244713564
0.07244713515
0.07244713807
0.07244713534
0.07244713697
0.07244713547
0.07244713745
0.07244713558
0.07244713562
0.07244713563
0.07244713592
0.07244713549
0.07244713549
0.07244713556
0.07244713538
0.07244713538
0.07244713538
0.07244713521
0.07244713526
0.07244713555
0.07244713521
0.07244713523
0.07244713527
0.07244713522
0.07244713524
0.07244713525
0.07244713523
0.07244713525
0.07244713154
0.07244713523
0.07244713523
0.07244713519
0.07244713519
0.07244713526
0.07244714981
0.07244713794
0.07244715932
0.07244715056
0.07244721276
0.07244722055
0.07244722997
0.07244723898
0.07244723446
0.07244722159
0.07244723592
0.0724472398
0.07244713704
0.07244716125
0.072447155
0.07244721804
0.07244725706
0.07244719541
0.07244722309
0.07244716206
0.07244724821
0.07244724779
0.07244725245
0.07244725763
0.07244725022
0.07244723909
0.0724472599
0.07244726987
0.07244714016
0.07244729496
0.07244727893
0.07244727737
0.07244727499
0.07244726357
0.07244725425
0.07244727645
0.07244728839
0.07244731594
0.07244726581
0.07244730741
0.07244728475
0.07244714292
0.07244714304
0.07244714294
0.07244731951
0.07244727942
0.07244727258
0.07244727175
0.07244727189
0.07244728288
0.07244737197
0.07244743352
0.07244744042
0.07244743836
0.07244741934
0.07244742464
0.07244743616
0.07244739505
0.07244738189
0.0724473784
0.07244737451
0.07244741353
0.07244746214
0.07244738866
0.07244736314
0.0724473485
0.07244739101
0.07244745668
0.0724473862
0.07244735371
0.07244732822
0.07244743014
0.07244746718
0.07244739173
0.07244735927
0.07244732431
0.07244713504
0.07244713732
0.07244713563
0.07244713501
0.07244713564
0.07244714336
0.07244713525
0.0724471371
0.07244713502
0.07244713503
0.07244714841
0.0724471461
0.07244713542
0.07244713712
0.07244713505
0.07244713506
0.07244714237
0.07244713974
0.07244713504
0.07244713844
0.07244713524
0.07244713508
0.07244713514
0.07244713492
0.07244713496
0.072447135
0.07244713509
0.07244713505
0.07244713518
0.07244713548
0.07244713584
0.07244713793
0.07244714052
0.07244714112
0.07244714137
0.07244714151
0.07244725671
0.07244724414
0.07244714005
0.07244714052
0.0724471378
0.07244714212
0.07244714162
0.07244714175
0.07244714228
0.07244714202
0.07244714243
0.07244714256
0.07244735087
0.07244733838
0.07244731554
0.0724473702
0.07244742338
0.07244738373
0.07244742768
0.07244735023
0.07244733263
0.07244746218
0.07244746853
0.072447143
0.07244747242
0.07244733894
0.07244714306
0.07244714292
0.072447143
0.07244738899
0.0724473912
0.07244739458
0.0724473891
0.0724473838
0.07244738076
0.07244738962
0.07244737975
0.07244737923
0.07244740004
0.07244743581
0.0724474165
0.07244738851
0.07244742682
0.07244741475
0.07244743355
0.07244741436
0.07244741346
0.07244741029
0.07244743995
0.07244740437
0.07244741971
0.07244745255
0.07244744028
0.07244740628
0.07244745166
0.07244740717
0.0724473869
0.07244739151
0.07244737959
0.07244737822
0.07244737201
0.07244736643
0.07244736108
0.07244740682
0.07244746556
0.07244740321
0.07244737341
0.07244738672
0.07244736955
0.07244735556
0.07244735674
0.07244734707
0.07244733796
0.07244739554
0.07244747063
0.0724474082
0.07244736901
0.07244738639
0.07244736718
0.07244734119
0.07244735268
0.07244733962
0.07244732522
0.07244741421
0.072447452
0.07244741678
0.07244737366
0.0724474003
0.07244738739
0.07244734425
0.07244737652
0.07244736426
0.07244737949
0.07244734758
)
;

boundaryField
{
    walls
    {
        type            zeroGradient;
    }
    wallFilmFace_top
    {
        type            zeroGradient;
    }
    region0_to_wallFilmRegion_wallFilmFace
    {
        type            zeroGradient;
    }
    mirrorFace_top
    {
        type            zeroGradient;
    }
    region0_to_wallFilmRegion_mirrorFace
    {
        type            zeroGradient;
    }
    procBoundary2to0
    {
        type            processor;
        value           nonuniform List<scalar> 
26
(
0.07244713588
0.07244713592
0.07244713573
0.07244713545
0.07244713528
0.07244713501
0.07244713361
0.07244713218
0.07244712966
0.07244712512
0.07244711382
0.07244711507
0.0724471254
0.07244713161
0.07244713463
0.07244713464
0.07244713469
0.07244713471
0.07244713472
0.07244713472
0.0724471347
0.07244713467
0.07244713462
0.07244713453
0.07244713442
0.0724471345
)
;
    }
    procBoundary2to1
    {
        type            processor;
        value           nonuniform List<scalar> 
33
(
0.07244713592
0.07244713592
0.0724471359
0.0724471359
0.07244713574
0.07244713524
0.07244713523
0.07244713523
0.07244713536
0.07244713495
0.07244713399
0.07244713205
0.07244712933
0.07244712378
0.07244713403
0.07244713557
0.07244713567
0.07244713547
0.07244713532
0.07244713518
0.07244713517
0.07244713529
0.07244713522
0.07244713512
0.07244713497
0.07244713493
0.07244713492
0.07244713489
0.07244713496
0.07244713508
0.07244713508
0.07244713493
0.07244713474
)
;
    }
    procBoundary2to3
    {
        type            processor;
        value           nonuniform List<scalar> 
64
(
0.07244713498
0.07244713802
0.07244713981
0.07244714068
0.07244714228
0.07244725112
0.07244737383
0.07244739016
0.07244735837
0.07244713627
0.0724471364
0.07244713643
0.07244713645
0.0724471364
0.07244713639
0.07244713573
0.0724471359
0.07244713587
0.07244713567
0.07244713535
0.07244713524
0.07244713523
0.0724471288
0.07244713351
0.07244713351
0.07244713501
0.07244713515
0.07244713515
0.07244713525
0.07244713515
0.07244714118
0.07244714348
0.07244714118
0.07244715199
0.07244716386
0.0724471355
0.07244713789
0.07244713627
0.07244713528
0.07244714118
0.07244714296
0.07244737655
0.07244736966
0.07244734007
0.07244731194
0.0724472948
0.07244713502
0.07244713801
0.07244713508
0.0724471357
0.07244713802
0.07244714045
0.07244714158
0.07244714266
0.07244728401
0.07244714302
0.07244747471
0.07244739253
0.07244743782
0.0724473958
0.07244735449
0.07244732733
0.0724473064
0.07244732286
)
;
    }
}


// ************************************************************************* //
