/*--------------------------------*- C++ -*----------------------------------*\
  =========                 |
  \\      /  F ield         | OpenFOAM: The Open Source CFD Toolbox
   \\    /   O peration     | Website:  https://openfoam.org
    \\  /    A nd           | Version:  8
     \\/     M anipulation  |
\*---------------------------------------------------------------------------*/
FoamFile
{
    version     2.0;
    format      ascii;
    class       volScalarField;
    location    "1.1/wallFilmRegion";
    object      delta;
}
// * * * * * * * * * * * * * * * * * * * * * * * * * * * * * * * * * * * * * //

dimensions      [0 1 0 0 0 0 0];

internalField   nonuniform List<scalar> 
1342
(
0.001950718167
0.00138927526
0.0002059148166
0.0002350322067
0.0007515748753
7.625750245e-05
2.202193842e-06
6.878037612e-05
8.728864242e-05
8.622039524e-05
7.819949909e-05
6.182140507e-05
3.474891416e-05
2.22693747e-05
2.143228049e-05
2.474705969e-05
3.019039096e-05
3.831486798e-05
5.186446224e-05
7.672238219e-05
0.0001153815138
0.0001501378461
0.0001486642406
0.0001227999534
6.092478719e-05
0.001715653818
0.0004333360137
0.001898135065
0.001562935219
0.0004279840278
0.0003118188204
0.0001089498591
1.092147384e-05
4.317215914e-06
6.246205746e-05
7.249956846e-05
6.9426041e-05
6.717886881e-05
6.55716404e-05
5.472320517e-05
3.851911078e-05
3.042982398e-05
2.962421929e-05
3.322784732e-05
4.213930707e-05
6.374106649e-05
0.0001095855273
0.0001660446548
0.0001791745744
0.000127234457
7.531541404e-05
2.811420587e-05
0.001389027731
3.454599552e-05
0.0003524509338
0.001417417386
0.001763358097
0.0007811570921
0.000430414504
0.000277443196
0.0001612293902
9.539612874e-05
5.662976852e-05
7.939994199e-05
8.914212527e-05
9.926225474e-05
0.000113249701
0.0001242013577
0.000113583551
8.404112829e-05
5.653777399e-05
4.523544457e-05
5.380536036e-05
9.420614497e-05
0.0001662808385
0.000200446033
0.0001470290682
7.030173946e-05
3.702108851e-05
1.575799516e-05
0.001141696351
0.0001898876651
0.0003642937632
0.0006945873226
0.0008880411644
0.0006145915193
3.303564604e-05
0.0005476518913
0.0001280019737
5.914414641e-05
7.033681776e-05
9.102950415e-05
0.0001131346182
0.0001231588355
9.96650376e-05
7.503057659e-05
6.141460237e-05
5.2130312e-05
4.506636934e-05
4.605873422e-05
6.573094771e-05
0.0001153865106
0.000155767116
0.0001316172887
7.659266804e-05
3.996517786e-05
2.762340839e-05
1.707022674e-05
0.0009679631053
0.0003510432508
0.0001735362179
9.926605266e-05
0.0002264025047
0.0003514869912
2.805413705e-05
1.909272594e-05
7.806178432e-07
7.80241252e-08
8.001980478e-05
0.0001076819857
0.0001650029397
0.0001486307131
6.718668781e-05
4.066066106e-05
3.658938319e-05
3.775679563e-05
4.093113135e-05
5.059737227e-05
7.681033473e-05
0.0001106888661
0.0001095103553
7.124780235e-05
3.60471392e-05
2.140886237e-05
2.177269362e-05
1.797820819e-05
0.001096785889
0.0003223692766
0.0001441342891
4.944109761e-05
3.437696206e-05
5.807160764e-05
2.37905517e-05
3.186841895e-06
4.069606435e-07
1.074366675e-07
5.339694248e-09
8.489005196e-05
0.0001177349828
0.0001529906864
0.0001296838808
6.42070124e-05
4.104717553e-05
3.656724963e-05
3.885467671e-05
4.537970799e-05
5.912850198e-05
8.235857304e-05
9.520796733e-05
7.715996824e-05
4.407971242e-05
2.078641768e-05
1.002572045e-05
6.672249659e-06
7.138504013e-06
0.00140054475
0.000191890839
7.178266534e-05
3.491754202e-05
2.881520738e-05
2.805678529e-05
3.847825945e-06
1.038152214e-06
4.65406309e-07
2.270456068e-07
8.25242151e-09
8.675794392e-05
0.000114104808
9.685148432e-05
6.302297277e-05
0.000186416685
0.0002768713453
0.0002068425103
0.0001464549434
0.0001154108036
0.0001048875415
0.0001022730742
8.902959273e-05
6.079515474e-05
3.305133788e-05
1.680193014e-05
9.654712353e-06
9.286914606e-06
1.42155847e-05
0.002215555824
0.0003947247994
0.0003014771279
0.0002164831929
0.0001040986246
2.645402507e-05
1.134142073e-06
2.053223421e-07
2.599791821e-08
5.593949524e-07
3.757194555e-07
8.44159684e-05
9.970004757e-05
5.347984924e-05
1.795552215e-05
2.839516178e-05
0.0001447546778
0.0003682366292
0.0004655305638
0.0004322764646
0.0003086355226
0.0001877683976
0.0001063850486
5.422591307e-05
2.552185664e-05
1.318027868e-05
9.342567533e-06
1.541455175e-05
5.226526032e-05
0.00350122106
0.0007400223372
0.0005826687864
0.0002216254085
9.452181846e-05
0.0001196253389
4.316897839e-07
4.201363102e-08
1.789882697e-08
6.651097862e-07
2.906014968e-07
7.377989818e-05
7.212875901e-05
2.166124736e-05
9.722161575e-06
7.86024474e-06
1.890858321e-05
4.105195953e-05
6.85662696e-05
0.0001026251918
0.0001461484877
0.0001391479242
8.43816845e-05
4.03433147e-05
1.874673016e-05
1.06707685e-05
9.036754295e-06
1.723153167e-05
4.363590338e-05
0.00323137047
0.0007009712759
0.0005839806763
0.0001065185266
0.000113551635
0.000425670708
6.251659009e-07
3.161894688e-08
1.682151014e-08
1.878162481e-06
9.41625205e-07
5.329471262e-05
3.827959031e-05
9.955247849e-06
7.137113295e-06
4.051763258e-06
1.267407232e-05
2.183406298e-05
2.618617427e-05
2.788291396e-05
3.138244839e-05
3.38356395e-05
3.378409958e-05
2.483607332e-05
1.637815071e-05
1.224736697e-05
1.215292347e-05
2.214428821e-05
4.660034602e-05
0.00309977775
0.0003252823835
0.0003938505521
0.0002607028294
0.000351268251
0.0007340919165
5.853203305e-05
2.026007107e-07
4.024984387e-08
8.166078997e-06
5.361146521e-05
7.250251599e-05
9.148617826e-05
4.092920102e-05
2.022309053e-05
8.986569668e-06
2.187469213e-05
4.338974415e-05
5.292669042e-05
5.334158719e-05
5.12366722e-05
6.328816443e-05
0.0001195989346
0.0001372616678
8.350206865e-05
4.29109699e-05
3.135239701e-05
4.579514859e-05
7.477791448e-05
0.003210633362
0.000141325257
0.0001951697361
0.0004322756212
0.0009085876918
0.000711061523
0.0001747836297
4.296540174e-05
3.291320154e-05
3.140041214e-05
3.138827741e-05
3.129430624e-05
4.435131884e-05
4.639984375e-05
3.450111647e-05
1.394586425e-05
3.306601887e-05
6.392780908e-05
7.773859671e-05
7.833484262e-05
7.392839842e-05
8.935802641e-05
0.0001797865759
0.0002386713205
0.0001605809587
8.860338323e-05
6.68085754e-05
9.379442538e-05
0.0001138503243
0.003509024473
0.0001632127217
0.0002479866397
0.0001502152269
0.0002304771602
0.000442373131
0.0002564643025
5.095675476e-05
2.493246022e-05
1.128110992e-05
1.497128468e-07
1.021526571e-06
2.607921332e-05
2.422059676e-05
3.295830135e-05
1.526713793e-05
3.944480625e-05
6.988434022e-05
8.405894978e-05
8.486149292e-05
8.06150274e-05
9.589142424e-05
0.0001797094538
0.0002598809346
0.0002190581915
0.0001355335316
9.076512234e-05
0.0001210700201
0.0001195839192
0.003982765378
3.876829832e-05
3.923510709e-05
0.0001165575269
0.0001560772518
0.000226247104
0.0001956215127
4.198316791e-05
1.316062299e-05
5.762908118e-06
4.62213572e-08
7.521659735e-08
1.917822488e-07
8.677771204e-06
1.81982971e-05
1.576531859e-05
4.252768622e-05
7.118399583e-05
8.532604175e-05
8.740025819e-05
8.499854273e-05
9.845616274e-05
0.0001616965942
0.0002364538989
0.000226526602
0.0001522655739
9.172210859e-05
0.0001150359724
0.0001122948574
0.004570519951
3.090024246e-05
2.127313188e-05
0.0001091877911
0.0001575739535
0.0001648736034
0.0001638796135
2.151806495e-05
5.755290955e-06
2.512915333e-06
4.025953978e-08
1.696886238e-08
1.710853776e-08
4.057676114e-06
1.020604592e-05
1.420575956e-05
4.346502902e-05
7.277277792e-05
8.864696195e-05
9.394913647e-05
9.49900575e-05
0.0001075789795
0.0001562899012
0.0002232165073
0.0002329936998
0.0001697466999
9.903962363e-05
0.0001160679475
0.0001207661684
0.005101281142
3.096168736e-05
9.500284673e-06
9.6591192e-05
0.0001385691619
0.0001513074092
0.0001772281468
9.849842994e-06
2.877491282e-06
1.266554278e-06
1.896141297e-08
1.316556555e-08
1.265646264e-08
2.677496174e-06
7.537358647e-06
1.337375923e-05
4.384859836e-05
7.640136351e-05
9.676564921e-05
0.0001069120834
0.0001135675346
0.0001325729539
0.000190393014
0.0002730831181
0.0002970236097
0.0002343529097
0.0001459195249
0.000156325988
0.0001455679839
0.005443948185
4.825779696e-09
2.133920363e-09
8.223384634e-05
0.0001081639797
0.0001353735259
0.0001985721815
5.770347867e-06
1.538235772e-06
6.891478374e-07
1.072434798e-08
9.225996115e-09
1.015786186e-08
2.288802949e-06
6.977465202e-06
1.36850159e-05
4.377188706e-05
7.934118666e-05
0.0001062193583
0.0001225183287
0.0001375477941
0.0001720336865
0.0002540873433
0.0003507328808
0.00036948571
0.0002973169084
0.000197401067
0.000204760861
0.0001768772334
0.005575259715
2.101022876e-09
3.88117556e-10
6.750022315e-05
7.743304661e-05
0.0001064721886
0.0001825924815
6.035558369e-05
9.848023019e-07
4.018410918e-07
3.081922769e-08
1.284744184e-08
1.202873994e-08
2.25836618e-06
7.262079906e-06
1.478120146e-05
4.283535168e-05
7.765132496e-05
0.0001070339742
0.0001289990594
0.0001522314921
0.0001995855432
0.0002870796387
0.0003660129326
0.0003658965828
0.0002952619934
0.0002058927168
0.00021911821
0.0001957391348
0.005536256079
2.588830037e-09
7.556702485e-10
5.147976434e-05
5.118623545e-05
7.029594001e-05
0.0001241287618
0.0003243243703
4.419818679e-05
3.48937894e-07
4.375864074e-08
2.039256969e-08
2.062379067e-08
2.384441804e-06
7.924504846e-06
1.637756877e-05
4.101191308e-05
7.187311492e-05
9.686174319e-05
0.000116195019
0.0001404633941
0.0001875037887
0.0002586423491
0.0003162739911
0.0003176363077
0.0002659528801
0.0001942312551
0.0002155159855
0.0001998648061
0.005404094823
3.939971789e-09
2.259465495e-09
3.052696848e-05
2.754768503e-05
3.765890879e-05
8.320644371e-05
0.0002037292137
0.0002364458165
4.012058405e-05
2.799258377e-06
2.635289745e-07
7.042754813e-08
2.626158465e-06
8.817332712e-06
1.831287275e-05
3.921272919e-05
6.430875062e-05
8.322172929e-05
9.483382273e-05
0.000109384263
0.0001399395184
0.0001918595913
0.0003349098639
0.0004171188008
0.0004180323005
0.0003333540134
0.0003414567676
0.0002624808572
0.005374773536
3.158977811e-05
3.131651231e-05
3.952476092e-05
4.706615547e-05
7.859428838e-05
0.0001740463464
0.0003136123884
0.0003329824777
0.0001232388872
1.812705071e-05
1.922661e-06
3.179781021e-07
3.043970244e-06
9.970670013e-06
2.052406543e-05
3.834180719e-05
5.76547224e-05
7.041743861e-05
7.585919686e-05
8.079427754e-05
9.299605976e-05
0.0001810538116
0.001576203254
0.002602410756
0.002794055523
0.001508514703
0.001005640099
0.0004675674823
0.005752564022
5.292680724e-05
5.229434882e-05
6.818244814e-05
8.980921284e-05
0.0001571698006
0.0002179623938
0.0002254404149
0.000264438861
3.143495006e-05
5.263432177e-06
1.013197817e-06
4.271625247e-07
3.727806275e-06
1.154828198e-05
2.307956015e-05
3.861663227e-05
5.291366699e-05
6.01605846e-05
6.072039014e-05
5.990515081e-05
7.870779633e-05
0.0005489509796
0.005755291308
0.003707678286
0.003173861881
0.002047373915
0.002043838123
0.0006679781197
0.006804140421
5.984935696e-05
6.075110449e-05
8.598441917e-05
0.0001172619832
0.0001580191513
0.0001068146845
0.0001135532307
0.000272877051
2.166520202e-05
2.040664113e-06
6.885374846e-07
7.158406452e-07
4.834936846e-06
1.376313272e-05
2.611675187e-05
3.978551043e-05
4.97544586e-05
5.240203397e-05
4.96494428e-05
5.676614934e-05
0.0001036023283
0.005412360247
0.003438794004
0.003291521965
0.002800141588
0.001909782857
0.001493322071
0.0003926180899
0.00801395832
6.718779376e-05
6.230746355e-05
0.0001002921956
0.0001304177222
0.000122280981
5.43601588e-05
6.990596358e-05
0.0002905171118
7.389210702e-05
9.9633112e-06
2.099617701e-06
1.462542892e-06
6.359555567e-06
1.654999984e-05
2.946257603e-05
4.125258877e-05
4.745196238e-05
4.683759013e-05
4.289454871e-05
5.295384354e-05
0.0002747438627
0.005406743101
0.003535064405
0.003105572225
0.003263305139
0.00341554483
0.002199988199
0.0005383719576
0.009495369411
0.0001066676929
6.159499332e-05
0.0001167784226
0.0001328020413
8.374342823e-05
2.793087286e-05
4.008581203e-05
0.000299697434
0.0001530067838
3.240458849e-05
7.206766539e-06
3.42801788e-06
8.104663395e-06
1.91576116e-05
3.210734732e-05
4.189080603e-05
4.524832448e-05
4.339187807e-05
4.494950501e-05
7.660689306e-05
0.00347734509
0.002936785816
0.002695563694
0.002698808204
0.003498770177
0.004887552776
0.005491369084
0.001151139924
0.01048924535
0.0001099259292
5.273547871e-05
0.0001383622193
0.0001259042995
5.083914707e-05
1.416050078e-05
2.047641253e-05
0.0003111067349
0.0002549633828
8.099326856e-05
2.061340753e-05
7.895078418e-06
1.017564659e-05
2.054486474e-05
3.255871796e-05
4.050702043e-05
4.274917745e-05
4.236786016e-05
5.21359894e-05
0.0001370656254
0.003626236576
0.00257998907
0.001589181662
0.001843638698
0.002932569494
0.004862076827
0.006463361104
0.003614146495
0.0123654592
6.29951907e-06
3.042097278e-05
0.0001600755173
0.0001082497619
2.564529572e-05
6.887106242e-06
8.833049299e-06
0.000264001439
0.0003886027016
0.000214168754
7.273547666e-05
2.454083498e-05
1.628189918e-05
2.206759171e-05
3.105202498e-05
3.732744381e-05
4.030604826e-05
4.382269566e-05
6.441960891e-05
0.0002167575311
0.002639882134
0.0006386983789
0.0004414985864
0.0008022998657
0.001822137033
0.004442096234
0.006777746175
0.005071435952
0.01309853684
7.208108666e-06
1.396035725e-05
0.0001677233964
7.474451828e-05
1.057807401e-05
2.93580598e-06
2.93231047e-06
6.627187096e-05
0.0003461363249
0.0005453948761
0.0004607593519
0.0002365853363
9.212091247e-05
4.904552271e-05
4.525874433e-05
5.050559796e-05
5.832129507e-05
7.365618025e-05
0.0001252459455
0.0003887227554
0.00225351439
0.001399609032
0.001813639777
0.001712842075
0.001751476514
0.002738965435
0.007821455459
0.008117451107
0.01016819088
7.63880761e-06
6.436795756e-06
0.0001505201556
3.338516062e-05
3.74549636e-06
9.552854067e-07
6.301432167e-07
3.918350094e-06
1.839487951e-05
4.424295695e-05
6.178975046e-05
5.549005914e-05
4.505116715e-05
4.044803206e-05
4.156819117e-05
4.812255609e-05
6.228594851e-05
9.781912082e-05
0.0001875356962
0.000521158345
0.001516887938
0.00118896147
0.0006641959949
0.0005599318682
0.000592688713
0.001017837217
0.003865812503
0.007608739464
0.008839478702
0.002735883067
0.001298347865
0.001158142845
0.0007442400067
0.0005486046316
0.0004891318767
0.0006379848439
0.001161728006
0.002090661477
0.003013276768
0.003394244686
0.003178182354
0.002781638483
0.002570669014
0.00262128166
0.002883152472
0.003342802721
0.004011336816
0.004874076607
0.006174332628
0.007659492282
0.007725457469
0.006955747898
0.006314456259
0.00629864476
0.006861545175
0.008716277563
0.01105665258
0.01145102522
0.006664281453
1.79883802e-11
0.0001027171089
1.987028206e-14
4.227037918e-05
7.282150157e-15
7.710395678e-15
1.932964985e-14
8.443806541e-10
2.726264344e-19
6.286339652e-20
1.547420363e-20
1.755120661e-10
1.086009425e-19
3.665102692e-20
1.103066144e-20
9.087559031e-12
7.755901176e-20
3.134703897e-20
1.088362675e-20
4.84573721e-11
1.11135755e-16
1.07073761e-16
3.121782747e-16
2.46965845e-05
0.0002275818279
2.272378736e-05
2.179906577e-05
3.21286308e-06
9.49558767e-07
3.513341113e-05
4.166506016e-07
2.955477112e-07
6.028616677e-06
2.009989376e-07
1.399994453e-07
8.112515615e-05
8.521376211e-08
6.778576511e-08
2.335097502e-06
1.115634978e-07
2.400451598e-07
2.276561846e-06
4.319780447e-07
6.184081097e-07
2.053052366e-06
7.475917684e-07
1.019418408e-06
0.003536944782
2.004125032e-06
4.652636626e-06
0.01230214291
2.102037139e-05
0.0003643070253
5.601723234e-05
0.0001398694244
0.0001255187009
0.0001061685076
8.462937278e-05
8.920140897e-05
0.0001840250892
0.0002055145451
5.912903818e-05
0.0002197930475
0.0002130557459
3.812427658e-05
0.0001186203098
6.146012841e-05
0.000122277361
0.0001198117573
0.0001677462786
6.388199406e-05
2.072545992e-05
2.484890531e-05
2.172515024e-05
0.0001152868407
9.861206282e-05
7.537282753e-05
5.383690573e-06
6.364793713e-07
1.68719013e-05
2.442058125e-05
4.567692033e-05
0.001892634727
7.700286419e-05
1.955522917e-05
1.486133175e-05
5.353035526e-06
1.729004257e-05
6.242810751e-06
7.538210907e-06
8.219837056e-05
0.001622239258
0.0001648925279
3.091023367e-06
9.07053092e-05
3.536164055e-06
0.0004688290642
0.00124601555
0.0008345852722
2.666294276e-06
0.0002671978762
7.535607811e-06
0.0009389975262
0.002429556273
0.002693573896
0.0005564184569
0.001520906219
0.001736670763
2.101035803e-05
0.001796599314
0.000705706431
0.0002028950025
0.0001157470039
1.689988678e-06
0.0005829826721
0.002810919552
0.0006139504758
5.521830129e-07
6.315408108e-06
5.419438587e-07
0.00065298576
0.003500760366
0.0006404935209
1.155103986e-05
0.0005197619299
0.002620091808
0.0003975450567
6.345868591e-05
2.450585801e-17
3.542854925e-08
8.67263756e-18
4.174120854e-18
4.379411047e-18
1.540300214e-18
4.896819929e-19
5.564657671e-19
2.02316657e-19
7.049567352e-20
1.441983364e-06
1.319251366e-05
4.429972394e-06
2.647092947e-07
1.713698531e-06
7.142241919e-07
1.148387351e-07
3.262292742e-07
1.630143871e-07
4.641518572e-08
7.768252491e-08
6.261777325e-08
2.330069488e-07
2.034179542e-07
5.533570512e-07
6.373150887e-07
1.101872344e-06
1.749552751e-06
1.522366225e-06
2.687228594e-06
4.691075014e-06
6.374026475e-06
8.490328579e-06
1.586669519e-05
3.563071458e-18
6.832335456e-19
1.031694841e-19
1.390584145e-08
6.51404193e-20
2.683444684e-20
9.478154693e-06
4.605840634e-05
2.025869463e-05
1.379764469e-06
8.474630329e-06
3.197002142e-06
1.774860682e-07
8.820045987e-07
2.232508173e-07
6.764405428e-08
7.946760319e-08
7.538719628e-08
9.000616417e-07
5.049153253e-07
1.707799807e-06
3.330634589e-06
3.776093692e-06
7.664805349e-06
1.061617761e-05
1.390330592e-05
2.317308049e-05
3.184222024e-05
3.724129031e-05
6.293103767e-05
5.081714398e-19
7.279336619e-10
3.530051678e-19
1.254276559e-19
1.952623571e-19
9.600762272e-20
3.219394111e-20
7.024326938e-06
2.813165313e-05
1.347016237e-05
4.109484813e-07
5.111376746e-06
1.290082766e-06
8.719065343e-08
2.125210728e-07
9.43525327e-08
3.763662251e-06
2.246542059e-06
8.444394423e-06
1.848474675e-05
2.051978404e-05
3.750737081e-05
4.591267503e-05
5.676267535e-05
8.101877739e-05
5.113168399e-11
1.234153203e-19
6.238665587e-20
8.372782543e-20
5.14740567e-20
2.101727844e-20
3.158850492e-20
3.435614048e-06
1.130842142e-05
5.950259965e-06
1.256357075e-07
1.569275521e-06
3.497783382e-07
1.578433938e-05
6.142621444e-06
2.226154299e-05
6.020612641e-05
5.060378994e-05
6.678189882e-05
1.083287821e-19
0.001296458377
0.0073395619
0.01147138973
0.0003099828484
2.152863707e-12
9.856687479e-05
2.866370951e-13
4.748181365e-05
5.583629284e-14
8.648253125e-06
0.001613424994
0.0001007135727
1.854569472e-05
4.910830973e-05
0.001866819933
6.043905467e-05
1.533034908e-05
0.001345599686
9.907734412e-05
0.0001768184938
0.001602753127
0.001082422225
2.995722064e-06
0.001505041871
0.000424158998
2.000804723e-06
0.002256760943
5.63194678e-06
1.884141274e-06
0.003276201964
8.625700627e-06
5.08900491e-06
0.003327220454
0.00220618234
0.002772722069
0.0003602385531
0.0001849579651
2.376092624e-08
1.21327573e-17
1.443563172e-18
5.436619448e-06
4.407391192e-07
1.723005728e-07
5.755603203e-08
1.067587092e-07
4.443644366e-07
8.529592229e-07
3.348501775e-06
2.878738282e-05
0.001099664577
4.050974288e-08
1.867098515e-18
9.801469076e-19
2.62018926e-19
1.534231761e-19
3.938126837e-20
2.618015647e-05
3.920151655e-06
4.596149054e-07
7.763763453e-08
3.027259573e-07
1.886425479e-06
6.03635126e-06
1.831013022e-05
0.0001614243313
8.959814016e-05
1.695082776e-05
2.117693275e-06
9.774066261e-08
1.005732608e-06
9.121170829e-06
3.005115225e-05
7.010489557e-05
0.0002276676168
1.2263151e-09
1.120526732e-09
2.071340469e-15
2.172085787e-15
1.478360845e-15
6.196295301e-15
3.658706508e-05
9.518493099e-06
6.007860038e-07
4.235596933e-06
3.66257215e-05
9.20031097e-05
0.000130668594
2.718896662e-10
6.229725652e-16
3.023067477e-16
5.282134403e-06
1.777341384e-12
1.709823537e-13
8.256703291e-20
4.010339533e-20
1.200779371e-20
1.815975362e-20
2.773977638e-06
7.062233841e-15
1.379416722e-19
7.29239162e-20
4.152039857e-20
4.87672721e-06
2.98850782e-14
1.004065974e-16
6.780501045e-17
6.122009057e-17
3.326146499e-05
1.393730873e-11
6.310365959e-17
5.180506161e-17
1.039732897e-16
0.001026442882
3.738771631e-09
0.001256807519
6.141273015e-05
3.837894275e-08
6.534741974e-17
0.000118412672
4.463719338e-13
4.08158501e-05
2.995288123e-05
3.37433408e-17
1.17310175e-17
6.98797737e-05
1.368340117e-13
2.36044631e-05
1.793427147e-05
3.982346973e-18
1.287576978e-18
1.394705355e-05
3.812086323e-19
0.0004610083926
0.007605588102
0.0008825525427
3.501125308e-11
0.0001911236252
1.334944954e-11
0.000643444301
3.27719471e-14
1.933094484e-11
8.155162749e-05
1.508531923e-11
1.181084212e-14
1.076844099e-14
1.272905081e-14
1.879641359e-14
3.061888399e-14
1.858472639e-18
3.754488682e-19
1.527720729e-09
5.583780898e-15
4.298215731e-12
4.308086643e-15
6.569902717e-15
4.799245508e-15
5.037863793e-15
1.148488905e-14
7.573032141e-15
1.312380512e-14
5.088719147e-20
2.720238663e-20
1.352066248e-20
1.710991801e-19
5.032583995e-10
1.690381366e-15
7.314712309e-16
1.425551157e-15
1.271957373e-15
6.612080114e-16
1.031137666e-15
4.328294994e-15
2.059422862e-15
2.424842503e-15
1.85791936e-15
3.342609692e-15
2.282531929e-15
1.875500814e-20
1.020255279e-20
1.106805591e-19
4.952093133e-20
7.687417277e-20
5.012259675e-20
1.922038549e-20
3.243292401e-20
2.042801508e-20
1.369830493e-16
1.082818946e-10
1.762043999e-16
9.867501119e-17
2.851544496e-16
1.434028742e-16
2.616604565e-16
1.294137952e-16
1.44254784e-16
2.148505642e-16
9.688170235e-16
4.44785861e-16
3.404865755e-16
5.671688552e-16
4.683686093e-16
1.121214474e-19
7.87438167e-14
1.124617711e-19
5.755899774e-20
8.865399501e-20
6.718530479e-20
2.7563331e-20
5.199005034e-20
4.103375984e-20
3.329051505e-20
2.004898796e-19
3.059580926e-14
3.954390987e-16
9.791037601e-20
3.251111275e-16
2.312048729e-16
5.520391882e-20
2.296120199e-16
1.730860225e-16
1.176739085e-16
1.30925768e-16
1.588999067e-12
8.699994124e-17
7.996707686e-17
6.732282731e-17
5.482686104e-17
6.172146814e-17
5.002007997e-17
5.442910916e-17
7.499753733e-17
8.058031793e-17
1.349358969e-11
8.563946583e-17
5.312586302e-17
6.773939137e-17
5.898353335e-17
6.306137042e-17
6.077813648e-17
8.009472701e-17
1.543250726e-16
1.467093654e-16
)
;

boundaryField
{
    walls
    {
        type            zeroGradient;
    }
    wallFilmFace_top
    {
        type            zeroGradient;
    }
    region0_to_wallFilmRegion_wallFilmFace
    {
        type            zeroGradient;
    }
    mirrorFace_top
    {
        type            zeroGradient;
    }
    region0_to_wallFilmRegion_mirrorFace
    {
        type            zeroGradient;
    }
    procBoundary2to0
    {
        type            processor;
        value           nonuniform List<scalar> 
26
(
0.001230280129
0.001700838667
0.0005406231478
6.371352648e-05
0.0002679993774
7.816044071e-05
2.161293612e-05
0.0001605888066
0.0001558791145
0.0001161958677
5.968639309e-05
2.293769681e-05
1.286134116e-05
1.425739332e-05
1.820769448e-05
2.315323736e-05
2.930991732e-05
3.723289351e-05
4.791523824e-05
6.335012809e-05
8.65614807e-05
0.000116258833
0.0001396444775
0.0001531338895
0.0001132825929
0.002187659408
)
;
    }
    procBoundary2to1
    {
        type            processor;
        value           nonuniform List<scalar> 
33
(
0.001158587152
0.001158587152
0.0001245177008
0.0001245177008
0.00014463787
0.0003247217337
0.0004246780412
0.0004246780412
0.0004331633357
0.0003845909526
0.0004556062675
0.0003123027703
0.000349459428
0.0002736535789
7.13510143e-05
2.93715986e-05
1.892799018e-05
3.84373416e-05
0.0001540619121
4.991298861e-06
2.225909282e-06
9.214778904e-07
5.169040742e-07
3.10799332e-05
5.228982379e-05
9.056331896e-05
0.0005315559541
0.0001086320887
3.545870315e-05
6.961962926e-06
9.534391617e-06
6.822813233e-06
0.003519908613
)
;
    }
    procBoundary2to3
    {
        type            processor;
        value           nonuniform List<scalar> 
64
(
2.767678762e-11
1.846860254e-14
2.21353724e-14
5.164358729e-14
2.833916486e-14
5.823363486e-21
4.501982377e-21
4.931116028e-21
8.096146791e-16
1.647584518e-05
2.19618283e-06
9.261933339e-06
2.513057549e-06
2.19618283e-06
1.559990802e-06
1.572982192e-06
2.034239756e-06
0.0003044468819
0.001485872474
0.0001768585105
5.687616999e-06
3.558585833e-06
2.048744823e-06
6.395313059e-07
6.395313059e-07
7.239990072e-07
9.414662514e-06
9.414662514e-06
3.848628465e-06
9.414662514e-06
1.558948574e-19
2.045139871e-20
1.558948574e-19
1.241592977e-20
9.015663996e-21
3.094685051e-05
1.913648029e-14
1.647584518e-05
0.0002712049544
1.558948574e-19
1.064288692e-14
5.774837141e-21
1.040241096e-20
2.208088582e-19
1.20021698e-16
2.737975971e-16
1.109392036e-05
9.274261258e-20
0.0005957557503
3.321719182e-14
1.846860254e-14
3.255881798e-14
4.285719662e-14
2.016191592e-14
5.240245889e-21
7.804458657e-15
4.155909884e-15
4.361068124e-21
2.190601655e-15
1.119611261e-15
2.869115473e-20
1.732763991e-16
1.802067369e-16
3.969605417e-16
)
;
    }
}


// ************************************************************************* //
