/*--------------------------------*- C++ -*----------------------------------*\
  =========                 |
  \\      /  F ield         | OpenFOAM: The Open Source CFD Toolbox
   \\    /   O peration     | Website:  https://openfoam.org
    \\  /    A nd           | Version:  8
     \\/     M anipulation  |
\*---------------------------------------------------------------------------*/
FoamFile
{
    version     2.0;
    format      ascii;
    class       volScalarField;
    location    "1.1/wallFilmRegion";
    object      kappa;
}
// * * * * * * * * * * * * * * * * * * * * * * * * * * * * * * * * * * * * * //

dimensions      [1 1 -3 -1 0 0 0];

internalField   nonuniform List<scalar> 
1342
(
0.6088099974
0.6088099983
0.6088099952
0.6088099956
0.6088099961
0.6088099988
0.608810012
0.6088100002
0.6088100001
0.6088100002
0.6088100004
0.6088100011
0.6088100022
0.6088100029
0.6088100027
0.6088100023
0.6088100019
0.6088100016
0.6088100014
0.6088100013
0.6088100014
0.6088100017
0.6088100022
0.6088100032
0.6088100052
0.6088100023
0.6088099965
0.6088099973
0.6088099984
0.6088099964
0.6088099968
0.6088099976
0.6088100042
0.6088100075
0.6088100003
0.6088100002
0.6088100001
0.6088100002
0.6088100005
0.6088100013
0.608810002
0.6088100023
0.6088100021
0.6088100018
0.6088100016
0.6088100014
0.6088100015
0.6088100018
0.6088100022
0.6088100027
0.6088100041
0.6088100069
0.6088100022
0.60881
0.6088099987
0.6088099983
0.6088099988
0.6088099975
0.6088099987
0.6088099991
0.6088099999
0.60881
0.6088100002
0.6088100001
0.6088100001
0.6088100001
0.6088100001
0.6088100003
0.6088100006
0.6088100009
0.6088100013
0.6088100015
0.6088100015
0.6088100016
0.6088100019
0.6088100023
0.6088100028
0.6088100037
0.6088100053
0.608810008
0.608810002
0.6088100006
0.6088099994
0.6088099986
0.6088099983
0.6088099977
0.6088099975
0.6088099931
0.6088099975
0.6088099996
0.6088100001
0.6088100001
0.6088100002
0.6088100005
0.6088100008
0.608810001
0.6088100011
0.6088100013
0.6088100015
0.6088100015
0.6088100016
0.6088100018
0.6088100022
0.6088100027
0.6088100035
0.6088100047
0.608810006
0.6088100073
0.6088100019
0.6088100001
0.6088099994
0.6088099978
0.6088099966
0.6088099981
0.6088100045
0.6088100022
0.6088101167
0.6088105759
0.6088100002
0.6088100001
0.6088100009
0.6088100018
0.6088100021
0.6088100019
0.6088100018
0.6088100017
0.6088100016
0.6088100016
0.6088100017
0.608810002
0.6088100024
0.6088100031
0.6088100043
0.6088100057
0.6088100065
0.608810007
0.6088100019
0.6088099983
0.6088099986
0.6088099991
0.60881
0.6088099997
0.6088100056
0.6088100333
0.6088101779
0.6088104034
0.6088124857
0.6088100004
0.6088100005
0.6088100018
0.608810003
0.6088100028
0.6088100024
0.608810002
0.6088100018
0.6088100017
0.6088100017
0.6088100019
0.6088100022
0.6088100027
0.6088100035
0.608810005
0.6088100076
0.6088100119
0.6088100126
0.608810002
0.6088099984
0.6088099997
0.6088100017
0.6088100033
0.6088100058
0.6088100396
0.6088100952
0.6088101802
0.6088102514
0.6088119501
0.608810001
0.6088100012
0.6088100026
0.6088100038
0.6088100027
0.6088100021
0.6088100019
0.6088100017
0.6088100017
0.6088100018
0.6088100021
0.6088100025
0.6088100032
0.6088100044
0.6088100065
0.6088100098
0.6088100123
0.6088100101
0.608810002
0.6088099969
0.6088099971
0.6088099977
0.6088099991
0.6088100046
0.6088100868
0.6088102387
0.6088116692
0.608810206
0.6088102092
0.608810002
0.6088100022
0.6088100041
0.6088100062
0.6088100043
0.6088100016
0.6088100014
0.6088100015
0.6088100018
0.608810002
0.6088100024
0.6088100029
0.6088100039
0.6088100056
0.6088100085
0.6088100112
0.6088100091
0.6088100045
0.608810002
0.6088099983
0.6088099969
0.6088099972
0.6088099986
0.6088099986
0.6088101727
0.6088107999
0.6088119879
0.6088100977
0.6088101772
0.6088100031
0.6088100034
0.608810007
0.6088100074
0.6088100062
0.6088100022
0.6088100012
0.6088100011
0.6088100015
0.6088100023
0.608810003
0.6088100038
0.6088100051
0.6088100075
0.6088100106
0.6088100117
0.6088100081
0.6088100044
0.608810002
0.6088099962
0.6088099955
0.6088099962
0.6088099974
0.6088099975
0.6088101687
0.6088112152
0.6088118794
0.6088100342
0.6088100937
0.6088100052
0.6088100072
0.6088100126
0.6088100059
0.6088100074
0.6088100024
0.6088100015
0.6088100014
0.6088100016
0.6088100022
0.6088100034
0.608810005
0.6088100069
0.6088100092
0.6088100108
0.60881001
0.6088100068
0.6088100041
0.6088100021
0.6088099965
0.6088099957
0.6088099952
0.6088099971
0.6088099975
0.6088099977
0.6088104094
0.608811064
0.6088100138
0.608810006
0.6088100051
0.6088100032
0.6088100011
0.6088100011
0.6088100019
0.6088100009
0.6088100007
0.6088100006
0.6088100007
0.6088100008
0.6088100011
0.6088100017
0.6088100022
0.608810003
0.6088100041
0.6088100047
0.6088100039
0.608810003
0.6088100022
0.6088099948
0.6088099998
0.6088099998
0.6088099983
0.6088099983
0.6088099993
0.6088100023
0.6088100025
0.608810003
0.6088100037
0.6088100045
0.6088100028
0.6088100015
0.6088100014
0.608810002
0.6088100008
0.6088100006
0.6088100005
0.6088100006
0.6088100007
0.608810001
0.6088100015
0.6088100017
0.608810002
0.6088100025
0.6088100027
0.6088100026
0.6088100025
0.6088100022
0.6088099971
0.6088100014
0.6088100015
0.6088100004
0.6088099992
0.6088099998
0.6088100019
0.6088100025
0.6088100036
0.6088101823
0.6088101139
0.6088100113
0.6088100035
0.6088100025
0.6088100029
0.6088100009
0.6088100006
0.6088100006
0.6088100006
0.6088100008
0.608810001
0.6088100015
0.6088100017
0.6088100018
0.608810002
0.6088100023
0.6088100023
0.6088100023
0.6088100022
0.6088100036
0.6088100036
0.6088100014
0.6088100013
0.60881
0.6088100002
0.608810002
0.6088100036
0.6088100054
0.6088103063
0.6088102968
0.6088102764
0.6088100089
0.6088100047
0.6088100043
0.6088100013
0.6088100008
0.6088100007
0.6088100007
0.6088100009
0.6088100011
0.6088100015
0.6088100017
0.6088100018
0.6088100019
0.6088100022
0.6088100024
0.6088100024
0.6088100021
0.608810004
0.6088100036
0.608810001
0.6088100012
0.6088100008
0.6088100009
0.6088100029
0.6088100061
0.6088100093
0.6088103031
0.6088108911
0.6088114725
0.6088100156
0.6088100076
0.6088100056
0.6088100017
0.6088100009
0.6088100008
0.6088100008
0.608810001
0.6088100012
0.6088100015
0.6088100017
0.6088100018
0.6088100019
0.6088100022
0.6088100025
0.6088100023
0.6088100021
0.608810004
0.6088100045
0.6088100007
0.608810001
0.608810001
0.6088100013
0.6088100058
0.6088100108
0.6088100164
0.6088107226
0.6088113631
0.6088120133
0.6088100221
0.6088100099
0.6088100063
0.608810002
0.6088100011
0.6088100009
0.608810001
0.6088100011
0.6088100013
0.6088100013
0.6088100012
0.6088100011
0.608810001
0.6088100012
0.6088100016
0.6088100019
0.6088100021
0.6088131298
0.6088134473
0.6088100005
0.6088100008
0.608810001
0.6088100014
0.6088100124
0.6088100211
0.6088100312
0.6088112975
0.6088119223
0.6088124187
0.6088100253
0.6088100107
0.6088100063
0.6088100022
0.6088100013
0.6088100011
0.6088100011
0.6088100012
0.6088100012
0.6088100008
0.6088100004
0.60881
0.6088099999
0.60881
0.6088100004
0.6088100012
0.608810002
0.60881347
0.6088134235
0.6088100004
0.6088100006
0.6088100008
0.6088100012
0.6088100045
0.608810046
0.6088100666
0.6088106531
0.6088116853
0.6088123581
0.608810026
0.6088100104
0.608810006
0.6088100025
0.6088100015
0.6088100013
0.6088100013
0.6088100012
0.608810001
0.6088100004
0.6088099997
0.6088099993
0.6088099992
0.6088099993
0.6088099997
0.6088100006
0.6088100018
0.6088134725
0.6088134659
0.6088100005
0.6088100005
0.6088100007
0.608810001
0.6088100021
0.6088100047
0.6088101086
0.6088106326
0.6088114429
0.6088118546
0.6088100263
0.6088100099
0.6088100055
0.6088100027
0.6088100018
0.6088100015
0.6088100014
0.6088100013
0.6088100009
0.6088100002
0.6088099994
0.608809999
0.6088099988
0.6088099989
0.6088099994
0.6088100002
0.6088100016
0.6088134172
0.6088135451
0.6088100007
0.6088100007
0.6088100007
0.6088100008
0.6088100013
0.6088100024
0.6088100042
0.6088100176
0.6088101658
0.6088107659
0.6088100269
0.6088100095
0.6088100051
0.6088100029
0.6088100021
0.6088100018
0.6088100017
0.6088100015
0.608810001
0.6088100002
0.6088099993
0.6088099988
0.6088099987
0.6088099989
0.6088099992
0.6088099999
0.6088100014
0.6088100008
0.6088100006
0.6088100004
0.6088100003
0.6088100002
0.6088100003
0.6088100008
0.6088100016
0.6088100023
0.608810005
0.6088100318
0.6088102237
0.6088100271
0.6088100092
0.6088100049
0.6088100031
0.6088100023
0.6088100021
0.608810002
0.6088100018
0.6088100014
0.6088100004
0.6088100015
0.6088100017
0.6088100022
0.608810002
0.6088100014
0.6088100009
0.6088100011
0.6088100005
0.6088100004
0.6088100002
0.6088100002
0.6088100003
0.6088100007
0.6088100013
0.6088100023
0.6088100041
0.608810012
0.6088100676
0.6088101993
0.6088100264
0.608810009
0.6088100049
0.6088100033
0.6088100027
0.6088100025
0.6088100025
0.6088100023
0.6088100019
0.6088100006
0.6088100027
0.608810003
0.608810003
0.608810003
0.6088100027
0.6088100022
0.6088100009
0.6088100005
0.6088100004
0.6088100002
0.6088100002
0.6088100005
0.608810001
0.6088100016
0.6088100022
0.6088100063
0.6088100287
0.6088101082
0.6088101338
0.6088100244
0.608810009
0.608810005
0.6088100036
0.6088100031
0.608810003
0.6088100031
0.608810003
0.6088100021
0.6088100023
0.608810003
0.6088100031
0.608810003
0.6088100029
0.6088100027
0.6088100019
0.6088100008
0.6088100007
0.6088100005
0.6088100002
0.6088100003
0.6088100007
0.6088100015
0.6088100019
0.6088100021
0.6088100035
0.6088100097
0.6088100412
0.6088100713
0.6088100217
0.6088100091
0.6088100054
0.6088100041
0.6088100037
0.6088100037
0.6088100037
0.6088100034
0.6088100012
0.6088100024
0.608810003
0.6088100029
0.6088100028
0.6088100027
0.6088100024
0.6088100014
0.6088100009
0.6088100031
0.6088100007
0.6088100002
0.6088100004
0.608810001
0.6088100023
0.6088100024
0.6088100019
0.6088100026
0.6088100051
0.6088100151
0.6088100331
0.6088100189
0.6088100093
0.6088100059
0.6088100047
0.6088100043
0.6088100043
0.608810004
0.6088100028
0.608810002
0.608810003
0.608810003
0.6088100028
0.6088100027
0.6088100026
0.6088100026
0.608810002
0.6088100015
0.6088100043
0.6088100014
0.6088100002
0.6088100005
0.6088100014
0.6088100035
0.6088100034
0.6088100018
0.6088100021
0.6088100032
0.6088100075
0.6088100167
0.6088100157
0.6088100095
0.6088100066
0.6088100054
0.6088100049
0.6088100046
0.6088100038
0.6088100017
0.6088100022
0.6088100031
0.6088100029
0.6088100027
0.6088100025
0.6088100024
0.6088100025
0.6088100026
0.6088100023
0.6088100084
0.6088100033
0.6088100003
0.6088100007
0.6088100022
0.6088100057
0.608810006
0.6088100018
0.6088100019
0.6088100023
0.6088100039
0.6088100079
0.6088100114
0.6088100093
0.6088100071
0.6088100059
0.6088100053
0.6088100044
0.608810003
0.6088100009
0.6088100019
0.6088100032
0.6088100031
0.6088100028
0.6088100024
0.6088100022
0.6088100023
0.6088100026
0.608810003
0.6088100058
0.6088100128
0.6088100005
0.6088100012
0.608810004
0.6088100107
0.6088100139
0.6088100026
0.6088100019
0.608810002
0.6088100023
0.6088100032
0.6088100049
0.6088100067
0.6088100067
0.6088100059
0.6088100049
0.6088100036
0.6088100019
0.6088100001
0.6088100011
0.6088100015
0.6088100021
0.6088100022
0.6088100022
0.6088100019
0.6088100021
0.6088100025
0.6088100027
0.6088100033
0.6088100258
0.6088100009
0.6088100025
0.6088100102
0.6088100257
0.6088100377
0.6088100089
0.6088100034
0.6088100025
0.6088100025
0.6088100032
0.6088100046
0.6088100059
0.6088100061
0.6088100055
0.6088100043
0.6088100027
0.6088100011
0.6088099996
0.6088100002
0.6088100006
0.6088100008
0.608810001
0.6088100011
0.6088100013
0.6088100017
0.6088100021
0.6088100023
0.6088100015
0.6088100015
0.6088100012
0.6088100011
0.608810001
0.608810001
0.6088100011
0.6088100012
0.6088100012
0.6088100013
0.6088100014
0.6088100014
0.6088100015
0.6088100015
0.6088100014
0.6088100013
0.6088100012
0.608810001
0.6088100007
0.6088100004
0.6088100004
0.6088100005
0.6088100006
0.6088100007
0.6088100009
0.6088100011
0.6088100013
0.6088100016
0.608810002
0.6088099868
0.6088088973
0.6088099649
0.608808618
0.6088099641
0.6088084551
0.6088084106
0.6088083731
0.608808746
0.6088081862
0.6088079788
0.6088081327
0.6088083735
0.6088080875
0.608808034
0.6088080889
0.608808174
0.6088081401
0.6088081687
0.6088080905
0.6088082355
0.6088084811
0.6088084913
0.6088084892
0.6088099857
0.608809987
0.6088099898
0.6088099731
0.6088099923
0.6088099926
0.6088099729
0.6088099918
0.6088099904
0.6088099759
0.6088099877
0.6088099828
0.6088099908
0.6088099668
0.6088099527
0.6088099539
0.6088099508
0.6088099542
0.6088099562
0.6088099562
0.6088099572
0.6088099577
0.6088099579
0.6088099588
0.608809988
0.60880996
0.6088099615
0.6088099838
0.6088099637
0.6088099787
0.60880999
0.6088099898
0.6088099904
0.6088099645
0.6088099638
0.608809964
0.6088099908
0.6088099924
0.6088099639
0.6088099632
0.6088099937
0.6088099955
0.6088099951
0.6088099959
0.6088099623
0.6088099617
0.6088099621
0.6088099963
0.608809997
0.6088099971
0.6088099971
0.6088099612
0.6088099609
0.608809961
0.608809995
0.6088099705
0.6088099601
0.6088099603
0.6088099875
0.608809976
0.608809985
0.6088099987
0.6088099985
0.6088099987
0.6088099988
0.6088099987
0.6088099986
0.6088099858
0.6088099845
0.6088099902
0.6088099995
0.608809992
0.608809996
0.6088099914
0.60880999
0.6088099919
0.6088099967
0.6088099923
0.6088099936
0.6088099915
0.6088099914
0.6088099914
0.6088099909
0.6088099914
0.608809991
0.6088099925
0.6088099927
0.6088099925
0.608809992
0.6088099926
0.6088099988
0.608809993
0.6088099926
0.6088099932
0.608810002
0.6088099979
0.6088100017
0.6088099932
0.6088099913
0.608809993
0.6088099979
0.6088099931
0.6088099895
0.6088099949
0.6088099971
0.6088081833
0.6088098587
0.608808238
0.6088082583
0.6088082014
0.6088081131
0.608808725
0.6088083363
0.6088083989
0.608808391
0.6088099935
0.6088099932
0.6088099941
0.608809992
0.6088099943
0.6088099937
0.6088099847
0.6088099918
0.6088099871
0.608809954
0.6088099715
0.6088099581
0.6088099558
0.6088099559
0.6088099572
0.608809958
0.6088099581
0.6088099587
0.6088099596
0.6088099593
0.6088099602
0.6088099619
0.6088099612
0.6088099621
0.6088083303
0.6088081681
0.608808216
0.6088097859
0.6088081351
0.6088081456
0.6088099947
0.6088099942
0.6088099951
0.6088099951
0.6088099958
0.608809996
0.6088099892
0.6088099951
0.6088099911
0.6088099604
0.6088099749
0.6088099623
0.6088099582
0.6088099584
0.6088099589
0.6088099594
0.6088099594
0.60880996
0.6088099608
0.6088099605
0.6088099611
0.6088099623
0.6088099617
0.6088099624
0.6088083047
0.6088087095
0.6088082091
0.6088080179
0.6088081025
0.6088080566
0.6088080275
0.6088099965
0.6088099965
0.6088099968
0.6088099926
0.6088099963
0.6088099935
0.6088099633
0.6088099815
0.608809961
0.6088099594
0.6088099594
0.6088099598
0.6088099603
0.6088099601
0.6088099605
0.6088099613
0.6088099609
0.6088099613
0.6088082393
0.6088081449
0.6088080081
0.6088080964
0.6088080884
0.6088079462
0.6088080376
0.6088099939
0.6088099966
0.6088099946
0.6088099599
0.608809987
0.6088099661
0.6088099601
0.6088099599
0.6088099602
0.6088099606
0.6088099604
0.6088099606
0.6088082298
0.6088099781
0.6088099756
0.6088099741
0.6088099985
0.6088083008
0.6088099989
0.608808994
0.6088099991
0.6088091645
0.6088099796
0.6088099748
0.6088099983
0.6088099988
0.6088099721
0.6088099798
0.6088099909
0.6088099741
0.6088099879
0.6088099927
0.6088099907
0.608809991
0.6088099914
0.6088099804
0.6088099925
0.6088099921
0.6088099549
0.6088099928
0.6088099977
0.6088099571
0.6088099921
0.6088099979
0.6088099581
0.6088099904
0.6088099855
0.6088099895
0.6088099943
0.6088099885
0.6088097856
0.6088081221
0.6088085251
0.6088099928
0.6088099931
0.6088099896
0.6088099684
0.6088099532
0.6088099572
0.6088099586
0.6088099608
0.6088099638
0.6088099827
0.6088099071
0.6088082017
0.6088083312
0.6088081379
0.608808076
0.6088082858
0.6088099936
0.6088099952
0.6088099936
0.6088099734
0.6088099574
0.6088099589
0.6088099601
0.6088099615
0.6088099636
0.6088099946
0.6088099962
0.6088099959
0.6088099772
0.608809959
0.6088099599
0.6088099608
0.6088099618
0.6088099627
0.6088088282
0.6088087943
0.6088083836
0.6088083098
0.6088083432
0.6088082626
0.6088099969
0.6088099965
0.6088099834
0.6088099597
0.6088099603
0.6088099609
0.6088099615
0.6088084457
0.6088083945
0.6088083754
0.6088099957
0.6088081379
0.6088081813
0.6088082798
0.6088083193
0.6088082529
0.6088083804
0.6088099911
0.608808181
0.6088083945
0.6088084811
0.6088085792
0.6088099597
0.608808208
0.608808633
0.6088086879
0.608808694
0.6088099603
0.6088082141
0.6088084724
0.6088085478
0.6088086089
0.6088099978
0.6088090421
0.6088099758
0.6088099985
0.6088095955
0.6088082192
0.6088099988
0.6088086194
0.6088099987
0.6088099989
0.6088081985
0.6088083474
0.6088099991
0.6088091318
0.608809999
0.6088099992
0.608808806
0.6088089935
0.6088099993
0.608809014
0.6088099942
0.608809989
0.6088099948
0.6088089765
0.6088099676
0.6088088443
0.608809995
0.6088087778
0.6088086939
0.6088099645
0.6088085853
0.6088084967
0.6088084761
0.608808477
0.6088084662
0.6088084482
0.6088083151
0.6088081941
0.6088086927
0.6088085373
0.6088085283
0.6088084323
0.6088084248
0.6088084765
0.6088084042
0.608808394
0.6088083858
0.6088083657
0.6088079522
0.6088080425
0.6088080332
0.6088081452
0.6088085543
0.608808462
0.6088084282
0.608808409
0.6088083705
0.6088083458
0.6088083309
0.6088083049
0.6088083181
0.6088084528
0.6088083382
0.6088082874
0.6088083229
0.608808127
0.6088080361
0.6088081509
0.6088081224
0.6088082216
0.6088082701
0.6088081175
0.6088082769
0.608808289
0.6088084452
0.6088083861
0.6088083849
0.6088084889
0.6088083989
0.6088084023
0.6088083862
0.6088084059
0.6088084011
0.6088083949
0.6088083609
0.6088083937
0.6088084095
0.6088083667
0.6088083675
0.6088082042
0.6088081656
0.6088082592
0.6088083005
0.6088083527
0.6088083827
0.608808321
0.6088084284
0.608808467
0.6088085133
0.6088083063
0.6088081909
0.6088084932
0.6088084293
0.608808656
0.6088087576
0.6088085311
0.6088087744
0.6088087496
0.6088087377
0.6088084917
0.6088082032
0.6088084352
0.6088086687
0.6088085238
0.6088085855
0.6088086974
0.6088086258
0.6088086444
0.6088086596
0.6088084025
0.6088082667
0.6088083995
0.6088085179
0.6088084362
0.6088084608
0.6088085695
0.6088084791
0.6088085067
0.6088084882
0.608808532
)
;

boundaryField
{
    walls
    {
        type            zeroGradient;
    }
    wallFilmFace_top
    {
        type            zeroGradient;
    }
    region0_to_wallFilmRegion_wallFilmFace
    {
        type            zeroGradient;
    }
    mirrorFace_top
    {
        type            zeroGradient;
    }
    region0_to_wallFilmRegion_mirrorFace
    {
        type            zeroGradient;
    }
    procBoundary2to0
    {
        type            processor;
        value           nonuniform List<scalar> 
26
(
0.6088099958
0.6088099985
0.6088099962
0.6088099978
0.6088099977
0.6088100007
0.6088100019
0.6088100001
0.6088100003
0.6088100006
0.6088100013
0.6088100027
0.6088100039
0.6088100034
0.6088100027
0.6088100022
0.6088100018
0.6088100015
0.6088100013
0.6088100012
0.6088100012
0.6088100014
0.6088100017
0.6088100025
0.608810004
0.6088100023
)
;
    }
    procBoundary2to1
    {
        type            processor;
        value           nonuniform List<scalar> 
33
(
0.6088099935
0.6088099935
0.6088099931
0.6088099931
0.608809996
0.6088099957
0.6088099989
0.6088099989
0.6088099982
0.6088099978
0.6088099974
0.6088099998
0.6088099978
0.6088099976
0.608809997
0.6088100013
0.6088100058
0.6088100042
0.6088100031
0.6088100139
0.6088100274
0.6088100513
0.6088100917
0.6088100012
0.6088100007
0.608810001
0.608810003
0.6088100044
0.6088100053
0.6088100105
0.6088100063
0.6088100029
0.6088100017
)
;
    }
    procBoundary2to3
    {
        type            processor;
        value           nonuniform List<scalar> 
64
(
0.6088089109
0.6088086179
0.608808651
0.6088086437
0.6088083493
0.6088081522
0.6088079867
0.6088081075
0.6088084906
0.6088099989
0.6088099994
0.6088099986
0.6088099992
0.6088099994
0.60881
0.6088100001
0.6088099987
0.6088099906
0.6088099909
0.608809992
0.6088099973
0.6088099984
0.6088099995
0.6088100011
0.6088100011
0.6088100007
0.608809998
0.608809998
0.6088099966
0.608809998
0.6088086707
0.6088084384
0.6088086707
0.6088083747
0.6088083066
0.6088099992
0.6088091617
0.6088099989
0.608809994
0.6088086707
0.6088082347
0.6088083421
0.6088084818
0.6088086949
0.6088087119
0.6088086145
0.6088099993
0.6088089871
0.608809995
0.6088087951
0.6088086179
0.6088086531
0.6088084329
0.6088083411
0.6088081409
0.6088082847
0.608808304
0.6088080173
0.6088083538
0.6088083927
0.6088085637
0.6088087318
0.6088086781
0.608808539
)
;
    }
}


// ************************************************************************* //
