/*--------------------------------*- C++ -*----------------------------------*\
  =========                 |
  \\      /  F ield         | OpenFOAM: The Open Source CFD Toolbox
   \\    /   O peration     | Website:  https://openfoam.org
    \\  /    A nd           | Version:  8
     \\/     M anipulation  |
\*---------------------------------------------------------------------------*/
FoamFile
{
    version     2.0;
    format      ascii;
    class       volScalarField;
    location    "1.1/wallFilmRegion";
    object      rho;
}
// * * * * * * * * * * * * * * * * * * * * * * * * * * * * * * * * * * * * * //

dimensions      [1 -3 0 0 0 0 0];

internalField   nonuniform List<scalar> 
1342
(
994.5114689
994.5114688
994.5114693
994.5114692
994.5114692
994.5114687
994.5114661
994.5114684
994.5114684
994.5114684
994.5114683
994.5114682
994.511468
994.5114679
994.5114679
994.511468
994.5114681
994.5114681
994.5114682
994.5114682
994.5114682
994.5114681
994.511468
994.5114678
994.5114674
994.511468
994.5114691
994.5114689
994.5114687
994.5114691
994.511469
994.5114689
994.5114676
994.511467
994.5114684
994.5114684
994.5114684
994.5114684
994.5114683
994.5114682
994.511468
994.511468
994.511468
994.5114681
994.5114681
994.5114682
994.5114681
994.5114681
994.511468
994.5114679
994.5114676
994.5114671
994.511468
994.5114684
994.5114687
994.5114687
994.5114687
994.5114689
994.5114687
994.5114686
994.5114684
994.5114684
994.5114684
994.5114684
994.5114684
994.5114684
994.5114684
994.5114684
994.5114683
994.5114682
994.5114682
994.5114681
994.5114681
994.5114681
994.5114681
994.511468
994.5114679
994.5114677
994.5114674
994.5114669
994.511468
994.5114683
994.5114685
994.5114687
994.5114687
994.5114689
994.5114689
994.5114697
994.5114689
994.5114685
994.5114684
994.5114684
994.5114684
994.5114683
994.5114683
994.5114682
994.5114682
994.5114682
994.5114681
994.5114681
994.5114681
994.5114681
994.511468
994.5114679
994.5114677
994.5114675
994.5114673
994.511467
994.5114681
994.5114684
994.5114685
994.5114688
994.5114691
994.5114688
994.5114676
994.511468
994.5114462
994.5113589
994.5114684
994.5114684
994.5114683
994.5114681
994.511468
994.5114681
994.5114681
994.5114681
994.5114681
994.5114681
994.5114681
994.511468
994.511468
994.5114678
994.5114676
994.5114673
994.5114672
994.5114671
994.5114681
994.5114687
994.5114687
994.5114686
994.5114684
994.5114685
994.5114674
994.5114621
994.5114346
994.5113917
994.5109958
994.5114683
994.5114683
994.5114681
994.5114678
994.5114679
994.511468
994.511468
994.5114681
994.5114681
994.5114681
994.5114681
994.511468
994.5114679
994.5114678
994.5114675
994.511467
994.5114662
994.511466
994.511468
994.5114687
994.5114685
994.5114681
994.5114678
994.5114673
994.5114609
994.5114503
994.5114342
994.5114206
994.5110976
994.5114682
994.5114682
994.5114679
994.5114677
994.5114679
994.511468
994.5114681
994.5114681
994.5114681
994.5114681
994.511468
994.5114679
994.5114678
994.5114676
994.5114672
994.5114666
994.5114661
994.5114665
994.511468
994.511469
994.511469
994.5114689
994.5114686
994.5114675
994.5114519
994.511423
994.5111511
994.5114293
994.5114287
994.511468
994.511468
994.5114676
994.5114672
994.5114676
994.5114681
994.5114682
994.5114681
994.5114681
994.511468
994.511468
994.5114679
994.5114677
994.5114674
994.5114668
994.5114663
994.5114667
994.5114676
994.511468
994.5114687
994.511469
994.511469
994.5114687
994.5114687
994.5114356
994.5113163
994.5110905
994.5114498
994.5114347
994.5114678
994.5114678
994.5114671
994.511467
994.5114672
994.511468
994.5114682
994.5114682
994.5114681
994.511468
994.5114679
994.5114677
994.5114674
994.511467
994.5114664
994.5114662
994.5114669
994.5114676
994.511468
994.5114691
994.5114693
994.5114691
994.5114689
994.5114689
994.5114364
994.5112374
994.5111111
994.5114619
994.5114506
994.5114674
994.5114671
994.511466
994.5114673
994.511467
994.511468
994.5114681
994.5114682
994.5114681
994.511468
994.5114678
994.5114675
994.5114671
994.5114667
994.5114664
994.5114665
994.5114671
994.5114676
994.511468
994.5114691
994.5114692
994.5114693
994.511469
994.5114689
994.5114689
994.5113906
994.5112661
994.5114658
994.5114673
994.5114675
994.5114678
994.5114682
994.5114682
994.5114681
994.5114682
994.5114683
994.5114683
994.5114683
994.5114683
994.5114682
994.5114681
994.511468
994.5114679
994.5114676
994.5114675
994.5114677
994.5114678
994.511468
994.5114694
994.5114685
994.5114685
994.5114687
994.5114687
994.5114686
994.511468
994.5114679
994.5114679
994.5114677
994.5114676
994.5114679
994.5114681
994.5114681
994.511468
994.5114683
994.5114683
994.5114683
994.5114683
994.5114683
994.5114682
994.5114681
994.5114681
994.511468
994.511468
994.5114679
994.5114679
994.511468
994.511468
994.511469
994.5114682
994.5114681
994.5114683
994.5114686
994.5114685
994.5114681
994.5114679
994.5114677
994.5114338
994.5114468
994.5114663
994.5114678
994.511468
994.5114679
994.5114682
994.5114683
994.5114683
994.5114683
994.5114683
994.5114682
994.5114681
994.5114681
994.5114681
994.511468
994.511468
994.511468
994.511468
994.511468
994.5114677
994.5114677
994.5114682
994.5114682
994.5114684
994.5114684
994.511468
994.5114677
994.5114674
994.5114102
994.511412
994.5114159
994.5114667
994.5114675
994.5114676
994.5114682
994.5114683
994.5114683
994.5114683
994.5114683
994.5114682
994.5114681
994.5114681
994.5114681
994.5114681
994.511468
994.511468
994.511468
994.511468
994.5114677
994.5114677
994.5114682
994.5114682
994.5114683
994.5114683
994.5114679
994.5114673
994.5114667
994.5114108
994.511299
994.5111885
994.5114655
994.511467
994.5114674
994.5114681
994.5114682
994.5114683
994.5114683
994.5114682
994.5114682
994.5114681
994.5114681
994.5114681
994.5114681
994.511468
994.5114679
994.511468
994.511468
994.5114677
994.5114676
994.5114683
994.5114682
994.5114682
994.5114682
994.5114673
994.5114664
994.5114653
994.511331
994.5112093
994.5110856
994.5114642
994.5114665
994.5114672
994.511468
994.5114682
994.5114682
994.5114682
994.5114682
994.5114682
994.5114682
994.5114682
994.5114682
994.5114682
994.5114682
994.5114681
994.5114681
994.511468
994.5108734
994.510813
994.5114683
994.5114683
994.5114682
994.5114682
994.5114661
994.5114644
994.5114625
994.5112217
994.5111029
994.5110086
994.5114636
994.5114664
994.5114672
994.511468
994.5114682
994.5114682
994.5114682
994.5114682
994.5114682
994.5114683
994.5114684
994.5114684
994.5114684
994.5114684
994.5114683
994.5114682
994.511468
994.5108087
994.5108175
994.5114683
994.5114683
994.5114683
994.5114682
994.5114676
994.5114597
994.5114558
994.5113442
994.511148
994.5110201
994.5114635
994.5114664
994.5114673
994.511468
994.5114681
994.5114682
994.5114682
994.5114682
994.5114682
994.5114684
994.5114685
994.5114686
994.5114686
994.5114686
994.5114685
994.5114683
994.5114681
994.5108082
994.5108095
994.5114683
994.5114683
994.5114683
994.5114682
994.511468
994.5114675
994.5114478
994.5113481
994.5111941
994.5111158
994.5114634
994.5114665
994.5114674
994.5114679
994.5114681
994.5114681
994.5114682
994.5114682
994.5114683
994.5114684
994.5114685
994.5114686
994.5114686
994.5114686
994.5114685
994.5114684
994.5114681
994.5108187
994.5107944
994.5114683
994.5114683
994.5114683
994.5114683
994.5114682
994.511468
994.5114676
994.5114651
994.5114369
994.5113228
994.5114633
994.5114666
994.5114674
994.5114679
994.511468
994.5114681
994.5114681
994.5114681
994.5114682
994.5114684
994.5114686
994.5114686
994.5114687
994.5114686
994.5114686
994.5114684
994.5114682
994.5114683
994.5114683
994.5114684
994.5114684
994.5114684
994.5114684
994.5114683
994.5114681
994.511468
994.5114675
994.5114624
994.5114259
994.5114633
994.5114667
994.5114675
994.5114678
994.511468
994.511468
994.511468
994.5114681
994.5114682
994.5114683
994.5114681
994.5114681
994.511468
994.511468
994.5114682
994.5114683
994.5114682
994.5114683
994.5114683
994.5114684
994.5114684
994.5114684
994.5114683
994.5114682
994.511468
994.5114676
994.5114661
994.5114556
994.5114305
994.5114634
994.5114667
994.5114675
994.5114678
994.5114679
994.5114679
994.511468
994.511468
994.5114681
994.5114683
994.5114679
994.5114679
994.5114678
994.5114679
994.5114679
994.511468
994.5114682
994.5114683
994.5114683
994.5114684
994.5114684
994.5114683
994.5114682
994.5114681
994.511468
994.5114672
994.511463
994.5114479
994.511443
994.5114638
994.5114667
994.5114675
994.5114677
994.5114678
994.5114678
994.5114678
994.5114679
994.511468
994.511468
994.5114678
994.5114678
994.5114679
994.5114679
994.5114679
994.5114681
994.5114683
994.5114683
994.5114683
994.5114684
994.5114684
994.5114683
994.5114681
994.5114681
994.511468
994.5114678
994.5114666
994.5114606
994.5114549
994.5114643
994.5114667
994.5114674
994.5114676
994.5114677
994.5114677
994.5114677
994.5114678
994.5114682
994.511468
994.5114679
994.5114679
994.5114679
994.5114679
994.511468
994.5114681
994.5114682
994.5114678
994.5114683
994.5114684
994.5114683
994.5114682
994.511468
994.511468
994.5114681
994.5114679
994.5114675
994.5114655
994.5114621
994.5114648
994.5114667
994.5114673
994.5114675
994.5114676
994.5114676
994.5114677
994.5114679
994.511468
994.5114678
994.5114679
994.5114679
994.5114679
994.5114679
994.5114679
994.511468
994.5114681
994.5114676
994.5114682
994.5114684
994.5114683
994.5114682
994.5114678
994.5114678
994.5114681
994.511468
994.5114678
994.511467
994.5114652
994.5114654
994.5114666
994.5114672
994.5114674
994.5114675
994.5114676
994.5114677
994.5114681
994.511468
994.5114678
994.5114679
994.5114679
994.5114679
994.511468
994.5114679
994.5114679
994.511468
994.5114668
994.5114678
994.5114684
994.5114683
994.511468
994.5114673
994.5114673
994.5114681
994.5114681
994.511468
994.5114677
994.5114669
994.5114663
994.5114667
994.5114671
994.5114673
994.5114674
994.5114676
994.5114678
994.5114683
994.5114681
994.5114678
994.5114678
994.5114679
994.511468
994.511468
994.511468
994.5114679
994.5114679
994.5114673
994.511466
994.5114683
994.5114682
994.5114677
994.5114664
994.5114658
994.5114679
994.5114681
994.511468
994.511468
994.5114678
994.5114675
994.5114672
994.5114672
994.5114673
994.5114675
994.5114677
994.5114681
994.5114684
994.5114682
994.5114681
994.511468
994.511468
994.511468
994.5114681
994.511468
994.511468
994.5114679
994.5114678
994.5114635
994.5114682
994.511468
994.5114665
994.5114635
994.5114613
994.5114667
994.5114678
994.5114679
994.5114679
994.5114678
994.5114675
994.5114673
994.5114673
994.5114674
994.5114676
994.5114679
994.5114682
994.5114685
994.5114684
994.5114683
994.5114683
994.5114682
994.5114682
994.5114682
994.5114681
994.511468
994.511468
994.5114681
994.5114681
994.5114682
994.5114682
994.5114682
994.5114682
994.5114682
994.5114682
994.5114682
994.5114682
994.5114682
994.5114682
994.5114681
994.5114681
994.5114682
994.5114682
994.5114682
994.5114682
994.5114683
994.5114683
994.5114684
994.5114683
994.5114683
994.5114683
994.5114683
994.5114682
994.5114682
994.5114681
994.511468
994.5114709
994.5116781
994.5114751
994.5117312
994.5114752
994.5117621
994.5117706
994.5117777
994.5117068
994.5118133
994.5118527
994.5118234
994.5117777
994.511832
994.5118422
994.5118318
994.5118156
994.511822
994.5118166
994.5118315
994.5118039
994.5117572
994.5117553
994.5117557
994.5114711
994.5114709
994.5114704
994.5114735
994.5114699
994.5114698
994.5114736
994.51147
994.5114703
994.511473
994.5114708
994.5114717
994.5114702
994.5114747
994.5114774
994.5114772
994.5114778
994.5114771
994.5114767
994.5114768
994.5114765
994.5114765
994.5114764
994.5114763
994.5114707
994.511476
994.5114757
994.5114715
994.5114753
994.5114725
994.5114703
994.5114704
994.5114703
994.5114752
994.5114753
994.5114753
994.5114702
994.5114699
994.5114753
994.5114754
994.5114696
994.5114693
994.5114694
994.5114692
994.5114756
994.5114757
994.5114756
994.5114691
994.511469
994.511469
994.511469
994.5114758
994.5114759
994.5114758
994.5114694
994.511474
994.511476
994.511476
994.5114708
994.511473
994.5114713
994.5114687
994.5114687
994.5114687
994.5114686
994.5114687
994.5114687
994.5114711
994.5114714
994.5114703
994.5114685
994.5114699
994.5114692
994.5114701
994.5114703
994.51147
994.5114691
994.5114699
994.5114696
994.51147
994.5114701
994.5114701
994.5114701
994.5114701
994.5114701
994.5114698
994.5114698
994.5114698
994.5114699
994.5114698
994.5114686
994.5114698
994.5114698
994.5114697
994.511468
994.5114688
994.5114681
994.5114697
994.5114701
994.5114697
994.5114688
994.5114697
994.5114704
994.5114694
994.511469
994.5118138
994.5114953
994.5118034
994.5117996
994.5118104
994.5118272
994.5117108
994.5117847
994.5117728
994.5117743
994.5114697
994.5114697
994.5114695
994.5114699
994.5114695
994.5114696
994.5114713
994.51147
994.5114709
994.5114772
994.5114738
994.5114764
994.5114768
994.5114768
994.5114765
994.5114764
994.5114764
994.5114763
994.5114761
994.5114762
994.511476
994.5114757
994.5114758
994.5114756
994.5117859
994.5118167
994.5118076
994.5115091
994.511823
994.511821
994.5114694
994.5114695
994.5114694
994.5114694
994.5114692
994.5114692
994.5114705
994.5114694
994.5114701
994.511476
994.5114732
994.5114756
994.5114764
994.5114763
994.5114762
994.5114761
994.5114761
994.511476
994.5114759
994.5114759
994.5114758
994.5114756
994.5114757
994.5114756
994.5117907
994.5117138
994.5118089
994.5118453
994.5118292
994.5118379
994.5118434
994.5114691
994.5114691
994.511469
994.5114698
994.5114691
994.5114697
994.5114754
994.5114719
994.5114758
994.5114761
994.5114761
994.5114761
994.511476
994.511476
994.5114759
994.5114758
994.5114759
994.5114758
994.5118032
994.5118211
994.5118471
994.5118303
994.5118319
994.5118589
994.5118415
994.5114696
994.5114691
994.5114695
994.5114761
994.5114709
994.5114749
994.511476
994.511476
994.511476
994.5114759
994.511476
994.5114759
994.511805
994.5114726
994.5114731
994.5114733
994.5114687
994.5117915
994.5114686
994.5116597
994.5114686
994.5116273
994.5114723
994.5114732
994.5114687
994.5114687
994.5114737
994.5114723
994.5114702
994.5114734
994.5114707
994.5114698
994.5114702
994.5114701
994.5114701
994.5114721
994.5114698
994.5114699
994.511477
994.5114698
994.5114689
994.5114766
994.5114699
994.5114688
994.5114764
994.5114703
994.5114712
994.5114704
994.5114695
994.5114706
994.5115092
994.5118255
994.5117488
994.5114698
994.5114697
994.5114704
994.5114744
994.5114773
994.5114766
994.5114763
994.5114759
994.5114753
994.5114717
994.5114861
994.5118103
994.5117857
994.5118224
994.5118342
994.5117943
994.5114696
994.5114693
994.5114696
994.5114735
994.5114765
994.5114762
994.511476
994.5114757
994.5114753
994.5114694
994.5114691
994.5114692
994.5114728
994.5114762
994.5114761
994.5114759
994.5114757
994.5114755
994.5116912
994.5116977
994.5117757
994.5117898
994.5117834
994.5117987
994.511469
994.5114691
994.5114716
994.5114761
994.511476
994.5114759
994.5114757
994.5117639
994.5117737
994.5117773
994.5114692
994.5118225
994.5118142
994.5117955
994.511788
994.5118006
994.5117763
994.5114701
994.5118143
994.5117737
994.5117572
994.5117386
994.5114761
994.5118091
994.5117283
994.5117179
994.5117167
994.511476
994.511808
994.5117589
994.5117445
994.5117329
994.5114688
994.5116505
994.511473
994.5114687
994.5115453
994.511807
994.5114686
994.5117309
994.5114687
994.5114686
994.5118109
994.5117826
994.5114686
994.5116335
994.5114686
994.5114686
994.5116954
994.5116598
994.5114686
994.5116559
994.5114695
994.5114705
994.5114694
994.511663
994.5114746
994.5116881
994.5114694
994.5117008
994.5117167
994.5114752
994.5117374
994.5117542
994.5117582
994.511758
994.51176
994.5117635
994.5117888
994.5118118
994.511717
994.5117465
994.5117482
994.5117665
994.5117679
994.5117581
994.5117718
994.5117738
994.5117753
994.5117792
994.5118578
994.5118406
994.5118424
994.5118211
994.5117433
994.5117608
994.5117673
994.5117709
994.5117782
994.5117829
994.5117858
994.5117907
994.5117882
994.5117626
994.5117844
994.511794
994.5117873
994.5118245
994.5118418
994.51182
994.5118254
994.5118065
994.5117973
994.5118263
994.511796
994.5117937
994.511764
994.5117753
994.5117755
994.5117557
994.5117728
994.5117722
994.5117752
994.5117715
994.5117724
994.5117736
994.51178
994.5117738
994.5117708
994.511779
994.5117788
994.5118098
994.5118172
994.5117994
994.5117915
994.5117816
994.5117759
994.5117876
994.5117672
994.5117599
994.5117511
994.5117904
994.5118124
994.5117549
994.511767
994.511724
994.5117046
994.5117477
994.5117014
994.5117061
994.5117084
994.5117552
994.51181
994.5117659
994.5117215
994.5117491
994.5117374
994.5117161
994.5117297
994.5117261
994.5117233
994.5117722
994.511798
994.5117727
994.5117502
994.5117657
994.5117611
994.5117404
994.5117576
994.5117523
994.5117559
994.5117475
)
;

boundaryField
{
    walls
    {
        type            zeroGradient;
    }
    wallFilmFace_top
    {
        type            zeroGradient;
    }
    region0_to_wallFilmRegion_wallFilmFace
    {
        type            zeroGradient;
    }
    mirrorFace_top
    {
        type            zeroGradient;
    }
    region0_to_wallFilmRegion_mirrorFace
    {
        type            zeroGradient;
    }
    procBoundary2to0
    {
        type            processor;
        value           nonuniform List<scalar> 
26
(
994.5114692
994.5114687
994.5114691
994.5114688
994.5114689
994.5114683
994.5114681
994.5114684
994.5114684
994.5114683
994.5114682
994.5114679
994.5114677
994.5114678
994.5114679
994.511468
994.5114681
994.5114681
994.5114682
994.5114682
994.5114682
994.5114682
994.5114681
994.5114679
994.5114677
994.511468
)
;
    }
    procBoundary2to1
    {
        type            processor;
        value           nonuniform List<scalar> 
33
(
994.5114696
994.5114696
994.5114697
994.5114697
994.5114692
994.5114692
994.5114686
994.5114686
994.5114688
994.5114688
994.5114689
994.5114685
994.5114688
994.5114689
994.511469
994.5114682
994.5114673
994.5114676
994.5114678
994.5114658
994.5114632
994.5114587
994.511451
994.5114682
994.5114683
994.5114682
994.5114679
994.5114676
994.5114674
994.5114664
994.5114672
994.5114679
994.5114681
)
;
    }
    procBoundary2to3
    {
        type            processor;
        value           nonuniform List<scalar> 
64
(
994.5116755
994.5117312
994.5117249
994.5117263
994.5117823
994.5118197
994.5118512
994.5118282
994.5117554
994.5114686
994.5114685
994.5114687
994.5114686
994.5114685
994.5114684
994.5114684
994.5114687
994.5114702
994.5114702
994.5114699
994.5114689
994.5114687
994.5114685
994.5114682
994.5114682
994.5114683
994.5114688
994.5114688
994.5114691
994.5114688
994.5117211
994.5117653
994.5117211
994.5117774
994.5117904
994.5114686
994.5116278
994.5114686
994.5114696
994.5117211
994.511804
994.5117836
994.5117571
994.5117166
994.5117133
994.5117318
994.5114685
994.511661
994.5114694
994.5116975
994.5117312
994.5117245
994.5117664
994.5117838
994.5118219
994.5117945
994.5117909
994.5118454
994.5117814
994.511774
994.5117415
994.5117095
994.5117197
994.5117462
)
;
    }
}


// ************************************************************************* //
