/*--------------------------------*- C++ -*----------------------------------*\
  =========                 |
  \\      /  F ield         | OpenFOAM: The Open Source CFD Toolbox
   \\    /   O peration     | Website:  https://openfoam.org
    \\  /    A nd           | Version:  8
     \\/     M anipulation  |
\*---------------------------------------------------------------------------*/
FoamFile
{
    version     2.0;
    format      ascii;
    class       volVectorField;
    location    "1.1/wallFilmRegion";
    object      U;
}
// * * * * * * * * * * * * * * * * * * * * * * * * * * * * * * * * * * * * * //

dimensions      [0 1 -1 0 0 0 0];

internalField   nonuniform List<vector> 
1342
(
(0.06769822936 -0.1016516 0)
(0.1232593847 -0.0854025506 0)
(0.01992246154 0.03714167335 0)
(0.1069136387 0.1191736833 0)
(-0.01637010003 0.1171277157 0)
(-0.07470073265 -0.5099624443 0)
(-0.1909744338 0.1783341634 0)
(-1.074015905 0.5308142739 0)
(-1.044183068 0.7558888194 0)
(-0.9432715473 0.9585863838 0)
(-0.8188965833 1.13643999 0)
(-0.5609232287 1.112783517 0)
(-0.1052332252 0.9533750097 0)
(0.2336825665 0.9842905002 0)
(0.3056198285 1.139225548 0)
(0.3059840441 1.300723962 0)
(0.2988401275 1.449959649 0)
(0.2955221567 1.579123912 0)
(0.2981454074 1.673905346 0)
(0.3031185699 1.709200866 0)
(0.2809681955 1.653788431 0)
(0.2110994556 1.511585275 0)
(0.1222799164 1.35491104 0)
(-0.007471262038 1.184330904 0)
(-0.1471325169 0.7749049654 0)
(-0.1428192443 0.8837608595 0)
(0.01507599129 -0.1037806775 0)
(0.0906538422 -0.09489847158 0)
(0.1217769868 -0.0552542856 0)
(0.178290121 0.01948967899 0)
(0.09806804726 -0.007745947035 0)
(0.06800115341 0.04440898912 0)
(-0.1366987341 -0.3718636806 0)
(-0.1116746536 0.2224339072 0)
(-0.6289410944 0.5288766447 0)
(-0.576554684 0.7990712934 0)
(-0.5117759422 1.086189099 0)
(-0.4451203091 1.35862798 0)
(-0.3386269695 1.442068071 0)
(-0.06638318374 1.261575953 0)
(0.293869342 1.09071922 0)
(0.4829446417 1.118293463 0)
(0.5173695683 1.251766527 0)
(0.5083422571 1.39222351 0)
(0.4940061604 1.508647352 0)
(0.4779128979 1.567686526 0)
(0.4331965184 1.519137945 0)
(0.3297107357 1.3622446 0)
(0.2202267034 1.196423238 0)
(0.09899103619 1.047144807 0)
(-0.04201792905 0.9597869708 0)
(-0.2279447606 0.478765862 0)
(-0.109997777 0.9740062397 0)
(0.07352603324 -0.002357836751 0)
(0.1270749936 -0.1135745683 0)
(0.1454961645 -0.1164392184 0)
(0.1138378017 -0.08674441696 0)
(0.1629774864 -0.2957135003 0)
(0.06385436714 -1.20671049 0)
(0.1082012558 -1.340749965 0)
(0.14951097 -1.242014382 0)
(0.1481601504 -0.8651052642 0)
(0.1123348008 0.514732743 0)
(0.1203475669 0.8955977922 0)
(0.1246551318 1.263284572 0)
(0.1317650342 1.618871094 0)
(0.149816331 1.894895523 0)
(0.1715183884 2.015558246 0)
(0.2228954319 1.937908909 0)
(0.3532696305 1.772404488 0)
(0.5314907388 1.534423446 0)
(0.6514507153 1.416622631 0)
(0.66629124 1.435216395 0)
(0.6018505483 1.404261281 0)
(0.4313034405 1.223982475 0)
(0.2630574817 1.033783049 0)
(0.1017143177 0.8659050201 0)
(-0.0252371006 0.7785581303 0)
(-0.1459466031 0.8380428048 0)
(-0.2142798191 0.4569806977 0)
(-0.06799428901 1.0764452 0)
(0.2323924874 -0.03330273387 0)
(0.1012572059 -0.1426950636 0)
(0.09058837832 -0.1144865977 0)
(0.09420664088 -0.0693963193 0)
(0.2027931959 -0.0876052509 0)
(-0.03666569944 -0.1594355371 0)
(-0.1835975951 0.08715531062 0)
(0.04124506394 -0.7338955285 0)
(0.1875993061 -0.6197570329 0)
(0.7081820868 0.5322595852 0)
(0.6605961967 0.8372325367 0)
(0.5956046411 1.121748545 0)
(0.4852219963 1.261415089 0)
(0.4022512708 1.41426965 0)
(0.3799028798 1.556919557 0)
(0.4631699333 1.583807535 0)
(0.6288993344 1.467050145 0)
(0.7857113192 1.337857942 0)
(0.8512884549 1.318975792 0)
(0.8111156037 1.3394406 0)
(0.6527609071 1.257304159 0)
(0.4379459688 1.068641708 0)
(0.2299581597 0.8905432089 0)
(0.04311129989 0.7775083549 0)
(-0.1147251558 0.7368850033 0)
(-0.1226905048 0.8260917883 0)
(-0.01092297347 0.7008276525 0)
(-0.01179283418 1.194805106 0)
(0.09259720808 -0.1894304706 0)
(-0.05184996906 -0.2160260933 0)
(-0.142441301 -0.1139599895 0)
(-0.07113933389 -0.001579936409 0)
(0.07512390708 -0.08890937859 0)
(0.0131438013 0.008196195128 0)
(-0.218829481 -0.000155121965 0)
(-0.1025112994 -0.3572733767 0)
(-0.6092776783 0.446869686 0)
(1.110910156 0.5397716216 0)
(1.048035152 0.7976403649 0)
(0.7278396607 0.8609560875 0)
(0.304295149 0.6722983757 0)
(0.3134130179 0.800555791 0)
(0.5670727612 1.078064067 0)
(0.806566612 1.200538291 0)
(0.9607582983 1.191470275 0)
(1.033347 1.191096194 0)
(1.024145878 1.233195824 0)
(0.9174067855 1.253568859 0)
(0.6962255885 1.163934228 0)
(0.5135158543 1.022214527 0)
(0.3331706719 0.9363424326 0)
(0.05401137032 0.8706272412 0)
(-0.1785102109 0.8025765661 0)
(-0.1784520661 0.7877337872 0)
(-0.06708767434 0.5495093322 0)
(0.05858738825 1.100967011 0)
(0.07575993897 -0.240959613 0)
(-0.00494474293 -0.3349882992 0)
(0.04365863857 -0.2507506973 0)
(0.09239341385 -0.1393502926 0)
(0.08628937757 -0.06344335179 0)
(0.01709456744 -0.2154913372 0)
(0.00893206747 -0.2293712047 0)
(-0.03756741814 -0.2432409892 0)
(-0.1813254777 -0.4118507842 0)
(-0.4140547981 0.4618199132 0)
(1.440715166 0.5418487179 0)
(1.326314135 0.7545815552 0)
(0.7095444075 0.6837257058 0)
(-0.1557101125 0.3437614526 0)
(0.2723352532 0.4517605366 0)
(0.8177718197 0.7343915291 0)
(1.113594673 0.9300050479 0)
(1.215352666 1.027259493 0)
(1.216587961 1.096986341 0)
(1.148846186 1.153119308 0)
(0.9887460907 1.161475768 0)
(0.8028990346 1.096282585 0)
(0.6411694111 1.030075129 0)
(0.4768065706 1.034884849 0)
(0.307850353 1.202104784 0)
(0.2190953903 1.377077712 0)
(0.186592701 1.383917139 0)
(0.1862841957 0.842149237 0)
(0.09858769507 1.079647345 0)
(0.06874053434 -0.4946641579 0)
(0.07998160882 -0.5287849118 0)
(0.1008643793 -0.4234185486 0)
(0.124813625 -0.3097474819 0)
(0.1267030329 -0.2492659861 0)
(0.1066427942 -0.7122686784 0)
(0.1084679168 -0.6735458975 0)
(0.1028740967 -0.6178925163 0)
(0.05645867378 -0.4507110265 0)
(0.2749680706 0.4809905771 0)
(1.683385843 0.5423538728 0)
(1.489644682 0.6969849627 0)
(0.8230144639 0.6555350663 0)
(-0.2983713297 0.4889611674 0)
(0.02888082039 0.4896566641 0)
(0.5170717728 0.5654940595 0)
(1.017291007 0.6709658866 0)
(1.268319095 0.8009305508 0)
(1.338222835 0.9244294762 0)
(1.275362963 1.01096271 0)
(1.114069423 1.030890584 0)
(0.9121760302 1.031163741 0)
(0.7318068831 1.021216251 0)
(0.5350039189 1.077607992 0)
(0.3700186578 1.226059656 0)
(0.3191054206 1.35187208 0)
(0.3087821244 1.422295071 0)
(0.3095862066 0.7014348225 0)
(0.1450689702 1.048335519 0)
(0.07358071705 -0.3937874987 0)
(0.1181505027 -0.4192375953 0)
(0.1564525977 -0.4695121349 0)
(0.142581644 -0.636914819 0)
(0.04266374981 -0.5109370826 0)
(0.07287308716 -0.8053639374 0)
(0.07382447836 -0.8351942315 0)
(-0.2500601756 0.2554820254 0)
(-0.3441798475 0.2612893298 0)
(0.02457598928 0.3615073798 0)
(1.829836977 0.5303370912 0)
(1.581951039 0.6581850096 0)
(0.6316356402 0.6260945124 0)
(-0.5786307407 0.562675347 0)
(-0.7904609722 0.5587732788 0)
(-1.075575121 0.6923069883 0)
(-0.5343760084 0.7136616842 0)
(-0.1193545644 0.7654513756 0)
(0.2709843667 0.8168816956 0)
(0.6063730456 0.8624880976 0)
(0.7781512679 0.8946745601 0)
(0.7929236459 0.9296930112 0)
(0.6901880749 0.982010273 0)
(0.5213213904 1.082689686 0)
(0.3963354699 1.214255081 0)
(0.3018350552 1.295093071 0)
(0.2049494097 1.34442868 0)
(0.1030407597 0.6472753599 0)
(0.1273758379 0.9555957738 0)
(0.01190825498 -0.09590719814 0)
(0.01057841195 -0.2346875291 0)
(-0.02134902102 -0.413964888 0)
(-0.1562346995 -0.3581863884 0)
(-0.3049636985 -0.1952269979 0)
(0.0683534211 -0.7121387196 0)
(0.02822496245 -0.3521295169 0)
(-0.3440294839 0.2750212408 0)
(-0.3713843956 0.2678184344 0)
(0.3958894281 0.4318095738 0)
(1.827608123 0.5234438635 0)
(1.478716094 0.6281329903 0)
(-0.01770397904 0.5112546574 0)
(-0.6008722882 0.4196978115 0)
(-0.6284455416 0.4463258296 0)
(-0.7108409897 0.6703119305 0)
(-0.7264145208 0.7976444787 0)
(-0.7451836596 0.9075138428 0)
(-0.7388219687 0.987182181 0)
(-0.3603978048 0.9418844909 0)
(0.03318449847 0.9100822942 0)
(0.2849420133 0.9325600653 0)
(0.4251317925 0.9835731543 0)
(0.4925736369 1.092717636 0)
(0.4636034637 1.193011172 0)
(0.3679084522 1.24432559 0)
(0.2528048535 1.26753891 0)
(0.1278612437 0.4871384431 0)
(0.1712161246 0.8533209176 0)
(-0.06171954006 -0.1185756231 0)
(-0.0583902562 -0.1390779514 0)
(-0.04876435935 -0.2862607982 0)
(-0.1942540339 -0.09731378001 0)
(-0.4228773622 -0.1655045491 0)
(0.09324042658 -0.4270737107 0)
(0.2024124018 -0.2276606453 0)
(-0.1699811716 0.1699190883 0)
(-0.2353899651 0.2029478553 0)
(0.6624799763 0.4595522591 0)
(1.54415091 0.5262114327 0)
(1.097072469 0.6131039133 0)
(-0.2201376855 0.1616339941 0)
(-0.3924532475 0.1298541579 0)
(-0.4160520475 0.1293105978 0)
(-0.4537434431 0.662619746 0)
(-0.4477548786 0.7911787141 0)
(-0.4444719756 0.9118682362 0)
(-0.4385937133 1.02425299 0)
(-0.3970262091 1.088609579 0)
(-0.2187658546 1.084099268 0)
(0.1153308484 1.029805611 0)
(0.4037333328 1.029946874 0)
(0.564798336 1.08405651 0)
(0.5764885239 1.145223083 0)
(0.5110502164 1.185710414 0)
(0.4066679004 1.207661166 0)
(0.2877722586 0.5222317441 0)
(0.2167569914 0.7615189919 0)
(-0.1261665718 -0.149237708 0)
(-0.05036276489 -0.1542307192 0)
(0.01206259134 -0.1695141899 0)
(-0.1260650589 -0.01821382444 0)
(-0.515174163 -0.2205962764 0)
(-0.02903400239 0.1236503441 0)
(0.2345823283 -0.1257417386 0)
(0.07429092762 0.1051863877 0)
(-0.1079702875 0.08129615337 0)
(-0.2228928837 -0.2033877885 0)
(0.2051081197 -0.120345906 0)
(0.213215785 -0.5964036853 0)
(0.3328070698 -0.9354614749 0)
(0.3948154522 -0.8531847591 0)
(0.4164413014 -0.7209005972 0)
(0.4122472217 0.7330460141 0)
(0.4157086451 0.8459916771 0)
(0.4175598238 0.9671055637 0)
(0.4161804243 1.118574473 0)
(0.4073933663 1.296870212 0)
(0.3933248281 1.505756208 0)
(0.4115984062 1.308825033 0)
(0.4381371477 0.976469418 0)
(0.4475913789 0.7907975172 0)
(0.4887369136 0.7400746653 0)
(0.5136328224 0.8449339913 0)
(0.4807839623 0.9761084891 0)
(0.4171489006 0.5256730029 0)
(0.2607387592 0.6988083031 0)
(0.1211513743 -0.003823628077 0)
(0.07130318805 0.05581510231 0)
(-0.2511506393 0.04734702122 0)
(-0.3309780946 -0.03147652966 0)
(-0.5523393784 -0.3318382817 0)
(0.2933316792 -0.9554410199 0)
(0.3568466657 -1.202318111 0)
(0.329607401 -1.115221267 0)
(0.298772603 -1.01927969 0)
(0.2702948006 -0.8987241932 0)
(0.2328733936 -0.6392840881 0)
(0.2520831068 -0.5875307545 0)
(0.3454775436 -0.6885422275 0)
(0.3866557985 -0.7098908316 0)
(0.4043585695 -0.638450037 0)
(0.5810555231 0.7144250996 0)
(0.580513412 0.8392819401 0)
(0.5823447712 0.9584738282 0)
(0.5738583592 1.09872772 0)
(0.5576735703 1.267866495 0)
(0.546895736 1.489149559 0)
(0.4768456118 1.252587536 0)
(0.4429404345 0.896889572 0)
(0.4720184485 0.6340291548 0)
(0.4746525271 0.5659170312 0)
(0.4797778603 0.6528877159 0)
(0.4846362473 0.8263941121 0)
(0.4357926865 0.3978003035 0)
(0.2968450629 0.6627397627 0)
(-0.04477535541 0.07091668901 0)
(-0.2003893945 -0.09791926355 0)
(-1.137831538 0.08333161582 0)
(-1.04939757 0.05451628304 0)
(-0.7527628805 -0.2391013679 0)
(0.08616048789 -0.8950784461 0)
(0.3376076455 -1.228931019 0)
(0.3378680281 -1.184065821 0)
(0.3254804516 -1.146581023 0)
(-0.814366995 0.4777037652 0)
(-0.6847520967 0.5481311505 0)
(0.02840212156 -0.1659766273 0)
(0.3888274101 -0.1033223816 0)
(0.4269288962 -0.2974392171 0)
(0.4554714663 -0.1390075626 0)
(0.7378288339 0.6652887094 0)
(0.7459399814 0.823962063 0)
(0.7488602736 0.9465804075 0)
(0.7356144441 1.081086579 0)
(0.7123529652 1.240887248 0)
(0.67650686 1.44552273 0)
(0.5645698233 1.252534986 0)
(0.4942763796 0.9178046625 0)
(0.4672670467 0.6714285667 0)
(0.4774292718 0.5123718426 0)
(0.4344974194 0.5607531431 0)
(0.3819707229 0.7473333222 0)
(0.3700018864 0.09858270229 0)
(0.3297649181 0.6420730934 0)
(-0.1112310555 -0.2236614529 0)
(-0.4350866492 -0.2385296616 0)
(-1.469318002 0.2542633547 0)
(-1.237889582 0.2317270401 0)
(-1.100251502 0.1068693144 0)
(-0.5216222063 -0.1804435588 0)
(0.2715900678 -0.9964498996 0)
(0.2396445625 -0.7953944357 0)
(0.2266938992 -0.598404744 0)
(-0.5938007899 0.4585632142 0)
(-0.6458745294 0.5342452791 0)
(-0.2552316063 0.5680443169 0)
(0.6388636701 0.4444015583 0)
(0.567776108 0.2299959097 0)
(0.5847085829 0.3668699123 0)
(0.8929908939 0.6775515217 0)
(0.923028065 0.8213581203 0)
(0.9223782169 0.9390886378 0)
(0.9048794423 1.066138862 0)
(0.8683975009 1.211451157 0)
(0.7999044105 1.386390164 0)
(0.6571148636 1.261967014 0)
(0.5575801862 0.9805136795 0)
(0.5069920292 0.7503601611 0)
(0.4735660267 0.5779536451 0)
(0.4329119965 0.5630398308 0)
(0.3819270914 0.7057061637 0)
(0.4015255762 -0.3098174342 0)
(0.3625106319 0.6258638633 0)
(-0.2725058283 -0.5681358462 0)
(-0.6154873871 -0.3153450068 0)
(-1.648518012 0.296804347 0)
(-1.340442672 0.2970151736 0)
(-1.147362208 0.2394283069 0)
(-0.8049791521 0.1139727915 0)
(0.2744202626 -0.7375155245 0)
(0.4411760817 -0.6577989044 0)
(0.4739358245 -0.4662467797 0)
(0.5913031795 0.5048585762 0)
(0.5903253092 0.7573349752 0)
(0.2997717614 0.7787309544 0)
(0.893310873 0.5702908329 0)
(0.7828398357 0.5836845215 0)
(0.7416485177 0.6427645375 0)
(1.043143768 0.7212664989 0)
(1.090317023 0.8332966876 0)
(1.089268479 0.9455810244 0)
(1.059542551 1.062098981 0)
(0.9964625891 1.178245083 0)
(0.8864193097 1.302450879 0)
(0.7289800392 1.228114448 0)
(0.6203341061 1.00749817 0)
(0.5666783721 0.8042208064 0)
(0.5346841987 0.6415995066 0)
(0.5011687631 0.6024018932 0)
(0.4585445358 0.7099489025 0)
(0.4660520626 -0.5375091964 0)
(0.3940066442 0.6110558623 0)
(-0.2403019829 -0.697438067 0)
(-0.6550807286 -0.3246490547 0)
(-1.702772311 0.287854835 0)
(-1.402073303 0.3527434667 0)
(-1.166421959 0.3486673788 0)
(-0.8754131225 0.2532315768 0)
(0.3912268326 -0.7444564656 0)
(0.5936222304 -0.7213004762 0)
(0.6510477794 -0.5437108444 0)
(0.8300303357 0.508965104 0)
(0.770948525 0.7159894226 0)
(0.5604543427 0.8168886145 0)
(1.076247889 0.5899619091 0)
(0.9606366221 0.6738059087 0)
(0.8852672611 0.7400573387 0)
(1.160485996 0.7636373398 0)
(1.215845433 0.8575473842 0)
(1.208571253 0.9600442138 0)
(1.14380595 1.04859873 0)
(1.036401314 1.12921981 0)
(0.8854736148 1.178830163 0)
(0.7229925567 1.083971344 0)
(0.6137239121 0.8970570476 0)
(0.5548407275 0.74473779 0)
(0.5214930263 0.648978253 0)
(0.5258760672 0.6205952901 0)
(0.5275542473 0.6960486965 0)
(0.5232476505 -0.4809997302 0)
(0.4227911647 0.5982135598 0)
(-0.2819121995 -0.1745740054 0)
(-0.7456021899 0.1799731691 0)
(-1.604444407 0.2589006104 0)
(-1.400177422 0.4187387486 0)
(-1.153940345 0.4538749129 0)
(-0.8870107029 0.3815558177 0)
(0.4509802732 -0.6724513398 0)
(0.6350768119 -0.6685641273 0)
(0.7224917401 -0.5379343227 0)
(1.138477833 0.5197610963 0)
(1.028291368 0.6708331296 0)
(0.841323574 0.7920204334 0)
(1.231303344 0.5976047271 0)
(1.09928973 0.6845769085 0)
(1.008149086 0.7607340036 0)
(1.225645611 0.7954023316 0)
(1.259022389 0.8835040518 0)
(1.229108029 0.9698856143 0)
(1.128266007 1.023856647 0)
(0.9845849909 1.061627493 0)
(0.8123875241 1.030384035 0)
(0.6483112281 0.8936012532 0)
(0.5415953457 0.7487282082 0)
(0.4819503734 0.6550134301 0)
(0.4525189094 0.6081151128 0)
(0.4531897839 0.6032565413 0)
(0.4902994538 0.677461234 0)
(0.5376354345 -0.2760173195 0)
(0.4474711736 0.5903027978 0)
(0.6447753839 -0.3556084937 0)
(0.7472927872 0.1265443728 0)
(-1.403985887 0.2341244723 0)
(-1.280016045 0.4694338022 0)
(-1.101313746 0.5952214343 0)
(-0.864012314 0.5278011929 0)
(-0.2409109938 0.1876572855 0)
(0.6253890611 -0.4108916539 0)
(0.7139976682 -0.2178023516 0)
(1.083549665 0.4436038115 0)
(1.09509854 0.6065809567 0)
(1.010615878 0.7234507148 0)
(1.368523213 0.601623921 0)
(1.21719575 0.6820502826 0)
(1.114084613 0.756793231 0)
(1.242471191 0.8126857649 0)
(1.248071311 0.8912509831 0)
(1.158318413 0.9763048922 0)
(1.048604907 0.9986348724 0)
(0.8920884172 0.9899992906 0)
(0.7252611806 0.9084551432 0)
(0.5786579316 0.7731654576 0)
(0.4806933397 0.6630131193 0)
(0.4277017467 0.5990466787 0)
(0.4095097588 0.5732440806 0)
(0.420836487 0.5811201541 0)
(0.4728807648 0.657819105 0)
(0.5438862824 -0.1261846299 0)
(0.4678177202 0.5903057863 0)
(0.7912460397 -0.327442404 0)
(0.8443170163 0.1287777687 0)
(-1.143020163 0.2157183713 0)
(-1.064912546 0.520581195 0)
(-0.9323581941 0.7439266648 0)
(-0.7655486469 0.7873384796 0)
(-0.4944572567 0.5179162831 0)
(-0.004961278462 0.1767321783 0)
(0.707253057 -0.08647354706 0)
(1.020798903 0.425282349 0)
(1.075147042 0.5711625024 0)
(1.056105056 0.6695680703 0)
(1.486570485 0.6040711249 0)
(1.320392299 0.6765507093 0)
(1.20693186 0.745334023 0)
(1.237621829 0.812761501 0)
(1.210342838 0.8799508798 0)
(1.107603644 0.938852728 0)
(0.9448585906 0.9809463395 0)
(0.7987313081 0.9387232447 0)
(0.6549628076 0.8466635363 0)
(0.5313667624 0.7280411497 0)
(0.4476608572 0.6293201481 0)
(0.4095712546 0.5681677698 0)
(0.4073134369 0.5453130923 0)
(0.4300483702 0.5577777417 0)
(0.4873179978 0.6367397161 0)
(0.5596996367 -0.05161422137 0)
(0.4836971896 0.5983434421 0)
(0.8919602875 -0.3050158829 0)
(0.9241050504 0.1298768616 0)
(-0.8240250617 0.2037969676 0)
(-0.7669657829 0.5735609803 0)
(-0.6430951125 0.9075479481 0)
(-0.468150406 1.079250985 0)
(-0.4066160026 0.9094607758 0)
(-0.2984913359 0.6363883638 0)
(0.1090175285 0.3155561639 0)
(0.9682509019 0.4243961189 0)
(1.041363648 0.5551538379 0)
(1.052090711 0.6380204888 0)
(1.576789232 0.6065489259 0)
(1.408878835 0.6701018935 0)
(1.288353549 0.7316386731 0)
(1.242460606 0.7976368471 0)
(1.179248988 0.8532479222 0)
(1.067400873 0.8932256554 0)
(0.9170236557 0.9142832954 0)
(0.7457479161 0.9071201197 0)
(0.5991022158 0.8389203325 0)
(0.5042275801 0.7350958563 0)
(0.435274234 0.6130848993 0)
(0.3871356948 0.535472029 0)
(0.379792727 0.5060325313 0)
(0.4373238693 0.5190719352 0)
(0.5111318598 0.5936015734 0)
(0.5791067192 0.08567019769 0)
(0.4934957379 0.6107503487 0)
(0.7908058247 -0.9391807399 0)
(0.7876093676 -0.5346347492 0)
(0.7799635421 0.1974084236 0)
(0.7379795466 0.7414962453 0)
(0.6273004161 1.237931941 0)
(0.3568186745 1.446899922 0)
(-0.03813504991 1.229061857 0)
(-0.1846349082 0.8911718333 0)
(-0.1194169055 0.6877380502 0)
(0.605876611 0.4976864896 0)
(1.007102084 0.5480455444 0)
(1.031883444 0.6209395966 0)
(1.619757509 0.6107514393 0)
(1.47768345 0.6638942755 0)
(1.357171103 0.7178451272 0)
(1.268289441 0.7748404974 0)
(1.175460937 0.8196680322 0)
(1.056766121 0.8481902136 0)
(0.9161562141 0.8620124518 0)
(0.7659157388 0.8583257144 0)
(0.6237147222 0.8329716259 0)
(0.5236153094 0.7702011018 0)
(-0.1257505139 0.1473645303 0)
(-0.06350950006 0.1561348981 0)
(-0.08770440278 0.1369315384 0)
(-0.02998874895 0.2103064795 0)
(0.1273791781 0.3558620389 0)
(0.3552128738 0.09198028906 0)
(0.478089069 0.618125256 0)
(0.9668323084 -0.8815257566 0)
(1.00549151 -0.4989538851 0)
(1.067414195 0.202304313 0)
(0.9769313021 0.705795327 0)
(0.6816702813 0.9971785067 0)
(0.1526406255 0.9046534354 0)
(-0.4325097786 0.6873336476 0)
(-0.2977297106 0.3991410177 0)
(0.230655335 0.1121188697 0)
(0.9218622832 0.4392474412 0)
(0.9838666033 0.5447001413 0)
(1.00967208 0.609819535 0)
(1.589386787 0.617499161 0)
(1.515287282 0.6591532845 0)
(1.407867506 0.7053856103 0)
(1.303580929 0.7522923154 0)
(1.193659887 0.7890351559 0)
(1.069605217 0.8137360903 0)
(0.9338774341 0.8311534591 0)
(0.7972414141 0.841113885 0)
(0.6739200568 0.8493909803 0)
(0.009000820107 -0.008031889033 0)
(-0.1439008013 -0.06893492435 0)
(-0.152156369 0.04610443732 0)
(-0.1471808256 0.01187088667 0)
(-0.1210363933 0.06775840019 0)
(-0.02590668448 0.2259563993 0)
(0.143256243 -0.06237308616 0)
(0.421313689 0.5983908038 0)
(1.148299315 -0.8212010713 0)
(1.224810855 -0.4607196329 0)
(1.376011712 0.2080985656 0)
(1.185624995 0.6391137698 0)
(0.7475180995 0.7756008266 0)
(0.1420341593 0.6633262992 0)
(-0.5922960781 0.6688046447 0)
(-0.1852963705 0.3563248219 0)
(0.5055718039 -0.07409582231 0)
(0.9290769836 0.4377183597 0)
(0.9668650345 0.5395927514 0)
(0.9911835264 0.601006028 0)
(1.47630094 0.625228168 0)
(1.505658273 0.6568193216 0)
(1.429238239 0.6956081557 0)
(1.327978147 0.7345799698 0)
(1.213037406 0.7671695867 0)
(1.087395521 0.7942268112 0)
(0.9577769087 0.8216376641 0)
(0.8366425352 0.85304994 0)
(0.7825700315 0.05090563543 0)
(-0.05488675165 -0.04075045586 0)
(-0.04681832185 -0.05423638094 0)
(-0.1478737144 -0.1039357231 0)
(-0.1656554122 -0.1007302114 0)
(-0.169536962 -0.1028290883 0)
(0.08913508635 0.02123186368 0)
(0.2361887901 -0.6135367152 0)
(0.3597849669 0.5862433868 0)
(1.3132018 -0.7365369297 0)
(1.438272161 -0.419369851 0)
(1.693169583 0.2165266113 0)
(1.374088957 0.5495797361 0)
(0.7941012753 0.5953897001 0)
(-0.009951848317 0.5402106815 0)
(-0.655513535 0.6690503287 0)
(-0.04192672112 0.3014463767 0)
(0.1533582038 0.2071168832 0)
(0.8184717664 0.3669884319 0)
(0.9587287261 0.5270755902 0)
(0.9784694713 0.5920528056 0)
(1.311851336 0.6303189964 0)
(1.439263439 0.6568455375 0)
(1.407523966 0.6896105952 0)
(1.321863805 0.7236144275 0)
(1.211921965 0.75592775 0)
(1.0916866 0.7896294086 0)
(0.9759464877 0.8294154878 0)
(0.8785928077 0.8794817392 0)
(0.5267107418 0.1654372428 0)
(0.01194900524 -0.07881709402 0)
(-0.1023254598 -0.08817642108 0)
(-0.1563613572 -0.1429119316 0)
(-0.1797094359 -0.1481287943 0)
(-0.1689919161 -0.1470841183 0)
(-0.03281859447 -0.2303022533 0)
(0.2740930409 -0.5823535667 0)
(0.3002686638 0.5290797169 0)
(1.404414852 -0.6042526206 0)
(1.595484967 -0.368852619 0)
(1.989310082 0.2211244491 0)
(1.523368221 0.450125989 0)
(0.7775765771 0.4755158999 0)
(-0.2823134351 0.5052843389 0)
(-0.6783805327 0.6838225082 0)
(0.03610913485 0.3350002507 0)
(0.2087087082 0.2179534822 0)
(0.4394041949 0.2392911123 0)
(0.8917448051 0.453574982 0)
(0.970308956 0.5741691283 0)
(1.153969621 0.6285071353 0)
(1.325952616 0.6576722495 0)
(1.33726448 0.6875186222 0)
(1.274096646 0.7197434036 0)
(1.177808964 0.755034927 0)
(1.072800533 0.7972250791 0)
(0.979840843 0.8495683891 0)
(0.9263692919 0.5207014375 0)
(0.08395390792 0.001925690349 0)
(-0.01249665346 -0.09886498592 0)
(-0.0702969867 -0.1348580222 0)
(-0.1353867815 -0.1590618484 0)
(-0.1666040852 -0.1608578676 0)
(-0.1853327681 -0.1564304636 0)
(-0.1754608011 -0.1634334484 0)
(0.08607470661 -0.4930904937 0)
(0.233213075 0.4497520181 0)
(-1.058105747 -0.4182456787 0)
(1.555112463 -0.2958817901 0)
(2.232142066 0.224735261 0)
(1.59304318 0.3657062574 0)
(0.5732541909 0.3967630873 0)
(-0.5539780047 0.5301659306 0)
(-0.6658186692 0.7025139646 0)
(0.08002222934 0.3681952329 0)
(0.2071957408 0.2623994015 0)
(0.3374895711 0.245192583 0)
(0.6539177047 0.3302585649 0)
(0.9287989203 0.5177941597 0)
(1.046493477 0.6135146986 0)
(1.194981407 0.6560027215 0)
(1.231993673 0.6878486682 0)
(1.191855963 0.7217954361 0)
(1.116624847 0.7624604275 0)
(1.036767747 0.812158982 0)
(0.9734415908 0.8708341407 0)
(0.9433416541 0.5131107482 0)
(0.1660079879 -0.05393263616 0)
(0.05954490817 -0.08224969114 0)
(-0.04608351669 -0.09134297904 0)
(-0.09697745318 -0.1165313655 0)
(-0.1374867208 -0.1187590266 0)
(-0.1733030335 -0.1321181275 0)
(-0.2115114456 -0.142397788 0)
(-0.209884412 -0.3623424724 0)
(0.1587337306 0.3230162794 0)
(-1.043644441 0.005370433442 0)
(1.21875347 -0.1396925051 0)
(2.361798234 0.23578369 0)
(1.55135878 0.3117206502 0)
(0.1549311349 0.3816703852 0)
(-0.6291861709 0.5723370749 0)
(-0.6220975256 0.7333935673 0)
(0.0318999258 0.4792244487 0)
(0.1629872446 0.3791554317 0)
(0.2919110234 0.3019471286 0)
(0.422506476 0.3112618977 0)
(0.6948618215 0.4077925621 0)
(0.9438795047 0.5607439378 0)
(1.076311435 0.6427053045 0)
(1.121701864 0.6865605264 0)
(1.10154062 0.7267084038 0)
(1.05136984 0.774072991 0)
(0.9996369485 0.8286156051 0)
(0.9639507616 0.8875679571 0)
(0.8947260401 0.6164994078 0)
(0.2470276777 -0.0002024734544 0)
(-0.06226035719 0.05898304054 0)
(-0.1115092763 0.04127165371 0)
(-0.05770978567 0.09566486694 0)
(-0.08463688395 0.07015186709 0)
(-0.1261159314 -0.06411196875 0)
(-0.1893288018 -0.09922417603 0)
(-0.2143955525 -0.2405393437 0)
(0.06387843466 0.1512002947 0)
(-1.108224277 -0.04363232945 0)
(1.031483803 -0.02520514829 0)
(2.342910126 0.2402335635 0)
(1.330231349 0.2862509275 0)
(-0.2408255027 0.4074733377 0)
(-0.5136663934 0.5950313711 0)
(-0.5916386348 0.7876750748 0)
(-0.2389170794 0.7304660519 0)
(-0.02373712555 0.5733100318 0)
(0.07211997356 0.5097132282 0)
(0.1292931561 0.4630811166 0)
(0.2578751858 0.3854583279 0)
(0.526670076 0.4351930521 0)
(0.8363664067 0.5544571455 0)
(0.9961063953 0.6557599521 0)
(1.020815462 0.7216419785 0)
(1.001493195 0.7828587112 0)
(0.9837052528 0.8500133101 0)
(0.968773063 0.898788274 0)
(0.8648804546 0.6754896111 0)
(0.3599520856 0.1163645541 0)
(0.2506455785 0.1282214975 0)
(0.08352121691 0.167627708 0)
(-0.01197816001 0.2266576496 0)
(-0.0927002804 0.2712037628 0)
(-0.1188054135 0.1076762115 0)
(-0.120731794 -0.09736302382 0)
(-0.1602481968 -0.1646201527 0)
(-0.01245719097 -0.08082829051 0)
(-1.214699837 -0.0900985755 0)
(-0.1137523599 0.216698538 0)
(2.158379295 0.2306543736 0)
(0.850747057 0.3274066382 0)
(0.3315564316 0.233967132 0)
(0.03909825765 0.4012833711 0)
(-0.8326638822 0.8156904871 0)
(-0.8579923888 0.7514872334 0)
(-0.8330792738 0.6392539852 0)
(-0.8248983598 0.5894664318 0)
(-0.8363484059 0.5478020694 0)
(-0.8639244126 0.5144455758 0)
(-0.5454467398 0.5042821568 0)
(-0.04199263382 0.5590457216 0)
(0.1843028145 0.6416424387 0)
(0.2145703373 0.7163048729 0)
(0.1885974279 0.7920420701 0)
(0.2433702043 0.8841965321 0)
(0.2840575728 0.8525743292 0)
(0.4209180258 0.6959904666 0)
(0.2100295017 0.2734772959 0)
(-0.05418054331 0.2291524184 0)
(-0.3645386553 0.2646016313 0)
(-0.368834674 0.3520715688 0)
(-0.3513052478 0.3923890471 0)
(-0.3141102951 0.3200816482 0)
(-0.1823024542 -0.02200769991 0)
(-0.1625326879 -0.1323919149 0)
(-0.1327011786 -0.05117957353 0)
(1.201721728 -0.05963043519 0)
(0.7666043471 0.1333829542 0)
(0.8916655578 0.1541912072 0)
(0.8780246992 0.1958666351 0)
(0.910735823 0.2600973662 0)
(0.9145001129 0.3548412798 0)
(0.893734089 0.4565382902 0)
(0.8544574783 0.4978462005 0)
(0.8210767434 0.4887370894 0)
(0.8067553366 0.4669080211 0)
(0.8169455052 0.441630581 0)
(0.8460262368 0.4141826495 0)
(0.8762637237 0.3944410759 0)
(0.8882760348 0.3949979681 0)
(0.8711739534 0.4131859961 0)
(0.8294788034 0.4373870174 0)
(0.7694190368 0.4606260781 0)
(0.697350197 0.4787482811 0)
(0.6226113677 0.4859061064 0)
(0.5479363637 0.4810449014 0)
(0.4477947649 0.4386570584 0)
(0.3804069694 0.4318797651 0)
(0.3445829927 0.4445924939 0)
(0.3179463086 0.4519854343 0)
(0.2943116694 0.4372938136 0)
(0.2475479184 0.378202647 0)
(0.1436405106 0.2777971574 0)
(0.05733758234 0.152457296 0)
(-0.07273461835 0.04127585109 0)
(-0.6043824631 0.0003327917646 0.01286854549)
(-2.100655085 -0.01164230256 -7.974486524)
(-0.02364291165 0.07709238589 -1.301818877)
(-2.709499591 0.416042634 -7.244060284)
(0.1046882832 0.2975417229 -1.171168681)
(-3.100562986 1.692302125 -6.648987276)
(-2.044951561 2.339357893 -9.232343598)
(-1.034595041 2.474722408 -9.737530323)
(-6.501297784 -1.971022498 -3.63550362)
(-4.760662107 -2.672951615 -5.112914476)
(-3.798499493 -3.071743062 -5.829701572)
(-2.544607233 -3.560673098 -6.777419628)
(-7.047630255 -2.425412681 -2.49271415)
(-5.447884276 -3.317458506 -3.622853754)
(-4.412903198 -3.869045946 -4.210696932)
(-3.006267423 -4.596135616 -5.031935135)
(-7.833647789 -2.000401091 -1.240453456)
(-6.496782675 -2.704386205 -1.723469129)
(-5.478886474 -3.238518607 -2.054769412)
(-3.936087529 -4.056807193 -2.573711553)
(-9.296098396 1.98686164 -0.878655057)
(-8.039261912 3.460926091 -1.687564169)
(-4.78958143 7.648399307 -3.73491275)
(-1.264099156 9.820551487 -4.796273794)
(1.213581769e-06 -1.71915556 -1.667436383)
(0.0001965686295 -1.43867052 -1.512708335)
(-3.461515266e-06 -1.445327048 -1.338569439)
(0 0.1176385321 -1.082332608)
(-3.733566021e-06 -2.511035306 -2.309557106)
(1.291512029e-06 -1.399109692 -3.453251338)
(0 0.1586137678 -1.187205063)
(0 -0.7519109125 -5.696364232)
(0 -0.5140041223 -5.883712688)
(0 0.2168916642 -1.748021883)
(0 -0.3502891093 -5.307832974)
(0 0.1027681702 -5.264401781)
(0 -0.2556493634 -0.7283559751)
(0 0.3668823652 -4.964203219)
(0 0.8429790599 -4.035043571)
(0 -0.2892554761 -1.221887971)
(0 1.152624734 -5.119155582)
(0 1.335888844 -6.783839661)
(0 0.01243868961 -1.732308852)
(0 1.486103372 -6.66853384)
(0 1.624762181 -6.899629407)
(0 0.9250674406 -2.464114768)
(0 1.725293541 -5.853165568)
(0 1.436370293 -3.039459945)
(3.700346327e-07 -0.3185899763 -0.1288236654)
(1.096216205e-07 1.13684193 -1.3261906)
(3.776118707e-06 1.32120774 -1.783912656)
(3.410853232e-06 0.2204039484 -0.3047304621)
(4.627303494e-05 1.346342531 -2.039161311)
(4.253314514e-05 0.6313673867 0.4263666225)
(-8.704563429e-05 -1.100749374 -1.163681789)
(-0.0008837323883 -0.5216445329 -1.252445775)
(-0.000516990272 -0.8523037959 -1.114152189)
(0.0006086874876 1.325579401 -1.030149858)
(-0.00011726135 1.177067021 -0.8058740182)
(0.0006682644395 1.209999404 -0.8343556043)
(0.0008871653334 -0.5516417352 -1.121373759)
(0.00194662525 -1.369747515 -0.8481908178)
(0.1042032481 0.3138778754 -1.067311188)
(0.001474313474 1.039712013 -0.7174266981)
(0.000547996304 -1.269364635 -0.7667402891)
(-1.030375332e-05 -1.157189014 -0.6646102166)
(8.978948232e-06 -1.170259443 -0.679700319)
(-3.083051492e-07 -1.087833433 -0.6278144645)
(-0.0001479092698 0.8724586336 -0.5677395476)
(-2.14450415e-07 0.7618645566 -0.4949927481)
(6.165567705e-06 0.784577143 -0.5609898052)
(0 -1.036156188 -0.5901365421)
(0 -0.9056176063 -0.4914892826)
(0 -0.8989872329 -0.4867041344)
(0 -0.848681617 -0.4445978656)
(0 0.6981882274 -0.4760012377)
(0 0.6035018241 -0.4521006108)
(0 0.6135181092 -0.474675985)
(0 -0.5732839777 -0.2555812383)
(0 -0.1844841289 -0.04881348435)
(0 0.5207603147 -0.2604325729)
(0 0.5341449685 -0.3731588899)
(0.3953235024 0.1699676143 -0.0002718195081)
(-0.3491429476 0.4084869286 -0.0006513721915)
(0.3757126741 0.2460631523 -0.0003924344135)
(-0.4012843442 0.03452605321 -5.584898253e-05)