/*--------------------------------*- C++ -*----------------------------------*\
  =========                 |
  \\      /  F ield         | OpenFOAM: The Open Source CFD Toolbox
   \\    /   O peration     | Website:  https://openfoam.org
    \\  /    A nd           | Version:  8
     \\/     M anipulation  |
\*---------------------------------------------------------------------------*/
FoamFile
{
    version     2.0;
    format      ascii;
    class       volScalarField;
    location    "1.7";
    object      alphat;
}
// * * * * * * * * * * * * * * * * * * * * * * * * * * * * * * * * * * * * * //

dimensions      [1 -1 -1 0 0 0 0];

internalField   nonuniform List<scalar> 
67193
(
0.000183973474
0.0001877264087
0.0001898518134
0.0001904022994
0.0001879945007
0.0001842098146
0.000180583431
0.0001760597759
0.0001844613334
0.0001738225908
0.0001650006183
0.000160409632
0.0001595019659
0.0001602456159
0.0001613904372
0.0001622001453
0.000161761243
0.0001609480351
0.0001586713934
0.0001556435123
0.0001522505472
0.0001486273944
0.0001450735441
0.0001415995678
0.0001372235878
0.0001317534548
0.000126258942
0.0001223078214
0.0001203072705
0.0001188972958
0.0001163681165
0.0001121520114
0.0001053078344
0.0001944814923
0.00020265359
0.0002083811142
0.0002121122788
0.0002138008666
0.0002112806381
0.0002065882
0.0002019679046
0.0002003546399
0.0002440297159
0.0002143435314
0.0001909172996
0.0001828649675
0.0001847187238
0.0001883753285
0.0001910188142
0.0001920791372
0.0001907064472
0.0001907060221
0.0001866641808
0.0001809713747
0.0001755692874
0.0001715068041
0.0001698901844
0.0001703002631
0.0001696018187
0.0001671050325
0.0001624725386
0.0001557596954
0.0001484071717
0.0001414417818
0.0001343676644
0.0001265862004
0.0001171953148
9.545210082e-05
0.0002044094332
0.0002106505371
0.0002151567106
0.0002175368289
0.0002159106597
0.0002121247879
0.00021168083
0.0002258279199
0.0003189304326
0.0002724647998
0.000224517288
0.0002014323322
0.0002008786697
0.0002057702122
0.0002091588775
0.0002102829063
0.000208879485
0.0002164036043
0.000212168723
0.0002026101874
0.000194301468
0.0001905199883
0.0001924533694
0.0001974749057
0.0002006721565
0.00020269918
0.0002011422524
0.0001930489495
0.0001792381748
0.0001631498509
0.0001485052542
0.000137717127
0.0001303436449
0.0001157964942
0.0002015445182
0.0002071892264
0.000212229715
0.0002154393508
0.0002153877782
0.0002158975992
0.0002328892275
0.0002783956548
0.0003938727012
0.0003456553644
0.0002802535069
0.000231456566
0.0002166886118
0.0002188767354
0.0002219846687
0.0002234008504
0.0002245579153
0.00025082291
0.0002480816237
0.0002316939364
0.0002162508556
0.0002099562922
0.0002139948452
0.0002220120711
0.0002282941511
0.0002356848721
0.000238906182
0.0002329378696
0.0002175097787
0.0001950744946
0.0001712559631
0.0001546068986
0.0001482505059
0.0001374574855
0.0002049524208
0.0002040004265
0.0002081988762
0.0002124439738
0.0002150908775
0.0002276464416
0.0002763305408
0.0003525675934
0.0004592858713
0.0004151840164
0.0003442349575
0.0002752882931
0.0002374111364
0.000230389302
0.0002311570351
0.0002339103578
0.0002433231053
0.0002960153837
0.0002955710578
0.0002719835066
0.0002453448184
0.0002307241241
0.0002330316502
0.0002424143491
0.0002521823145
0.0002657420651
0.0002730468514
0.0002691617697
0.0002548800767
0.0002316794864
0.0002028218197
0.0001781125699
0.0001667872509
0.0001536574367
0.0002380730137
0.0002107927432
0.0002063575719
0.0002107323572
0.0002173790336
0.0002471337323
0.0003217481957
0.0004141280526
0.0005090855588
0.0004704643135
0.0003944375986
0.000316931954
0.0002619756017
0.0002425100487
0.0002383743412
0.0002454945997
0.0002720084074
0.0003461646585
0.0003468841784
0.0003193412122
0.0002824939166
0.0002546209091
0.0002496093408
0.0002587853379
0.0002740921497
0.0002952234588
0.0003048944952
0.0003005718727
0.0002859586247
0.0002633947402
0.000233971865
0.0002038846191
0.0001846835871
0.0001657388744
0.000313605531
0.0002462100749
0.0002132055047
0.0002109700452
0.0002190281892
0.0002535573414
0.0003340146751
0.0004321602453
0.0005232040227
0.000489562019
0.0004109781885
0.0003335819672
0.0002794669993
0.0002549536668
0.000245713429
0.0002636442229
0.0003141995428
0.000394025801
0.00039415043
0.0003660035316
0.000323430046
0.0002825092219
0.000264833368
0.0002714282651
0.0002951311499
0.0003241092575
0.0003348205484
0.0003281070414
0.0003101253508
0.0002864024349
0.0002573409548
0.0002255688305
0.0002004575221
0.0001748728084
0.0004056953103
0.0003121722216
0.0002400258072
0.0002159215031
0.0002180197449
0.0002322021278
0.0002838268415
0.0003808066586
0.0004903026375
0.0004494720897
0.0003688480915
0.000313740264
0.0002859270515
0.000266932414
0.0002549160156
0.0002924683402
0.0003585405062
0.0004330936875
0.0004327227721
0.0004053131279
0.00036128461
0.0003117120412
0.0002796140922
0.0002802241638
0.0003122176377
0.0003478480489
0.0003583822805
0.000348640669
0.0003265039552
0.0002998287291
0.0002706193518
0.0002393274438
0.0002120340038
0.0001814284647
0.0004826074517
0.000380011379
0.0002836902118
0.000230012526
0.0002218794551
0.000225245647
0.0002288011764
0.000263376183
0.0003574006767
0.0002966099223
0.0002887104522
0.0003041158451
0.0003006685881
0.0002814281542
0.000266764705
0.0003190773685
0.0003902844881
0.0004556571315
0.0004567078535
0.0004314993202
0.0003884253283
0.0003359349284
0.0002926349368
0.0002845808711
0.0003211136178
0.0003602103412
0.0003692204834
0.0003563193575
0.0003311997485
0.000302765831
0.0002740309421
0.0002448355666
0.0002185576473
0.0001854796312
0.0005280863264
0.0004265977323
0.0003234725981
0.000250181606
0.0002288607143
0.0002293152034
0.0002284380313
0.0002275648547
0.0002466456701
0.0002607823795
0.0003004590875
0.0003228730583
0.0003188954946
0.0002977790405
0.0002758292204
0.0003257393684
0.0003966934323
0.0004560545196
0.0004600000666
0.0004375416435
0.0003968719854
0.000346004526
0.0002982624692
0.0002828465444
0.0003161686063
0.000355452653
0.0003623924279
0.0003479832524
0.0003238679746
0.0002973895849
0.0002712765249
0.000245383953
0.0002214808481
0.0001874181629
0.0005540390297
0.0004570882964
0.0003529710032
0.0002707630142
0.0002383819896
0.0002345931662
0.0002334371374
0.0002298983117
0.0002314811014
0.0002681098537
0.0003174798312
0.0003344550887
0.0003294328086
0.0003093439297
0.0002812086982
0.0002962776756
0.0003678857759
0.0004289653848
0.0004383869471
0.0004164762467
0.0003750964894
0.0003259033232
0.0002830145571
0.0002691303275
0.0002910720339
0.000329168
0.0003375003749
0.0003322407352
0.0003169386167
0.0002954765417
0.0002718098573
0.0002473958201
0.0002238202079
0.0001880067032
0.0005606851348
0.0004649606562
0.0003602538904
0.0002819196022
0.0002483210002
0.0002409730096
0.0002392272908
0.0002353922923
0.0002360213016
0.0002690644666
0.0003165218159
0.0003339570251
0.0003298912559
0.0003109375001
0.0002836395183
0.0002642911352
0.0002924640939
0.0003575961311
0.0003639989798
0.0003294702605
0.0002805387106
0.0002465633117
0.0002343085601
0.0002378017449
0.0002520141888
0.0002839166508
0.0003176169334
0.0003380105029
0.0003306721893
0.0003097122338
0.0002830486411
0.0002549559695
0.0002273368225
0.0001876625313
0.0005083564057
0.0003980607446
0.0003091899819
0.0002692936482
0.0002555603119
0.0002490878381
0.0002450593798
0.0002410224141
0.0002381858895
0.000258278502
0.0003001895498
0.0003212540169
0.0003185986456
0.0002974833851
0.0002663292348
0.0002427930809
0.0002400680193
0.000276641263
0.0002721312158
0.0002479055118
0.0002268396948
0.0002127580348
0.0002058403007
0.0002084088599
0.000241544473
0.0002906054285
0.0003477021942
0.0003677747876
0.0003570251392
0.0003310376592
0.0002988382882
0.0002646081216
0.0002305949866
0.0001858351204
0.0003543111961
0.0002964937563
0.000278831244
0.0002765768122
0.0002700896635
0.0002605283004
0.0002518604654
0.0002450675401
0.0002386786644
0.0002416345641
0.0002670550968
0.000290296955
0.0002871509073
0.000259681717
0.000234371373
0.0002228313652
0.0002229882013
0.0002286706801
0.000226614313
0.0002181856588
0.0002069913822
0.0001948331386
0.00018454177
0.0001965631449
0.000257504544
0.0003151098038
0.0003726584541
0.0003877845947
0.0003740416508
0.0003433677944
0.000307265494
0.0002690579487
0.0002299396532
0.0001811672408
0.0002838321514
0.0002819843135
0.0002932520843
0.0002951552811
0.0002879767425
0.0002755947558
0.0002618653098
0.0002496934419
0.0002394971514
0.000232590155
0.0002326671856
0.000239359851
0.000234646546
0.0002227160027
0.0002219885122
0.0002209447798
0.0002160456003
0.0002126734107
0.0002109173883
0.0002039679422
0.0001933437427
0.0001807265433
0.0001703703461
0.0001935997202
0.0002561157991
0.0003149591244
0.0003747199274
0.0003887427182
0.0003731367635
0.0003373193695
0.0002984294163
0.0002595320336
0.0002198684866
0.0001719654261
0.0002784400951
0.0002995951059
0.0003141300442
0.0003136979957
0.0003057145697
0.0002922985747
0.0002754842461
0.0002578478021
0.0002426964127
0.000230150841
0.0002193961903
0.0002121114657
0.0002079547921
0.0002108293027
0.0002265513073
0.0002270177857
0.0002132518498
0.000203564426
0.0001994131286
0.0001903218661
0.000178826734
0.0001684177195
0.000161869162
0.0001769206368
0.0002203669051
0.0002711448172
0.0003452415638
0.0003635189595
0.0003453600195
0.0002979637726
0.0002564635008
0.0002237864678
0.0001950898566
0.0001590783147
0.0002892504769
0.0003170182252
0.0003291105577
0.0003277370919
0.0003198442107
0.0003065627312
0.0002891770478
0.0002689981266
0.00024941154
0.0002315208934
0.0002153482025
0.0002028927935
0.000200983172
0.0002075764178
0.0002216798912
0.0002185774691
0.0002036647673
0.0001948919044
0.0001957300427
0.0001846193475
0.0001710674857
0.0001658299242
0.0001651582654
0.0001714125558
0.0001876831757
0.0002117091708
0.0002698249196
0.0002870483694
0.0002492128175
0.0002029537882
0.0001852642846
0.0001819468505
0.0001758623313
0.0001558621964
0.0002977164867
0.0003305252628
0.0003392223393
0.0003373905117
0.0003294212548
0.0003160456988
0.000298721887
0.0002784870494
0.0002568420271
0.0002342779332
0.0002119819408
0.000197513004
0.0001974970151
0.0001985640816
0.0001965172063
0.0001937322376
0.0001979883366
0.0002052943173
0.0002197966241
0.0002051480673
0.0001829791596
0.0001757664204
0.0001767981945
0.000181998981
0.0001923105207
0.0001951131035
0.0001973599355
0.0001986310962
0.0001789484432
0.0001725735317
0.0001761107348
0.0001801721055
0.0001789974801
0.0001693538965
0.0002958692386
0.0003329115281
0.0003435013846
0.0003422332338
0.0003337727374
0.0003194421983
0.0003011452733
0.0002808365539
0.0002592325262
0.0002350631305
0.000208501307
0.000193736089
0.0001917561662
0.0001868818597
0.0001858147382
0.0002026077274
0.0002333948859
0.0002521955678
0.0002694193689
0.0002526148773
0.0002202730432
0.0001972983612
0.0001911931323
0.0001936919341
0.0002048524059
0.0002072985061
0.0002013881755
0.0001891158607
0.0001790780531
0.0001762447597
0.0001809426698
0.0001877919911
0.0001920161501
0.0001917635595
0.0002661314292
0.0003197568882
0.0003399078252
0.0003397498265
0.0003293771553
0.0003128608095
0.0002922341088
0.0002696545677
0.0002458756979
0.0002193051846
0.000193038955
0.0001892703215
0.0001804612978
0.000177805401
0.0002025386497
0.0002491762707
0.0002966919139
0.0003175228283
0.000323575229
0.0003073297143
0.0002713229003
0.0002305005513
0.0002091367835
0.0002089808689
0.0002199665479
0.0002331497831
0.0002365206251
0.0002229930775
0.0002065508128
0.0001962242622
0.00019643195
0.0002042285182
0.0002125631874
0.0002148864353
0.0002394481507
0.0002619725594
0.0003099357881
0.0003175303576
0.0003075308269
0.0002904866283
0.000269916322
0.0002467359031
0.0002204585628
0.0001951951582
0.0001758863163
0.0001715481978
0.0001673143648
0.0001881090263
0.0002457556454
0.0003082875922
0.0003666532735
0.0003898831594
0.0003853731705
0.000362339285
0.000323991215
0.0002717997482
0.0002353156318
0.0002369619577
0.0002476668719
0.0002783345638
0.0002907119803
0.0002778118293
0.0002551608563
0.0002343731629
0.0002245288674
0.0002273356492
0.0002349228745
0.0002333962947
0.0002588635963
0.0002584192747
0.00025754032
0.0002581481151
0.0002564864009
0.0002495122011
0.0002358941358
0.0002153579391
0.0001904168127
0.0001692255304
0.0001584318583
0.0001580008925
0.0001619322578
0.0002105834456
0.0002859255002
0.0003564173819
0.0004241651673
0.0004533903692
0.0004478020836
0.0004158807962
0.000371457006
0.0003135153916
0.0002737353097
0.0002884749109
0.0003000419187
0.000341750205
0.0003534520997
0.0003394740489
0.0003136045356
0.0002842343383
0.0002610649213
0.0002527572913
0.000255033669
0.0002470447691
0.000286532705
0.0002860472912
0.0002747220289
0.0002635838026
0.0002515851725
0.0002385228656
0.0002237024896
0.0002059233089
0.0001858257238
0.0001672204517
0.0001547474079
0.0001493591216
0.000157392839
0.000220252807
0.0003030165135
0.0003796964257
0.0004543100172
0.0004935693071
0.0004954047661
0.0004581429011
0.0004065521803
0.0003454077732
0.0003274760429
0.0003595775066
0.0003679898906
0.0004070940896
0.0004130100089
0.0003942455727
0.0003653837507
0.0003316931635
0.0002981154071
0.0002775678652
0.0002723845806
0.0002572689977
0.0003066319155
0.000314287043
0.0003008251852
0.0002872279812
0.000272496258
0.000257565274
0.0002417468128
0.000224249991
0.0002039906206
0.0001807519475
0.0001627013473
0.0001503544324
0.0001450240156
0.0001954672354
0.0002797166783
0.0003661487466
0.0004499547134
0.0004989318596
0.0005083214438
0.0004685095551
0.0004091518002
0.000359004889
0.0003984483621
0.0004332437352
0.0004361243616
0.0004618181286
0.0004631436703
0.0004394958063
0.000403345855
0.0003656934095
0.0003268209618
0.000298696517
0.0002873817919
0.0002652923982
0.0003166806363
0.0003190424257
0.0003314218252
0.0003168309954
0.000301404864
0.0002870411724
0.0002712918872
0.0002548578853
0.0002374132693
0.0002179762678
0.0001958234055
0.0001777095915
0.0001619097911
0.0001489490881
0.0001519348646
0.0002212478348
0.0003261446709
0.0004139234701
0.0004686132852
0.0004760881716
0.0004157737093
0.0003596261952
0.0004042082079
0.0004744918427
0.0005013647228
0.0004971506626
0.0004987277415
0.0004921934981
0.000464875248
0.0004230255449
0.0003812817194
0.0003413809088
0.0003128205911
0.0002998897452
0.0002717827021
0.0003392127893
0.0003228140852
0.0003194007228
0.0003128673134
0.0003032790667
0.0002912467041
0.000276652784
0.0002605143219
0.0002439364508
0.00022647547
0.0002081825358
0.0001894169
0.0001715717401
0.0001568910732
0.0001476952464
0.0001633460416
0.0002285443656
0.0003217687033
0.0003858496342
0.0003815287388
0.0003259851072
0.0003981359517
0.0004818916381
0.0005421976712
0.0005600701262
0.0005394128545
0.0005162476591
0.0004920993439
0.0004569814161
0.0004137893852
0.0003889229799
0.0003530365639
0.0003223193402
0.0003105537044
0.0002771239371
0.0003206280654
0.0003206364209
0.0003222614024
0.0003179772036
0.0003076281021
0.0002934164443
0.000276803868
0.0002600696045
0.0002435170028
0.0002269177603
0.0002102262128
0.0001935468969
0.0001776050077
0.0001634794794
0.00015410409
0.0001633759073
0.0001848771921
0.0002211093267
0.0002642448832
0.0003028338958
0.0003735017525
0.0004633995603
0.0005444162838
0.000595729969
0.0006012470361
0.0005709924165
0.00052956276
0.0004807049464
0.0004290250437
0.0003924024681
0.0004756769229
0.0004394812999
0.0003489236632
0.0003232725943
0.0002819916998
0.0003153202106
0.0003216260178
0.0003339048904
0.0003291575013
0.0003149594848
0.0002951731602
0.0002742000103
0.000255508096
0.0002385309302
0.0002229693088
0.000208293856
0.0001939542836
0.0001800649602
0.0001672034243
0.0001598072331
0.0001770623685
0.0002038585659
0.0002230862786
0.0002411628279
0.0003018468565
0.0003975585846
0.0004843369868
0.0005593326868
0.0006057583643
0.0006085785483
0.0005804268221
0.0005349256988
0.0004815956284
0.0004321588362
0.000438083147
0.000766856696
0.0007288457232
0.0004730361495
0.0003518320683
0.0002875362096
0.0003116367081
0.0003383235721
0.0003353365344
0.0003201152758
0.0002963299927
0.0002716906026
0.0002507227158
0.0002335126802
0.0002193545441
0.0002067073122
0.000194352793
0.0001825349943
0.0001713622625
0.0001659037488
0.0001916330429
0.0002361668245
0.0002601410546
0.0002270470677
0.0002461176828
0.0003246582381
0.0004178123041
0.0004999689779
0.0005591735772
0.0005563718973
0.0005152402139
0.0004736033734
0.0004445065487
0.000421370693
0.0004035997263
0.0004207047333
0.0004090698201
0.0003548789881
0.0003401566276
0.0002868069806
0.0003049419775
0.0003490110858
0.000344324799
0.0003261133761
0.0002984579563
0.0002711935519
0.0002497051288
0.0002336574736
0.0002211552215
0.0002095932418
0.0001978039171
0.0001866215562
0.0004940966777
0.0004611744494
0.0004461730913
0.0004367363043
0.0004236755713
0.0004066380664
0.0003899981758
0.0003739581219
0.0003619109845
0.0003507438685
0.0002907396925
0.0003367616276
0.0003167602964
0.0002917270475
0.0002698463267
0.0002534114868
0.0002408501276
0.0002040082895
0.0002111263991
0.0002151037621
0.0002164669794
0.0002130970429
0.000207804466
0.0002010241158
0.0001951183419
0.0001908992252
0.0001842600111
0.0001769051194
0.000173625877
0.0001733000633
0.0001742848478
0.0001754698071
0.0001762335243
0.0001758105516
0.0001744094617
0.0001719638437
0.0001685895267
0.000164326621
0.0001590842684
0.0001529727911
0.0001462579551
0.000139138505
0.000132512644
0.0001280190595
0.0001268283276
0.0001278220113
0.0001282216451
0.0001257026177
0.0001200220191
0.0001106683557
8.907786701e-05
0.0005844711464
0.0006432377361
0.0006817466384
0.0007009313724
0.0006822661954
0.0006498626887
0.0005866372108
0.0005615122333
0.0005113977574
0.0004854823114
0.0004465871568
0.0004539967082
0.0004786769278
0.000497272871
0.0005045422271
0.0004991469048
0.0004833238345
0.0004580112282
0.0004353400211
0.0004126882782
0.0003883556628
0.0003621069039
0.0003346220003
0.0003063775271
0.0002796590037
0.0002600208945
0.000253005091
0.0002587128435
0.0002690094364
0.0002713019994
0.0002554962412
0.0002227063284
0.0001762558955
9.123510084e-05
0.0006706941461
0.0007453007089
0.0008016294216
0.0008294216856
0.0008082315805
0.0007703127669
0.0006775759639
0.0006585207769
0.0006210556433
0.000566528941
0.0005077558827
0.0005428549243
0.0006064991234
0.0006544273924
0.0006771135205
0.000665223198
0.0006332504212
0.0005801979431
0.0005418047332
0.0005090054737
0.0004774520843
0.0004474957053
0.000420235198
0.0003904435804
0.0003552236129
0.0003202707373
0.0002958112881
0.0002859467395
0.0002853207118
0.0002822252803
0.0002644309778
0.0002303163898
0.0001796488962
0.0001066111749
0.0006614411751
0.000733823598
0.000803432166
0.0008355523392
0.0008161889509
0.0007791054106
0.0006783057374
0.000691183902
0.0007068375347
0.0006442941489
0.0005219815496
0.0005612860041
0.0006602909745
0.0007486757398
0.0008002478471
0.0007870977885
0.0007504235902
0.0006817086426
0.0006335871737
0.0005926545656
0.0005587931702
0.0005352490755
0.0005222702309
0.0005042063223
0.0004689666139
0.0004193988581
0.0003680264849
0.0003243070941
0.0002928529149
0.0002722380563
0.0002558652256
0.0002379330693
0.0002072704752
0.0001269808831
0.0006240824513
0.0006804252712
0.0007620568033
0.0007985276266
0.0007857208203
0.000752201091
0.0006869379958
0.0007964654626
0.0009165323626
0.0008359717009
0.0006055328059
0.0005711682842
0.0006724863824
0.0007904205238
0.0008683832194
0.0008587931408
0.0008429344169
0.0007967832993
0.0007487867047
0.0006906895711
0.0006461182702
0.0006322184272
0.0006437615798
0.0006492396578
0.000629056252
0.0005815709898
0.0005116428354
0.0004256002404
0.0003429149853
0.0002860679382
0.0002606275045
0.0002565366
0.0002425938599
0.0001435234752
0.0006017844389
0.0006213034354
0.0007094808333
0.0007537494094
0.0007571246444
0.0007365195084
0.0007550631817
0.0009799932908
0.001150886004
0.001099258987
0.0007770923539
0.0006316974266
0.0006942731953
0.0008090547998
0.0008898989113
0.0008863440021
0.0009182638236
0.000896262857
0.0008772013229
0.0008203118416
0.0007434820961
0.0007242799383
0.0007581069595
0.0007918089405
0.0007966013524
0.0007627753903
0.0006972342289
0.0005948247698
0.0004638914261
0.0003480157001
0.0002937284064
0.0002883362386
0.0002780278867
0.0001562798586
0.0006789898755
0.0005834204605
0.0006611033767
0.0007181234802
0.0007499838239
0.0007491426759
0.0008168632479
0.001067243805
0.001228014946
0.001199811868
0.0009148974542
0.0007432426318
0.0007675549065
0.0008467968338
0.0008997854522
0.0009077125591
0.0009877514912
0.001009104386
0.001015671639
0.000955398388
0.0008609259605
0.0008065104973
0.0008434176239
0.0009014854775
0.00092660035
0.0009209401715
0.0008730264846
0.0007666233717
0.0006176948455
0.0004593930331
0.0003580340027
0.0003350118817
0.0003153662578
0.0001659781662
0.0009373408222
0.0006047169261
0.0006261875274
0.0006960050316
0.000764202195
0.000785188017
0.0008220308602
0.001007901497
0.001130787614
0.001112342963
0.0009444028623
0.0008679628595
0.0008967601919
0.0009271021702
0.0009287736714
0.0009647189276
0.001065432037
0.001129924466
0.001155613201
0.00109099
0.0009746700145
0.0008834079585
0.0008959736106
0.000971025081
0.001018209144
0.001039352725
0.001012785372
0.0009115846308
0.0007478882
0.0005799765076
0.0004434384072
0.0003941912912
0.0003549064264
0.000173092457
0.001245034692
0.0007066363427
0.0006103370997
0.0006830063902
0.0007790008775
0.0008321002205
0.0008163594945
0.0008768597367
0.000927610834
0.0009485184124
0.0009556767715
0.001008419663
0.001035427128
0.001036501726
0.0009872538614
0.001055430398
0.001137722531
0.001212020934
0.001242860071
0.001181919075
0.001051795153
0.0009447900372
0.0009159218261
0.000984764924
0.001047062567
0.001088060358
0.001081620537
0.000994999324
0.0008368180384
0.0006718753098
0.0005288072704
0.0004591246201
0.0003954522074
0.000177942835
0.00138749847
0.0008487779657
0.0006210319256
0.0006788306413
0.0007860871421
0.0008551303129
0.000854168522
0.0008350413585
0.0007673517964
0.0008674924428
0.001023758782
0.001087352691
0.001103608211
0.001100194226
0.001058125781
0.001107016288
0.001161386618
0.001220078177
0.001243467443
0.001186764412
0.001059515249
0.0009446472509
0.0008870501685
0.0009282642707
0.0009983064821
0.001057746033
0.001077701363
0.001018198015
0.0008875267652
0.0007396465947
0.0006024461633
0.0005213598973
0.0004335434599
0.0001807442647
0.001406535592
0.0009874547485
0.0006721852525
0.0006982365395
0.0008040274218
0.0008769058039
0.0009021504028
0.0008914956711
0.0008459261401
0.0009685236022
0.00107637866
0.001124889936
0.001131306498
0.001120515878
0.00111247967
0.001120761469
0.001134839407
0.001162596105
0.001169001746
0.00111112838
0.0009929079566
0.000877523475
0.0007978189277
0.0007986712148
0.0008672341602
0.0009595279775
0.001031543682
0.001017302506
0.0009265874936
0.0007989855716
0.0006691025896
0.0005740910148
0.0004631902837
0.0001815446009
0.001363698757
0.001063415956
0.0007486188106
0.0007435675712
0.0008340725387
0.0008934247517
0.0009197889067
0.0009363565275
0.0009168320342
0.001018169898
0.001087568801
0.001121209924
0.001119405885
0.001102155222
0.001098959426
0.00108797254
0.00108626737
0.00108076282
0.001067936939
0.001004527282
0.0008872899699
0.0007504424415
0.000667089723
0.0006265522039
0.0006595967154
0.0008181196372
0.0009916439479
0.001031348747
0.0009747689328
0.0008602418126
0.0007324735622
0.0006105927217
0.0004778649691
0.000180187808
0.001243934485
0.0009979305133
0.0007930910027
0.0008117019276
0.00087198887
0.0009055263227
0.0009290101661
0.0009536086864
0.0009682667076
0.001021576115
0.001062181865
0.001080554976
0.001072627646
0.001056271602
0.001050135926
0.001021864387
0.001042159283
0.001025366176
0.0009948481556
0.0008830387222
0.0007399404495
0.0006074880612
0.0005151120438
0.0004566609575
0.0005023595276
0.0007530542287
0.0009987507604
0.001071732664
0.001027136691
0.0009038660443
0.0007647355514
0.0006232350818
0.0004749719086
0.0001764530444
0.001082698425
0.0008992716897
0.0008598855528
0.0008753928544
0.0008933673231
0.0009117030087
0.0009294956859
0.0009485909459
0.0009666572831
0.0009775140473
0.0009941577351
0.0009963272091
0.0009865745598
0.000988541753
0.0009890959504
0.0009846883014
0.0009972850812
0.0009733842118
0.0009379305061
0.0008321698367
0.0006659851992
0.0005129351686
0.0004147091069
0.0003731615895
0.0004908054113
0.0008329530755
0.00103871727
0.001101349027
0.00104625051
0.0009025135059
0.0007514358218
0.0006102979171
0.0004584567787
0.000170301182
0.0009464179478
0.0009292536412
0.00090863496
0.0008951963888
0.0008991031978
0.000909431344
0.0009194916211
0.0009263524886
0.0009200340402
0.0008884079275
0.0008564619973
0.0008378636826
0.000832653494
0.0008743730483
0.0009483311641
0.0009606348149
0.0009171145316
0.0008529825666
0.0008185183982
0.0007112300837
0.0005516214594
0.0004234034345
0.0003511337845
0.0003542197139
0.0005214442586
0.0008335646787
0.001007933117
0.001053443775
0.0009822249619
0.0008265357832
0.0006955274914
0.0005757174524
0.000436306711
0.0001623960256
0.0008984149849
0.0009484322237
0.000930601592
0.0009139526464
0.0009094094053
0.0009059679647
0.0009005107243
0.0008900265885
0.0008509068088
0.0007959500707
0.0007379504922
0.0007099415914
0.0007447879232
0.0008403629198
0.0009198942775
0.0009018761966
0.0008200229184
0.0007118086746
0.0006653814321
0.0005591271356
0.0004422141154
0.0003771531831
0.0003416433073
0.0003830016843
0.0005314656623
0.0007595199238
0.0008874376441
0.0009070283933
0.0008198606294
0.0006818384969
0.0006190426863
0.0005345990672
0.0004163533851
0.0001550932513
0.0009232843683
0.0009674023883
0.0009534237248
0.0009386134114
0.0009266327802
0.0009042191282
0.0008741793499
0.0008397213143
0.0007731572997
0.0007002235356
0.0006430201271
0.0006387754933
0.0007019764149
0.0007882092498
0.0008239763917
0.0007700296546
0.0006496106131
0.0005429538938
0.0004946614149
0.0004166720725
0.0003765401542
0.0003955339011
0.0003950473582
0.0004528138651
0.0005673764548
0.0006680061891
0.0007177680773
0.0006950423638
0.0006128940662
0.000539521581
0.0005330216186
0.0005073215315
0.0003945289166
0.0001527779421
0.0009700214188
0.0009901913525
0.0009803175726
0.0009687390693
0.0009466777584
0.0009007534104
0.0008395339403
0.0007753664545
0.0006880655472
0.0005992404268
0.0005552975838
0.0005931161398
0.00066310724
0.0006796255803
0.0006337203465
0.0005449854205
0.0004625485601
0.000415718732
0.0003743212064
0.0003427828662
0.0003677704023
0.0004460141773
0.0004783630756
0.0005426924399
0.0006611285306
0.0006795338331
0.0006011295681
0.0005245576002
0.0004773586823
0.0004724922635
0.0004874353273
0.0004648842844
0.000355394202
0.0001579920123
0.000962804852
0.001006373445
0.001009283366
0.0009982309118
0.0009606931068
0.0008873291229
0.0007908100805
0.0006938516372
0.0005857582713
0.0004903023525
0.0004700429355
0.0005570349317
0.0005922305804
0.0005362360778
0.0004564207965
0.0004010042656
0.0004211980144
0.0004334560724
0.0003960690835
0.0003789898274
0.000406858514
0.0004998768099
0.0005701386553
0.0006392693412
0.0007658617111
0.0007535232145
0.0006250145542
0.0005116467383
0.0004586951766
0.0004394895046
0.0004413355098
0.0004124658253
0.000316356506
0.0001714248473
0.0009352188212
0.001021442861
0.001035233867
0.001014933716
0.0009514211397
0.0008460688806
0.0007157166058
0.0005845299904
0.0004492719029
0.0003748504224
0.0003965389592
0.0005172374939
0.0004886914664
0.0004022751124
0.0003538421908
0.0004059837974
0.000603441107
0.0006542315021
0.0005651442939
0.0004937265732
0.0005050213991
0.0005903328865
0.0006525336348
0.0006949523318
0.0007843872993
0.0007557157329
0.0006253084506
0.0004910176029
0.0004165290547
0.0003849133638
0.0003806126433
0.0003630361916
0.0002975573151
0.0001903124392
0.0008793491597
0.001009240566
0.001031425126
0.0009872345669
0.0008845724628
0.0007447387852
0.0006007967632
0.0004579274775
0.0003493462583
0.0003008773911
0.0003147547309
0.0003760180994
0.0003598032542
0.0003044213534
0.00032318861
0.0005775109265
0.0009383509732
0.0009881630906
0.0008299883282
0.0006366483887
0.0006509363288
0.0006744935195
0.0006688990626
0.000678534343
0.0007282945705
0.0007260687872
0.0006265677626
0.0004837389029
0.0003897236461
0.0003511181502
0.000348206412
0.0003489822106
0.0003137322521
0.0002091913522
0.001050170037
0.001025471175
0.0009739026671
0.0008552488808
0.000709298635
0.0005696289527
0.000456079511
0.0003691156427
0.0003215890063
0.0002908613598
0.000274255303
0.0002855035148
0.0002729231524
0.0002477303834
0.0003379195797
0.0007919227125
0.001173148417
0.001256110792
0.001094638022
0.0008147447819
0.0007112925914
0.0006263345748
0.0005987208689
0.0006401054066
0.0007215470443
0.0007928928971
0.0007155074397
0.0005585049463
0.000425497081
0.0003714641055
0.000369217212
0.0003838495689
0.0003622426283
0.0002250905435
0.001298949085
0.001254215689
0.001159782099
0.0009892620897
0.00082176859
0.0006706102817
0.0005391172187
0.0004349551725
0.0003898886216
0.0003590757676
0.000305689879
0.0002587762937
0.0002315018497
0.0002257388074
0.0003299257399
0.0007975636959
0.001198079648
0.001365857971
0.001281824757
0.0009845570086
0.000673309812
0.0005152655393
0.0005544152978
0.0007060792316
0.0008938398994
0.00101202026
0.0009467265235
0.0007542479321
0.0005597498896
0.0004671614244
0.0004504768663
0.0004677283633
0.0004384068036
0.0002383599949
0.001463399342
0.001463287976
0.001369991659
0.001252172485
0.001127856111
0.0009620208074
0.0007818226806
0.0006123484811
0.0004782713669
0.0004115998464
0.0003865263537
0.0003202695717
0.0002507362637
0.0002313428053
0.0002741097306
0.0005639385529
0.0009913492329
0.001259303691
0.001248823331
0.000978782758
0.0006218711215
0.0005134931338
0.0006628517134
0.0009507123279
0.001200754508
0.001293196337
0.001223351939
0.001018008187
0.0007582134396
0.0006338683376
0.0005868565982
0.0005923299465
0.0005368313119
0.0002500376439
0.001666158607
0.001627310408
0.001632460277
0.001543879478
0.001407926663
0.00128459822
0.001157627762
0.0009817955303
0.0007842677229
0.0006066466569
0.0004974074181
0.000458848424
0.0003898341051
0.0002938716619
0.0002575807098
0.000262874164
0.0003301239933