/*--------------------------------*- C++ -*----------------------------------*\
  =========                 |
  \\      /  F ield         | OpenFOAM: The Open Source CFD Toolbox
   \\    /   O peration     | Website:  https://openfoam.org
    \\  /    A nd           | Version:  8
     \\/     M anipulation  |
\*---------------------------------------------------------------------------*/
FoamFile
{
    version     2.0;
    format      ascii;
    class       volScalarField;
    location    "1.7";
    object      epsilon;
}
// * * * * * * * * * * * * * * * * * * * * * * * * * * * * * * * * * * * * * //

dimensions      [0 2 -3 0 0 0 0];

internalField   nonuniform List<scalar> 
67193
(
0.2026746306
0.2153373972
0.2227408657
0.2246771768
0.2162452033
0.2034321979
0.1916311368
0.1775492523
0.2037316642
0.1705943035
0.1460334901
0.1342290797
0.1319771335
0.1338291702
0.1367153441
0.138778896
0.1376528526
0.135569016
0.1298906476
0.1225996133
0.1147587871
0.1067578497
0.09927367427
0.09229571041
0.08398002708
0.07431458817
0.0653954056
0.05945895118
0.05660830897
0.05465518512
0.05124714592
0.04587751081
0.03797931399
0.01516349401
0.2376130575
0.258341748
0.2724754571
0.2790307653
0.2692602
0.251686098
0.2351065321
0.229279907
0.4128045634
0.2796952294
0.1980370496
0.1743220086
0.1797926239
0.1906929388
0.198829019
0.2021460585
0.1978245171
0.1977197435
0.1853687969
0.1689422515
0.1542881111
0.1438353744
0.139804109
0.1408017236
0.1390379312
0.132932274
0.1221322425
0.1076014379
0.09310522762
0.08064777837
0.06917230729
0.05784478874
0.04589398645
0.0339479948
0.2438658265
0.2669107658
0.284412693
0.2939519202
0.2873822993
0.2724455684
0.2704194603
0.3275257779
0.9226898031
0.5737774058
0.3210888078
0.2325940575
0.2311713126
0.2485789687
0.2610702487
0.2652785901
0.2599323052
0.2887045296
0.2719056989
0.2368457922
0.2090094543
0.1971350343
0.2032503602
0.2195921028
0.230384561
0.2373388959
0.2317804483
0.2047926661
0.163856458
0.123604897
0.09328373604
0.07443743064
0.06310732813
0.06057491493
0.233645287
0.2539590193
0.2729727215
0.2855384879
0.2852863453
0.2870392045
0.3593193082
0.6129567314
1.742421548
1.174017225
0.6242487624
0.3520818922
0.2899054531
0.2991714028
0.3121627512
0.3181261078
0.3228840729
0.449358231
0.4342933544
0.3537431098
0.2878642014
0.2637638569
0.279496861
0.3121759562
0.3393702756
0.3732993302
0.388652648
0.3600203288
0.2928896309
0.2111480055
0.1428731477
0.1052223118
0.09283911195
0.1013720858
0.244950313
0.2422085009
0.2576697769
0.2737629401
0.2840136456
0.3360391753
0.5999761609
1.247656329
2.76798122
2.0398851
1.159649923
0.5922905312
0.3808397932
0.3488167109
0.3525089059
0.3651402998
0.4105357294
0.7390835099
0.7348564823
0.5720398686
0.4199743246
0.3498430943
0.3609874234
0.4065527693
0.4576039546
0.5353700666
0.5806171128
0.5559480517
0.4717424551
0.3539609842
0.2373043948
0.1607791642
0.1321867004
0.1416654095
0.381627565
0.2662561773
0.2506941852
0.2671516554
0.2930843018
0.4299229871
0.9492357532
2.027802406
3.776250559
2.974770169
1.749456265
0.9056306224
0.5116915097
0.4066920109
0.3865291787
0.4219547742
0.5732086554
1.183305397
1.189540729
0.9267870789
0.64102536
0.4698784656
0.443614741
0.4947667243
0.5877276924
0.7343522909
0.8088161562
0.7746977126
0.666819973
0.5207148242
0.3646337364
0.2412026946
0.1794556171
0.1778249053
0.8717530014
0.4220796438
0.2756779089
0.2679496552
0.2998937153
0.4651398697
1.064823706
2.309742202
4.104452046
3.358187384
1.983049127
1.058406478
0.621975865
0.4726173814
0.4232550407
0.5223896522
0.8837438468
1.747155883
1.747560289
1.397378475
0.9629135082
0.6416303625
0.5296645319
0.5710171029
0.7340307875
0.9722159253
1.071708884
1.008255205
0.8511289034
0.6700507128
0.485690613
0.3268835982
0.229519208
0.2089105315
1.894261682
0.8601222176
0.3916588536
0.2868078037
0.2957933013
0.3575489792
0.6539676218
1.581332306
3.380232878
2.600501456
1.434475511
0.8814712873
0.6668927507
0.5426098655
0.4725554011
0.7132786698
1.31512165
2.322714626
2.315334815
1.90035791
1.343930602
0.8622786442
0.6231547942
0.6284183323
0.8695420616
1.20270295
1.315129956
1.210391237
0.9937856906
0.7692792116
0.5652901705
0.3907392493
0.2717374179
0.2333369988
3.199539982
1.556027344
0.6459025718
0.345846378
0.3116347855
0.3262280319
0.3418494899
0.5219131317
1.306743676
0.7446310964
0.6867922471
0.8030534017
0.775872466
0.6360496292
0.5416313522
0.9273250292
1.698908012
2.707530432
2.724923973
2.295735694
1.67234595
1.08033561
0.7142714364
0.6581838473
0.9466190202
1.336473455
1.438995077
1.292841248
1.037736291
0.7924082171
0.5872136735
0.4185808602
0.2977283101
0.2493667114
4.200033431
2.206351947
0.9586760082
0.4444022995
0.3417354277
0.3442225576
0.340262205
0.3363034971
0.4285797808
0.5063455453
0.7747867605
0.9614957089
0.926083634
0.7536454257
0.5989327721
0.9878335266
1.785809083
2.716370528
2.786276253
2.395626429
1.785704896
1.181700528
0.7565786933
0.6462561998
0.9040544333
1.284908888
1.361169817
1.204381822
0.9702671107
0.7508201737
0.5696413742
0.4214582059
0.3099112257
0.2573059603
4.858833685
2.719958823
1.248521043
0.5635831498
0.38597594
0.3684887009
0.363119392
0.3467979539
0.3540267623
0.550693955
0.9146855723
1.069144313
1.021330997
0.8452290206
0.6346573813
0.7433063284
1.424910477
2.261081664
2.412439785
2.066678666
1.508238094
0.9881457246
0.6468618242
0.5569168875
0.7055083836
1.020623121
1.099171445
1.047395766
0.9085520455
0.7358724508
0.5727117234
0.4318120538
0.3198351154
0.2597522325
5.046392069
2.870411668
1.331622762
0.6375819403
0.4364156605
0.3993106952
0.3908086808
0.3722874368
0.3753365428
0.5568175817
0.9067961068
1.064706933
1.025915175
0.8586755104
0.6514931925
0.5269606315
0.7149249213
1.308601591
1.378839322
1.021012292
0.6296274939
0.4275944289
0.3673930967
0.3843643583
0.4573909436
0.6537957941
0.9143582378
1.102012758
1.031501492
0.8472626081
0.6466171923
0.4725384431
0.33510742
0.2583212957
3.761319332
1.800113403
0.842092977
0.5566728407
0.4760708961
0.4409617789
0.4200295256
0.3996580643
0.3857508428
0.4924145409
0.7737258022
0.9480303321
0.9243271043
0.7520950113
0.5394113556
0.4085398383
0.3949874293
0.6053173564
0.5757711188
0.4348003674
0.3330538785
0.2749132614
0.249108449
0.258569555
0.4020062545
0.7002826349
1.20030335
1.420722881
1.299343254
1.035326545
0.7613294247
0.5283568322
0.3497025074
0.250835139
1.269267822
0.7427971877
0.6183689997
0.6037065658
0.5621021978
0.5044554247
0.4558557897
0.4200721585
0.3881110331
0.4029011052
0.5446059043
0.6996106452
0.6767051338
0.5000767508
0.3674448709
0.3157782695
0.3165760066
0.3415205104
0.3323523812
0.2965709691
0.2531983677
0.2111556751
0.179448466
0.2167032877
0.4873633322
0.893800423
1.479403853
1.667071268
1.495538598
1.156439706
0.8282846832
0.5557963431
0.3468066686
0.23241311
0.6524248492
0.6399598911
0.719964574
0.733946063
0.6814725846
0.5971302994
0.5122411656
0.4441840939
0.3920417529
0.3591541492
0.3596630935
0.3917807317
0.3689542487
0.3153594099
0.3122640351
0.3078678983
0.2878847411
0.2746802289
0.2679927504
0.2423572742
0.2064015573
0.1685451374
0.1411713584
0.2071641977
0.4802194343
0.8938586845
1.505656076
1.680973143
1.486114229
1.09752993
0.7597152763
0.4993480736
0.3034175359
0.1988228429
0.6157976535
0.7681236223
0.8852576685
0.8814193349
0.8155923486
0.7126171873
0.596410621
0.489017362
0.4078423261
0.3478748754
0.3013921235
0.2724123813
0.2567251232
0.2675487434
0.3321279735
0.3341624765
0.2769259256
0.2408765093
0.2264257018
0.19683341
0.1632734478
0.1363441151
0.1210035916
0.1580839407
0.3059573035
0.5707151755
1.178749629
1.375751263
1.17944634
0.7571547901
0.4826207123
0.3203897098
0.2120876024
0.1573920034
0.6900469353
0.9104159258
1.018300138
1.005408277
0.9342802712
0.8224030985
0.690040376
0.5552798967
0.442568151
0.3540321964
0.2849545851
0.2383720963
0.2317863965
0.2554283363
0.311371515
0.2984874427
0.2412444718
0.2111852343
0.2136805498
0.1792688947
0.1426984815
0.1300246004
0.1284408701
0.1436008618
0.1885693886
0.271027841
0.5628161867
0.6774271443
0.4427096983
0.2387570802
0.181536088
0.1719386025
0.1552178654
0.1478310985
0.754016676
1.031650555
1.115143363
1.097057594
1.020947089
0.9013359276
0.7608865207
0.6163271706
0.4833732997
0.3667730344
0.2717190181
0.2199044419
0.219969832
0.2236087484
0.2167712846
0.2074807299
0.2209758747
0.245999192
0.3018007717
0.2452096856
0.1740917206
0.1546138896
0.1575034571
0.1718643227
0.2027692353
0.2117555109
0.2193067382
0.2238277866
0.1634835475
0.1466135617
0.155842906
0.1668474665
0.1635096696
0.1893936931
0.740314883
1.054292553
1.157962373
1.145055646
1.06203085
0.9308165651
0.7796818438
0.6322215271
0.4971413338
0.3705279142
0.2585346567
0.2075569149
0.2013738406
0.18640853
0.1828873537
0.2364296434
0.3610620007
0.4556063559
0.5562722148
0.4580092824
0.3033393934
0.2183502553
0.1991023735
0.2070827157
0.2450481925
0.2536761692
0.2323300956
0.1923720573
0.1634293687
0.1559335046
0.1688526779
0.1887559633
0.2016671678
0.2749343938
0.5385526225
0.9343149575
1.122088062
1.120279562
1.020536032
0.87438293
0.7124110771
0.5595938581
0.4241282572
0.3008512323
0.2052051731
0.1936559179
0.1678583868
0.160232072
0.2359932075
0.4393296428
0.7424284947
0.9104825513
0.9648527397
0.8262849111
0.567594479
0.3479153297
0.2603057335
0.2597380093
0.3030362381
0.3603680478
0.37585162
0.3147268116
0.2501469803
0.2147205774
0.2157215486
0.2426223372
0.273559698
0.3871900409
0.3917053394
0.5133826753
0.8511708847
0.9147315975
0.8306261013
0.6998104278
0.5612180617
0.4285549271
0.3056158634
0.2121365976
0.1552729277
0.1441714954
0.1336262033
0.1891482339
0.4216160276
0.8336377614
1.403975719
1.688657469
1.631778109
1.356333776
0.9684092594
0.5708370251
0.3703408725
0.3778025351
0.4314977903
0.6126412477
0.6983124971
0.608903188
0.4714087616
0.3654341666
0.3218362499
0.3346028138
0.3694804225
0.4965365132
0.4948609363
0.4922051311
0.4874240949
0.4911867588
0.4818005646
0.4434667881
0.3745796445
0.2848531726
0.1968044413
0.1381756836
0.1134778242
0.1126193368
0.1209556026
0.2653764548
0.6653902836
1.290795976
2.178093467
2.660687802
2.564188546
2.053827207
1.462237863
0.8775276823
0.582680182
0.6810982775
0.7666429727
1.135555251
1.257433803
1.11355346
0.8769501126
0.6524027875
0.5058582503
0.4598928924
0.4729526251
0.5891705189
0.6712680336
0.6674111567
0.5913436983
0.5223105507
0.4541416808
0.386959058
0.3191493708
0.2488590832
0.182841556
0.1332692162
0.1056770357
0.09508085503
0.1110943323
0.3042789532
0.7937463782
1.563503362
2.680550816
3.438006613
3.477432832
2.74977666
1.920488452
1.175522072
0.9983190303
1.321521921
1.416673114
1.923123822
2.009620805
1.747530771
1.390284992
1.038909183
0.7539232978
0.6091561889
0.5763559001
0.6656054933
0.8227015461
0.8846178727
0.7762350827
0.6759194989
0.5771453611
0.4873109224
0.4028568409
0.3214935802
0.24192104
0.1682454152
0.122751779
0.09691719305
0.0869952031
0.2130605544
0.6252157355
1.403311534
2.606713909
3.554818962
3.760795974
2.944590838
1.959974661
1.319181396
1.801322079
2.317277256
2.362133442
2.81157333
2.837890396
2.424365564
1.873070979
1.394784207
0.9947164494
0.7595192628
0.677047008
0.7299812345
0.905418353
0.9264377585
1.038526978
0.9069085955
0.7810076568
0.6746772504
0.5695471876
0.4721069999
0.3815699208
0.2952327755
0.2139695094
0.1599740454
0.1209990735
0.09420036356
0.1000231351
0.3093147895
0.9923260355
2.030006475
2.947213363
3.091126698
2.058631239
1.3271485
1.88051992
3.049777313
3.597837568
3.50336657
3.543165564
3.409048676
2.872486353
2.163365243
1.58159423
1.133982911
0.8728348458
0.7695491067
0.7849847343
1.110102187
0.9589495123
0.9296254118
0.873791669
0.7959142489
0.7048532123
0.6040475983
0.5043113837
0.4139717162
0.3312367489
0.2572241113
0.1937115254
0.1439465043
0.1100762562
0.09184398702
0.124157541
0.3404800592
0.9526813673
1.644970947
1.59172773
0.9859336976
1.797031215
3.194791369
4.557491226
5.024352688
4.484955544
3.931225691
3.406799871
2.729140341
2.025103199
1.669080033
1.24292436
0.9529909092
0.8545669319
0.8322459999
0.9401113245
0.9406640176
0.9552238461
0.9174193976
0.8305288105
0.7205679217
0.6049445235
0.5016967718
0.4118410595
0.3332043685
0.2649212096
0.2067119821
0.1597165678
0.1245639426
0.1043450109
0.1242650303
0.1798424106
0.3079274104
0.5265066452
0.7915206813
1.484330466
2.841673084
4.615222587
6.053867879
6.223365994
5.325070537
4.244017908
3.171543437
2.253178313
1.719649904
3.010031076
2.329576215
1.193757735
0.9622223894
0.8767114094
0.8949227394
0.9495850403
1.062863677
1.017677237
0.8911008763
0.733236946
0.5877710645
0.4756008562
0.3869854724
0.3160954996
0.257697552
0.208045274
0.1664665851
0.1332846268
0.1163703151
0.1582251242
0.2411731424
0.3161261437
0.3995275237
0.7838125555
1.793812608
3.245285647
5.009290469
6.367788247
6.455776151
5.596398291
4.376986289
3.192183794
2.305205166
2.364703495
12.68538753
10.6237586
2.880087774
1.225545825
0.9282053196
0.8637300037
1.105670949
1.076141959
0.935538857
0.7416535126
0.5715238605
0.4491798926
0.3629558614
0.3009115025
0.2518258376
0.2093169089
0.1734125672
0.1434864636
0.130185013
0.2003946745
0.3751876043
0.5019448438
0.3334113397
0.4242654427
0.974422915
2.081739747
3.573589915
5.005559403
4.927435841
3.908682788
3.034065844
2.508700878
2.137159018
1.876371114
2.107618931
1.900770197
1.27220794
1.12437513
0.9231297293
0.8093507816
1.21430539
1.165423212
0.9893399622
0.7577353303
0.5682901763
0.4436279757
0.3635535108
0.3083243346
0.2624753666
0.220625088
0.185308421
3.447797119
2.801662695
2.538045059
2.381031694
2.17392174
1.921919115
1.694234881
1.492198453
1.354627029
1.233065815
0.9613743979
1.090417377
0.9066508175
0.7076960757
0.5599787224
0.4637816222
0.3982291046
0.3137258257
0.3477342593
0.3677703531
0.3747971459
0.357558688
0.3315552247
0.3001525753
0.2744454243
0.2569269504
0.2310397046
0.204473743
0.1933038216
0.1922059324
0.1954887267
0.1994999658
0.2021173522
0.2006720298
0.195914553
0.1877873453
0.176945236
0.1638524743
0.1486552065
0.1321588644
0.1154931901
0.09942476715
0.08588695866
0.07745592733
0.07533395549
0.07713083118
0.07785734013
0.07335414475
0.06384863663
0.0500523393
0.03696687566
0.2473164885
0.26514418
0.2755018614
0.2792255103
0.2705034475
0.2573117698
0.2397746725
0.2313528906
0.2500290508
0.2188088283
0.1874922355
0.1824986184
0.1882244471
0.1954128371
0.2001252169
0.2014195948
0.1975974482
0.1916792516
0.1817685607
0.1696577394
0.1572693762
0.1454114962
0.1352179417
0.1265315053
0.1168935032
0.1067782819
0.09816572308
0.09260826327
0.08923169037
0.08506227683
0.07682988692
0.06491051341
0.05065922664
0.03969935617
0.224476481
0.2378637083
0.2461648654
0.2499646504
0.2464239795
0.2415618102
0.239318963
0.2660425885
0.3672003154
0.2984405652
0.2197573236
0.2055406562
0.2135490224
0.2235926177
0.2296854625
0.2316283826
0.2279489525
0.227242565
0.2170893973
0.2014577961
0.1877827119
0.1790547783
0.1760845308
0.1756940897
0.1712989176
0.1628220158
0.1507354995
0.1358404884
0.1196365429
0.103540212
0.08758894864
0.07326304854
0.06128430491
0.06328346567
0.200610027
0.2098130906
0.2170421622
0.221721547
0.2240701507
0.2318722677
0.2682133685
0.4040827993
0.7127904726
0.5271631629
0.3065529652
0.2443832011
0.2369078289
0.2417274336
0.2459474827
0.2503831604
0.2532135092
0.272411582
0.2677780592
0.2446241992
0.2252126639
0.218858087
0.2247078038
0.2346773017
0.2389253335
0.2369780534
0.2256464221
0.2026825749
0.1703442511
0.1355294094
0.106464606
0.08983189152
0.08361613037
0.1069636428
0.1980235872
0.1955998508
0.1997190581
0.2046792034
0.2132821223
0.2415559759
0.3576671841
0.7798837508
1.394886959
1.086459529
0.5023077685
0.3230808751
0.2744976866
0.2633928342
0.2620143097
0.2735001581
0.2941000962
0.3496284526
0.3583054479
0.3181147632
0.2803943145
0.2673909592
0.2775242503
0.2978736657
0.3161454861
0.3285467866
0.3243647572
0.2958667421
0.2469350925
0.1918880776
0.1445819674
0.1184436852
0.111746817
0.1545181542
0.2538244854
0.2049019934
0.1964476521
0.1984135846
0.2115148764
0.2648522446
0.4942981641
1.340587998
2.038687119
1.76638585
0.8237801498
0.4388454755
0.3290894532
0.2939286051
0.2862666067
0.3146805799
0.3743792307
0.5031995743
0.5273533029
0.4396662464
0.3624214543
0.3273244702
0.332647309
0.3635184921
0.4055224986
0.4483248022
0.463235533
0.4272055263
0.3477152092
0.2651340556
0.1992323356
0.1577363423
0.1423631561
0.1995673589
0.4818220687
0.2633100819
0.2129875812
0.2030210647
0.2141884842
0.2797944847
0.6023787118
1.600460413
2.186376265
1.985895932
1.043837278
0.5437674369
0.3892563674
0.33296721
0.3234570779
0.3838632349
0.5223959128
0.7582530849
0.8058454848
0.6458388636
0.4770615872
0.3998322632
0.3899177567
0.4319017014
0.5098059634
0.5940310449
0.6319566325
0.589880769
0.4733837654
0.341483193
0.2549708395
0.1997343001
0.1724634858
0.2391507731
1.116859675
0.4153766581
0.2589136444
0.2201257346
0.2194793406
0.267407387
0.552565062
1.364008927
1.804041827
1.603803034
0.9244509475
0.5733417367
0.4397051825
0.3777450272
0.3730676987
0.4780437897
0.7316462315
1.051780006
1.121025587
0.9125402582
0.6312304288
0.4772467692
0.4422479192
0.492656313
0.6046533836
0.7264535521
0.780665191
0.7218685812
0.5745510892
0.4035508278
0.2972326503
0.2340112556
0.1982190691
0.2713094465
2.059000911
0.6895912069
0.3444556854
0.2523247386
0.2324011984
0.2456596438
0.3721483231
0.821070356
1.095927669
0.9320093054
0.6635656819
0.5488066257
0.4840437016
0.4261351688
0.4270778844
0.5706690898
0.9161587988
1.251786758
1.333124422
1.12309338
0.7784930151
0.5398590669
0.4737514297
0.5235787418
0.6540091513
0.795700092
0.8546485964
0.7814942116
0.6119004306
0.4333524201
0.3214306538
0.2561607777
0.2172481364
0.2948233139
2.738578174
1.083888157
0.4714901853
0.2984975079
0.2528305026
0.2433365638
0.2729427441
0.3713823691
0.4803565908
0.5113793463
0.5477431587
0.5647602101
0.5340700785
0.472708523
0.4644924661
0.6202845723
0.9636766926
1.256774148
1.332782617
1.14679969
0.8130706853
0.5514714119
0.4644627063
0.5035312659
0.6305508506
0.7743941775
0.831518638
0.7576546261
0.5976769016
0.4379330727
0.3341203932
0.2692869066
0.2297338268
0.3090194244
3.026312546
1.52758595
0.6213241994
0.3578337599
0.2806750189
0.2569034849
0.2612637666
0.2884892147
0.3512669313
0.4492084665
0.5451947651
0.5851259057
0.5609059591
0.4935378435
0.4613728102
0.5822839902
0.8430056748
1.0630258
1.113004019
0.9496597837
0.6773193272
0.4712211279
0.4013731014
0.427943104
0.5353138702
0.6752837589
0.7448309312
0.7019500961
0.5825060589
0.4485026843
0.3466636516
0.2790243077
0.2369466768
0.313184377
2.990783128
1.804758568
0.7656085229
0.4213838747
0.3143548655
0.2786063127
0.272930216
0.2879307816
0.3396879142
0.436430545
0.5336488384
0.5754376749
0.5510692738
0.4770012952
0.4169844607
0.4643858662
0.6160373306
0.7483803168
0.759338697
0.6260611303
0.451312362
0.3386167354
0.300317341
0.3209092011
0.4079744032
0.5606348461
0.6861031679
0.7044817696
0.6226817953
0.4867240138
0.3635688824
0.286881602
0.2388716429
0.3062483966
2.499805585
1.507100464
0.7416460446
0.4426117339
0.3414965983
0.3038928537
0.2899197146
0.2949928167
0.3312505177
0.4084527747
0.4929622083
0.5327379373
0.5068214442
0.4305103222
0.3593685086
0.3451320875
0.3824812189
0.4374222616
0.4236331579
0.3539936518
0.2821330157
0.2383794214
0.2209320068
0.2312537295
0.321350558
0.5387073982
0.7377964958
0.7982334424
0.7188035769
0.5456730262
0.3802217613
0.2874783407
0.2335217463
0.2876243701
1.502863276
0.8208204303
0.5293765791
0.4194156309
0.3684276024
0.3351702143
0.311638864
0.3018771454
0.3144949108
0.361322619
0.4243554424
0.4577525603
0.4310570508
0.3639106967
0.3082975516
0.2795779148
0.2693038795
0.273169684
0.258485208
0.2317192003
0.2046451535
0.1819751417
0.1645436045
0.1784200547
0.3213693368
0.6012536836
0.8286187182
0.8922414871
0.79657553
0.5787880553
0.3756083955
0.2728124446
0.2186958331
0.2585991693
0.7058257569
0.5789088174
0.5074961951
0.4578443778
0.4167388717
0.3765102376
0.3398509523
0.3128891812
0.3014585967
0.3117449694
0.3392376867
0.3560417405
0.3342594884
0.2951235243
0.2668047953
0.2464211466
0.2302134882
0.2208288516
0.2054286129
0.1869619384
0.1667414038
0.1469332823
0.1308214086
0.1594519404
0.3187872664
0.6007505022
0.8174996809
0.8739810945
0.7617091439
0.5193805792
0.3197474041
0.2381990887
0.1944467632
0.2242441691
0.5961405177
0.5831551426
0.5536840418
0.5148600643
0.4731201231
0.4239435642
0.3734867249
0.3301330044
0.2997952964
0.2812940138
0.2718973102
0.2645110622
0.25512706
0.2492297645
0.2416840356
0.2302548158
0.2093359709
0.1943723357
0.1787298223
0.1594314032
0.1382420448
0.1243147842
0.1149459061
0.1407565704
0.2544964538
0.4684150473
0.6551197847
0.6947199368
0.5668688275
0.3491425979
0.2220396747
0.1897132386
0.1656616628
0.1952869258
0.6249202207
0.6244185206
0.6028770021
0.5705549533
0.5310259753
0.4749100321
0.4108021689
0.3516601023
0.3069823021
0.2716369624
0.2427663368
0.224669264
0.2241474626
0.2263824113
0.2205678926
0.2100960835
0.1876751292
0.1702808307
0.157508318
0.1379369319
0.1205398726
0.1189786063
0.1177780237
0.131787226
0.1812005783
0.2913585939
0.4014818045
0.4020674021
0.2884409856
0.1878425873
0.155331109
0.1505472388
0.1467364001
0.1865294956
0.6191113853
0.6585573824
0.6417813818
0.6185198324
0.5814614957
0.5190215474
0.4427493983
0.3692273124
0.3123399844
0.2663623688
0.2264404099
0.2082374169
0.2102270666
0.2032816346
0.1871297113
0.1735665757
0.1696333563
0.1607036572
0.1548633896
0.1368720927
0.1256252984
0.1281244506
0.1313819554
0.1401504546
0.1587375431
0.1854172426
0.2110363845
0.195452003
0.151482946
0.1333762502
0.1357703034
0.1427830785
0.1476560829
0.2060408752
0.5959260162
0.6730128542
0.6695665038
0.6521792696
0.6120342352
0.5398302053
0.4509042426
0.3655144653
0.3021232924
0.2522556166
0.2084631049
0.1976078965
0.1957889065
0.1749226752
0.155814368
0.1650775447
0.212900492
0.2192623703
0.2007332414
0.1748829862
0.1626822042
0.1494505223
0.1513825481
0.158222433
0.1713130269
0.1775511555
0.1686621262
0.147156104
0.1314931315
0.1287774432
0.13743277
0.1506726726
0.1667973711
0.262946891
0.5586739409
0.6776527758
0.6855129543
0.6649766445
0.6109130705
0.522288549
0.4185122317
0.322959884
0.2598943719
0.2105409631
0.1767650551
0.1843146083
0.1681336885
0.1412123046
0.1461740595
0.225461207
0.4101158497
0.4663628802
0.3867842866
0.2772383769
0.2312476839
0.1887841006
0.1809525962
0.1901346096
0.2126371358
0.225598525
0.2058113124
0.1756777065
0.1547839037
0.1491601457
0.1570622809
0.1760261483
0.2069059492
0.3598070005
0.4595927629
0.6128945109
0.6460303979
0.6244858802
0.5542390024
0.4541200987
0.3522261733
0.2674303323
0.2057729371
0.163349206
0.142012974
0.146107013
0.1333413528
0.1195113047
0.175444543
0.4043775982
0.8458112208
0.9516717221
0.8150684852
0.5372438303
0.3349135273
0.2521923833
0.229584765
0.2533464158
0.3110896312
0.3463305406
0.3115835151
0.2596493037
0.2194244227
0.2031101525
0.204599544
0.2246538793
0.266372106
0.4781633944
0.3919356328
0.4497804289
0.4766942109
0.4507798644
0.4005972517
0.3434757704
0.2825006095
0.2194784947
0.1634412045
0.1263898155
0.1115768571
0.1154761818
0.1057357907
0.1136340761
0.2152708411
0.6960173978
1.29744783
1.524369917
1.435213348
0.9867607231
0.5019517011
0.3606050808
0.3165394471
0.3834650876
0.5291594701
0.603040233
0.5515316318
0.4352384756
0.3401585426
0.3021343775
0.2877141102
0.2974163643
0.3394279687
0.5960420751
0.387317591
0.3952843424
0.3835039183
0.357882535
0.3223577599
0.2833953342
0.2424113597
0.1999738647
0.1619807612
0.1290032106
0.1050930566
0.09540012734
0.08778650763
0.1139672716
0.2221524236
0.8154530812
1.546511468
1.944421745
1.993002466
1.477159969
0.6807025274
0.5156050101
0.4700232497
0.632814834
0.9371967578
1.071583008
1.00376964
0.7927661666
0.539911198
0.4375086212
0.3992982557
0.3867824023
0.4178018944
0.7080668083
0.402909928
0.4059178644
0.3840562122
0.3503480578
0.3178406862
0.2910589839
0.2632939526
0.2297394722
0.1899971725
0.1510989445
0.1220802695
0.1001117355
0.08391965004
0.1019377304
0.1866235255
0.5953944656
1.432138062
1.985712491
2.106029692
1.5758199
0.7560211823
0.6592222602
0.7254509249
1.076302653
1.533607188
1.670451762
1.568200614
1.274659014
0.8467271719
0.6048492008
0.5234956728
0.4819772604
0.4973744423
0.8175222775
0.461894297
0.446343791
0.4354417398
0.4148125392
0.3680555955
0.3347262169
0.3057574023
0.2805319777
0.2529112726
0.217710189
0.1791920056
0.1500009287
0.1220107059
0.0950783247
0.08811429394
0.1388729026
0.3245996403
0.9280146633
1.555579897
1.675156767
1.113698276
0.7761030595
0.9412538222
1.322467202
1.847756667
2.240315263
2.172209935
1.983868603
1.618178629
1.114318764
0.8846972581
0.690489118
0.5832807787
0.5800288827
0.9279159842
0.5581194043
0.467649507
0.4448716253
0.4078296972
0.3744915701
0.3456424919
0.3172780057
0.2898481995
0.2651110993
0.2305271774
0.1971291173
0.1623787395
0.1306529846
0.1062820595
0.09633958081
0.1105531458
0.1886315606
0.4686654806
0.7536830754
0.8131210369
0.6283365831
0.9042215463
1.679840593
2.360941308
2.631511795
2.520550338
2.348447046
2.073236925
1.641878007
1.306558226
1.833367235
1.301422695
0.7764650208
0.6818004181
1.043077083
0.4809084634
0.4340702431
0.4201373692
0.4094863383
0.3875980156
0.3571146484
0.3241817019
0.2941373676
0.2657809229
0.2357815164
0.2039408144
0.1721437167
0.142917915
0.1192920029
0.1119507506
0.1312380286
0.1736845556
0.2297476978
0.3314442538
0.4358392977
0.5955937649
1.429001926
2.74100449
3.258240996
3.274913694
2.793654012
2.287994744
1.874572875
1.557999163
2.180139029
5.852111895
4.914301705
1.71479524
0.9079258518
1.173906973
0.4576421207
0.4516144716
0.4352934123
0.429501382
0.4098882436
0.3725803846
0.3324336522
0.2961973773
0.2627915709
0.231817018
0.2030257728
0.1758558558
0.150373871
0.1290626556
0.1249131199
0.1475378332
0.2210981437
0.2544985697
0.2456902391
0.336342292
0.6101745747
2.012801722
2.725946422
3.193945849
3.264008263
2.838754406
2.207808376
1.743359761
1.892592646
5.571295645
17.59661896
12.89127309
7.009511621
1.801749415
1.399152445
0.476961253
0.4632786002
0.4534932724
0.4301069405
0.3861359969
0.3401855251
0.2971917668
0.259691022
0.228606319
0.2022085397
0.1780221217
0.1560636121
0.1378678567
0.1320864219
0.1663403943
0.2925622697
0.3749424129
0.285192239
0.2983681441
0.4596518527
0.933794347
1.936704607
2.600101096
2.620385902
2.245463378
1.859677562
1.581902289
1.39996234
1.663571721
3.718927244
4.008300865
1.353699836
0.9956907084
1.268117184
0.4933258768
0.4907479627
0.4759862444
0.4448045239
0.3940639193
0.3440741798
0.2986128372
0.2609205418
0.2313436155
0.2069590051
0.1839105034
0.1639930872
1.727890811
1.643195183
1.482508314
1.337812717
1.190504942
1.083192162
1.192869755
1.062093051
0.8839932265
0.9441129129
1.321509817
0.47316997
0.4338307628
0.3836902974
0.3392178032
0.3000202518
0.2672745401
0.3909237226
0.4345673964
0.4608755835
0.4710674806
0.4567345492
0.4301552118
0.3970874031
0.3710611059
0.3450391086
0.3107048518
0.2769024286
0.2614363772
0.2583285851
0.260510057
0.2635986439
0.2648646655
0.2618205321
0.2544430593
0.2428608811
0.2273302042
0.2083470711
0.1862340785
0.1620981774
0.1380987034
0.11689438
0.101553356
0.0944006953
0.09515693112
0.09938462949
0.1004891344
0.09383686476
0.08016746429
0.06117638624
0.04361520915
0.2649652065
0.2850598557
0.2976259842
0.3016814551
0.2940806993
0.2817202315
0.2677630813
0.2713094118
0.2737012191
0.2457853124
0.2151690941
0.2075996406
0.2104068581
0.2146245705
0.2169709719
0.2160200786
0.2112471411
0.2032559225
0.1926407696
0.1800182236
0.1665929181
0.1527981928
0.1389739773
0.1252947932
0.1120254894
0.1011146349
0.09475280069
0.09317553678
0.09337394501
0.09105862843
0.08284485512
0.06942454814
0.05354091822
0.04572636797
0.2315428453
0.2450030195
0.2545629355
0.2581449922
0.2548839974
0.2521091252
0.2635195612
0.3377606446
0.3984626506
0.33221049
0.2461758085
0.2230660934
0.2261907353
0.2327101724
0.2368300742
0.2369153962
0.2336451066
0.2277338674
0.2173631957
0.2036763032
0.1910744486
0.1813328034
0.1736155641
0.1650900106
0.1533289875
0.1397765979
0.1272650653
0.1175826095
0.1096283707
0.1007136872
0.08824045347
0.07313466417
0.06038331555
0.06351121577
0.2038578169
0.2092595324
0.2165467125
0.2203644068
0.2224868145
0.2369965624
0.318300933
0.5910832622
0.7624470305
0.6129836226
0.3542239881
0.2570230097
0.2401093256
0.2417484394
0.2455287379
0.2493287636
0.2559000904
0.2629192935
0.2565051514
0.2386627553
0.223846839
0.2188640076
0.2207626063
0.2217762029
0.2159141057
0.2017879789
0.180408119
0.155954096
0.1328151477
0.1127990777
0.09614528846
0.08447313476
0.07967869123
0.1056886499
0.2095615686
0.1903765655
0.191730325
0.1950277924
0.2037957229
0.2513393034
0.4899991211
1.111404184
1.375986226
1.168868106
0.6116770051
0.3421844176
0.2689864014
0.2534912144
0.2531926873
0.2662331291
0.2997282261
0.3376349065
0.3385157991
0.304530272
0.2731240396
0.2650975568
0.2760475614
0.2923898691
0.3039043744
0.3006481787
0.2733097609
0.2259988967
0.1768603385
0.1386804957
0.1143128402
0.1044822869
0.1048277975
0.1552390725
0.3166571269
0.2044143125
0.1838340473
0.1836006132
0.1993839032
0.2966045477
0.7734536158
1.663126664
1.933438239
1.747614641
0.9720030625
0.4814424512
0.3208305057
0.2763748468
0.2702642875
0.3054064055
0.3955853191
0.4863209242
0.497278923
0.4278863225
0.3523866149
0.3211026915
0.3331991663
0.3696871862
0.4145882956
0.4424474231
0.4226194944
0.3473729008
0.2541313589
0.1839553265
0.1451310661
0.1312089409
0.132706503
0.2063373812
0.6841363752
0.2950180436
0.2002399158
0.1862206376
0.2043151105
0.3412692918
0.9863005803
1.885143569
2.098692511
1.957227195
1.176365895
0.6018690371
0.3834699745
0.3124152544
0.3048589902
0.3836595794
0.5617731999
0.7129814843
0.7365391392
0.6209642589
0.4732830457
0.3906574058
0.3886047448
0.4444188107
0.5308316466
0.6015310818
0.6056765274
0.5129175104
0.36594274
0.2472115267
0.1850045403
0.1618441559
0.1607853407
0.2547654759
1.427508777
0.5497880216
0.2584854233
0.2038935883
0.2106218154
0.3315359747
0.8978696394
1.671390505
1.869624517
1.697950871
1.061515542
0.6180875405
0.4312948825
0.3559076536
0.3570162621
0.4983643666
0.7669814362
0.9565929636
0.9913468084
0.8428706419