/*--------------------------------*- C++ -*----------------------------------*\
  =========                 |
  \\      /  F ield         | OpenFOAM: The Open Source CFD Toolbox
   \\    /   O peration     | Website:  https://openfoam.org
    \\  /    A nd           | Version:  8
     \\/     M anipulation  |
\*---------------------------------------------------------------------------*/
FoamFile
{
    version     2.0;
    format      ascii;
    class       volScalarField;
    location    "1.7";
    object      k;
}
// * * * * * * * * * * * * * * * * * * * * * * * * * * * * * * * * * * * * * //

dimensions      [0 2 -2 0 0 0 0];

internalField   nonuniform List<scalar> 
67193
(
0.01895350378
0.01973488787
0.02018457507
0.02030148837
0.01979056124
0.01900109004
0.01825930432
0.01735408557
0.01902803937
0.01690236636
0.01523635679
0.01440292251
0.01424112948
0.01437409515
0.01458006814
0.01472649315
0.01464676917
0.01449889915
0.01409127241
0.01355882328
0.01297431182
0.01236406414
0.01177939655
0.01122105195
0.01053693259
0.009712472816
0.008919005586
0.008370424254
0.008100237703
0.007912494289
0.007579901696
0.007040688909
0.00620748333
0.005330284253
0.02153895604
0.02277397631
0.02359712175
0.02397415087
0.02341145397
0.02238178962
0.0213887754
0.02103754606
0.0311534302
0.02403311136
0.01908570067
0.01752482076
0.01788766284
0.01860336534
0.01912890668
0.01934126673
0.0190649164
0.01905984436
0.01825832408
0.01716272169
0.01615483637
0.01541649236
0.01512711587
0.01519930195
0.01507279751
0.01462924464
0.01382665186
0.01270715804
0.01153788782
0.0104832728
0.009462923346
0.008399183443
0.007198545051
0.005587421339
0.02191484072
0.02327430658
0.02428087919
0.02482087267
0.02445003872
0.02359652598
0.02348400519
0.0266946343
0.05324614638
0.03880960514
0.02635419453
0.0212459496
0.02115174219
0.02219911814
0.02293660473
0.02318277198
0.02287127024
0.02453416401
0.02357556057
0.02150184072
0.01978031257
0.01902235612
0.01941290562
0.02043979
0.02110485317
0.02152893298
0.02119346934
0.01951654206
0.01682127627
0.01393872497
0.0115527591
0.009938056608
0.008902184478
0.008220643339
0.02129984292
0.02251530535
0.02362518516
0.02434486516
0.02433120172
0.02443470087
0.02839405577
0.04054698673
0.08131431608
0.06252752261
0.04105505903
0.02802004798
0.02460132788
0.02511725587
0.02583832773
0.02616702984
0.0264301632
0.03295279524
0.03221819218
0.02810046951
0.02448978503
0.02309852805
0.02400503506
0.02584046013
0.02732099427
0.02911431879
0.0299093267
0.02842468292
0.024774414
0.01992074934
0.01535359378
0.01251930478
0.01151530467
0.01158657848
0.02199266672
0.02181838738
0.02273439618
0.02367129769
0.02426013109
0.02714800317
0.03996629486
0.06510002208
0.1106714415
0.09033072526
0.06201593189
0.03963451597
0.0295144055
0.02782544911
0.02801889639
0.02868580344
0.03102269749
0.0459109504
0.04574509834
0.03871655827
0.03150736593
0.02788659121
0.02846857847
0.03081413088
0.03334375335
0.03702281686
0.0390819053
0.0379695952
0.03403553082
0.02810823062
0.02153387469
0.0166101704
0.01457428435
0.01448173556
0.02958607063
0.02325359249
0.02232517087
0.0232893336
0.02477522697
0.03199439028
0.05424473044
0.08994822296
0.1360937464
0.1161187422
0.08153668612
0.05258609021
0.03593741901
0.03082549759
0.0297943103
0.031591216
0.03875787591
0.06282062461
0.06305133799
0.05339859554
0.04176903831
0.03395096402
0.03266222231
0.03512225695
0.03939568953
0.04570250174
0.04874296957
0.04736445594
0.04286157185
0.03635093912
0.0286696426
0.02176683562
0.01786918227
0.01685079756
0.05132168339
0.03164189171
0.02379647244
0.02333723954
0.02515626815
0.03370872911
0.05853749211
0.09806558443
0.1438386185
0.1258544567
0.08861117508
0.05832300305
0.04092271327
0.03407202145
0.03165395332
0.03642661506
0.05172237139
0.08144054213
0.0814628277
0.07019594968
0.05477673865
0.04178987657
0.03676200046
0.03864243133
0.04568535525
0.05509845463
0.05879721662
0.05645537396
0.05042879108
0.04299860686
0.03470135449
0.02665312685
0.02105390967
0.01876088551
0.08604629836
0.05086153796
0.03009506353
0.02442619812
0.02492611592
0.02828221489
0.04228802369
0.0761686693
0.1263624699
0.1061188129
0.07139745656
0.05161805321
0.04286156998
0.03735570649
0.03406727189
0.04483131033
0.06740072134
0.09844673881
0.09824808972
0.08614407386
0.06839518381
0.05088771342
0.04097225167
0.04118978782
0.05114301837
0.06348722131
0.06738603514
0.06376233231
0.0559117229
0.04714014019
0.03839081454
0.03001593609
0.02356077603
0.0201955916
0.121969937
0.07547778593
0.04201631447
0.02768405885
0.02581035798
0.02660733825
0.0274510642
0.03639149734
0.06707881767
0.046129191
0.04370754344
0.04850698189
0.04740800937
0.04152807062
0.03731027921
0.05339202208
0.07992599589
0.109023021
0.1094986432
0.09769297765
0.07910960509
0.05913155348
0.0448752694
0.04248041964
0.0541164528
0.06810368725
0.07154591956
0.06661999698
0.05754410008
0.04807731418
0.03937405253
0.03142238275
0.02503832261
0.02110957304
0.1461809046
0.09522672918
0.05465966269
0.03272865963
0.02745004934
0.02757710535
0.02736551683
0.02715381527
0.03191280602
0.03566769274
0.04735831732
0.05468927166
0.0533410852
0.04649894581
0.03989528765
0.05567873999
0.08261473522
0.1092484689
0.1111228489
0.1004920275
0.08263089986
0.06276347933
0.04662713449
0.04196528236
0.05247700315
0.06633449825
0.06893790174
0.06354385841
0.05502270917
0.0463813244
0.0385850564
0.03156549175
0.02571573522
0.02155474499
0.1610452232
0.1094443547
0.06515979752
0.03834299643
0.0297734617
0.0288590713
0.0285773734
0.02771524701
0.02809883483
0.03771586028
0.05289401656
0.05869480485
0.05693499144
0.05019038771
0.04146641793
0.04606231937
0.07106615553
0.0966678017
0.1009414608
0.09106345845
0.07382763883
0.05570155857
0.04199741342
0.03800046235
0.04447988919
0.05689235665
0.05978361817
0.05790208017
0.05267139286
0.04576938689
0.03872691801
0.03208158495
0.02626182786
0.02169094417
0.1651055905
0.1133945971
0.06798408116
0.04161434141
0.03231241207
0.03044754251
0.03001235487
0.02905680903
0.02921450669
0.03799243674
0.05258588938
0.05852924744
0.05710231713
0.0507181819
0.04219401581
0.03663050308
0.0448827036
0.06714484587
0.0695375575
0.05692933147
0.04125254074
0.03187077906
0.02879864012
0.02967504873
0.03332487955
0.04228913524
0.05289594007
0.05990605811
0.05732526762
0.05028060967
0.04199199217
0.03406931794
0.02709188085
0.02161130732
0.1357270113
0.08308771697
0.05008469842
0.03800366751
0.03423694703
0.03253039246
0.03149112544
0.03046390872
0.02975253917
0.03500435714
0.04730465749
0.05416865008
0.05326567399
0.04642803583
0.03720334746
0.03091347775
0.03022534711
0.04016636321
0.03885317939
0.03222556001
0.02697920744
0.0237384964
0.02222653468
0.02278552421
0.03058631692
0.04427930987
0.06341056252
0.07095091731
0.06685342623
0.05746318737
0.04681842011
0.03670096862
0.0278731815
0.0211919162
0.06582352535
0.04606330583
0.0407574423
0.04010820972
0.03824495262
0.03558372449
0.03325878125
0.03149324871
0.02987427697
0.0306260744
0.03743295963
0.04423459045
0.04326805622
0.0353713425
0.02880453671
0.02603705141
0.02607909217
0.02743002086
0.02693739201
0.02496835202
0.02247082423
0.01990880277
0.01786197511
0.02025797326
0.03477211831
0.05209110961
0.07288048921
0.07891957
0.07341268586
0.06185197981
0.04951753682
0.0379571001
0.02771806324
0.02014105794
0.04223845872
0.04169663665
0.04510123949
0.04568459638
0.0434825896
0.03981828708
0.0359491649
0.0326887023
0.03007661488
0.02836930534
0.02839409582
0.03005797156
0.02888057228
0.02601303878
0.02584275168
0.0255998023
0.02447905025
0.02372372037
0.02333620232
0.02182334986
0.01960802807
0.01713094744
0.01522237834
0.01965721132
0.03442312849
0.05208035044
0.07372736285
0.07934578756
0.07309243613
0.05972293548
0.04673675363
0.03533535145
0.0253521053
0.01814954846
0.0406440467
0.04708636263
0.05176091751
0.0516130573
0.04901253082
0.0447975268
0.03978630901
0.0348543078
0.03088093479
0.02777348699
0.02524021388
0.02359434724
0.02267937645
0.02331199542
0.02692455624
0.02703468582
0.02385287451
0.02173504922
0.02085701458
0.01899792276
0.01677205651
0.01487388248
0.01373704726
0.01641516823
0.02548683287
0.03861203509
0.062615916
0.06941381621
0.06264516055
0.04662151373
0.03453249818
0.02628260314
0.01996581972
0.01553133945
0.04385190412
0.05273200349
0.05682260882
0.05634383807
0.05365624923
0.04928498054
0.04384617885
0.03793527286
0.03261076255
0.02810147085
0.02431481518
0.02158606517
0.02118538144
0.02260143708
0.02578784856
0.02507137987
0.02175700365
0.01991320009
0.02007352162
0.01785678874
0.01533577264
0.01441306878
0.01429598263
0.01539969399
0.01846547738
0.02351197165
0.03825045178
0.0432833727
0.03260294916
0.02160671984
0.01800070355
0.01736085513
0.01621695806
0.01489928268
0.04650548069
0.0573166705
0.06036982944
0.0597163904
0.05692327803
0.05238788082
0.04679571262
0.04066499996
0.03458493576
0.02877245646
0.02355710561
0.02045630961
0.02045852402
0.02068269943
0.02025879526
0.01967896403
0.0205307385
0.02205807488
0.02528034258
0.02201480049
0.01751870848
0.01618096643
0.01637933349
0.01735959618
0.01938272479
0.01995137374
0.02042055898
0.02069629913
0.01678854322
0.0156129941
0.016261047
0.01701828021
0.01679218675
0.01757892787
0.04593781738
0.05815101096
0.06190472842
0.06144503263
0.05843949773
0.05352303643
0.04756191455
0.04135938436
0.03523686545
0.02896778187
0.02278904923
0.01968277287
0.01928806367
0.018320143
0.01809440229
0.02148281758
0.02849369799
0.03327176805
0.03799884237
0.03338710917
0.02537215023
0.02037280445
0.01915078663
0.0196580279
0.02199168627
0.02250868484
0.02123155704
0.01872177512
0.01679183858
0.01627195798
0.0171568078
0.01847995468
0.01931516898
0.02253769983
0.03715988315
0.05364989683
0.06061867174
0.06055572971
0.0569080101
0.05133800252
0.04478611188
0.03812878224
0.03169705647
0.02521231851
0.01953570129
0.01879182914
0.01708346416
0.0165675956
0.02145931879
0.03247587131
0.04606726048
0.05277588105
0.05484415884
0.04946287828
0.03851895155
0.02779616728
0.02290178125
0.02286826386
0.02534181718
0.02845134216
0.02926542139
0.02600306624
0.02231120558
0.02014768255
0.02020527481
0.02184920037
0.02366911827
0.02831252355
0.03006059786
0.03599653087
0.05041462133
0.05289952987
0.04960889556
0.04425534958
0.03820259752
0.03191772164
0.02547791145
0.01997352157
0.0162209467
0.0154363682
0.01467657479
0.018514763
0.03159530071
0.04975983258
0.07042384173
0.07964345391
0.07783651647
0.06881025076
0.0549804345
0.03866273952
0.02897598901
0.02936863714
0.03208745309
0.04053205973
0.04422505052
0.04037024849
0.03404220977
0.02872568355
0.02638550703
0.02707138501
0.02891813828
0.03341446604
0.03513090431
0.03500642139
0.03477670026
0.03495184567
0.03450469399
0.03265042362
0.02917716031
0.02431102638
0.01900125831
0.01500931902
0.01316100311
0.01309328209
0.01373699988
0.02320360534
0.04281311933
0.06657641622
0.09434475861
0.1078065277
0.1051792397
0.09071486335
0.07233946708
0.05148393594
0.03920057417
0.0435081688
0.04707597763
0.06114632599
0.06543644497
0.06034908383
0.05147430008
0.04226763808
0.03566978492
0.03346509346
0.03408941033
0.0374472747
0.04304744492
0.04288722126
0.03956207498
0.03641967817
0.03317802836
0.0298201551
0.02622676756
0.02221988576
0.01809266905
0.0146528416
0.01255203718
0.0116970034
0.01297928024
0.02541024371
0.04813779781
0.07562751273
0.1083178809
0.1278613671
0.1288313011
0.110169451
0.08673131473
0.06254508645
0.05612239148
0.06766205863
0.07087030629
0.08684856666
0.08942294353
0.08147184317
0.06995814779
0.05761940899
0.04653369333
0.04036088489
0.038890941
0.04061757085
0.04929945063
0.05175506208
0.04743141249
0.04324871822
0.03892560026
0.0347743634
0.030631495
0.02635510608
0.02180490741
0.01711691049
0.01387144478
0.0118487006
0.01102502991
0.02003090852
0.04104745923
0.07035873402
0.1063024197
0.1307197888
0.1357128794
0.1152878849
0.08789805187
0.06754824229
0.08315595456
0.09834827989
0.09962508274
0.1118462863
0.1125296869
0.1013183207
0.08531543684
0.07010093014
0.05596496435
0.04675156068
0.04329629396
0.04319464027
0.05255905049
0.05336352686
0.05758528091
0.0526147958
0.047622824
0.04319490985
0.03858297646
0.03404722452
0.02954282208
0.02489999393
0.02009187824
0.01654978826
0.01373851475
0.01162672391
0.01210015914
0.02567745151
0.05583987853
0.08997481522
0.1153520564
0.1190732505
0.09080914423
0.06781051017
0.08557623733
0.1180755572
0.1318283906
0.1295380674
0.1304783362
0.1271439444
0.1134249465
0.0938987522
0.07622233053
0.06107090908
0.05128911444
0.04715312245
0.04533700965
0.060232215
0.05461175743
0.05348524002
0.05132113911
0.0482243857
0.04447257464
0.04012504754
0.03557768106
0.03119148825
0.02688389354
0.0227138259
0.01880179658
0.01542537188
0.01289906027
0.0114319608
0.01397825259
0.02738060721
0.05434476265
0.07819881044
0.07649089563
0.05564606582
0.08302427757
0.1217888685
0.1542954557
0.164654018
0.1526689008
0.1398311638
0.1270898458
0.1096158945
0.08985137392
0.07908280477
0.0650193851
0.05439994793
0.05056527478
0.0471382855
0.05388928509
0.05390584076
0.05445889572
0.05301443924
0.04961382004
0.04513277894
0.04016578693
0.03545503198
0.03108435566
0.02698994152
0.02316402952
0.01963306861
0.01653159586
0.01400683153
0.01244672245
0.01398558007
0.0178978016
0.02561177258
0.03661146729
0.04805572461
0.07308421603
0.112635865
0.1555870256
0.1864027725
0.1898672418
0.17115464
0.1471493328
0.1211953118
0.09650515218
0.08063016714
0.1174502982
0.09931658036
0.06334829574
0.05474359339
0.04880422128
0.05214115603
0.05424436047
0.05847392544
0.05680925149
0.05199996375
0.04566389403
0.03940489891
0.03421653566
0.02982167639
0.02605817734
0.02274079655
0.01971700094
0.01699379277
0.01465293787
0.01338540017
0.01642906379
0.02176410893
0.02606625007
0.03046775581
0.04774313411
0.08288976999
0.1230583171
0.1642986098
0.1927767693
0.1945554017
0.1769045033
0.150191467
0.1217015907
0.09796872129
0.09990242665
0.3061403766
0.2731156097
0.1145656039
0.06445257847
0.05070806456
0.05092433607
0.06003315195
0.05896405297
0.05371509219
0.04601512703
0.03867825076
0.03293967708
0.02857554178
0.02521767362
0.02239444665
0.01979747345
0.01746326747
0.0153912946
0.014425158
0.01923491465
0.02921767211
0.03546863007
0.02700598563
0.03171773268
0.05520760582
0.09154101395
0.1312005275
0.1642143414
0.1625190495
0.1392936196
0.1176606246
0.1036513413
0.09314554233
0.08541737589
0.09242646995
0.08655087526
0.06595226877
0.06070239588
0.05050530489
0.04876284461
0.06389923373
0.06217818818
0.05575313071
0.04667803846
0.03853337433
0.03266897405
0.02860792188
0.02563095491
0.02302211237
0.02050487335
0.0182532672
0.1281115019
0.1115711436
0.1044510352
0.1000929988
0.09419980687
0.08677261979
0.07978645952
0.07332193121
0.06872595128
0.0645503276
0.05189299756
0.05947982826
0.05260142566
0.04459887825
0.03815542245
0.03364977736
0.03039850526
0.02483198795
0.02659546006
0.02760736141
0.02795802771
0.02709411327
0.02576427523
0.0241105792
0.02271378771
0.02173799116
0.02025215848
0.01866815429
0.0179820751
0.01791410356
0.01811769615
0.01836474444
0.0185250046
0.01843648561
0.01814389832
0.01763859351
0.01695301456
0.01610618369
0.01509439952
0.01395620621
0.0127570435
0.01154470977
0.01047138915
0.009774097148
0.00959434914
0.009746054401
0.00980714172
0.009425328049
0.00859247404
0.007305262583
0.00563252486
0.03731819839
0.04053586614
0.04253892103
0.04342381984
0.04216732567
0.04013777953
0.03681282459
0.03537771228
0.03509840198
0.03199128945
0.02840254802
0.02825326426
0.02946264481
0.03059753088
0.0311897656
0.03112271526
0.03033347628
0.02908291969
0.02761124853
0.02597228995
0.02425767736
0.02252319833
0.02087885447
0.01932591305
0.01774687062
0.01635527088
0.01546880219
0.01519308494
0.01520741537
0.01491101046
0.01375211223
0.01180146183
0.009274981496
0.00590723931
0.03808555953
0.04132782734
0.04360262394
0.04469302902
0.04380484972
0.04234093807
0.03952576788
0.04108403437
0.04687374265
0.04036014468
0.03278776436
0.03278712416
0.03532453404
0.0375467218
0.03870883134
0.03852938991
0.03729229227
0.0356406361
0.03366302854
0.03143154381
0.02939037422
0.02778432077
0.02670048729
0.02570810533
0.02421255069
0.02241441845
0.02072656755
0.01934502948
0.01813471544
0.01677894353
0.01493801586
0.01275019884
0.01029909115
0.008062290153
0.03575482396
0.03851455567
0.04098825978
0.04224775457
0.04197591979
0.04171914174
0.04186641774
0.05187341667
0.06967126436
0.0572041397
0.03926387091
0.03635301492
0.0388212965
0.04175634801
0.04354578467
0.04357421471
0.04278675288
0.04229848718
0.04042995884
0.03737344204
0.0348204579
0.03359477721
0.03362553518
0.03376386572
0.03285598685
0.03094426027
0.02828564869
0.02516510598
0.02192304075
0.01885399544
0.01620020129
0.01435009523
0.01292188415
0.01143929671
0.03450580752
0.03580859404
0.03829272437
0.03968210559
0.04018132477
0.04183971922
0.04865318061
0.07735908725
0.1109829874
0.09354389298
0.05413356723
0.04216483517
0.04217196213
0.04478615793
0.04681995208
0.04757029195
0.04887167495
0.0518067406
0.0508415174
0.04600934518
0.04177853886
0.04035706134
0.04148829504
0.0431649415
0.04377244382
0.04290545488
0.03998644286
0.03483063991
0.02856255342
0.02299698497
0.01905370444
0.01710971638
0.01616105349
0.01461717314
0.0383618953
0.0350217464
0.03664431397
0.03795876579
0.0392796006
0.04335177506
0.05996517725
0.1125050928
0.1503503794
0.1367746881
0.07853348603
0.05168007964
0.04691750989
0.04786550767
0.04954142296
0.0518380812
0.05755094155
0.06591749579
0.0667595341
0.05894728961
0.05095126098
0.04779199352
0.04929125971
0.05266063765
0.05578798015
0.05739939831
0.05578312815
0.04947952103
0.03942144171
0.02981567183
0.02374462062
0.02093282201
0.0195278873
0.01733438788
0.05614200433
0.03847135442
0.03683194594
0.03747856936
0.03934023314
0.04493810843
0.06885293685
0.1282824625
0.1608338384
0.1515122713
0.09592140436
0.06240002233
0.05365193688
0.0521198498
0.05295300712
0.05793956802
0.070507711
0.08585944731
0.08880050696
0.07710227496
0.06290467565
0.05573867946
0.05628861496
0.06124695925
0.06746233668
0.07259938925
0.07290713017
0.06600635597
0.05307698298
0.03887669898
0.02965649671
0.02539035746
0.02289119972
0.01955571494
0.1004294365
0.0491937697
0.03952232878
0.0384197455
0.04019887383
0.0449765844
0.06615287402
0.1150881532
0.1401932151
0.1311015625
0.09171354487
0.06924209476
0.06163562496
0.05808660824
0.0577778794
0.06665720396
0.08666153614
0.1070040406
0.1117189814
0.09793756648
0.07699022927
0.06373308554
0.06178645279
0.06788908939
0.07701662306
0.08529000644
0.08727780857
0.07962331234
0.06434210932
0.04748614388
0.03563505601
0.02981153622
0.02603407103
0.02127080426
0.1571563524
0.06851834917
0.04500538194
0.0407478952
0.04176390234
0.04437799512
0.05410179676
0.08328525741
0.09896617904
0.09228812253
0.07816463605
0.07302023184
0.06948882221
0.06523363484
0.06373541223
0.07617629718
0.1002112632
0.1209019489
0.1263454107
0.1130875406
0.08881899005
0.07010043033
0.0646572534
0.07048067234
0.08122523706
0.09133010963
0.09437218497
0.08655396954
0.07023742305
0.05296361109
0.04046736695
0.03366155238
0.02876984542
0.02248193009
0.1913338214
0.09414608682
0.05311365466
0.04418389019
0.04375855661
0.04477471098
0.04739368727
0.05466099371
0.05959254534
0.06537583411
0.07350217413
0.07691839182
0.07535629194
0.07078549973
0.06881305493
0.08133648311
0.1038405758
0.1215445643
0.1263600882
0.1145088446
0.09110258035
0.07084499798
0.06300315735
0.06710606864
0.07787620293
0.08883508773
0.09291759877
0.08621135925
0.07148857841
0.05586356769
0.04403755939
0.03677807595
0.03097714098
0.02319730937
0.2025093882
0.1205519826
0.06343318385
0.0490630812
0.04662836773
0.04658803805
0.04765319428
0.04977798638
0.05350540953
0.06474286615
0.07519194264
0.07963292115
0.07818944539
0.07299316089
0.07032098137
0.07929337502
0.0960053512
0.1091187611
0.1119615824
0.1008275399
0.08049412378
0.06311820189
0.05554424787
0.05738386218
0.0668782921
0.07901048754
0.0860370301
0.0829451322
0.07211176857
0.05875768481
0.04727300003
0.03928475078
0.03251753384
0.0234047603
0.1982278352
0.1359796787
0.07430988501
0.05494295793
0.05026027915
0.04897082338
0.0491793568
0.05096565355
0.05477694479
0.06543054996
0.07477718161
0.07884162903
0.07709209823
0.07116953178
0.06644520968
0.06976881474
0.08029431455
0.08827533273
0.08839008337
0.07783987948
0.06211324896
0.04947954315
0.04393342425
0.04401314404
0.0509176499
0.0664754271
0.08096276255
0.08366626758
0.07647097963
0.0635132542
0.05065263127
0.04108088541
0.03316251692
0.02305749422
0.1730871141
0.1203743649
0.07527878641
0.05883321379
0.05356258629
0.05149009659
0.0509403649
0.05205995104
0.05558897661
0.06340436769
0.07102629793
0.07447203193
0.07237106148
0.06619002138
0.06029838374
0.05829108936
0.06197049751
0.0657359314
0.06372153521
0.05487827172
0.04484748566
0.03735217926
0.03311256279
0.03189729613
0.03943750313
0.06251759532
0.08425770604
0.09078643996
0.08433969018
0.0689336068
0.05292816264
0.0415471425
0.03268964638
0.02211260529
0.1252062816
0.08433001727
0.0662240017
0.0594752967
0.05631239219
0.05425906538
0.0528277881
0.05252517884
0.05411977543
0.05833402768
0.06375370424
0.06628714111
0.06400961747
0.05887186594
0.0542022256
0.0515007653
0.05086790322
0.05061406992
0.04832991318
0.04310223454
0.03623645815
0.029988166
0.02564040267
0.02532694434
0.03898248098
0.06946273185
0.09106235172
0.09730082404
0.08960744698
0.07094133536
0.05214663388
0.04005121324
0.03108007361
0.02059846587
0.08022373661
0.07199210451
0.06665363997
0.0628392394
0.06008272729
0.05743627279
0.05486950645
0.05284407967
0.05169263835
0.05165576753
0.05290770655
0.05361051222
0.05178295553
0.04986124511
0.04937301871
0.047756337
0.04510139917
0.04260011793
0.04024922058
0.03579269448
0.02976836339
0.02448216656
0.02103721342
0.02332726085
0.04001907295
0.06945914609
0.08909892629
0.09418234981
0.08490100584
0.06431116564
0.046288523
0.03634857248
0.02858965117
0.0187309899
0.07183325929
0.07299748791
0.07045725037
0.06733165403
0.06438405115
0.06083077357
0.05692393887
0.05320578851
0.04957540997
0.04644468554
0.04396720769
0.04253495758
0.04278655808
0.04492066821
0.04628132622
0.04472915331
0.0406675248
0.03650998291
0.03384905671
0.02930588762
0.02426883665
0.02125361478
0.0194511682
0.02279014933
0.03609865795
0.05854606067
0.07484142534
0.07791626087
0.06691508487
0.04789110143
0.03639051407
0.03125902759
0.02577831637
0.01708226455
0.07455774449
0.0762876395
0.07441665395
0.07182984966
0.06885327263
0.06432138891
0.0588206128
0.05333865359
0.04781933054
0.04280806844
0.03878102694
0.03718422266
0.03893506816
0.0414624445
0.04184478692
0.03947985201
0.03427225424
0.02984537602
0.02739797201
0.02353152497
0.02091142093
0.02129309642
0.0211723577
0.02397778424
0.03147226679
0.04330287802
0.05269114546
0.05188809176
0.04126993103
0.03124740234
0.02824321341
0.02712629656
0.02361678533
0.01656976887
0.07606550818
0.07926274674
0.07785558382
0.07597891199
0.07282398594
0.06711329268
0.0598426778
0.05251862025
0.04550316098
0.03921478169
0.03480587916
0.03449546346
0.0366478876
0.03648351561
0.03380126314
0.0301882677
0.02749457192
0.02537028438
0.02363247615
0.02126079973
0.02109791196
0.02346404575
0.02460703239
0.0270699035
0.03179767521
0.0348412049
0.03496030547
0.03142889458
0.02639469682
0.02464046934
0.02525069224
0.02528850715
0.02248501649
0.01770951124
0.0743494823
0.08078001968
0.0806893486
0.07919756711
0.07526500015
0.06793347662
0.05861262008
0.0494308925
0.04129183149
0.03451955437
0.03072529548
0.03256537345
0.03342351812
0.03006171462
0.02617574815
0.02525405546
0.02939301547
0.03025988445
0.02767628423
0.0252697073
0.02525249683
0.02682827857
0.02883637934
0.0312168112
0.03555354852
0.03590232837
0.0318688448
0.02693311848
0.02410604506
0.02335105261
0.02417363198
0.02446941277
0.02254733903
0.02083930271
0.07094934483
0.08166262172
0.08268749528
0.0806370916
0.07483227611
0.06524856486
0.05372017971
0.04264719672
0.03354021355
0.02757464923
0.02598685869
0.03030662457
0.02813567896
0.02339432161
0.02232299935
0.0296963371
0.04882962282
0.05421761082
0.04589091808
0.03631471267
0.03354333573
0.03276753858
0.03372845392
0.03567965372
0.04008642647
0.04052843615
0.03521228325
0.0288283117
0.02492285749
0.02351906906
0.02399881464
0.02481280112
0.02435477179
0.02568506367
0.06239930672
0.07719741694
0.08012315276
0.07706980506
0.0687271057
0.05708212689
0.04515307871
0.0343491818
0.0263169054
0.02176034981
0.02075213168
0.02300660395
0.02149946022
0.01872210167
0.02337278905
0.04743361934
0.08744440478
0.09518545081
0.08073199841
0.05740480098
0.04582983338
0.04048251564
0.03846487733
0.04069637865
0.04672062872
0.04922057432
0.04336941775
0.03478655281
0.02870338463
0.02621227066
0.02619888994
0.02748342093
0.02837502045
0.03104361359
0.06297233358
0.06666142878
0.06687909054
0.0609454357
0.05232162704
0.0434166957
0.03523243214
0.02793764536
0.02250318088
0.01881965092
0.0171702685
0.01782232988
0.01667415108
0.01646859212
0.02647353198
0.07287256551
0.1210972043
0.1358225441
0.1230286252
0.08800946539
0.05864996647
0.0466478552
0.04273055656
0.04862964136
0.06065097773
0.06787232103
0.06166013795
0.04839376282
0.03734231259
0.03288294325
0.0319914343
0.03316462641
0.03441801314
0.0359525172
0.06962133567
0.06911202848
0.06546148233
0.05840347255
0.05051921108
0.04279018371
0.03548385008
0.02894819283
0.02466689831
0.02112544344
0.01759300585
0.0154223023
0.01399276709
0.01574366105
0.02657334627
0.07915799824
0.1336079002
0.1599597628
0.1568848354
0.118371416
0.06645057913
0.05059255065
0.05010598427
0.0656111124
0.08983739966
0.1022161796
0.09568441494
0.07589998796
0.05395980125
0.04437506391
0.04162911087
0.0417486409
0.04200838892
0.0403242199
0.07536992887
0.07564788238
0.07119822596
0.06501218203
0.05876847185
0.05193923098
0.04453354855
0.03681542255
0.02958852561
0.02447827694
0.0213218463
0.01757570768
0.01423812711
0.01507328701
0.0222002574
0.05687624597
0.1169549246
0.1552158922
0.1591825662
0.12190151
0.06730227002
0.05710782387
0.0680651043
0.09928967208
0.1331974848
0.1442650823
0.1359529201
0.1118110539
0.07864655007
0.06077645317
0.05440449694
0.05244538265
0.0507192477
0.04437768022
0.08610774053
0.08365321489
0.08275592905
0.07854986332
0.07065770757
0.06436375034
0.0583963573
0.05151271823
0.04371484649
0.0356713782
0.02930407448
0.02575100267
0.02140678273
0.01640710922
0.01478741562
0.01875405505
0.0321310624
0.07589771235
0.1205147659
0.1268316847
0.09005223919
0.06201001529
0.07532925352
0.1082871934
0.1489155716
0.1790309279
0.1773288801
0.1641014312
0.136621092
0.1003115222
0.08227714931
0.07058126489
0.06460179221
0.06030561521
0.04828657574
0.1003693477
0.08811036814
0.08426336699
0.07859344413
0.07297152513
0.06757800572
0.06176161108
0.05525845065
0.04807646596
0.04007667054
0.03285440058
0.02670047716
0.02154149696
0.0176450742
0.01651203787
0.01890210134
0.02345647574
0.04114995365
0.06597718247
0.06877389753
0.05407291585
0.07025463649
0.1244242869
0.1682389197
0.1897209312
0.1932806553
0.1874109551
0.1700455501
0.1398752606
0.1148907754
0.1294459308
0.1071491448
0.08191335084
0.07130531184
0.05220374308
0.09083301758
0.08404596835
0.08169582394
0.07972440705
0.07590593969
0.07034439403
0.06366749717
0.05633841619
0.04886587607
0.04158075255
0.03469175639
0.02855438541
0.02347364231
0.01969181249
0.01932697073
0.0234198867
0.0254264108
0.02780503596
0.03543845138
0.04428795725
0.05365482139
0.1087129941
0.1826815355
0.2148704665
0.2208832142
0.2050649447
0.1831417833
0.1595158755
0.1371989815
0.1612482346
0.2909297635
0.2672089098
0.1340618423
0.08913243035
0.05649096656
0.08707499247
0.08645311305
0.08444042786
0.08336440197
0.07992635514
0.07330467093
0.06473391547
0.05593466353
0.04815130846
0.04141800232
0.03542482033
0.03003483459
0.0253442218
0.02171849448
0.02173924003
0.02596408461
0.03338607867
0.03476633545
0.03400015995
0.04554402317
0.06159691538
0.1435106932
0.1858475043
0.2145068915
0.2218740132
0.2056748249
0.1770051159
0.1516793734
0.1539054518
0.2982317893
0.6324986415
0.5255559575
0.3392955866
0.1356944571
0.06354373497
0.0898473262
0.08846195913
0.08707134781
0.08322840584
0.07555095959
0.06516335896
0.05519028504
0.04733297739
0.04128512505
0.03610029678
0.03129478691
0.02710137854
0.02374649408
0.02278221526
0.02711110938
0.04534201403
0.05379251967
0.0424591449
0.04067717895
0.05308146985
0.09055786233
0.149519187
0.1874971231
0.1948429277
0.1812381807
0.1626782438
0.1466080297
0.135288981
0.1501398806
0.2338069234
0.2541764386
0.1302745515
0.1002841614
0.05945962214
0.09092597421
0.09138742866
0.08972483023
0.08518037878
0.07672465972
0.06562324212
0.05553112989
0.04822430325
0.04294524442
0.03821588185
0.0335661792
0.02966347422
0.151583034
0.1508854207
0.142296508
0.1328111134
0.1224799546
0.1154268277
0.1193191688
0.1127182955
0.1018016172
0.09743946999
0.06111342827
0.08973071635
0.08423865976
0.07605877927
0.0664451344
0.05795595666
0.0517471871
0.02875580257
0.03085777057
0.0320906468
0.03256205732
0.03189825685
0.03064875881
0.02905738614
0.0277741186
0.026460317
0.02467496003
0.02285106985
0.02199207283
0.02181750983
0.0219402592
0.02211332743
0.02218401033
0.02201359872
0.02159802436
0.0209375311
0.02003519862
0.0189038713
0.01754166092
0.01599152683
0.01437152994
0.01285993951
0.01170836345
0.01115148112
0.01121058418
0.01154013651
0.01162561811
0.01110687689
0.01000028133
0.008350983246
0.006288986931
0.04572174943
0.04919973536
0.05139840611
0.05234091945
0.05157045151
0.04997883157
0.04760026766
0.04706358847
0.04577120314
0.04243952839
0.03864771401
0.03793908801
0.03869824937
0.03948733449
0.0398064375
0.03945828272
0.0384311177
0.03682564429
0.03494008617
0.0328010596
0.03049141406
0.02805295206
0.02553088769
0.0229992617
0.02066946578
0.01897640288
0.01826442488
0.01841252776
0.01873807119
0.01839714078
0.01679734282
0.01406724927
0.01063086949
0.006490521494
0.04724495402
0.05049125955
0.05275719545
0.05380803141
0.05345648912
0.05267066993
0.0520288027
0.05641267601
0.05916073872
0.0532635825
0.04553249289
0.04434727657
0.04611573778
0.04783447585
0.04870928086
0.04840851067
0.04715882502