/*--------------------------------*- C++ -*----------------------------------*\
  =========                 |
  \\      /  F ield         | OpenFOAM: The Open Source CFD Toolbox
   \\    /   O peration     | Website:  https://openfoam.org
    \\  /    A nd           | Version:  8
     \\/     M anipulation  |
\*---------------------------------------------------------------------------*/
FoamFile
{
    version     2.0;
    format      ascii;
    class       volScalarField;
    location    "1.7";
    object      O2;
}
// * * * * * * * * * * * * * * * * * * * * * * * * * * * * * * * * * * * * * //

dimensions      [0 0 0 0 0 0 0];

internalField   nonuniform List<scalar> 
67193
(
0.209999155
0.2099992478
0.2099993249
0.2099994102
0.2099994891
0.2099995172
0.209999559
0.2099995538
0.2099996938
0.2099996079
0.2099994625
0.2099993259
0.209999219
0.209999155
0.2099991302
0.2099991373
0.2099991502
0.2099991782
0.2099991836
0.2099991652
0.2099991245
0.2099990643
0.2099989988
0.2099989486
0.2099989256
0.2099989421
0.2099990012
0.2099990834
0.2099991597
0.2099992174
0.2099992591
0.2099993006
0.2099993235
0.2099991343
0.2099994829
0.2099995907
0.2099996649
0.2099997482
0.2099998125
0.2099998329
0.2099998693
0.2099998794
0.210000036
0.2100000045
0.2099998164
0.2099996583
0.2099995621
0.2099995249
0.2099995183
0.2099995396
0.2099995585
0.2099996212
0.2099996495
0.209999646
0.2099996196
0.2099995658
0.20999949
0.2099994169
0.2099993643
0.2099993552
0.2099994011
0.2099994847
0.2099995736
0.2099996483
0.2099997153
0.2099998112
0.2099999657
0.2099999029
0.2099997096
0.2099998196
0.2099998792
0.2099999602
0.2100000078
0.2100000322
0.2100000718
0.2100001004
0.2099999946
0.210000205
0.2100000685
0.2099998888
0.2099997979
0.2099997899
0.2099998022
0.2099998407
0.2099998668
0.2099999721
0.210000028
0.2100000183
0.2099999849
0.20999993
0.2099998459
0.2099997543
0.2099996868
0.2099996698
0.2099997131
0.2099998014
0.209999909
0.2100000111
0.210000104
0.2100002339
0.2100004779
0.2100007208
0.2099999022
0.2099999926
0.2100000307
0.2100000997
0.210000133
0.2100001757
0.2100002147
0.2100001813
0.2099995965
0.2100000205
0.2100001491
0.2100000681
0.2099999999
0.2100000058
0.2100000246
0.2100000736
0.2100001075
0.2100002133
0.2100003189
0.2100003161
0.210000261
0.2100001784
0.210000067
0.2099999472
0.2099998681
0.2099998421
0.2099998776
0.209999965
0.210000091
0.2100002363
0.2100003801
0.2100005361
0.2100007579
0.2100010321
0.2100001076
0.2100001332
0.2100001411
0.2100001767
0.210000199
0.2100002435
0.2100002001
0.2099999847
0.2099992178
0.2099995619
0.2099999353
0.2100000991
0.2100001393
0.2100001675
0.2100001957
0.2100002529
0.2100002897
0.2100002776
0.2100004354
0.2100005014
0.2100004664
0.2100003566
0.2100002057
0.210000051
0.2099999631
0.2099999165
0.209999927
0.2099999963
0.2100001195
0.2100002928
0.2100004954
0.2100006948
0.2100008768
0.2100010611
0.2100003367
0.2100002806
0.2100002386
0.2100002084
0.210000207
0.2100001853
0.209999981
0.2099996554
0.2099989829
0.2099991535
0.2099995497
0.209999913
0.210000138
0.2100002391
0.2100003112
0.2100003803
0.2100004033
0.2100001823
0.2100003453
0.2100005079
0.2100005636
0.2100004799
0.2100003016
0.2100001062
0.2100000116
0.2099999388
0.2099999174
0.2099999607
0.2100000571
0.2100002243
0.2100004609
0.2100007115
0.210000893
0.210001001
0.2100004083
0.210000415
0.2100003403
0.2100002213
0.2100001717
0.2100000568
0.2099997833
0.209999502
0.2099989415
0.2099989626
0.2099993031
0.2099996943
0.2100000292
0.2100002146
0.2100003625
0.210000434
0.2100004199
0.2100000499
0.210000161
0.2100003674
0.210000514
0.210000523
0.2100003641
0.2100001293
0.2100000293
0.2099999304
0.2099998782
0.209999907
0.2099999804
0.2100001109
0.2100003459
0.2100006291
0.2100008389
0.2100009127
0.2100001385
0.2100003908
0.2100004062
0.2100002502
0.2100001598
0.2100000419
0.20999985
0.2099996696
0.2099992814
0.2099991484
0.2099993982
0.2099997011
0.2099999697
0.2100001525
0.21000035
0.2100003872
0.2100003416
0.2099999539
0.2099999847
0.2100001851
0.2100003606
0.2100004625
0.2100003776
0.2100001232
0.2100000179
0.2099999033
0.2099998238
0.2099998453
0.2099999204
0.2100000241
0.2100002313
0.2100005133
0.2100007447
0.2100008125
0.2099998665
0.2100002295
0.2100003698
0.2100002707
0.2100001744
0.2100000955
0.2099999996
0.2099998773
0.2099995085
0.2099996513
0.2099997531
0.2099998688
0.2099999822
0.2100000908
0.2100002757
0.2100002592
0.2100002412
0.2099999183
0.2099998696
0.2100000262
0.2100001879
0.2100003279
0.2100003318
0.2100000915
0.2099999928
0.2099998889
0.2099997961
0.2099998213
0.2099999069
0.2100000087
0.2100001829
0.210000428
0.2100006488
0.210000713
0.2099997646
0.2100001398
0.210000298
0.2100002513
0.2100001688
0.210000111
0.2099999885
0.209999909
0.2099996138
0.2099996581
0.2099997523
0.2099999098
0.209999984
0.2100000379
0.2100001577
0.2100001527
0.2100002009
0.2099999581
0.2099998426
0.2099999353
0.2100000595
0.2100001946
0.2100002521
0.2100000542
0.2099999829
0.2099999213
0.2099998431
0.2099998932
0.2099999953
0.2100000942
0.2100002273
0.2100004047
0.2100005801
0.2100006291
0.2099994674
0.2099999112
0.2100001529
0.2100001901
0.210000155
0.2100001288
0.2100000512
0.2099999406
0.2099997471
0.2099996602
0.2099998541
0.2099999848
0.2100000256
0.2100000451
0.2100000822
0.2100001223
0.210000265
0.2100001594
0.2100000244
0.2100000335
0.2100000649
0.2100001275
0.2100001797
0.2100000493
0.2100000297
0.2100000343
0.2099999997
0.2100000746
0.2100001718
0.2100002468
0.2100003226
0.2100004235
0.2100005425
0.2100005697
0.2099991827
0.2099995717
0.2099998487
0.210000015
0.2100000833
0.2100001233
0.2100000835
0.2099999842
0.2099997706
0.2099996839
0.2099998809
0.2100000211
0.2100000657
0.2100000872
0.210000118
0.2100001782
0.2100002792
0.2100002721
0.2100002577
0.2100003002
0.2100003144
0.2100002905
0.2100002438
0.210000176
0.2100001673
0.2100001031
0.210000153
0.2100002059
0.2100002625
0.2100003184
0.2100003681
0.2100004366
0.2100005248
0.2100005361
0.2099995039
0.209999743
0.2099998639
0.209999948
0.2100000316
0.2100001099
0.2100001207
0.2100000512
0.2099998779
0.2099997525
0.2099998749
0.2100000189
0.2100000916
0.2100001315
0.2100001743
0.2100002103
0.2100002769
0.2100001723
0.2100002164
0.2100002817
0.2100003041
0.210000284
0.2100002413
0.2100002089
0.2100002485
0.2100002009
0.2100002229
0.2100001642
0.2100001799
0.2100002475
0.2100003255
0.2100004223
0.2100005221
0.2100005288
0.2099999623
0.2099999524
0.2099999223
0.2099999477
0.2100000151
0.2100000942
0.2100001381
0.2100001139
0.2099999974
0.2099998551
0.2099998229
0.2099999184
0.2100000207
0.2100001543
0.2100002968
0.210000366
0.2100003839
0.210000332
0.2100003392
0.2100003397
0.2100003087
0.2100002618
0.210000226
0.210000285
0.2100003305
0.2100002737
0.2100002283
0.2100000717
0.2100000439
0.2100001182
0.2100002387
0.2100003923
0.2100005334
0.210000548
0.210000073
0.2099999652
0.2099999537
0.2099999678
0.2100000126
0.2100000733
0.2100001279
0.2100001437
0.2100000841
0.2099999545
0.2099998133
0.2099998069
0.209999996
0.210000255
0.2100004173
0.2100004753
0.2100004852
0.2100004632
0.2100004395
0.210000419
0.2100003642
0.2100003002
0.2100002864
0.2100004004
0.2100003779
0.2100002902
0.2100001854
0.2099999953
0.2099999319
0.2100000151
0.2100001732
0.2100003799
0.2100005594
0.2100005847
0.2100001854
0.2100000013
0.2099999814
0.2099999768
0.2100000106
0.2100000561
0.210000101
0.2100001364
0.2100001295
0.2100000457
0.2099999136
0.2099999056
0.2100001421
0.2100004142
0.2100005528
0.2100006018
0.2100006044
0.2100006017
0.210000581
0.2100005584
0.2100004779
0.2100003952
0.2100003957
0.21000049
0.2100004497
0.210000395
0.2100002754
0.2100001383
0.2100000881
0.2100001698
0.2100003153
0.2100004931
0.2100006242
0.2100006204
0.2100001584
0.210000022
0.2099999872
0.2099999755
0.2100000072
0.2100000483
0.2100000804
0.2100001084
0.2100001297
0.2100000955
0.2100000085
0.210000054
0.2100003225
0.2100005688
0.2100006724
0.2100007195
0.2100007476
0.2100007604
0.2100007555
0.2100007213
0.2100006163
0.2100005209
0.2100005199
0.2100005409
0.2100004969
0.2100004934
0.2100003853
0.210000364
0.210000459
0.2100006166
0.2100006941
0.2100007208
0.2100007146
0.2100006374
0.2100001277
0.2100000121
0.2099999781
0.2099999833
0.210000022
0.210000061
0.2100000845
0.2100000947
0.2100001041
0.210000086
0.2100000611
0.2100002376
0.2100005298
0.2100007325
0.2100008473
0.2100009101
0.210000914
0.210000878
0.2100008815
0.2100008326
0.210000752
0.2100006608
0.2100006069
0.2100005705
0.2100004997
0.2100004951
0.2100005013
0.2100005306
0.2100005937
0.2100006957
0.2100007627
0.2100007712
0.2100007187
0.2100005907
0.2100003153
0.2100001296
0.2100000476
0.210000051
0.2100000869
0.2100001131
0.2100001222
0.2100001131
0.2100000895
0.2100000557
0.2100000944
0.2100003772
0.2100006821
0.2100009127
0.2100010054
0.2100009953
0.2100008976
0.2100008184
0.2100008047
0.2100007757
0.2100008334
0.2100007999
0.2100006954
0.2100006492
0.2100005569
0.2100005568
0.2100006026
0.2100006482
0.2100006968
0.2100007617
0.2100008281
0.2100008005
0.2100006906
0.2100005435
0.2100006437
0.2100003466
0.2100001931
0.2100001915
0.2100002287
0.2100002344
0.2100002208
0.2100001812
0.2100001231
0.2100000764
0.2100001982
0.2100004997
0.2100008428
0.2100010664
0.2100010303
0.2100008921
0.2100007293
0.2100006422
0.2100005806
0.2100005415
0.2100007371
0.2100008381
0.2100007842
0.2100007614
0.2100006638
0.2100006406
0.2100006906
0.2100007338
0.2100007508
0.2100007794
0.2100008176
0.2100007704
0.2100006489
0.2100005378
0.2100009498
0.2100008141
0.2100004983
0.2100004389
0.2100004175
0.2100003486
0.210000259
0.2100002162
0.2100002095
0.2100002079
0.2100003244
0.2100006193
0.2100009999
0.210001119
0.2100008761
0.2100006641
0.2100004879
0.210000382
0.2100002779
0.2100002077
0.2100004088
0.2100006901
0.2100008336
0.2100008889
0.2100008245
0.2100007208
0.2100007281
0.2100007519
0.2100007768
0.2100007936
0.2100008077
0.2100007635
0.2100006705
0.2100005805
0.2100006721
0.210000801
0.2100008345
0.2100008419
0.2100008082
0.2100007658
0.2100007661
0.210000825
0.2100008336
0.2100007552
0.2100006615
0.2100007085
0.2100011316
0.2100010986
0.2100006777
0.2100004246
0.2100002055
0.2100000891
0.2099999804
0.2099998723
0.2099999814
0.2100004184
0.2100008251
0.2100009793
0.2100010028
0.2100007606
0.2100006902
0.2100006443
0.210000678
0.2100007622
0.21000084
0.210000837
0.2100007725
0.2100006538
0.2100003182
0.2100005154
0.2100006022
0.2100007636
0.2100009472
0.2100011512
0.2100013616
0.2100015501
0.210001532
0.2100014377
0.2100012458
0.2100009756
0.2100012791
0.2100011038
0.2100004587
0.2100001095
0.2099998103
0.2099997525
0.2099996283
0.2099995213
0.209999566
0.210000178
0.2100007423
0.2100008952
0.2100011191
0.2100007794
0.2100006444
0.2100004782
0.2100004519
0.2100006065
0.2100008436
0.2100009441
0.2100009134
0.2100007461
0.2100000761
0.2100005409
0.2100004687
0.2100005992
0.2100007918
0.2100010285
0.2100013032
0.2100016046
0.2100018946
0.2100020546
0.2100018817
0.2100015723
0.210001641
0.210001331
0.2100003818
0.2099998343
0.2099994192
0.2099994967
0.2099994356
0.209999352
0.2099994847
0.2100001599
0.2100005679
0.2100006435
0.2100010714
0.2100007827
0.2100004936
0.2100002566
0.2100001715
0.2100003525
0.210000787
0.2100010215
0.2100010539
0.210000858
0.2099998856
0.2099998801
0.2099998676
0.2100002327
0.2100004136
0.2100006473
0.2100009065
0.2100011967
0.2100015225
0.2100018763
0.2100022019
0.2100022593
0.210002236
0.2100022438
0.2100017979
0.2100005147
0.2099996689
0.20999931
0.2099994428
0.209999447
0.2099994089
0.2100000851
0.2100004957
0.2100005903
0.2100004388
0.2100012012
0.2100008434
0.2100004807
0.2100001428
0.2100000177
0.2100002238
0.2100009272
0.2100011654
0.2100012422
0.2100010304
0.2100002764
0.2099999352
0.2100000629
0.2100001778
0.2100003714
0.210000608
0.210000874
0.2100011689
0.2100014961
0.2100018672
0.2100021863
0.2100024588
0.2100026055
0.2100024786
0.2100018189
0.2100006179
0.2099999237
0.2099994592
0.2099992865
0.2099993058
0.2100000597
0.2100004709
0.2100005042
0.2100004574
0.2100000463
0.2100003402
0.2100004139
0.2100002967
0.2100001368
0.2100001657
0.2100003109
0.2100017946
0.2100016992
0.2100016432
0.2100013366
0.2099998651
0.2099998741
0.209999981
0.210000206
0.2100004364
0.2100006793
0.2100009367
0.2100012125
0.2100015041
0.2100017992
0.2100020613
0.2100022548
0.2100023058
0.2100020718
0.2100013562
0.2100003856
0.2099999574
0.2099998715
0.2099999226
0.209999986
0.2100000899
0.2100003886
0.2100004893
0.2100002898
0.2099998152
0.2099999074
0.2100000129
0.2100001405
0.2100003381
0.2100006079
0.2100003579
0.2100023905
0.2100024701
0.2100020125
0.2100015218
0.2100000942
0.2100001141
0.2100000348
0.2100002883
0.2100005675
0.210000839
0.2100010987
0.2100013454
0.2100015752
0.2100017744
0.2100019127
0.2100019653
0.2100018708
0.2100015419
0.2100008733
0.2099999984
0.2099998576
0.209999839
0.2100000633
0.2099998714
0.2100000409
0.2100012279
0.2100012256
0.2100007077
0.2099999239
0.2099996569
0.209999587
0.2099997011
0.209999849
0.2100016438
0.2099958658
0.2100133727
0.210009623
0.2100049092
0.2100030415
0.2100004927
0.210000217
0.2100004118
0.2100006918
0.2100009771
0.210001224
0.2100014153
0.2100015492
0.2100016266
0.2100016385
0.2100015775
0.210001402
0.2100010987
0.2100005873
0.2099999226
0.2099998554
0.209999795
0.210000025
0.2100001033
0.2100000978
0.2100000833
0.2099999797
0.2099997024
0.209999494
0.2099997771
0.2100000059
0.2100000488
0.2100000858
0.2100003007
0.210000347
0.2100046992
0.210002076
0.2100015571
0.2100010848
0.2100008473
0.2100002688
0.2100004125
0.2100006891
0.2100009668
0.2100011707
0.2100012849
0.2100013267
0.2100013189
0.2100012595
0.2100011546
0.2100009821
0.2099996603
0.2099999718
0.2100000118
0.209999927
0.2099999978
0.2100003208
0.2100004011
0.2100026053
0.2100020462
0.2100018528
0.2100014322
0.2100004333
0.2100006511
0.2100008322
0.2100009311
0.210000965
0.2100009587
0.2099991323
0.2099992408
0.209999333
0.2099994179
0.2099994865
0.2099995014
0.2099995081
0.2099994735
0.2099994677
0.2099993974
0.209999308
0.2099992183
0.2099991409
0.2099990947
0.2099990812
0.2099990917
0.2099991063
0.2099991204
0.2099991186
0.2099990965
0.209999053
0.2099989901
0.2099989204
0.2099988662
0.2099988475
0.2099988767
0.2099989494
0.2099990409
0.2099991236
0.2099991872
0.2099992326
0.2099992735
0.2099992865
0.2099990795
0.2099994722
0.2099995979
0.2099996994
0.2099997857
0.2099998373
0.2099998459
0.209999835
0.2099997921
0.2099997549
0.2099997018
0.2099996249
0.2099995634
0.2099995143
0.2099994903
0.2099994867
0.2099994993
0.2099995121
0.2099995326
0.2099995433
0.2099995371
0.2099995078
0.2099994482
0.2099993638
0.2099992796
0.209999224
0.2099992225
0.209999283
0.2099993849
0.2099994938
0.2099995904
0.2099996756
0.2099997806
0.209999926
0.2099998061
0.2099997034
0.2099998338
0.2099999374
0.2100000223
0.2100000645
0.210000068
0.2100000433
0.2099999842
0.2099999509
0.2099998837
0.2099998114
0.2099997873
0.2099997821
0.2099997908
0.2099998042
0.209999821
0.2099998273
0.2099998434
0.2099998571
0.2099998582
0.2099998412
0.2099997933
0.2099997109
0.2099996164
0.2099995417
0.2099995183
0.2099995634
0.209999667
0.2099997979
0.2099999282
0.2100000509
0.2100002076
0.2100004764
0.2100006796
0.2099998646
0.2099999931
0.2100000979
0.210000176
0.2100002144
0.2100002166
0.2100001893
0.2100001203
0.2100001717
0.2100000352
0.209999949
0.2099999435
0.2099999947
0.2100000381
0.2100000717
0.2100000918
0.2100000884
0.2100000895
0.2100001003
0.2100001008
0.2100000876
0.2100000472
0.2099999711
0.2099998765
0.2099997952
0.2099997571
0.2099997837
0.2099998746
0.2100000112
0.2100001707
0.2100003322
0.2100005136
0.2100007788
0.2100010622
0.2099999613
0.2100000855
0.2100001934
0.2100002561
0.2100002953
0.2100002941
0.2100002887
0.2100002274
0.2100002967
0.2100001657
0.2100000994
0.2100000476
0.2100001496
0.2100002275
0.2100002853
0.2100003105
0.2100003008
0.2100002994
0.2100003009
0.2100002926
0.2100002719
0.2100002358
0.2100001705
0.2100000857
0.2100000109
0.2099999718
0.2099999884
0.2100000616
0.2100001738
0.2100003184
0.2100004957
0.2100006869
0.2100008944
0.2100011189
0.210000002
0.2100001359
0.2100002472
0.2100002854
0.2100003241
0.2100003133
0.2100003438
0.2100002502
0.2100003313
0.2100001898
0.2100002164
0.2100001172
0.2100002416
0.2100003513
0.2100004384
0.2100004744
0.2100004747
0.2100005037
0.2100004949
0.2100004685
0.2100004168
0.2100003777
0.2100003254
0.210000253
0.2100001886
0.2100001552
0.2100001686
0.2100002403
0.2100003417
0.2100004351
0.21000057
0.2100007496
0.2100009151
0.210001062
0.2100000595
0.2100001699
0.2100002714
0.2100002892
0.2100003207
0.210000302
0.2100003326
0.2100002062
0.2100003543
0.2100001879
0.2100002204
0.210000157
0.2100002884
0.2100004187
0.2100005308
0.2100005849
0.2100006218
0.2100006888
0.2100006697
0.210000638
0.2100005462
0.2100004833
0.2100004383
0.2100003746
0.2100003159
0.2100002881
0.2100002928
0.2100003582
0.2100004721
0.2100005474
0.2100006122
0.2100007485
0.210000886
0.210000978
0.210000218
0.2100002114
0.2100002601
0.2100002812
0.2100003047
0.210000273
0.210000246
0.2100001395
0.2100003102
0.2100001537
0.2100001672
0.2100001831
0.2100003281
0.2100004582
0.2100005751
0.2100006549
0.210000742
0.2100008431
0.2100008116
0.2100007668
0.2100006575
0.2100005607
0.2100005102
0.2100004525
0.2100004048
0.2100003879
0.2100003803
0.210000425
0.2100005319
0.2100006133
0.2100006361
0.2100007234
0.2100008361
0.210000893
0.2100003538
0.2100002662
0.2100002128
0.2100002621
0.2100002908
0.2100002723
0.2100002086
0.2100000751
0.2100000734
0.2100000157
0.2100001475
0.2100002793
0.2100004039
0.2100005056
0.2100005955
0.2100007056
0.2100008252
0.2100009505
0.2100009085
0.2100008402
0.2100007228
0.2100006111
0.2100005456
0.2100004915
0.2100004663
0.2100004692
0.2100004557
0.2100004779
0.2100005561
0.210000621
0.2100006316
0.2100006904
0.210000783
0.2100008164
0.2100003409
0.2100002532
0.2100001588
0.2100002256
0.2100002724
0.2100002808
0.2100002201
0.210000123
0.2100000029
0.2100000393
0.2100002228
0.2100003794
0.21000048
0.2100005492
0.2100006064
0.2100007209
0.2100008568
0.2100009976
0.2100009522
0.2100008601
0.2100007335
0.2100006191
0.2100005477
0.210000499
0.2100005013
0.2100005289
0.2100005201
0.2100005289
0.2100005729
0.2100006064
0.2100006083
0.2100006569
0.2100007359
0.210000753
0.2100003354
0.2100002709
0.2100001363
0.2100002052
0.2100002613
0.2100002921
0.2100002531
0.2100001575
0.2100000478
0.2100001117
0.2100003078
0.210000469
0.2100005483
0.2100005873
0.2100006204
0.2100006981
0.2100008288
0.210000968
0.2100009306
0.2100008297
0.2100006985
0.2100005869
0.2100005248
0.2100004871
0.2100005041
0.2100005494
0.2100005548
0.2100005643
0.210000584
0.2100005928
0.2100005893
0.2100006299
0.2100006993
0.2100007056
0.2100003433
0.2100002139
0.2100001049
0.2100001864
0.2100002519
0.2100002999
0.2100002797
0.2100002022
0.2100000951
0.2100001603
0.2100003452
0.2100005021
0.2100005756
0.2100006065
0.2100006302
0.2100006621
0.2100007417
0.2100008243
0.2100007831
0.2100007009
0.2100006076
0.2100005384
0.2100005021
0.2100004753
0.2100004674
0.2100005067
0.2100005508
0.2100005818
0.2100005915
0.2100005935
0.2100005905
0.210000617
0.2100006764
0.2100006761
0.2100002311
0.2100000962
0.2100000729
0.2100001794
0.2100002485
0.2100003035
0.210000305
0.2100002485
0.2100001626
0.2100001805
0.2100003215
0.2100004626
0.2100005446
0.2100005944
0.2100006321
0.2100006518
0.210000714
0.2100007437
0.2100007102
0.2100006331
0.2100005491
0.2100004814
0.2100004414
0.2100004248
0.2100004353
0.2100004985
0.2100006022
0.2100006212
0.2100006061
0.2100006023
0.2100006064
0.2100006212
0.2100006701
0.210000667
0.2100001447
0.2100001535
0.2100001536
0.2100002028
0.2100002486
0.2100003019
0.2100003212
0.210000287
0.2100002125
0.2100001742
0.2100002386
0.2100003492
0.2100004533
0.2100005551
0.2100006369
0.2100006929
0.2100007451
0.2100007536
0.2100007263
0.2100006519
0.2100005423
0.2100004465
0.2100004083
0.2100004388
0.210000497
0.2100005809
0.2100006571
0.2100006452
0.2100006072
0.2100006085
0.2100006282
0.2100006431
0.210000684
0.21000068
0.2100001659
0.2100001541
0.2100001417
0.210000171
0.21000022
0.2100002819
0.210000321
0.210000311
0.2100002474
0.2100001684
0.2100001418
0.210000215
0.2100003666
0.2100005487
0.2100006902
0.210000765
0.2100007842
0.2100007713
0.210000752
0.2100006758
0.2100005528
0.2100004516
0.2100004346
0.2100005141
0.2100005617
0.2100006104
0.2100006733
0.210000651
0.21000061
0.2100006308
0.210000668
0.2100006826
0.2100007159
0.2100007093
0.2100001098
0.210000128
0.2100001232
0.2100001459
0.2100001956
0.2100002626
0.2100003145
0.2100003238
0.2100002762
0.2100001976
0.2100001449
0.2100002144
0.2100004219
0.2100006457
0.2100008033
0.2100008749
0.2100008628
0.2100008211
0.2100007926
0.2100007082
0.2100005833
0.2100005008
0.2100004912
0.2100005657
0.2100005754
0.2100005985
0.2100006595
0.2100006584
0.2100006466
0.2100006913
0.2100007278
0.2100007326
0.210000756
0.210000736
0.2100001746
0.2100001083
0.2100000932
0.2100001091
0.2100001677
0.2100002459
0.2100003096
0.2100003307
0.2100002944
0.2100002277
0.2100001957
0.2100003087
0.210000548
0.2100007733
0.2100009271
0.2100009904
0.2100009431
0.2100008734
0.210000825
0.210000737
0.2100006302
0.2100005907
0.2100005701
0.210000591
0.2100005596
0.2100005567
0.210000593
0.2100006254
0.2100006513
0.2100007111
0.2100007592
0.2100007873
0.2100007938
0.2100007429
0.2100002509
0.2100001168
0.2100000598
0.2100000786
0.2100001558
0.2100002495
0.2100003222
0.2100003442
0.2100003004
0.2100002326
0.2100002428
0.2100004339
0.2100006896
0.2100008982
0.2100010078
0.2100010208
0.2100009548
0.2100008717
0.210000802
0.2100007217
0.2100006567
0.2100006594
0.2100006158
0.2100006066
0.210000572
0.2100005582
0.2100005629
0.2100006211
0.2100006746
0.2100007545
0.2100008117
0.2100008327
0.2100008034
0.2100007034
0.2100003768
0.210000173
0.2100000731
0.2100000937
0.2100001918
0.2100002999
0.2100003749
0.2100003833
0.2100003086
0.210000222
0.2100002811
0.2100005338
0.2100007955
0.2100010141
0.210001073
0.2100010238
0.2100009208
0.2100008515
0.2100007919
0.2100007107
0.2100006724
0.2100006928
0.2100006521
0.2100006475
0.2100006352
0.2100006087
0.2100006123
0.2100006543
0.2100007142
0.210000794
0.2100008566
0.2100008544
0.2100007703
0.2100006315
0.2100005415
0.2100002934
0.2100001664
0.2100001879
0.2100003008
0.2100004197
0.2100004932
0.2100004715
0.2100003356
0.2100002347
0.2100003479
0.2100006196
0.2100008921
0.2100011158
0.2100010795
0.2100009613
0.2100008769
0.2100008518
0.2100008288
0.2100007555
0.2100006964
0.2100007301
0.210000704
0.2100007126
0.210000727
0.2100006742
0.2100006784
0.2100006908
0.2100007278
0.2100007926
0.2100008485
0.210000824
0.2100007031
0.2100005848
0.2100007218
0.210000526
0.2100004355
0.2100004513
0.2100005383
0.2100006211
0.2100006748
0.2100006366
0.2100004921
0.2100003728
0.2100004299
0.2100006278
0.2100009645
0.2100012
0.2100010331
0.2100008815
0.2100008079
0.210000814
0.2100008319
0.2100008215
0.2100007345
0.2100007869
0.2100007714
0.2100007821
0.2100008288
0.2100007385
0.2100007696
0.2100007353
0.21000073
0.2100007517
0.2100007929
0.2100007705
0.2100006724
0.2100006209
0.2100005697
0.2100006143
0.2100006767
0.2100007735
0.210000861
0.2100009338
0.2100010017
0.2100010377
0.2100009905
0.210000829
0.2100006872
0.21000071
0.2100010689
0.2100013174
0.210001054
0.2100008031
0.2100007268
0.21000072
0.2100007681
0.2100008191
0.2100008072
0.2100008641
0.2100008579
0.2100008494
0.2100009614
0.210000835
0.2100009213
0.2100008275
0.2100007631
0.2100007159
0.2100007417
0.2100007536
0.210000725
0.2100007279
0.2100002762
0.210000394
0.2100005772
0.2100007741
0.2100009765
0.2100011877
0.2100013968
0.2100015666
0.2100016306
0.2100015175
0.2100012474
0.2100010247
0.2100013018
0.2100015033
0.2100011671
0.2100007553
0.2100006458
0.210000615
0.2100006318
0.2100006678
0.2100008551
0.2100008301
0.2100009427
0.2100009555
0.2100012313
0.2100010398
0.2100012181
0.2100009854
0.2100008777
0.2100007525
0.2100007474
0.2100008029
0.2100008424
0.2100008606
0.2100000295
0.2100001576
0.2100003728
0.2100006286
0.2100008893
0.2100011591
0.2100014401
0.2100017213
0.2100019733
0.2100020696
0.2100019443
0.2100017192
0.210001782
0.2100017701
0.2100012614
0.2100006773
0.2100005155
0.2100004929
0.2100005569
0.2100005345
0.2100008271
0.210000806
0.2100010767
0.2100011661
0.210001501
0.2100012671
0.2100011544
0.2100009785
0.2100009015
0.2100007962
0.2100007755
0.2100008842
0.2100009722
0.2100009913
0.2099996061
0.2099998219
0.2099998658
0.2100002033
0.2100004877
0.2100007781
0.2100010817
0.2100013964
0.2100017176
0.2100020479
0.2100022941
0.2100024283
0.2100024113
0.2100023294
0.210001991
0.2100011934
0.2100004645
0.2100002568
0.2100003539
0.2100004583
0.2100004111
0.2100005915
0.2100007813
0.2100013281
0.2100014207
0.2100026727
0.2100017883
0.2100014477
0.2100010524
0.2100008754
0.2100007337
0.21000076
0.2100009613
0.2100010856
0.2100011263
0.2099990211
0.2099997115
0.2099999169
0.2100001668
0.2100004305
0.2100007197
0.2100010303
0.2100013624
0.2100017075
0.2100022772
0.2100023148
0.2100024936
0.2100025606
0.2100024173
0.2100019077
0.2100011059
0.2100002876
0.2099999984
0.210000049
0.2100002315
0.2100002484
0.2100006991
0.210000994
0.2100012824
0.210001248
0.2100014412
0.2100012867
0.2100010745
0.210000795
0.2100006658
0.2100002352
0.2100003718
0.2100009794
0.2100011744
0.2100012799
0.2099996655
0.2099997757
0.2099999194
0.2100001349
0.2100004022
0.2100006956
0.2100009994
0.2100013042
0.2100016014
0.2100018897
0.2100021028
0.210002252
0.210002266
0.210002047
0.2100015135
0.2100008608
0.2100001357
0.2099999575
0.2099999506
0.2100001085
0.2100001492
0.2100006736
0.2100009374
0.2100011206
0.210001097
0.2100012468
0.210001065
0.2100008511
0.2100006206
0.2100004618
0.2099996501
0.2099995644
0.2100009042
0.2100011119
0.2100013059
0.2099999201
0.2099999302
0.2100000442
0.2100001892
0.2100004275
0.2100007099
0.2100010008
0.2100012797
0.2100015328
0.2100017499
0.2100018835
0.21000193
0.2100018454
0.2100015643
0.2100010902
0.2100005481
0.2100000478
0.2099999344
0.2099999651
0.2100003435
0.2100003507
0.2100020883
0.2100025328
0.2100018704
0.2100012987
0.2100009947
0.2100007598
0.210000588
0.2099998907
0.2099994956
0.2099939278
0.2099895837
0.2099993841
0.210001357
0.2100018156
0.2100001722
0.2100001957
0.2100002774
0.2100004769
0.210000732
0.2100009964
0.2100012337
0.2100014237
0.2100015529
0.2100016032
0.2100015611
0.2100014218
0.2100011393
0.2100007576
0.2100002216
0.2100000943
0.2099999825
0.210000003
0.2100001138
0.2100001011
0.2100003735
0.2100005661
0.2100006118
0.2100005391
0.2100006318
0.2100006421
0.2100005763
0.2100005268
0.2100006425
0.2100000345
0.2100002693
0.2100010548
0.2100011967
0.2100012128
0.2100004096
0.2100003738
0.210000373
0.2100005108
0.2100007122
0.2100009238
0.2100011015
0.2100012275
0.2100012918
0.2100012818
0.2100011834
0.2100010512
0.2100006023
0.2100005796
0.2100005012
0.2100003933
0.2100002848
0.2100003708
0.2099999877
0.2100005905
0.2100010635
0.2100012742
0.2100013982
0.210000379
0.21000047
0.2100006103
0.2100007541
0.2100008726
0.2100009563
0.209999101
0.2099992123
0.2099993111
0.2099993995
0.2099994696
0.2099994858
0.209999482
0.2099994478
0.2099994125
0.2099993418
0.2099992566
0.2099991778
0.2099991165
0.2099990848
0.2099990805
0.2099990927
0.209999105
0.2099991097
0.2099990976
0.209999065
0.2099990121
0.2099989438
0.2099988738
0.2099988248
0.2099988176
0.2099988608
0.2099989423
0.2099990346
0.2099991136
0.2099991732
0.2099992146
0.2099992493
0.2099992469
0.209999038
0.2099994498
0.2099995752
0.2099996853
0.209999777
0.2099998319
0.2099998456
0.2099998284
0.2099997941
0.2099997421
0.2099996844
0.2099996121
0.2099995603
0.2099995244
0.2099995089
0.2099995081
0.2099995158
0.2099995224
0.2099995264
0.2099995203
0.2099994963
0.2099994495
0.2099993773
0.2099992887
0.2099992084
0.2099991657
0.2099991823
0.2099992568
0.2099993635
0.2099994711
0.2099995653
0.2099996497
0.2099997535
0.2099998768
0.2099996948
0.2099997034
0.2099998322
0.2099999472
0.2100000387
0.2100000863
0.2100000944
0.2100000657
0.210000028
0.2099999638
0.2099999157
0.2099998523
0.2099998305
0.2099998276
0.2099998369
0.2099998482
0.2099998562
0.2099998565
0.2099998533
0.2099998463
0.2099998254
0.2099997847
0.2099997177
0.2099996269
0.209999534
0.2099994711
0.2099994674
0.209999532
0.2099996463
0.2099997765
0.2099999021
0.2100000238
0.2100001942
0.2100004537
0.2100006174
0.209999894
0.2100000167
0.2100001347
0.2100002221
0.2100002662
0.2100002702
0.2100002332
0.2100001802
0.2100001161
0.2100000716
0.210000025
0.2100000334
0.2100000706
0.2100001105
0.2100001408
0.2100001534
0.2100001489
0.2100001343
0.2100001224
0.2100000986
0.2100000575
0.2099999928
0.2099999035
0.2099998068
0.2099997328
0.2099997116
0.2099997603
0.2099998712
0.2100000163
0.2100001688
0.2100003199
0.2100005111
0.2100007959
0.210001073
0.2100000284
0.2100001336
0.2100002513
0.210000329
0.2100003731
0.210000373
0.2100003292
0.2100002348
0.2100002311
0.2100001572
0.2100001408
0.2100001705
0.2100002495
0.210000323
0.2100003784
0.2100004013
0.210000398
0.2100003768
0.2100003594
0.2100003308
0.2100002856
0.210000222
0.2100001377
0.2100000436
0.2099999648
0.2099999288
0.2099999548
0.2100000465
0.2100001859
0.2100003462
0.2100005109
0.2100006911
0.2100009173
0.2100011686
0.2100001237
0.2100002048
0.2100003147
0.2100003782
0.2100004229
0.2100004156
0.2100003594
0.2100002508
0.2100003497
0.2100002383
0.2100002092
0.2100002547
0.2100003679
0.2100004732
0.2100005561
0.210000595
0.2100006039
0.2100005905
0.2100005684
0.2100005324
0.2100004804
0.2100004182
0.2100003414
0.2100002526
0.2100001723
0.2100001246
0.2100001244
0.2100001876
0.2100003074
0.2100004513
0.210000605
0.2100007655
0.2100009355
0.210001121
0.2100002025
0.2100002545
0.2100003439
0.2100003922
0.2100004365
0.2100004193
0.2100003514
0.2100002871
0.2100004365
0.2100003216
0.2100002824
0.2100003239
0.2100004522
0.2100005758
0.2100006794
0.2100007368
0.2100007735
0.2100007978
0.2100007682
0.2100007115
0.210000645
0.2100005808
0.2100005124
0.2100004306
0.2100003532
0.210000301
0.2100002751
0.2100003004
0.2100003916
0.2100005123
0.2100006386
0.2100007736