/*--------------------------------*- C++ -*----------------------------------*\
  =========                 |
  \\      /  F ield         | OpenFOAM: The Open Source CFD Toolbox
   \\    /   O peration     | Website:  https://openfoam.org
    \\  /    A nd           | Version:  8
     \\/     M anipulation  |
\*---------------------------------------------------------------------------*/
FoamFile
{
    version     2.0;
    format      ascii;
    class       surfaceScalarField;
    location    "1.7";
    object      phi;
}
// * * * * * * * * * * * * * * * * * * * * * * * * * * * * * * * * * * * * * //

dimensions      [1 0 -1 0 0 0 0];

internalField   nonuniform List<scalar> 
196504
(
-1.102277635e-05
-1.416799827e-05
1.266412872e-05
-7.447150096e-06
-1.516855212e-05
1.159283171e-05
-3.380712725e-06
-1.499942997e-05
1.093291241e-05
1.495257121e-06
-1.562878409e-05
1.075276072e-05
5.400881094e-06
-1.608102785e-05
1.217539115e-05
8.306674879e-06
-1.613885018e-05
1.323308942e-05
9.629472952e-06
-1.752786334e-05
1.620514649e-05
1.027452301e-05
-1.71080754e-05
1.646314576e-05
1.981617181e-05
-3.086242117e-05
2.132092392e-05
2.520831902e-05
-2.520790904e-05
1.981592153e-05
2.521913387e-05
-1.963489883e-05
1.962424961e-05
2.408780243e-05
-1.736795512e-05
1.849943975e-05
2.339086807e-05
-1.682666539e-05
1.752373112e-05
2.334938989e-05
-1.68808481e-05
1.692243147e-05
2.371162702e-05
-1.690084132e-05
1.653868598e-05
2.465394204e-05
-1.728729637e-05
1.634504782e-05
2.540446993e-05
-1.691064844e-05
1.616018354e-05
2.717726335e-05
-1.812852268e-05
1.635580111e-05
2.87005169e-05
-1.772707898e-05
1.620391796e-05
2.958378262e-05
-1.682617648e-05
1.594303426e-05
2.964453805e-05
-1.578034775e-05
1.571975305e-05
2.875287042e-05
-1.475076684e-05
1.564263458e-05
2.71178983e-05
-1.41392851e-05
1.577449559e-05
2.525050141e-05
-1.420722472e-05
1.607489465e-05
2.304811045e-05
-1.412125027e-05
1.632394359e-05
2.044025056e-05
-1.370592426e-05
1.631410998e-05
1.762641542e-05
-1.309206906e-05
1.59062482e-05
1.497555242e-05
-1.244664316e-05
1.509786515e-05
1.285777428e-05
-1.19983355e-05
1.411648688e-05
1.14183224e-05
-1.182428631e-05
1.326412574e-05
1.043939203e-05
-1.181009878e-05
1.27894298e-05
9.653448495e-06
-1.193194581e-05
1.271830083e-05
8.070171114e-06
-1.126191193e-05
1.284560796e-05
-4.308144693e-06
1.237873926e-05
-9.79500801e-06
-2.453906679e-05
9.737867116e-06
-7.041056982e-06
-2.615540496e-05
8.232790207e-06
-3.865875095e-06
-2.515682998e-05
6.982115387e-06
3.497094292e-07
-2.631951871e-05
6.475073267e-06
3.497455532e-06
-2.705473733e-05
7.825929156e-06
5.864424782e-06
-2.788723212e-05
9.381429101e-06
5.762090479e-06
-3.085704323e-05
1.343158382e-05
6.556691449e-06
-3.12992318e-05
1.339666896e-05
1.749408761e-05
-5.596428441e-05
1.416463631e-05
2.376212988e-05
-4.723527618e-05
1.57594945e-05
2.293032554e-05
-3.65719905e-05
1.776907155e-05
2.112722407e-05
-3.173442947e-05
1.61697375e-05
2.02614769e-05
-3.006604202e-05
1.410526277e-05
2.046660027e-05
-3.002061513e-05
1.293475615e-05
2.113008027e-05
-2.999738337e-05
1.243315056e-05
2.215448943e-05
-3.094995367e-05
1.263832047e-05
2.267546878e-05
-3.047946136e-05
1.304790077e-05
2.462993674e-05
-3.429313806e-05
1.421022289e-05
2.640260564e-05
-3.417308864e-05
1.467343493e-05
2.713249734e-05
-3.238085942e-05
1.48249133e-05
2.675229475e-05
-3.022857469e-05
1.482858548e-05
2.544041179e-05
-2.820662516e-05
1.476793382e-05
2.37228016e-05
-2.707410538e-05
1.465265957e-05
2.221843264e-05
-2.739577748e-05
1.469318534e-05
2.078420085e-05
-2.775440378e-05
1.506767943e-05
1.946924763e-05
-2.80679511e-05
1.567729971e-05
1.822132064e-05
-2.796407757e-05
1.612027497e-05
1.660982987e-05
-2.683807815e-05
1.600327959e-05
1.431981659e-05
-2.495643998e-05
1.52484833e-05
1.140870592e-05
-2.308186184e-05
1.416906427e-05
7.997024833e-06
-2.172450389e-05
1.332647774e-05
4.212179819e-06
-2.114837425e-05
1.300167754e-05
8.378095349e-07
-2.101612236e-05
1.312899444e-05
-1.614804756e-05
1.26781331e-05
-8.432904449e-06
-3.36957382e-05
9.425389639e-06
-6.729470513e-06
-3.5487714e-05
7.628740434e-06
-4.281839811e-06
-3.312094066e-05
5.516347331e-06
-8.927241891e-07
-3.449500924e-05
4.786267662e-06
1.112885144e-06
-3.517159352e-05
6.111184801e-06
2.538295441e-06
-3.742260546e-05
8.1099584e-06
3.762432921e-07
-4.203418655e-05
1.333925021e-05
3.444443353e-06
-4.479890592e-05
1.043158586e-05
1.814429753e-05
-7.182792023e-05
1.163991933e-06
2.661991249e-05
-6.482501309e-05
9.11432338e-06
2.48159511e-05
-5.148871716e-05
1.672088866e-05
2.099269716e-05
-4.378900196e-05
1.587800974e-05
1.872413165e-05
-4.022655751e-05
1.242923865e-05
1.84085741e-05
-3.976184887e-05
1.005692051e-05
1.900799786e-05
-3.950655381e-05
8.909848673e-06
1.984198458e-05
-4.116447113e-05
9.380612659e-06
1.996519955e-05
-4.077881118e-05
1.017620686e-05
2.276488677e-05
-4.888653318e-05
1.179378676e-05
2.567082941e-05
-4.98832434e-05
1.280430438e-05
2.669113599e-05
-4.692066389e-05
1.351961265e-05
2.608545455e-05
-4.332534262e-05
1.370259271e-05
2.464456693e-05
-4.02122165e-05
1.34466546e-05
2.336983611e-05
-3.84687837e-05
1.266961796e-05
2.271580537e-05
-3.879109395e-05
1.204958835e-05
2.225979086e-05
-3.943223903e-05
1.213412093e-05
2.211755441e-05
-4.077978527e-05
1.28543691e-05
2.20995109e-05
-4.184963851e-05
1.390392647e-05
2.120769328e-05
-4.102137028e-05
1.507544991e-05
1.863456806e-05
-3.82006336e-05
1.581767153e-05
1.44342997e-05
-3.441236941e-05
1.553113892e-05
9.18998682e-06
-3.107388554e-05
1.459406966e-05
3.717461461e-06
-2.934196443e-05
1.366650523e-05
-6.624098539e-07
-2.987346902e-05
1.323762167e-05
-3.010716044e-05
1.32971165e-05
-5.530240839e-06
-4.372315509e-05
1.086672473e-05
-5.708944765e-06
-4.450611309e-05
9.196941899e-06
-4.324768511e-06
-4.025965858e-05
5.754377705e-06
-2.56651368e-06
-4.104328218e-05
4.789879246e-06
-2.499606757e-06
-4.127824448e-05
6.039652611e-06
-3.784402561e-06
-4.467218343e-05
8.534346741e-06
-7.996459994e-06
-5.04277859e-05
1.260570157e-05
4.851081787e-07
-5.587164206e-05
2.591295909e-06
2.115190644e-05
-7.666456466e-05
-1.582991602e-05
3.246798476e-05
-7.259881708e-05
-3.542017163e-06
3.093688876e-05
-6.138563732e-05
1.142826356e-05
2.420571754e-05
-5.25433556e-05
1.548574511e-05
1.916188665e-05
-4.742257114e-05
1.224002874e-05
1.732377531e-05
-4.632994276e-05
8.406356473e-06
1.731587329e-05
-4.575990403e-05
6.261371159e-06
1.743866889e-05
-4.824013034e-05
6.95295621e-06
1.729552256e-05
-4.814879154e-05
7.513202834e-06
2.178664555e-05
-6.102911954e-05
7.651548118e-06
2.66424658e-05
-6.384279116e-05
9.103817841e-06
2.831148892e-05
-5.978284977e-05
1.119326609e-05
2.719454673e-05
-5.442113238e-05
1.22128545e-05
2.511869854e-05
-4.987486971e-05
1.173864962e-05
2.387415696e-05
-4.72156063e-05
9.991540633e-06
2.379847828e-05
-4.716517887e-05
8.449969141e-06
2.432376613e-05
-4.783595171e-05
7.878658599e-06
2.573191994e-05
-5.006119142e-05
7.873514285e-06
2.759279943e-05
-5.232902513e-05
8.618795866e-06
2.836453087e-05
-5.24551296e-05
1.066234107e-05
2.657758994e-05
-4.998363192e-05
1.357027157e-05
2.181696465e-05
-4.551923359e-05
1.586783434e-05
1.514716401e-05
-4.066745739e-05
1.626372674e-05
8.516797989e-06
-3.774853451e-05
1.503730179e-05
3.161456616e-06
-3.830665598e-05
1.378890785e-05
-4.088579967e-05
1.394048477e-05
1.480619486e-07
-5.725929254e-05
1.305259671e-05
-2.936922069e-06
-5.445752007e-05
1.303620379e-05
-3.238121118e-06
-4.776952557e-05
7.810876954e-06
-4.207519304e-06
-4.641278997e-05
6.33874567e-06
-7.261158889e-06
-4.544596141e-05
7.221246741e-06
-1.321865372e-05
-4.81870162e-05
9.472292124e-06
-1.798938232e-05
-5.328051163e-05
7.62351209e-06
-2.778006608e-06
-5.994289222e-05
-1.113996141e-05
2.437761573e-05
-7.172511307e-05
-3.209481684e-05
3.994580924e-05
-6.959833788e-05
-1.856836755e-05
4.020947267e-05
-6.24994043e-05
8.504009819e-07
3.065666382e-05
-5.543121248e-05
1.24409385e-05
2.174139306e-05
-5.102143033e-05
1.251435023e-05
1.715403692e-05
-4.99359728e-05
8.193563737e-06
1.561027824e-05
-4.948672212e-05
5.27071391e-06
1.412632687e-05
-5.286754853e-05
6.111472272e-06
1.44852828e-05
-5.334748983e-05
4.839822409e-06
2.183897008e-05
-6.862628267e-05
2.435650366e-07
2.92001645e-05
-7.3265945e-05
2.062049427e-06
3.197355909e-05
-6.921056436e-05
6.654413582e-06
3.012003171e-05
-6.253568003e-05
9.968174003e-06
2.653629002e-05
-5.63794799e-05
1.008846489e-05
2.433968642e-05
-5.251070112e-05
7.491832815e-06
2.399613522e-05
-5.184672124e-05
5.025253558e-06
2.515913816e-05
-5.240039068e-05
3.401622255e-06
2.831249951e-05
-5.500417399e-05
1.789835268e-06
3.240585355e-05
-5.78782561e-05
1.456118278e-06
3.541119649e-05
-5.896023864e-05
3.500035293e-06
3.548308885e-05
-5.777234824e-05
7.717119305e-06
3.141463523e-05
-5.419467176e-05
1.27442072e-05
2.380542477e-05
-4.925728192e-05
1.619936097e-05
1.529454161e-05
-4.54273688e-05
1.619004935e-05
7.64267904e-06
-4.519886236e-05
1.454440988e-05
-4.780615727e-05
1.456338631e-05
1.01840852e-05
-7.378245322e-05
1.106943206e-05
3.772447654e-06
-6.562314911e-05
1.757705596e-05
3.24062228e-07
-5.565366491e-05
1.133231623e-05
-4.167808125e-06
-5.060270076e-05
8.681614441e-06
-1.07170306e-05
-4.72259102e-05
8.329061951e-06
-2.080716909e-05
-4.679868924e-05
8.701789852e-06
-2.445658693e-05
-4.926579445e-05
-3.652129637e-07
-4.536040341e-06
-5.510802792e-05
-2.475521007e-05
2.655728252e-05
-5.827009478e-05
-4.454801513e-05
4.540034267e-05
-5.704769881e-05
-3.139332737e-05
4.706348109e-05
-5.474318212e-05
-9.418999735e-06
3.638975384e-05
-5.154612429e-05
6.788968614e-06
2.463641485e-05
-5.041898605e-05
1.115115815e-05
1.703124761e-05
-5.062062868e-05
8.290031056e-06
1.289717281e-05
-5.11015314e-05
5.749039755e-06
8.636205341e-06
-5.511672433e-05
6.510256889e-06
1.089514273e-05
-5.640262216e-05
7.962829586e-07
2.260830318e-05
-7.083615978e-05
-9.503190442e-06
3.304370258e-05
-7.606474425e-05
-7.636517438e-06
3.75768388e-05
-7.271925301e-05
-1.024365128e-06
3.522102208e-05
-6.61047187e-05
5.924934583e-06
2.932349385e-05
-5.885184147e-05
8.369965994e-06
2.480102244e-05
-5.382471299e-05
5.836571681e-06
2.286631952e-05
-5.245654396e-05
2.5446366e-06
2.394704947e-05
-5.27931841e-05
-6.878006899e-07
2.878519921e-05
-5.546457911e-05
-4.377582531e-06
3.521383074e-05
-5.852521235e-05
-5.781488499e-06
4.050190377e-05
-6.025544844e-05
-3.992651026e-06
4.265047448e-05
-6.038818733e-05
4.67508902e-07
4.009164145e-05
-5.853963495e-05
6.904064548e-06
3.251644428e-05
-5.477105269e-05
1.30892524e-05
2.21613457e-05
-5.089281436e-05
1.582083282e-05
1.164171122e-05
-4.968574893e-05
1.500681259e-05
-5.134886163e-05
1.518471416e-05
2.631988706e-05
-8.703460817e-05
-1.507858374e-06
1.730374973e-05
-7.497618116e-05
1.836897491e-05
8.635398461e-06
-6.265823824e-05
1.567272697e-05
5.141207722e-07
-5.38128684e-05
1.133128849e-05
-7.530614769e-06
-4.771826183e-05
8.536999375e-06
-1.834916391e-05
-4.314685397e-05
7.166721079e-06
-2.200805632e-05
-4.164035407e-05
-3.966433353e-06
-2.955178553e-06
-4.508511234e-05
-2.907555529e-05
2.653376692e-05
-3.956421067e-05
-4.819443605e-05
4.378233034e-05
-3.901594153e-05
-3.527989042e-05
4.468653932e-05
-4.213431545e-05
-1.351269099e-05
3.487031709e-05
-4.44258241e-05
2.696281065e-06
2.410274422e-05
-4.750410711e-05
7.852992956e-06
1.539284426e-05
-4.915338446e-05
7.242894384e-06
8.008528855e-06
-5.04893739e-05
6.772333029e-06
5.063131576e-07
-5.413946933e-05
6.525089912e-06
5.930586284e-06
-5.623691585e-05
-5.589876448e-06
2.323948658e-05
-6.817225848e-05
-1.997271472e-05
3.715067108e-05
-7.200539706e-05
-1.797045664e-05
4.427643517e-05
-6.950450276e-05
-1.034045317e-05
4.228332899e-05
-6.361045319e-05
-5.011037367e-07
3.393301487e-05
-5.63681703e-05
5.866677166e-06
2.580485609e-05
-5.076701655e-05
5.070506514e-06
2.081420724e-05
-4.881503022e-05
1.349201218e-06
2.100756266e-05
-4.910785551e-05
-3.878592968e-06
2.727561479e-05
-5.183422151e-05
-9.898294013e-06
3.573460063e-05
-5.499427618e-05
-1.198978404e-05
4.297516041e-05
-5.739142354e-05
-1.010442828e-05
4.681196598e-05
-5.891473e-05
-5.310082742e-06
4.580023356e-05
-5.882610786e-05
1.298413542e-06
3.891595761e-05
-5.655281172e-05
8.666263236e-06
2.765063613e-05
-5.335242036e-05
1.372516182e-05
1.487180064e-05
-5.165140858e-05
1.474472855e-05
-5.217606815e-05
1.569924447e-05
4.450841287e-05
-9.104609367e-05
-2.113676216e-05
3.663326132e-05
-7.874101401e-05
1.163985005e-05
2.216789742e-05
-6.630389152e-05
1.811086729e-05
1.063474791e-05
-5.607381598e-05
1.37939744e-05
4.151679531e-06
-4.917626343e-05
7.941017452e-06
-2.481720935e-06
-4.276558445e-05
6.25216793e-06
-5.915747707e-06
-3.893197845e-05
7.257811716e-07
5.37007543e-06
-3.699402334e-05
-1.937667588e-05
2.144395117e-05
-1.475307178e-05
-4.088471349e-05
2.913663135e-05
-2.047528451e-05
-2.623293945e-05
2.833841831e-05
-3.451708446e-05
-6.818625033e-06
2.355265977e-05
-4.151392418e-05
1.874230705e-06
1.895975884e-05
-4.587211288e-05
2.961227793e-06
1.210509438e-05
-4.668926351e-05
4.390807518e-06
1.353350225e-06
-4.69182768e-05
7.180843504e-06
-7.514742023e-06
-4.900512663e-05
3.733901546e-06
1.973250527e-06
-5.218950413e-05
-1.353528575e-05
2.333832376e-05
-6.035092969e-05
-2.918630895e-05
4.051231582e-05
-6.182346763e-05
-2.735583337e-05
5.048855546e-05
-5.985330342e-05
-1.962738937e-05
4.972582399e-05
-5.493826543e-05
-7.909430003e-06
3.985002338e-05
-4.84811689e-05
1.988758725e-06
2.772548486e-05
-4.319018819e-05
4.547714778e-06
1.872643669e-05
-4.106935229e-05
1.253402968e-06
1.764986866e-05
-4.196453986e-05
-6.066689969e-06
2.483661974e-05
-4.493797476e-05
-1.408291763e-05
3.450656456e-05
-4.835217996e-05
-1.631194017e-05
4.299808684e-05
-5.195629694e-05
-1.39265371e-05
4.79709998e-05
-5.521099688e-05
-8.676523048e-06
4.789673226e-05
-5.679667012e-05
-1.955026523e-06
4.183338314e-05
-5.580251753e-05
5.313217817e-06
3.064210983e-05
-5.338881572e-05
1.122783812e-05
1.68897026e-05
-5.158368779e-05
1.368485358e-05
-5.104392015e-05
1.575772272e-05
5.836628316e-05
-8.633910071e-05
-3.898393067e-05
5.429157591e-05
-7.655593416e-05
1.889558692e-06
3.644955708e-05
-6.526169311e-05
1.679975343e-05
2.128748544e-05
-5.604978269e-05
1.5137974e-05
1.423674683e-05
-4.975106934e-05
7.625538344e-06
1.234129429e-05
-4.458555802e-05
3.715497358e-06
9.734200739e-06
-4.05076725e-05
4.182940409e-06
1.021521147e-05
-3.560107759e-05
-1.873715346e-06
1.326533085e-05
-8.749406604e-06
-9.053459938e-06
1.161915132e-05
-2.000215106e-05
1.17341803e-06
1.097016406e-05
-3.600414314e-05
2.136429176e-06
1.439587202e-05
-4.189752124e-05
-3.041736591e-06
1.585641032e-05
-4.355927946e-05
-3.773032137e-06
1.083975932e-05
-4.187285993e-05
2.005334919e-07
-2.61457839e-06
-3.955457678e-05
6.090858774e-06
-1.145543212e-05
-3.925932366e-05
-9.047728393e-07
7.3562561e-07
-4.415780042e-05
-2.022262846e-05
2.327109698e-05
-4.757656356e-05
-3.530972151e-05
4.240652129e-05
-4.673568632e-05
-3.422308893e-05
5.436502673e-05
-4.505816545e-05
-2.675357761e-05
5.528619084e-05
-4.129829911e-05
-1.456108844e-05
4.529235652e-05
-3.601070048e-05
-2.476609307e-06
3.021695954e-05
-3.171763527e-05
3.602863707e-06
1.752517202e-05
-3.018379153e-05
1.806250691e-06
1.498707705e-05
-3.264677881e-05
-6.779627464e-06
2.203199871e-05
-3.61140276e-05
-1.58688143e-05
3.165633006e-05
-4.019074561e-05
-1.778569449e-05
4.063294365e-05
-4.615501609e-05
-1.47778207e-05
4.624264993e-05
-5.165702934e-05
-9.163599538e-06
4.669418925e-05
-5.463300432e-05
-2.61512163e-06
4.136420261e-05
-5.443717741e-05
3.964741536e-06
3.096664214e-05
-5.2415426e-05
9.424269213e-06
1.752772093e-05
-5.044495081e-05
1.230027866e-05
-4.885995099e-05
1.534384498e-05
6.364630427e-05
-7.607847499e-05
-4.961873303e-05
6.328098469e-05
-6.953268397e-05
-6.657939317e-06
4.565853738e-05
-6.071113377e-05
1.307190752e-05
2.895456817e-05
-5.366703137e-05
1.43212268e-05
2.012116029e-05
-4.825269123e-05
7.33508182e-06
1.711187249e-05
-4.404139386e-05
2.465243467e-06
1.322641343e-05
-3.980761231e-05
3.185600947e-06
8.929243281e-06
-3.611070345e-05
4.807071131e-06
9.517466902e-06
-2.275063781e-05
1.341336554e-05
9.282378894e-06
-2.87104627e-05
8.943797806e-06
1.018585151e-05
-3.511660902e-05
-1.790595495e-06
1.498796736e-05
-3.777884636e-05
-8.920393412e-06
1.789885161e-05
-3.743595048e-05
-9.033850628e-06
1.444691533e-05
-3.439808428e-05
-4.022530555e-06
1.00046412e-06
-2.949684916e-05
3.38897034e-06
-8.318787654e-06
-2.656922763e-05
-3.370651024e-06
2.812229189e-06
-3.32233007e-05
-2.20653681e-05
2.35113766e-05
-3.181588382e-05
-3.645969077e-05
4.224182052e-05
-2.914269442e-05
-3.632329218e-05
5.44115712e-05
-2.794162451e-05
-2.928619796e-05
5.634990472e-05
-2.564473232e-05
-1.759183976e-05
4.728192523e-05
-2.172627425e-05
-5.216398921e-06
3.163189718e-05
-1.88396073e-05
2.772033092e-06
1.737877431e-05
-1.887279041e-05
2.942149587e-06
1.325388049e-05
-2.358600277e-05
-4.935851363e-06
1.816947691e-05
-2.720804496e-05
-1.382154192e-05
2.650529529e-05
-3.32462001e-05
-1.528031686e-05
3.588489601e-05
-4.329275867e-05
-1.224181351e-05
4.231710629e-05
-5.085604733e-05
-7.233155523e-06
4.347626689e-05
-5.419646469e-05
-1.595665574e-06
3.897413091e-05
-5.384436989e-05
3.90936198e-06
2.976136201e-05
-5.153424395e-05
8.331615825e-06
1.731286267e-05
-4.898902507e-05
1.099259433e-05
-4.624873568e-05
1.47016644e-05
6.051848705e-05
-5.870496997e-05
-5.762980734e-05
6.457043045e-05
-5.659971593e-05
-1.698486602e-05
4.983645013e-05
-5.248310537e-05
6.506037019e-06
3.42157995e-05
-4.898909575e-05
1.094279075e-05
2.550323698e-05
-4.538728565e-05
5.847269905e-06
2.215246436e-05
-4.184937801e-05
1.158929817e-06
1.963512027e-05
-3.779572723e-05
5.057043428e-07
1.540787458e-05
-3.441989318e-05
2.536752841e-06
1.068313797e-05
-2.617820581e-05
8.152690075e-06
7.205353432e-06
-2.739052366e-05
2.158268257e-06
9.981253319e-06
-2.997511972e-05
-7.916958087e-06
1.601897058e-05
-3.057578153e-05
-1.3240363e-05
2.057278607e-05
-2.934781079e-05
-1.26415725e-05
2.061615802e-05
-2.662815365e-05
-7.812976443e-06
1.2995418e-05
-2.133841067e-05
-5.374325282e-07
4.959602808e-06
-1.719091874e-05
-1.342288319e-06
1.087527842e-05
-2.196645924e-05
-1.717236959e-05
2.562287185e-05
-1.504960959e-05
-3.15137548e-05
3.931808158e-05
-9.783633943e-06
-3.305416097e-05
4.727409496e-05
-9.556932981e-06
-2.634062607e-05
4.74634212e-05
-1.095540919e-05
-1.487858251e-05
4.017817737e-05
-1.13093241e-05
-3.13164368e-06
2.847380667e-05
-1.145219971e-05
4.317010957e-06
1.734558791e-05
-1.323591246e-05
5.491380276e-06
1.165324341e-05
-1.861238538e-05
7.187595637e-07
1.150865924e-05
-1.998134476e-05
-7.082093045e-06
1.862223142e-05
-3.139060302e-05
-8.969134719e-06
2.971281797e-05
-4.578772568e-05
-8.59558647e-06
3.79455294e-05
-5.322362245e-05
-5.865119944e-06
4.054570131e-05
-5.51662717e-05
-1.630363567e-06
3.728709854e-05
-5.3731535e-05
3.145753234e-06
2.910692839e-05
-5.056222191e-05
7.208117881e-06
1.728937718e-05
-4.71361012e-05
9.964582032e-06
-4.318806262e-05
1.422865156e-05
5.065991929e-05
-3.514400411e-05
-5.891393847e-05
5.697430323e-05
-4.072076495e-05
-2.219325125e-05
4.690499741e-05
-4.368298863e-05
1.269323903e-06
3.575426527e-05
-4.408811019e-05
6.249894762e-06
2.920741725e-05
-4.202230581e-05
3.182052118e-06
2.629979997e-05
-3.87805379e-05
-1.609880064e-07
2.432697737e-05
-3.483916196e-05
-9.834419671e-07
2.05812073e-05
-3.105793492e-05
3.84178454e-07
1.516100417e-05
-2.480289297e-05
4.045321077e-06
1.104033882e-05
-2.290010468e-05
-3.692936797e-07
1.291804466e-05
-2.282564889e-05
-9.026717182e-06
1.799203884e-05
-2.186439943e-05
-1.378493443e-05
2.25209002e-05
-2.055670262e-05
-1.33195686e-05
2.437575871e-05
-1.927125346e-05
-9.211418152e-06
2.362203174e-05
-1.706465073e-05
-3.519758296e-06
2.024448199e-05
-1.425125696e-05
4.380996213e-07
1.937366181e-05
-1.563155895e-05
-5.463922447e-06
2.517321546e-05
-4.722286727e-06
-1.612675194e-05
3.224159373e-05
-5.925450018e-07
-1.625935555e-05
3.532490095e-05
-4.078310834e-06
-8.561841028e-06
3.240789708e-05
-8.571592804e-06
5.33256958e-07
2.615162698e-05
-1.168544123e-05
6.632447848e-06
1.942651981e-05
-1.348413482e-05
8.757097605e-06
1.079883964e-05
-1.466927136e-05
1.006109063e-05
1.955229476e-06
-2.01564948e-05
1.038777007e-05
5.980751766e-07
-2.301944546e-05
4.39531098e-06
1.073129102e-05
-3.749420725e-05
-4.029552375e-06
2.520879805e-05
-5.024794633e-05
-1.001724499e-05
3.57573351e-05
-5.443435888e-05
-9.337785669e-06
4.029194721e-05
-5.438045212e-05
-5.320446623e-06
3.828390039e-05
-5.190424885e-05
1.807146135e-07
3.030636634e-05
-4.815897168e-05
5.574213304e-06
1.804677933e-05
-4.419810678e-05
9.32149823e-06
-3.928717007e-05
1.414578069e-05
3.712109436e-05
-1.762050613e-05
-3.838463346e-05
3.868743835e-05
-3.31196422e-05
-9.167391597e-06
3.311277455e-05
-4.089412808e-05
2.78595685e-06
3.0713451e-05
-4.286962251e-05
1.181040955e-06
3.02344248e-05
-4.051858114e-05
-1.024443309e-06
2.995158337e-05
-3.64850597e-05
-2.012330839e-06
2.918295506e-05
-3.188679991e-05
-2.183369952e-06
2.681654713e-05
-2.749570543e-05
-1.195398517e-06
2.252554201e-05
-2.165875228e-05
1.14734061e-06
1.795900839e-05
-1.787669372e-05
-4.563766419e-07
1.733050583e-05
-1.556674589e-05
-6.629910291e-06
1.950212719e-05
-1.311745922e-05
-1.091809971e-05
2.101039537e-05
-1.136875315e-05
-1.069580386e-05
2.017398777e-05
-1.157519457e-05
-6.859298529e-06
1.874840183e-05
-1.393957633e-05
-1.699200063e-06
1.620735503e-05
-1.435039582e-05
2.640414852e-06
1.535819944e-05
-1.574652696e-05
9.642974914e-07
2.082079437e-05
-8.027395935e-06
-2.157341334e-06
2.91015991e-05
-8.514256543e-06
-3.589738355e-07
3.358189659e-05
-1.302632937e-05
4.467824416e-06
3.201481921e-05
-1.575533983e-05
8.750918484e-06
2.515630472e-05
-1.674754825e-05
1.192071296e-05
1.502273987e-05
-1.736098066e-05
1.401049976e-05
3.309135109e-07
-1.74525502e-05
1.747519306e-05
-1.197296426e-05
-2.499183408e-05
1.713931168e-05
-8.437212267e-06
-3.213842403e-05
5.583321158e-06
7.073142043e-06
-4.224725609e-05
-1.075722552e-05
2.350499337e-05
-4.879632369e-05
-1.788341351e-05
3.55346173e-05
-5.005840247e-05
-1.640555148e-05
4.150160527e-05
-4.944770183e-05
-1.08997519e-05
4.030949021e-05
-4.716726953e-05
-3.544915516e-06
3.212636999e-05
-4.369946041e-05
3.723521918e-06
1.889047804e-05
-3.996289518e-05
9.000560537e-06
-3.469216535e-05
1.429533766e-05
3.544935123e-05
-1.906310423e-05
-3.324981442e-06
3.118573671e-05
-3.440887435e-05
5.552957524e-06
2.93710356e-05
-4.090760616e-05
1.82839962e-06
3.157039183e-05
-4.180653269e-05
-3.262156515e-06
3.410392313e-05
-3.869189333e-05
-4.359877414e-06
3.517806315e-05
-3.403375921e-05
-3.525050167e-06
3.483550541e-05
-2.896779563e-05
-2.576005594e-06
3.313565832e-05
-2.425914143e-05
-1.536227446e-06
3.042498739e-05
-1.919347587e-05
2.459233188e-07
2.622811086e-05
-1.488096687e-05
1.20169489e-06
2.255280594e-05
-1.084732889e-05
-1.043583087e-06
2.005665146e-05
-6.733865807e-06
-3.886950687e-06
1.756188743e-05
-5.613537452e-06
-3.260016111e-06
1.465857735e-05
-8.626314331e-06
-4.519852713e-08
1.332633477e-05
-1.468575524e-05
2.078728165e-06
1.340863748e-05
-1.727792346e-05
2.845470225e-06
1.416893912e-05
-1.803881282e-05
1.532177569e-06
1.899056466e-05
-1.443986346e-05
1.591002715e-06
2.57990978e-05
-1.700151474e-05
1.678861555e-06
2.892944541e-05
-1.978834912e-05
3.631796327e-06
2.659338898e-05
-2.081173992e-05
7.392576942e-06
1.941202777e-05
-2.143995851e-05
1.187389184e-05
7.478264959e-06
-2.125948633e-05
1.583238644e-05
-7.375264029e-06
-2.205576926e-05
1.945686689e-05
-1.564491286e-05
-2.968935401e-05
1.296728465e-05
-9.204233533e-06
-3.552193427e-05
-3.05706612e-06
6.70361056e-06
-3.933467972e-05
-1.882032977e-05
2.282838519e-05
-4.085222096e-05
-2.406879688e-05
3.49944985e-05
-4.090602816e-05
-2.131843987e-05
4.121940586e-05
-4.129288469e-05
-1.43797263e-05
4.033404407e-05
-4.036269217e-05
-5.919261766e-06
3.208478503e-05
-3.789911939e-05
2.448832114e-06
1.842022351e-05
-3.51725743e-05
8.874119135e-06
-3.057282558e-05
1.430074498e-05
2.875632908e-05
-2.530554872e-05
9.618315904e-06
2.53355644e-05
-3.382633423e-05
2.838474977e-06
2.778548697e-05
-3.829564448e-05
-5.061554028e-06
3.349852761e-05
-3.862494905e-05
-8.894230476e-06
3.855245858e-05
-3.54130956e-05
-8.332288995e-06
4.102710445e-05
-3.083694582e-05
-5.670973905e-06
4.096051317e-05
-2.58455968e-05
-3.055077868e-06
3.894666677e-05
-2.116706779e-05
-1.077661031e-06
3.575659179e-05
-1.684241884e-05
8.3960709e-07
3.102406811e-05
-1.311844372e-05
2.970592696e-06
2.496232539e-05
-9.46174431e-06
4.67672952e-06
1.880891417e-05
-5.872562862e-06
5.292633268e-06
1.349561309e-05
-6.35490838e-06
6.055132862e-06
1.052330404e-05
-1.099677036e-05
5.34315624e-06
1.160507161e-05
-1.76508451e-05
1.883651312e-06
1.461680246e-05
-2.100263122e-05
7.132473883e-07
1.555919523e-05
-2.12966346e-05
2.315651372e-06
1.709944978e-05
-2.020575291e-05
4.22582339e-06
2.106515138e-05
-2.449094955e-05
3.523899409e-06
2.34172324e-05
-2.738124486e-05
5.240968964e-06
2.116747743e-05
-2.75089729e-05
8.947137581e-06
1.528388074e-05
-2.864796477e-05
1.309175181e-05
4.284548203e-06
-2.730363661e-05
1.704362819e-05
-8.230700104e-06
-2.799206786e-05
1.84516855e-05
-1.343215196e-05
-3.41378327e-05
9.65005233e-06
-6.824246921e-06
-3.65581407e-05
-5.571595994e-06
7.495231519e-06
-3.341095279e-05
-2.024311153e-05
2.161288862e-05
-3.044519475e-05
-2.452459316e-05
3.186580196e-05
-3.010161317e-05
-2.105726701e-05
3.648465081e-05
-3.268148714e-05
-1.323023856e-05
3.506119003e-05
-3.407110692e-05
-4.868162352e-06
2.717566565e-05
-3.304131813e-05
3.027648932e-06
1.490647083e-05
-3.20249883e-05
9.12150498e-06
-2.955525348e-05
1.388878128e-05
1.810034772e-05
-2.331059218e-05
1.109077697e-05
1.761575702e-05
-2.999896083e-05
-3.342347983e-06
2.590840233e-05
-3.382384267e-05
-1.276396696e-05
3.540837394e-05
-3.307174346e-05
-1.505265508e-05
4.291970068e-05
-3.000321709e-05
-1.292065425e-05
4.687125158e-05
-2.614507032e-05
-8.642839027e-06
4.727798665e-05
-2.197284833e-05
-4.278859724e-06
4.471294985e-05
-1.787193393e-05
-7.294485996e-07
3.995483422e-05
-1.417210867e-05
2.088459705e-06
3.343120299e-05
-1.121789145e-05
4.623719363e-06
2.542646709e-05
-8.789208509e-06
7.332807676e-06
1.726250527e-05
-7.058904535e-06
9.35085782e-06
1.020818749e-05
-8.084137054e-06
8.784028523e-06
6.899023486e-06
-1.258844723e-05
4.901243449e-06
8.799225926e-06
-1.856182541e-05
-9.889033101e-07
1.224342589e-05
-2.241056935e-05
-2.035971839e-06
1.318221073e-05
-2.479365246e-05
2.558488893e-06
1.35761908e-05
-2.73506456e-05
6.751138702e-06
1.648400558e-05
-3.404148617e-05
6.642926041e-06
1.762526413e-05
-3.733684939e-05
8.814536244e-06
1.463995928e-05
-3.603291254e-05
1.150942777e-05
1.051725045e-05
-3.762072614e-05
1.309565052e-05
3.462347521e-06
-3.648029306e-05
1.623173065e-05
-3.969735317e-06
-3.713625725e-05
1.657642236e-05
-7.080042446e-06
-4.140118597e-05
1.037378023e-05
-1.680834946e-06
-4.102425357e-05
-9.330125809e-07
9.595907596e-06
-3.00988248e-05
-1.458882887e-05
1.805235215e-05
-1.970105205e-05
-1.920055688e-05
2.119843329e-05
-1.788506801e-05
-1.536262595e-05
2.180829834e-05
-2.743322198e-05
-5.858149306e-06
1.927559097e-05
-3.276078068e-05
1.222343865e-06
1.370455625e-05
-3.386684002e-05
6.396499402e-06
6.779228176e-06
-3.478586066e-05
9.68612873e-06
-3.565518343e-05
1.287908089e-05
1.701418271e-05
-1.556269582e-05
9.000738743e-06
1.702507132e-05
-2.176003766e-05
-8.249011559e-06
2.703649947e-05
-2.568058584e-05
-1.815400166e-05
3.817506889e-05
-2.481571366e-05
-1.939393333e-05
4.685542899e-05
-2.250158268e-05
-1.61813259e-05
5.164332996e-05
-1.98649382e-05
-1.106734283e-05
5.259340855e-05
-1.709210664e-05
-5.830105738e-06
4.983934976e-05
-1.404925883e-05
-1.067889226e-06
4.365097745e-05
-1.105517933e-05
3.072161469e-06
3.471703258e-05
-8.702282653e-06
6.419025609e-06
2.365136187e-05
-6.856146442e-06
9.133253891e-06
1.324992121e-05
-7.018133617e-06
1.036125574e-05
5.840723103e-06
-9.295628222e-06
8.62120011e-06
3.436908573e-06
-1.493119007e-05
4.746968425e-06
4.811626739e-06
-1.993432295e-05
-2.040511447e-09
6.03420781e-06
-2.435220494e-05
7.193591075e-07
6.081435959e-06
-3.16138445e-05
6.773264818e-06
6.812986516e-06
-3.875627297e-05
1.067436064e-05
1.046686266e-05
-4.825320094e-05
1.05581054e-05
1.111917965e-05
-5.101256812e-05
1.302364842e-05
8.017144807e-06
-4.696239733e-05
1.403174904e-05
5.867898571e-06
-4.723132773e-05
1.176006224e-05
2.017735603e-06
-4.633706635e-05
1.370712555e-05
-1.80389166e-06
-4.702484604e-05
1.371036728e-05
-3.541456054e-06
-4.972161688e-05
1.005810202e-05
-2.163518238e-06
-4.819631542e-05
5.794174332e-06
3.950276621e-06
-3.618741842e-05
-2.525250709e-08
9.169226911e-06
-2.280178106e-05
-2.118244339e-06
9.667673085e-06
-2.280199035e-05
4.418451443e-06
5.883284006e-06
-3.336168776e-05
9.712818432e-06
1.962299856e-06
-3.863270213e-05
9.792864786e-06
2.29361904e-07
-4.101448345e-05
8.880540989e-06
-4.83531613e-07
-4.323723281e-05
9.164231683e-06
-4.800589438e-05
1.186715302e-05
3.291949764e-06
-1.066403881e-05
-3.424719551e-07
1.192002027e-05
-1.512146184e-05
-1.526577026e-05
2.632982607e-05
-1.726877651e-05
-2.28208206e-05
3.970533638e-05
-1.600137625e-05
-2.218907517e-05
4.906678088e-05
-1.413050367e-05
-1.773175214e-05
5.404982811e-05
-1.265807625e-05
-1.218912526e-05
5.526616311e-05
-1.134933446e-05
-6.958312314e-06
5.270088784e-05
-9.518404596e-06
-1.964785763e-06
4.575228615e-05
-7.258203248e-06
3.152399477e-06
3.435031188e-05
-5.254790295e-06
7.95521944e-06
2.024803879e-05
-3.955000617e-06
1.120181532e-05
9.64594772e-06
-7.330511005e-06
1.091509588e-05
4.00618016e-06
-1.181161248e-05
8.156315246e-06
1.088751008e-06
-1.916534169e-05
7.152078755e-06
-1.057535228e-06
-2.595217313e-05
8.164558035e-06
-3.554508021e-06
-3.296914191e-05
1.111431479e-05
-3.032529024e-06
-4.47651133e-05
1.262967865e-05
1.873683206e-06
-5.388668311e-05
1.022457122e-05
7.877933445e-06
-6.367925526e-05
9.422159589e-06
8.740093004e-06
-6.479447914e-05
1.292007322e-05
5.34300547e-06
-5.883574487e-05
1.527071682e-05
3.676076036e-06
-5.694306455e-05
1.137890535e-05
6.954048596e-07
-5.503632209e-05
1.168011976e-05
-2.135793281e-06
-5.510952037e-05
1.091600934e-05
-2.21626228e-06