/*--------------------------------*- C++ -*----------------------------------*\
  =========                 |
  \\      /  F ield         | OpenFOAM: The Open Source CFD Toolbox
   \\    /   O peration     | Website:  https://openfoam.org
    \\  /    A nd           | Version:  8
     \\/     M anipulation  |
\*---------------------------------------------------------------------------*/
FoamFile
{
    version     2.0;
    format      ascii;
    class       volVectorField;
    location    "1.7";
    object      U;
}
// * * * * * * * * * * * * * * * * * * * * * * * * * * * * * * * * * * * * * //

dimensions      [0 1 -1 0 0 0 0];

internalField   nonuniform List<vector> 
67193
(
(-0.09860034886 -0.08771820262 0.06972716103)
(-0.07870309615 -0.0935914805 0.06124522694)
(-0.0433818463 -0.09463146432 0.05659374737)
(-0.01194489176 -0.09770093284 0.05587913647)
(0.03673330398 -0.09988869935 0.06992429378)
(0.04954368457 -0.09843985086 0.08008321412)
(0.08820526391 -0.1044753392 0.1079334543)
(0.06405513942 -0.09943756209 0.1108600315)
(0.1088347142 -0.1672309448 0.150060337)
(0.2067001246 -0.1366968283 0.1383413155)
(0.2064633917 -0.1088801437 0.1376366088)
(0.2013614654 -0.09701832386 0.1268387973)
(0.1915107086 -0.09473886903 0.1171382831)
(0.1890470579 -0.09483050921 0.1116261915)
(0.1901124542 -0.09469335535 0.1083460675)
(0.1965438714 -0.0958941903 0.106661904)
(0.2027244753 -0.09314774453 0.1052147969)
(0.2125359672 -0.09634305487 0.1066766261)
(0.2281745001 -0.09287639643 0.1055348337)
(0.2381383572 -0.08797689529 0.1032926217)
(0.2422573649 -0.08275789756 0.1013970124)
(0.239013835 -0.07761122704 0.1009391843)
(0.2281290188 -0.07408608576 0.1024470383)
(0.2133568913 -0.07288421256 0.1055840918)
(0.1971995738 -0.06954447107 0.1086346223)
(0.1777469155 -0.06320088342 0.1095727047)
(0.1550258885 -0.05686942615 0.1066012623)
(0.1318318411 -0.0542632429 0.09929861)
(0.1112074186 -0.0561830592 0.08969320599)
(0.09864652141 -0.06031178813 0.08091498057)
(0.0859482941 -0.06408848569 0.07580195416)
(0.08528387426 -0.06689337933 0.07459355918)
(0.06998476102 -0.05893280467 0.07605515245)
(0.06253501932 -0.006502581963 0.07336228765)
(-0.08316315567 -0.1679170523 0.04552688154)
(-0.07383793634 -0.1799886628 0.03485896258)
(-0.04199989738 -0.1760482946 0.02642987248)
(-0.02040526174 -0.1843009489 0.0229968823)
(0.02616931931 -0.1903050556 0.03784272444)
(0.02996244632 -0.1926903739 0.05184087829)
(0.06701537613 -0.2117502819 0.09458115506)
(0.02435091076 -0.2089751945 0.08923894635)
(0.08526540496 -0.3880479223 0.06301876317)
(0.1954647713 -0.3167342564 0.09651720036)
(0.1928008241 -0.244656924 0.1271377476)
(0.178513219 -0.2157919183 0.111247946)
(0.1652864965 -0.2083210611 0.08774907103)
(0.1644949068 -0.2091227318 0.07603892478)
(0.1674261354 -0.209580598 0.07165084502)
(0.1772602571 -0.2152356605 0.07415181087)
(0.1813583732 -0.2111691064 0.07855761398)
(0.189459454 -0.2295852338 0.08898836238)
(0.209826179 -0.2257254718 0.09409137173)
(0.2195611937 -0.2143899153 0.09605034339)
(0.2210016014 -0.2008003068 0.09638459594)
(0.2134953173 -0.1874119914 0.09580450721)
(0.1997226918 -0.1798768904 0.09376042052)
(0.1862369481 -0.1821550018 0.09262677561)
(0.1748154252 -0.1837885231 0.09566292743)
(0.1634577734 -0.1824891337 0.1021567878)
(0.1536933241 -0.1776191848 0.1078697468)
(0.1430200391 -0.1685741035 0.1086163343)
(0.1266184172 -0.1587078048 0.1020693744)
(0.1068501591 -0.1516560583 0.09056666048)
(0.07755550627 -0.1477317014 0.08087678879)
(0.05365035633 -0.1470702364 0.07678342547)
(0.01382474329 -0.1427561889 0.0783247463)
(0.0002785999498 -0.07103468696 0.07547899399)
(-0.0633594022 -0.263868547 0.05008067537)
(-0.07109334797 -0.2801734657 0.03769752232)
(-0.03999252028 -0.2665480658 0.02166885367)
(-0.02870725905 -0.2787061668 0.01718793272)
(0.01388389435 -0.2857184723 0.03346625975)
(0.004501176609 -0.2982588118 0.05234657428)
(0.03746381431 -0.3316769105 0.1112227987)
(-0.03166557539 -0.3421995823 0.06330586018)
(0.08685062912 -0.6002372097 -0.1237002152)
(0.211224796 -0.5164873984 0.001121397948)
(0.2193963258 -0.3998436447 0.116347182)
(0.1842916261 -0.343593865 0.1193110682)
(0.1556809302 -0.3218233112 0.08253230822)
(0.149287112 -0.3204035184 0.05773292886)
(0.1489338178 -0.3196023768 0.04652002634)
(0.1614179273 -0.3308076746 0.05244229634)
(0.1594937872 -0.3265695895 0.05996224702)
(0.1672346949 -0.3754889958 0.07137625466)
(0.2015681097 -0.3773012423 0.08128678005)
(0.2163151896 -0.3570283201 0.08991869882)
(0.2172014193 -0.3326448764 0.09331463484)
(0.2067039837 -0.3103971573 0.09057347773)
(0.1934727961 -0.2980782747 0.07984942791)
(0.1863885139 -0.3017366946 0.0690152286)
(0.1825358568 -0.3067206901 0.06667546353)
(0.1794059573 -0.3137825763 0.07108758302)
(0.1805616659 -0.3168210347 0.07995199085)
(0.1794339435 -0.3055963757 0.09404816197)
(0.165596241 -0.2817219635 0.1064380527)
(0.1383653694 -0.2552401366 0.1071264749)
(0.0951446324 -0.2351258717 0.09734752126)
(0.05544901954 -0.22560208 0.08595690512)
(0.003915406502 -0.2277706594 0.08131426778)
(-0.01416375671 -0.213054727 0.08282258783)
(-0.02578822211 -0.3363651728 0.07206698805)
(-0.06188087845 -0.3516153227 0.0624682159)
(-0.03256165176 -0.3238102569 0.03230222142)
(-0.0367103155 -0.3358450256 0.02697054062)
(-0.005762425316 -0.3409991899 0.04501097385)
(-0.03395683928 -0.3678909982 0.06996506748)
(-0.02782624155 -0.4168829898 0.1092015002)
(-0.1015479401 -0.4569222996 -0.03264096903)
(0.1086957018 -0.6839683025 -0.3430213859)
(0.2408136781 -0.6398639196 -0.1782357559)
(0.2823044241 -0.5170530234 0.03417833941)
(0.2242260318 -0.4356025532 0.1171093697)
(0.1669252773 -0.3942654724 0.09502085801)
(0.1451923788 -0.3875137472 0.0557521543)
(0.1351260629 -0.3838091508 0.03458088911)
(0.1478574704 -0.4020489774 0.04496753346)
(0.1340553271 -0.3993451824 0.04826746155)
(0.1488942291 -0.4941778499 0.03052541228)
(0.2039819149 -0.5102535867 0.04464671279)
(0.2301176608 -0.4778772221 0.0730149277)
(0.2299352655 -0.4385963446 0.08854724241)
(0.2122806448 -0.4056712132 0.08483140344)
(0.1955254752 -0.3870749421 0.06300467906)
(0.192453512 -0.3891179172 0.04206944639)
(0.1940682092 -0.3954739171 0.03161650681)
(0.20094119 -0.4123058629 0.02275457357)
(0.2171927176 -0.4281931696 0.01990619037)
(0.2319790666 -0.4244710022 0.03678744268)
(0.2299659442 -0.3978382585 0.07190448207)
(0.2034526626 -0.3566283871 0.104944258)
(0.1504810584 -0.3171224431 0.1161392523)
(0.09707347154 -0.2964352903 0.1038239568)
(0.03977606661 -0.3041093066 0.08920554573)
(0.01264617055 -0.3238225332 0.0902884754)
(0.03774974592 -0.4360065252 0.09621295797)
(-0.03531980869 -0.4358026722 0.1098993392)
(-0.01307540965 -0.3897997677 0.05841980355)
(-0.03913557082 -0.391211463 0.04906135428)
(-0.03010943427 -0.3903098473 0.06578738101)
(-0.0862342374 -0.4229756982 0.08596508279)
(-0.1303104744 -0.4758584596 0.0362898323)
(-0.1654097524 -0.5366048388 -0.1955108783)
(0.1220976121 -0.6728276521 -0.474657859)
(0.2763501625 -0.6515147086 -0.3343562911)
(0.3657653161 -0.5742810365 -0.1166217564)
(0.2947130921 -0.4956515961 0.06725904673)
(0.2010105578 -0.445939887 0.105622773)
(0.153009032 -0.433386502 0.06690680671)
(0.1242179956 -0.4274559853 0.03936961272)
(0.1312251294 -0.4536901193 0.05484317616)
(0.09699278522 -0.4546819277 0.03467444916)
(0.1393098267 -0.5897093234 -0.0556926346)
(0.2150872906 -0.6241091577 -0.03834959506)
(0.2605302205 -0.583264045 0.02431481563)
(0.259975851 -0.5274148038 0.0731405688)
(0.2298184232 -0.4799081695 0.08144919711)
(0.2009543924 -0.4514755934 0.05249303772)
(0.1945712321 -0.4486524855 0.02333480822)
(0.1952895008 -0.4543967759 0.001992881068)
(0.213017659 -0.4776665092 -0.02935777144)
(0.2466040734 -0.502505851 -0.05313935732)
(0.2802120112 -0.5082937177 -0.04841824289)
(0.296361448 -0.4904560667 -0.007619012902)
(0.2820438035 -0.4518652123 0.05606729967)
(0.2285714802 -0.4045011787 0.1080404217)
(0.1602519402 -0.3727048215 0.1176880289)
(0.08616337496 -0.3755814144 0.1004021039)
(0.03974084858 -0.4018656493 0.09774884327)
(0.1291000509 -0.5769716145 0.05629976399)
(0.03313975929 -0.5311537395 0.159492732)
(0.02950129774 -0.457270184 0.09859990124)
(-0.02455883069 -0.4324970581 0.07704437657)
(-0.04325364275 -0.416015534 0.08154218233)
(-0.1292705104 -0.4322979568 0.07425895124)
(-0.2126832906 -0.469346927 -0.06771080687)
(-0.1897743735 -0.5233181039 -0.311243721)
(0.1202401197 -0.5901739949 -0.5358223751)
(0.3064792014 -0.5746886366 -0.4119419085)
(0.4203758376 -0.5356773709 -0.2297195843)
(0.3539360079 -0.4893535857 -0.0106471425)
(0.2364839917 -0.4588097869 0.09071590698)
(0.1645041759 -0.4514292379 0.0767297225)
(0.1105217389 -0.4503593704 0.05688882724)
(0.1009812452 -0.4845118038 0.07431099435)
(0.03786669984 -0.4929133447 -0.0007237921015)
(0.1388847517 -0.6317089275 -0.1694481095)
(0.2306742353 -0.6802894234 -0.1499519449)
(0.3042522706 -0.6471414276 -0.06482062389)
(0.3090520759 -0.5825845851 0.02949723008)
(0.2639146486 -0.520620763 0.07345399328)
(0.2120646304 -0.4805823833 0.05159138839)
(0.1907856316 -0.4717087474 0.0176167016)
(0.1804004023 -0.4759880105 -0.01877242721)
(0.2086563653 -0.4994090799 -0.07438800529)
(0.2593758595 -0.5261308885 -0.1118705529)
(0.3116210547 -0.5401087453 -0.1207818261)
(0.3466446001 -0.5367196558 -0.09396729684)
(0.3485458393 -0.5113404808 -0.02318469165)
(0.303926562 -0.470916331 0.062833931)
(0.2270373531 -0.4342740656 0.1107566317)
(0.1306252203 -0.4267919832 0.1087176403)
(0.06094403747 -0.4463545282 0.1059631838)
(0.2527994769 -0.738174981 -0.1194648625)
(0.1716400531 -0.6316953164 0.1433650087)
(0.1130144446 -0.5273945801 0.1457094122)
(0.02463629012 -0.4633100745 0.1075648823)
(-0.01602326733 -0.4191787085 0.08473157197)
(-0.105568939 -0.3965587266 0.06073919661)
(-0.1971283914 -0.4045159969 -0.08893722606)
(-0.1651285246 -0.448174925 -0.3146166553)
(0.1210841585 -0.4311097777 -0.5416459153)
(0.3027121278 -0.4283845217 -0.4130709066)
(0.3981063737 -0.431028839 -0.2308021663)
(0.3370316758 -0.4241708725 -0.03842951295)
(0.2304382988 -0.4339832783 0.06009646953)
(0.1617219427 -0.4452763932 0.07103936133)
(0.08716296602 -0.4556405025 0.07668168248)
(0.04452887595 -0.492064789 0.08131523859)
(-0.03694743572 -0.5079367743 -0.07159740742)
(0.134976738 -0.6259504428 -0.2714727392)
(0.2471172474 -0.6688051223 -0.2450293909)
(0.3503847655 -0.6452713234 -0.1642185316)
(0.3727008904 -0.5898955071 -0.04584205547)
(0.3170520737 -0.5218651883 0.04771376982)
(0.2342040405 -0.472801378 0.05546569257)
(0.184424616 -0.4575228802 0.02316908543)
(0.1526329834 -0.4590895389 -0.03358951904)
(0.1900337738 -0.4824553185 -0.1124816696)
(0.2552448774 -0.5096650251 -0.1513360032)
(0.3238099281 -0.5272576312 -0.1588398188)
(0.3721500508 -0.5352325207 -0.1433284574)
(0.3903501512 -0.5283981418 -0.08793848664)
(0.3559829258 -0.5018048467 0.007662266178)
(0.2793641573 -0.4694459012 0.08551286842)
(0.1673039765 -0.4549456624 0.1083063318)
(0.07750651063 -0.4640333564 0.1132357724)
(0.3681694052 -0.8124873901 -0.328670044)
(0.3612205107 -0.6985946772 0.02192179715)
(0.2419392831 -0.5821947536 0.1606541234)
(0.1139994296 -0.4901360429 0.1367772253)
(0.05980017125 -0.428156921 0.08022406148)
(0.008253009273 -0.3681689756 0.06715780462)
(-0.04999875546 -0.3352068736 0.01668712577)
(-0.04468429612 -0.3575667529 -0.1741526638)
(0.1337054013 -0.2846069727 -0.4744279072)
(0.2155201344 -0.274012631 -0.3038077325)
(0.2531999424 -0.3145911067 -0.09792839385)
(0.2113019992 -0.3605748907 0.001684282856)
(0.1697591147 -0.4095009086 0.02407092626)
(0.1393276725 -0.4278249987 0.04728423878)
(0.05827163141 -0.4390086286 0.0881335404)
(-0.03589175373 -0.4668711956 0.04701360715)
(-0.08945210982 -0.4887884526 -0.1548190757)
(0.1232984103 -0.5784870505 -0.3422239017)
(0.2611239161 -0.6024083584 -0.3108565012)
(0.3891970928 -0.5836418957 -0.2424025217)
(0.4317831476 -0.5371888697 -0.1289678551)
(0.3809594287 -0.4757601571 -0.0006187133701)
(0.2687214571 -0.4252249764 0.05344046191)
(0.1808123481 -0.4058150386 0.03375539924)
(0.1217105459 -0.4093121025 -0.04526351606)
(0.1668250787 -0.4338579223 -0.1435696932)
(0.2395638078 -0.462418879 -0.1765639876)
(0.319293903 -0.487613424 -0.1735016153)
(0.3763389591 -0.5076189245 -0.1539406698)
(0.4034840938 -0.5151089912 -0.1099228861)
(0.3774150162 -0.5018350526 -0.02369583816)
(0.3057095989 -0.477459967 0.06113305697)
(0.1894215452 -0.4614422671 0.1006866348)
(0.08880943071 -0.4608752402 0.1170393469)
(0.4332298851 -0.7967615566 -0.4387673023)
(0.5198376479 -0.7018911092 -0.1051802377)
(0.3758112711 -0.5942829108 0.1246685981)
(0.2123891493 -0.5032814831 0.1515435575)
(0.1336032342 -0.4432207124 0.0805465875)
(0.0972254564 -0.3917465756 0.0422057617)
(0.102515514 -0.3531868381 0.06400898436)
(0.05694510737 -0.3004614252 0.02748103725)
(0.1070542276 0.02583144856 -0.08729233285)
(0.1114896138 -0.08899350339 0.04994649968)
(0.0754818967 -0.3011512606 0.04642900223)
(0.104246269 -0.3788407603 -0.02987918921)
(0.1283875158 -0.4054912706 -0.03749963684)
(0.12986351 -0.3993311908 0.0112186516)
(0.04792988849 -0.3913012488 0.08280170797)
(-0.09114774796 -0.3997540597 -0.006636261768)
(-0.09937841734 -0.4338472046 -0.2170007966)
(0.1126970035 -0.4863788621 -0.3793893238)
(0.2700773679 -0.4893625357 -0.3532572394)
(0.4108011217 -0.4736262409 -0.2933959509)
(0.4684501607 -0.4346729751 -0.1924194096)
(0.4341701024 -0.38297563 -0.05705055272)
(0.3068972221 -0.3389691959 0.03863539051)
(0.1833596499 -0.3206581598 0.04189113078)
(0.09924445044 -0.3333787759 -0.05146913891)
(0.1459601916 -0.3615041467 -0.1597743227)
(0.2151034219 -0.3937004711 -0.1827268448)
(0.2974034789 -0.4329771414 -0.1660144419)
(0.3597816784 -0.4703455637 -0.1363793123)
(0.3907605942 -0.4912066548 -0.09255490782)
(0.3701020393 -0.4876650554 -0.02069843134)
(0.3055421984 -0.4695704234 0.05167437686)
(0.1947923947 -0.4537894978 0.09164101946)
(0.09415685185 -0.4446795304 0.1164317861)
(0.4393083548 -0.7299471122 -0.4777080225)
(0.5865870583 -0.6571697065 -0.1721679821)
(0.4574247305 -0.565264986 0.07375382071)
(0.2835911346 -0.4912397193 0.1411937272)
(0.1858985847 -0.4381817191 0.08211565184)
(0.1390761089 -0.3978658004 0.03286458464)
(0.1398326645 -0.3633463313 0.04223196161)
(0.07526316844 -0.3266579231 0.06079776863)
(0.06975824942 -0.1775896494 0.1632793227)
(0.08665772924 -0.2609109242 0.1094075064)
(0.06232551068 -0.3340579144 -0.009522927335)
(0.1046153246 -0.3624639889 -0.08671557067)
(0.1391841685 -0.3648801891 -0.08415420022)
(0.1501301526 -0.3414936594 -0.02909964303)
(0.08726589234 -0.3079131802 0.05967575116)
(-0.07168296439 -0.2954647534 -0.02561970621)
(-0.06695048292 -0.3455085147 -0.2261946933)
(0.1153569913 -0.3516332761 -0.3803487242)
(0.2709019902 -0.332537507 -0.3675035823)
(0.4080444964 -0.3185733497 -0.3125095466)
(0.4702417713 -0.2929560692 -0.2200550329)
(0.4481465097 -0.2560084086 -0.09234102648)
(0.326302781 -0.2253767492 0.02042075769)
(0.1880521117 -0.2162989336 0.04471599791)
(0.09218592083 -0.2469600871 -0.04146034701)
(0.1240822448 -0.2786018386 -0.1458383191)
(0.1741854574 -0.3209694382 -0.1559532252)
(0.2554570331 -0.3862483281 -0.1296965381)
(0.3246110676 -0.4453367395 -0.09689403831)
(0.3617424384 -0.4763960283 -0.05568617301)
(0.3460155405 -0.4767573676 0.0005857965911)
(0.2906160816 -0.459799188 0.05312478072)
(0.1901561389 -0.4413382736 0.08442674696)
(0.09541467831 -0.4228524551 0.1135642532)
(0.3919342702 -0.6080361954 -0.5382801603)
(0.5759661452 -0.5697174494 -0.2505891238)
(0.4884605489 -0.5111765965 0.0006143008631)
(0.3269832535 -0.4612607464 0.1048393769)
(0.2276957392 -0.4186094018 0.07193342945)
(0.1848668658 -0.3836443718 0.02604119269)
(0.176049519 -0.3446312055 0.01593937127)
(0.1420548064 -0.3162942858 0.03194627057)
(0.1108674479 -0.2280049173 0.09645327672)
(0.06063328336 -0.2525502978 0.03375532895)
(0.0571116723 -0.2911043479 -0.07625555757)
(0.1066991308 -0.3059635259 -0.1257812963)
(0.1541200633 -0.2977225272 -0.1167781976)
(0.177905072 -0.2694154567 -0.06873787984)
(0.1602998111 -0.2155084128 0.0171986255)
(0.04858240964 -0.178264244 0.02061057593)
(0.03020487502 -0.247958214 -0.1615246702)
(0.150764136 -0.2194015376 -0.3317989914)
(0.2681935653 -0.1924496468 -0.3489370491)
(0.3645199276 -0.1852051221 -0.2939464082)
(0.3999414694 -0.1683094001 -0.1930109096)
(0.3753583174 -0.1328435659 -0.06761886444)
(0.2820130713 -0.1109617538 0.02973625093)
(0.1807770148 -0.1205445092 0.05256005116)
(0.09975880552 -0.1738805474 0.002788110321)
(0.08720737593 -0.2077487538 -0.08495599882)
(0.1032456997 -0.2698170121 -0.08721361861)
(0.1979366289 -0.3822398899 -0.08326308906)
(0.2824102516 -0.4573750412 -0.06826893708)
(0.3320938913 -0.4844809867 -0.03844178207)
(0.32742698 -0.4775220425 0.006229429216)
(0.2816513152 -0.4539067114 0.04956926646)
(0.1884825062 -0.4277122641 0.07836588484)
(0.09678575199 -0.3979924048 0.1118069995)
(0.3126342691 -0.4287683511 -0.5503326884)
(0.4956999139 -0.4352953777 -0.2608085863)
(0.4428018105 -0.4216727894 -0.03341708839)
(0.3259690878 -0.4079511652 0.06001037771)
(0.2537253044 -0.3858382971 0.04818337765)
(0.2195050222 -0.3577408604 0.01824317723)
(0.2088553125 -0.3245632737 0.005383052047)
(0.1854378184 -0.2929712987 0.01446603407)
(0.1515169684 -0.2370586431 0.05569166816)
(0.09290893766 -0.2304516941 0.01337288425)
(0.08681368887 -0.2385747966 -0.08341097383)
(0.1250130008 -0.234659316 -0.1307411165)
(0.1677936765 -0.2214593321 -0.1265671211)
(0.1963280803 -0.2026276691 -0.08900639121)
(0.2007297183 -0.1656611499 -0.02765366507)
(0.1851632491 -0.1275322254 0.03616804105)
(0.1412577936 -0.1440889947 -0.01189040392)
(0.1761572017 -0.05105826923 -0.1507912929)
(0.2346843887 0.01632847151 -0.1572689397)
(0.2863597748 0.01527858601 -0.07799702347)
(0.2866105902 -0.0240225701 0.01126765591)
(0.2422516304 -0.06668575019 0.06280554025)
(0.1840084291 -0.09347210033 0.07300324853)
(0.133204481 -0.1159622764 0.0784302199)
(0.04251631419 -0.1550831833 0.09068185444)
(-0.01174435692 -0.1435991741 0.04356708657)
(0.02202366069 -0.2867744491 -0.02861817939)
(0.153238858 -0.4326840483 -0.09918426062)
(0.2557507172 -0.4880692373 -0.1026791169)
(0.3218501686 -0.4950327131 -0.07677574068)
(0.3331074159 -0.4751761255 -0.02663493093)
(0.2923752548 -0.4422216195 0.03124445134)
(0.1972234642 -0.4077863466 0.07284869939)
(0.1005111831 -0.3672767757 0.113001397)
(0.2481223662 -0.2072557724 -0.3213170004)
(0.3493838707 -0.2933371442 -0.05122829646)
(0.2865160129 -0.3527937108 0.04308996898)
(0.252468089 -0.3761360613 0.02467661341)
(0.2466294641 -0.3617956484 0.007970444087)
(0.2445649101 -0.3317011413 0.001740554309)
(0.2428195725 -0.2944910068 -0.003121127744)
(0.2305531481 -0.2584274635 0.001339274146)
(0.2074698437 -0.203392921 0.02568810424)
(0.1571593066 -0.1764898408 0.01430199022)
(0.134788555 -0.1677313274 -0.05739915043)
(0.1484094852 -0.1553968667 -0.1072541816)
(0.1676881791 -0.145872625 -0.1090192966)
(0.1725666223 -0.1416048666 -0.07094581857)
(0.1566677313 -0.1364515089 -0.01012967702)
(0.1495151301 -0.1252951375 0.05006033438)
(0.1132334828 -0.1313451134 0.04207586592)
(0.1342527221 -0.03148027855 0.005164870341)
(0.2064397225 -0.02631326618 0.02397926435)
(0.2660184829 -0.0859569615 0.06460146255)
(0.278504622 -0.1259514488 0.09194680974)
(0.2427703828 -0.1384661856 0.1086712475)
(0.1654410305 -0.1432161314 0.1174838072)
(0.08150076607 -0.1408186873 0.1475783607)
(-0.07642696964 -0.1996037031 0.1480785874)
(-0.1206851797 -0.2632943489 0.04393293188)
(-0.01549256957 -0.3792474471 -0.1182817575)
(0.1328259845 -0.4568331092 -0.1877758411)
(0.2481218792 -0.4756453101 -0.1788213475)
(0.325164508 -0.4691488593 -0.142523792)
(0.3479544202 -0.4459295129 -0.07929446998)
(0.3109306512 -0.4119494225 0.00329420022)
(0.2085095153 -0.3756742805 0.06759534713)
(0.1030233463 -0.3284721096 0.1158075598)
(0.3120642394 -0.1044621845 0.04361804842)
(0.270517411 -0.2901599294 0.09959993367)
(0.2345945166 -0.3692954056 0.03873591643)
(0.2434866124 -0.3815168266 -0.0176163989)
(0.2695953993 -0.3545075027 -0.02438210614)
(0.2849742999 -0.3137024951 -0.01243174343)
(0.2874796255 -0.2698099796 -0.005121859215)
(0.2780072826 -0.2289127128 -0.001094101393)
(0.2622106083 -0.1809708251 0.01259905674)
(0.2320130882 -0.1410858767 0.02512409773)
(0.1944845006 -0.1094068421 -0.000575584242)
(0.1711783788 -0.07874773391 -0.03977750143)
(0.1548947223 -0.05660759023 -0.03573628329)
(0.1317591048 -0.06261718318 0.00726634144)
(0.1068735081 -0.1095962913 0.03775402803)
(0.1102692971 -0.1284230906 0.0458208851)
(0.1065588757 -0.146700284 0.02600379037)
(0.1244244475 -0.1084560928 0.02462925514)
(0.1856443384 -0.1222828635 0.01826722123)
(0.2321975105 -0.1442030575 0.02685798026)
(0.2369493247 -0.1549415758 0.05292148946)
(0.1964888452 -0.160100803 0.08943917947)
(0.1209255184 -0.1658867988 0.1242675697)
(0.001938629251 -0.1714638201 0.1610039359)
(-0.1233607269 -0.2469740117 0.08464277532)
(-0.1341959996 -0.3102806199 -0.06046907112)
(-0.01358664407 -0.370796225 -0.2074635808)
(0.1252474108 -0.4060888507 -0.2510145126)
(0.243421451 -0.4112478819 -0.2321824329)
(0.3209712125 -0.4072215414 -0.187966274)
(0.3464486623 -0.3916330571 -0.1184849819)
(0.3130338984 -0.3643445509 -0.02023860197)
(0.2063311131 -0.3337190245 0.06328153953)
(0.09730844882 -0.2869000505 0.1169570917)
(0.2760227842 -0.2264584648 0.1103883184)
(0.1979804544 -0.3138947875 0.05262914158)
(0.2094429503 -0.3565470504 -0.03084217637)
(0.2463564402 -0.3612139269 -0.07007661051)
(0.2970807435 -0.3326748831 -0.0633444349)
(0.3291762074 -0.2903270297 -0.03672175268)
(0.3379404381 -0.2439776707 -0.01260668432)
(0.3278034528 -0.201303841 0.001656690246)
(0.3063729045 -0.1598872941 0.01277287558)
(0.2757739873 -0.1234379886 0.0293379987)
(0.2290292021 -0.0824748849 0.04762811855)
(0.1759355392 -0.03967185604 0.05413258018)
(0.1299680801 -0.04199876749 0.06563322989)
(0.0905179549 -0.08941273187 0.06484889641)
(0.07986101976 -0.1500301859 0.02928391135)
(0.1092492201 -0.1775017392 0.009893666478)
(0.1274785206 -0.174198264 0.02400560042)
(0.125872755 -0.1496782263 0.04365705298)
(0.1530650707 -0.181438935 0.02551890221)
(0.188664343 -0.2073738394 0.03154325345)
(0.1909371516 -0.2129870534 0.05875804717)
(0.1541920077 -0.2187052061 0.09229240478)
(0.09616542188 -0.209593451 0.1301775811)
(-0.02586321242 -0.2182474902 0.1449838289)
(-0.1098109086 -0.27944013 0.04902344589)
(-0.1111994906 -0.3172292254 -0.08347225839)
(0.001963269273 -0.3225118231 -0.2269997036)
(0.1226636353 -0.3131902874 -0.2662458857)
(0.2260888721 -0.309107436 -0.2455897641)
(0.2874164646 -0.32342478 -0.191437169)
(0.3037066194 -0.3254139699 -0.116749506)
(0.2698429666 -0.3092671469 -0.01676932545)
(0.1702455048 -0.2911733292 0.06597011327)
(0.07545671252 -0.256694185 0.114008814)
(0.1920704846 -0.2275554729 0.1234081786)
(0.1060898325 -0.2930604411 -0.009337888379)
(0.1776606979 -0.3265847894 -0.1012694672)
(0.2482654359 -0.3230136361 -0.1229955091)
(0.3240585348 -0.2944507956 -0.1061836864)
(0.3720800091 -0.2563621948 -0.07067003764)
(0.3896088099 -0.2146350926 -0.03269145393)
(0.3799198654 -0.174406023 -0.001947136248)
(0.3481908227 -0.1386586531 0.01808883819)
(0.3023670122 -0.1094262193 0.03431494167)
(0.2422017187 -0.08505582882 0.05773833025)
(0.17139237 -0.06387958334 0.08205518269)
(0.1100604768 -0.06988795183 0.08202225683)
(0.0553280618 -0.1055794801 0.04771729508)
(0.0560536674 -0.1631534629 -0.01776149108)
(0.08755702739 -0.1959152756 -0.04229434767)
(0.1110568333 -0.203906863 0.005257136706)
(0.1037713444 -0.2071077242 0.05396073815)
(0.1181982548 -0.2506460319 0.04501464155)
(0.1486056718 -0.2768543239 0.06108082804)
(0.13685621 -0.2748027456 0.08390762855)
(0.1024189513 -0.2899784211 0.08784492655)
(0.06961724311 -0.2762662743 0.1209314171)
(-0.0128353031 -0.2797431065 0.1318157983)
(-0.05262914933 -0.3257355977 0.07350995481)
(-0.06369502998 -0.333668312 -0.01976218959)
(0.03671809661 -0.2759559895 -0.1754669822)
(0.1213658409 -0.2343639404 -0.2361152608)
(0.1687617187 -0.2327116592 -0.2157322577)
(0.1790238042 -0.2603915803 -0.1209411826)
(0.1731542556 -0.2777520339 -0.03766274541)
(0.1421648288 -0.2747721671 0.03412335481)
(0.0789084448 -0.2758224142 0.07692557765)
(0.03328010778 -0.2686931082 0.1037743689)
(0.1795482178 -0.1802548602 0.08901984305)
(0.09382526515 -0.2316655403 -0.06642866552)
(0.1799884979 -0.2680005644 -0.1479936548)
(0.2646234802 -0.259976131 -0.1563504994)
(0.3518779021 -0.2355050201 -0.1333127617)
(0.407624634 -0.2062838181 -0.09698571302)
(0.4312094431 -0.1750149256 -0.05754523556)
(0.4251916382 -0.142525538 -0.01813720035)
(0.3869490085 -0.1122773445 0.01640642577)
(0.3240526253 -0.08911132392 0.04254574328)
(0.2420827751 -0.07032494823 0.06565148288)
(0.1424907362 -0.06147765611 0.08270171336)
(0.07310911824 -0.07415987549 0.07044769583)
(0.02121513391 -0.1187337367 0.03417994735)
(0.03394898649 -0.1674128046 -0.02322113058)
(0.04509625717 -0.2010301221 -0.02988282791)
(0.05359904675 -0.2332705944 0.0362646511)
(0.04456760324 -0.2750934285 0.08326609415)
(0.06704322061 -0.3501141112 0.07372848491)
(0.1021679795 -0.3829978684 0.0992857535)
(0.0778306222 -0.3627806656 0.1155863445)
(0.05349793117 -0.3762826431 0.07516144143)
(0.041704301 -0.3700616224 0.09615460004)
(-0.008329064484 -0.3775553446 0.1071819102)
(-0.0216627308 -0.4072224254 0.07898759982)
(-0.03602592577 -0.3921524756 0.05866222484)
(0.0008665898326 -0.2554170947 -0.006729952874)
(0.06293850003 -0.1124986832 -0.0539615742)
(0.08690434986 -0.08057233281 0.01536639417)
(0.07155223521 -0.2236805136 0.08589603627)
(0.02287686491 -0.3037545995 0.08802028378)
(0.009730811719 -0.326785134 0.07105719961)
(-0.006282973038 -0.3416332614 0.06808997599)
(-0.001087767124 -0.363492796 0.08894259798)
(0.01652457172 -0.1021458507 0.008661961307)
(0.03631491397 -0.1616353688 -0.1251662071)
(0.1590677687 -0.1920123153 -0.1835304429)
(0.2723284677 -0.1828290245 -0.1757069956)
(0.3684632191 -0.1642830674 -0.1452982477)
(0.4263562332 -0.1464369162 -0.1102753136)
(0.4510848608 -0.1288361066 -0.07747014898)
(0.4484220283 -0.1075623716 -0.0426063671)
(0.4105294348 -0.08454871583 -0.0001518800062)
(0.3355292187 -0.06556639304 0.04478599521)
(0.2248211256 -0.05158333403 0.0798893148)
(0.1046732007 -0.0634308013 0.08299831352)
(0.05126575701 -0.09096754667 0.05419479929)
(0.01359280064 -0.1450082946 0.04628838603)
(0.003785285913 -0.1838909445 0.05984857215)
(-0.02053892778 -0.2283096817 0.08880728777)
(-0.03767589498 -0.3253513643 0.1000504905)
(-0.01236524353 -0.4119278115 0.06495884412)
(0.04288301976 -0.5058455709 0.04019597514)
(0.08601511869 -0.5227776858 0.0824352728)
(0.05606021111 -0.4706812308 0.1329525497)
(0.03143362702 -0.4628243636 0.08419487803)
(0.02776233909 -0.4530256157 0.08466677827)
(-0.0160831613 -0.4573287887 0.08539230513)
(-0.01945358163 -0.4748468925 0.03846705549)
(-0.01614278915 -0.4599594054 0.05486506059)
(-0.02185302432 -0.3819191446 0.1047192988)
(0.01977369076 -0.2874265048 0.1300141009)
(0.05624840208 -0.3195883461 0.1567580168)
(0.05808131329 -0.3644605828 0.1273917141)
(0.01296704976 -0.3791079708 0.08972482232)
(0.001783312373 -0.3986284573 0.06795525934)
(-0.01509339447 -0.4232234809 0.06745794996)
(-0.002371866152 -0.4855174371 0.09234857865)
(0.02489545299 -0.08205396239 -0.01273193776)
(0.03666962976 -0.1006578997 -0.1345842417)
(0.1709486946 -0.1101188525 -0.192600938)
(0.2853237972 -0.09797840749 -0.1810331977)
(0.3770234828 -0.08475971905 -0.1484640451)
(0.4254181678 -0.07695021195 -0.1164857446)
(0.4426730392 -0.07143945866 -0.09186900404)
(0.4391156685 -0.06067208458 -0.06640799841)
(0.4049458057 -0.04456376793 -0.02427185082)
(0.3270648651 -0.0277756252 0.03767237563)
(0.195414928 -0.01791586942 0.09055484098)
(0.06374257332 -0.06532811809 0.06918029689)
(0.0183711642 -0.1169894295 0.0565913287)
(-0.04630283333 -0.1927502077 0.08355571599)
(-0.0796093802 -0.274098288 0.1156826446)
(-0.1197314315 -0.3546703594 0.1124230487)
(-0.1142901241 -0.4719955868 0.03058388669)
(-0.03005157042 -0.5507635174 -0.06670173781)
(0.0703017194 -0.6312103114 -0.09612906395)
(0.1244941845 -0.6305873103 -0.02783328351)
(0.1021489418 -0.5749664029 0.1004367446)
(0.05645881734 -0.5493450122 0.09593955644)
(0.04449897027 -0.5248012276 0.08144529756)
(0.001128285408 -0.5219786661 0.07890711861)
(0.005877206354 -0.5188176981 0.01476948109)
(0.02530012207 -0.5077153429 0.02233092442)
(0.04117142845 -0.4865991886 0.07293493866)
(0.06755319453 -0.4426537325 0.1148100785)
(0.0719608943 -0.4213140097 0.1221139254)
(0.05005380623 -0.4307155983 0.1098546416)
(0.01076385735 -0.4373869204 0.0856567277)
(0.008177494697 -0.4679887774 0.07013190513)
(-0.007053170323 -0.5124247868 0.07278230931)
(0.01139987819 -0.6133738069 0.1008287122)
(0.01604050248 -0.07216286318 0.05345277328)
(0.04992516351 -0.04559333523 -0.08963964467)
(0.1785186454 -0.04057092441 -0.1749079342)
(0.2937127158 -0.01958511699 -0.1679530101)
(0.3785929896 -0.002670538211 -0.1339868773)
(0.4122632408 -0.002632692411 -0.1100254756)
(0.4131598685 -0.01574833812 -0.09707319049)
(0.4002343008 -0.02100641764 -0.07177552263)
(0.3529969528 -0.01570299897 -0.009472702699)
(0.2630398266 8.850556145e-05 0.0720404912)
(0.1128085121 -0.000226464729 0.1074980183)
(0.01312435186 -0.06223794043 0.02268615231)
(-0.03675991653 -0.1351816928 0.07359512797)
(-0.1143207737 -0.2434851609 0.1203277978)
(-0.1773332649 -0.3587470246 0.1089282855)
(-0.2254497949 -0.458332395 0.01678593953)
(-0.1726252455 -0.5576557206 -0.1219313154)
(-0.0260687047 -0.5879522523 -0.2142458485)
(0.1212247375 -0.6351330831 -0.2204537192)
(0.1908560228 -0.6492431365 -0.1518560225)
(0.1766472619 -0.6255139315 0.01646025902)
(0.1188332993 -0.601834436 0.0588469903)
(0.0826565019 -0.5709762698 0.07948387549)
(0.02854954781 -0.5758958912 0.09489742747)
(0.02879362132 -0.5532706668 0.04062686198)
(0.05209210948 -0.5522297174 0.02480424564)
(0.09310396725 -0.5713604213 0.04024977479)
(0.1192170984 -0.5539529691 0.0832795107)
(0.1144523571 -0.5370506276 0.1161741265)