/*--------------------------------*- C++ -*----------------------------------*\
  =========                 |
  \\      /  F ield         | OpenFOAM: The Open Source CFD Toolbox
   \\    /   O peration     | Website:  https://openfoam.org
    \\  /    A nd           | Version:  8
     \\/     M anipulation  |
\*---------------------------------------------------------------------------*/
FoamFile
{
    version     2.0;
    format      ascii;
    class       volScalarField;
    location    "0.8";
    object      htcConv;
}
// * * * * * * * * * * * * * * * * * * * * * * * * * * * * * * * * * * * * * //

dimensions      [1 0 -1 1 0 0 0];

internalField   uniform 0;

boundaryField
{
    walls
    {
        type            calculated;
        value           uniform 0;
    }
    region0_to_wallFilmRegion_wallFilmFace
    {
        type            convectiveHeatTransfer;
        L               1;
        value           nonuniform List<scalar> 
822
(
2.497291844
2.453086941
2.393248424
2.342855472
2.216103877
2.132978807
2.08511402
2.122225875
2.325714894
2.745968012
3.214276722
4.026607425
3.23683001
2.485790624
2.025417181
2.415030916
2.955265178
3.435456369
3.779607701
4.422009716
4.490574202
4.194789688
3.602723969
3.123777134
2.978144762
3.01355926
3.0732828
3.089278571
3.088086003
3.019884711
3.127252587
2.317923902
2.352737838
2.344120959
2.294973244
2.292534549
2.307685374
2.390437186
2.653926977
3.236946778
3.907445367
4.856596431
4.170254898
3.441731497
2.291325833
1.592257942
2.510912337
3.158692126
4.077923824
5.078561823
5.059406743
4.799013743
4.224543852
3.525660704
3.099447054
2.920219822
2.87856643
2.868057939
2.88561004
2.85732141
3.043115609
2.275348097
2.328132667
2.366578481
2.291887585
2.229882453
2.201866975
2.230279793
2.329167351
2.55804922
3.047993967
4.027004298
3.280512801
2.814841526
2.503643988
2.305134907
2.614999814
3.306875481
3.865475695
4.662977902
4.626880329
4.254649808
3.73911123
3.270382034
2.888314475
2.649292886
2.560224704
2.541886725
2.58009694
2.580925669
2.854827159
2.261362926
2.468248729
2.320887386
2.260772964
2.335535026
2.307561359
2.299675436
2.306160879
2.290085055
2.423542438
3.152756412
2.441490603
2.389674065
2.449158539
2.52120331
2.698521094
3.310200349
3.694591345
4.246131977
4.164130146
3.851518276
3.534928279
3.189300007
2.81083282
2.518973438
2.412309152
2.403550501
2.418926121
2.343837881
2.575431699
2.07032243
2.23388291
2.289414954
2.267241859
2.263503941
2.274050883
2.316430323
2.291706081
2.066293869
2.017626078
2.412236527
2.47569812
2.425923791
2.467576499
2.559862955
2.688533217
3.137432086
3.406669577
3.743096007
3.733747128
3.582121364
3.369928998
3.103702903
2.809921274
2.582661757
2.477560232
2.454759974
2.446883222
2.297444075
2.351936684
1.828282703
1.888060147
1.901207249
2.007100028
1.921006543
1.863046762
1.741681231
2.013154936
2.114072685
1.882902818
1.441957819
2.0437145
2.480860595
2.489403978
2.489483287
2.548307104
2.645291774
2.963518581
3.169088872
3.373737481
3.385555749
3.272224747
3.105591443
2.885607059
2.684379116
2.610844876
2.571457261
2.535536832
2.498017087
2.318611719
2.283000739
1.863050963
1.943736732
1.602768831
1.821610105
1.836374097
1.685248157
1.696975785
1.822191257
2.343174909
2.50426282
1.688712843
2.003584424
2.437090832
2.515259312
2.523577693
2.558669418
2.611932658
2.800668859
2.944862721
3.050322769
3.03193326
2.933456649
2.805491399
2.670604122
2.695154197
2.775934341
2.760960811
2.638268906
2.544727702
2.34126534
2.230451253
1.996816874
2.133529723
1.476602465
1.769329105
1.894332566
1.806337822
1.820909543
1.95692974
2.47329115
3.054199483
2.188937675
2.30548758
2.484712811
2.533323151
2.540456361
2.553547344
2.567392057
2.641146468
2.714330959
2.74454058
2.697278065
2.494013003
2.23902685
2.388725334
2.674397708
2.864676319
2.940004805
2.921443554
2.800471554
2.488124468
2.294723632
2.075934662
2.241225824
1.391922695
1.603900674
1.797573368
1.697828021
1.738854266
1.882863832
2.134753674
2.570454282
2.821567627
2.407468365
2.486380422
2.509618788
2.504365436
2.482367111
2.424488837
2.406523393
2.469369724
2.495312194
2.4623304
2.001118546
1.440299501
2.285330215
2.62275727
2.869991343
3.02405445
3.082680484
3.043952708
2.721630616
2.421206989
2.168016854
2.347498142
1.440231754
1.550979938
1.7599708
1.570572843
1.829677632
1.854260341
1.793496275
1.935268847
2.133531282
2.237813576
2.345609885
2.36340895
2.3319358
2.257264193
2.142404183
2.165811799
2.369534397
2.461921351
2.40146699
2.290489739
1.391561909
2.164117313
2.601973756
2.890498921
3.065212427
3.135542691
3.106093023
2.779432721
2.516925513
2.288483427
2.424058533
1.947656427
1.470756225
1.805643877
1.914098927
2.593750909
1.897767501
1.935039698
1.677392816
1.737779975
1.918476446
2.081834923
2.08758142
2.039924758
2.010122502
1.843987984
2.256612383
2.517885071
2.555366867
2.485260129
2.400020475
2.217721625
2.243148205
2.647285111
2.955535643
3.12471107
3.169492725
3.091126396
2.753045107
2.553159992
2.518076781
2.600105216
2.351527017
1.948213639
1.804452217
2.349937263
3.096262546
2.281763602
2.259590632
2.065420584
1.967991543
1.837192686
1.796225661
1.801987656
1.799035587
1.765667437
1.922454599
2.723809144
2.832083925
2.758799956
2.654246423
2.562071412
2.485890208
2.459116173
2.698798392
2.967350727
3.11658615
3.135908069
3.010422883
2.675267747
2.480569251
2.77272091
2.793042186
2.608808405
2.378475216
2.207957417
2.448472674
4.169729068
2.723831796
2.528126856
2.417733924
2.299717344
2.064806334
1.984817965
2.123164422
2.107269844
1.963436973
2.466151139
3.062806065
3.145055764
3.084429457
2.945129571
2.802270208
2.69737882
2.63303308
2.729902674
2.921074867
3.04132805
3.035310453
2.900535145
2.567341891
2.323906978
2.917755815
2.92017662
2.661070476
2.150606695
0.9963080616
3.714418202
5.509094468
4.140973934
2.719081607
2.593520044
2.462316797
2.317317064
2.095609221
2.118129396
2.179102124
2.214950229
2.888850467
3.414157594
3.509181179
3.527494016
3.428562536
3.242456977
3.05216948
2.9013715
2.850420904
2.909056817
2.968274262
2.938810323
2.797077013
2.457014629
2.168431807
3.038309412
3.056276536
2.801647586
2.287934121
2.074139198
3.144000069
4.147239439
7.958629059
3.354582055
2.51894862
2.416881371
2.358698313
2.205626989
2.100089309
2.023233708
1.878152396
2.563832897
3.508196344
3.615487426
3.691308075
3.601802211
3.402464094
3.205194024
3.063372305
2.982694417
2.960851837
2.952125924
2.885717546
2.731991659
2.385310459
2.08226408
3.108126519
3.154967107
2.839827523
2.333009178
2.464847288
2.955294138
3.497399396
3.49491873
2.422158973
2.294783235
2.293550671
2.29502177
2.244580375
2.164064288
2.034245865
1.917505144
1.855400235
3.387630894
3.541465936
3.559464169
3.447928456
3.313996564
3.213127015
3.147063014
3.101621271
3.065289328
3.016409297
2.914825613
2.74247702
2.382171518
2.069561985
3.20857618
2.816899644
2.584486288
2.725135533
2.89492167
3.067974432
2.735783315
2.121532708
2.205604699
2.201812333
2.192230906
2.166054921
2.181453175
2.145741685
2.077170681
1.617560842
2.952934901
3.305548419
3.315417158
3.236198963
3.165206031
3.146579981
3.158597333
3.164357125
3.137962539
3.075930455
2.959308721
2.776531283
2.405349209
2.090254703
3.178258124
2.782428626
2.814964686
2.863789103
2.901759859
2.897865247
2.503141294
1.936833204
2.186517811
2.11928078
2.01821846
1.923749414
1.940689193
2.110478824
2.193513113
2.096924517
2.511114211
2.967214119
3.027737708
2.980846669
2.995751973
3.076005293
3.158762367
3.207769608
3.210532224
3.165317477
3.044662656
2.848740119
2.459548419
2.130596658
3.10316045
2.830906303
2.937432173
2.9632939
2.966180439
2.880966397
2.470818489
1.535354138
2.133205227
2.080855386
1.849243354
1.490016684
1.799724165
2.179217936
2.383598044
2.413479429
2.508868694
2.786269137
2.819417559
2.831791953
2.933459815
3.061766664
3.174462259
3.252918131
3.28511435
3.26231428
3.158303446
2.955880334
2.548335501
2.192672863
2.995223167
2.881382202
2.998446044
3.025119626
3.008243214
2.879942311
2.487588143
2.261688788
1.99647966
2.076741077
1.755089284
1.64089036
2.058741746
2.359085123
2.590817061
2.732118925
2.79112265
2.854470686
2.828652864
2.857617954
2.980089616
3.116162703
3.229791063
3.309597121
3.346053038
3.32915302
3.234775271
3.030879193
2.616744602
2.251039827
2.888640035
2.898931437
3.027862291
3.067320226
3.06733841
3.05315692
3.029654137
3.265703641
2.640438668
2.180126657
1.78013197
1.964779625
2.311697136
2.536802481
2.760196567
2.941570499
3.050454748
3.08438346
3.035964437
3.022957601
3.100351722
3.209243942
3.303772015
3.368474216
3.393506414
3.368109407
3.263737005
3.052372903
2.638178578
2.283408833
2.796533173
2.941682865
3.12423686
3.218883337
3.262804609
3.363098262
3.405920063
3.593975382
3.233941098
2.832976081
2.184748508
2.208250379
2.533585963
2.726875513
2.929041494
3.110985154
3.239225277
3.296186266
3.27416291
3.238004709
3.254875469
3.31410492
3.375817976
3.415703264
3.419526949
3.376055132
3.247386514
3.02373699
2.612920826
2.279301791
2.772545134
3.037013598
3.284689633
3.394058112
3.274813428
3.371861565
3.428504013
3.630008136
3.269222018
2.817636464
2.46409909
2.430678352
2.681768598
2.878598086
3.073394649
3.249162266
3.381681999
3.45542389
3.461022648
3.425236711
3.401765993
3.409839596
3.431057878
3.440170399
3.41875385
3.343039492
3.189027276
2.95384891
2.549425353
2.240000256
2.757684948
3.08069022
3.374334081
3.476447439
3.166107165
3.145116327
3.18555535
3.393954481
2.839991426
2.597903513
2.54511085
2.443180336
2.676039148
2.928691017
3.14529216
3.32547012
3.46050426
3.542321996
3.565351536
3.531294646
3.484482707
3.454839297
3.439959298
3.417476849
3.364611074
3.261875783
3.089928887
2.847774499
2.453134745
2.167613485
2.976811256
3.267956752
3.419227764
3.569829414
3.407969682
2.581245796
2.636633016
2.478520122
2.148282068
2.272769951
2.284548194
2.231225543
2.499321776
2.884852548
3.154998249
3.351652974
3.490457883
3.576106196
3.59418846
3.557246551
3.494241064
3.434061938
3.387145666
3.339146171
3.266704957
3.149426913
2.96832222
2.727612597
2.352706344
2.103502278
3.276585514
3.615904282
3.999432029
4.132811091
4.313229593
2.699247023
2.46829659
1.438509329
2.349751236
2.695487091
2.808739932
2.72068045
2.645523642
2.766429279
2.996175478
3.204542184
3.354799231
3.448264557
3.480956462
3.455244946
3.389294805
3.313873311
3.249348058
3.189215468
3.111118039
2.992840123
2.810543863
2.563240659
2.187723339
1.973902758
4.335428683
4.910317354
4.985333084
4.786684273
4.697483146
4.552851183
3.600870717
2.621751262
2.942167986
3.176039857
3.347219401
3.411408242
3.341564694
3.19816279
3.115648502
3.169083624
3.28967525
3.398996592
3.452814429
3.432760946
3.351525147
3.249675332
3.162586707
3.092338697
3.016771593
2.912243612
2.754222782
2.526729204
2.160352916
1.804563247
)
;
    }
    region0_to_wallFilmRegion_mirrorFace
    {
        type            convectiveHeatTransfer;
        L               1;
        value           nonuniform List<scalar> 
558
(
3.514236777
3.342910471
3.546074574
3.760437492
3.933876468
3.935402081
4.160697021
4.425803072
4.074506981
4.107101603
3.949010552
3.923184298
4.062218189
4.251111652
4.319225109
4.285209918
4.657385996
4.74355121
4.560924067
4.41511254
4.198968168
4.318425462
4.396287808
4.352101565
4.897600713
4.888461344
4.716392099
4.284587492
4.4465622
4.319008842
4.459317972
4.193322711
4.234515239
3.984722135
3.894514934
3.928070039
3.976549738
3.906996375
3.905692764
3.968778418
3.272422746
3.204179078
3.551849639
3.633630374
3.72807501
3.801880937
3.919557038
1.297633514
1.185894284
1.263430639
1.44878065
1.339706923
1.36670886
0.756069881
0.6277791138
0.6230064358
0.9796403375
0.6807872641
0.8140075942
1.250468149
0.9747087766
1.120847347
1.473298984
1.263207591
1.42651081
1.72798241
1.536991784
1.966305584
1.010049667
0.9051161641
0.9961485213
0.9919955907
0.8648678666
0.990876314
0.9852527369
0.8029432535
0.9633095527
0.9185746206
0.9976350373
0.8700621022
0.8782544392
1.368802579
0.9963818083
1.20541718
2.117884375
1.529672746
2.013371441
1.095935251
1.161677879
1.151999009
1.086142307
1.156283606
1.16684882
1.092783029
1.180075727
1.192996205
1.063606496
1.202474412
1.200257848
0.9509134623
1.184911892
1.138802678
1.009277643
1.028631943
0.9822360164
1.783549823
1.04898752
1.248938687
3.918198799
1.303747336
2.409635667
1.22678089
1.313674418
1.265383669
1.202581347
1.244069205
1.253602515
1.247713023
1.284204517
1.322856576
1.301611854
1.364151933
1.40127306
1.33409629
1.436838926
1.456517361
1.317828178
1.46656724
1.463794618
1.196219241
1.424663941
1.401525715
1.28579909
1.302499023
1.533122065
2.370907411
1.689666021
1.984226037
1.324825357
1.446004654
1.406622077
1.323354386
1.396260775
1.409746836
1.400650952
1.439449412
1.469368381
1.490805347
1.506112612
1.536452251
1.573288064
1.61062021
1.659149198
1.607090099
1.717999419
1.706757193
1.575521205
1.732934294
1.72115149
1.682607516
1.730790926
1.67456439
1.518263622
1.628586755
1.594038494
1.521640337
1.581198096
1.57981538
1.555819595
1.582813917
1.57399757
1.662264382
1.504393991
1.45166904
1.839632124
1.666622166
1.863755446
1.970087759
2.009460731
1.894497948
1.942769972
2.030360404
2.164636135
1.789143849
1.984641587
1.833015021
1.766600827
1.699607093
1.656012497
1.76340038
1.603341565
1.61721741
1.848913188
1.790891341
2.206920368
2.037761938
2.729617743
2.815568161
2.363618658
2.829697057
3.013101637
1.811637864
2.484881441
1.799210747
3.857430625
4.093722698
4.306018083
1.204011123
1.417206177
1.577180282
2.522912498
0.7007031543
0.8509266461
1.124609462
1.380565511
1.551793013
3.526291043
2.434819807
0.9155009823
0.8905887624
0.8236110061
0.8638102877
1.204373119
1.717842575
2.917685303
1.115962918
1.087547413
1.089092744
1.089203535
1.014466971
0.8783353722
1.241407385
1.764887452
1.274959941
1.201559714
1.221455119
1.276081643
1.323364566
1.337346346
1.243406479
1.138843556
1.067821
1.370855325
1.308334546
1.358956725
1.446425527
1.539619606
1.595188745
1.593254496
1.579459924
1.879310773
1.551214326
1.509079106
1.535861642
1.589065521
1.756364443
1.91213127
1.948268057
1.774030611
1.655018384
1.802561758
1.728828483
1.768919983
1.988109061
2.221717029
1.949424669
2.093287482
1.867863036
2.266302629
2.145102615
2.83544685
2.421126206
1.625240529
4.52608134
3.876039379
2.899776221
3.966068029
4.244835907
4.289269829
4.42180733
4.476653894
4.33564987
4.553363199
4.305925952
4.264888542
4.398772453
4.952588522
4.901933536
4.786855899
4.743399866
4.240021686
4.199561188
4.189888254
4.086502084
4.747133274
4.440201816
4.348899713
4.208613265
2.668763922
2.851174939
3.269097782
3.699883135
2.311033919
2.707335111
3.202357262
3.621606581
3.043443707
3.195917226
3.445617449
3.693479631
1.441684811
1.440809605
1.499878715
1.617649178
2.209293108
2.031419862
3.750946685
3.527039174
3.295932344
2.761007546
3.56745658
4.095881886
3.726505082
3.684129493
1.843841309
1.813071963
3.976538547
3.73189551
2.532085464
4.037137134
4.165254328
3.987813998
4.078034008
3.037828759
4.214159099
2.280217278
1.782651532
3.712861814
1.361754002
3.924564759
2.529226095
3.090511536
4.123407162
4.103597721
4.100520137
2.206784905
1.624344551
2.284434761
2.417094606
2.453427856
3.379497367
4.050122907
4.313804854
3.156397633
3.500733265
3.877521141
4.485528516
4.295878564
4.573436138
1.675921181
5.70349723
4.819414574
4.286251521
4.553558267
4.458769733
2.143214456
5.859753109
5.188115872
4.020650311
4.3201578
4.287036149
3.668769373
3.894363064
4.095054719
3.894941006
4.269916438
3.946829944
4.06788168
3.937011337
4.094452452
4.10819439
4.112395539
3.96079206
4.124927197
4.164607861
4.162837114
4.239714073
4.306241657
4.327636777
4.252619638
4.375558372
4.407007228
4.291884764
4.339021048
4.400568135
4.297928262
4.284287976
4.366543463
4.392952775
4.760973604
4.841350148
4.887468012
4.668566311
4.866043188
4.796135404
4.488913803
4.694642443
4.581827565
4.214815699
4.323503307
4.402535776
4.401653081
4.400694711
4.259852853
4.19688083
4.181113665
4.301616019
4.226819361
4.115445769
4.25848572
4.270603557
4.268660181
4.342304861
4.211570828
4.319391641
4.294708223
4.326957691
4.363972216
4.464285706
4.356485749
4.432179591
4.327903698
4.327745607
4.460214978
4.407882032
4.477521861
4.405233238
4.891146366
4.917342558
4.890012237
4.856040669
4.818251087
4.789540076
4.482862871
4.709172337
4.688723509
4.495697675
4.563714018
4.483272066
4.488485984
4.386892538
4.41720781
4.304355329
4.270126665
4.227732106
4.268842833
4.277689557
4.216885992
4.283988401
4.203850754
4.367227834
4.339868648
4.267499673
4.289565631
4.174413069
4.300348404
4.254979555
4.854161019
4.830105334
4.657748849
4.598209391
4.637035004
4.524821008
4.356806609
4.395995584
4.351519078
4.504773972
4.398348436
4.259355598
4.411250631
4.94225871
4.832531818
4.722201919
4.629605301
4.541410261
4.262949009
4.162918634
4.073845209
4.038900891
4.136032634
4.108977344
4.00265846
3.967399653
4.079960479
3.926836012
4.014450833
4.072208441
4.044698953
3.951818981
3.935079509
4.549332836
4.279487475
4.493571783
4.229411153
4.188833463
4.15566336
4.33175685
4.120936036
4.094654131
4.116526572
4.146599747
4.258536883
3.977643909
4.088244491
4.114364521
4.706826379
4.387830846
4.438699403
4.276016767
2.732886562
2.36579029
2.509507537
3.036844369
2.694914994
2.931855029
3.496394778
3.194165882
3.438900286
3.826746149
3.64266461
3.786294401
3.933447643
2.501435883
2.58701084
2.730215308
2.947768459
2.884857957
3.074440113
3.433008786
3.285373679
3.475019293
3.75339583
3.636383494
3.734552429
3.869671527
3.810069928
3.114504444
3.517077016
3.530846779
3.308379111
3.553799889
3.597808107
3.89727242
3.585466739
3.658666937
3.718255857
3.809130454
3.952905018
)
;
    }
    procBoundary1to0
    {
        type            processor;
        value           uniform 0;
    }
    procBoundary1to2
    {
        type            processor;
        value           uniform 0;
    }
    procBoundary1to3
    {
        type            processor;
        value           uniform 0;
    }
}


// ************************************************************************* //
