/*--------------------------------*- C++ -*----------------------------------*\
  =========                 |
  \\      /  F ield         | OpenFOAM: The Open Source CFD Toolbox
   \\    /   O peration     | Website:  https://openfoam.org
    \\  /    A nd           | Version:  8
     \\/     M anipulation  |
\*---------------------------------------------------------------------------*/
FoamFile
{
    version     2.0;
    format      ascii;
    class       volScalarField;
    location    "0.8";
    object      N2;
}
// * * * * * * * * * * * * * * * * * * * * * * * * * * * * * * * * * * * * * //

dimensions      [0 0 0 0 0 0 0];

internalField   nonuniform List<scalar> 
67451
(
0.7899948622
0.7899949022
0.7899951149
0.7899953694
0.7899955641
0.7899957133
0.7899958835
0.7899959435
0.7899958491
0.7899956878
0.7899956127
0.7899949513
0.7899949956
0.789995044
0.7899950547
0.7899950231
0.7899950787
0.7899954099
0.7899956912
0.7899958727
0.7899960882
0.7899963083
0.7899963862
0.7899962642
0.7899960621
0.7899959071
0.7899958876
0.789995945
0.7899958888
0.7899956445
0.7899953801
0.7899952288
0.789995183
0.789995214
0.789995058
0.7899946483
0.7899928018
0.789994801
0.7899949509
0.7899951046
0.7899952019
0.7899952871
0.7899953617
0.7899952774
0.7899950916
0.78999504
0.7899951035
0.7899953769
0.7899957739
0.7899959204
0.7899960399
0.7899960172
0.7899960106
0.7899960943
0.7899961275
0.7899958825
0.7899955735
0.78999539
0.7899953354
0.7899953343
0.7899953182
0.7899953261
0.7899951716
0.7899946096
0.7899933751
0.7899947996
0.7899949515
0.7899952011
0.7899952604
0.7899955293
0.7899955763
0.7899955018
0.78999542
0.7899953078
0.7899952738
0.7899953769
0.789995626
0.7899960463
0.789996197
0.7899962247
0.7899963459
0.7899962694
0.7899959432
0.7899956931
0.7899955782
0.7899955317
0.7899954976
0.7899954488
0.7899953224
0.7899952515
0.7899953766
0.789995084
0.7899958134
0.7899950013
0.7899952957
0.7899953309
0.7899955827
0.7899956754
0.7899955962
0.7899956757
0.7899956494
0.7899956386
0.789995725
0.7899955989
0.7899959843
0.7899963782
0.7899962013
0.7899959747
0.7899957458
0.7899957462
0.7899957685
0.7899957598
0.7899957112
0.7899956324
0.7899955576
0.7899953377
0.7899954099
0.7899963102
0.7899963213
0.7899990624
0.7899951128
0.7899953632
0.7899953824
0.789995626
0.789995799
0.7899957828
0.7899958125
0.7899959007
0.7899958748
0.7899959357
0.7899957801
0.7899959361
0.7899960981
0.7899956483
0.7899951791
0.7899956049
0.7899958691
0.7899959424
0.78999592
0.7899958428
0.7899957507
0.7899957436
0.7899956084
0.7899961387
0.7899976178
0.7899978391
0.7900037542
0.7899952818
0.7899954189
0.7899954509
0.7899956583
0.7899959056
0.7899959942
0.78999594
0.7899960008
0.789995939
0.789995717
0.7899956749
0.7899957314
0.7899954528
0.790001091
0.7899950825
0.7899952201
0.7899957308
0.7899959549
0.7899959909
0.78999591
0.7899958511
0.7899959259
0.7899958818
0.7899956469
0.7899956574
0.7899959209
0.7900011561
0.7899954378
0.789995488
0.7899955188
0.7899956749
0.7899959708
0.7899961536
0.7899961888
0.7899961319
0.7899960963
0.7899959644
0.7899959428
0.7899960216
0.7899956728
0.7899973731
0.7899848622
0.7899916835
0.7899949629
0.7899959511
0.7899960887
0.7899960529
0.7899960977
0.7899962582
0.7899963723
0.7899963394
0.7899961677
0.7899966432
0.789997992
0.7899955974
0.7899956592
0.7899955566
0.7899956734
0.7899959588
0.7899961977
0.7899963231
0.7899961689
0.7899960902
0.7899959524
0.7899960361
0.789996195
0.7899963034
0.7899966264
0.7899940209
0.7899960347
0.7899965843
0.7899965707
0.7899964034
0.7899965635
0.7899968724
0.7899971706
0.7899972452
0.7899973919
0.7899970522
0.7899970416
0.7899977527
0.7899956106
0.7899960916
0.7899955236
0.7899956057
0.7899959033
0.789996134
0.7899966454
0.7899961721
0.7899960932
0.7899960203
0.7899960959
0.7899962754
0.789996394
0.7899965386
0.7899959151
0.7899965756
0.7899967771
0.7899967324
0.7899965594
0.7899964141
0.7899966296
0.7899970454
0.7899972076
0.789996888
0.7899963641
0.7899967649
0.7899975442
0.7899959243
0.7899973274
0.7899956459
0.7899954217
0.789995622
0.7899959804
0.7899961296
0.7899961298
0.7899954943
0.7899957961
0.7899960141
0.7899963448
0.7899964523
0.7899964857
0.7899964263
0.7899966684
0.7899967314
0.7899966762
0.7899966061
0.7899965729
0.7899966547
0.7899970625
0.7899970275
0.7899968377
0.7899965649
0.789996694
0.7899973472
0.7899967141
0.7899995954
0.7899970069
0.7899955538
0.7899954173
0.789995666
0.7899959301
0.7899960075
0.7899959487
0.7899959585
0.7899959375
0.7899963663
0.7899966023
0.7899965852
0.7899965783
0.7899966624
0.7899966761
0.7899966675
0.7899967153
0.7899969488
0.7899972183
0.7899973176
0.7899972824
0.789997257
0.7899969596
0.7899968597
0.7899972335
0.7899955795
0.7899976092
0.789995522
0.7899952622
0.7899957526
0.7899957496
0.7899957445
0.7899957914
0.7899958344
0.7899958811
0.7899958873
0.7899962545
0.7899967934
0.7899967865
0.7899967509
0.7899967676
0.7899967819
0.7899968717
0.7899971829
0.789997491
0.7899976973
0.7899978093
0.789997879
0.7899978507
0.7899974815
0.7899971457
0.7899971407
0.7899953196
0.789995718
0.789995217
0.7899953284
0.789995536
0.7899955426
0.7899955619
0.7899956162
0.7899956867
0.7899957609
0.7899958357
0.7899963319
0.7899969999
0.7899970339
0.7899969666
0.7899969934
0.7899970746
0.7899972733
0.7899975832
0.7899978724
0.7899980262
0.7899980749
0.789998049
0.789998003
0.7899978209
0.7899973983
0.7899970477
0.7899956934
0.7899952316
0.7899953214
0.7899953439
0.7899954062
0.7899954377
0.7899954653
0.7899955068
0.7899955746
0.7899956743
0.7899958415
0.7899966446
0.7899972378
0.7899974206
0.7899972585
0.7899972674
0.7899973701
0.7899975338
0.7899976824
0.7899979738
0.789998143
0.7899982082
0.7899981803
0.7899981068
0.789998023
0.7899976534
0.7899970737
0.7899963205
0.7899954706
0.7899954385
0.78999538
0.7899953457
0.7899953503
0.7899953749
0.7899954194
0.7899955025
0.7899956557
0.7899959703
0.7899970785
0.7899975036
0.7899978762
0.7899976302
0.789997393
0.7899974998
0.7899976414
0.7899976934
0.78999796
0.789998148
0.7899982323
0.7899982136
0.7899981349
0.7899980641
0.789997817
0.7899972523
0.7899966761
0.7899962662
0.7899956904
0.7899954391
0.7899953176
0.7899952815
0.7899952986
0.7899953585
0.7899954786
0.7899957377
0.7899964946
0.7899973883
0.7899977139
0.789998274
0.7899981365
0.7899975702
0.7899973714
0.7899975858
0.7899977119
0.7899979092
0.7899980825
0.7899981692
0.7899981575
0.7899980841
0.7899980205
0.7899978492
0.7899973806
0.7899971845
0.7899971714
0.7899963685
0.7899958628
0.7899954794
0.7899952712
0.7899952347
0.7899953097
0.7899954933
0.7899959964
0.7899970119
0.789997542
0.7899979098
0.7899985953
0.7899989518
0.7899985489
0.7899978913
0.7899974713
0.7899975732
0.7899978115
0.7899979807
0.7899980638
0.7899980565
0.789997992
0.7899979365
0.7899977787
0.7899973447
0.7899970626
0.7899977677
0.7899962723
0.7899955059
0.7899952135
0.7899951258
0.789995158
0.7899952863
0.7899955579
0.7899962314
0.7899970223
0.7899973675
0.7899976998
0.7899983814
0.789998689
0.7899982202
0.7899975477
0.7899972161
0.7899973856
0.7899976671
0.7899978552
0.7899979422
0.789997941
0.7899978863
0.7899978244
0.7899976246
0.7899971665
0.7899970435
0.7899995829
0.7899967918
0.7899951972
0.7899948011
0.7899949184
0.7899950888
0.789995307
0.7899957187
0.7899964748
0.789996993
0.7899971981
0.7899973822
0.7899978934
0.7899979759
0.7899975621
0.7899971886
0.7899971824
0.7899973726
0.7899975615
0.7899977131
0.7899977942
0.7899977991
0.7899977469
0.7899976355
0.7899973821
0.7899969031
0.7899958691
0.7899979762
0.7899952193
0.7899943765
0.7899945701
0.7899948845
0.7899951085
0.7899954412
0.7899960103
0.7899966153
0.7899969399
0.7899970944
0.7899971886
0.7899974546
0.7899973717
0.7899971701
0.7899971427
0.7899972975
0.7899974341
0.7899975112
0.7899975771
0.7899976181
0.7899976105
0.7899975336
0.7899973726
0.7899970846
0.7899966317
0.7899949631
0.7899955081
0.7899941339
0.7899943571
0.7899947361
0.7899949712
0.7899952182
0.7899957098
0.7899963447
0.789996646
0.7899968409
0.7899969913
0.7899970801
0.7899971944
0.7899971115
0.7899971393
0.78999724
0.7899973648
0.7899974388
0.7899974578
0.7899974637
0.7899974573
0.7899974188
0.7899973078
0.7899971102
0.7899968142
0.7899964319
0.789995065
0.7899943524
0.7899943996
0.78999477
0.7899949264
0.789995073
0.7899954063
0.7899959551
0.7899963376
0.789996477
0.7899966265
0.7899968245
0.7899969555
0.7899970713
0.7899970858
0.7899972145
0.789997286
0.7899973243
0.7899973564
0.7899973525
0.7899973379
0.7899973106
0.7899972529
0.7899971241
0.7899969105
0.7899966264
0.7899963265
0.7899957286
0.7899948743
0.7899950273
0.7899950606
0.7899950467
0.7899952774
0.7899956893
0.7899960457
0.7899963096
0.7899963557
0.7899965021
0.7899966721
0.7899968036
0.7899969444
0.7899970426
0.7899971964
0.7899972481
0.7899972162
0.7899972204
0.7899972049
0.7899971861
0.7899971558
0.7899970959
0.7899969685
0.7899967588
0.7899964992
0.7899962711
0.78999635
0.7899957263
0.7899954694
0.7899952266
0.7899951876
0.7899955891
0.7899959126
0.7899960346
0.7899962866
0.7899963235
0.7899964139
0.7899965484
0.7899966409
0.7899967449
0.7899968815
0.7899970543
0.7899971485
0.789997092
0.7899970725
0.7899970463
0.789997023
0.7899969908
0.7899969314
0.7899968065
0.7899966082
0.7899963806
0.7899962148
0.7899966939
0.7899962487
0.7899957439
0.78999539
0.789995325
0.7899957799
0.789996025
0.7899959673
0.7899961486
0.7899961853
0.7899962785
0.789996411
0.7899964612
0.7899964937
0.7899966272
0.7899968237
0.7899969758
0.7899969705
0.7899969371
0.7899968995
0.7899968663
0.7899968254
0.7899967575
0.7899966219
0.7899964347
0.7899962462
0.7899961395
0.7899968167
0.7899964766
0.7899959136
0.7899955564
0.789995449
0.7899957247
0.7899960191
0.7899959178
0.7899959994
0.7899960462
0.7899961514
0.7899962642
0.7899962443
0.7899962113
0.789996336
0.7899965555
0.7899967477
0.7899968332
0.7899968142
0.7899967701
0.7899967228
0.789996663
0.7899965639
0.7899964124
0.7899962435
0.7899961027
0.7899960498
0.7899968632
0.7899965718
0.7899960381
0.7899957024
0.7899955747
0.7899956214
0.7899958436
0.7899958877
0.7899958972
0.7899959606
0.7899960588
0.7899960889
0.7899959681
0.7899959103
0.7899960551
0.7899962938
0.7899964992
0.7899966402
0.7899966674
0.7899966318
0.7899965659
0.7899964724
0.7899963443
0.7899961919
0.7899960551
0.7899959618
0.7899959472
0.7899968627
0.7899966036
0.7899961447
0.789995837
0.7899957025
0.7899956176
0.7899956325
0.7899957884
0.7899958487
0.7899959209
0.7899959251
0.7899958064
0.7899956414
0.789995635
0.7899958255
0.7899960673
0.7899962599
0.7899964093
0.7899964663
0.7899964406
0.7899963631
0.7899962503
0.7899961162
0.7899959835
0.7899958856
0.7899958212
0.7899958094
0.789996808
0.7899965601
0.7899961701
0.78999589
0.7899957523
0.789995611
0.7899954389
0.7899955665
0.7899956942
0.7899957199
0.7899956093
0.7899954301
0.7899953316
0.7899954264
0.789995645
0.7899958608
0.7899960209
0.7899961445
0.7899962037
0.7899961839
0.7899961061
0.7899959964
0.7899958799
0.7899957772
0.7899957065
0.7899956274
0.7899955031
0.7899967653
0.7899964808
0.7899960954
0.7899957787
0.7899955921
0.7899953934
0.7899950849
0.7899951384
0.7899952409
0.7899952046
0.7899950824
0.7899950086
0.7899950864
0.7899952951
0.7899955194
0.7899956884
0.789995794
0.789995859
0.7899958796
0.789995845
0.7899957696
0.7899956758
0.7899955808
0.7899954872
0.7899953877
0.7899951641
0.7899945752
0.7899949981
0.7899950627
0.7899951455
0.7899952355
0.7899953403
0.789995649
0.7899959059
0.789995863
0.7899955496
0.7899951335
0.7899947686
0.7899947513
0.7899947986
0.7899948665
0.7899949033
0.7899949576
0.7899950135
0.7899950894
0.7899951786
0.7899953465
0.7899958451
0.789996171
0.7899961692
0.7899958631
0.7899954511
0.7899951017
0.7899948281
0.7899947352
0.7899947861
0.7899948938
0.7899949222
0.7899949435
0.7899949998
0.7899950994
0.7899951418
0.7899952994
0.78999508
0.7899946982
0.7899947759
0.7899948286
0.7899949306
0.7899949991
0.7899949976
0.7899950004
0.7899950165
0.7899950557
0.7899951045
0.7899951079
0.7899952039
0.7899954335
0.7899955097
0.7899953775
0.7899951566
0.78999507
0.7899950839
0.7899951068
0.7899950647
0.7899950121
0.7899950163
0.7899950887
0.7899951899
0.7899952982
0.7899953557
0.7899954865
0.7899949328
0.7899946511
0.7899947699
0.7899948857
0.7899950331
0.7899950989
0.7899950888
0.7899950567
0.78999513
0.7899951795
0.7899952272
0.7899952501
0.7899953058
0.7899953285
0.7899953096
0.7899952852
0.7899954079
0.7899954969
0.7899954711
0.789995347
0.789995228
0.7899951502
0.789995142
0.7899952035
0.7899952811
0.7899953415
0.7899954516
0.7899955125
0.7899946074
0.7899947906
0.7899949531
0.789995137
0.7899952703
0.7899952698
0.789995255
0.7899953094
0.789995454
0.7899955579
0.7899955771
0.7899955367
0.7899956796
0.7899957892
0.7899959285
0.7899960156
0.7899959033
0.7899957546
0.7899955584
0.789995396
0.7899952851
0.7899952484
0.7899952667
0.7899952981
0.7899953141
0.7899954695
0.7899950586
0.7899946837
0.7899948457
0.7899950306
0.7899952379
0.7899954402
0.7899955404
0.7899955922
0.7899955986
0.7899957461
0.7899958683
0.7899958253
0.7899957054
0.7899958686
0.7899960878
0.7899965857
0.7899969163
0.7899965186
0.7899962609
0.7899959342
0.7899956544
0.7899954557
0.7899953585
0.789995316
0.7899953713
0.7899954789
0.7899955782
0.7899953184
0.7899957491
0.7899949759
0.7899951176
0.7899953014
0.7899955552
0.7899957367
0.7899958483
0.7899958214
0.7899958752
0.7899958967
0.7899957771
0.789995817
0.7899963272
0.7899968614
0.7900021565
0.7899989102
0.7899970964
0.7899967782
0.789996315
0.7899959206
0.7899956284
0.7899954073
0.7899952284
0.7899952752
0.7899953209
0.7899953614
0.7899955656
0.7899952032
0.7899951973
0.7899952893
0.7899953576
0.7899956273
0.7899958839
0.7899960871
0.7899960585
0.7899960457
0.7899960032
0.7899958833
0.7899958886
0.7899961848
0.7899973271
0.7899987433
0.7900050905
0.7899980518
0.7899982378
0.7899968874
0.789996279
0.7899959402
0.7899955827
0.7899952695
0.7899952469
0.7899953366
0.7899954724
0.7899954132
0.7899953309
0.7899955953
0.7899956509
0.7899954424
0.7899956653
0.7899960054
0.7899963152
0.7899963062
0.7899962259
0.7899960746
0.7899958661
0.7899958204
0.7899960084
0.7899969816
0.7899977544
0.7899985575
0.7899978039
0.7899974697
0.789996951
0.7899965414
0.7899963644
0.7899961197
0.7899958789
0.7899956123
0.7899954252
0.7899954388
0.7899954106
0.7899957837
0.7899958319
0.7899959395
0.7899955686
0.7899956655
0.7899961225
0.7899963657
0.7899966983
0.7899967371
0.7899963081
0.7899959691
0.789995821
0.7899959568
0.7899966007
0.7899972616
0.7899982199
0.7899974983
0.7899973267
0.7899969709
0.7899966061
0.7899963665
0.7899962436
0.7899960054
0.7899959478
0.7899959952
0.7899958354
0.7899956735
0.7899953669
0.7899966555
0.7899972246
0.7899962776
0.7899957576
0.7899960728
0.7899963495
0.7899964135
0.789996442
0.7899965598
0.7899959232
0.7899958683
0.7899961874
0.7899964663
0.7899966888
0.7899969467
0.7899969952
0.789996938
0.7899967714
0.7899965803
0.7899964405
0.7899963856
0.7899962565
0.7899964408
0.7899965191
0.7899959279
0.7899955878
0.7899954388
0.7899962113
0.78999685
0.7899962316
0.7899959559
0.7899962037
0.7899961748
0.7899961469
0.7899961371
0.7899960761
0.7899958383
0.7899957952
0.7899962649
0.7899966285
0.7899966492
0.7899966701
0.7899967083
0.7899967307
0.7899967769
0.7899967959
0.7899967991
0.789996812
0.7899968491
0.789996896
0.7899968714
0.7899964523
0.7899958971
0.7899957895
0.7899960218
0.7899964577
0.7899958736
0.7899958818
0.7899959969
0.7899960079
0.7899959195
0.7899958971
0.7899958437
0.7899957555
0.7899957978
0.7899962865
0.7899968072
0.789996864
0.7899968482
0.7899968408
0.7899969036
0.7899970488
0.7899971315
0.7899971786
0.7899971743
0.7899971224
0.789997052
0.7899970142
0.7899968067
0.789996292
0.7899961152
0.7899956539
0.7899956729
0.7899955147
0.7899956387
0.7899957649
0.7899957763
0.7899956979
0.7899956771
0.7899956664
0.7899956879
0.7899958559
0.7899964464
0.7899969365
0.7899970298
0.7899970432
0.7899970675
0.7899971552
0.789997327
0.7899974182
0.7899975032
0.7899975136
0.7899974325
0.7899972845
0.7899971024
0.7899969264
0.7899965957
0.7899963376
0.7899956754
0.7899954807
0.7899952462
0.7899953565
0.7899954865
0.7899955451
0.7899955041
0.7899955029
0.7899955478
0.7899956903
0.7899960236
0.789996706
0.7899971053
0.7899972577
0.7899972613
0.7899972696
0.7899973177
0.7899974305
0.7899973455
0.7899975492
0.7899976484
0.7899976165
0.7899974701
0.7899972512
0.7899969952
0.7899967542
0.789996492
0.7899960121
0.7899955393
0.7899951689
0.7899951958
0.7899952841
0.7899953561
0.7899953518
0.7899953877
0.7899955182
0.7899957941
0.7899962224
0.789996909
0.7899972417
0.7899974587
0.7899974425
0.7899973175
0.7899973606
0.7899974163
0.7899972307
0.7899975191
0.7899976806
0.7899976893
0.789997563
0.7899973436
0.7899970632
0.7899968195
0.7899966288
0.7899962153
0.789995877
0.7899952572
0.7899951646
0.7899951543
0.7899952093
0.7899952498
0.7899953606
0.7899956079
0.789996006
0.789996542
0.7899970879
0.7899974483
0.7899976134
0.7899977919
0.7899975874
0.7899974559
0.7899974502
0.7899973897
0.7899975432
0.7899976547
0.7899976591
0.7899975476
0.7899973419
0.7899970594
0.7899968279
0.789996707
0.789996187
0.7899960365
0.7899952112
0.7899950646
0.7899950557
0.7899951314
0.7899952269
0.7899954378
0.7899957646
0.7899962016
0.7899967405
0.789997093
0.7899974372
0.7899976021
0.7899977617
0.7899974874
0.7899973391
0.7899974293
0.7899974548
0.7899975249
0.7899975763
0.7899975616
0.7899974601
0.7899972725
0.7899970087
0.7899968254
0.7899967117
0.7899959768
0.7899960889
0.789995421
0.7899950899
0.7899950467
0.7899951482
0.7899952961
0.7899955764
0.7899959344
0.7899963706
0.7899968102
0.789997099
0.7899972973
0.7899974725
0.7899975873
0.789997453
0.7899974517
0.789997488
0.7899974903
0.7899975035
0.7899974982
0.7899974538
0.7899973512
0.7899971772
0.7899969582
0.7899968295
0.7899966571
0.7899952793
0.7899952967
0.7899948679
0.7899948815
0.7899950832
0.7899952302
0.7899954042
0.7899957007
0.7899960626
0.789996466
0.7899967595
0.7899970175
0.7899971297
0.7899972895
0.7899973289
0.7899974074
0.7899974759
0.7899974769
0.789997449
0.7899974328
0.7899974047
0.7899973492
0.7899972521
0.7899971024
0.7899969471
0.7899968128
0.7899965552
0.7899951613
0.7899949567
0.7899949493
0.7899950983
0.789995192
0.7899953041
0.7899954875
0.7899957973
0.7899961576
0.7899964544
0.7899966297
0.7899968582
0.7899970104
0.7899971983
0.7899972588
0.7899973879
0.7899974055
0.7899973631
0.7899973176
0.7899972897
0.7899972623
0.789997218
0.7899971412
0.7899970319
0.7899968997
0.7899967279
0.7899964279
0.7899954598
0.7899951415
0.7899952027
0.7899952184
0.7899952078
0.7899953215
0.7899955418
0.7899958716
0.7899961862
0.7899963947
0.7899964697
0.7899966459
0.7899968218
0.7899970423
0.7899971526
0.7899972637
0.7899972422
0.7899971765
0.7899971223
0.7899970907
0.789997073
0.7899970502
0.7899969991
0.7899969158
0.7899967864
0.7899965918
0.7899963136
0.789995765
0.7899955089
0.789995321
0.7899952029
0.7899951495
0.7899952995
0.7899955169
0.7899957884
0.7899960545
0.7899961882
0.7899962517
0.7899964027
0.7899965852
0.7899968202
0.7899969693
0.7899970722
0.7899970442
0.789996965
0.7899968979
0.7899968617
0.7899968548
0.7899968549
0.7899968295
0.7899967608
0.7899966378
0.7899964491
0.7899962327
0.789995985
0.7899956929
0.789995342
0.7899951634
0.7899951165
0.7899952895
0.7899954152
0.7899956693
0.7899959439
0.7899959714
0.789995977
0.7899961277
0.7899963347
0.789996579
0.7899967536
0.7899968738
0.7899968523
0.7899967617
0.7899966798
0.7899966366
0.789996636
0.7899966528
0.7899966463
0.7899965867
0.7899964781
0.7899963161
0.7899961723
0.7899961376
0.7899958167
0.7899953681
0.7899951492
0.7899951237
0.7899952943
0.7899952856
0.7899954886
0.7899957612
0.7899957526
0.7899957097
0.7899958642
0.7899960916
0.78999634
0.7899965246
0.78999667
0.7899966733
0.789996586
0.7899964976
0.7899964488
0.7899964474
0.7899964663
0.7899964596
0.7899964024
0.78999631
0.7899961838
0.7899961101
0.7899962263
0.7899959155
0.7899953983
0.7899951558
0.7899951246
0.7899952819
0.7899951961
0.7899953032
0.7899955
0.7899954821
0.7899954437
0.7899956224
0.7899958578
0.7899960997
0.7899962833
0.7899964451
0.7899964974
0.7899964378
0.7899963606
0.7899963124
0.7899963021
0.7899963031
0.7899962688
0.7899962115
0.7899961319
0.7899960444
0.7899960346
0.7899962216
0.7899959626
0.7899954269
0.7899951691
0.789995108
0.7899952287
0.789995196
0.7899952068
0.7899952869
0.789995255
0.7899952261
0.7899954065
0.7899956399
0.7899958553
0.7899960282
0.7899961969
0.7899962959
0.7899962815
0.7899962417
0.7899962048
0.7899961751
0.7899961375
0.7899960864
0.7899960201
0.7899959497
0.7899959028
0.7899959471
0.78999625
0.7899960262
0.7899955048
0.7899952054
0.789995087
0.789995146
0.7899951949
0.7899951656
0.789995166
0.789995111
0.7899950759
0.7899952389
0.7899954421
0.7899956085
0.7899957683
0.7899959389
0.7899960707
0.7899961193
0.7899961107
0.7899960815
0.7899960417
0.7899959859
0.7899959145
0.789995835
0.7899957786
0.7899957678
0.7899958479
0.7899962526
0.7899960762
0.7899956448
0.7899953111
0.7899951191
0.7899950985
0.7899951343
0.7899951223
0.7899950555
0.7899950023
0.7899950327
0.7899951596
0.7899952657
0.7899953859
0.7899955382
0.789995707
0.7899958535
0.7899959478
0.7899959791
0.7899959643
0.7899959156
0.7899958405
0.7899957527
0.7899956727
0.789995635
0.7899956381
0.7899957125
0.7899962504
0.7899960873
0.7899957587
0.7899954596
0.7899952404
0.7899951195
0.7899950357
0.7899950335
0.7899949916
0.7899949999
0.7899950297
0.7899950575
0.7899951068
0.7899952199
0.7899953737
0.789995534
0.789995672
0.7899957732
0.7899958203
0.7899958112
0.7899957576
0.7899956777
0.7899955933
0.7899955229
0.7899954866
0.7899954458
0.7899953786
0.7899963819
0.7899961511
0.78999582
0.7899955125
0.7899952787
0.7899950668
0.7899948149
0.7899947732
0.7899947827
0.7899947949
0.7899947959
0.7899948446
0.7899949781
0.7899951659
0.7899953446
0.7899954822
0.7899955741
0.7899956276
0.789995639
0.7899956071
0.7899955431
0.7899954627
0.7899953761
0.7899952804
0.7899951683
0.7899949224
0.7899943612
0.7899951365
0.7899953173
0.7899954398
0.7899955184
0.7899955966
0.7899957532
0.7899961429
0.789996337
0.7899961822
0.7899957183
0.7899952185
0.7899949309
0.7899947636
0.789994687
0.7899946836
0.789994691
0.7899947719
0.7899949007
0.789995058
0.7899952212
0.78999534
0.7899954209
0.7899955124
0.7899957633
0.7899962319
0.7899965032
0.7899963973
0.7899959574
0.7899954278
0.7899951042
0.7899949111
0.7899947357
0.7899946853
0.789994701
0.7899947224
0.7899947662
0.7899948337
0.7899949052
0.7899949296
0.7899950099
0.7899950399
0.7899946059
0.7899946476
0.7899947147
0.7899948017
0.789994891
0.7899950042
0.7899951443
0.7899952569
0.7899953292
0.7899953621
0.7899953253
0.7899954228
0.7899956392
0.7899956241
0.7899954536
0.7899952416
0.7899950898
0.789994969
0.7899948662
0.7899947916
0.7899947743
0.7899948321
0.7899949387
0.789995043
0.7899951159
0.7899951405
0.7899951397
0.7899950408
0.7899945872
0.7899946584
0.7899947618
0.7899948747
0.7899948964
0.7899950163
0.7899951071
0.7899952219
0.7899953226
0.7899953819
0.7899953207
0.7899952597
0.7899953228
0.7899953626
0.7899953902
0.7899954594
0.7899954674
0.7899953577
0.7899951818
0.7899950202
0.789994948
0.7899949779
0.7899950697
0.7899951549
0.7899952048
0.7899952948
0.7899950737
0.7899948256
0.7899946968
0.7899948467
0.7899950022
0.7899951196
0.7899951892
0.7899952747
0.7899953952
0.7899955906
0.7899957259
0.7899956567
0.7899954963
0.789995569
0.7899957027
0.7899959558
0.7899960923
0.7899960282
0.7899957924
0.7899955161
0.7899952758
0.7899951345
0.7899950926
0.7899951329
0.789995173
0.7899952049
0.7899953655
0.7899947552
0.7899946718
0.7899947963
0.7899949542
0.7899951539
0.7899953639
0.7899955235
0.7899956496
0.7899957275
0.7899959308
0.7899960875
0.7899959373
0.7899956481
0.7899957385
0.7899961607
0.789996394
0.7899966843
0.7899965624
0.7899963125
0.7899959235
0.7899955614
0.7899953223
0.7899951913
0.7899951932
0.7899952463
0.7899953683
0.7899955248
0.7899953513
0.7899954938
0.7899949531
0.789995051
0.7899952487
0.7899955387
0.7899957769
0.7899959561
0.7899959609
0.7899960355
0.7899960465
0.7899958648
0.7899957253
0.7899961492
0.7899976508
0.7899971267
0.7899985612
0.7899971863
0.7899968911
0.7899964035
0.7899959001
0.7899955428
0.7899952939
0.7899952133
0.7899952713
0.7899953064
0.7899952244
0.7899953793
0.7899951036
0.7899952208
0.7899952584
0.7899952998
0.7899956351
0.7899959627
0.7899962413
0.7899961951
0.7899961655
0.7899960683
0.7899958484
0.7899957363
0.7899962143
0.7899972059
0.7899978711
0.7899976404
0.7899973378
0.7899974564
0.789996875
0.7899963791
0.7899960434
0.7899956528
0.7899952908
0.7899952197
0.7899952764
0.7899950848
0.7899949789
0.7899951864
0.7899957255
0.789995744
0.7899954737
0.7899957203
0.7899962169
0.7899965888
0.7899964751
0.789996353
0.7899961386
0.7899958492
0.7899957733
0.7899963558
0.7899970927
0.7899975844
0.7899978963
0.7899978884
0.7899976465
0.7899971884
0.7899967987
0.7899965541
0.7899962662
0.7899959111
0.7899955681
0.7899954078
0.7899951894
0.789995212
0.7899954649
0.7899961477
0.7899962743
0.7899957953
0.7899958726
0.7899965451
0.7899969524
0.7899970256
0.7899967998
0.7899963188
0.7899958075
0.789995634
0.7899959123
0.7899967354
0.7899973708
0.789997797
0.7899977635
0.7899975961
0.7899972497
0.7899968516
0.7899966132
0.7899963709
0.7899960332
0.7899958271
0.7899956063
0.7899955141
0.7899955306
0.7899955738
0.789997018
0.7899972037
0.7899970449
0.7899962748
0.789996558
0.7899967699
0.7899967556
0.7899965863
0.7899962584
0.7899957381
0.7899957078
0.7899960584
0.7899964406
0.7899967909
0.7899971454
0.7899973358
0.7899973142
0.7899971635
0.7899969237
0.7899966733
0.7899964232
0.7899963038
0.7899963425
0.7899962552
0.7899957445
0.789995524
0.7899955439
0.789996804
0.789997241
0.7899969451
0.789996563
0.7899967
0.7899965679
0.7899963329
0.7899961913
0.789995924
0.7899956748
0.7899957334
0.7899961828
0.7899965486
0.7899966318
0.7899967551
0.789996976
0.7899969418
0.7899971023
0.7899971089
0.789997004
0.7899968282
0.7899966962
0.7899966291
0.7899964901
0.7899960135
0.7899957037
0.7899957038
0.7899964164
0.7899966989
0.7899963746
0.7899963869
0.7899964329
0.789996288
0.7899960217
0.7899959045
0.789995755
0.7899956665
0.7899958342
0.7899963021
0.7899967155
0.7899968133
0.7899968715
0.7899970356
0.7899971747
0.7899973441
0.7899973714
0.7899973478
0.7899972227
0.7899970382
0.7899968518
0.7899966569
0.7899963184
0.7899959995
0.7899958968
0.7899961035
0.789995971
0.7899958676
0.7899959639
0.7899960416
0.7899959552
0.7899957373
0.7899956707
0.7899956398
0.7899957127
0.7899959945
0.7899964808
0.789996853
0.7899970021
0.7899971169
0.7899972599
0.7899974293
0.7899976053
0.789997596
0.7899976475
0.7899975724
0.7899973806
0.7899971219
0.7899968555
0.7899965734
0.7899962964
0.7899960789
0.7899961708
0.7899957946
0.7899955024
0.7899955622
0.7899956608
0.7899956599
0.7899955264
0.7899955353
0.7899956288
0.789995841
0.7899962103
0.7899966821
0.7899970246
0.7899972205
0.7899973402
0.7899974365
0.7899975326
0.7899976809
0.7899971434
0.7899974774
0.7899976197
0.7899975502
0.7899973323
0.7899970583
0.7899967864
0.7899965079
0.7899962292
0.7899964424
0.7899958476
0.7899953378
0.7899952941
0.789995381
0.789995431
0.7899954012
0.789995525
0.789995724
0.789996022
0.7899964142
0.789996872
0.7899973517
0.7899975981
0.7899976804
0.7899975917
0.78999756
0.7899975874
0.7899961952
0.7899972648
0.789997606
0.7899976309
0.7899974642
0.7899972133
0.7899969528
0.7899966512
0.7899963605
0.7899965549
0.7899960082
0.7899953133
0.7899951551
0.7899951743
0.7899952512
0.7899953564
0.7899956035
0.789995875
0.7899962106
0.7899966031
0.789997076
0.7899975401
0.7899977599
0.7899978998
0.7899977773
0.7899976734
0.7899976206
0.789997211
0.7899975132
0.7899976604
0.7899976494
0.7899975057
0.7899972916
0.7899970504
0.7899967428
0.7899964515
0.7899965392
0.7899961679
0.7899953415
0.7899950323
0.789995028
0.789995149
0.7899953841
0.7899956948
0.7899960016
0.7899963258
0.7899966937
0.7899971113
0.7899975788
0.7899977986
0.7899979429
0.7899978127
0.7899977105
0.789997657
0.7899975324
0.7899976018
0.789997639
0.7899975988
0.7899974795
0.7899973091
0.7899970812
0.7899967898
0.7899964885
0.7899961463
0.789995936
0.7899953864
0.7899949549
0.7899949749
0.7899951437
0.7899954337
0.789995762
0.7899960738
0.7899963804
0.7899966907
0.7899970046
0.7899974072
0.789997608
0.7899977517
0.7899976707
0.789997634
0.7899976106
0.789997565
0.7899975661
0.7899975555
0.7899975076
0.7899974144
0.7899972789
0.7899970578
0.789996791
0.789996474
0.7899955294
0.7899956099
0.7899951155
0.7899948808
0.7899949899
0.7899951936
0.7899954758
0.7899957914
0.7899960866
0.7899963574
0.7899965979
0.7899968454
0.7899971369
0.7899972962
0.7899974575
0.7899974688
0.7899974861
0.7899974734
0.7899974412
0.7899974239
0.7899974068
0.7899973732
0.7899973098
0.7899971928
0.7899969904
0.7899967413
0.7899964164
0.789995341
0.7899952049
0.7899949847
0.7899949376
0.7899950477
0.7899952499
0.7899955055
0.7899958017
0.7899960629
0.7899962539
0.7899964306
0.789996649
0.7899968815
0.7899970473
0.7899972047
0.7899972645
0.7899972832
0.7899972521
0.7899972107
0.7899971913
0.7899971891
0.7899971849
0.7899971568
0.7899970604
0.7899968788
0.7899966399
0.7899963332
0.7899954166
0.789995147
0.7899950018
0.7899949767
0.7899950833
0.789995273
0.7899955272
0.789995845
0.7899960673
0.7899961542
0.7899962385
0.7899964046
0.7899966054
0.7899967876
0.7899969451
0.7899970271
0.7899970329
0.789996978
0.7899969217
0.7899969033
0.789996921
0.7899969499
0.7899969585
0.7899968861
0.7899967258
0.7899965044
0.7899962478
0.7899955888
0.7899952776
0.7899950562
0.7899949999
0.7899950675
0.7899952411
0.7899954768
0.7899958718
0.7899960823
0.7899960853
0.7899960651
0.7899961428
0.7899963028
0.7899964909
0.7899966577
0.7899967587
0.7899967642
0.7899966964
0.7899966266
0.7899966045
0.7899966347
0.7899966898
0.7899967284
0.7899966766
0.7899965432
0.7899963558
0.7899961722
0.7899957583
0.7899954266
0.7899951495
0.7899950523
0.7899950603
0.7899951923
0.7899953479
0.7899957335
0.7899959946
0.7899959763
0.7899958752
0.7899958768
0.7899959977
0.7899961817
0.7899963584
0.7899964816
0.7899965033
0.7899964386
0.789996363
0.7899963344