/*--------------------------------*- C++ -*----------------------------------*\
  =========                 |
  \\      /  F ield         | OpenFOAM: The Open Source CFD Toolbox
   \\    /   O peration     | Website:  https://openfoam.org
    \\  /    A nd           | Version:  8
     \\/     M anipulation  |
\*---------------------------------------------------------------------------*/
FoamFile
{
    version     2.0;
    format      ascii;
    class       volScalarField;
    location    "0.8";
    object      p;
}
// * * * * * * * * * * * * * * * * * * * * * * * * * * * * * * * * * * * * * //

dimensions      [1 -1 -2 0 0 0 0];

internalField   nonuniform List<scalar> 
67451
(
100003.6976
100003.6993
100003.6983
100003.6952
100003.7006
100003.7311
100003.7779
100003.8172
100003.8127
100003.7573
100003.6991
100003.6936
100003.6938
100003.6991
100003.703
100003.7052
100003.7027
100003.6961
100003.6919
100003.7021
100003.746
100003.8117
100003.86
100003.8664
100003.804
100003.7299
100003.681
100003.6711
100003.6842
100003.7019
100003.7196
100003.7406
100003.7721
100003.7816
100003.8623
100003.8016
100003.9837
100003.6896
100003.6884
100003.6929
100003.691
100003.6909
100003.702
100003.7064
100003.7048
100003.7035
100003.7012
100003.699
100003.6857
100003.699
100003.7328
100003.7815
100003.7417
100003.7216
100003.7153
100003.711
100003.7091
100003.7113
100003.7195
100003.7329
100003.7604
100003.7569
100003.802
100003.6254
100003.7355
100003.6976
100003.6927
100003.7015
100003.7003
100003.7204
100003.7044
100003.7102
100003.7084
100003.7106
100003.7061
100003.7039
100003.6824
100003.6612
100003.6499
100003.7855
100003.7974
100003.8083
100003.7846
100003.7579
100003.739
100003.7294
100003.73
100003.7378
100003.7693
100003.7614
100003.7622
100003.5479
100003.8726
100003.7013
100003.7074
100003.7077
100003.7236
100003.7171
100003.7213
100003.7147
100003.7227
100003.7211
100003.7335
100003.7232
100003.771
100003.7625
100003.9389
100003.9459
100003.9474
100003.8732
100003.8191
100003.7821
100003.7602
100003.7537
100003.7581
100003.8119
100003.7998
100003.7377
100003.7176
100004.3034
100003.7155
100003.7184
100003.718
100003.7391
100003.7397
100003.7474
100003.7348
100003.7411
100003.737
100003.7374
100003.6959
100003.6869
100003.6237
100003.7018
100004.1633
100004.1213
100003.995
100003.919
100003.8606
100003.8156
100003.7937
100003.7916
100003.8613
100003.8851
100003.8625
100004.0081
100004.7301
100003.7406
100003.7313
100003.7301
100003.7524
100003.7612
100003.7722
100003.7652
100003.775
100003.7932
100003.8222
100003.7977
100003.7793
100003.5146
100004.6526
100004.7848
100004.481
100004.3189
100004.142
100004.0022
100003.9099
100003.8651
100003.8543
100003.865
100003.918
100003.9526
100003.7555
100003.8705
100003.7624
100003.7515
100003.7473
100003.7709
100003.7872
100003.8011
100003.7929
100003.8107
100003.8008
100003.8178
100003.8066
100003.8752
100004.1487
100003.0545
100010.741
100006.9376
100005.1551
100004.4325
100004.143
100004.0211
100003.9917
100004.0005
100003.9657
100003.9798
100004.0572
100004.031
100004.1107
100003.7859
100003.7721
100003.7707
100003.7964
100003.8121
100003.8349
100003.8249
100003.8253
100003.8382
100003.8662
100003.8667
100003.889
100003.9901
100003.9925
100005.5278
100004.7924
100004.4229
100004.2495
100004.1264
100004.0786
100004.1385
100004.1926
100004.0871
100003.9999
100004.0727
100004.1276
100004.2306
100003.815
100003.8322
100003.8059
100003.8446
100003.8836
100003.9916
100003.9353
100004.1203
100003.9099
100003.906
100003.8937
100003.8616
100003.901
100004.0306
100004.6765
100004.419
100004.2583
100004.1527
100004.0786
100004.0305
100004.0227
100003.9969
100003.9537
100003.9745
100004.0294
100004.0652
100004.1239
100003.9532
100004.1295
100003.9033
100003.8443
100003.8974
100003.9386
100003.991
100003.9873
100004.2918
100004.0352
100003.9246
100003.8836
100003.8838
100003.9711
100004.175
100004.1617
100004.1322
100004.102
100004.0691
100004.0315
100003.9954
100003.9651
100003.9697
100003.9923
100004.0061
100004.0189
100004.0828
100004.1067
100004.5252
100004.0432
100003.8775
100003.9133
100003.907
100003.9008
100003.8866
100003.9028
100003.8779
100003.8765
100003.8746
100003.8743
100003.9163
100003.9936
100004.0344
100004.0684
100004.082
100004.0821
100004.0639
100004.0411
100004.0224
100004.0104
100004.0104
100004.0073
100004.0034
100004.0666
100003.9767
100004.1169
100003.9709
100003.9151
100003.8998
100003.8472
100003.8231
100003.8181
100003.8217
100003.8222
100003.8442
100003.8604
100003.8723
100003.8955
100003.9381
100003.9826
100004.0323
100004.0713
100004.0975
100004.0928
100004.0692
100004.0475
100004.0153
100004.0077
100004.0217
100004.0305
100004.0713
100003.9116
100003.8937
100003.8828
100003.8788
100003.8599
100003.8188
100003.7899
100003.7786
100003.7807
100003.7938
100003.8285
100003.8526
100003.8637
100003.8867
100003.9306
100003.9683
100004.0178
100004.0721
100004.1238
100004.1395
100004.1241
100004.0849
100004.0354
100004.0077
100004.0234
100004.0491
100004.0993
100003.9272
100003.9438
100003.8741
100003.8462
100003.8145
100003.7841
100003.7622
100003.7533
100003.7581
100003.777
100003.8188
100003.8372
100003.8433
100003.8654
100003.9353
100003.976
100004.0211
100004.0878
100004.1935
100004.2085
100004.1891
100004.1404
100004.0788
100004.0252
100004.0179
100004.0432
100004.1258
100003.9237
100003.9532
100003.8674
100003.8167
100003.7852
100003.7601
100003.7423
100003.7367
100003.745
100003.7669
100003.8075
100003.8
100003.7901
100003.8325
100003.9206
100003.9903
100004.0385
100004.0883
100004.1933
100004.1987
100004.1789
100004.1346
100004.0767
100004.0209
100004.0036
100004.0234
100004.1347
100004.0405
100003.9636
100003.8401
100003.7755
100003.7563
100003.7402
100003.7273
100003.7259
100003.7401
100003.7696
100003.7941
100003.7675
100003.7998
100003.9339
100003.9615
100003.9932
100004.0266
100004.0594
100004.1054
100004.1123
100004.1022
100004.0733
100004.0313
100003.9886
100003.9774
100003.9985
100004.1271
100004.1839
100004.1044
100003.8353
100003.71
100003.7202
100003.7219
100003.7178
100003.723
100003.7453
100003.7797
100003.7763
100003.7419
100003.8487
100004.0523
100004.0806
100003.9822
100003.9809
100004.0178
100004.0364
100004.0205
100004.0057
100003.9877
100003.9621
100003.9374
100003.9412
100003.9711
100004.1067
100004.2117
100004.3886
100003.9177
100003.6513
100003.6656
100003.6939
100003.7065
100003.7194
100003.7445
100003.7634
100003.7549
100003.7259
100003.8123
100003.9964
100004.052
100003.9693
100003.9246
100003.9381
100003.9493
100003.9402
100003.9249
100003.9113
100003.8957
100003.8857
100003.9052
100003.9437
100004.0767
100004.0472
100004.5086
100003.8883
100003.5912
100003.634
100003.6844
100003.7072
100003.7217
100003.7405
100003.7437
100003.7332
100003.7123
100003.7413
100003.8317
100003.8751
100003.8527
100003.8561
100003.8749
100003.881
100003.877
100003.8682
100003.8574
100003.8467
100003.847
100003.8767
100003.9189
100004.0417
100003.71
100004.0434
100003.6687
100003.5755
100003.6455
100003.6884
100003.7122
100003.726
100003.7369
100003.7271
100003.7169
100003.7043
100003.7063
100003.7229
100003.7548
100003.7783
100003.8047
100003.8252
100003.8306
100003.8313
100003.8277
100003.8197
100003.8137
100003.8213
100003.8549
100003.8982
100004.0076
100003.5707
100003.5619
100003.5456
100003.6077
100003.664
100003.6959
100003.7181
100003.7281
100003.7271
100003.7205
100003.7104
100003.7013
100003.7018
100003.6895
100003.7085
100003.7396
100003.7604
100003.7798
100003.7931
100003.7992
100003.7967
100003.7895
100003.7877
100003.8006
100003.8369
100003.8813
100003.9781
100003.6672
100003.5636
100003.6147
100003.6606
100003.6856
100003.7068
100003.7192
100003.7189
100003.7111
100003.7103
100003.7105
100003.7021
100003.7022
100003.6909
100003.6964
100003.7095
100003.7203
100003.7411
100003.7642
100003.7752
100003.7732
100003.7663
100003.7671
100003.7842
100003.8231
100003.8684
100003.955
100003.752
100003.7154
100003.7007
100003.7101
100003.7129
100003.7194
100003.7143
100003.7117
100003.7127
100003.7103
100003.7165
100003.7058
100003.7006
100003.6938
100003.6905
100003.6909
100003.6935
100003.7114
100003.7389
100003.7533
100003.7548
100003.751
100003.7549
100003.7757
100003.8162
100003.8611
100003.9395
100003.7857
100003.7877
100003.7539
100003.7489
100003.7408
100003.7325
100003.7078
100003.7106
100003.7422
100003.7354
100003.7171
100003.7036
100003.6978
100003.694
100003.6894
100003.6868
100003.6836
100003.6933
100003.7185
100003.7345
100003.7411
100003.7436
100003.7534
100003.7783
100003.8195
100003.8622
100003.9327
100003.8056
100003.8104
100003.7884
100003.7762
100003.7633
100003.7468
100003.7097
100003.7069
100003.7446
100003.7401
100003.7129
100003.6964
100003.694
100003.6953
100003.6948
100003.6941
100003.6898
100003.6922
100003.7098
100003.7254
100003.7367
100003.7467
100003.7644
100003.7938
100003.8347
100003.8741
100003.9358
100003.8364
100003.8322
100003.8146
100003.7971
100003.7819
100003.7661
100003.7307
100003.7063
100003.734
100003.7316
100003.7079
100003.6966
100003.7001
100003.7055
100003.7091
100003.7118
100003.7106
100003.711
100003.7203
100003.7339
100003.7487
100003.7662
100003.791
100003.823
100003.8624
100003.8977
100003.95
100003.8467
100003.8461
100003.8338
100003.8162
100003.801
100003.7882
100003.763
100003.7265
100003.7289
100003.7271
100003.7146
100003.7145
100003.7229
100003.7303
100003.7361
100003.7416
100003.7445
100003.7472
100003.7542
100003.7667
100003.7838
100003.8057
100003.8333
100003.8651
100003.9017
100003.9324
100003.975
100003.8665
100003.8674
100003.8582
100003.8429
100003.8291
100003.818
100003.8018
100003.7727
100003.7549
100003.7531
100003.752
100003.7576
100003.7652
100003.7724
100003.7791
100003.7866
100003.7935
100003.8006
100003.8101
100003.8238
100003.8422
100003.8646
100003.8911
100003.9199
100003.9519
100003.977
100004.0102
100003.887
100003.8874
100003.8799
100003.8679
100003.8569
100003.8483
100003.8398
100003.8245
100003.8093
100003.8081
100003.808
100003.8108
100003.8151
100003.82
100003.8264
100003.8355
100003.8466
100003.859
100003.8736
100003.8903
100003.9091
100003.9295
100003.9519
100003.9754
100004.0014
100004.0212
100004.048
100003.9631
100003.9546
100003.9412
100003.9284
100003.92
100003.9164
100003.9161
100003.9331
100003.9448
100003.9445
100003.9293
100003.9139
100003.9044
100003.9028
100003.9085
100003.9211
100003.9379
100003.9586
100003.9824
100004.0044
100004.022
100004.0355
100004.0477
100004.0602
100004.0751
100004.0834
100004.0963
100003.5664
100003.5696
100003.5623
100003.5501
100003.5436
100003.544
100003.5437
100003.5406
100003.5325
100003.5182
100003.51
100003.5536
100003.5593
100003.5608
100003.5664
100003.5665
100003.564
100003.5509
100003.5406
100003.5331
100003.5294
100003.5295
100003.53
100003.5299
100003.5209
100003.5151
100003.5089
100003.4968
100003.4915
100003.5063
100003.537
100003.563
100003.5836
100003.5716
100003.5568
100003.3946
100003.2157
100003.5446
100003.5454
100003.548
100003.5569
100003.5487
100003.566
100003.5658
100003.5734
100003.5675
100003.5533
100003.5362
100003.507
100003.4964
100003.4857
100003.4971
100003.5011
100003.4992
100003.4896
100003.4948
100003.5129
100003.533
100003.5478
100003.5546
100003.564
100003.5399
100003.4649
100003.2221
100003.1631
100003.5514
100003.5502
100003.5517
100003.5628
100003.5546
100003.5731
100003.5648
100003.5773
100003.5797
100003.5686
100003.5508
100003.4987
100003.4397
100003.4165
100003.3907
100003.4024
100003.4606
100003.5063
100003.5355
100003.5459
100003.5491
100003.5482
100003.5413
100003.548
100003.5098
100003.3578
100003.1876
100003.4136
100003.5629
100003.5584
100003.5689
100003.5889
100003.5886
100003.5829
100003.5819
100003.5848
100003.5781
100003.5654
100003.5363
100003.4619
100003.3566
100003.3029
100003.3858
100003.4999
100003.5427
100003.5621
100003.5627
100003.5596
100003.5475
100003.525
100003.5303
100003.4654
100003.3071
100003.3083
100003.6085
100003.5697
100003.5633
100003.5709
100003.5948
100003.606
100003.6035
100003.5961
100003.5931
100003.5863
100003.5637
100003.5225
100003.4291
100003.2996
100003.0015
100002.9297
100003.3343
100003.4937
100003.5579
100003.5816
100003.5798
100003.5549
100003.5241
100003.5143
100003.457
100003.4117
100003.4333
100003.7469
100003.5792
100003.5697
100003.5761
100003.6042
100003.6232
100003.6257
100003.6125
100003.6033
100003.5983
100003.6012
100003.4845
100003.2413
100003.0219
100002.4162
100003.1069
100003.3198
100003.4861
100003.6138
100003.6449
100003.6302
100003.591
100003.563
100003.5365
100003.5271
100003.5563
100003.4771
100003.4849
100003.5833
100003.568
100003.5808
100003.6139
100003.6425
100003.6497
100003.6264
100003.6087
100003.5932
100003.6022
100003.5027
100003.3615
100002.9262
100002.4519
99997.50098
100003.222
100002.8584
100003.5684
100003.6994
100003.6986
100003.6577
100003.6327
100003.6085
100003.5565
100003.5988
100003.55
100003.4374
100003.5826
100003.5544
100003.5901
100003.6218
100003.6475
100003.6522
100003.6244
100003.5848
100003.5782
100003.6168
100003.5575
100003.4946
100003.3519
100003.1947
100002.8525
100003.5351
100003.658
100003.7592
100003.7912
100003.757
100003.7135
100003.7046
100003.6835
100003.6493
100003.6687
100003.6874
100003.7073
100003.5631
100003.5446
100003.5733
100003.6205
100003.6646
100003.8191
100003.6455
100003.5301
100003.5352
100003.6055
100003.6079
100003.5574
100003.4755
100003.4219
100003.046
100003.6744
100003.7373
100003.8065
100003.8217
100003.8081
100003.754
100003.7172
100003.6909
100003.6746
100003.7411
100003.7385
100003.7951
100003.5552
100003.5382
100003.5769
100003.5896
100003.6677
100003.6831
100003.6806
100003.615
100003.304
100003.6192
100003.6355
100003.6203
100003.5842
100003.589
100003.6338
100003.7613
100003.8226
100003.8538
100003.8528
100003.8247
100003.7613
100003.6988
100003.6891
100003.7186
100003.7698
100003.7591
100003.838
100003.5572
100003.5862
100003.527
100003.5368
100003.6347
100003.6642
100003.6631
100003.625
100003.5731
100003.6307
100003.6611
100003.6682
100003.6482
100003.6616
100003.6989
100003.7891
100003.8739
100003.9039
100003.9142
100003.9011
100003.8611
100003.8059
100003.8001
100003.8271
100003.8281
100003.7726
100003.843
100003.5587
100003.5049
100003.5532
100003.6067
100003.6399
100003.6321
100003.6269
100003.6164
100003.6083
100003.6316
100003.6647
100003.6918
100003.6861
100003.6899
100003.7264
100003.7889
100003.861
100003.9087
100003.9351
100003.9062
100003.8585
100003.8184
100003.7961
100003.797
100003.8245
100003.7897
100003.8396
100003.6055
100003.4991
100003.583
100003.6038
100003.6309
100003.6194
100003.6108
100003.6054
100003.6075
100003.6258
100003.6631
100003.696
100003.7016
100003.7097
100003.7427
100003.7901
100003.849
100003.9006
100003.9478
100003.928
100003.8908
100003.8491
100003.8121
100003.7868
100003.8026
100003.8082
100003.859
100003.6402
100003.6052
100003.6241
100003.625
100003.6198
100003.6067
100003.5953
100003.5915
100003.5973
100003.6147
100003.6516
100003.6741
100003.6698
100003.6808
100003.7409
100003.7964
100003.8562
100003.9237
100004.0732
100004.0098
100003.9476
100003.8864
100003.8349
100003.7987
100003.7941
100003.8089
100003.8878
100003.6128
100003.622
100003.6135
100003.604
100003.5998
100003.5888
100003.5794
100003.5776
100003.5852
100003.6008
100003.6323
100003.6276
100003.616
100003.6372
100003.7169
100003.8106
100003.8626
100003.9292
100004.1465
100004.0361
100003.9523
100003.8852
100003.8322
100003.7942
100003.7867
100003.7953
100003.8957
100003.5898
100003.5879
100003.5554
100003.5372
100003.556
100003.56
100003.5605
100003.5638
100003.5731
100003.5887
100003.6023
100003.5556
100003.5558
100003.5907
100003.6628
100003.7448
100003.8338
100003.8845
100003.9861
100003.941
100003.8891
100003.8413
100003.8007
100003.7713
100003.7693
100003.7746
100003.8823
100003.5694
100003.5771
100003.498
100003.4506
100003.4829
100003.5125
100003.5366
100003.5501
100003.563
100003.5827
100003.5583
100003.5089
100003.5419
100003.5881
100003.6398
100003.6713
100003.7189
100003.7923
100003.861
100003.8426
100003.8114
100003.7808
100003.7546
100003.7379
100003.7438
100003.7513
100003.8615
100003.5125
100003.52
100003.4221
100003.3661
100003.4125
100003.459
100003.5132
100003.5383
100003.5584
100003.5785
100003.5478
100003.4986
100003.5302
100003.569
100003.6208
100003.6402
100003.6662
100003.7246
100003.7783
100003.7697
100003.7471
100003.7253
100003.7088
100003.7031
100003.7153
100003.73
100003.841
100003.387
100003.4798
100003.3589
100003.2904
100003.3279
100003.4139
100003.496
100003.5339
100003.5614
100003.5768
100003.551
100003.5056
100003.5164
100003.5301
100003.5725
100003.5921
100003.6266
100003.6825
100003.7181
100003.7157
100003.6997
100003.6824
100003.6713
100003.6715
100003.691
100003.7164
100003.8254
100003.2884
100003.3666
100003.2822
100003.2233
100003.3129
100003.4235
100003.5014
100003.5431
100003.5713
100003.5765
100003.5549
100003.524
100003.5169
100003.5092
100003.5356
100003.5628
100003.605
100003.6447
100003.6639
100003.6666
100003.6598
100003.6493
100003.6438
100003.6495
100003.6766
100003.7122
100003.8138
100003.2325
100003.2507
100003.221
100003.2342
100003.3736
100003.465
100003.5242
100003.5602
100003.5701
100003.5761
100003.5583
100003.5384
100003.5278
100003.5128
100003.5244
100003.5514
100003.5824
100003.6042
100003.6177
100003.6244
100003.6243
100003.6212
100003.6227
100003.6351
100003.6684
100003.7106
100003.8018
100003.3065
100003.2169
100003.2894
100003.3603
100003.4579
100003.5117
100003.5426
100003.5585
100003.5432
100003.5666
100003.5619
100003.5488
100003.5387
100003.5254
100003.529
100003.5467
100003.557
100003.5685
100003.583
100003.5931
100003.597
100003.5993
100003.6068
100003.6241
100003.661
100003.706
100003.7871
100003.4594
100003.3713
100003.4458
100003.4919
100003.5309
100003.5498
100003.5453
100003.5393
100003.5373
100003.548
100003.557
100003.5529
100003.5458
100003.538
100003.5368
100003.5411
100003.5377
100003.5443
100003.5598
100003.572
100003.5795
100003.5864
100003.5984
100003.6184
100003.6566
100003.7018
100003.7746
100003.5623
100003.5464
100003.5665
100003.5806
100003.5847
100003.5701
100003.5383
100003.5282
100003.5382
100003.5494
100003.5523
100003.5488
100003.5446
100003.5431
100003.5431
100003.5416
100003.5315
100003.534
100003.5483
100003.5615
100003.5724
100003.5839
100003.5998
100003.6222
100003.6614
100003.7053
100003.7707
100003.6229
100003.6355
100003.6334
100003.6268
100003.6168
100003.5834
100003.5394
100003.5271
100003.5378
100003.5485
100003.5485
100003.5448
100003.5411
100003.5449
100003.5501
100003.5508
100003.5411
100003.5386
100003.5504
100003.5636
100003.5773
100003.5927
100003.6121
100003.6376
100003.679
100003.7207
100003.7788
100003.6921
100003.6974
100003.6754
100003.6538
100003.6376
100003.6058
100003.5558
100003.5352
100003.5405
100003.548
100003.5488
100003.5454
100003.5435
100003.5537
100003.5649
100003.5699
100003.5642
100003.5583
100003.5666
100003.5793
100003.5947
100003.6129
100003.6357
100003.6667
100003.7102
100003.7489
100003.7993
100003.7009
100003.7122
100003.6951
100003.6723
100003.655
100003.6331
100003.5889
100003.5527
100003.5518
100003.5548
100003.5539
100003.5515
100003.5576
100003.5763
100003.5917
100003.6
100003.5996
100003.5945
100003.5985
100003.6096
100003.6256
100003.6467
100003.6749
100003.7103
100003.7532
100003.7879
100003.8312
100003.7229
100003.7309
100003.7184
100003.6973
100003.6807
100003.6656
100003.6353
100003.5887
100003.5742
100003.5733
100003.571
100003.5765
100003.5953
100003.6184
100003.634
100003.6438
100003.6483
100003.6482
100003.6511
100003.6608
100003.6779
100003.7019
100003.7327
100003.7674
100003.8063
100003.8363
100003.873
100003.7408
100003.7471
100003.7377
100003.7186
100003.7026
100003.691
100003.6746
100003.6296
100003.5975
100003.5922
100003.5979
100003.6175
100003.6429
100003.6634
100003.6768
100003.6875
100003.6969
100003.7034
100003.7101
100003.7216
100003.7394
100003.7629
100003.7915
100003.8222
100003.8564
100003.8828
100003.9159
100003.8106
100003.811
100003.7999
100003.7808
100003.7647
100003.7568
100003.75
100003.7299
100003.7022
100003.6968
100003.7012
100003.7133
100003.7268
100003.7382
100003.7491
100003.7628
100003.7781
100003.7926
100003.8068
100003.8218
100003.8384
100003.8567
100003.8774
100003.8991
100003.9252
100003.9433
100003.9631
100003.4309
100003.4375
100003.4447
100003.4494
100003.4435
100003.4411
100003.4378
100003.4352
100003.4315
100003.4243
100003.4156
100003.4078
100003.4117
100003.4175
100003.4195
100003.4251
100003.4263
100003.4291
100003.436
100003.4418
100003.4465
100003.4473
100003.4418
100003.4381
100003.4315
100003.4282
100003.4261
100003.4213
100003.4165
100003.4104
100003.4118
100003.4168
100003.419
100003.4174
100003.4195
100003.4236
100003.4309
100003.4225
100003.4314
100003.4001
100003.4284
100003.4299
100003.4274
100003.4299
100003.4324
100003.4345
100003.4419
100003.4466
100003.4513
100003.4515
100003.4466
100003.4397
100003.4307
100003.4222
100003.4173
100003.4114
100003.4186
100003.4207
100003.4205
100003.4171
100003.4141
100003.4137
100003.416
100003.4186
100003.4247
100003.416
100003.4226
100003.3978
100003.4447
100003.438
100003.4349
100003.4393
100003.4446
100003.4501
100003.4537
100003.4558
100003.4586
100003.4588
100003.4531
100003.4429
100003.4294
100003.4185
100003.4221
100003.4093
100003.4093
100003.4078
100003.4141
100003.4163
100003.4179
100003.4198
100003.4228
100003.4255
100003.4335
100003.4282
100003.432
100003.4317
100003.4904
100003.4491
100003.4491
100003.4537
100003.4639
100003.4679
100003.4693
100003.4692
100003.4692
100003.4621
100003.4481
100003.4329
100003.3888
100003.4035
100003.3009
100003.3704
100003.3993
100003.4379
100003.4386
100003.4395
100003.4391
100003.4417
100003.4455
100003.4599
100003.4622
100003.4622
100003.448
100003.6047
100003.4537
100003.4534
100003.4591
100003.4717
100003.4833
100003.4856
100003.4846
100003.4827
100003.4738
100003.4595
100003.4425
100003.386
100003.4034
100003.2878
100003.3186
100003.4156
100003.4513
100003.4572
100003.4636
100003.4668
100003.4701
100003.4743
100003.4986
100003.5481
100003.5897
100003.5904
100003.7564
100003.4628
100003.4618
100003.4689
100003.4823
100003.499
100003.4998
100003.5008
100003.4952
100003.4835
100003.4686
100003.4235
100003.3443
100003.3291
100003.2279
100003.2911
100003.4102
100003.4786
100003.4893
100003.5021
100003.502
100003.5012
100003.5018
100003.5206
100003.5351
100003.6607
100003.6282
100003.7101
100003.4732
100003.4753
100003.4851
100003.4996
100003.5335
100003.5168
100003.5213
100003.5083
100003.4957
100003.4918
100003.46
100003.4054
100003.3506
100003.1935
100003.1444
100003.7467
100003.4585
100003.529
100003.5542
100003.5537
100003.55
100003.5497
100003.5496
100003.5691
100003.6149
100003.6198
100003.7091
100003.469
100003.4725
100003.4916
100003.5095
100003.5252
100003.4923
100003.5217
100003.4966
100003.49
100003.4901
100003.4712
100003.4368
100003.4509
100003.4154
100003.509
100003.5699
100003.5905
100003.6111
100003.6227
100003.6165
100003.6132
100003.6182
100003.6202
100003.6315
100003.6541
100003.6779
100003.7532
100003.4948
100003.519
100003.527
100003.5372
100003.515
100003.515
100003.5317
100003.4664
100003.4622
100003.4885
100003.494
100003.4807
100003.4697
100003.4523
100003.4293
100003.5848
100003.6352
100003.6648
100003.6709
100003.6618
100003.6526
100003.6543
100003.6606
100003.6737
100003.6709
100003.7003
100003.7691
100003.445
100003.4587
100003.4712
100003.5357
100003.5333
100003.5262
100003.4528
100003.4571
100003.3739
100003.4833
100003.49
100003.4987
100003.4998
100003.5116
100003.5623
100003.6256
100003.6905
100003.7166
100003.7244
100003.7177
100003.7005
100003.6841
100003.673
100003.6844
100003.6877
100003.7103
100003.7759
100003.5157
100003.5477
100003.5219
100003.5573
100003.5366
100003.5273
100003.5303
100003.4868
100003.4851
100003.4927
100003.5082
100003.5252
100003.5356
100003.5636
100003.6198
100003.6856
100003.8613
100003.8195
100003.7935
100003.7624
100003.7313
100003.704
100003.6847
100003.6877
100003.698
100003.704
100003.7551
100003.5071
100003.4987
100003.5245
100003.5372
100003.5274
100003.5095
100003.4988
100003.4811
100003.4785
100003.4905
100003.5105
100003.5299
100003.5415
100003.5663
100003.6164
100003.6781
100003.7756
100003.7949
100003.8229
100003.7863
100003.743
100003.7081
100003.685
100003.6755
100003.6869
100003.6907
100003.7272
100003.5389
100003.5426
100003.5356
100003.5291
100003.5164
100003.4957
100003.4848
100003.4768
100003.4776
100003.4874
100003.5091
100003.5289
100003.5403
100003.5654
100003.609
100003.6682
100003.7351
100003.7632
100003.8469
100003.8033
100003.7581
100003.7192
100003.6916
100003.675
100003.6759
100003.6761
100003.7074
100003.542
100003.555
100003.5395
100003.5217
100003.5055
100003.4844
100003.4748
100003.4702
100003.4719
100003.4822
100003.5018
100003.5166
100003.5259
100003.5582
100003.609
100003.6764
100003.7584
100003.7822
100004.1175
100003.9377
100003.8352
100003.757
100003.7057
100003.6765
100003.6699
100003.6639
100003.6992
100003.5181
100003.5333
100003.5278
100003.5032
100003.4918
100003.4735
100003.4672
100003.4625
100003.4647
100003.4761
100003.4922
100003.505
100003.4974
100003.5337
100003.5956
100003.6913
100003.7883
100003.8367
100004.6964
100004.0832
100003.8706
100003.7579
100003.6962
100003.6639
100003.656
100003.6494
100003.6916
100003.4943
100003.5037
100003.4953
100003.4733
100003.4736
100003.4618
100003.46
100003.4538
100003.4587
100003.471
100003.4828
100003.4869
100003.4753
100003.5104
100003.5616
100003.6395
100003.7222
100003.7893
100004.0637
100003.8917
100003.781
100003.7069
100003.6612
100003.6365
100003.6332
100003.6314
100003.6786
100003.4733
100003.485
100003.459
100003.4446
100003.4523
100003.4489
100003.4506
100003.4471
100003.4556
100003.468
100003.4739
100003.4718
100003.4648
100003.5021
100003.5469
100003.6001
100003.6577
100003.7093
100003.7953
100003.7428
100003.6874
100003.6442
100003.6159
100003.6017
100003.6073
100003.6124
100003.662
100003.4465
100003.4719
100003.4127
100003.4133
100003.4314
100003.4339
100003.4403
100003.4432
100003.4541
100003.4632
100003.4625
100003.4584
100003.4525
100003.4831
100003.5221
100003.5636
100003.5999
100003.6297
100003.6589
100003.6401
100003.6122
100003.5878
100003.5723
100003.5678
100003.5818
100003.5938
100003.6438
100003.4113
100003.481
100003.4005
100003.4143
100003.4214
100003.4226
100003.4336
100003.4423
100003.4526
100003.4572
100003.4516
100003.4457
100003.4405
100003.4562
100003.4843
100003.5175
100003.541
100003.56
100003.5733
100003.5675
100003.5541
100003.5411
100003.5347
100003.5384
100003.5578
100003.5756
100003.6259
100003.3765
100003.4065
100003.3893
100003.4082
100003.4137
100003.4155
100003.4318
100003.445
100003.4536
100003.4534
100003.4446
100003.4373
100003.4318
100003.4362
100003.4531
100003.4755
100003.4909
100003.5046
100003.5141
100003.5144
100003.509
100003.5033
100003.5032
100003.5124
100003.5364
100003.5592
100003.6097
100003.4091
100003.3933
100003.4063
100003.4054
100003.4108
100003.4131
100003.4337
100003.4481
100003.4556
100003.4552
100003.4427
100003.4339
100003.427
100003.4251
100003.4324
100003.4439
100003.4525
100003.4627
100003.4717
100003.4755
100003.4748
100003.4741
100003.4791
100003.4927
100003.5197
100003.5462
100003.5946
100003.4221
100003.4248
100003.4217
100003.4144
100003.4156
100003.415
100003.431
100003.4357
100003.4428
100003.4512
100003.4421
100003.4326
100003.4246
100003.4194
100003.4198
100003.423
100003.4255
100003.4327
100003.442
100003.4483
100003.4512
100003.4544
100003.4639
100003.481
100003.5096
100003.5377
100003.5826
100003.4383
100003.4528
100003.4444
100003.4375
100003.4318
100003.4249
100003.4248
100003.418
100003.426
100003.4376
100003.4368
100003.4296
100003.4219
100003.4161
100003.4128
100003.4109
100003.4095
100003.4142
100003.4233
100003.4315
100003.4377
100003.4451
100003.4586
100003.4783
100003.5076
100003.5355
100003.5767
100003.4639
100003.4944
100003.4752
100003.4662
100003.4549
100003.4388
100003.4224
100003.4086
100003.4166
100003.4274
100003.4294
100003.4247
100003.4187
100003.4131
100003.4087
100003.4057
100003.4039
100003.4072
100003.4155
100003.4249
100003.4344
100003.4463
100003.4634
100003.4852
100003.515
100003.5419
100003.5795
100003.4942
100003.5439
100003.5061
100003.4926
100003.4763
100003.4544
100003.4307
100003.411
100003.4149
100003.422
100003.4232
100003.4213
100003.4181
100003.4146
100003.4116
100003.4093
100003.4077
100003.4111
100003.4194
100003.4299
100003.4424
100003.4575
100003.4774
100003.5016
100003.5321
100003.5582
100003.5921
100003.6021
100003.6334
100003.544
100003.5165
100003.4945
100003.4717
100003.4466
100003.424
100003.4217
100003.4244
100003.4249
100003.4261
100003.4252
100003.4237
100003.4229
100003.4226
100003.4221
100003.4259
100003.4346
100003.4463
100003.4605
100003.4781
100003.5009
100003.527
100003.5586
100003.5842
100003.6144
100003.57
100003.6066
100003.5515
100003.5285
100003.509
100003.4896
100003.4669
100003.4447
100003.4366
100003.436
100003.4384
100003.4408
100003.4403
100003.4407
100003.4424
100003.4446
100003.4462
100003.4504
100003.4591
100003.4716
100003.4876
100003.5077
100003.5326
100003.5604
100003.5932
100003.6183
100003.6452
100003.5824
100003.5959
100003.5652
100003.547
100003.531
100003.5143
100003.4948
100003.4738
100003.463
100003.461
100003.4628
100003.464
100003.4649
100003.468
100003.4726
100003.4771
100003.4816
100003.4872
100003.4963
100003.5094
100003.5266
100003.548
100003.5741
100003.6027
100003.6354
100003.659
100003.6829
100003.5872
100003.5872
100003.5709
100003.5574
100003.5453
100003.5312
100003.5145
100003.4935
100003.4815
100003.4785
100003.4785
100003.481
100003.486
100003.4928
100003.4996
100003.5069
100003.5147
100003.5231
100003.5335
100003.5472
100003.5649
100003.5867
100003.6128
100003.6406
100003.6724
100003.6955
100003.7191
100003.6222
100003.6158
100003.6013
100003.5883
100003.5774
100003.5658
100003.5517
100003.535
100003.5213
100003.5166
100003.5156
100003.5198
100003.5259
100003.5335
100003.5428
100003.5541
100003.566
100003.5776
100003.5902
100003.6045
100003.6213