/*--------------------------------*- C++ -*----------------------------------*\
  =========                 |
  \\      /  F ield         | OpenFOAM: The Open Source CFD Toolbox
   \\    /   O peration     | Website:  https://openfoam.org
    \\  /    A nd           | Version:  8
     \\/     M anipulation  |
\*---------------------------------------------------------------------------*/
FoamFile
{
    version     2.0;
    format      ascii;
    class       surfaceScalarField;
    location    "0.8";
    object      phi;
}
// * * * * * * * * * * * * * * * * * * * * * * * * * * * * * * * * * * * * * //

dimensions      [1 0 -1 0 0 0 0];

internalField   nonuniform List<scalar> 
197859
(
-2.108109949e-05
-1.527055952e-05
3.083004114e-06
-2.407002703e-05
-1.204677757e-05
5.192004255e-06
-2.730961613e-05
-1.211063299e-05
2.93121809e-06
-2.728445088e-05
-1.228540327e-05
-2.861677953e-06
-2.290165629e-05
-1.238956951e-05
-1.088661806e-05
-1.221478499e-05
-1.189837566e-05
-2.324132756e-05
5.388225042e-06
-1.232932047e-05
-3.55252518e-05
2.503707196e-05
-1.413918455e-05
-4.088257436e-05
4.175229534e-05
-1.619312949e-05
-3.759976049e-05
5.326326241e-05
-1.690916875e-05
-2.9995574e-05
-1.767560007e-05
-2.000921082e-05
-2.395275356e-05
-3.452373105e-05
8.617045197e-06
-2.594053929e-05
-3.102098205e-05
9.045507208e-06
-2.414696004e-05
-3.295004672e-05
8.088705147e-06
-2.213117366e-05
-2.65147381e-05
5.316027584e-06
-2.359236279e-05
-1.849229796e-05
4.682561925e-06
-2.967235408e-05
-1.09505468e-05
4.98337763e-06
-3.364059171e-05
-7.608030156e-06
-5.347705863e-07
-3.243414825e-05
-4.898511791e-06
-8.593774118e-06
-2.681399757e-05
8.584502921e-09
-1.801877958e-05
-1.490065518e-05
8.030695226e-06
-3.184291697e-05
4.157677693e-06
1.287052635e-05
-4.425870238e-05
2.52408193e-05
1.44300825e-05
-4.965294552e-05
4.437385566e-05
1.146415777e-05
-4.679085945e-05
5.816144302e-05
8.439048217e-06
-3.913634459e-05
6.613825843e-05
1.695190484e-06
-2.734812469e-05
6.8811722e-05
-5.429731932e-06
-1.568552576e-05
6.906788936e-05
-1.378576561e-05
-6.706378908e-06
6.650582828e-05
-2.179502616e-05
1.134054082e-06
5.986170324e-05
-2.87754802e-05
9.119648082e-06
5.026693329e-05
-3.463112589e-05
1.523503584e-05
4.012375074e-05
-4.069251817e-05
1.903551332e-05
2.97731339e-05
-4.665204025e-05
2.196075814e-05
1.667997738e-05
-5.198969254e-05
2.644164458e-05
-3.247960341e-06
-6.063943596e-05
3.528581217e-05
-1.545385759e-05
-7.786405696e-05
3.571845332e-05
-0.0001467621841
3.095197597e-05
-1.455470535e-05
-4.166304063e-05
6.569048404e-07
-1.495313878e-05
-3.838406832e-05
2.41793444e-06
-1.547497859e-05
-3.842800329e-05
4.425797771e-06
-1.768298722e-05
-3.616447348e-05
7.351173134e-06
-1.75531805e-05
-3.746908194e-05
4.388884698e-06
-1.543137234e-05
-3.474581651e-05
6.108919533e-06
-1.397733373e-05
-2.461467944e-05
4.667972664e-06
-1.454780746e-05
-1.602481485e-05
5.644340709e-06
-1.520592755e-05
-1.008579155e-05
3.135444922e-06
-1.464292477e-05
-5.103671078e-06
-3.583201401e-07
-1.333225317e-05
2.901696714e-07
-1.592773441e-06
-1.028433081e-05
1.426024446e-05
-9.278020233e-06
1.608330692e-06
2.294657322e-05
-2.196930858e-05
1.825634487e-05
2.701741578e-05
-2.923598205e-05
3.672061081e-05
1.788395822e-05
-2.488466687e-05
4.809838963e-05
1.454052835e-05
-1.747989695e-05
5.434504493e-05
4.785539545e-06
-9.337581704e-06
5.814493051e-05
-6.84087182e-06
-2.389211871e-06
5.811553586e-05
-1.913997248e-05
5.383224568e-06
5.490702192e-05
-3.004921969e-05
1.146238459e-05
5.016955862e-05
-3.82648379e-05
1.422652925e-05
4.481267037e-05
-4.457489709e-05
1.530038036e-05
3.932143388e-05
-5.247414468e-05
1.727257659e-05
3.112010164e-05
-6.018840916e-05
2.173737655e-05
1.645438018e-05
-6.676663563e-05
2.944226329e-05
-7.57414074e-06
-7.479289077e-05
3.818152747e-05
-1.314655513e-05
-9.278039e-05
2.048824127e-05
-0.0001553181892
-4.591037567e-06
-6.58335666e-06
-6.664831003e-06
-8.262399744e-06
-3.60416297e-05
-6.636977197e-07
-1.106911579e-05
-3.758105308e-05
1.959461986e-06
-1.346970305e-05
-3.740315156e-05
3.638936093e-06
-7.700119872e-06
-3.2669838e-05
-1.056911486e-05
-8.485461976e-06
-3.571777371e-05
1.756946402e-06
-9.099691112e-06
-2.471542754e-05
7.146063496e-07
-1.01729668e-05
-2.201778242e-05
7.065838364e-06
-1.093014269e-05
-1.881951035e-05
9.490449782e-06
-9.503524814e-06
-1.525491374e-05
8.724138066e-06
-6.983959707e-06
-1.427705079e-05
1.204712649e-05
-6.533317824e-06
8.811322404e-07
1.292789668e-05
-1.371586655e-06
1.613285856e-05
1.651339553e-06
8.36103576e-06
2.42801818e-05
-6.996220316e-06
2.38084019e-05
4.147186201e-06
-1.711490699e-06
3.558526277e-05
2.550620072e-06
2.121328406e-07
4.573304242e-05
-1.1763591e-05
6.400672519e-06
5.04574205e-05
-2.414590815e-05
1.258020052e-05
5.13540824e-05
-3.393570169e-05
1.38987067e-05
5.021316707e-05
-4.145998942e-05
1.255138782e-05
4.72875731e-05
-4.693212322e-05
1.159262706e-05
4.286439758e-05
-5.238762424e-05
1.223567348e-05
3.753799358e-05
-6.219842334e-05
1.505045816e-05
2.596167077e-05
-7.116307378e-05
2.255073341e-05
1.848560632e-06
-7.688983847e-05
3.423597631e-05
-2.395919046e-05
-7.907247661e-05
3.008703217e-05
-1.514862908e-05
-8.89555634e-05
-1.263579794e-05
-0.0001280064408
-4.246050334e-05
-1.937766475e-06
-3.291979593e-05
-3.776153306e-06
-2.7045504e-06
-3.722802043e-05
4.134485601e-07
-8.824433928e-06
-3.643143745e-05
5.147844379e-06
-1.200723845e-05
-3.609372053e-05
6.606354955e-06
-1.053743322e-05
-3.517613396e-05
-2.011803269e-06
-5.796653888e-06
-2.193006967e-05
-7.52651464e-06
-6.483341032e-06
-2.172853615e-05
3.970323825e-07
-9.363019293e-06
-2.251217943e-05
6.571898187e-06
-8.458565707e-06
-1.968682034e-05
3.526959026e-06
-7.062277764e-06
-1.838294599e-05
2.709059885e-06
-1.434219704e-05
-1.184314846e-05
2.000363437e-05
-1.939795015e-05
1.556639407e-06
1.963147812e-05
-1.60162535e-05
1.049002205e-05
1.040760109e-05
1.29402827e-05
-4.420189276e-05
1.939204455e-05
3.086704254e-05
-3.325315582e-05
1.787613329e-05
3.881856754e-05
-3.760330022e-05
1.7887564e-05
4.314750266e-05
-3.995315254e-05
1.147805019e-05
4.54175288e-05
-4.286043572e-05
6.654437752e-06
4.57757036e-05
-4.691823735e-05
5.099837106e-06
4.337017399e-05
-5.083371205e-05
6.306926575e-06
3.901292326e-05
-5.643761343e-05
8.407076294e-06
3.301101123e-05
-6.736326267e-05
1.116660654e-05
1.356722504e-05
-7.419038852e-05
2.247093923e-05
-2.41747842e-05
-7.542751647e-05
3.627945385e-05
-4.129253817e-05
-6.800723414e-05
6.052399264e-06
-1.250982409e-05
-5.904107678e-05
-5.869738747e-05
-5.694416944e-05
-8.357149815e-05
1.182283476e-06
-3.160785093e-05
-3.405205906e-06
7.039079955e-07
-3.693728263e-05
1.873389326e-07
-4.683277269e-06
-3.469810227e-05
3.65352896e-06
-1.091904977e-05
-3.702405966e-05
7.165784117e-06
-1.05734424e-05
-3.482969028e-05
-6.924047584e-07
-3.438645538e-06
-2.001458632e-05
-9.050655132e-06
-1.008500647e-06
-1.828718964e-05
-5.871895626e-06
-3.881180067e-06
-2.277427918e-05
3.13433391e-06
-4.666200581e-06
-2.028257888e-05
1.380283957e-06
-7.462218034e-06
-1.402355131e-05
-1.563963491e-06
-2.336435353e-05
-1.473702149e-05
1.879533545e-05
-3.589400582e-05
-1.278780432e-05
2.687336043e-05
-3.268232636e-05
-9.457683464e-06
1.673493707e-05
4.14356724e-07
-5.436247724e-05
-2.293781471e-05
2.652042583e-05
-6.381519888e-05
4.454001315e-06
3.460365707e-05
-5.273824129e-05
7.050666087e-06
3.997240421e-05
-4.589473739e-05
5.735566453e-07
4.270837021e-05
-4.42199968e-05
-1.376509512e-06
4.297382024e-05
-4.68842434e-05
-2.996281397e-07
4.004535729e-05
-5.037001284e-05
2.46462918e-06
3.716077634e-05
-5.598158478e-05
2.428457429e-06
3.225626196e-05
-6.47376138e-05
2.278802611e-06
7.662098968e-06
-6.57447191e-05
1.614848375e-05
-3.532761793e-05
-6.394856425e-05
3.151079008e-05
-4.681386358e-05
-4.368299697e-05
-1.283783932e-05
-6.588927074e-06
-2.356702362e-06
-9.690905485e-05
5.167402778e-05
-0.0001152054428
-2.213613101e-06
-2.937812438e-05
-3.381509265e-06
2.776930338e-06
-3.809639775e-05
-3.831728793e-06
4.079652372e-07
-3.373440456e-05
1.404947505e-06
-7.798209997e-06
-3.690612972e-05
8.087914596e-06
-9.611280504e-06
-3.625798148e-05
3.241011419e-06
-1.3723931e-06
-2.375852501e-05
-4.495319098e-06
6.144272896e-06
-1.866188607e-05
-7.142369137e-06
5.481028534e-06
-2.244991618e-05
3.384445793e-07
-4.89600719e-06
-1.878133695e-05
8.875315754e-06
-2.74542771e-05
-1.097585997e-05
1.951005905e-05
-6.096088066e-05
-8.090519898e-06
2.685956803e-05
-9.325805929e-05
-4.289827605e-06
2.379890435e-05
-6.606526391e-05
-3.747235983e-06
-3.290546528e-05
5.561351951e-05
4.959520942e-05
-0.0002256340158
8.415306811e-05
-1.989603731e-05
-7.246003643e-05
6.817374158e-05
-3.069222594e-05
-6.066936788e-06
5.429580897e-05
-2.925254656e-05
-2.764008097e-06
4.634050928e-05
-3.137220839e-05
-4.892676282e-06
4.035216635e-05
-3.777674975e-05
-3.119320768e-06
3.667646793e-05
-4.363472907e-05
-3.059683437e-06
4.018526477e-05
-4.922200742e-05
-1.026841987e-05
4.500484984e-05
-5.528846564e-05
-1.426874454e-05
4.088687242e-05
-5.636196057e-05
-5.264774274e-06
1.384524579e-05
-5.658040025e-05
1.967345613e-05
-2.256258602e-05
-4.199166949e-05
3.471646592e-05
-9.0812725e-06
-4.058129555e-06
-1.178007685e-05
8.130255368e-05
-3.870912874e-05
-8.280372334e-06
-2.920356416e-05
-7.427949625e-06
4.626135361e-06
-4.262225718e-05
-8.380954916e-06
5.393081953e-06
-3.410926373e-05
-3.924131354e-07
-3.849353993e-06
-3.644585685e-05
8.781827637e-06
-8.012836419e-06
-3.638542187e-05
4.290576145e-06
1.086737644e-08
-2.864407096e-05
-3.1385238e-06
1.243724102e-05
-2.559206054e-05
-5.496585741e-06
1.793327361e-05
-2.740323325e-05
-5.431350637e-07
1.184180813e-05
-2.147274211e-05
8.782401923e-06
-5.797987188e-06
-1.495458319e-05
2.161798444e-05
-3.027938973e-05
-5.731228915e-06
2.212150372e-05
-4.991179102e-05
2.900100667e-06
1.244156941e-05
-6.11329375e-05
1.000901648e-05
-2.537456747e-06
-3.415350881e-06
5.087232778e-05
-5.89957105e-05
0.0001167162777
8.377466599e-05
-0.0002238343834
7.231553618e-05
2.536047334e-05
-1.165699392e-05
4.781713012e-05
-3.837714862e-07
-4.372562521e-06
3.64370122e-05
-1.145395508e-05
-8.539212611e-06
2.735608727e-05
-2.111304168e-05
-7.583173721e-06
2.60345094e-05
-2.594645905e-05
-1.636678533e-05
3.754842116e-05
-2.600888708e-05
-3.472701314e-05
5.023380979e-05
-2.688470657e-05
-4.108906768e-05
5.170131526e-05
-2.856831571e-05
-2.926107213e-05
2.645858943e-05
-3.021331455e-05
-1.124262538e-06
-1.152692286e-05
-2.798766806e-05
2.398158986e-05
-1.416697331e-05
-1.706258214e-05
1.564450171e-05
6.253763243e-05
4.598135098e-06
-1.517157745e-05
-3.318030776e-05
-9.491122471e-06
7.226744685e-06
-5.163031364e-05
-1.339057127e-05
1.082208496e-05
-3.670037189e-05
-1.004563058e-06
-5.744413571e-07
-3.589990666e-05
1.085022805e-05
-4.948403908e-06
-3.410355824e-05
2.091752062e-06
4.042079225e-06
-2.684423403e-05
-1.079067098e-05
1.785230422e-05
-2.293813146e-05
-1.64645348e-05
2.398710914e-05
-2.576781297e-05
-7.77062112e-06
1.402688525e-05
-1.830134943e-05
6.788378523e-06
-1.060584777e-05
-1.056571414e-05
2.024342904e-05
-3.306605864e-05
7.485004916e-07
1.598009284e-05
-4.290613103e-05
8.324741874e-06
4.415075622e-06
-4.420351839e-05
1.555326828e-05
-4.24751241e-06
-2.46062204e-05
3.740572708e-05
-6.129585436e-06
2.173952978e-05
5.360757936e-05
-1.617976163e-05
2.951959088e-05
2.884269407e-05
-1.126288819e-05
2.787250135e-05
1.612130692e-05
-1.485853933e-05
2.049932994e-05
8.988603104e-06
-1.306950015e-05
6.4786221e-06
4.225611194e-06
-1.131795232e-05
1.100824396e-05
3.672507892e-06
-3.41484915e-05
3.51612618e-05
1.19688206e-05
-6.213055336e-05
5.865725999e-05
1.776558344e-05
-6.814603018e-05
6.74707542e-05
1.581958158e-05
-5.320120854e-05
5.239674876e-05
1.166744662e-05
-2.680658733e-05
2.589399888e-05
1.033819346e-05
-1.182291337e-05
5.791369295e-06
1.60497374e-05
-1.300955025e-05
5.632609855e-05
1.200299327e-05
-2.219604147e-05
-3.570195507e-05
-1.644187906e-05
1.05335045e-05
-5.012611528e-05
-3.423403385e-05
1.562781523e-05
-3.779120236e-05
-4.003832182e-06
-2.659613106e-07
-3.319297836e-05
1.318645889e-05
-7.216959313e-06
-2.707016648e-05
-8.273565875e-08
1.085587422e-06
-1.323554481e-05
-2.191162773e-05
2.041459164e-05
-5.142721636e-07
-4.175313974e-05
4.38291289e-05
6.066619813e-06
-5.524949038e-05
3.522623413e-05
1.551310635e-06
-1.125015698e-05
4.808829067e-06
4.392405428e-06
1.545896933e-05
-2.260007921e-05
9.957045094e-06
1.820008182e-05
-3.291434508e-05
1.297522958e-05
5.663573306e-06
-3.49782735e-05
2.166555891e-05
-4.048419205e-06
-2.317454614e-05
3.444866753e-05
-8.845902639e-06
1.166334809e-06
3.923927446e-05
-9.97324676e-06
1.481274838e-05
3.226366806e-05
-1.706793913e-05
2.271336069e-05
2.687896311e-05
-1.865848689e-05
2.649634384e-05
2.232996922e-05
-1.712433677e-05
2.403450392e-05
2.02987799e-05
-1.361124908e-05
2.289109955e-05
1.957198761e-05
-1.475596998e-05
3.711883712e-05
2.763011415e-05
-2.988887506e-05
5.200273002e-05
3.767573327e-05
-3.479387884e-05
5.065461331e-05
3.643344768e-05
-1.926558517e-05
3.011670118e-05
3.273761791e-05
-5.321147645e-07
1.333323172e-05
3.269245459e-05
-5.570685557e-06
1.303217367e-05
3.831466849e-05
-2.196376548e-05
6.328736402e-05
6.07098503e-06
-2.706976133e-05
-9.432409924e-06
-5.203285734e-05
2.195924414e-05
-5.678628902e-06
-9.347656655e-05
3.398207046e-05
-1.08162144e-05
-3.89982292e-05
1.866326266e-05
-1.795194902e-05
7.715306638e-08
1.264033757e-05
-1.96044722e-05
-1.443156779e-06
1.441037652e-05
-6.41080756e-06
-8.595107307e-06
1.957633932e-05
1.034951668e-05
-1.603016738e-05
3.159156444e-05
2.272705948e-05
-2.867581398e-05
3.904812455e-05
2.324941484e-05
-2.915583624e-05
1.115262663e-05
2.001109728e-05
1.227631636e-05
-1.623798353e-05
1.633500787e-05
2.101238029e-05
-2.872747796e-05
1.230120953e-05
1.316339793e-05
-3.162755645e-05
2.043751197e-05
4.128187805e-06
-2.375706706e-05
3.042017331e-05
-3.841658902e-06
-9.131824756e-06
3.457919472e-05
-9.965249011e-06
3.770436292e-06
3.414888501e-05
-1.478740305e-05
1.383252801e-05
3.166249361e-05
-1.484552137e-05
2.053194598e-05
2.694566899e-05
-1.131497979e-05
2.347757782e-05
2.151630271e-05
-4.163009885e-06
2.28360719e-05
1.381360031e-05
6.40003709e-06
3.013446549e-05
1.382052651e-05
6.511336029e-06
4.061725401e-05
2.659075723e-05
6.023539672e-07
3.745628647e-05
2.632874071e-05
1.32658446e-05
1.523770909e-05
2.32214856e-05
3.173484231e-05
5.297969423e-06
3.282962876e-05
9.802641754e-06
1.295871139e-05
4.891283278e-05
-1.825882099e-05
7.322833542e-05
3.017864569e-06
-3.427274955e-05
2.698026719e-05
-7.423122338e-05
3.814640644e-05
5.107675198e-05
-0.0001291738856
6.438502545e-05
3.221176097e-05
-6.926668208e-05
5.362508057e-05
1.257047128e-05
-1.976285847e-05
3.861255526e-05
4.353505762e-06
-8.945793558e-06
3.09955255e-05
7.07327265e-06
-5.867394323e-06
3.111761258e-05
1.467539646e-05
-4.448321199e-06
3.560740654e-05
2.194465251e-05
-3.707672947e-06
3.414102843e-05
2.282773432e-05
1.887746837e-06
2.111563876e-05
2.226460067e-05
1.077164112e-05
-2.131302943e-06
1.942246159e-05
2.01593121e-05
-2.115770709e-05
9.720994618e-06
2.160655213e-05
-2.69487068e-05
1.437953923e-05
1.184903652e-05
-2.434737375e-05
2.447366129e-05
3.345354361e-06
-1.663835905e-05
3.012349608e-05
-3.253209859e-06
-6.878194796e-06
3.267632238e-05
-8.287458205e-06
2.460032777e-06
3.213022935e-05
-9.805855276e-06
9.79584076e-06
2.702524189e-05
-7.415245173e-06
1.592495639e-05
1.795160848e-05
-2.564266715e-06
1.991721499e-05
6.605686032e-06
3.215824661e-06
2.700504342e-05
-6.455200651e-08
6.797414364e-06
3.700481696e-05
6.212848335e-06
1.037831781e-05
3.670837211e-05
6.809990113e-06
1.981536695e-05
1.870295665e-05
8.941315431e-06
3.228569982e-05
7.16949269e-06
2.368771108e-05
2.067545913e-05
1.177698585e-05
5.154039122e-05
-7.234981038e-06
7.98447895e-05
5.160639545e-06
-2.963555268e-05
3.119972976e-05
-3.139546796e-05
2.71015052e-05
7.042693757e-05
-7.608711392e-05
4.222394009e-05
4.657858699e-05
-2.948955214e-05
3.291898058e-05
3.073036571e-05
-8.855265151e-06
3.608988929e-05
2.462934379e-05
-2.344704351e-05
3.9669827e-05
2.092613035e-05
-1.743309701e-05
4.081197298e-05
2.09970776e-05
-7.464139752e-06
4.134685719e-05
2.331502759e-05
-1.905548942e-06
3.755746452e-05
2.390525287e-05
2.711571394e-06
2.725458435e-05
2.316337036e-05
9.403881878e-06
9.113182114e-06
1.94977104e-05
1.806599215e-05
-1.304295142e-05
6.370032437e-06
2.550701583e-05
-2.416188485e-05
5.48744203e-06
2.001105477e-05
-2.409215556e-05
1.334168288e-05
1.106234554e-05
-2.061919525e-05
2.232908593e-05
4.321559981e-06
-1.536293299e-05
2.809105581e-05
-6.708570265e-07
-8.874233811e-06
2.960177758e-05
-3.960097367e-06
2.754855329e-07
2.45728778e-05
-6.697159569e-06
1.238913671e-05
1.586321022e-05
-1.002503854e-05
2.375121712e-05
8.277488932e-06
-1.303364876e-05
3.26147228e-05
3.922019507e-06
-1.284983492e-05
4.243205828e-05
3.660616096e-06
-7.264852098e-06
4.553458041e-05
3.586428642e-06
1.214046919e-07
3.481088924e-05
6.417387634e-06
1.324777172e-05
1.898207662e-05
1.747783162e-05
2.203877534e-05
1.338007722e-05
4.823568074e-05
8.906770352e-06
7.893586545e-05
1.428906952e-05
-1.923999485e-05
7.780288466e-06
-2.149463677e-06
1.726036646e-05
5.408976973e-05
-2.016343425e-05
2.989406949e-05
3.970627003e-05
-5.761684847e-06
2.884714326e-05
3.397333634e-05
-2.196319316e-06
3.510989398e-05
3.122068342e-05
-1.285437044e-05
3.988024952e-05
2.736410445e-05
-1.120861549e-05
4.157628748e-05
2.553529119e-05
-6.234537404e-06
4.162093701e-05
2.555947451e-05
-2.289366658e-06
3.80824179e-05
2.527934289e-05
2.164176493e-06
2.873422612e-05
2.356408288e-05
8.947270981e-06
1.210592634e-05
1.858263062e-05
1.754322142e-05
-1.20242745e-05
4.554692748e-06
2.594543933e-05
-2.712502285e-05
-2.90503556e-06
2.349319243e-05
-2.812222863e-05
-4.283698009e-06
1.862262239e-05
-2.46486054e-05
6.398877711e-06
1.245667251e-05
-2.233326274e-05
1.915874572e-05
6.617114225e-06
-1.750168671e-05
2.574057252e-05
-9.701561747e-07
-7.08569926e-06
2.422724626e-05
-1.007004468e-05
7.643993773e-06
2.060266047e-05
-1.946881036e-05
2.264768719e-05
1.828703954e-05
-2.501287393e-05
3.604971317e-05
1.641468354e-05
-2.589434261e-05
4.715629728e-05
1.572300467e-05
-2.316868137e-05
5.262067955e-05
1.553221864e-05
-1.740993755e-05
4.829401317e-05
1.732858771e-05
-6.584400438e-06
3.319018071e-05
2.353242262e-05
9.049309085e-06
1.881926632e-05
4.509209011e-05
1.751454342e-05
7.162082347e-05
2.613434142e-05
-1.33631196e-05
-1.206748552e-05
-5.743078737e-06
1.869517905e-05
1.74286514e-05
4.602561817e-06
2.870817465e-05
2.481374357e-05
4.879253553e-06
2.972680685e-05
3.156743781e-05
1.386997134e-06
3.383915097e-05
3.248197853e-05
-5.373914491e-06
3.81515139e-05
2.999977142e-05
-6.948304431e-06
4.042043608e-05
2.832671688e-05
-5.060615599e-06
4.048812238e-05
2.774668793e-05
-2.255153146e-06
3.665192132e-05
2.681115642e-05
2.304154833e-06
2.694509652e-05
2.392968695e-05
9.341020474e-06
9.004619587e-06
1.827468408e-05
1.824825961e-05
-1.564393501e-05
4.836077583e-06
2.436704362e-05
-2.848895265e-05
-8.14886782e-06
1.808876542e-05
-2.81884085e-05
-1.872378654e-05
1.413952691e-05
-2.460225483e-05
-1.373055982e-05
1.65433435e-05
-2.50039339e-05
7.898963541e-06
1.166162192e-05
-2.181329114e-05
2.27930664e-05
-2.428464946e-07
-1.20247181e-05
2.81493514e-05
-1.371019335e-05
4.307641479e-06
3.100557206e-05
-2.673479793e-05
2.068937805e-05
3.241498567e-05
-3.050916819e-05
3.555466901e-05
3.224111865e-05
-3.069128839e-05
4.809571728e-05
3.173305613e-05
-2.85507695e-05
5.613274459e-05
3.128718081e-05
-2.379176723e-05
5.655314426e-05
3.1987883e-05
-1.507957464e-05
4.538065955e-05
3.570699477e-05
-1.002040245e-06
2.650960416e-05
4.741743538e-05
1.654571577e-05
6.357833272e-05
3.455209263e-05
-1.497508595e-06
-1.052319677e-05
-3.203597402e-05
2.884637149e-05
-6.30855786e-06
-6.606921772e-06
3.581909778e-05
1.03603519e-05
7.480404222e-06
3.591317201e-05
2.471515319e-05
6.75794802e-06
3.692300584e-05
3.087584717e-05
5.960295664e-07
3.866939028e-05
3.149800402e-05
-3.244883704e-06
3.967764459e-05
3.082942621e-05
-3.511221829e-06
3.866935061e-05
3.014237498e-05
-1.387637903e-06
3.35635972e-05
2.843349352e-05
3.483190127e-06
2.290368344e-05
2.370797715e-05
1.088142344e-05
3.9353621e-06
1.732267952e-05
1.992015505e-05
-1.824621661e-05
6.919827289e-06
2.009767897e-05
-2.414716093e-05
-1.34554231e-06
-9.024921484e-07
-1.498737362e-05
-1.238368455e-05
-1.549992484e-05
-9.190684261e-06
-1.834951956e-05
-1.177691786e-06
-1.358725162e-05
-6.161915602e-06
1.845758693e-05
-1.633486722e-05
1.717040672e-05
8.370572292e-06
-1.117591218e-05
3.056600389e-05
-7.575095655e-06
2.854061322e-06
3.865081299e-05
-2.167491359e-05
1.878122626e-05
4.400151404e-05
-2.751322988e-05
3.422142496e-05
4.599784018e-05
-2.919649834e-05
4.769669627e-05
4.652089613e-05
-2.826279675e-05
5.722450769e-05
4.637976991e-05
-2.462020318e-05
6.029019329e-05
4.649722915e-05
-1.757493882e-05
5.289310496e-05
4.854852955e-05
-5.444428854e-06
3.378580114e-05
5.431903729e-05
1.220567358e-05
6.140054175e-05
3.596355728e-05
8.68963611e-06
1.079252175e-05
-5.717754127e-05
4.167213e-05
-5.84779968e-06
-3.344345009e-05
5.148046554e-05
8.359416439e-06
-7.807659769e-06
4.831270788e-05
2.405076737e-05
3.831878789e-06
4.388897464e-05
3.178577408e-05
3.513542147e-06
4.13593115e-05
3.429462366e-05
-2.672187564e-07
3.941931359e-05
3.429239345e-05
-1.523222437e-06
3.579641911e-05
3.324658263e-05
5.18446134e-07
2.772358835e-05
3.056697303e-05
5.939126606e-06
1.153595171e-05
2.549075069e-05
1.440466046e-05
-1.248433872e-05
2.047683405e-05
2.086595432e-05
-2.70113794e-05
1.777423772e-05
3.672464573e-06
-1.665895628e-05
1.827920497e-05
-2.997728011e-05
6.448744798e-06
1.563862045e-05
-5.113002668e-05
1.761032845e-05
1.015073874e-05
-3.966177566e-05
9.978159645e-06
1.153141116e-05
-1.006105377e-05
-4.12238857e-06
2.381040959e-05
7.460772963e-06
-5.914622889e-06
3.191463942e-05
4.44004171e-07
4.317266956e-06
4.068973535e-05
-1.227042569e-05
1.875522277e-05
5.020293294e-05
-2.06389444e-05
3.35819874e-05
5.530174289e-05
-2.413030664e-05
4.701903455e-05
5.750822503e-05
-2.442412504e-05
5.697422527e-05
5.82948181e-05
-2.187009964e-05
6.112689226e-05
5.855280215e-05
-1.620819635e-05
5.59597111e-05
5.984949615e-05
-6.133808855e-06
3.816806383e-05
6.265718421e-05
9.453438353e-06
6.537897025e-05
3.4189572e-05
1.210866975e-05
3.881198105e-05
-7.282142332e-05
5.75841201e-05
8.88493887e-06
-6.020823534e-05
7.398734938e-05
2.041945973e-05
-2.84635041e-05
7.041763663e-05
3.365762999e-05
-6.037405889e-06
6.106515885e-05
4.010328152e-05
1.034729769e-06
5.074413969e-05
4.217033521e-05
2.445061384e-06
4.209604374e-05
4.110938649e-05
1.830856021e-06
3.263810436e-05
3.857630509e-05
4.127978688e-06
1.831283296e-05
3.51488874e-05
9.743132944e-06
-7.979033995e-06
3.231670748e-05
1.946570483e-05
-3.452104371e-05
3.017556655e-05
1.684309148e-05
-4.11687041e-05
3.192541779e-05
-7.503691879e-06
-1.945650058e-05
3.807393287e-05
-4.150704293e-05
1.551782938e-05
4.49052449e-05
-6.424092561e-05
3.952217401e-05
4.726547613e-05
-6.111896151e-05
4.423329726e-05
4.655350665e-05
-3.973311868e-05
3.717154898e-05
4.500837138e-05
-1.413603291e-05
2.338464685e-05
4.299055143e-05
2.711255455e-06
1.684098268e-05
4.597009394e-05
1.263585359e-06
2.313250207e-05
5.36362922e-05
-9.724587814e-06
3.511166189e-05
5.959309169e-05
-1.627027727e-05
4.719187441e-05
6.361819145e-05
-1.819003347e-05
5.642263711e-05
6.592126097e-05
-1.685714885e-05
6.033568322e-05
6.710126044e-05
-1.246152308e-05
5.587600039e-05
6.8497846e-05
-4.188735837e-06
3.920926124e-05
6.999404417e-05
9.329785118e-06
7.140209536e-05
3.318604389e-05
-2.899814752e-06
6.697550688e-05
-7.584280472e-05
5.972910693e-05
4.685220286e-05
-0.0001005957965
8.427433486e-05
5.144130759e-05
-5.556720728e-05
8.020670871e-05
5.368608316e-05
-1.596112249e-05
6.78951227e-05
5.329041332e-05
-8.758079194e-07
5.356408838e-05
5.202635335e-05
4.474769222e-06
4.116174346e-05
4.835821881e-05
5.153268572e-06
2.876370746e-05
4.343565046e-05
7.538454601e-06
1.228734434e-05
3.871740766e-05
1.290761736e-05
-1.298316746e-05
3.739523966e-05
2.019176112e-05
-3.537355263e-05
3.749706639e-05
1.506867648e-05
-4.153121157e-05
4.174354576e-05
-3.660660407e-06
-2.262176894e-05
5.196738492e-05
-3.280304634e-05
1.240307392e-05
6.599696332e-05
-5.611659298e-05
4.071234949e-05
7.075548768e-05
-5.179923039e-05
5.150888678e-05
6.720960991e-05
-3.145261302e-05
4.731095783e-05
6.095072494e-05
-1.174437207e-05
3.355870218e-05
5.298868417e-05
3.754209724e-06
2.442479067e-05
4.895823825e-05
6.145881974e-06
2.78713393e-05
5.233456424e-05
-2.144693852e-06
3.779526013e-05
5.840678436e-05
-8.737521354e-06
4.829346514e-05
6.439089611e-05
-1.127087401e-05
5.608522724e-05
6.885980665e-05
-1.073033324e-05
5.881342198e-05
7.169853637e-05
-7.325547522e-06
5.416060562e-05
7.381506933e-05
-6.645138495e-07
3.804491969e-05
7.477509755e-05
1.133451119e-05
7.583861519e-05
3.360827727e-05
-2.065463141e-05
9.517918378e-05
-7.473728027e-05
5.727422805e-05
9.636181846e-05
-0.0001274372841
8.966612364e-05
8.854986938e-05
-6.950034357e-05
8.811832529e-05
7.74668431e-05
-2.223318066e-05
7.249645439e-05
7.026143629e-05
-1.349396638e-06
5.28741939e-05
6.339387455e-05
8.254508371e-06
3.700631703e-05
5.495587477e-05
9.269988347e-06
2.295539803e-05
4.638212894e-05
1.110421086e-05
6.845315457e-06
3.877190215e-05
1.605536492e-05
-1.290686191e-05
3.831081059e-05
1.883637785e-05
-2.761840968e-05
3.964854675e-05
1.255983803e-05
-3.305579993e-05
4.530465937e-05
1.876061274e-06
-2.05048875e-05
5.694021585e-05
-1.752394017e-05
8.571974974e-06
7.573963641e-05
-3.881968604e-05
3.332786131e-05
8.208534794e-05
-3.608585806e-05
4.203268878e-05
7.716922975e-05
-1.86645457e-05
3.92115397e-05
6.858785517e-05
-4.816052486e-06
3.172401795e-05
5.781311709e-05
2.663042295e-06
2.854261438e-05
5.040039237e-05
1.739223106e-06
3.288951821e-05
4.99554079e-05
-1.967758719e-06
4.146997692e-05
5.474971678e-05
-4.923412872e-06
5.015806311e-05
6.159604181e-05
-5.893284668e-06
5.607222568e-05
6.789314072e-05
-4.947586228e-06
5.719705663e-05
7.247916985e-05
-1.905583244e-06
5.164634692e-05
7.530933367e-05
4.056309314e-06
3.561419331e-05
7.613112496e-05
1.467598199e-05
7.69179363e-05
3.453471962e-05
-2.486633459e-05
0.0001062960603
-4.73081072e-05
4.777618195e-05
0.0001212566362
-9.753676986e-05
7.846639156e-05
0.0001035290647
-4.566958799e-05
7.553184893e-05
8.946412163e-05
-9.063010353e-06
5.916128959e-05
7.90206034e-05
7.611145159e-06
4.144679216e-05
6.850744238e-05
1.260070099e-05
2.653256046e-05
5.70504799e-05
1.281940241e-05
1.359805857e-05
4.419436183e-05
1.512204775e-05
1.764636168e-06
3.067425025e-05
1.993085283e-05
-1.11260566e-05
3.462442068e-05
1.657684321e-05
-1.970037711e-05
3.904807197e-05
9.174561359e-06
-2.331441422e-05
4.522322332e-05
3.695246256e-06
-1.638034516e-05
5.587139325e-05
-5.865459639e-06
3.738389346e-06
7.575243577e-05
-2.013173193e-05
2.233999835e-05
8.293271048e-05
-1.944916072e-05
2.772857243e-05
7.847358892e-05
-6.693104016e-06
2.679013879e-05
7.039868698e-05
-8.725505934e-07
2.698818905e-05
6.040487979e-05
-2.78995078e-06
3.091048281e-05
5.330992948e-05
-6.831950965e-06
3.768069728e-05
5.127095177e-05
-8.085866048e-06
4.555011589e-05
5.382805789e-05
-6.947868607e-06
5.247901778e-05
5.931162151e-05
-4.644603396e-06
5.645047613e-05
6.558401657e-05
-1.662472423e-06
5.584046679e-05
7.067039325e-05
2.418634166e-06
4.894052492e-05
7.376001733e-05
8.449097895e-06
3.255771761e-05
7.443551782e-05
1.807824912e-05
7.472769612e-05
3.474777798e-05
-1.406322265e-05
9.873217705e-05
-1.374784957e-05
3.49744368e-05
0.0001207058627
-4.848696887e-05
5.693997722e-05
9.823942482e-05
-1.66762404e-05
5.31551672e-05
8.634568833e-05
6.903002543e-06
4.033348257e-05
7.749310395e-05
1.434896772e-05
2.686438194e-05
6.690819393e-05
1.506813864e-05
1.331614152e-05
5.549170608e-05
1.510680024e-05
2.84405598e-06
3.866018964e-05
1.600603732e-05
-1.72649097e-06
1.81888394e-05
1.705571707e-05
-6.306105791e-06
2.256092143e-05
1.664286558e-05
-1.160118996e-05
3.626833665e-05
8.074601824e-06
-1.416328648e-05
4.421193356e-05
3.57316369e-06
-1.123130199e-05
5.321755146e-05
-2.783624737e-07
9.192851949e-07
7.007893277e-05
-6.477296244e-06
1.28904879e-05
7.711481103e-05
-6.153516858e-06
1.541746267e-05
7.529009279e-05
6.5630899e-07
1.687680339e-05
7.049549805e-05
-1.556353968e-06
2.249887473e-05
6.359760143e-05
-8.814979189e-06
3.10539158e-05
5.835177991e-05
-1.35970571e-05
4.01475879e-05
5.625793706e-05
-1.408081486e-05
4.827647784e-05
5.700768924e-05
-1.130868158e-05
5.429108038e-05
6.011835974e-05
-6.821508254e-06
5.692113016e-05
6.459739954e-05
-1.64360618e-06
5.480407832e-05
6.864717047e-05
4.140097198e-06
4.654837116e-05
7.107014163e-05
1.094540251e-05
2.971186357e-05
7.131153446e-05
1.996030704e-05
7.088476808e-05
3.355459262e-05
8.854003441e-07
7.951425611e-05
1.122185221e-05
2.830582841e-05
0.0001017125814
-8.427293468e-06
3.915624899e-05
8.103411818e-05
6.354666494e-06
3.484034876e-05
7.417088693e-05
1.649053396e-05
2.565026218e-05
6.929010741e-05
1.739290426e-05
1.481664204e-05
6.079443826e-05
1.694718523e-05
4.050447482e-06
5.223816435e-05
1.401952678e-05
1.443629789e-06
3.73082667e-05
3.958501457e-06
2.965372569e-06
1.997301603e-05
-3.306188125e-06
-2.28716336e-08
1.940630088e-05
6.142545336e-06
-3.800706097e-06
3.378321723e-05
6.26280854e-06
-5.665061834e-06
4.274983488e-05
3.326250445e-06
-4.429098629e-06
5.029201551e-05
1.689348577e-06
1.970848913e-06
6.320281519e-05
4.759420679e-07
7.931629658e-06
6.974155321e-05
1.412250953e-06
8.027153222e-06
7.158188823e-05
3.612459803e-06
1.090744073e-05
7.091844323e-05
-3.303450804e-06
1.914942226e-05
6.740243465e-05
-1.204701978e-05
2.972109436e-05
6.420068383e-05
-1.642076177e-05
4.018765308e-05
6.260125014e-05
-1.681005104e-05
4.882877424e-05
6.239354761e-05
-1.402716118e-05
5.461763083e-05
6.352632608e-05
-9.197009828e-06
5.664449371e-05
6.575618068e-05
-3.18583374e-06
5.375236117e-05
6.794020815e-05
3.598905074e-06
4.469727761e-05
6.894406329e-05
1.118097158e-05
2.772459023e-05
6.840586689e-05
1.987816138e-05
6.719345854e-05
3.141569553e-05
1.590524401e-05
6.194849663e-05
2.095573996e-05
2.648764293e-05