/*--------------------------------*- C++ -*----------------------------------*\
  =========                 |
  \\      /  F ield         | OpenFOAM: The Open Source CFD Toolbox
   \\    /   O peration     | Website:  https://openfoam.org
    \\  /    A nd           | Version:  8
     \\/     M anipulation  |
\*---------------------------------------------------------------------------*/
FoamFile
{
    version     2.0;
    format      ascii;
    class       scalarField;
    location    "1.6/lagrangian/reactingCloud1";
    object      age;
}
// * * * * * * * * * * * * * * * * * * * * * * * * * * * * * * * * * * * * * //


122
(
0.2634401799
0.2240625949
0.2583831452
0.2666175279
0.2579864777
0.213852395
0.257584831
0.2128010972
0.2512898846
0.2523144809
0.2571783996
0.2299306717
0.2291890584
0.228752463
0.1881252931
0.2278117303
0.2309104143
0.2274986772
0.206192817
0.1841118921
0.24367345
0.2023259984
0.2222378933
0.2072958876
0.1680932171
0.2210755666
0.220645805
0.2049842823
0.2181194274
0.1600977554
0.2195382672
0.2066991684
0.2179957453
0.2051919608
0.2173154937
0.2166352422
0.2216880553
0.2284393903
0.1401530325
0.2126774151
0.2091042254
0.1289940002
0.1281078035
0.2185521086
0.2103387645
0.127023835
0.1245030036
0.1235473196
0.2124300509
0.2087414473
0.230176258
0.1001170177
0.20423664
0.2024090698
0.2011214635
0.1997842348
0.1942926023
0.1913417509
0.2044858541
0.2036136047
0.1905824679
0.2129866203
0.1894435433
0.1922525141
0.2007476424
0.2383785222
0.1811600311
0.1924042452
0.1955511772
0.07208465104
0.2684621246
0.1929347447
0.1905065396
0.06522047396
0.1991057751
0.1785936709
0.1086964531
0.05954344123
0.1977222504
0.1766001036
0.1501693251
0.1764259133
0.2452941666
0.04815786697
0.0645269388
0.06094664888
0.04417845244
0.04214659726
0.05603794196
0.1941425746
0.03612645932
0.04957803854
0.05042371186
0.0980821087
0.2592575634
0.02426731182
0.1481484941
0.0221668139
0.01820254361
0.09484533433
0.01425035963
0.2602921402
0.2073388045
0.01214570758
0.2417500022
0.1527173293
0.01020641378
0.1301367399
0.2409318575
0.2342122702
0.008217026204
0.006233440742
0.02242381829
0.004219302691
0.003616545163
0.003616545163
0.1361113706
0.002260340727
0.1433160723
0.02963328371
0.0003013787636
0.228752463
)


// ************************************************************************* //
