/*--------------------------------*- C++ -*----------------------------------*\
  =========                 |
  \\      /  F ield         | OpenFOAM: The Open Source CFD Toolbox
   \\    /   O peration     | Website:  https://openfoam.org
    \\  /    A nd           | Version:  8
     \\/     M anipulation  |
\*---------------------------------------------------------------------------*/
FoamFile
{
    version     2.0;
    format      ascii;
    class       scalarField;
    location    "1.6/lagrangian/reactingCloud1";
    object      d;
}
// * * * * * * * * * * * * * * * * * * * * * * * * * * * * * * * * * * * * * //


122
(
0.0006697773134
0.0007303856887
0.0007272843865
0.0005714753898
0.0005673054553
0.000597418747
0.0005646530694
0.0005620644247
0.0005669298171
0.001045200023
0.000566539903
0.0007010339104
0.0006477826592
0.0005515345736
0.0007131683484
0.0006964082316
0.0009778959955
0.0005012822924
0.0005134343713
0.0009990800387
0.0008205229013
0.0005796509603
0.001048111275
0.0007263147606
0.0008582780543
0.0007271205567
0.0005149369164
0.000543697183
0.0005558650168
0.0006136764289
0.000703049839
0.0009209654153
0.0007775483542
0.0007435000384
0.0006028687197
0.0005879540439
0.0005733463955
0.0005169097301
0.0006344966321
0.0005662779457
0.001146683079
0.0009363368671
0.0005382856467
0.00114374094
0.001066022437
0.0005820183718
0.0007669504898
0.0005585282431
0.0005019127015
0.0007546413843
0.0006120571944
0.0009495594029
0.000986037755
0.0007683453592
0.000695938931
0.0007046598569
0.001031266436
0.0008534550535
0.0007643397694
0.0006175229682
0.0005592301062
0.0007197712253
0.0006275063136
0.0005988501972
0.0005252244572
0.0008879729604
0.00104433568
0.0006727261644
0.0007285114841
0.0005316617117
0.0005496186597
0.000741942245
0.001120110887
0.001198464138
0.001148252512
0.000987635826
0.0009106255762
0.0008664969818
0.0006701062705
0.0005844614387
0.0006388517737
0.0009965955933
0.001017228777
0.0005051683483
0.0006250045163
0.0009948670437
0.0006155749343
0.0006231593228
0.0009761348141
0.0005145827633
0.0006658060969
0.0005574881919
0.00106675061
0.0006313449653
0.00066744814
0.0007072992886
0.0007284333402
0.0005904805016
0.0006414439921
0.001122525449
0.0006059591947
0.0006757702343
0.0006444389549
0.0005009644121
0.0009339167853
0.0006473781666
0.0006039352735
0.00064410605
0.0006020961889
0.0007642676673
0.0005477270449
0.0006027156121
0.0007754248356
0.001013159963
0.0008582780543
0.0005027840319
0.0005354309646
0.0006365610503
0.0006395471085
0.0006914901202
0.0009240274182
0.0006554687239
)


// ************************************************************************* //
