/*--------------------------------*- C++ -*----------------------------------*\
  =========                 |
  \\      /  F ield         | OpenFOAM: The Open Source CFD Toolbox
   \\    /   O peration     | Website:  https://openfoam.org
    \\  /    A nd           | Version:  8
     \\/     M anipulation  |
\*---------------------------------------------------------------------------*/
FoamFile
{
    version     2.0;
    format      ascii;
    class       scalarField;
    location    "1.6/lagrangian/reactingCloud1";
    object      mass0;
}
// * * * * * * * * * * * * * * * * * * * * * * * * * * * * * * * * * * * * * //


122
(
1.564587007e-07
2.040118467e-07
2.003185703e-07
9.718539788e-08
9.507345989e-08
1.110311807e-07
9.374616255e-08
9.246272994e-08
9.488472771e-08
5.945750086e-07
9.468908744e-08
1.794012632e-07
1.415455995e-07
8.736281993e-08
1.899217935e-07
1.758733783e-07
4.869522998e-07
6.559270012e-08
7.047956813e-08
5.221550328e-07
2.876607045e-07
1.014163782e-07
5.995571638e-07
1.995184346e-07
3.310416563e-07
2.001832274e-07
7.110014758e-08
8.369117527e-08
8.943683996e-08
1.210087988e-07
1.809534041e-07
4.06760135e-07
2.447882894e-07
2.140185435e-07
1.140976423e-07
1.05837254e-07
9.814307883e-08
7.192047387e-08
1.337477812e-07
9.455780054e-08
7.8512468e-07
4.274691608e-07
8.121697632e-08
7.790967974e-07
6.308229059e-07
1.026640751e-07
2.349148144e-07
9.072852175e-08
6.58404782e-08
2.23784639e-07
1.193945327e-07
4.482961802e-07
4.992166376e-07
2.361988809e-07
1.755180613e-07
1.821994292e-07
5.711117142e-07
3.237057255e-07
2.32524002e-07
1.226218219e-07
9.107098821e-08
1.9417435e-07
1.286656794e-07
1.118312062e-07
7.544721981e-08
3.645924257e-07
5.931011507e-07
1.585343502e-07
2.013342333e-07
7.86873243e-08
8.645553955e-08
2.126761154e-07
7.317984312e-07
8.963622282e-07
7.883528299e-07
5.01647814e-07
3.93213078e-07
3.387736171e-07
1.566893445e-07
1.039623305e-07
1.365208354e-07
5.154247942e-07
5.481057162e-07
6.750050428e-08
1.2713288e-07
5.12747501e-07
1.221353565e-07
1.267056299e-07
4.843260466e-07
7.134512888e-08
1.545403621e-07
9.022262069e-08
6.321164874e-07
1.317646118e-07
1.548320987e-07
1.852713586e-07
2.023802218e-07
1.077991424e-07
1.381894371e-07
7.365411364e-07
1.165007608e-07
1.606961952e-07
1.39365017e-07
6.582930165e-08
4.241631749e-07
1.412806106e-07
1.153373077e-07
1.399170879e-07
1.136595815e-07
2.324582049e-07
8.603817278e-08
1.146399389e-07
2.427881794e-07
5.44543628e-07
3.29224724e-07
6.618397497e-08
8.037279517e-08
1.350575314e-07
1.362153458e-07
1.721735193e-07
4.13098099e-07
1.466440142e-07
)


// ************************************************************************* //
