/*--------------------------------*- C++ -*----------------------------------*\
  =========                 |
  \\      /  F ield         | OpenFOAM: The Open Source CFD Toolbox
   \\    /   O peration     | Website:  https://openfoam.org
    \\  /    A nd           | Version:  8
     \\/     M anipulation  |
\*---------------------------------------------------------------------------*/
FoamFile
{
    version     2.0;
    format      ascii;
    class       labelField;
    location    "1.6/lagrangian/reactingCloud1";
    object      origId;
}
// * * * * * * * * * * * * * * * * * * * * * * * * * * * * * * * * * * * * * //


122
(
973
737
980
970
981
743
982
744
991
990
983
1005
1006
1007
757
1009
1003
1010
1053
759
994
1063
1014
1049
767
1016
1017
1056
1023
771
1020
1052
1024
1055
1025
1027
1015
1008
781
1035
1045
787
788
1021
1043
790
792
794
1036
1046
1004
806
1060
1062
1064
1066
1070
1077
1059
1061
1078
1034
1081
1074
1065
998
1094
1073
1069
820
968
1071
1079
824
1067
1096
1142
830
1068
1097
776
633
992
840
1160
1164
845
846
1168
754
849
1170
1169
807
589
860
777
864
866
1147
868
588
1048
869
996
643
870
786
997
603
871
872
1188
873
874
875
783
876
650
1178
877
606
)


// ************************************************************************* //
