/*--------------------------------*- C++ -*----------------------------------*\
  =========                 |
  \\      /  F ield         | OpenFOAM: The Open Source CFD Toolbox
   \\    /   O peration     | Website:  https://openfoam.org
    \\  /    A nd           | Version:  8
     \\/     M anipulation  |
\*---------------------------------------------------------------------------*/
FoamFile
{
    version     2.0;
    format      ascii;
    class       Cloud<basicReactingMultiphaseParcel>;
    location    "1.6/lagrangian/reactingCloud1";
    object      positions;
}
// * * * * * * * * * * * * * * * * * * * * * * * * * * * * * * * * * * * * * //

122
(
(0.6525733394 0.04675249465 0.296814917 0.003859249017) 147 201878 1
(0.2396271291 0.1246189678 0.5626753806 0.07307852252) 503 202357 1
(0.1396559565 0.2836989305 0.3511743342 0.2254707788) 321 202000 1
(0.696238014 0.05475971411 0.04188498156 0.2071172904) 330 983 2
(0.2638092806 0.003304184822 0.03903953871 0.6938469959) 390 1161 2
(1.184507512e-05 0.6624589405 0.2559540516 0.08157516284) 8958 26265 1
(0.08385827927 0.290558239 0.5613850255 0.06419845626) 492 1464 2
(0.1393344102 0.1943902085 0.1953681515 0.4709072298) 8920 26154 1
(0.02968451349 0.340611956 0.5531484338 0.07655509673) 2399 7045 2
(0.7242239927 0.1812573601 0.02431673519 0.07020191196) 393 1170 1
(0.1032127278 0.3031281413 0.4579538284 0.1357053025) 1649 4859 1
(0.01997455894 0.2334967387 0.4982653176 0.2482633848) 6295 18445 1
(0.4335144387 0.2853212634 0.1321165513 0.1490477465) 6332 18551 2
(0.1136384566 0.05636499228 0.2127807251 0.6172158261) 6366 18657 1
(0.218823511 0.4611815241 0.1289317156 0.1910632493) 12323 36076 2
(0.3324423395 0.1032867481 0.3947818927 0.1694890197) 6334 18561 1
(0.04500098856 0.2870130201 0.4600931335 0.2078928578) 5266 15430 1
(0.3545576263 0.2125777111 0.2162803658 0.2165842968) 7424 18865 1
(0.1450201502 0.1250877434 0.160945803 0.5689463034) 10477 27882 2
(0.3477313419 0.4392129041 0.08875606089 0.1242996931) 7522 22047 1
(0.1585511465 0.009146423624 0.6116002686 0.2207021613) 2570 7553 2
(0.02786728028 0.01843934629 0.5739547755 0.3797385979) 10545 30883 2
(0.1805130801 0.5654943891 0.009925369232 0.2440671615) 6406 18776 2
(0.4213760848 0.151283018 0.1979293632 0.229411534) 9821 28770 2
(0.4108779369 0.1803292751 0.3887354598 0.02005732819) 15256 44650 1
(0.1395265992 0.4793643201 0.01953572386 0.3615733568) 7527 22060 2
(0.05446753941 0.1472846106 0.002538195825 0.7957096541) 8546 25052 2
(0.3602736827 0.3009277032 0.186510402 0.1522882121) 10680 31282 2
(0.177718342 0.09284616136 0.433664381 0.2957711156) 8808 25826 2
(0.009172241147 0.1568082831 0.3583120427 0.4757074331) 16968 49562 1
(0.4737516623 0.01637255595 0.03433028797 0.4755454938) 7562 22164 1
(0.3644346082 0.0455010123 0.3849737911 0.2050905884) 9723 28386 1
(0.2647141543 0.04292698402 0.4822891119 0.2100697497) 7597 22270 2
(0.3521879053 0.1275960395 0.3923729488 0.1278431065) 10589 28215 2
(0.5082965107 0.2030423554 0.2190673948 0.0695937391) 8650 25260 2
(0.2121870497 0.1498824128 0.3564485616 0.2814819759) 8650 25361 2
(0.405789322 0.2996516226 0.15932403 0.1352350254) 8744 25541 1
(0.1572167358 0.09951727658 0.6255085775 0.1177574101) 7688 22537 2
(0.04093936412 0.3145373908 0.3977946339 0.2467286112) 19085 53211 2
(0.4063824768 0.1580447054 0.1974131937 0.2381596241) 9820 28765 1
(0.2075296615 0.6476613065 0.02599861069 0.1188104213) 9789 28673 1
(0.155063484 0.1984966508 0.1849023715 0.4615374936) 20879 61104 2
(0.181322392 0.005144571207 0.2641433871 0.5493896497) 20878 61101 2
(0.282489623 0.204321025 0.0909577086 0.4222316434) 7862 23050 1
(0.0798456584 0.3858595829 0.3955479003 0.1387468584) 8719 25566 1
(0.08585802047 0.1531661707 0.4312173016 0.3297585073) 20879 61104 2
(0.1383704896 0.1957707893 0.2387726888 0.4270860323) 20909 61113 1
(0.2207957516 0.1582184253 0.003959660645 0.6170261625) 20910 61116 1
(0.6145943775 0.2418030852 0.06881472216 0.07478781514) 9820 28767 1
(0.4120059849 0.274532068 0.1523749868 0.1610869604) 9772 25771 1
(0.4057807022 0.1659673454 0.1617736682 0.2664782841) 6662 19534 1
(0.1755371421 0.1872952372 0.3536923455 0.2834752752) 63799 188296 2
(0.05069602704 0.1435412637 0.3313525249 0.4744101844) 9771 28625 2
(0.5736335515 0.2561050622 0.1185338744 0.05172751181) 10756 31505 2
(0.22137519 0.1293775463 0.3400118699 0.3092353938) 10755 31502 2
(0.02777754292 0.5993875813 0.2283769193 0.1444579565) 10755 31504 2
(0.0627656796 0.03896948045 0.1159647018 0.7823001382) 11672 34180 1
(0.3494014326 0.3784593473 0.1018467567 0.1702924634) 12611 36925 1
(0.0527789021 0.4132880776 0.2895844822 0.2443485381) 10407 27674 1
(0.225267166 0.4917069714 0.1829671145 0.1000587481) 10407 30473 2
(0.1276118864 0.1721668642 0.1309353621 0.5692858874) 12641 37010 2
(0.3235832994 0.2339196943 0.1513308956 0.2911661107) 9851 26013 1
(0.2197616424 0.3398144847 0.3631477782 0.07727609466) 12641 37012 1
(0.2179419771 0.6331212753 0.06452484654 0.08441190112) 12670 37096 2
(0.3811679278 0.0002257443536 0.5058658931 0.1127404347) 10476 30679 2
(0.3466312153 0.4464578191 0.1141517173 0.09275924824) 3926 8578 1
(0.09120697657 0.05596036047 0.5898926739 0.262939989) 13572 39728 1
(0.3413116108 0.07958594455 0.5213361164 0.05776632826) 12670 34355 2
(0.05910781544 0.2321752055 0.5572503372 0.1514666419) 11493 33653 2
(0.1922881752 0.3994624731 0.2857847964 0.1224645554) 36075 110346 2
(0.276947989 0.1125146834 0.2853155758 0.3252217518) 901 2677 1
(0.1455708638 0.3685768952 0.03125454501 0.454597696) 11627 34049 2
(0.8218887903 0.03268063234 0.07695125274 0.06847932458) 12699 34443 1
(0.1093889724 0.05314645451 0.6000272381 0.237437335) 60701 180832 2
(0.1731538146 0.006199045948 0.559037239 0.2616099005) 10440 30571 1
(0.512904379 0.337042182 0.04352330301 0.1065301359) 14520 39820 2
(0.2473088877 0.3825552449 0.1559769842 0.2141588832) 59039 176730 2
(0.5471775677 0.07905983126 0.05839472827 0.3153678728) 61201 181879 2
(0.133217222 0.5362618824 0.2638774315 0.06664346409) 11459 33554 1
(0.09826162645 0.5864754269 0.08618517769 0.2290777689) 14578 42594 1
(0.007026636098 0.3481358505 0.626034306 0.01880320744) 19611 57385 1
(0.05498998225 0.2935925157 0.04506835579 0.6063491462) 14512 42481 2
(0.4102633893 0.02601634793 0.1057403151 0.4579799477) 1928 5691 1
(0.1224599135 0.3536840256 0.2117616933 0.3120943676) 40198 122681 1
(0.1858847309 0.5954145988 0.1861619289 0.03253874144) 60972 180235 2
(0.01189176103 0.477577581 0.04111843357 0.4694122244) 60970 181483 1
(0.1586861134 0.03924708615 0.6547100433 0.1473567572) 40228 122866 1
(0.1886916307 0.1465736788 0.4234978873 0.2412368032) 41358 126177 2
(0.07838195753 0.5256181572 0.1149456106 0.2810542747) 60975 181486 2
(0.06853843993 0.3220219861 0.159329486 0.450110088) 2686 7800 2
(0.2650663705 0.2276304671 0.1965539199 0.3107492425) 43453 132326 1
(0.1115194206 0.001669577589 0.6991247074 0.1876862945) 61128 181694 2
(0.2094963935 0.1054225526 0.3946988615 0.2903821925) 61136 181899 2
(0.110143134 0.4588062743 0.08998979245 0.3410607993) 63273 187118 1
(0.1190676378 0.6531677203 0.07370837536 0.1540562666) 853 2536 2
(0.07130027671 0.3357946067 0.0822835204 0.5106215962) 45622 138684 2
(0.09490452644 0.4596683777 0.1306923567 0.3147347392) 19119 55948 1
(0.1801208394 0.09609902346 0.4759619138 0.2478182233) 45621 204335 1
(0.08690393645 0.1517627776 0.2752787029 0.486054583) 46654 138585 2
(0.07976553194 0.1025661796 0.4340377473 0.3836305412) 59774 178528 2
(0.2645576393 0.186921957 0.4445815882 0.1039388155) 47723 144846 1
(0.4147793319 0.3658096559 0.1681203144 0.05129069773) 886 201536 2
(0.08042330819 0.3083489613 0.5883993812 0.02282834938) 9516 27869 1
(0.3937206962 0.07205882407 0.04935979544 0.4848606843) 47689 207160 1
(0.2642121979 0.07879032426 0.6076115999 0.0493858779) 3012 8858 2
(0.7420580426 0.0006120198868 0.177503098 0.07982683953) 18170 53187 2
(0.06220003812 0.2549253284 0.6320524901 0.05082214338) 47751 144932 2
(0.04117487624 0.5878821543 0.09162070926 0.2793222602) 22407 65782 1
(0.217227761 0.0295510905 0.6819716545 0.07124949401) 4022 11819 1
(0.1038994375 0.4813964375 0.1653447267 0.2493593983) 5904 17321 2
(0.08103364937 0.1371286595 0.4274278706 0.3544098204) 48787 144845 2
(0.5123848979 0.295896693 0.07494782665 0.1167705825) 48787 147970 1
(0.3554860463 0.4238815626 0.2061747949 0.01445759624) 58558 175499 2
(0.1066572479 0.1018535726 0.3251937533 0.4662954262) 48817 148060 1
(0.3702305269 0.1361823257 0.4881358003 0.00545134711) 58558 202637 1
(0.211173009 0.06353007554 0.2852204201 0.4400764954) 58559 202638 1
(0.07505079385 0.0320588399 0.02919130179 0.8636990645) 20929 203498 2
(0.0153103155 0.8358981716 0.1412896809 0.007501831998) 49886 151097 1
(0.06316086256 0.1782376504 0.22632907 0.5322724171) 19078 55834 2
(0.03125205089 0.2955804911 0.6635342546 0.00963320341) 58547 175470 1
(0.04613061961 0.4567748624 0.4862187433 0.0108757747) 49886 151185 2
(0.00291424376 0.308647035 0.4487415979 0.2396971233) 6960 205484 1
)


// ************************************************************************* //
