/*--------------------------------*- C++ -*----------------------------------*\
  =========                 |
  \\      /  F ield         | OpenFOAM: The Open Source CFD Toolbox
   \\    /   O peration     | Website:  https://openfoam.org
    \\  /    A nd           | Version:  8
     \\/     M anipulation  |
\*---------------------------------------------------------------------------*/
FoamFile
{
    version     2.0;
    format      ascii;
    class       scalarField;
    location    "1.6/lagrangian/reactingCloud1";
    object      rho;
}
// * * * * * * * * * * * * * * * * * * * * * * * * * * * * * * * * * * * * * //


122
(
994.511473
1000
994.5114718
994.5114716
994.5114718
994.5114687
994.5114718
994.5114686
994.5114708
994.5114715
994.5114719
994.5114689
994.5114689
994.5114689
1000
994.5114688
994.5114689
994.5114689
994.5114687
1000
994.5114705
994.5114687
994.5114688
994.5114687
1000
994.5114687
994.5114687
994.5114686
994.5114686
1000
994.5114687
994.5114686
994.5114687
994.511469
994.5114687
994.5114687
994.5114693
994.5114695
1000
994.5114686
994.5114686
994.5114684
994.5114684
994.5114691
994.5114688
994.5114685
994.5114685
994.5114685
994.5114686
994.5114688
994.5114696
1000
994.5114688
994.5114688
994.5114688
994.5114688
994.5114687
994.5114687
994.5114688
994.5114688
994.5114687
994.5114686
994.5114687
994.5114699
994.5114688
994.5114686
994.5114687
994.5114723
994.5114693
1000
994.5114715
994.5114726
994.5114695
994.5114689
994.5114692
994.5114686
994.5114775
994.511469
994.5114692
994.5114688
1000
994.5114703
994.5114686
1000
994.5114703
994.5114704
1000
1000
994.5114704
1000
1000
994.5114701
994.5114701
1000
994.5114707
1000
1000
1000
1000
994.5114726
1000
994.5114703
994.5114689
1000
994.5114685
994.5114685
1000
1000
994.5114685
994.5114706
1000
1000
994.5114698
1000
994.5114693
994.511469
1000
1000
994.5114685
994.5114697
1000
994.5114705
)


// ************************************************************************* //
