/*--------------------------------*- C++ -*----------------------------------*\
  =========                 |
  \\      /  F ield         | OpenFOAM: The Open Source CFD Toolbox
   \\    /   O peration     | Website:  https://openfoam.org
    \\  /    A nd           | Version:  8
     \\/     M anipulation  |
\*---------------------------------------------------------------------------*/
FoamFile
{
    version     2.0;
    format      ascii;
    class       scalarField;
    location    "1.6/lagrangian/reactingCloud1";
    object      T;
}
// * * * * * * * * * * * * * * * * * * * * * * * * * * * * * * * * * * * * * //


122
(
299.9999826
300
299.9999872
299.9999878
299.9999871
299.9999991
299.999987
299.9999992
299.9999911
299.9999883
299.9999868
299.9999983
299.9999983
299.9999983
300
299.9999984
299.9999982
299.9999984
299.999999
300
299.9999924
299.999999
299.9999987
299.999999
300
299.9999987
299.9999988
299.9999994
299.9999995
300
299.9999988
299.9999992
299.9999988
299.9999978
299.9999988
299.9999988
299.9999966
299.9999957
300
299.9999994
299.9999993
299.9999999
299.9999999
299.9999973
299.9999986
299.9999999
299.9999998
299.9999998
299.9999994
299.9999985
299.9999955
300
299.9999984
299.9999985
299.9999985
299.9999986
299.9999988
299.9999989
299.9999986
299.9999984
299.9999989
299.9999994
299.9999989
299.9999947
299.9999985
299.9999994
299.9999991
299.9999854
299.9999967
300
299.9999882
299.999984
299.9999961
299.9999984
299.999997
299.9999992
299.9999654
299.9999977
299.9999969
299.9999986
300
299.9999929
299.9999993
300
299.999993
299.9999925
300
300
299.9999925
300
300
299.9999935
299.9999936
300
299.9999914
300
300
300
300
299.9999841
300
299.9999929
299.9999981
300
299.9999995
299.9999999
300
300
299.9999995
299.9999918
300
300
299.9999949
300
299.9999977
299.9999979
300
300
299.9999999
299.9999951
300
299.9999919
)


// ************************************************************************* //
