/*--------------------------------*- C++ -*----------------------------------*\
  =========                 |
  \\      /  F ield         | OpenFOAM: The Open Source CFD Toolbox
   \\    /   O peration     | Website:  https://openfoam.org
    \\  /    A nd           | Version:  8
     \\/     M anipulation  |
\*---------------------------------------------------------------------------*/
FoamFile
{
    version     2.0;
    format      ascii;
    class       vectorField;
    location    "1.6/lagrangian/reactingCloud1";
    object      U;
}
// * * * * * * * * * * * * * * * * * * * * * * * * * * * * * * * * * * * * * //


122
(
(0.00326794858 -0.7111702756 -2.008106344)
(0.8522377832 -0.6179343735 -3.203608054)
(0.1265823804 -0.6837492327 -2.165995229)
(0.3464705968 -0.6103716122 -1.829772833)
(0.1502594016 -0.5556375651 -1.999237179)
(0.8095176557 0.04625740502 -1.713137521)
(0.1527960728 -0.468939546 -1.999492599)
(0.6753954996 0.04462721411 -1.798917758)
(0.2810668629 -0.6515957729 -1.9517353)
(0.2600204687 -0.7015957758 -2.267658468)
(0.1946337787 -0.3556549385 -1.907486205)
(-0.0002715329562 -0.8230917026 -1.907187883)
(0.03933803861 -0.7872922018 -1.87908537)
(0.06113522025 -0.7019478629 -1.814858282)
(0.793208264 -0.7788391508 -2.860795425)
(0.1095693071 -0.7841109005 -1.874342726)
(-0.07481757178 -0.9394131287 -2.034974285)
(0.1159843541 -0.6296782057 -1.775979765)
(-0.2212498064 -0.433904634 -1.772968296)
(0.2975307794 -0.7961844536 -3.266700549)
(0.3457926775 -0.5691200295 -2.057736576)
(-0.2336011492 -0.3711868908 -1.801458616)
(0.2567095535 -0.8578618187 -2.002837497)
(0.01971368024 -0.06906978524 -1.835065174)
(0.9307295778 -0.6346922857 -2.963339441)
(0.1744360383 -0.6902989129 -1.939435041)
(0.1642094426 -0.5780279602 -1.822313406)
(-0.1424167832 -0.2143087941 -1.764617789)
(-0.01363721192 -0.1675771199 -1.726528729)
(0.5395243492 -0.83645646 -2.825768922)
(0.2084318967 -0.6371120379 -1.927325747)
(-0.1970682021 -0.287533861 -1.907726216)
(0.245509628 -0.6070070217 -1.935156191)
(0.1274058918 -0.5036221163 -1.841565772)
(0.2381424643 -0.5223782915 -1.839751173)
(0.2455922883 -0.4929625596 -1.818769322)
(0.03073976211 -0.3536831341 -1.773263625)
(-0.1182922196 -0.3667230461 -1.79733526)
(0.6421702534 -0.2962045894 -3.062162032)
(-0.05785077339 -0.1138289339 -1.747456851)
(-0.1014242825 -0.2005641043 -1.938943494)
(0.5758879009 0.05453661478 -1.258147429)
(0.4956004685 0.05489553371 -1.253521424)
(0.2227801361 -0.1797144313 -2.019714997)
(0.3418951353 -0.5075815994 -1.937485252)
(0.5601888378 0.06149342509 -1.231458868)
(0.7594464976 0.06967316285 -1.219937705)
(0.7707573971 0.07291087148 -1.223794441)
(-0.07306512077 -0.1181564503 -1.710929779)
(0.4825746242 -0.3787189159 -1.860021766)
(-0.2553441532 -0.4433834951 -2.019319473)
(1.043053798 -0.3836046096 -2.484475236)
(0.4687095716 -0.396470022 -1.890991439)
(0.3994848666 -0.3612456772 -1.829686362)
(0.3660213643 -0.3580915086 -1.800303806)
(0.3427552151 -0.366626301 -1.795844223)
(0.3051694087 -0.4268591562 -1.819488715)
(0.2336692965 -0.4392040077 -1.774328561)
(-0.332950529 -0.6020290555 -1.868637602)
(-0.3239560713 -0.5508448682 -1.820258159)
(0.2105973298 -0.4043443618 -1.716482924)
(-0.02393408892 -0.09416035648 -1.810489033)
(0.1934676569 -0.4108077726 -1.72907258)
(0.1928365819 -0.3206150549 -1.784451828)
(-0.2646625779 -0.4449754784 -1.763759276)
(0.5068794729 -0.3133326845 -2.142588982)
(0.2709903603 -0.4426917213 -1.727951711)
(0.1586993975 -0.2709496026 -1.798332038)
(-0.3521507136 -0.4767310003 -1.810089123)
(0.5415465939 -0.7659577797 -2.253584757)
(0.1136439276 -0.186861927 -1.840599306)
(-0.2537151561 -0.2188352799 -1.832409887)
(0.182411728 -0.2896482965 -1.81506909)
(-0.01745735527 -0.02167873277 -0.6369556087)
(-0.4281421195 -0.6180518061 -1.883400263)
(0.3463699801 -0.4105486127 -1.70702138)
(0.1492212262 -0.5104191935 -1.074744288)
(0.06205463114 -0.02986749625 -0.5842417723)
(-0.3732332566 -0.4859183866 -1.805967658)
(0.3636299923 -0.2898808867 -1.638248281)
(0.1669504766 -0.9812575615 -2.749983416)
(0.6722949761 -0.0585599827 -1.682058636)
(0.4468076169 -0.257750684 -2.223487181)
(0.2350293589 -0.7822720373 -2.182058844)
(-0.3912989766 -0.6510752747 -0.6552451045)
(-0.4461758698 -0.7594834973 -0.6098137448)
(-0.02295035963 -0.6095896524 -2.276987542)
(0.8208432176 0.1237563312 -2.157404352)
(-0.5529559811 -0.7770877417 -0.5602282982)
(-0.06275224571 -0.5158585814 -3.399962558)
(1.019554303 -0.09699465058 -1.994778532)
(-0.4920333174 -0.5228345151 -0.5062228181)
(-0.3939391521 -0.4299144594 -0.4960797371)
(0.9533926332 -0.2715308219 -2.576560428)
(0.06524127971 -0.0777980991 -2.128800266)
(1.134902177 0.2247858838 -1.843026325)
(0.9426056276 -0.2242874966 -2.953665496)
(0.9619921301 0.4116768408 -1.909847381)
(-0.2343627931 -0.1028566331 -2.143597123)
(0.3089971922 -0.2810229675 -0.934262984)
(1.354281654 -0.2166817514 -1.551220185)
(-0.009018925788 -0.07005353507 -2.197922533)
(-0.4223911858 -0.4931246301 -1.867748209)
(-0.5994198407 -1.070559395 -1.662307069)
(0.3128173106 -0.1839570885 -2.122955963)
(0.2168885947 0.03578372729 -1.408837683)
(-0.02494508606 0.6418257984 -1.977066671)
(-0.1804705335 -0.8702422865 -2.857950662)
(0.27404496 -0.1655521778 -1.926735219)
(0.0487824892 -0.08812757909 -2.026368312)
(0.4394510109 -0.2152953009 -2.014353993)
(0.5470104244 -0.4096456017 -1.937655961)
(-0.3365348671 -0.4433096623 -0.2166685165)
(-0.3360339443 1.228346344 -1.577636708)
(-0.4535803408 -0.1271711729 -0.03539514101)
(-0.3724199485 -0.18002124 -0.03526642295)
(0.834867935 -0.1444233378 -2.975238898)
(0.602690925 0.03385581514 -1.926761203)
(0.1815856365 0.03208911532 -1.341800768)
(-0.1831631462 -0.0913077413 -0.2859153772)
(0.7001299039 1.125940707 -1.499837282)
(0.1407262835 -0.09629842463 -1.946167511)
)


// ************************************************************************* //
