/*--------------------------------*- C++ -*----------------------------------*\
  =========                 |
  \\      /  F ield         | OpenFOAM: The Open Source CFD Toolbox
   \\    /   O peration     | Website:  https://openfoam.org
    \\  /    A nd           | Version:  8
     \\/     M anipulation  |
\*---------------------------------------------------------------------------*/
FoamFile
{
    version     2.0;
    format      ascii;
    class       scalarField;
    location    "0.3/lagrangian/reactingCloud1";
    object      d;
}
// * * * * * * * * * * * * * * * * * * * * * * * * * * * * * * * * * * * * * //


47
(
0.0006890675224
0.0005402075917
0.0005193961902
0.001053519035
0.000615322191
0.0005976876615
0.0005894664831
0.0005308199293
0.00052547791
0.0005342605838
0.0005043713441
0.0006380672711
0.0007083334728
0.0005834250313
0.0006581905202
0.0008663495409
0.0005227380286
0.0005308199293
0.0006318813039
0.0005203591506
0.00066006929
0.0007003023689
0.0007457144778
0.0009964362748
0.0005402075917
0.0005694123247
0.0005352829983
0.0007642676673
0.0006593759121
0.0005716830791
0.001166224702
0.001002619094
0.0006819083125
0.0005834250313
0.0009740734545
0.0009724877761
0.0008663495409
0.0005417181792
0.0006887259353
0.0007173516511
0.0005008881275
0.0009426404953
0.001043415014
0.0006215264975
0.0005203591506
0.001085598977
0.0006029437577
)


// ************************************************************************* //
