/*--------------------------------*- C++ -*----------------------------------*\
  =========                 |
  \\      /  F ield         | OpenFOAM: The Open Source CFD Toolbox
   \\    /   O peration     | Website:  https://openfoam.org
    \\  /    A nd           | Version:  8
     \\/     M anipulation  |
\*---------------------------------------------------------------------------*/
FoamFile
{
    version     2.0;
    format      ascii;
    class       scalarField;
    location    "0.3/lagrangian/reactingCloud1";
    object      nParticle;
}
// * * * * * * * * * * * * * * * * * * * * * * * * * * * * * * * * * * * * * //


47
(
2491.432599
7507.512154
102.7452224
753.5900412
101.4886936
102.6527652
102.5729419
103.8450528
102.1023052
100.661777
101.4612875
100.3017
101.5539985
4891.706922
101.4454629
1449.653631
6943.454911
6569.607413
3809.630918
6677.692922
100.3520725
115.3800714
2367.907962
955.972667
8312.940779
5239.351786
194.756765
1219.46903
103.7617407
100.3508213
101.5160768
101.3469857
113.4288158
104.3963519
103.449227
102.4873085
102.988904
105.1806492
106.7684825
100.471341
7730.139713
1152.142288
827.8348575
101.9415957
100.0395713
713.6726062
125.1492407
)


// ************************************************************************* //
