/*--------------------------------*- C++ -*----------------------------------*\
  =========                 |
  \\      /  F ield         | OpenFOAM: The Open Source CFD Toolbox
   \\    /   O peration     | Website:  https://openfoam.org
    \\  /    A nd           | Version:  8
     \\/     M anipulation  |
\*---------------------------------------------------------------------------*/
FoamFile
{
    version     2.0;
    format      ascii;
    class       labelField;
    location    "0.3/lagrangian/reactingCloud1";
    object      origId;
}
// * * * * * * * * * * * * * * * * * * * * * * * * * * * * * * * * * * * * * //


47
(
39
40
0
44
3
1
2
3
4
5
6
7
8
54
9
55
61
43
77
86
13
14
90
92
16
96
52
17
18
19
20
21
22
23
24
25
26
27
28
17
130
128
136
23
75
64
17
)


// ************************************************************************* //
