/*--------------------------------*- C++ -*----------------------------------*\
  =========                 |
  \\      /  F ield         | OpenFOAM: The Open Source CFD Toolbox
   \\    /   O peration     | Website:  https://openfoam.org
    \\  /    A nd           | Version:  8
     \\/     M anipulation  |
\*---------------------------------------------------------------------------*/
FoamFile
{
    version     2.0;
    format      ascii;
    class       scalarField;
    location    "0.3/lagrangian/reactingCloud1";
    object      T;
}
// * * * * * * * * * * * * * * * * * * * * * * * * * * * * * * * * * * * * * //


47
(
300
300
300.0000004
300
300.0000008
300.0000001
299.9999987
300.0000001
300
299.9999996
299.9999976
299.9999999
299.9999996
300
299.9999996
300
300
300
300
300
299.9999954
299.9999955
300
300
299.9999982
300
299.9999867
299.9999982
299.9999982
299.9999938
299.9999981
299.9999981
299.9999981
299.9999981
299.9999979
299.9999977
299.9999975
299.9999974
299.9999972
299.9999977
300
300
300
299.999978
299.9999742
300
299.9999388
)


// ************************************************************************* //
