/*--------------------------------*- C++ -*----------------------------------*\
  =========                 |
  \\      /  F ield         | OpenFOAM: The Open Source CFD Toolbox
   \\    /   O peration     | Website:  https://openfoam.org
    \\  /    A nd           | Version:  8
     \\/     M anipulation  |
\*---------------------------------------------------------------------------*/
FoamFile
{
    version     2.0;
    format      ascii;
    class       vectorField;
    location    "0.3/lagrangian/reactingCloud1";
    object      U;
}
// * * * * * * * * * * * * * * * * * * * * * * * * * * * * * * * * * * * * * //


47
(
(-0.02512880731 0.8426531203 -3.147251959)
(-0.3438226205 0.8585888208 -3.056909287)
(-0.01743714044 0.8599190405 -1.357955294)
(-0.9194716596 0.4941868732 -3.186366082)
(-0.01220113232 1.022792128 -1.435955353)
(-0.01650752227 0.9997482157 -1.398423193)
(-0.3089457176 0.004914683323 -1.422726405)
(-0.0171197434 0.984856723 -1.323865984)
(-0.01874996951 0.9327992092 -1.342053548)
(-0.01564191195 0.8712984946 -1.349879323)
(-0.6606676995 0.005000935165 -1.340125519)
(-0.01329983653 1.106157288 -1.372142588)
(-0.006315153048 1.181219886 -1.406376341)
(-0.6038801036 0.5488912514 -3.111119057)
(-0.004178353604 1.180072706 -1.383585478)
(-0.9091569951 0.6079565664 -2.969688252)
(-0.2660159754 0.9521388205 -2.718706498)
(-0.8166631927 0.2096640998 -3.146153741)
(-0.9164734603 0.6430593897 -2.598833793)
(-0.2010028198 0.9118386899 -2.603824341)
(-0.9057817965 0.007268096107 -0.9969029252)
(-1.061350293 0.003274390576 -0.9943338075)
(-0.390921767 0.9013676924 -2.691091848)
(-0.01514125413 0.9894418599 -2.693788059)
(-0.2455303883 0.291509194 -0.9305725021)
(-0.5577474944 0.6361254259 -2.664893804)
(-0.3121566935 0.0007911357643 -0.902602337)
(-0.1348704811 0.32053878 -0.8457461691)
(-0.2019495354 0.1282717463 -0.8146620273)
(-0.2873116212 -0.01332626512 -0.7693877745)
(-0.2416814333 0.06785852656 -0.8158378896)
(-0.2554610963 0.05147004239 -0.7991978152)
(-0.2549260607 0.05002340143 -0.7884893113)
(-0.2530288061 0.05075948703 -0.7830096058)
(-0.2777596628 0.04056458195 -0.7737522785)
(-0.2976950745 0.03532477828 -0.7537780729)
(-0.3208259396 0.03446593309 -0.7357827047)
(-0.3191126485 0.03832769324 -0.7235684036)
(-0.3449412355 0.03992876374 -0.7160453346)
(-0.2597534669 0.461648713 -1.324284847)
(-0.7866509619 0.9307314295 -1.849995031)
(0.08463230793 0.2966473328 -2.456589717)
(-0.09541259752 1.019961553 -2.039432308)
(-0.3180354213 0.1571617738 -1.216185209)
(-0.1187122053 0.04717896536 -0.5553493569)
(-1.014874432 0.06525467503 -3.016478443)
(-0.2143897872 0.04234977684 -1.243321576)
)


// ************************************************************************* //
