/*--------------------------------*- C++ -*----------------------------------*\
  =========                 |
  \\      /  F ield         | OpenFOAM: The Open Source CFD Toolbox
   \\    /   O peration     | Website:  https://openfoam.org
    \\  /    A nd           | Version:  8
     \\/     M anipulation  |
\*---------------------------------------------------------------------------*/
FoamFile
{
    version     2.0;
    format      ascii;
    class       volScalarField;
    location    "0.1";
    object      epsilon;
}
// * * * * * * * * * * * * * * * * * * * * * * * * * * * * * * * * * * * * * //

dimensions      [0 2 -3 0 0 0 0];

internalField   nonuniform List<scalar> 
67451
(
1.007535846e-05
1.007533257e-05
1.007530873e-05
1.007528378e-05
1.007525796e-05
1.007523151e-05
1.007520471e-05
1.007517785e-05
1.007515123e-05
1.007512519e-05
1.007510288e-05
1.007543669e-05
1.007541851e-05
1.007540143e-05
1.00753824e-05
1.007535911e-05
1.007533658e-05
1.007531272e-05
1.007528769e-05
1.007526178e-05
1.007523522e-05
1.00752083e-05
1.007518132e-05
1.007515457e-05
1.007512834e-05
1.0075103e-05
1.007508106e-05
1.007505798e-05
1.007503638e-05
1.007501665e-05
1.0074999e-05
1.007498366e-05
1.007497169e-05
1.007496797e-05
1.007482436e-05
1.006915173e-05
1.160775593e-05
1.007546244e-05
1.007544914e-05
1.007543415e-05
1.007541928e-05
1.007540226e-05
1.007538325e-05
1.007536241e-05
1.007533996e-05
1.00753161e-05
1.007529107e-05
1.007526513e-05
1.007523855e-05
1.00752116e-05
1.007518457e-05
1.007515777e-05
1.007513147e-05
1.0075106e-05
1.007508168e-05
1.007505846e-05
1.007503685e-05
1.007501703e-05
1.007499927e-05
1.007498379e-05
1.007497107e-05
1.007496588e-05
1.007482225e-05
1.006914935e-05
1.160775251e-05
1.007546193e-05
1.007544632e-05
1.007543381e-05
1.007541911e-05
1.007540225e-05
1.007538331e-05
1.007536255e-05
1.007534017e-05
1.007531638e-05
1.007529141e-05
1.007526553e-05
1.0075239e-05
1.00752121e-05
1.007518512e-05
1.007515834e-05
1.007513207e-05
1.00751066e-05
1.00750823e-05
1.007505913e-05
1.007503757e-05
1.007501778e-05
1.007499997e-05
1.007498446e-05
1.007497158e-05
1.007496608e-05
1.007482244e-05
1.006914938e-05
1.160775234e-05
1.007544567e-05
1.007543017e-05
1.007541557e-05
1.007539882e-05
1.00753801e-05
1.007535945e-05
1.007533719e-05
1.007531354e-05
1.007528869e-05
1.007526295e-05
1.007523654e-05
1.007520977e-05
1.007518292e-05
1.007515627e-05
1.007513011e-05
1.007510474e-05
1.007508048e-05
1.007505752e-05
1.007503601e-05
1.007501627e-05
1.007499854e-05
1.007498309e-05
1.007497059e-05
1.007496612e-05
1.007482248e-05
1.006914938e-05
1.160775209e-05
1.007543841e-05
1.007542308e-05
1.007540866e-05
1.007539212e-05
1.007537353e-05
1.00753531e-05
1.007533102e-05
1.007530754e-05
1.007528287e-05
1.007525738e-05
1.007523122e-05
1.007520466e-05
1.007517801e-05
1.007515158e-05
1.007512561e-05
1.007510042e-05
1.007507635e-05
1.007505359e-05
1.007503222e-05
1.007501269e-05
1.007499506e-05
1.007497974e-05
1.007496941e-05
1.007496597e-05
1.007482235e-05
1.006914931e-05
1.160775175e-05
1.00754277e-05
1.007541265e-05
1.007539842e-05
1.007538212e-05
1.007536373e-05
1.007534357e-05
1.007532178e-05
1.007529857e-05
1.007527425e-05
1.007524897e-05
1.007522305e-05
1.007519681e-05
1.007517045e-05
1.007514428e-05
1.007511864e-05
1.007509375e-05
1.007506989e-05
1.007504744e-05
1.007502628e-05
1.007500698e-05
1.007498962e-05
1.007497449e-05
1.007496893e-05
1.007496566e-05
1.007482205e-05
1.006914919e-05
1.16077513e-05
1.007541363e-05
1.007539883e-05
1.007538492e-05
1.007536877e-05
1.00753507e-05
1.007533098e-05
1.007530949e-05
1.007528661e-05
1.007526261e-05
1.007523769e-05
1.007521217e-05
1.007518625e-05
1.007516029e-05
1.007513456e-05
1.007510931e-05
1.007508475e-05
1.007506121e-05
1.007503913e-05
1.007501827e-05
1.007499922e-05
1.00749822e-05
1.007496988e-05
1.007496841e-05
1.007496518e-05
1.007482159e-05
1.006914901e-05
1.160775075e-05
1.007539658e-05
1.007538194e-05
1.007536829e-05
1.007535255e-05
1.007533489e-05
1.007531539e-05
1.00752943e-05
1.00752718e-05
1.00752482e-05
1.00752238e-05
1.007519872e-05
1.007517334e-05
1.007514782e-05
1.007512248e-05
1.007509769e-05
1.00750736e-05
1.007505058e-05
1.00750288e-05
1.007500832e-05
1.007498968e-05
1.007497304e-05
1.00749689e-05
1.007496775e-05
1.007496454e-05
1.007482098e-05
1.006914879e-05
1.160775017e-05
1.007537634e-05
1.007536208e-05
1.007534877e-05
1.007533337e-05
1.007531606e-05
1.007529701e-05
1.00752764e-05
1.007525442e-05
1.007523138e-05
1.007520739e-05
1.007518284e-05
1.00751579e-05
1.007513296e-05
1.007510815e-05
1.007508385e-05
1.007506033e-05
1.007503778e-05
1.007501656e-05
1.007499653e-05
1.007497834e-05
1.007496947e-05
1.007496805e-05
1.007496694e-05
1.007496375e-05
1.007482024e-05
1.006914851e-05
1.160774946e-05
1.007535339e-05
1.007533947e-05
1.007532659e-05
1.00753116e-05
1.007529477e-05
1.007527613e-05
1.007525598e-05
1.007523454e-05
1.007521204e-05
1.007518868e-05
1.007516475e-05
1.007514048e-05
1.007511618e-05
1.007509206e-05
1.00750683e-05
1.007504533e-05
1.007502338e-05
1.007500256e-05
1.007498306e-05
1.007497013e-05
1.007496835e-05
1.007496707e-05
1.007496599e-05
1.007496283e-05
1.007481937e-05
1.006914819e-05
1.160774868e-05
1.007532799e-05
1.007531443e-05
1.007530181e-05
1.007528732e-05
1.007527096e-05
1.007525293e-05
1.007523334e-05
1.00752125e-05
1.007519067e-05
1.007516792e-05
1.007514471e-05
1.007512113e-05
1.007509743e-05
1.007507397e-05
1.007505094e-05
1.007502861e-05
1.007500731e-05
1.007498706e-05
1.007497085e-05
1.007496864e-05
1.00749672e-05
1.007496599e-05
1.007496495e-05
1.007496179e-05
1.007481839e-05
1.006914784e-05
1.160774785e-05
1.007530041e-05
1.007528722e-05
1.007527509e-05
1.007526106e-05
1.007524523e-05
1.007522776e-05
1.00752088e-05
1.007518862e-05
1.007516738e-05
1.007514546e-05
1.007512289e-05
1.007510003e-05
1.007507712e-05
1.007505438e-05
1.007503211e-05
1.007501045e-05
1.007498989e-05
1.007497185e-05
1.007496888e-05
1.007496732e-05
1.007496595e-05
1.007496479e-05
1.007496379e-05
1.007496067e-05
1.007481731e-05
1.006914745e-05
1.160774696e-05
1.0075271e-05
1.007525822e-05
1.007524654e-05
1.007523311e-05
1.007521782e-05
1.007520092e-05
1.007518262e-05
1.007516314e-05
1.007514267e-05
1.007512147e-05
1.007509971e-05
1.007507764e-05
1.007505553e-05
1.00750336e-05
1.007501206e-05
1.007499129e-05
1.007497258e-05
1.007496907e-05
1.007496739e-05
1.007496592e-05
1.007496463e-05
1.007496351e-05
1.007496254e-05
1.007495947e-05
1.007481617e-05
1.006914704e-05
1.160774603e-05
1.007524025e-05
1.007522791e-05
1.007521675e-05
1.007520367e-05
1.007518898e-05
1.007517274e-05
1.007515517e-05
1.007513642e-05
1.007511668e-05
1.007509634e-05
1.007507541e-05
1.007505417e-05
1.007503288e-05
1.007501178e-05
1.007499109e-05
1.007497275e-05
1.007496923e-05
1.007496743e-05
1.007496588e-05
1.007496447e-05
1.007496325e-05
1.007496218e-05
1.007496126e-05
1.007495819e-05
1.007481496e-05
1.006914661e-05
1.160774506e-05
1.007520846e-05
1.007519654e-05
1.007518587e-05
1.007517335e-05
1.00751592e-05
1.007514374e-05
1.007512688e-05
1.007510893e-05
1.007509009e-05
1.007507041e-05
1.007505028e-05
1.007502992e-05
1.007500948e-05
1.007498932e-05
1.007497252e-05
1.007496928e-05
1.007496742e-05
1.007496579e-05
1.007496431e-05
1.007496299e-05
1.007496183e-05
1.00749608e-05
1.007495992e-05
1.007495689e-05
1.007481371e-05
1.006914617e-05
1.160774407e-05
1.007517618e-05
1.007516466e-05
1.007515444e-05
1.007514255e-05
1.007512914e-05
1.007511416e-05
1.007509805e-05
1.007508086e-05
1.007506279e-05
1.007504406e-05
1.007502479e-05
1.007500529e-05
1.007498578e-05
1.007497212e-05
1.007496921e-05
1.007496737e-05
1.007496566e-05
1.007496414e-05
1.007496275e-05
1.00749615e-05
1.007496037e-05
1.007495941e-05
1.007495855e-05
1.007495555e-05
1.007481245e-05
1.006914572e-05
1.160774306e-05
1.007514368e-05
1.007513258e-05
1.007512286e-05
1.007511155e-05
1.007509873e-05
1.007508452e-05
1.007506913e-05
1.007505272e-05
1.007503546e-05
1.007501751e-05
1.007499915e-05
1.007498068e-05
1.007497157e-05
1.007496905e-05
1.007496724e-05
1.007496551e-05
1.007496395e-05
1.007496249e-05
1.007496119e-05
1.007495999e-05
1.007495893e-05
1.0074958e-05
1.007495719e-05
1.007495422e-05
1.007481118e-05
1.006914527e-05
1.160774206e-05
1.007511145e-05
1.007510078e-05
1.007509153e-05
1.007508087e-05
1.007506864e-05
1.007505512e-05
1.007504045e-05
1.007502481e-05
1.007500837e-05
1.007499132e-05
1.007497562e-05
1.0074971e-05
1.00749688e-05
1.007496704e-05
1.007496533e-05
1.007496372e-05
1.007496227e-05
1.007496091e-05
1.007495967e-05
1.007495852e-05
1.007495752e-05
1.007495663e-05
1.007495584e-05
1.00749529e-05
1.007480992e-05
1.006914482e-05
1.160774107e-05
1.007508004e-05
1.00750698e-05
1.00750611e-05
1.007505077e-05
1.007503918e-05
1.007502631e-05
1.007501234e-05
1.007499753e-05
1.007498212e-05
1.007497363e-05
1.00749704e-05
1.007496846e-05
1.007496677e-05
1.00749651e-05
1.00749635e-05
1.007496203e-05
1.007496063e-05
1.007495936e-05
1.007495817e-05
1.007495709e-05
1.007495612e-05
1.007495528e-05
1.007495453e-05
1.007495162e-05
1.00748087e-05
1.006914439e-05
1.160774011e-05
1.007504964e-05
1.007503977e-05
1.007503157e-05
1.007502184e-05
1.007501082e-05
1.007499863e-05
1.007498553e-05
1.007497604e-05
1.007497215e-05
1.007496982e-05
1.007496806e-05
1.007496644e-05
1.007496483e-05
1.007496325e-05
1.007496179e-05
1.00749604e-05
1.007495911e-05
1.007495787e-05
1.007495674e-05
1.007495571e-05
1.007495479e-05
1.007495398e-05
1.007495326e-05
1.007495038e-05
1.007480753e-05
1.006914398e-05
1.160773918e-05
1.007502082e-05
1.00750114e-05
1.007500346e-05
1.007499428e-05
1.007498416e-05
1.00749773e-05
1.007497362e-05
1.007497107e-05
1.007496925e-05
1.007496763e-05
1.007496607e-05
1.007496454e-05
1.007496302e-05
1.007496156e-05
1.007496019e-05
1.007495888e-05
1.007495764e-05
1.007495647e-05
1.007495539e-05
1.00749544e-05
1.007495352e-05
1.007495276e-05
1.007495208e-05
1.007494922e-05
1.007480641e-05
1.006914359e-05
1.16077383e-05
1.007499394e-05
1.007498535e-05
1.007498039e-05
1.007497702e-05
1.007497425e-05
1.007497194e-05
1.007497017e-05
1.007496864e-05
1.007496716e-05
1.00749657e-05
1.007496425e-05
1.00749628e-05
1.007496135e-05
1.007496e-05
1.00749587e-05
1.007495747e-05
1.007495627e-05
1.007495516e-05
1.007495413e-05
1.007495319e-05
1.007495235e-05
1.007495161e-05
1.007495096e-05
1.007494813e-05
1.007480538e-05
1.006914322e-05
1.160773747e-05
1.007498068e-05
1.007497583e-05
1.007497396e-05
1.007497229e-05
1.007497076e-05
1.00749694e-05
1.007496806e-05
1.007496669e-05
1.007496532e-05
1.007496397e-05
1.007496259e-05
1.00749612e-05
1.007495987e-05
1.007495859e-05
1.007495736e-05
1.007495616e-05
1.007495502e-05
1.007495396e-05
1.007495297e-05
1.007495207e-05
1.007495127e-05
1.007495056e-05
1.007494994e-05
1.007494713e-05
1.007480442e-05
1.006914289e-05
1.160773671e-05
1.00749762e-05
1.007497205e-05
1.007497092e-05
1.007496982e-05
1.007496867e-05
1.007496749e-05
1.007496625e-05
1.007496499e-05
1.007496373e-05
1.007496242e-05
1.00749611e-05
1.00749598e-05
1.007495855e-05
1.007495733e-05
1.007495614e-05
1.0074955e-05
1.00749539e-05
1.007495288e-05
1.007495193e-05
1.007495107e-05
1.00749503e-05
1.007494962e-05
1.007494902e-05
1.007494623e-05
1.007480357e-05
1.006914259e-05
1.160773603e-05
1.007497376e-05
1.007496989e-05
1.0074969e-05
1.007496803e-05
1.007496698e-05
1.007496589e-05
1.007496473e-05
1.007496355e-05
1.007496233e-05
1.007496108e-05
1.007495982e-05
1.00749586e-05
1.00749574e-05
1.007495622e-05
1.007495508e-05
1.007495397e-05
1.007495293e-05
1.007495193e-05
1.007495101e-05
1.007495019e-05
1.007494944e-05
1.007494879e-05
1.007494821e-05
1.007494544e-05
1.007480281e-05
1.006914232e-05
1.160773543e-05
1.007497209e-05
1.007496828e-05
1.007496746e-05
1.007496656e-05
1.007496559e-05
1.007496454e-05
1.007496343e-05
1.00749623e-05
1.007496114e-05
1.007495993e-05
1.007495873e-05
1.007495756e-05
1.00749564e-05
1.007495527e-05
1.007495416e-05
1.007495309e-05
1.007495207e-05
1.007495111e-05
1.007495023e-05
1.007494942e-05
1.007494871e-05
1.007494808e-05
1.007494751e-05
1.007494475e-05
1.007480216e-05
1.00691421e-05
1.160773493e-05
1.007496956e-05
1.00749658e-05
1.007496502e-05
1.007496417e-05
1.007496325e-05
1.007496222e-05
1.007496116e-05
1.007496008e-05
1.007495893e-05
1.007495777e-05
1.007495663e-05
1.007495549e-05
1.007495436e-05
1.007495326e-05
1.007495218e-05
1.007495114e-05
1.007495015e-05
1.007494922e-05
1.007494836e-05
1.007494758e-05
1.007494687e-05
1.007494626e-05
1.007494571e-05
1.007494297e-05
1.007480048e-05
1.006914168e-05
1.160773452e-05
1.007488013e-05
1.007487642e-05
1.007487568e-05
1.007487488e-05
1.007487396e-05
1.007487302e-05
1.007487199e-05
1.007487095e-05
1.007486985e-05
1.007486873e-05
1.007486765e-05
1.007486656e-05
1.007486548e-05
1.007486442e-05
1.007486337e-05
1.007486238e-05
1.007486143e-05
1.007486053e-05
1.007485971e-05
1.007485896e-05
1.007485829e-05
1.00748577e-05
1.007485717e-05
1.007485453e-05
1.007471573e-05
1.006911688e-05
1.160773027e-05
1.007111862e-05
1.007111513e-05
1.007111467e-05
1.007111418e-05
1.007111365e-05
1.007111311e-05
1.007111256e-05
1.007111198e-05
1.00711114e-05
1.007111083e-05
1.007111031e-05
1.00711098e-05
1.007110932e-05
1.007110886e-05
1.007110841e-05
1.007110798e-05
1.007110757e-05
1.007110718e-05
1.007110682e-05
1.007110649e-05
1.00711062e-05
1.007110595e-05
1.007110573e-05
1.00711049e-05
1.007104836e-05
1.006733753e-05
1.160708121e-05
1.066944092e-05
1.06694372e-05
1.066943695e-05
1.066943671e-05
1.066943644e-05
1.066943615e-05
1.066943584e-05
1.066943552e-05
1.066943519e-05
1.066943483e-05
1.066943448e-05
1.066943412e-05
1.066943377e-05
1.066943341e-05
1.066943307e-05
1.066943273e-05
1.066943241e-05
1.066943211e-05
1.066943183e-05
1.066943158e-05
1.066943135e-05
1.066943115e-05
1.066943098e-05
1.066943078e-05
1.066941683e-05
1.066744358e-05
1.211013472e-05
3.79811446e-07
3.798233347e-07
3.79833783e-07
3.798447802e-07
3.798563122e-07
3.798682781e-07
3.798805667e-07
3.798930521e-07
3.799055975e-07
3.799179794e-07
3.7992808e-07
3.797786585e-07
3.797869551e-07
3.797940923e-07
3.798020723e-07
3.798127228e-07
3.798225088e-07
3.798328784e-07
3.798438807e-07
3.798554266e-07
3.798674129e-07
3.798797265e-07
3.798922412e-07
3.799048221e-07
3.799173221e-07
3.799294638e-07
3.799397021e-07
3.79951742e-07
3.799637854e-07
3.799759082e-07
3.799921456e-07
3.80013947e-07
3.800502158e-07
3.803077042e-07
3.881037315e-07
7.377576982e-07
1.312207689e-05
3.797680453e-07
3.79774406e-07
3.797813558e-07
3.797875623e-07
3.797945892e-07
3.798025541e-07
3.798114431e-07
3.798210709e-07
3.798314167e-07
3.798424055e-07
3.798539408e-07
3.798659216e-07
3.798782337e-07
3.798907503e-07
3.799033376e-07
3.799158538e-07
3.799281443e-07
3.799399982e-07
3.799517732e-07
3.799633552e-07
3.799747825e-07
3.799872431e-07
3.800055154e-07
3.800333179e-07
3.802759355e-07
3.880721217e-07
7.377285534e-07
1.312207199e-05
3.797682391e-07
3.797762641e-07
3.797815754e-07
3.797876087e-07
3.797945879e-07
3.798025204e-07
3.798113108e-07
3.798208968e-07
3.798312061e-07
3.798421633e-07
3.798536648e-07
3.798656181e-07
3.798779039e-07
3.798903959e-07
3.7990296e-07
3.799154563e-07
3.799277362e-07
3.799396287e-07
3.799511865e-07
3.799624073e-07
3.799734272e-07
3.79984115e-07
3.799992437e-07
3.800249451e-07
3.802634932e-07
3.880595586e-07
7.377162983e-07
1.31220708e-05
3.797755911e-07
3.79782902e-07
3.797889545e-07
3.797958969e-07
3.798037768e-07
3.798125062e-07
3.798220478e-07
3.798323018e-07
3.798432091e-07
3.798546592e-07
3.798665613e-07
3.798787952e-07
3.798912356e-07
3.799037516e-07
3.799161966e-07
3.799284324e-07
3.799402962e-07
3.799517261e-07
3.79962736e-07
3.799733837e-07
3.799837485e-07
3.799968334e-07
3.800236507e-07
3.802720297e-07
3.880678488e-07
7.377245723e-07
1.312206907e-05
3.797783886e-07
3.797856218e-07
3.797916392e-07
3.797985491e-07
3.798063591e-07
3.798150394e-07
3.79824501e-07
3.798347051e-07
3.798455391e-07
3.798569065e-07
3.798687331e-07
3.798808803e-07
3.79893247e-07
3.799056982e-07
3.799180526e-07
3.799302236e-07
3.79942007e-07
3.799532738e-07
3.799642038e-07
3.799744765e-07
3.799845803e-07
3.799972356e-07
3.800433505e-07
3.803013168e-07
3.880967809e-07
7.377532177e-07
1.312206682e-05
3.797826235e-07
3.797897941e-07
3.797957403e-07
3.798025789e-07
3.798102987e-07
3.7981889e-07
3.798282645e-07
3.798383626e-07
3.798491278e-07
3.798604002e-07
3.79872121e-07
3.798841852e-07
3.798964165e-07
3.799087334e-07
3.799210045e-07
3.799330303e-07
3.799447229e-07
3.799558692e-07
3.799667069e-07
3.799767577e-07
3.799865624e-07
3.800013111e-07
3.800917188e-07
3.803504393e-07
3.881455844e-07
7.378013647e-07
1.312206396e-05
3.797882248e-07
3.797952773e-07
3.798011419e-07
3.798079039e-07
3.79815577e-07
3.798240564e-07
3.798333199e-07
3.798433234e-07
3.798539326e-07
3.798651226e-07
3.798767438e-07
3.798886369e-07
3.799007707e-07
3.799129473e-07
3.799250598e-07
3.799369385e-07
3.799484913e-07
3.799594853e-07
3.799701862e-07
3.799800877e-07
3.799904806e-07
3.800309715e-07
3.801631339e-07
3.80420759e-07
3.882145885e-07
7.378687375e-07
1.312206081e-05
3.797951541e-07
3.798021468e-07
3.798079282e-07
3.798145769e-07
3.798221181e-07
3.798305036e-07
3.798396543e-07
3.798495257e-07
3.798600187e-07
3.798710181e-07
3.798824484e-07
3.798942457e-07
3.799061716e-07
3.799181901e-07
3.799301416e-07
3.799418503e-07
3.79953219e-07
3.799640548e-07
3.79974604e-07
3.799844132e-07
3.799988621e-07
3.801188153e-07
3.802528625e-07
3.805082884e-07
3.883004455e-07
7.379546526e-07
1.312205686e-05
3.798034069e-07
3.798103012e-07
3.798159627e-07
3.798225084e-07
3.798299321e-07
3.798381688e-07
3.798471894e-07
3.798568946e-07
3.798672052e-07
3.798780662e-07
3.798893304e-07
3.799008897e-07
3.799126734e-07
3.79924481e-07
3.799361954e-07
3.799477512e-07
3.799589098e-07
3.799695423e-07
3.799799124e-07
3.799906462e-07
3.800779778e-07
3.802276645e-07
3.803603278e-07
3.806136416e-07
3.884042229e-07
7.380562112e-07
1.31220527e-05
3.798129015e-07
3.798196838e-07
3.798252423e-07
3.798316378e-07
3.798388872e-07
3.798470162e-07
3.798558925e-07
3.798654229e-07
3.798755625e-07
3.798862072e-07
3.798972622e-07
3.799086095e-07
3.799201512e-07
3.799317046e-07
3.799432115e-07
3.799545031e-07
3.79965431e-07
3.79975879e-07
3.799865726e-07
3.800453612e-07
3.802060825e-07
3.803538731e-07
3.80484946e-07
3.807351032e-07
3.885233616e-07
7.381734541e-07
1.312204803e-05
3.798235246e-07
3.79830208e-07
3.798356377e-07
3.798419251e-07
3.798490711e-07
3.79856991e-07
3.798656659e-07
3.798750104e-07
3.798849495e-07
3.798953512e-07
3.799061626e-07
3.799172416e-07
3.799285161e-07
3.799398615e-07
3.799511055e-07
3.799621286e-07
3.799727904e-07
3.799833018e-07
3.800203908e-07
3.8018827e-07
3.803495318e-07
3.804939198e-07
3.806205072e-07
3.808710232e-07
3.886564909e-07
7.383046857e-07
1.312204312e-05
3.798352632e-07
3.798418383e-07
3.798471394e-07
3.798532549e-07
3.798602096e-07
3.798679499e-07
3.798764198e-07
3.798855358e-07
3.798952174e-07
3.79905413e-07
3.799159642e-07
3.799268185e-07
3.799377946e-07
3.79948831e-07
3.799597802e-07
3.799704943e-07
3.799809344e-07
3.800061505e-07
3.801757472e-07
3.803481173e-07
3.805067032e-07
3.806477907e-07
3.807716155e-07
3.810183455e-07
3.888015184e-07
7.384477e-07
1.31220378e-05
3.798479986e-07
3.798544351e-07
3.798595847e-07
3.798655385e-07
3.798722875e-07
3.798798079e-07
3.798880678e-07
3.798969503e-07
3.79906386e-07
3.799162881e-07
3.799265526e-07
3.799370884e-07
3.799477681e-07
3.799584798e-07
3.799691023e-07
3.799796269e-07
3.800022294e-07
3.801716051e-07
3.803528081e-07
3.805210957e-07
3.806744101e-07
3.808124295e-07
3.809337909e-07
3.811754486e-07
3.889563166e-07
7.386002209e-07
1.312203225e-05
3.798615364e-07
3.798678266e-07
3.798728052e-07
3.798785553e-07
3.798851498e-07
3.798924934e-07
3.799004851e-07
3.799091051e-07
3.799182653e-07
3.799278652e-07
3.799378028e-07
3.799480219e-07
3.799583715e-07
3.799687497e-07
3.799791983e-07
3.800049149e-07
3.801761131e-07
3.80363327e-07
3.805387127e-07
3.807023485e-07
3.808517867e-07
3.809851658e-07
3.811016721e-07
3.813415731e-07
3.891196342e-07
7.387610513e-07
1.312202656e-05
3.798757842e-07
3.798819256e-07
3.798867315e-07
3.798923003e-07
3.798986679e-07
3.799057567e-07
3.799134876e-07
3.799218251e-07
3.799306806e-07
3.799399783e-07
3.799496256e-07
3.799594776e-07
3.799694813e-07
3.799798556e-07
3.800180789e-07
3.801918874e-07
3.803817202e-07
3.805625103e-07
3.807321458e-07
3.808911718e-07
3.810356005e-07
3.81164928e-07
3.812767649e-07
3.815125187e-07
3.89287888e-07
7.389266735e-07
1.312202071e-05
3.798905024e-07
3.798964949e-07
3.799011302e-07
3.799064946e-07
3.799126188e-07
3.799194548e-07
3.799269477e-07
3.799349983e-07
3.799435435e-07
3.799525133e-07
3.799617772e-07
3.799712923e-07
3.799815806e-07
3.800451874e-07
3.802205096e-07
3.80409127e-07
3.805926007e-07
3.807652864e-07
3.809309756e-07
3.810842984e-07
3.812245791e-07
3.813477626e-07
3.814552222e-07
3.816871297e-07
3.89459572e-07
7.390957785e-07
1.312201481e-05
3.79905545e-07
3.799113907e-07
3.799158496e-07
3.79921008e-07
3.799268969e-07
3.799334709e-07
3.799406673e-07
3.799484076e-07
3.79956618e-07
3.799652174e-07
3.799742172e-07
3.799850318e-07
3.800845345e-07
3.802607733e-07
3.804458813e-07
3.806287092e-07
3.808037024e-07
3.809732155e-07
3.811317223e-07
3.812800265e-07
3.814142057e-07
3.815321859e-07
3.816346271e-07
3.818628106e-07
3.896323152e-07
7.392659187e-07
1.312200894e-05
3.799207567e-07
3.799264255e-07
3.799306931e-07
3.799356433e-07
3.7994128e-07
3.799475699e-07
3.799544793e-07
3.799619043e-07
3.799697968e-07
3.79978385e-07
3.800024643e-07
3.801385647e-07
3.803125386e-07
3.804924962e-07
3.806720077e-07
3.808475943e-07
3.810154228e-07
3.811780741e-07
3.813311093e-07
3.814739434e-07
3.816012764e-07
3.817136388e-07
3.818129313e-07
3.820375186e-07
3.898044242e-07
7.394354361e-07
1.31220032e-05
3.799358224e-07
3.799413358e-07
3.799454064e-07
3.799501223e-07
3.799555462e-07
3.799616009e-07
3.79968198e-07
3.799754504e-07
3.79985058e-07
3.800649976e-07
3.802072417e-07
3.803764125e-07
3.805480342e-07
3.807218221e-07
3.808948534e-07
3.810616569e-07
3.812256145e-07
3.813812455e-07
3.815289074e-07
3.816636167e-07
3.817855952e-07
3.818929354e-07
3.819872259e-07
3.822082518e-07
3.899722881e-07
7.396008195e-07
1.312199755e-05
3.799506282e-07
3.799559803e-07
3.79959866e-07
3.799643578e-07
3.799695182e-07
3.799754212e-07
3.799827998e-07
3.800314521e-07
3.801457637e-07
3.80289247e-07
3.804490984e-07
3.806116265e-07
3.807782147e-07
3.809460201e-07
3.811095963e-07
3.812711702e-07
3.81427087e-07
3.815778891e-07
3.81718475e-07
3.818476945e-07
3.819638931e-07
3.820662085e-07
3.821561964e-07
3.82373725e-07
3.901345506e-07
7.397607674e-07
1.312199212e-05
3.799648954e-07
3.799700839e-07
3.799738141e-07
3.799783165e-07
3.799862356e-07
3.800337812e-07
3.801246797e-07
3.802408616e-07
3.80377357e-07
3.805278544e-07
3.806809e-07
3.808391048e-07
3.80999363e-07
3.811575981e-07
3.813155501e-07
3.814709892e-07
3.816214524e-07
3.817655539e-07
3.818992181e-07
3.820224054e-07
3.821330905e-07
3.822304369e-07
3.823159789e-07
3.825303746e-07
3.902902443e-07
7.399138108e-07
1.312198703e-05
3.799793548e-07
3.79989137e-07
3.800145216e-07
3.800686257e-07
3.801417344e-07
3.802338565e-07
3.803467657e-07
3.804727521e-07
3.806114231e-07
3.807530185e-07
3.809007345e-07
3.810524352e-07
3.812061002e-07
3.813589195e-07
3.815106505e-07
3.816590066e-07
3.818044996e-07
3.819413332e-07
3.820690792e-07
3.821864734e-07
3.822919885e-07
3.823848985e-07
3.824668377e-07
3.826781695e-07
3.904350951e-07
7.400566e-07
1.312198221e-05
3.800987178e-07
3.801406448e-07
3.801948021e-07
3.802653085e-07
3.803519026e-07
3.804547988e-07
3.805684165e-07
3.806949617e-07
3.808256359e-07
3.809619255e-07
3.811050062e-07
3.812501926e-07
3.813967974e-07
3.815438299e-07
3.816902276e-07
3.818346524e-07
3.819728794e-07
3.821032564e-07
3.822256879e-07
3.823377014e-07
3.824384832e-07
3.825273036e-07
3.826058223e-07
3.828143768e-07
3.905690746e-07
7.401885511e-07
1.312197781e-05
3.802837901e-07
3.803341164e-07
3.80395468e-07
3.804737678e-07
3.805626648e-07
3.806636142e-07
3.807757653e-07
3.80894466e-07
3.81019037e-07
3.811527763e-07
3.812893918e-07
3.814293991e-07
3.815700027e-07
3.817126316e-07
3.818534861e-07
3.819917135e-07
3.821246098e-07
3.822497923e-07
3.823670991e-07
3.824743312e-07
3.825708529e-07
3.826559895e-07
3.827314044e-07
3.829374448e-07
3.90690183e-07
7.403078062e-07
1.312197385e-05
3.804705686e-07
3.805248539e-07
3.805866079e-07
3.806615736e-07
3.807513973e-07
3.808492205e-07
3.809556015e-07
3.810696179e-07
3.811929781e-07
3.813197706e-07
3.814519547e-07
3.815870771e-07
3.817241593e-07
3.818614168e-07
3.819978787e-07
3.8213117e-07
3.822583051e-07
3.823797085e-07
3.824922286e-07
3.825949259e-07
3.826876408e-07
3.82769562e-07
3.82842216e-07
3.830460133e-07
3.907970024e-07
7.404129404e-07
1.31219704e-05
3.806398632e-07
3.806926148e-07
3.807522442e-07
3.808290831e-07
3.809137848e-07
3.81007949e-07
3.811116081e-07
3.812237354e-07
3.813411108e-07
3.814651085e-07
3.815928693e-07
3.817236598e-07
3.818576202e-07
3.819906315e-07
3.82122984e-07
3.822512537e-07
3.823742413e-07
3.824909169e-07
3.825992976e-07
3.826993504e-07
3.827887556e-07
3.82867951e-07
3.829382168e-07
3.831400505e-07
3.908893542e-07
7.405030725e-07
1.312196752e-05
3.808571715e-07
3.809089182e-07
3.809708348e-07
3.810427403e-07
3.811232173e-07
3.812173325e-07
3.813183926e-07
3.814265913e-07
3.815413173e-07
3.816624386e-07
3.817866416e-07
3.819149181e-07
3.820446432e-07
3.821749947e-07
3.823035505e-07
3.824279234e-07
3.825476624e-07
3.826608785e-07
3.827662682e-07
3.828629919e-07
3.829505767e-07
3.830271662e-07
3.830954326e-07
3.83295297e-07
3.910388157e-07
7.406115882e-07
1.312196477e-05
3.859057238e-07
3.859563323e-07
3.860157617e-07
3.860835442e-07
3.861671175e-07
3.862555039e-07
3.863565099e-07
3.864617282e-07
3.865748517e-07
3.866933047e-07
3.868152358e-07
3.869414895e-07
3.8706856e-07
3.871959472e-07
3.873223772e-07
3.874438001e-07
3.875610892e-07
3.876718428e-07
3.877749834e-07
3.878696095e-07
3.879548646e-07
3.880300897e-07
3.880965418e-07
3.88289478e-07
3.958957409e-07
7.438642799e-07
1.31219153e-05
6.440778182e-07
6.441293144e-07
6.441876074e-07
6.442580224e-07
6.443383771e-07
6.444287926e-07
6.445268444e-07
6.446313108e-07
6.44743783e-07
6.448617359e-07
6.449830739e-07
6.451084731e-07
6.45234924e-07
6.453616508e-07
6.454867734e-07
6.456075997e-07
6.457243815e-07
6.458343772e-07
6.459368857e-07
6.460309182e-07
6.461155489e-07
6.461899571e-07
6.462542748e-07
6.463819506e-07
6.519422814e-07
9.643603676e-07
1.311928812e-05
1.128914517e-05
1.128913835e-05
1.128913502e-05
1.12891313e-05
1.128912727e-05
1.128912293e-05
1.128911831e-05
1.128911356e-05
1.128910854e-05
1.128910336e-05
1.128909822e-05
1.1289093e-05
1.128908773e-05
1.12890827e-05
1.128907767e-05
1.128907273e-05
1.128906818e-05
1.128906383e-05
1.128905978e-05
1.128905608e-05
1.128905277e-05
1.128904988e-05
1.128904743e-05
1.128904452e-05
1.128896377e-05
1.128380697e-05
1.309485498e-05
1.081631275e-07
1.081645456e-07
1.081637517e-07
1.081627883e-07
1.081619066e-07
1.08161147e-07
1.081605323e-07
1.081600778e-07
1.081597923e-07
1.081596768e-07
1.081597116e-07
1.081596634e-07
1.081574633e-07
1.081578831e-07
1.081586198e-07
1.081692219e-07
1.08168429e-07
1.081673725e-07
1.081662294e-07
1.081653301e-07
1.081642847e-07
1.081632787e-07
1.081623663e-07
1.081615759e-07
1.081609303e-07
1.081604455e-07
1.081601308e-07
1.081599881e-07
1.081600111e-07
1.081601656e-07
1.081602782e-07
1.081607343e-07
1.081613414e-07
1.081621258e-07
1.081632046e-07
1.081649672e-07
1.081822364e-07
1.087255391e-07
1.238477657e-07
5.461180967e-07
1.312381287e-05
1.081710056e-07
1.081704757e-07
1.081697703e-07
1.081688076e-07
1.081677528e-07
1.081666489e-07
1.081655504e-07
1.081644697e-07
1.081634486e-07
1.081625214e-07
1.08161715e-07
1.081610532e-07
1.081605521e-07
1.081602212e-07
1.081600631e-07
1.081600728e-07
1.081602372e-07
1.081605308e-07
1.081609712e-07
1.081615266e-07
1.081621869e-07
1.081630124e-07
1.08164563e-07
1.081811909e-07
1.0872379e-07
1.238463578e-07
5.461198008e-07
1.312380823e-05
1.081709421e-07
1.081705676e-07
1.081697437e-07
1.081687824e-07
1.081677369e-07
1.081666445e-07
1.08165541e-07
1.08164462e-07
1.081634429e-07
1.081625156e-07
1.081617086e-07
1.081610454e-07
1.081605419e-07
1.081602084e-07
1.081600469e-07
1.081600526e-07
1.081602146e-07
1.081605129e-07
1.081609373e-07
1.081614674e-07
1.081620888e-07
1.0816279e-07
1.081641546e-07
1.081806389e-07
1.087230242e-07
1.2384566e-07
5.461198563e-07
1.312380699e-05
1.081700572e-07
1.08169423e-07
1.08168491e-07
1.081674688e-07
1.081663971e-07
1.081653142e-07
1.081642556e-07
1.081632556e-07
1.081623465e-07
1.081615559e-07
1.081609065e-07
1.081604159e-07
1.08160093e-07
1.081599419e-07
1.081599566e-07
1.081601256e-07
1.081604307e-07
1.081608534e-07
1.081613754e-07
1.081619787e-07
1.081626539e-07
1.081638911e-07
1.081805345e-07
1.087233991e-07
1.23846058e-07
5.461209341e-07
1.312380488e-05
1.081694585e-07
1.081688512e-07
1.081679486e-07
1.081669609e-07
1.081659243e-07
1.081648764e-07
1.081638521e-07
1.081628877e-07
1.081620128e-07
1.081612525e-07
1.081606333e-07
1.081601703e-07
1.081598744e-07
1.081597452e-07
1.08159778e-07
1.081599635e-07
1.08160283e-07
1.08160713e-07
1.081612421e-07
1.081618353e-07
1.081625018e-07
1.081637314e-07
1.081816169e-07
1.087249093e-07
1.238475519e-07
5.46123097e-07
1.312380192e-05
1.081686271e-07
1.081680588e-07
1.081671993e-07
1.081662529e-07
1.081652638e-07
1.081642634e-07
1.081632871e-07
1.081623707e-07
1.081615413e-07
1.081608276e-07
1.081602529e-07
1.081598305e-07
1.081595688e-07
1.081594724e-07
1.081595361e-07
1.081597448e-07
1.081600847e-07
1.081605302e-07
1.081610744e-07
1.081616705e-07
1.081623397e-07
1.081637405e-07
1.081842037e-07
1.087275518e-07
1.238500955e-07
5.461262842e-07
1.312379796e-05
1.081675913e-07
1.081670679e-07
1.081662618e-07
1.081653722e-07
1.081644437e-07
1.081635025e-07
1.081625875e-07
1.081617296e-07
1.081609603e-07
1.081603084e-07
1.081597904e-07
1.08159419e-07
1.081592073e-07
1.081591554e-07
1.08159257e-07
1.081595008e-07
1.08159868e-07
1.08160335e-07
1.081608961e-07
1.081615048e-07
1.081622426e-07
1.081653671e-07