/*--------------------------------*- C++ -*----------------------------------*\
  =========                 |
  \\      /  F ield         | OpenFOAM: The Open Source CFD Toolbox
   \\    /   O peration     | Website:  https://openfoam.org
    \\  /    A nd           | Version:  8
     \\/     M anipulation  |
\*---------------------------------------------------------------------------*/
FoamFile
{
    version     2.0;
    format      ascii;
    class       volScalarField;
    location    "0.1";
    object      k;
}
// * * * * * * * * * * * * * * * * * * * * * * * * * * * * * * * * * * * * * //

dimensions      [0 2 -2 0 0 0 0];

internalField   nonuniform List<scalar> 
67451
(
8.950965707e-06
8.950942397e-06
8.950920965e-06
8.95089856e-06
8.950875387e-06
8.950851676e-06
8.950827674e-06
8.950803637e-06
8.950779826e-06
8.950756535e-06
8.950736603e-06
8.951036267e-06
8.951019845e-06
8.951004424e-06
8.950987251e-06
8.950966258e-06
8.950945989e-06
8.950924532e-06
8.95090206e-06
8.950878805e-06
8.950855e-06
8.950830895e-06
8.950806745e-06
8.95078281e-06
8.950759356e-06
8.950736692e-06
8.950717098e-06
8.950696474e-06
8.950677166e-06
8.950659542e-06
8.950643765e-06
8.950630063e-06
8.950619358e-06
8.950616022e-06
8.950488009e-06
8.945436482e-06
8.760998619e-06
8.951059478e-06
8.951047461e-06
8.951033924e-06
8.95102049e-06
8.951005126e-06
8.950987985e-06
8.950969205e-06
8.950948999e-06
8.950927553e-06
8.950905079e-06
8.950881815e-06
8.950857989e-06
8.950833856e-06
8.95080967e-06
8.950785689e-06
8.950762176e-06
8.950739403e-06
8.950717661e-06
8.950696906e-06
8.950677592e-06
8.950659886e-06
8.950644015e-06
8.950630191e-06
8.950618819e-06
8.950614168e-06
8.950486136e-06
8.94543436e-06
8.760996024e-06
8.951058926e-06
8.951044843e-06
8.951033557e-06
8.951020282e-06
8.951005066e-06
8.950987994e-06
8.950969305e-06
8.950949173e-06
8.950927795e-06
8.950905381e-06
8.950882177e-06
8.950858402e-06
8.950834315e-06
8.950810169e-06
8.95078622e-06
8.950762731e-06
8.950739962e-06
8.950718236e-06
8.950697527e-06
8.950678262e-06
8.95066058e-06
8.950644663e-06
8.950630813e-06
8.950619299e-06
8.950614375e-06
8.950486335e-06
8.94543442e-06
8.760995916e-06
8.951044176e-06
8.951030197e-06
8.951017026e-06
8.951001931e-06
8.950985063e-06
8.950966493e-06
8.950946481e-06
8.950925236e-06
8.95090294e-06
8.950879865e-06
8.950856214e-06
8.950832246e-06
8.950808219e-06
8.950784382e-06
8.950760994e-06
8.950738315e-06
8.950716638e-06
8.950696116e-06
8.950676886e-06
8.950659252e-06
8.950643409e-06
8.950629607e-06
8.950618441e-06
8.950614434e-06
8.950486396e-06
8.945434442e-06
8.760995748e-06
8.951037545e-06
8.951023725e-06
8.951010734e-06
8.950995842e-06
8.950979124e-06
8.950960757e-06
8.950940918e-06
8.950919846e-06
8.950897721e-06
8.950874883e-06
8.950851454e-06
8.950827685e-06
8.950803842e-06
8.950780211e-06
8.95075699e-06
8.950734476e-06
8.950712962e-06
8.950692623e-06
8.950673523e-06
8.950656074e-06
8.950640328e-06
8.950626636e-06
8.950617401e-06
8.950614332e-06
8.950486304e-06
8.945434411e-06
8.760995506e-06
8.951027816e-06
8.951014269e-06
8.951001468e-06
8.950986811e-06
8.950970286e-06
8.950952171e-06
8.950932617e-06
8.950911793e-06
8.950889994e-06
8.950867355e-06
8.950844151e-06
8.950820684e-06
8.950797105e-06
8.950773705e-06
8.950750781e-06
8.950728537e-06
8.950707211e-06
8.950687145e-06
8.950668241e-06
8.950650996e-06
8.950635489e-06
8.950621973e-06
8.950616997e-06
8.950614083e-06
8.950486063e-06
8.945434329e-06
8.760995191e-06
8.951015085e-06
8.951001785e-06
8.950989281e-06
8.950974779e-06
8.950958549e-06
8.950940851e-06
8.950921582e-06
8.950901075e-06
8.950879574e-06
8.950857264e-06
8.950834428e-06
8.950811252e-06
8.950788035e-06
8.950765032e-06
8.950742456e-06
8.950720514e-06
8.950699473e-06
8.950679739e-06
8.950661103e-06
8.950644089e-06
8.950628879e-06
8.950617864e-06
8.950616553e-06
8.950613671e-06
8.950485676e-06
8.945434197e-06
8.760994792e-06
8.950999707e-06
8.95098656e-06
8.950974309e-06
8.950960179e-06
8.950944344e-06
8.950926856e-06
8.950907954e-06
8.950887809e-06
8.950866681e-06
8.950844839e-06
8.950822409e-06
8.950799713e-06
8.950776895e-06
8.950754244e-06
8.950732091e-06
8.950710566e-06
8.950689993e-06
8.950670532e-06
8.95065224e-06
8.950635584e-06
8.950620717e-06
8.950617018e-06
8.950615991e-06
8.950613125e-06
8.950485159e-06
8.945434017e-06
8.760994372e-06
8.950981487e-06
8.95096869e-06
8.950956761e-06
8.950942957e-06
8.950927441e-06
8.950910379e-06
8.950891919e-06
8.950872246e-06
8.950851625e-06
8.950830172e-06
8.950808218e-06
8.950785924e-06
8.950763631e-06
8.950741461e-06
8.95071975e-06
8.950698723e-06
8.950678578e-06
8.950659613e-06
8.950641729e-06
8.950625477e-06
8.95061755e-06
8.950616282e-06
8.950615294e-06
8.950612446e-06
8.950484514e-06
8.945433796e-06
8.760993849e-06
8.950960863e-06
8.950948379e-06
8.950936851e-06
8.950923424e-06
8.950908351e-06
8.950891672e-06
8.950873645e-06
8.950854465e-06
8.95083434e-06
8.950813454e-06
8.950792057e-06
8.950770362e-06
8.950748647e-06
8.950727096e-06
8.95070587e-06
8.950685338e-06
8.950665724e-06
8.950647129e-06
8.95062971e-06
8.950618152e-06
8.950616572e-06
8.950615428e-06
8.950614466e-06
8.950611647e-06
8.95048376e-06
8.945433536e-06
8.760993277e-06
8.95093807e-06
8.950925925e-06
8.95091464e-06
8.950901669e-06
8.950887025e-06
8.950870896e-06
8.950853383e-06
8.950834749e-06
8.950815239e-06
8.950794903e-06
8.950774155e-06
8.95075308e-06
8.950731906e-06
8.950710944e-06
8.950690366e-06
8.950670415e-06
8.950651388e-06
8.950633301e-06
8.950618821e-06
8.950616848e-06
8.950615568e-06
8.950614481e-06
8.95061356e-06
8.950610741e-06
8.950482906e-06
8.94543324e-06
8.760992665e-06
8.950913354e-06
8.950901545e-06
8.950890701e-06
8.95087816e-06
8.950864003e-06
8.950848382e-06
8.950831433e-06
8.950813405e-06
8.950794421e-06
8.950774826e-06
8.95075466e-06
8.950734234e-06
8.950713767e-06
8.950693453e-06
8.950673552e-06
8.950654206e-06
8.950635841e-06
8.950619727e-06
8.950617077e-06
8.950615691e-06
8.950614465e-06
8.950613434e-06
8.950612543e-06
8.950609756e-06
8.950481969e-06
8.945432916e-06
8.760992006e-06
8.950887028e-06
8.950875584e-06
8.95086515e-06
8.950853149e-06
8.950839483e-06
8.950824381e-06
8.950808033e-06
8.95079063e-06
8.950772339e-06
8.950753393e-06
8.950733954e-06
8.950714242e-06
8.950694485e-06
8.950674897e-06
8.950655663e-06
8.950637107e-06
8.950620388e-06
8.950617269e-06
8.95061577e-06
8.950614457e-06
8.95061331e-06
8.950612312e-06
8.950611446e-06
8.950608703e-06
8.950480966e-06
8.94543257e-06
8.760991312e-06
8.950859512e-06
8.950848467e-06
8.950838505e-06
8.950826828e-06
8.950813697e-06
8.950799191e-06
8.950783496e-06
8.950766752e-06
8.950749116e-06
8.95073095e-06
8.950712252e-06
8.950693277e-06
8.950674261e-06
8.950655414e-06
8.95063694e-06
8.950620554e-06
8.950617421e-06
8.95061582e-06
8.950614435e-06
8.950613184e-06
8.950612093e-06
8.950611142e-06
8.950610318e-06
8.950607585e-06
8.950479903e-06
8.945432204e-06
8.760990594e-06
8.950831078e-06
8.95082042e-06
8.950810892e-06
8.950799725e-06
8.950787086e-06
8.950773275e-06
8.950758223e-06
8.950742186e-06
8.950725367e-06
8.950707787e-06
8.950689812e-06
8.950671619e-06
8.950653373e-06
8.950635362e-06
8.950620358e-06
8.950617477e-06
8.950615828e-06
8.950614371e-06
8.950613058e-06
8.95061188e-06
8.950610842e-06
8.950609928e-06
8.950609139e-06
8.950606436e-06
8.950478811e-06
8.945431828e-06
8.760989857e-06
8.950802217e-06
8.950791914e-06
8.950782799e-06
8.950772195e-06
8.950760219e-06
8.950746851e-06
8.950732458e-06
8.950717109e-06
8.950700974e-06
8.950684245e-06
8.95066704e-06
8.950649626e-06
8.950632208e-06
8.950620017e-06
8.950617432e-06
8.950615789e-06
8.950614271e-06
8.95061292e-06
8.950611675e-06
8.950610563e-06
8.950609563e-06
8.950608699e-06
8.95060794e-06
8.950605266e-06
8.9504777e-06
8.945431445e-06
8.760989111e-06
8.950773176e-06
8.950763255e-06
8.950754584e-06
8.950744492e-06
8.950733046e-06
8.950720365e-06
8.950706622e-06
8.950691972e-06
8.950676566e-06
8.950660533e-06
8.950644145e-06
8.950627652e-06
8.950619532e-06
8.950617294e-06
8.950615681e-06
8.950614146e-06
8.950612757e-06
8.950611461e-06
8.950610303e-06
8.950609237e-06
8.950608289e-06
8.950607461e-06
8.950606738e-06
8.950604092e-06
8.950476586e-06
8.945431062e-06
8.760988365e-06
8.950744374e-06
8.950734837e-06
8.950726585e-06
8.950717072e-06
8.950706157e-06
8.950694099e-06
8.950681e-06
8.950667047e-06
8.950652368e-06
8.950637145e-06
8.950623132e-06
8.950619031e-06
8.950617077e-06
8.950615507e-06
8.950613988e-06
8.950612563e-06
8.950611273e-06
8.950610063e-06
8.950608957e-06
8.950607936e-06
8.950607042e-06
8.950606253e-06
8.950605549e-06
8.95060293e-06
8.950475478e-06
8.945430681e-06
8.760987629e-06
8.950716304e-06
8.950707154e-06
8.950699397e-06
8.950690187e-06
8.950679843e-06
8.950668359e-06
8.950655892e-06
8.950642682e-06
8.95062892e-06
8.950621364e-06
8.950618494e-06
8.950616777e-06
8.950615273e-06
8.950613793e-06
8.950612365e-06
8.950611064e-06
8.950609823e-06
8.95060869e-06
8.950607628e-06
8.950606674e-06
8.950605813e-06
8.95060506e-06
8.950604393e-06
8.9506018e-06
8.950474405e-06
8.945430312e-06
8.76098691e-06
8.950689152e-06
8.950680327e-06
8.950673016e-06
8.950664341e-06
8.950654512e-06
8.95064364e-06
8.95063195e-06
8.950623494e-06
8.950620046e-06
8.950617976e-06
8.950616423e-06
8.950614979e-06
8.950613557e-06
8.950612153e-06
8.950610851e-06
8.950609617e-06
8.950608471e-06
8.950607375e-06
8.95060637e-06
8.950605452e-06
8.950604631e-06
8.950603913e-06
8.950603277e-06
8.95060071e-06
8.950473373e-06
8.945429958e-06
8.760986217e-06
8.950663406e-06
8.950654985e-06
8.950647911e-06
8.950639723e-06
8.950630696e-06
8.950624606e-06
8.950621342e-06
8.950619076e-06
8.95061747e-06
8.950616033e-06
8.950614651e-06
8.950613292e-06
8.950611946e-06
8.950610653e-06
8.950609436e-06
8.950608273e-06
8.950607173e-06
8.95060613e-06
8.950605177e-06
8.950604299e-06
8.950603517e-06
8.950602835e-06
8.950602231e-06
8.950599685e-06
8.950472384e-06
8.94542962e-06
8.760985557e-06
8.950639386e-06
8.950631706e-06
8.950627319e-06
8.950624334e-06
8.950621884e-06
8.950619836e-06
8.950618272e-06
8.950616921e-06
8.950615606e-06
8.950614313e-06
8.950613034e-06
8.950611747e-06
8.950610463e-06
8.950609267e-06
8.950608116e-06
8.950607021e-06
8.950605959e-06
8.950604973e-06
8.950604058e-06
8.950603222e-06
8.950602476e-06
8.950601825e-06
8.950601246e-06
8.950598721e-06
8.950471472e-06
8.945429307e-06
8.76098494e-06
8.950627586e-06
8.950623247e-06
8.950621601e-06
8.950620127e-06
8.950618778e-06
8.950617576e-06
8.950616389e-06
8.950615185e-06
8.950613974e-06
8.950612777e-06
8.950611554e-06
8.950610323e-06
8.950609151e-06
8.950608016e-06
8.950606923e-06
8.950605859e-06
8.950604851e-06
8.950603914e-06
8.950603032e-06
8.950602234e-06
8.950601522e-06
8.950600899e-06
8.950600342e-06
8.950597837e-06
8.950470632e-06
8.945429019e-06
8.760984373e-06
8.950623591e-06
8.950619884e-06
8.950618888e-06
8.950617924e-06
8.950616916e-06
8.950615871e-06
8.950614783e-06
8.950613668e-06
8.950612553e-06
8.950611402e-06
8.95061023e-06
8.950609077e-06
8.95060798e-06
8.950606893e-06
8.950605846e-06
8.95060483e-06
8.950603861e-06
8.950602956e-06
8.950602111e-06
8.950601347e-06
8.950600664e-06
8.950600066e-06
8.95059953e-06
8.950597042e-06
8.950469875e-06
8.94542876e-06
8.760983862e-06
8.950621422e-06
8.950617956e-06
8.950617178e-06
8.950616331e-06
8.950615407e-06
8.950614445e-06
8.950613426e-06
8.950612384e-06
8.950611307e-06
8.950610206e-06
8.950609089e-06
8.950608012e-06
8.950606951e-06
8.950605912e-06
8.950604903e-06
8.950603919e-06
8.950602994e-06
8.950602109e-06
8.950601299e-06
8.950600568e-06
8.950599911e-06
8.950599335e-06
8.950598817e-06
8.950596345e-06
8.950469212e-06
8.945428533e-06
8.760983414e-06
8.950619928e-06
8.950616522e-06
8.95061581e-06
8.950615019e-06
8.950614165e-06
8.950613241e-06
8.950612273e-06
8.950611271e-06
8.950610247e-06
8.950609179e-06
8.950608123e-06
8.950607094e-06
8.950606063e-06
8.950605064e-06
8.95060408e-06
8.950603136e-06
8.950602237e-06
8.950601389e-06
8.950600609e-06
8.950599892e-06
8.950599259e-06
8.9505987e-06
8.950598198e-06
8.950595739e-06
8.950468636e-06
8.945428339e-06
8.760983037e-06
8.950617675e-06
8.950614309e-06
8.950613629e-06
8.950612885e-06
8.950612077e-06
8.950611177e-06
8.950610246e-06
8.950609293e-06
8.950608285e-06
8.950607253e-06
8.950606253e-06
8.950605248e-06
8.950604252e-06
8.950603277e-06
8.950602319e-06
8.950601405e-06
8.950600527e-06
8.950599703e-06
8.950598944e-06
8.950598252e-06
8.950597628e-06
8.950597088e-06
8.950596599e-06
8.950594154e-06
8.95046714e-06
8.945427969e-06
8.760982727e-06
8.950537957e-06
8.950534637e-06
8.950533988e-06
8.950533293e-06
8.950532487e-06
8.950531659e-06
8.950530758e-06
8.950529844e-06
8.950528872e-06
8.950527892e-06
8.950526935e-06
8.95052597e-06
8.95052502e-06
8.950524087e-06
8.95052316e-06
8.950522286e-06
8.950521441e-06
8.950520652e-06
8.950519923e-06
8.950519258e-06
8.950518663e-06
8.950518142e-06
8.950517674e-06
8.950515326e-06
8.950391605e-06
8.945405873e-06
8.760979512e-06
8.947188416e-06
8.947185295e-06
8.947184892e-06
8.947184472e-06
8.947184022e-06
8.947183551e-06
8.947183073e-06
8.947182573e-06
8.947182067e-06
8.947181576e-06
8.947181121e-06
8.94718068e-06
8.947180264e-06
8.947179864e-06
8.94717947e-06
8.947179096e-06
8.947178733e-06
8.947178395e-06
8.947178083e-06
8.947177798e-06
8.947177544e-06
8.947177321e-06
8.947177128e-06
8.947176395e-06
8.947125993e-06
8.943821296e-06
8.760488338e-06
8.867627815e-06
8.867624697e-06
8.8676245e-06
8.86762431e-06
8.867624096e-06
8.867623866e-06
8.867623619e-06
8.867623361e-06
8.86762309e-06
8.867622804e-06
8.86762252e-06
8.867622229e-06
8.867621937e-06
8.867621646e-06
8.867621368e-06
8.867621093e-06
8.867620832e-06
8.867620587e-06
8.867620357e-06
8.867620147e-06
8.867619958e-06
8.867619793e-06
8.867619654e-06
8.867619482e-06
8.867607845e-06
8.86596354e-06
8.703715082e-06
9.960273383e-06
9.960240571e-06
9.960208812e-06
9.960178456e-06
9.960150165e-06
9.960124506e-06
9.960101927e-06
9.960082743e-06
9.960067125e-06
9.960055115e-06
9.960046948e-06
9.960406504e-06
9.960378853e-06
9.960348969e-06
9.960317241e-06
9.960284162e-06
9.960251183e-06
9.960218823e-06
9.960187822e-06
9.960158865e-06
9.960132534e-06
9.960109289e-06
9.960089459e-06
9.960073225e-06
9.960060624e-06
9.960051566e-06
9.960046086e-06
9.960043171e-06
9.960042701e-06
9.960044141e-06
9.960046553e-06
9.960049215e-06
9.960050596e-06
9.960024746e-06
9.959120126e-06
9.921864493e-06
8.608851294e-06
9.960456313e-06
9.960436153e-06
9.96041199e-06
9.96038473e-06
9.960354797e-06
9.960322953e-06
9.960290019e-06
9.960256828e-06
9.960224202e-06
9.960192901e-06
9.960163619e-06
9.96013695e-06
9.960113362e-06
9.960093188e-06
9.960076621e-06
9.960063703e-06
9.960054326e-06
9.960048268e-06
9.960045124e-06
9.960044462e-06
9.96004577e-06
9.960048372e-06
9.960051242e-06
9.960053372e-06
9.960028938e-06
9.959124206e-06
9.921867768e-06
8.608848045e-06
9.960454901e-06
9.960434778e-06
9.960411262e-06
9.960384312e-06
9.960354608e-06
9.960322948e-06
9.960290152e-06
9.960257074e-06
9.960224511e-06
9.960193247e-06
9.960163991e-06
9.960137323e-06
9.960113721e-06
9.960093511e-06
9.960076878e-06
9.960063905e-06
9.960054456e-06
9.960048314e-06
9.96004512e-06
9.960044417e-06
9.960045698e-06
9.960048398e-06
9.960051511e-06
9.960053806e-06
9.960029741e-06
9.959124997e-06
9.921868746e-06
8.608847274e-06
9.960426657e-06
9.960403288e-06
9.960376873e-06
9.960347691e-06
9.960316558e-06
9.960284269e-06
9.960251679e-06
9.960219575e-06
9.960188725e-06
9.960159853e-06
9.960133545e-06
9.960110246e-06
9.960090339e-06
9.960073994e-06
9.960061227e-06
9.960051991e-06
9.960046009e-06
9.960042938e-06
9.960042348e-06
9.960043701e-06
9.960046476e-06
9.960049801e-06
9.960051964e-06
9.960026906e-06
9.959122248e-06
9.92186688e-06
8.608846153e-06
9.960411127e-06
9.960388407e-06
9.960362662e-06
9.960334262e-06
9.960303897e-06
9.960272428e-06
9.960240638e-06
9.960209378e-06
9.960179352e-06
9.960151192e-06
9.960125558e-06
9.960102951e-06
9.960083635e-06
9.960067807e-06
9.96005553e-06
9.960046734e-06
9.960041125e-06
9.960038393e-06
9.960038076e-06
9.960039673e-06
9.960042621e-06
9.960046128e-06
9.960046444e-06
9.960020475e-06
9.959115934e-06
9.921862153e-06
8.608844682e-06
9.960389089e-06
9.960367273e-06
9.960342491e-06
9.9603151e-06
9.960285839e-06
9.960255451e-06
9.960224748e-06
9.960194547e-06
9.960165585e-06
9.960138522e-06
9.960113949e-06
9.960092247e-06
9.960073812e-06
9.960058824e-06
9.960047255e-06
9.960039049e-06
9.960034013e-06
9.960031731e-06
9.9600318e-06
9.960033762e-06
9.960037005e-06
9.960040471e-06
9.960036376e-06
9.960010459e-06
9.959106224e-06
9.921854724e-06
8.608842811e-06
9.960361249e-06
9.960340497e-06
9.960316912e-06
9.9602908e-06
9.96026289e-06
9.96023384e-06
9.960204548e-06
9.960175743e-06
9.960148155e-06
9.960122486e-06
9.960099216e-06
9.960078786e-06
9.960061512e-06
9.960047547e-06
9.960036978e-06
9.960029619e-06
9.960025272e-06
9.960023603e-06
9.960024203e-06
9.960026552e-06
9.960030008e-06
9.960031119e-06
9.96002303e-06
9.959997353e-06
9.959093396e-06
9.92184475e-06
8.60884075e-06
9.960328414e-06
9.960308866e-06
9.96028667e-06
9.960262007e-06
9.96023562e-06
9.960208284e-06
9.960180685e-06
9.960153593e-06
9.960127704e-06
9.960103589e-06
9.960081885e-06
9.960062973e-06
9.960047071e-06
9.960034427e-06
9.960024989e-06
9.960018686e-06
9.960015253e-06
9.960014354e-06
9.960015545e-06
9.960018447e-06
9.960021933e-06
9.960015186e-06
9.960007029e-06
9.95998177e-06
9.959078335e-06
9.921832603e-06
8.608838159e-06
9.960292175e-06
9.960273927e-06
9.96025317e-06
9.960230125e-06
9.960205458e-06
9.960179895e-06
9.96015417e-06
9.960128948e-06
9.960104936e-06
9.960082753e-06
9.960062794e-06
9.960045566e-06
9.960031293e-06
9.960020026e-06
9.960011886e-06
9.960006762e-06
9.960004314e-06
9.960004291e-06
9.960006268e-06
9.960009615e-06
9.960006109e-06
9.959996788e-06
9.959989125e-06
9.959964268e-06
9.959061233e-06
9.921818728e-06
8.608835426e-06
9.960253412e-06
9.960236546e-06
9.960217375e-06
9.960196032e-06
9.960173246e-06
9.960149717e-06
9.96012604e-06
9.96010292e-06
9.960080976e-06
9.960060794e-06
9.960042834e-06
9.9600274e-06
9.960014812e-06
9.960005178e-06
9.959998469e-06
9.959994536e-06
9.959993203e-06
9.959994139e-06
9.95999681e-06
9.95999589e-06
9.959985485e-06
9.959976698e-06
9.959969413e-06
9.959945133e-06
9.959042699e-06
9.921803336e-06
8.608832362e-06
9.960213568e-06
9.960198091e-06
9.960180526e-06
9.960161074e-06
9.960140286e-06
9.960118803e-06
9.960097282e-06
9.960076377e-06
9.960056661e-06
9.960038626e-06
9.960022705e-06
9.960009275e-06
9.959998503e-06
9.959990537e-06
9.959985308e-06
9.959982704e-06
9.959982499e-06
9.959984345e-06
9.959985073e-06
9.959973717e-06
9.959963719e-06
9.959955697e-06
9.959949217e-06
9.959925121e-06
9.959023201e-06
9.921786706e-06
8.60882913e-06
9.960174027e-06
9.960160004e-06
9.960144123e-06
9.960126532e-06
9.96010775e-06
9.960088407e-06
9.960069106e-06
9.960050416e-06
9.960032915e-06
9.960017072e-06
9.960003291e-06
9.959991844e-06
9.959982919e-06
9.959976635e-06
9.959972949e-06
9.959971707e-06
9.959972671e-06
9.959973934e-06
9.959962028e-06
9.959950872e-06
9.959941687e-06
9.959934351e-06
9.959928439e-06
9.959904928e-06
9.959003514e-06
9.921769424e-06
8.608825637e-06
9.960136047e-06
9.960123444e-06
9.960109256e-06
9.960093518e-06
9.960076761e-06
9.960059557e-06
9.960042483e-06
9.960026072e-06
9.960010803e-06
9.959997123e-06
9.959985419e-06
9.959975949e-06
9.959968881e-06
9.959964246e-06
9.959962052e-06
9.959962116e-06
9.959962907e-06
9.959950472e-06
9.959938165e-06
9.959928019e-06
9.959919845e-06
9.959913235e-06
9.959907838e-06
9.959885055e-06
9.958984095e-06
9.921751812e-06
8.608821987e-06
9.960100854e-06
9.960089632e-06
9.960076997e-06
9.960063082e-06
9.960048351e-06
9.960033226e-06
9.96001828e-06
9.96000406e-06
9.959990992e-06
9.959979448e-06
9.959969814e-06
9.959962271e-06
9.959956981e-06
9.959953967e-06
9.959953158e-06
9.959952831e-06
9.959939548e-06
9.959926197e-06
9.959915177e-06
9.959906095e-06
9.959898754e-06
9.959892927e-06
9.959888272e-06
9.95986584e-06
9.958965304e-06
9.921734121e-06
8.608818241e-06
9.960069441e-06
9.960059498e-06
9.960048406e-06
9.960036173e-06
9.960023266e-06
9.960010151e-06
9.959997306e-06
9.95998516e-06
9.959974165e-06
9.959964689e-06
9.95995695e-06
9.959951208e-06
9.959947576e-06
9.959946046e-06
9.959943699e-06
9.959929473e-06
9.959915302e-06
9.95990339e-06
9.959893574e-06
9.959885462e-06
9.959879009e-06
9.959873878e-06
9.959869883e-06
9.959847996e-06
9.958947833e-06
9.921716891e-06
8.608814395e-06
9.960042539e-06
9.960033799e-06
9.960024128e-06
9.960013497e-06
9.96000231e-06
9.959991071e-06
9.959980146e-06
9.959969943e-06
9.959960863e-06
9.959953223e-06
9.95994728e-06
9.959943211e-06
9.959941035e-06
9.959935362e-06
9.959920269e-06
9.959905571e-06
9.959892897e-06
9.959882497e-06
9.959873682e-06
9.959866585e-06
9.959860873e-06
9.959856586e-06
9.959853173e-06
9.959831778e-06
9.958931931e-06
9.921700302e-06
8.608810512e-06
9.960020723e-06
9.960013063e-06
9.960004677e-06
9.959995502e-06
9.959985929e-06
9.959976331e-06
9.95996713e-06
9.959958692e-06
9.959951338e-06
9.959945392e-06
9.959941058e-06
9.959938284e-06
9.959928264e-06
9.959912359e-06
9.959897329e-06
9.959884114e-06
9.959873022e-06
9.959863548e-06
9.959855902e-06
9.959849627e-06
9.959844784e-06
9.959841173e-06
9.959838383e-06
9.959817445e-06
9.958917854e-06
9.921684614e-06
8.608806649e-06
9.960004191e-06
9.959997469e-06
9.959990215e-06
9.959982337e-06
9.959974173e-06
9.959966091e-06
9.959958442e-06
9.959951546e-06
9.959945736e-06
9.959941216e-06
9.959936628e-06
9.959922303e-06
9.959905952e-06
9.959890718e-06
9.959877123e-06
9.959865351e-06
9.959855579e-06
9.959847268e-06
9.959840516e-06
9.95983504e-06
9.959831049e-06
9.959828138e-06
9.9598257e-06
9.95980512e-06
9.95890566e-06
9.921669943e-06
8.608802872e-06
9.959992954e-06
9.95998707e-06
9.959980761e-06
9.959974004e-06
9.959967071e-06
9.959960273e-06
9.959953927e-06
9.959948365e-06
9.95994365e-06
9.95993302e-06
9.959917561e-06
9.959901027e-06
9.959885868e-06
9.959872061e-06
9.959859818e-06
9.959849524e-06
9.959840622e-06
9.959833358e-06
9.959827374e-06
9.959822901e-06
9.959819553e-06
9.95981718e-06
9.959815234e-06
9.959794994e-06
9.95889562e-06
9.92165659e-06
8.608799159e-06
9.95998673e-06
9.959981517e-06
9.959976069e-06
9.959970238e-06
9.959964307e-06
9.959958561e-06
9.95995322e-06
9.959944476e-06
9.95993011e-06
9.959914075e-06
9.95989785e-06
9.959882853e-06
9.959868948e-06
9.95985641e-06
9.959845675e-06
9.959836343e-06
9.959828552e-06
9.959821988e-06
9.959816903e-06
9.959813075e-06
9.959810306e-06
9.959808387e-06
9.959806837e-06
9.959786897e-06
9.958887629e-06
9.921644586e-06
8.608795585e-06
9.959985014e-06
9.95998035e-06
9.95997556e-06
9.959970474e-06
9.95996507e-06
9.959955893e-06
9.959942897e-06
9.959928161e-06
9.959912427e-06
9.959896541e-06
9.959881757e-06
9.959867835e-06
9.959855164e-06
9.959844097e-06
9.959834308e-06
9.959825877e-06
9.959818851e-06
9.959813111e-06
9.959808781e-06
9.959805535e-06
9.959803265e-06
9.95980178e-06
9.959800604e-06
9.95978093e-06
9.95888143e-06
9.921633843e-06
8.60879223e-06
9.959987026e-06
9.959982313e-06
9.959975787e-06
9.959966184e-06
9.959954735e-06
9.959941722e-06
9.95992721e-06
9.959912205e-06
9.959896953e-06
9.959882599e-06
9.959868879e-06
9.959856125e-06
9.959844553e-06
9.959834336e-06
9.959825434e-06
9.959817913e-06
9.959811488e-06
9.959806511e-06
9.959802746e-06
9.95980001e-06
9.959798182e-06
9.959797044e-06
9.959796118e-06
9.959776634e-06
9.958877096e-06
9.921624581e-06
8.608789057e-06
9.95998115e-06
9.959973455e-06
9.95996438e-06
9.959953564e-06
9.959941281e-06
9.959927725e-06
9.959913668e-06
9.959899138e-06
9.959885193e-06
9.959871803e-06
9.959858967e-06
9.959847234e-06
9.959836629e-06
9.959827219e-06
9.959818998e-06
9.959811926e-06
9.959806255e-06
9.959801901e-06
9.95979858e-06
9.959796275e-06
9.959794793e-06
9.959793925e-06
9.959793199e-06
9.959773861e-06
9.958874195e-06
9.921616605e-06
8.608786158e-06
9.959970555e-06
9.959962238e-06
9.959952746e-06
9.959941514e-06
9.959929356e-06
9.95991635e-06
9.959902856e-06
9.959889493e-06
9.959876497e-06
9.95986367e-06
9.959851762e-06
9.959840755e-06
9.959830922e-06
9.959822074e-06
9.959814459e-06
9.959808029e-06
9.959802837e-06
9.959798892e-06
9.959795968e-06
9.959794011e-06
9.959792796e-06
9.95979214e-06
9.959791579e-06
9.959772359e-06
9.958872532e-06
9.921609894e-06
8.608783554e-06
9.959960893e-06
9.959952346e-06
9.95994301e-06
9.959932327e-06
9.959920336e-06
9.95990795e-06
9.959895288e-06
9.959882635e-06
9.959869994e-06
9.959858067e-06
9.959846769e-06
9.959836371e-06
9.959826965e-06
9.959818674e-06
9.959811499e-06
9.959805499e-06
9.959800801e-06
9.959797122e-06
9.959794516e-06
9.959792844e-06
9.959791857e-06
9.959791373e-06
9.959790931e-06
9.959771798e-06
9.958871802e-06
9.921604366e-06
8.608781282e-06
9.959953155e-06
9.959944869e-06
9.959935892e-06
9.959925189e-06
9.959913883e-06
9.959902015e-06
9.95988979e-06
9.959877502e-06
9.959865588e-06
9.959854059e-06
9.959843279e-06
9.959833363e-06
9.959824296e-06
9.959816407e-06
9.959809577e-06
9.959804001e-06
9.959799595e-06
9.959796255e-06
9.959793932e-06
9.959792356e-06
9.959791526e-06
9.959791151e-06
9.959790815e-06
9.959771758e-06
9.958871599e-06
9.921599886e-06
8.608779378e-06
9.959937388e-06
9.959929267e-06
9.959920142e-06
9.959910034e-06
9.959899259e-06
9.959887515e-06
9.959875655e-06
9.95986384e-06
9.959852267e-06
9.959841094e-06
9.959830707e-06
9.959821057e-06
9.959812398e-06
9.959804737e-06
9.959798207e-06
9.959792916e-06
9.959788722e-06
9.959785584e-06
9.959783421e-06
9.959782052e-06
9.959781259e-06
9.959780992e-06
9.959780714e-06
9.959761757e-06
9.958862111e-06
9.921592121e-06
8.608777565e-06
9.959354506e-06
9.959346581e-06
9.959337794e-06
9.959328196e-06
9.95931721e-06
9.959306131e-06
9.959294378e-06
9.959282917e-06
9.959271545e-06
9.959260633e-06
9.959250456e-06
9.959240945e-06
9.959232439e-06
9.959224942e-06
9.95921846e-06
9.959213257e-06
9.959209083e-06
9.959205963e-06
9.959203768e-06
9.959202356e-06
9.959201564e-06
9.959201208e-06
9.959200887e-06
9.959182693e-06
9.958301607e-06
9.921227646e-06
8.608745003e-06
9.931857353e-06
9.931850266e-06
9.931842644e-06
9.931833807e-06
9.931824076e-06
9.931813559e-06
9.931802609e-06
9.93179143e-06
9.931779961e-06
9.931768523e-06
9.931757383e-06
9.931746487e-06
9.931736124e-06
9.931726342e-06
9.931717278e-06
9.931709106e-06
9.931701708e-06
9.931695236e-06
9.931689622e-06
9.931684824e-06
9.931680792e-06
9.931677469e-06
9.931674685e-06
9.931663181e-06
9.931035026e-06
9.897906406e-06
8.60701754e-06
8.814429446e-06
8.814424075e-06
8.814421466e-06
8.814418553e-06
8.814415404e-06
8.814411999e-06
8.814408382e-06
8.814404661e-06
8.814400721e-06
8.81439666e-06
8.814392631e-06
8.814388537e-06
8.814384405e-06
8.814380456e-06
8.814376512e-06
8.814372637e-06
8.814369068e-06
8.814365655e-06
8.814362477e-06
8.814359572e-06
8.81435697e-06
8.814354697e-06
8.814352768e-06
8.814350483e-06
8.81428722e-06
8.810251146e-06
8.590950101e-06
9.990522936e-06
9.990420014e-06
9.990317106e-06
9.990216284e-06
9.990119917e-06
9.99003013e-06
9.989948748e-06
9.989877202e-06
9.989816498e-06
9.989767188e-06
9.989729338e-06
9.989702616e-06
9.989686664e-06
9.989679489e-06
9.989680131e-06
9.990841694e-06
9.9907553e-06
9.990660531e-06
9.990559785e-06
9.990455739e-06
9.990351053e-06
9.990248257e-06
9.990149811e-06
9.990057875e-06
9.989974322e-06
9.989900627e-06
9.989837835e-06
9.989786533e-06
9.989746832e-06
9.989718381e-06
9.989700445e-06
9.989691853e-06
9.989691194e-06
9.989696913e-06
9.989707092e-06
9.989719975e-06
9.989731808e-06
9.989666409e-06
9.98782129e-06
9.942246856e-06
8.609984819e-06
9.990998749e-06
9.990936285e-06
9.990860857e-06
9.99077449e-06
9.99067951e-06
9.990578403e-06
9.990473803e-06
9.990368392e-06
9.990264715e-06
9.99016531e-06
9.990072315e-06
9.989987671e-06
9.989912871e-06
9.989848966e-06
9.989796586e-06
9.989755858e-06
9.989726445e-06
9.989707601e-06
9.989698195e-06
9.98969683e-06
9.989701839e-06
9.989711467e-06
9.989723918e-06
9.989735475e-06
9.989669848e-06
9.987824152e-06
9.942247199e-06
8.609981749e-06
9.990993848e-06
9.990932456e-06
9.990858093e-06
9.990772683e-06
9.990678476e-06
9.990577944e-06
9.990473792e-06
9.990368692e-06
9.99026527e-06
9.99016596e-06
9.990073029e-06
9.989988382e-06
9.989913499e-06
9.989849498e-06
9.989796955e-06
9.989756018e-06
9.989726419e-06
9.989707338e-06
9.989697713e-06
9.98969611e-06
9.989700899e-06
9.98971035e-06
9.989722632e-06
9.989734032e-06
9.98966832e-06
9.987822722e-06
9.942246822e-06
8.609980942e-06
9.990905142e-06
9.9908324e-06
9.990748682e-06
9.99065615e-06
9.990557206e-06
9.99045466e-06
9.990351133e-06
9.990249162e-06
9.990151263e-06
9.99005959e-06
9.989976052e-06
9.989902224e-06
9.989839115e-06
9.989787439e-06
9.989747272e-06
9.989718298e-06
9.989699781e-06
9.989690561e-06
9.989689289e-06
9.989694338e-06
9.989703882e-06
9.989716214e-06
9.989727668e-06
9.989662011e-06
9.987817073e-06
9.94224533e-06
8.609979568e-06
9.990855432e-06
9.990784732e-06
9.990703206e-06
9.990613166e-06
9.990516796e-06
9.990416806e-06
9.990315794e-06
9.990216477e-06
9.990121099e-06
9.990031767e-06
9.989950529e-06
9.989878843e-06
9.989817837e-06
9.989767878e-06
9.989729191e-06
9.98970161e-06
9.989684313e-06
9.989676158e-06
9.989675737e-06
9.989681503e-06
9.989691688e-06
9.989704513e-06
9.989716111e-06
9.989650738e-06
9.987807203e-06
9.942242708e-06
8.609977627e-06
9.990785164e-06
9.990717363e-06
9.99063893e-06
9.990551928e-06
9.990459067e-06
9.990362612e-06
9.990265179e-06
9.990169405e-06
9.990077438e-06
9.98999155e-06
9.989913665e-06
9.989845057e-06
9.989786705e-06
9.989739437e-06
9.989703227e-06
9.989677588e-06
9.989662084e-06
9.989655452e-06
9.989656349e-06
9.989663234e-06
9.989674236e-06
9.989687639e-06
9.989699445e-06
9.989634557e-06
9.987793022e-06
9.942238956e-06
8.609975031e-06
9.990696472e-06
9.990632044e-06
9.99055747e-06
9.990474624e-06
9.990386138e-06
9.990294002e-06
9.990201037e-06
9.990109657e-06
9.99002219e-06
9.989940885e-06
9.989867237e-06
9.989802527e-06
9.989748056e-06
9.989704224e-06
9.989671032e-06
9.989648271e-06
9.989635091e-06
9.98963043e-06
9.98963296e-06
9.989641169e-06
9.989653229e-06
9.989667261e-06