/*--------------------------------*- C++ -*----------------------------------*\
  =========                 |
  \\      /  F ield         | OpenFOAM: The Open Source CFD Toolbox
   \\    /   O peration     | Website:  https://openfoam.org
    \\  /    A nd           | Version:  8
     \\/     M anipulation  |
\*---------------------------------------------------------------------------*/
FoamFile
{
    version     2.0;
    format      ascii;
    class       volScalarField;
    location    "0.1";
    object      nut;
}
// * * * * * * * * * * * * * * * * * * * * * * * * * * * * * * * * * * * * * //

dimensions      [0 2 -1 0 0 0 0];

internalField   nonuniform List<scalar> 
67451
(
7.156847935e-07
7.156829049e-07
7.15681171e-07
7.156793603e-07
7.156774892e-07
7.156755764e-07
7.156736419e-07
7.156717058e-07
7.156697886e-07
7.156679139e-07
7.156663114e-07
7.156905202e-07
7.156891853e-07
7.156879323e-07
7.156865379e-07
7.156848357e-07
7.156831942e-07
7.156814582e-07
7.156796422e-07
7.156777645e-07
7.156758442e-07
7.156739014e-07
7.156719563e-07
7.156700291e-07
7.156681412e-07
7.156663175e-07
7.156647427e-07
7.156630837e-07
7.156615305e-07
7.156601135e-07
7.156588449e-07
7.156577429e-07
7.156568815e-07
7.156566125e-07
7.156463424e-07
7.152414859e-07
5.95115779e-07
7.156924023e-07
7.156914258e-07
7.156903257e-07
7.156892339e-07
7.156879858e-07
7.156865947e-07
7.156850724e-07
7.15683436e-07
7.156817012e-07
7.156798853e-07
7.156780072e-07
7.156760856e-07
7.156741409e-07
7.156721929e-07
7.156702621e-07
7.156683698e-07
7.156665373e-07
7.156647885e-07
7.15663119e-07
7.156615654e-07
7.156601417e-07
7.156588655e-07
7.156577539e-07
7.156568392e-07
7.156564644e-07
7.156461927e-07
7.152413161e-07
5.951156016e-07
7.156923507e-07
7.156912074e-07
7.156902908e-07
7.156892124e-07
7.156879769e-07
7.156865923e-07
7.156850784e-07
7.156834486e-07
7.156817197e-07
7.156799093e-07
7.156780367e-07
7.156761195e-07
7.156741788e-07
7.156722341e-07
7.156703062e-07
7.156684162e-07
7.156665841e-07
7.156648365e-07
7.156631707e-07
7.15661621e-07
7.156601994e-07
7.156589195e-07
7.156578059e-07
7.156568798e-07
7.156564832e-07
7.156462109e-07
7.152413231e-07
5.951155956e-07
7.156911465e-07
7.156900124e-07
7.156889434e-07
7.156877189e-07
7.156863518e-07
7.156848484e-07
7.156832297e-07
7.156815125e-07
7.156797123e-07
7.156778508e-07
7.156759442e-07
7.156740132e-07
7.156720784e-07
7.156701598e-07
7.156682776e-07
7.156664531e-07
7.156647098e-07
7.156630591e-07
7.156615123e-07
7.156600944e-07
7.156588206e-07
7.156577108e-07
7.156568125e-07
7.1565649e-07
7.156462179e-07
7.152413271e-07
5.951155856e-07
7.156906019e-07
7.156894813e-07
7.156884282e-07
7.156872217e-07
7.156858683e-07
7.156843823e-07
7.156827785e-07
7.156810765e-07
7.156792912e-07
7.156774494e-07
7.156755614e-07
7.15673647e-07
7.156717274e-07
7.156698254e-07
7.156679567e-07
7.156661458e-07
7.156644157e-07
7.156627797e-07
7.156612436e-07
7.156598406e-07
7.156585746e-07
7.156574737e-07
7.156567303e-07
7.156564839e-07
7.156462125e-07
7.152413267e-07
5.951155705e-07
7.156898071e-07
7.156887095e-07
7.156876733e-07
7.156864874e-07
7.15685151e-07
7.156836866e-07
7.15682107e-07
7.156804261e-07
7.156786679e-07
7.156768432e-07
7.15674974e-07
7.156730846e-07
7.156711866e-07
7.156693035e-07
7.156674591e-07
7.156656699e-07
7.156639547e-07
7.156623406e-07
7.156608207e-07
7.156594342e-07
7.156581873e-07
7.156571005e-07
7.156567e-07
7.156564658e-07
7.156461952e-07
7.152413221e-07
5.951155503e-07
7.156887708e-07
7.156876947e-07
7.156866838e-07
7.156855115e-07
7.156842001e-07
7.156827709e-07
7.156812157e-07
7.156795615e-07
7.156778284e-07
7.156760309e-07
7.15674192e-07
7.156723264e-07
7.156704578e-07
7.15668607e-07
7.15666791e-07
7.156650265e-07
7.156633341e-07
7.156617468e-07
7.156602485e-07
7.156588806e-07
7.156576577e-07
7.156567714e-07
7.156566662e-07
7.156564347e-07
7.15646166e-07
7.152413135e-07
5.951155244e-07
7.156875226e-07
7.156864602e-07
7.156854706e-07
7.156843292e-07
7.156830513e-07
7.156816404e-07
7.156801157e-07
7.156784921e-07
7.1567679e-07
7.156750308e-07
7.156732253e-07
7.156713986e-07
7.156695625e-07
7.156677405e-07
7.156659587e-07
7.156642278e-07
7.156625731e-07
7.156610081e-07
7.156595375e-07
7.156581984e-07
7.15657003e-07
7.156567054e-07
7.156566229e-07
7.156563927e-07
7.156461264e-07
7.15241301e-07
5.951154971e-07
7.156860466e-07
7.156850131e-07
7.156840508e-07
7.156829373e-07
7.156816861e-07
7.156803109e-07
7.156788232e-07
7.156772382e-07
7.156755776e-07
7.156738507e-07
7.156720842e-07
7.156702903e-07
7.156684968e-07
7.156667138e-07
7.156649679e-07
7.156632768e-07
7.156616566e-07
7.156601318e-07
7.15658694e-07
7.156573874e-07
7.156567498e-07
7.15656648e-07
7.156565687e-07
7.1565634e-07
7.156460764e-07
7.152412851e-07
5.951154626e-07
7.156843787e-07
7.156833714e-07
7.156824427e-07
7.156813606e-07
7.156801457e-07
7.156788023e-07
7.156773508e-07
7.156758065e-07
7.156741865e-07
7.156725059e-07
7.156707846e-07
7.156690392e-07
7.156672925e-07
7.156655597e-07
7.15663853e-07
7.156622017e-07
7.156606246e-07
7.156591296e-07
7.156577292e-07
7.156567998e-07
7.15656673e-07
7.156565812e-07
7.156565039e-07
7.156562775e-07
7.156460176e-07
7.15241266e-07
5.951154248e-07
7.156825383e-07
7.156815593e-07
7.156806508e-07
7.156796061e-07
7.156784268e-07
7.156771283e-07
7.156757192e-07
7.156742199e-07
7.1567265e-07
7.156710141e-07
7.15669345e-07
7.156676498e-07
7.156659474e-07
7.15664262e-07
7.156626071e-07
7.156610029e-07
7.156594733e-07
7.156580192e-07
7.156568549e-07
7.156566968e-07
7.15656594e-07
7.156565068e-07
7.156564328e-07
7.156562064e-07
7.156459506e-07
7.15241244e-07
5.951153842e-07
7.156805452e-07
7.156795935e-07
7.15678721e-07
7.156777118e-07
7.156765727e-07
7.156753159e-07
7.156739525e-07
7.156725025e-07
7.156709758e-07
7.156693995e-07
7.156677776e-07
7.156661353e-07
7.156644898e-07
7.156628563e-07
7.156612562e-07
7.15659701e-07
7.156582247e-07
7.156569288e-07
7.156567165e-07
7.156566053e-07
7.15656507e-07
7.156564242e-07
7.156563527e-07
7.156561289e-07
7.156458771e-07
7.152412197e-07
5.951153403e-07
7.156784239e-07
7.15677502e-07
7.156766631e-07
7.156756981e-07
7.156745988e-07
7.156733844e-07
7.156720698e-07
7.156706705e-07
7.156691999e-07
7.156676761e-07
7.156661134e-07
7.156645287e-07
7.1566294e-07
7.156613651e-07
7.15659819e-07
7.156583275e-07
7.15656983e-07
7.156567333e-07
7.15656613e-07
7.156565077e-07
7.156564157e-07
7.156563356e-07
7.156562661e-07
7.156560459e-07
7.15645798e-07
7.152411935e-07
5.951152941e-07
7.156762082e-07
7.156753187e-07
7.156745182e-07
7.1567358e-07
7.156725241e-07
7.15671358e-07
7.156700963e-07
7.156687501e-07
7.156673324e-07
7.156658722e-07
7.156643691e-07
7.156628433e-07
7.156613146e-07
7.156597998e-07
7.156583149e-07
7.156569975e-07
7.156567466e-07
7.156566183e-07
7.156565072e-07
7.156564069e-07
7.156563194e-07
7.156562431e-07
7.15656177e-07
7.156559576e-07
7.156457142e-07
7.152411657e-07
5.951152461e-07
7.156739197e-07
7.156730616e-07
7.156722963e-07
7.156713995e-07
7.156703837e-07
7.156692735e-07
7.156680638e-07
7.156667749e-07
7.15665423e-07
7.156640099e-07
7.156625651e-07
7.156611026e-07
7.156596362e-07
7.156581887e-07
7.156569828e-07
7.156567521e-07
7.156566199e-07
7.156565031e-07
7.156563979e-07
7.156563035e-07
7.156562203e-07
7.15656147e-07
7.156560837e-07
7.156558667e-07
7.156456279e-07
7.15241137e-07
5.951151968e-07
7.156715973e-07
7.156707683e-07
7.156700366e-07
7.156691851e-07
7.156682229e-07
7.156671488e-07
7.156659922e-07
7.156647586e-07
7.156634618e-07
7.156621172e-07
7.156607346e-07
7.156593353e-07
7.156579355e-07
7.156569562e-07
7.156567493e-07
7.156566177e-07
7.156564961e-07
7.156563879e-07
7.156562881e-07
7.15656199e-07
7.156561188e-07
7.156560496e-07
7.156559887e-07
7.156557741e-07
7.1564554e-07
7.152411078e-07
5.951151469e-07
7.156692618e-07
7.156684636e-07
7.156677676e-07
7.15666957e-07
7.156660375e-07
7.15665019e-07
7.156639147e-07
7.156627374e-07
7.156614997e-07
7.156602115e-07
7.156588946e-07
7.156575693e-07
7.156569179e-07
7.156567388e-07
7.156566097e-07
7.156564868e-07
7.156563756e-07
7.156562718e-07
7.156561791e-07
7.156560937e-07
7.156560177e-07
7.156559514e-07
7.156558935e-07
7.156556811e-07
7.156454518e-07
7.152410784e-07
5.95115097e-07
7.156669456e-07
7.156661783e-07
7.15665516e-07
7.15664752e-07
7.156638753e-07
7.156629068e-07
7.156618547e-07
7.156607339e-07
7.156595547e-07
7.156583317e-07
7.156572059e-07
7.156568781e-07
7.156567219e-07
7.156565963e-07
7.156564747e-07
7.156563607e-07
7.156562575e-07
7.156561606e-07
7.156560721e-07
7.156559904e-07
7.156559187e-07
7.156558555e-07
7.156557992e-07
7.156555889e-07
7.156453641e-07
7.152410491e-07
5.951150476e-07
7.156646881e-07
7.156639519e-07
7.156633296e-07
7.156625903e-07
7.156617599e-07
7.156608377e-07
7.156598365e-07
7.156587755e-07
7.156576699e-07
7.156570645e-07
7.156568352e-07
7.15656698e-07
7.156565778e-07
7.156564595e-07
7.156563453e-07
7.156562412e-07
7.156561419e-07
7.156560513e-07
7.156559663e-07
7.1565589e-07
7.156558211e-07
7.156557608e-07
7.156557075e-07
7.156554994e-07
7.156452791e-07
7.152410207e-07
5.951149994e-07
7.156625052e-07
7.156617952e-07
7.156612086e-07
7.156605125e-07
7.156597235e-07
7.156588506e-07
7.156579119e-07
7.156572341e-07
7.156569588e-07
7.156567935e-07
7.156566695e-07
7.156565543e-07
7.156564407e-07
7.156563285e-07
7.156562245e-07
7.156561258e-07
7.156560343e-07
7.156559466e-07
7.156558662e-07
7.156557928e-07
7.156557271e-07
7.156556698e-07
7.156556189e-07
7.156554128e-07
7.156451973e-07
7.152409934e-07
5.951149528e-07
7.156604352e-07
7.156597577e-07
7.156591903e-07
7.156585334e-07
7.156578087e-07
7.156573218e-07
7.156570614e-07
7.156568807e-07
7.156567527e-07
7.156566381e-07
7.156565279e-07
7.156564194e-07
7.15656312e-07
7.156562087e-07
7.156561115e-07
7.156560187e-07
7.156559308e-07
7.156558475e-07
7.156557713e-07
7.156557011e-07
7.156556386e-07
7.156555841e-07
7.156555358e-07
7.156553315e-07
7.156451188e-07
7.152409672e-07
5.951149084e-07
7.15658504e-07
7.156578859e-07
7.156575362e-07
7.156572984e-07
7.156571032e-07
7.156569402e-07
7.156568156e-07
7.156567081e-07
7.156566034e-07
7.156565004e-07
7.156563985e-07
7.156562958e-07
7.156561934e-07
7.15656098e-07
7.156560062e-07
7.156559188e-07
7.15655834e-07
7.156557553e-07
7.156556822e-07
7.156556154e-07
7.156555559e-07
7.156555038e-07
7.156554575e-07
7.15655255e-07
7.156450465e-07
7.152409431e-07
5.951148669e-07
7.156575582e-07
7.156572093e-07
7.156570786e-07
7.156569616e-07
7.156568545e-07
7.156567591e-07
7.156566648e-07
7.156565691e-07
7.156564727e-07
7.156563774e-07
7.1565628e-07
7.15656182e-07
7.156560886e-07
7.156559981e-07
7.156559109e-07
7.15655826e-07
7.156557457e-07
7.156556708e-07
7.156556005e-07
7.156555368e-07
7.1565548e-07
7.156554302e-07
7.156553857e-07
7.156551848e-07
7.156449798e-07
7.152409208e-07
5.951148288e-07
7.156572384e-07
7.156569399e-07
7.156568612e-07
7.156567851e-07
7.156567052e-07
7.156566224e-07
7.156565361e-07
7.156564475e-07
7.156563589e-07
7.156562674e-07
7.156561741e-07
7.156560823e-07
7.156559949e-07
7.156559084e-07
7.156558249e-07
7.156557439e-07
7.156556667e-07
7.156555945e-07
7.156555271e-07
7.156554662e-07
7.156554117e-07
7.15655364e-07
7.156553212e-07
7.156551216e-07
7.156449198e-07
7.152409008e-07
5.951147943e-07
7.156570644e-07
7.156567854e-07
7.156567241e-07
7.156566573e-07
7.156565842e-07
7.156565081e-07
7.156564273e-07
7.156563446e-07
7.156562591e-07
7.156561716e-07
7.156560828e-07
7.156559971e-07
7.156559127e-07
7.1565583e-07
7.156557496e-07
7.156556712e-07
7.156555975e-07
7.15655527e-07
7.156554625e-07
7.156554042e-07
7.156553518e-07
7.156553058e-07
7.156552645e-07
7.156550662e-07
7.15644867e-07
7.152408832e-07
5.951147641e-07
7.156569445e-07
7.156566702e-07
7.156566143e-07
7.15656552e-07
7.156564846e-07
7.156564115e-07
7.156563349e-07
7.156562554e-07
7.156561742e-07
7.156560894e-07
7.156560054e-07
7.156559237e-07
7.156558417e-07
7.156557622e-07
7.156556839e-07
7.156556087e-07
7.156555372e-07
7.156554696e-07
7.156554075e-07
7.156553504e-07
7.156552999e-07
7.156552553e-07
7.156552153e-07
7.15655018e-07
7.156448213e-07
7.152408682e-07
5.951147386e-07
7.156567636e-07
7.156564926e-07
7.156564392e-07
7.156563807e-07
7.15656317e-07
7.156562459e-07
7.156561722e-07
7.156560967e-07
7.156560168e-07
7.156559349e-07
7.156558555e-07
7.156557756e-07
7.156556965e-07
7.15655619e-07
7.156555428e-07
7.1565547e-07
7.156554001e-07
7.156553346e-07
7.156552741e-07
7.15655219e-07
7.156551693e-07
7.156551262e-07
7.156550873e-07
7.156548911e-07
7.156447016e-07
7.152408388e-07
5.951147176e-07
7.15650368e-07
7.156501007e-07
7.156500499e-07
7.156499953e-07
7.156499318e-07
7.156498665e-07
7.156497952e-07
7.156497229e-07
7.156496459e-07
7.156495681e-07
7.156494922e-07
7.156494157e-07
7.156493402e-07
7.156492661e-07
7.156491924e-07
7.156491228e-07
7.156490557e-07
7.156489928e-07
7.156489348e-07
7.15648882e-07
7.156488346e-07
7.15648793e-07
7.156487558e-07
7.156485674e-07
7.156386424e-07
7.152390665e-07
5.951144985e-07
7.153819272e-07
7.153816759e-07
7.153816449e-07
7.153816124e-07
7.153815775e-07
7.153815409e-07
7.153815037e-07
7.153814647e-07
7.153814251e-07
7.153813867e-07
7.153813512e-07
7.153813167e-07
7.153812842e-07
7.153812529e-07
7.15381222e-07
7.153811927e-07
7.153811642e-07
7.153811377e-07
7.153811132e-07
7.153810909e-07
7.153810708e-07
7.153810534e-07
7.153810381e-07
7.153809795e-07
7.153769361e-07
7.151120663e-07
5.950810466e-07
6.633088024e-07
6.633085667e-07
6.633085529e-07
6.633085394e-07
6.633085242e-07
6.633085078e-07
6.6330849e-07
6.633084714e-07
6.633084517e-07
6.633084309e-07
6.633084102e-07
6.633083889e-07
6.633083676e-07
6.633083462e-07
6.633083258e-07
6.633083056e-07
6.633082864e-07
6.633082683e-07
6.633082513e-07
6.633082357e-07
6.633082217e-07
6.633082094e-07
6.63308199e-07
6.633081861e-07
6.633073122e-07
6.631839957e-07
5.629928335e-07
2.350807018e-05
2.350717948e-05
2.350638296e-05
2.350555912e-05
2.350471199e-05
2.35038505e-05
2.350298362e-05
2.350212065e-05
2.350127084e-05
2.350044824e-05
2.349978493e-05
2.351072814e-05
2.351008401e-05
2.350950113e-05
2.35088574e-05
2.350804203e-05
2.350728069e-05
2.350648619e-05
2.350565899e-05
2.350480786e-05
2.350394191e-05
2.350307034e-05
2.35022025e-05
2.35013476e-05
2.35005149e-05
2.349972113e-05
2.349906202e-05
2.349830362e-05
2.349755661e-05
2.349681373e-05
2.349582107e-05
2.349448567e-05
2.349225007e-05
2.347622272e-05
2.300046587e-05
1.200923498e-05
5.083119775e-07
2.351162034e-05
2.351113138e-05
2.351058706e-05
2.351007416e-05
2.350949789e-05
2.350885454e-05
2.350814889e-05
2.350739633e-05
2.350660204e-05
2.350577425e-05
2.350492224e-05
2.350405503e-05
2.350318193e-05
2.350231234e-05
2.350145545e-05
2.350062025e-05
2.349981576e-05
2.349905401e-05
2.349831091e-05
2.349759152e-05
2.349689103e-05
2.349613279e-05
2.349501653e-05
2.349330774e-05
2.347820371e-05
2.300235819e-05
1.200971734e-05
5.083117838e-07
2.351160167e-05
2.351100986e-05
2.351057003e-05
2.351006932e-05
2.350949708e-05
2.350885661e-05
2.35081577e-05
2.350740826e-05
2.350661653e-05
2.350579087e-05
2.350494107e-05
2.350407557e-05
2.350320402e-05
2.350233579e-05
2.350148003e-05
2.350064579e-05
2.349984162e-05
2.349907707e-05
2.349834718e-05
2.349764992e-05
2.34969745e-05
2.349632634e-05
2.349540558e-05
2.349382739e-05
2.347897571e-05
2.300310652e-05
1.200991922e-05
5.08311739e-07
2.351101318e-05
2.351045027e-05
2.35099509e-05
2.350938339e-05
2.350874867e-05
2.350805595e-05
2.350731156e-05
2.350652542e-05
2.350570481e-05
2.350486e-05
2.350399938e-05
2.350313248e-05
2.350226887e-05
2.350141745e-05
2.350058736e-05
2.349978693e-05
2.349902491e-05
2.349830351e-05
2.349761984e-05
2.349696777e-05
2.349633993e-05
2.349554654e-05
2.349389873e-05
2.347843528e-05
2.300260241e-05
1.200978e-05
5.083116734e-07
2.351076668e-05
2.351021165e-05
2.350971762e-05
2.350915583e-05
2.350852907e-05
2.350784327e-05
2.350710762e-05
2.350632856e-05
2.350551639e-05
2.350468007e-05
2.350382731e-05
2.350296905e-05
2.35021128e-05
2.350126784e-05
2.350044567e-05
2.349965133e-05
2.349889605e-05
2.349818634e-05
2.34975089e-05
2.349688118e-05
2.34962703e-05
2.349550434e-05
2.349265486e-05
2.347659688e-05
2.300085844e-05
1.200930224e-05
5.08311587e-07
2.351040048e-05
2.35098536e-05
2.350936854e-05
2.350881594e-05
2.350819999e-05
2.35075248e-05
2.35067997e-05
2.350603221e-05
2.350522934e-05
2.350440409e-05
2.35035629e-05
2.350271406e-05
2.350187036e-05
2.350103768e-05
2.350022403e-05
2.349944147e-05
2.349869452e-05
2.34979944e-05
2.34973245e-05
2.349671222e-05
2.349612125e-05
2.349522566e-05
2.348961783e-05
2.347351765e-05
2.299792158e-05
1.200850057e-05
5.083114767e-07
2.350992231e-05
2.350938778e-05
2.350891344e-05
2.350837164e-05
2.350776497e-05
2.350710304e-05
2.350639149e-05
2.350563647e-05
2.350484975e-05
2.35040362e-05
2.350320735e-05
2.350237512e-05
2.350154295e-05
2.35007238e-05
2.349992469e-05
2.349915525e-05
2.349842021e-05
2.349773242e-05
2.349707349e-05
2.349647229e-05
2.349584596e-05
2.34933478e-05
2.348514228e-05
2.346911687e-05
2.299377452e-05
1.200737996e-05
5.083113552e-07
2.350933837e-05
2.350881326e-05
2.350835063e-05
2.35078227e-05
2.350723141e-05
2.350658341e-05
2.350588685e-05
2.350514812e-05
2.350437663e-05
2.350358224e-05
2.350277262e-05
2.35019535e-05
2.350114069e-05
2.350033758e-05
2.349955379e-05
2.349879987e-05
2.349808055e-05
2.349740619e-05
2.349675945e-05
2.349616658e-05
2.349528962e-05
2.348784345e-05
2.347952503e-05
2.346364479e-05
2.298862085e-05
1.200595263e-05
5.083112023e-07
2.350865647e-05
2.35081436e-05
2.350769522e-05
2.350718132e-05
2.350660544e-05
2.350597505e-05
2.350529542e-05
2.350457582e-05
2.350382451e-05
2.350304784e-05
2.350225674e-05
2.350146034e-05
2.350066404e-05
2.34998805e-05
2.349911753e-05
2.349837864e-05
2.3497677e-05
2.349701936e-05
2.349638743e-05
2.349573951e-05
2.349032429e-05
2.348103274e-05
2.347280683e-05
2.345706765e-05
2.29823996e-05
1.2004267e-05
5.083110408e-07
2.350788582e-05
2.350738644e-05
2.350695193e-05
2.350645539e-05
2.350589921e-05
2.350528512e-05
2.35046241e-05
2.350392528e-05
2.350319435e-05
2.350244053e-05
2.350167185e-05
2.350089705e-05
2.350012371e-05
2.349936363e-05
2.349862028e-05
2.349790338e-05
2.349722129e-05
2.349657961e-05
2.349593097e-05
2.349229209e-05
2.348231233e-05
2.34731466e-05
2.346502604e-05
2.344949431e-05
2.297526665e-05
1.200232314e-05
5.083108596e-07
2.350704027e-05
2.350655359e-05
2.350613466e-05
2.350565376e-05
2.350511344e-05
2.350452197e-05
2.350388363e-05
2.35032068e-05
2.350249883e-05
2.350177021e-05
2.350102627e-05
2.350027756e-05
2.349952935e-05
2.349879004e-05
2.349806997e-05
2.349737597e-05
2.349671568e-05
2.349607441e-05
2.349378469e-05
2.348335702e-05
2.347335335e-05
2.346440799e-05
2.345657364e-05
2.344103178e-05
2.296730684e-05
1.200014953e-05
5.083106685e-07
2.350612717e-05
2.350565408e-05
2.350525108e-05
2.350478963e-05
2.350427065e-05
2.350370043e-05
2.350308529e-05
2.350243309e-05
2.350175154e-05
2.350104606e-05
2.350032834e-05
2.349960293e-05
2.349888194e-05
2.349816971e-05
2.349747518e-05
2.349680675e-05
2.349616572e-05
2.349461254e-05
2.348407543e-05
2.347338009e-05
2.346355368e-05
2.345482234e-05
2.344716712e-05
2.343187319e-05
2.295864899e-05
1.199778368e-05
5.083104619e-07
2.35051598e-05
2.350470203e-05
2.350431643e-05
2.350387375e-05
2.350337709e-05
2.35028306e-05
2.3502239e-05
2.350161204e-05
2.350095627e-05
2.350027919e-05
2.349958906e-05
2.349889272e-05
2.349819886e-05
2.349751453e-05
2.349684728e-05
2.349619677e-05
2.349480295e-05
2.34842768e-05
2.34730307e-05
2.346260182e-05
2.34531139e-05
2.344458257e-05
2.343708798e-05
2.342212217e-05
2.294942233e-05
1.199526356e-05
5.083102459e-07
2.350415601e-05
2.350371384e-05
2.350334617e-05
2.350292474e-05
2.350244722e-05
2.350192152e-05
2.35013566e-05
2.350075625e-05
2.350012797e-05
2.34994797e-05
2.349881959e-05
2.349815197e-05
2.349748695e-05
2.349683094e-05
2.349618101e-05
2.349458937e-05
2.348394682e-05
2.347232515e-05
2.346145512e-05
2.345132801e-05
2.344209164e-05
2.343385739e-05
2.342667154e-05
2.341182842e-05
2.293970365e-05
1.199260938e-05
5.083100241e-07
2.35031262e-05
2.350269931e-05
2.350234963e-05
2.350194738e-05
2.350149255e-05
2.350099213e-05
2.350045329e-05
2.349988025e-05
2.349928063e-05
2.349866085e-05
2.349802768e-05
2.349739131e-05
2.349675553e-05
2.349610681e-05
2.349373242e-05
2.348292495e-05
2.347113881e-05
2.345993249e-05
2.344943367e-05
2.343960511e-05
2.343069014e-05
2.342271608e-05
2.34158269e-05
2.340125435e-05
2.292970845e-05
1.198987973e-05
5.083097965e-07
2.350208865e-05
2.350167668e-05
2.350134429e-05
2.350096227e-05
2.350053065e-05
2.350005476e-05
2.349953974e-05
2.349899366e-05
2.34984223e-05
2.34978315e-05
2.349723056e-05
2.349662295e-05
2.34959765e-05
2.34920173e-05
2.348111381e-05
2.346940196e-05
2.345802827e-05
2.344734056e-05
2.343710045e-05
2.342763754e-05
2.341898992e-05
2.341140493e-05
2.340479367e-05
2.339047277e-05
2.291952724e-05
1.198709636e-05
5.083095665e-07
2.350105512e-05
2.350065736e-05
2.350034197e-05
2.34999796e-05
2.349957017e-05
2.349911827e-05
2.349862976e-05
2.349811123e-05
2.349756877e-05
2.349700891e-05
2.349643193e-05
2.349575011e-05
2.348955188e-05
2.347859024e-05
2.346709577e-05
2.345576155e-05
2.344493055e-05
2.34344542e-05
2.342467221e-05
2.341553135e-05
2.340727115e-05
2.340001601e-05
2.339372169e-05
2.33796444e-05
2.290930111e-05
1.198429967e-05
5.083093378e-07
2.350003614e-05
2.349965378e-05
2.349935559e-05
2.349901225e-05
2.34986251e-05
2.349819795e-05
2.349773455e-05
2.349724283e-05
2.349672735e-05
2.349617495e-05
2.349466444e-05
2.348618513e-05
2.34753643e-05
2.346418962e-05
2.345306071e-05
2.344219246e-05
2.343182073e-05
2.342178313e-05
2.341235179e-05
2.340355985e-05
2.339573177e-05
2.338883126e-05
2.338273742e-05
2.336889491e-05
2.289912997e-05
1.19815168e-05
5.083091142e-07
2.349905127e-05
2.34986825e-05
2.349840098e-05
2.349807743e-05
2.349770928e-05
2.349730277e-05
2.349686486e-05
2.349639015e-05
2.349577381e-05
2.349078177e-05
2.348192045e-05
2.347139904e-05
2.346074236e-05
2.344996823e-05
2.343925785e-05
2.342894927e-05
2.341883108e-05
2.340924036e-05
2.340015224e-05
2.339187208e-05
2.338438278e-05
2.337779889e-05
2.337201914e-05
2.335840848e-05
2.288922687e-05
1.197880535e-05
5.083088942e-07
2.34981062e-05
2.34977506e-05
2.349748459e-05
2.34971793e-05
2.34968322e-05
2.349644006e-05
2.34959586e-05
2.349290936e-05
2.348577718e-05
2.347684039e-05
2.346689979e-05
2.345680835e-05
2.344648068e-05
2.343609357e-05
2.342598406e-05
2.341601279e-05
2.340640436e-05
2.339712315e-05
2.338848217e-05
2.33805494e-05
2.337342372e-05
2.336715543e-05
2.33616458e-05
2.33482621e-05
2.287967021e-05
1.197618636e-05
5.083086825e-07
2.349721577e-05
2.349687291e-05
2.349661965e-05
2.349631723e-05
2.349580206e-05
2.349281924e-05
2.348714015e-05
2.347989422e-05
2.347139448e-05
2.346203679e-05
2.345253469e-05
2.344272672e-05
2.343280647e-05
2.342302645e-05
2.341327792e-05
2.340369802e-05
2.339443755e-05
2.338558013e-05
2.337737487e-05
2.336982135e-05
2.336304162e-05
2.335708456e-05
2.335185297e-05
2.333867282e-05
2.287051463e-05
1.197368329e-05
5.083084837e-07
2.349633113e-05
2.349570401e-05
2.349410373e-05
2.349071397e-05
2.348614225e-05
2.348039073e-05
2.347335197e-05
2.346550851e-05
2.345688731e-05
2.344809652e-05
2.34389386e-05
2.342954732e-05
2.34200484e-05
2.341061542e-05
2.340126292e-05
2.33921312e-05
2.338318707e-05
2.337478649e-05
2.336695339e-05
2.335976305e-05
2.335330704e-05
2.334762743e-05
2.334262112e-05
2.332963902e-05
2.28620098e-05
1.197135069e-05
5.083082958e-07
2.348892482e-05
2.348629786e-05
2.348290953e-05
2.347850448e-05
2.347310127e-05
2.346668896e-05
2.345961682e-05
2.345175028e-05
2.344363754e-05
2.343518754e-05
2.342632873e-05
2.341735243e-05
2.34083012e-05
2.339923631e-05
2.33902229e-05
2.33813426e-05
2.337285482e-05
2.336485937e-05
2.335735975e-05
2.335050593e-05
2.334434556e-05
2.333892109e-05
2.333412805e-05
2.332132522e-05
2.285415398e-05
1.196919735e-05
5.083081239e-07
2.347744354e-05
2.347429777e-05
2.347046701e-05
2.346558397e-05
2.346004528e-05
2.345376259e-05
2.344679114e-05
2.343942136e-05
2.343169689e-05
2.342341482e-05
2.341496625e-05
2.340631983e-05
2.33976487e-05
2.33888645e-05
2.338020128e-05
2.337171075e-05
2.336355812e-05
2.335588832e-05
2.334870923e-05
2.334215392e-05
2.333625905e-05
2.333106393e-05
2.332646405e-05
2.331382321e-05
2.284706189e-05
1.196725306e-05
5.083079695e-07
2.346587259e-05
2.346248471e-05
2.345863371e-05
2.345396356e-05
2.344837404e-05
2.344229289e-05
2.343568709e-05
2.342861559e-05
2.342097426e-05
2.341313048e-05
2.340496406e-05
2.339662736e-05
2.338818115e-05
2.33797355e-05
2.337134983e-05
2.336316951e-05
2.335537713e-05
2.334794469e-05
2.334106406e-05
2.333479095e-05
2.332913294e-05
2.332413771e-05
2.33197093e-05
2.330721264e-05
2.284081358e-05
1.196554045e-05
5.083078348e-07
2.345539939e-05
2.345211022e-05
2.344839513e-05
2.344361362e-05
2.343834738e-05
2.343249887e-05
2.342606792e-05
2.341911995e-05
2.341185562e-05
2.340419126e-05
2.339630468e-05
2.33882418e-05
2.337999434e-05
2.337181627e-05
2.336368915e-05
2.335582299e-05
2.334829011e-05
2.334115226e-05
2.333452941e-05
2.332842146e-05
2.332296893e-05
2.331814287e-05
2.331386262e-05
2.330149197e-05
2.283541627e-05
1.196407323e-05
5.083077219e-07
2.344194206e-05
2.343871924e-05
2.343486697e-05
2.343039708e-05
2.342539889e-05
2.341956038e-05
2.341329779e-05
2.340660064e-05
2.33995081e-05
2.339202974e-05
2.338437106e-05
2.337647149e-05
2.336849326e-05
2.336048684e-05
2.335260087e-05
2.334498136e-05
2.333765463e-05
2.333073513e-05
2.332430118e-05
2.331840229e-05
2.331306542e-05
2.330840252e-05
2.330424774e-05
2.329200737e-05
2.28266447e-05
1.196230151e-05
5.083076143e-07
2.313255867e-05
2.31294886e-05
2.312588687e-05
2.312178222e-05
2.311672727e-05
2.311138608e-05
2.310528948e-05
2.309894566e-05
2.309213348e-05
2.308500924e-05
2.307768527e-05
2.307011127e-05
2.306249821e-05
2.305487595e-05
2.304732036e-05
2.304007338e-05
2.303308136e-05
2.302648664e-05
2.302035189e-05
2.301472924e-05
2.300966797e-05
2.300520558e-05
2.300126501e-05
2.298975197e-05
2.254406517e-05
1.190911899e-05
5.083056853e-07
1.378367783e-05
1.37825562e-05
1.378128785e-05
1.377975709e-05
1.377801163e-05
1.377604935e-05
1.377392323e-05
1.377166008e-05
1.376922589e-05
1.376667562e-05
1.376405488e-05
1.376134916e-05
1.375862355e-05
1.375589473e-05
1.375320316e-05
1.37506066e-05
1.374809926e-05
1.374573983e-05
1.374354288e-05
1.374152917e-05
1.37397181e-05
1.373812679e-05
1.373675182e-05
1.373400667e-05
1.361514869e-05
9.143023611e-06
5.082034575e-07
6.193980924e-07
6.193977113e-07
6.193975277e-07
6.193973225e-07
6.193971006e-07
6.193968606e-07
6.193966055e-07
6.193963431e-07
6.193960651e-07
6.193957785e-07
6.193954942e-07
6.193952052e-07
6.193949136e-07
6.193946348e-07
6.193943564e-07
6.193940828e-07
6.193938307e-07
6.193935896e-07
6.193933651e-07
6.193931598e-07
6.193929759e-07
6.193928151e-07
6.193926787e-07
6.193925171e-07
6.193880564e-07
6.191037556e-07
5.072525153e-07
8.305001505e-05
8.304721511e-05
8.304611376e-05
8.304517722e-05
8.304425209e-05
8.304334251e-05
8.304246149e-05
8.304162097e-05
8.304083095e-05
8.304009989e-05
8.303944385e-05
8.303903661e-05
8.304046058e-05
8.304001898e-05
8.303946409e-05
8.305063528e-05
8.304980771e-05
8.304904331e-05
8.304824601e-05
8.304720671e-05
8.304626888e-05
8.30453323e-05
8.304439615e-05
8.304347453e-05
8.30425811e-05
8.304172812e-05
8.304092581e-05
8.304018245e-05
8.303950477e-05
8.303891317e-05
8.30385285e-05
8.303803554e-05
8.303755852e-05
8.303705139e-05
8.303639238e-05
8.303525346e-05
8.302219516e-05
8.260625079e-05
7.249296439e-05
1.629014783e-05
5.083785894e-07
8.30518769e-05
8.305124529e-05
8.305053282e-05
8.30498361e-05
8.304906687e-05
8.304823352e-05
8.304733793e-05
8.304641511e-05
8.304547548e-05
8.30445347e-05
8.304360779e-05
8.304270868e-05
8.304184981e-05
8.304104145e-05
8.304029203e-05
8.303960746e-05
8.303899228e-05
8.303845358e-05
8.303795912e-05
8.303751004e-05
8.30370864e-05
8.303661268e-05
8.30356293e-05
8.302305844e-05
8.260763659e-05
7.249383008e-05
1.629009812e-05
5.083784063e-07
8.305184416e-05
8.305111099e-05
8.305050727e-05
8.304982542e-05
8.304906187e-05
8.304822925e-05
8.304734491e-05
8.304642605e-05
8.304548906e-05
8.304454999e-05
8.304362454e-05
8.304272645e-05
8.30418681e-05
8.304106011e-05
8.304031062e-05
8.303962563e-05
8.30390092e-05
8.303846295e-05
8.303797709e-05
8.303754346e-05
8.303714607e-05
8.303676481e-05
8.303592144e-05
8.302345813e-05
8.260819312e-05
7.249421779e-05
1.629009523e-05
5.083783593e-07
8.305104881e-05
8.305032638e-05
8.304965013e-05
8.304889656e-05
8.304807438e-05
8.304720097e-05
8.304629256e-05
8.304536505e-05
8.304443543e-05
8.304351837e-05
8.304262816e-05
8.304177743e-05
8.304097609e-05
8.304023303e-05
8.303955394e-05
8.303894251e-05
8.303840041e-05
8.303792259e-05
8.303750072e-05
8.303712147e-05
8.303676179e-05
8.303601701e-05
8.302343244e-05
8.260780392e-05
7.249390277e-05
1.62900582e-05
5.083782786e-07
8.305068206e-05
8.304997288e-05
8.304931051e-05
8.304857192e-05
8.304776559e-05
8.304690778e-05
8.304601484e-05
8.304510412e-05
8.30441902e-05
8.304328875e-05
8.304241359e-05
8.304157724e-05
8.304079019e-05
8.30400588e-05
8.303939045e-05
8.303878953e-05
8.303825665e-05
8.303779096e-05
8.303737773e-05
8.303701818e-05
8.303667587e-05
8.303594509e-05
8.302240967e-05
8.260647007e-05
7.249288505e-05
1.628998509e-05
5.083781642e-07
8.305015217e-05
8.304946123e-05
8.304881717e-05
8.304809738e-05
8.304731297e-05
8.304647747e-05
8.304560718e-05
8.304471849e-05
8.304382635e-05
8.304294639e-05
8.304209277e-05
8.304127646e-05
8.304050726e-05
8.303979542e-05
8.303914453e-05
8.303855808e-05
8.303803934e-05
8.30375871e-05
8.303718422e-05
8.303684099e-05
8.303651021e-05
8.303565762e-05
8.302014755e-05
8.26041948e-05
7.249119035e-05
1.628987772e-05
5.083780109e-07
8.304947292e-05
8.304880362e-05
8.304818268e-05
8.304748834e-05
8.304673013e-05
8.304592096e-05
8.304507797e-05
8.304421742e-05
8.30433539e-05
8.304250266e-05
8.304167595e-05
8.304088529e-05
8.304014225e-05
8.303945338e-05
8.30388236e-05
8.303825801e-05
8.3037757e-05
8.303732097e-05
8.30369322e-05
8.30366014e-05
8.303623546e-05
8.303407016e-05