/*--------------------------------*- C++ -*----------------------------------*\
  =========                 |
  \\      /  F ield         | OpenFOAM: The Open Source CFD Toolbox
   \\    /   O peration     | Website:  https://openfoam.org
    \\  /    A nd           | Version:  8
     \\/     M anipulation  |
\*---------------------------------------------------------------------------*/
FoamFile
{
    version     2.0;
    format      ascii;
    class       surfaceScalarField;
    location    "0.1";
    object      phi;
}
// * * * * * * * * * * * * * * * * * * * * * * * * * * * * * * * * * * * * * //

dimensions      [1 0 -1 0 0 0 0];

internalField   nonuniform List<scalar> 
197859
(
8.15853354e-08
-3.519348712e-08
-1.628167676e-08
8.608577478e-08
-3.542925794e-08
-1.535310536e-08
8.974134811e-08
-3.563293117e-08
-1.436488863e-08
9.250900801e-08
-3.580556962e-08
-1.33271278e-08
9.435499901e-08
-3.594855778e-08
-1.225069966e-08
9.525536365e-08
-3.606355166e-08
-1.114674747e-08
9.519635637e-08
-3.615277019e-08
-1.002703612e-08
9.417458661e-08
-3.621845945e-08
-8.903579397e-09
9.219726148e-08
-3.626323921e-08
-7.788542155e-09
8.928193696e-08
-3.628966334e-08
-6.694176752e-09
-3.630063606e-08
-5.632602958e-09
5.585304903e-08
-2.239817093e-08
-1.944469218e-08
6.317465636e-08
-2.285453117e-08
-1.884239408e-08
6.990625232e-08
-2.329101753e-08
-1.814753023e-08
7.597219914e-08
-2.370438294e-08
-1.736673316e-08
8.130465812e-08
-2.409542789e-08
-1.650734699e-08
8.584327796e-08
-2.44634987e-08
-1.557800269e-08
8.953578711e-08
-2.480777099e-08
-1.458822806e-08
9.233866844e-08
-2.512795916e-08
-1.354813264e-08
9.421782802e-08
-2.542392137e-08
-1.246867236e-08
9.514900733e-08
-2.56959342e-08
-1.136106612e-08
9.511805411e-08
-2.594444523e-08
-1.023719524e-08
9.412134539e-08
-2.617013997e-08
-9.109152338e-09
9.216573795e-08
-2.637386805e-08
-7.989188172e-09
8.926874655e-08
-2.655660515e-08
-6.889539473e-09
8.545846473e-08
-2.671967883e-08
-5.822361142e-09
8.077203313e-08
-2.68644041e-08
-4.798405454e-09
7.525603697e-08
-2.699096002e-08
-3.828841814e-09
6.896545669e-08
-2.710122997e-08
-2.923166784e-09
6.196478385e-08
-2.719579175e-08
-2.092928445e-09
5.43247162e-08
-2.727613358e-08
-1.345227197e-09
4.612092959e-08
-2.734280435e-08
-6.86011555e-10
3.743208921e-08
-2.739622143e-08
-1.192329191e-10
2.835130787e-08
-2.743771724e-08
3.387944009e-10
1.898978508e-08
-2.746809853e-08
6.7003102e-10
9.480401642e-09
-2.748153324e-08
8.530418332e-10
-2.687257567e-08
9.447620951e-10
3.917925383e-08
-9.722040452e-09
-2.041713856e-08
4.745547416e-08
-1.02743395e-08
-2.00221312e-08
5.530991713e-08
-1.082276313e-08
-1.952349361e-08
6.265540787e-08
-1.136417553e-08
-1.892573976e-08
6.941408024e-08
-1.190158985e-08
-1.823433835e-08
7.550668145e-08
-1.242299353e-08
-1.745672247e-08
8.086654465e-08
-1.293476963e-08
-1.659986559e-08
8.543347273e-08
-1.343404596e-08
-1.567246629e-08
8.915466811e-08
-1.391788671e-08
-1.468404646e-08
9.198635024e-08
-1.438492385e-08
-1.364471399e-08
9.389398393e-08
-1.483317899e-08
-1.256555759e-08
9.485311116e-08
-1.526184562e-08
-1.145774195e-08
9.484931921e-08
-1.566943317e-08
-1.033325478e-08
9.387875626e-08
-1.605503868e-08
-9.204247151e-09
9.1948104e-08
-1.641779892e-08
-8.082967324e-09
8.907451546e-08
-1.675689157e-08
-6.981684748e-09
8.528623169e-08
-1.707256458e-08
-5.912567125e-09
8.062121147e-08
-1.736378018e-08
-4.887683203e-09
7.512475494e-08
-1.762976622e-08
-3.91532404e-09
6.885279246e-08
-1.787008523e-08
-3.008438168e-09
6.186912829e-08
-1.808419969e-08
-2.176011635e-09
5.424531621e-08
-1.82722545e-08
-1.427133617e-09
4.60572713e-08
-1.843403599e-08
-7.669251237e-10
3.738266702e-08
-1.856783278e-08
-1.992698092e-10
2.831505426e-08
-1.867513324e-08
2.601135971e-10
1.896657998e-08
-1.875574644e-08
5.916332531e-10
9.46910656e-09
-1.880423436e-08
7.759516936e-10
-1.831759575e-08
8.700265433e-10
3.85220744e-08
-2.033941227e-08
4.680291826e-08
1.295318376e-09
-1.99508958e-08
5.46657083e-08
6.765874507e-10
-1.945865764e-08
6.201591687e-08
5.986402475e-11
-1.886696745e-08
6.879349958e-08
-5.868034464e-10
-1.818131744e-08
7.489749982e-08
-1.203014217e-09
-1.740945426e-08
8.027235643e-08
-1.834295767e-09
-1.65573919e-08
8.48575246e-08
-2.463463162e-09
-1.563451937e-08
8.859883384e-08
-3.084404955e-09
-1.465040654e-08
9.145244305e-08
-3.696236321e-09
-1.361490929e-08
9.338379402e-08
-4.294831358e-09
-1.253946504e-08
9.436795879e-08
-4.878200085e-09
-1.143489194e-08
9.43903028e-08
-5.442982857e-09
-1.031335615e-08
9.344695402e-08
-5.986804908e-09
-9.187094838e-09
9.154441059e-08
-6.507066141e-09
-8.068215992e-09
8.869879257e-08
-7.0002334e-09
-6.969053149e-09
8.493961689e-08
-7.467928205e-09
-5.90162923e-09
8.030458566e-08
-7.904774733e-09
-4.878465947e-09
7.483870475e-08
-8.30885722e-09
-3.908009289e-09
6.859792094e-08
-8.678015577e-09
-3.002920315e-09
6.164525425e-08
-9.009946706e-09
-2.172034513e-09
5.405281507e-08
-9.305512511e-09
-1.423719756e-09
4.589794432e-08
-9.562819606e-09
-7.648866449e-10
3.72549726e-08
-9.774921014e-09
-1.977549219e-10
2.821904747e-08
-9.947388654e-09
2.609426711e-10
1.890276039e-08
-1.007801175e-08
5.917457946e-10
9.43733901e-09
-1.016135994e-08
7.760098412e-10
-9.79751632e-09
8.708470051e-10
4.606209309e-08
1.266671813e-08
-1.973515645e-08
5.39091199e-08
1.198048763e-08
-1.925041218e-08
6.126589995e-08
1.127381722e-08
-1.866643545e-08
6.802451449e-08
1.055125409e-08
-1.798877425e-08
7.413824577e-08
9.818104686e-09
-1.72232878e-08
7.951948367e-08
9.078627906e-09
-1.637912775e-08
8.411699686e-08
8.32097106e-09
-1.546359472e-08
8.786955402e-08
7.571985327e-09
-1.448742476e-08
9.073830545e-08
6.818096949e-09
-1.345854555e-08
9.268830287e-08
6.072901883e-09
-1.239033312e-08
9.369507442e-08
5.337281329e-09
-1.129216e-08
9.374287618e-08
4.618834069e-09
-1.017699635e-08
9.282799686e-08
3.920685339e-09
-9.057627756e-09
9.095749216e-08
3.245334594e-09
-7.944721798e-09
8.814227355e-08
2.605726762e-09
-6.851546794e-09
8.441959292e-08
1.9853307e-09
-5.789532492e-09
7.982378899e-08
1.404638011e-09
-4.770880687e-09
7.439952161e-08
8.663325069e-10
-3.806678991e-09
6.820305037e-08
3.697481748e-10
-2.90569861e-09
6.129344502e-08
-7.474651903e-11
-2.078814654e-09
5.374652049e-08
-4.767167651e-10
-1.334048809e-09
4.564543249e-08
-8.343191675e-10
-6.787141825e-10
3.704955865e-08
-1.115088982e-09
-1.145289621e-10
2.806362122e-08
-1.352559946e-09
3.411158116e-10
1.879857525e-08
-1.532950323e-09
6.704222841e-10
9.385044097e-09
-1.650495926e-09
8.533741728e-10
-1.408960651e-09
9.473205355e-10
4.525965897e-08
2.369941536e-08
-1.937593878e-08
5.308293988e-08
2.295461073e-08
-1.889989893e-08
6.040719553e-08
2.21757382e-08
-1.832488394e-08
6.715363163e-08
2.136676062e-08
-1.765697718e-08
7.324863666e-08
2.053299022e-08
-1.690133585e-08
7.862639309e-08
1.967907036e-08
-1.606618993e-08
8.321618012e-08
1.880710269e-08
-1.516059837e-08
8.697325051e-08
1.792643943e-08
-1.419304105e-08
8.985909825e-08
1.702800521e-08
-1.317426352e-08
9.182053522e-08
1.61534908e-08
-1.211768353e-08
9.284349442e-08
1.527291654e-08
-1.103156484e-08
9.291095508e-08
1.440840891e-08
-9.927485724e-09
9.202047036e-08
1.356012697e-08
-8.817055314e-09
9.018202952e-08
1.273256844e-08
-7.714709525e-09
8.74093191e-08
1.194490535e-08
-6.630373099e-09
8.373086749e-08
1.117891744e-08
-5.577197827e-09
7.918100723e-08
1.046273562e-08
-4.568626175e-09
7.38050448e-08
9.795471705e-09
-3.612057355e-09
6.766000098e-08
9.174960346e-09
-2.717703409e-09
6.081518299e-08
8.610557738e-09
-1.896833672e-09
5.333269284e-08
8.109497622e-09
-1.159054776e-09
4.528261722e-08
7.669782756e-09
-5.084819415e-10
3.675967284e-08
7.303702898e-09
5.041842011e-11
2.784293911e-08
7.010248499e-09
5.007605202e-10
1.865242758e-08
6.776852708e-09
8.279717671e-10
9.314737259e-09
6.62568561e-09
1.009038798e-09
6.752222541e-09
1.101206364e-09
4.436993812e-08
3.427473982e-08
-1.887330053e-08
5.215495179e-08
3.347259344e-08
-1.840851997e-08
5.944463244e-08
3.262847537e-08
-1.784417198e-08
6.616345164e-08
3.173786063e-08
-1.718801159e-08
7.223406147e-08
3.081187834e-08
-1.644403989e-08
7.759356816e-08
2.984993078e-08
-1.562148723e-08
8.21726584e-08
2.88698111e-08
-1.472963679e-08
8.592338799e-08
2.786700717e-08
-1.377600063e-08
8.880154445e-08
2.684072136e-08
-1.277259467e-08
9.077278272e-08
2.583079494e-08
-1.172744201e-08
9.181114532e-08
2.481198334e-08
-1.065366976e-08
9.190620848e-08
2.380349995e-08
-9.56390149e-09
9.104868976e-08
2.281425592e-08
-8.468032571e-09
8.924341382e-08
2.184698631e-08
-7.378408554e-09
8.651678523e-08
2.091270059e-08
-6.308447016e-09
8.288277968e-08
2.001681064e-08
-5.269349841e-09
7.838540154e-08
1.916722265e-08
-4.270919855e-09
7.307325524e-08
1.837287341e-08
-3.327579769e-09
6.699506539e-08
1.763685244e-08
-2.444701389e-09
6.021765212e-08
1.696374043e-08
-1.635602481e-09
5.280909909e-08
1.63656279e-08
-9.064018722e-10
4.484032786e-08
1.584190724e-08
-2.613190248e-10
3.640316697e-08
1.539765706e-08
2.859481926e-10
2.758115801e-08
1.504161398e-08
7.339476992e-10
1.847425868e-08
1.477128572e-08
1.056190095e-09
9.222720434e-09
1.458817933e-08
1.233029703e-09
1.459855559e-08
1.320492487e-09
4.342460824e-08
4.426250143e-08
-1.823257287e-08
5.114622019e-08
4.342210812e-08
-1.777967156e-08
5.838519964e-08
4.251325034e-08
-1.722857265e-08
6.505648438e-08
4.154891713e-08
-1.658354054e-08
7.109827959e-08
4.052609232e-08
-1.585370696e-08
7.642157043e-08
3.948129004e-08
-1.504897546e-08
8.097996065e-08
3.839230094e-08
-1.417197171e-08
8.471820599e-08
3.727525674e-08
-1.323449947e-08
8.758365485e-08
3.613747864e-08
-1.224727684e-08
8.955744688e-08
3.499371227e-08
-1.121900448e-08
9.061266993e-08
3.384013787e-08
-1.01630596e-08
9.072280966e-08
3.270588737e-08
-9.089761331e-09
8.989462908e-08
3.157894298e-08
-8.011459911e-09
8.813012477e-08
3.047941591e-08
-6.940765576e-09
8.544920641e-08
2.941095506e-08
-5.888231064e-09
8.187062091e-08
2.839133693e-08
-4.865056827e-09
7.744236129e-08
2.741022004e-08
-3.882239411e-09
7.219889608e-08
2.650504058e-08
-2.954751205e-09
6.619777024e-08
2.565901908e-08
-2.08579696e-09
5.950956026e-08
2.48767031e-08
-1.288371597e-09
5.219338856e-08
2.419151402e-08
-5.723476414e-10
4.431915696e-08
2.359091096e-08
6.343828013e-11
3.597543649e-08
2.307971382e-08
6.005563198e-10
2.724942437e-08
2.266441517e-08
1.042650282e-09
1.825634613e-08
2.234247297e-08
1.361737958e-09
9.111223678e-09
2.214139887e-08
1.532003345e-09
2.20325837e-08
1.617411959e-09
4.240773529e-08
5.356884459e-08
-1.746446658e-08
5.006245903e-08
5.267757698e-08
-1.702172389e-08
5.723850538e-08
5.171306097e-08
-1.648372609e-08
6.385631985e-08
5.068215381e-08
-1.585536632e-08
6.98368702e-08
4.95881648e-08
-1.51435035e-08
7.512329998e-08
4.845025691e-08
-1.435297187e-08
7.964895638e-08
4.726643599e-08
-1.34942002e-08
8.33625994e-08
4.6045802e-08
-1.257557652e-08
8.622723243e-08
4.479181146e-08
-1.16074861e-08
8.819811146e-08
4.353860352e-08
-1.060158026e-08
8.925185115e-08
4.226987579e-08
-9.566738524e-09
8.938734126e-08
4.10049199e-08
-8.515398039e-09
8.85871416e-08
3.975890702e-08
-7.458419607e-09
8.686308699e-08
3.853408457e-08
-6.407214939e-09
8.423074475e-08
3.734400705e-08
-5.375421475e-09
8.071749894e-08
3.620433844e-08
-4.372741925e-09
7.635202034e-08
3.511563902e-08
-3.411362674e-09
7.119235849e-08
3.409455827e-08
-2.499872721e-09
6.528404709e-08
3.314648158e-08
-1.647918087e-09
5.868147195e-08
3.227925997e-08
-8.676506245e-10
5.146944769e-08
3.149570691e-08
-1.588870785e-10
4.371004635e-08
3.082601207e-08
4.583887113e-10
3.548761489e-08
3.025165768e-08
9.85240374e-10
2.688424144e-08
2.978538258e-08
1.417686299e-09
1.800247995e-08
2.943036873e-08
1.729538427e-09
8.99122679e-09
2.91914963e-08
1.897071504e-09
2.898784091e-08
1.971995868e-09
4.134862185e-08
6.206593154e-08
-1.656939018e-08
4.89157765e-08
6.113758916e-08
-1.614162393e-08
5.601156084e-08
6.012550726e-08
-1.561910923e-08
6.255707829e-08
5.903633735e-08
-1.500711013e-08
6.84827442e-08
5.787082054e-08
-1.431238134e-08
7.371502661e-08
5.665965812e-08
-1.35425232e-08
7.819992453e-08
5.538881936e-08
-1.27050394e-08
8.188500186e-08
5.407498403e-08
-1.18090817e-08
8.47207196e-08
5.272898716e-08
-1.08649313e-08
8.66865952e-08
5.136406928e-08
-9.880751178e-09
8.775063786e-08
4.998866885e-08
-8.869777132e-09
8.789756153e-08
4.861505362e-08
-7.841692249e-09
8.712804989e-08
4.725526225e-08
-6.809334963e-09
8.545090049e-08
4.591332384e-08
-5.782600575e-09
8.286875808e-08
4.462183336e-08
-4.774375965e-09
7.941911753e-08
4.337207137e-08
-3.795126107e-09
7.513768222e-08
4.217720465e-08
-2.85566311e-09
7.006521214e-08
4.106012149e-08
-1.967279526e-09
6.425307039e-08
4.002135053e-08
-1.135717872e-09
5.776446221e-08
3.906860538e-08
-3.726781788e-10
5.066211073e-08
3.821233724e-08
3.146873959e-10
4.302578599e-08
3.747257213e-08
9.194997251e-10
3.493159765e-08
3.684054508e-08
1.435669817e-09
2.64610502e-08
3.632789817e-08
1.858903118e-09
1.772064635e-08
3.593804472e-08
2.163972268e-09
8.846938368e-09
3.567390608e-08
2.322772534e-09
3.537448778e-08
2.391870186e-09
4.024384959e-08
6.966124776e-08
-1.556242688e-08
4.771204973e-08
6.870146205e-08
-1.514937127e-08
5.471871301e-08
6.764952105e-08
-1.464449822e-08
6.118254079e-08
6.651315715e-08
-1.405110161e-08
6.702806352e-08
6.52955925e-08
-1.337750136e-08
7.220074971e-08
6.401082309e-08
-1.262794048e-08
7.663546387e-08
6.266596414e-08
-1.181296878e-08
8.028173062e-08
6.127187873e-08
-1.094143664e-08
8.309723135e-08
5.984024775e-08
-1.002235235e-08
8.505010703e-08
5.838379996e-08
-9.065667514e-09
8.611571312e-08
5.691451036e-08
-8.082137018e-09
8.62805982e-08
5.54441501e-08
-7.082458384e-09
8.554575622e-08
5.398201381e-08
-6.078334151e-09
8.390279052e-08
5.25524132e-08
-5.080655444e-09
8.138257009e-08
5.115766479e-08
-4.098407935e-09
7.800582861e-08
4.981281121e-08
-3.145216593e-09
7.380361412e-08
4.853095481e-08
-2.231328374e-09
6.882556961e-08
4.732460634e-08
-1.364956438e-09
6.312148222e-08
4.620346001e-08
-5.554074313e-10
5.674919098e-08
4.517685425e-08
1.876492754e-10
4.977206907e-08
4.425786651e-08
8.560567138e-10
4.227078297e-08
4.345482776e-08
1.444219284e-09
3.432218249e-08
4.276696661e-08
1.947964163e-09
2.599907451e-08
4.221859408e-08
2.358669392e-09
1.740909425e-08
4.179923555e-08
2.655396652e-09
8.69030875e-09
4.151368879e-08
2.805824652e-09
4.112533495e-08
2.866380134e-09
3.91042084e-08
7.626360139e-08
-1.445551116e-08
4.645960668e-08
7.528399826e-08
-1.40579682e-08
5.335992743e-08
7.420140337e-08
-1.356887775e-08
5.973102912e-08
7.302443472e-08
-1.299580491e-08
6.549871595e-08
7.17607135e-08
-1.234310472e-08
7.059988496e-08
7.042118341e-08
-1.161882681e-08
7.497579628e-08
6.901521284e-08
-1.082959572e-08
7.857788789e-08
6.755296495e-08
-9.984895186e-09
8.136360958e-08
6.605015466e-08
-9.094776888e-09
8.330321128e-08
6.451421053e-08
-8.166744207e-09
8.43681852e-08
6.296905559e-08
-7.213989853e-09
8.454792679e-08
6.141720896e-08
-6.245166493e-09
8.383489113e-08
5.987508655e-08
-5.270455067e-09
8.224213172e-08
5.835877228e-08
-4.30222543e-09
7.978166659e-08
5.688188994e-08
-3.350746906e-09
7.64790139e-08
5.545656637e-08
-2.426602018e-09
7.236772279e-08
5.409871697e-08
-1.540630285e-09
6.749106398e-08
5.281911226e-08
-7.008104982e-10
6.189886452e-08
5.162858434e-08
8.516723891e-11
5.565793206e-08
5.053285215e-08
8.039557895e-10
4.882046167e-08
4.956412985e-08
1.451027429e-09
4.146522075e-08
4.870990822e-08
2.020654649e-09
3.366203881e-08
4.798385983e-08
2.507336447e-09
2.549622773e-08
4.73961253e-08
2.909764972e-09
1.707047176e-08
4.694954633e-08
3.197254056e-09
8.521811285e-09
4.664554403e-08
3.338811102e-09
4.617947304e-08
3.389766999e-09
3.79385599e-08
8.18010726e-08
-1.32610535e-08
4.51716264e-08
8.080797313e-08
-1.287968771e-08
5.195998924e-08
7.970382425e-08
-1.241020314e-08
5.822793528e-08
7.849827602e-08
-1.185809008e-08
6.390493739e-08
7.719943036e-08
-1.122902564e-08
6.892789656e-08
7.581774174e-08
-1.05299573e-08
7.323966683e-08
7.436391665e-08
-9.768183338e-09
7.679034623e-08
7.284997136e-08
-8.952806997e-09
7.954051098e-08
7.128906837e-08
-8.091758986e-09
8.145538904e-08
6.969561989e-08
-7.196677694e-09
8.251782816e-08
6.808344667e-08
-6.27508257e-09
8.271072938e-08
6.646639014e-08
-5.338350335e-09
8.203018129e-08
6.485884877e-08
-4.397650282e-09
8.048360514e-08
6.327488106e-08
-3.46228816e-09
7.808464576e-08
6.173316806e-08
-2.543542157e-09
7.486460467e-08
6.023711878e-08
-1.650348114e-09
7.084626173e-08
5.882391957e-08
-7.954509593e-10
6.607736208e-08
5.748397576e-08
1.655383539e-11
6.060845159e-08
5.623760689e-08
7.733824271e-10
5.449135065e-08
5.509659975e-08
1.467701072e-09
4.780042368e-08
5.407546269e-08
2.094674906e-09
4.059938161e-08
5.318072349e-08
2.645924329e-09
3.296217471e-08
5.242056012e-08
3.116709605e-09
2.496520672e-08
5.180470628e-08
3.504988961e-09
1.671195223e-08
5.133664058e-08
3.783056589e-09
8.342141731e-09
5.101749992e-08
3.91492853e-09
5.04833216e-08
3.955444897e-09
3.67562023e-08
8.62102575e-08
-1.199457448e-08
4.385685447e-08
8.521221649e-08
-1.163001649e-08
5.052517143e-08
8.409336357e-08
-1.117989506e-08
5.668258408e-08
8.287295947e-08
-1.065116341e-08
6.226058988e-08
8.155171909e-08
-1.004651075e-08
6.719750122e-08
8.014164645e-08
-9.374309706e-09
7.143750302e-08
7.865439693e-08
-8.641388527e-09
7.4932701e-08
7.710302206e-08
-7.856709253e-09
7.764371988e-08
7.550042686e-08
-7.028537185e-09
7.95381014e-08
7.386375932e-08
-6.166527975e-09
8.059434013e-08
7.220507697e-08
-5.279872585e-09
8.079927914e-08
7.053978782e-08
-4.378486282e-09
8.0149348e-08
6.888309235e-08
-3.472756493e-09
7.864925386e-08
6.725082619e-08
-2.572735695e-09
7.631611647e-08
6.565871564e-08
-1.687878536e-09
7.316776049e-08
6.412072469e-08
-8.29441029e-10
6.924814062e-08
6.265464061e-08
-4.149756246e-12
6.459166762e-08
6.127094642e-08
7.774670226e-10
5.924819559e-08
5.998385642e-08
1.50607705e-09
5.327666417e-08
5.88026005e-08
2.175158588e-09
4.673585483e-08
5.774953739e-08
2.777024122e-09
3.9694445e-08
5.682480227e-08
3.308175546e-09
3.222989429e-08
5.6033214e-08
3.763195109e-09
2.440885304e-08
5.540163599e-08
4.135766477e-09
1.633618694e-08
5.49174549e-08
4.403769583e-09
8.153819164e-09
5.45867618e-08
4.525180007e-09
5.399468506e-08
4.554597268e-09
3.557022033e-08
8.944368925e-08
-1.067390544e-08
4.253311069e-08
8.844870597e-08
-1.032682642e-08
4.906806094e-08
8.733153314e-08
-9.897639226e-09
5.510647759e-08
8.610223661e-08
-9.389397264e-09
6.058059671e-08
8.476909266e-08
-8.810500204e-09
6.542649214e-08
8.334528236e-08
-8.16597094e-09
6.959018792e-08
8.184069413e-08
-7.463999089e-09
7.302423715e-08
8.026872897e-08
-6.711467861e-09
7.569640588e-08
7.863510028e-08
-5.916402753e-09
7.756433512e-08
7.697902908e-08
-5.090753443e-09
7.861234989e-08
7.529183974e-08
-4.240471863e-09
7.882745112e-08
7.359620452e-08
-3.375497614e-09
7.82061978e-08
7.190837165e-08
-2.506434808e-09
7.675384161e-08
7.024506401e-08
-1.642860527e-09
7.448532071e-08
6.862200809e-08
-7.944570286e-10
7.142396774e-08
6.705407298e-08
2.948026509e-11
6.760289074e-08
6.555682835e-08
8.213973693e-10
6.306203961e-08
6.414420148e-08
1.571015731e-09
5.785039168e-08
6.283044994e-08
2.269270875e-09
5.201916299e-08
6.162771243e-08
2.911021801e-09
4.563545631e-08
6.05490298e-08
3.489705284e-09
3.876312755e-08
5.960397185e-08
3.999139801e-09
3.146688563e-08
5.880092454e-08
4.434910486e-09
2.382946407e-08
5.815011043e-08
4.795638698e-09
1.594577638e-08
5.765523478e-08
5.052828574e-09
7.958946502e-09
5.731709577e-08
5.163550639e-09
5.667941027e-08
5.181332057e-09
3.438514601e-08
9.14688361e-08
-9.313850619e-09
4.120245654e-08
9.048600581e-08
-8.984224606e-09
4.760441504e-08
8.937818876e-08
-8.57546502e-09
5.351935382e-08
8.81544503e-08
-8.091351075e-09
5.888717467e-08
8.681743073e-08
-7.537825104e-09
6.363713813e-08
8.540005191e-08
-6.923993631e-09
6.772153755e-08
8.389251809e-08
-6.253211641e-09
7.109464779e-08
8.231504185e-08
-5.534276639e-09
7.371143434e-08
8.068132175e-08
-4.775867114e-09
7.555356163e-08
7.900960621e-08
-3.983711463e-09
7.659293831e-08
7.731275509e-08
-3.169589304e-09
7.681779978e-08
7.560646499e-08
-2.342850353e-09
7.622625241e-08
7.390532321e-08
-1.511702884e-09
7.482223879e-08
7.223115145e-08
-6.870780266e-10
7.261965421e-08
7.059639783e-08
1.243545624e-10
6.964195369e-08
6.901512252e-08
9.138494527e-10
6.592140069e-08
6.750425572e-08
1.671242493e-09
6.149785697e-08
6.607926059e-08
2.387406996e-09
5.641833962e-08
6.475407913e-08
3.055509864e-09
5.073561631e-08
6.35407731e-08
3.669884595e-09
4.45104302e-08
6.245203588e-08
4.222909455e-09
3.780685842e-08
6.149754553e-08
4.711148808e-09
3.069303296e-08
6.068765224e-08
5.12858976e-09
2.324132966e-08
6.003009557e-08
5.473475677e-09
1.554850343e-08
5.953021847e-08
5.719794329e-09
7.759875532e-09
5.918863357e-08
5.819152291e-09
5.851641472e-08
5.82497765e-09
3.321601211e-08
9.227044284e-08
-7.934880403e-09
3.988520089e-08
9.130767727e-08
-7.622479993e-09
4.61502734e-08
9.021830972e-08
-7.234219229e-09
5.194108587e-08
8.901178744e-08
-6.774692707e-09
5.71871069e-08
8.769683521e-08
-6.249605134e-09
6.184006194e-08
8.628744759e-08
-5.662293179e-09
6.584236481e-08
8.479331845e-08
-5.022939891e-09
6.914867917e-08
8.322838058e-08
-4.337519816e-09
7.172209665e-08
8.160562075e-08
-3.613751035e-09
7.353517061e-08
7.994224075e-08
-2.860049771e-09
7.456344521e-08
7.825580408e-08
-2.084110126e-09
7.479739638e-08
7.655689145e-08
-1.295746164e-09
7.423234269e-08
7.48644395e-08
-5.041465372e-10
7.287343644e-08
7.319601115e-08
2.851177876e-10
7.073636855e-08
7.156585906e-08
1.059709007e-09
6.784281557e-08
6.999003565e-08
1.811654647e-09
6.422505652e-08
6.848209192e-08
2.533738401e-09
5.992091956e-08
6.70627726e-08
3.215136892e-09
5.497457329e-08
6.574190264e-08
3.853633521e-09
4.943969681e-08
6.453167391e-08
4.439595679e-09
4.337462138e-08
6.344500405e-08
4.968154037e-09
3.684290969e-08
6.249220856e-08
5.433446742e-09
2.991015614e-08
6.16848111e-08
5.832274564e-09
2.264650882e-08
6.102856825e-08
6.162072806e-09
1.514681946e-08
6.052977898e-08
6.397185341e-09
7.558880915e-09
6.018853821e-08
6.485176418e-09
5.949360489e-08
6.47886564e-09
3.207024493e-08
9.184779529e-08
-6.552967596e-09
3.858877717e-08
9.091340572e-08
-6.257720464e-09
4.471362407e-08
8.985240386e-08
-5.889979717e-09
5.03753498e-08
8.867552596e-08
-5.454193439e-09
5.551047271e-08
8.739037687e-08
-4.95520267e-09
6.006273273e-08
8.600924031e-08
-4.398525242e-09
6.398087164e-08
8.454356614e-08
-3.790923246e-09
6.722048078e-08
8.300746139e-08
-3.139424317e-09
6.974410951e-08
8.141422584e-08
-2.451300936e-09
7.15230778e-08
7.977950982e-08
-1.733773201e-09
7.253969564e-08
7.811929653e-08
-9.962490107e-10
7.278155601e-08
7.64489546e-08
-2.487971038e-10
7.224709661e-08
7.477746054e-08
5.077020959e-10
7.093425277e-08
7.313820156e-08
1.257930595e-09
6.886226629e-08
7.153220179e-08
1.99381691e-09
6.60525177e-08
6.997882321e-08
2.709919136e-09
6.253423175e-08
6.849450305e-08
3.395514164e-09
5.834574076e-08
6.70943365e-08
4.047151633e-09
5.353296144e-08
6.579157709e-08
4.653826713e-09
4.8145307e-08
6.459874927e-08
5.211718218e-09
4.223966626e-08
6.352738268e-08
5.71474625e-09
3.588234658e-08
6.258312475e-08
6.158167813e-09
2.912941234e-08
6.179235358e-08
6.537378266e-09
2.205300809e-08
6.114504514e-08
6.852083792e-09
1.474614681e-08
6.06530773e-08
7.075840981e-09
7.358322442e-09
6.031622432e-08
7.152478165e-09
5.961044662e-08
7.133840657e-09
3.095744522e-08
9.021547914e-08
-5.18536481e-09
3.732510909e-08
8.931797492e-08
-4.907367637e-09
4.331329657e-08
8.829098379e-08
-4.559655147e-09
4.88464427e-08
8.716026406e-08
-4.148636319e-09
5.386655322e-08
8.591729298e-08
-3.675761008e-09
5.831847221e-08
8.457901689e-08
-3.148536578e-09
6.215225056e-08
8.315682831e-08
-2.572116354e-09
6.532397866e-08
8.166645411e-08
-1.954162713e-09
6.779837931e-08
8.011931849e-08
-1.301433731e-09
6.954787751e-08
7.853122038e-08
-6.217800877e-10
7.055349089e-08
7.691693412e-08
7.741558148e-11
7.080250365e-08
7.529096065e-08
7.907612126e-10
7.0286522e-08
7.366875427e-08
1.507457427e-09
6.902028777e-08
7.206939739e-08
2.218679832e-09
6.701219073e-08
7.05059322e-08
2.918769056e-09
6.428527698e-08
6.899199188e-08
3.598804502e-09
6.086798549e-08
6.754820835e-08
4.249207349e-09
5.67960849e-08
6.618519485e-08
4.867137697e-09
5.211465605e-08
6.491574301e-08
5.443754102e-09
4.687291276e-08
6.375294471e-08
5.974364276e-09
4.112637662e-08
6.270947101e-08
6.451527693e-09
3.493040906e-08
6.179413121e-08
6.872250343e-09
2.835678235e-08
6.101835783e-08
7.235074081e-09
2.146666478e-08
6.038755235e-08
7.535183957e-09
1.435051156e-08
5.990845603e-08
7.748433361e-09
7.160558578e-09
5.958007535e-08
7.813798402e-09
5.887532157e-08
7.783387779e-09
2.989192554e-08
8.740437292e-08
-3.852751346e-09
3.611351837e-08
8.655116888e-08
-3.591433131e-09
4.195662515e-08
8.557788734e-08
-3.264582516e-09
4.736443817e-08
8.449341596e-08
-2.873573887e-09
5.22722571e-08
8.330531147e-08
-2.426600718e-09
5.662467619e-08
8.202455219e-08
-1.926994688e-09
6.03786267e-08
8.065681197e-08
-1.381378282e-09
6.348284567e-08
7.923400686e-08
-7.97748428e-10
6.590853178e-08
7.775020853e-08
-1.812148565e-10
6.762623408e-08
7.622423011e-08
4.658582896e-10
6.861800547e-08
7.467384993e-08
1.128966079e-09
6.887103417e-08
7.311079824e-08
1.805748062e-09
6.838376912e-08
7.155307771e-08
2.482399283e-09
6.716082791e-08
7.001523158e-08
3.157296544e-09
6.521438637e-08
6.851147289e-08
3.821718312e-09
6.256536162e-08
6.705752473e-08
4.464840646e-09
5.924302687e-08
6.566795688e-08
5.084378444e-09
5.528383165e-08
6.435661416e-08
5.669933177e-09
5.072976585e-08
6.313490897e-08
6.217352427e-09
4.563065575e-08
6.201549445e-08
6.719248088e-09
4.003661838e-08
6.101392064e-08
7.172458518e-09
3.400789999e-08
6.013370664e-08
7.572153352e-09
2.760680116e-08
5.938650662e-08
7.916064075e-09
2.089667626e-08
5.877918399e-08
8.201681679e-09
1.396587899e-08
5.83185205e-08
8.403970902e-09
6.967884257e-09
5.800289855e-08
8.458423371e-09
5.731038843e-08
8.416064776e-09
2.887528987e-08
8.345978633e-08
-2.567661482e-09
3.495496179e-08
8.265514157e-08
-2.321643842e-09
4.066700098e-08
8.174409022e-08
-2.014335815e-09
4.595171114e-08
8.072097145e-08
-1.646564442e-09
5.074991773e-08
7.959905507e-08
-1.224570694e-09
5.500739293e-08
7.838936052e-08
-7.533476957e-10
5.867413286e-08
7.710181035e-08
-2.413711404e-10
6.171473076e-08
7.574960956e-08
3.154716837e-10
6.409120783e-08
7.434397409e-08
9.026078857e-10
6.578109637e-08
7.289468725e-08
1.513558258e-09
6.675797446e-08
7.142917938e-08
2.142627466e-09
6.701731825e-08
6.994768619e-08
2.779416575e-09
6.655320673e-08
6.847097685e-08
3.422561813e-09
6.537077189e-08
6.701160484e-08
4.063006807e-09
6.348370481e-08
6.558568143e-08
4.690301844e-09
6.091174138e-08
6.420650862e-08
5.300831829e-09
5.768334009e-08
6.288827537e-08
5.88626453e-09
5.383252938e-08
6.164355934e-08
6.442305723e-09
4.940053247e-08
6.048471367e-08
6.96083059e-09
4.443362717e-08
5.942354933e-08
7.437635925e-09
3.898777119e-08
5.847130587e-08
7.867361421e-09
3.311726334e-08
5.763642785e-08
8.246749128e-09
2.688315978e-08
5.692631376e-08
8.573305883e-09
2.034874996e-08
5.634756302e-08
8.845068878e-09
1.359566622e-08
5.591438939e-08
9.036267868e-09
6.782566995e-09
5.561470539e-08
9.080335622e-09
5.494538386e-08
9.026599167e-09
2.792628409e-08
7.843955301e-08
-1.34903881e-09
3.386258746e-08
7.769897277e-08
-1.119332973e-09
3.94471942e-08
7.685013656e-08
-8.281079302e-10
4.461500297e-08
7.589945832e-08
-4.821173737e-10
4.930949736e-08
7.485464048e-08
-8.438456031e-11
5.347474975e-08
7.372849649e-08
3.627032682e-10
5.706603092e-08
7.252931131e-08
8.495828013e-10
6.004373239e-08
7.126730855e-08
1.374113427e-09
6.237472203e-08
6.995616713e-08
1.927356349e-09
6.402725406e-08
6.860605216e-08
2.507545403e-09
6.499291763e-08
6.723457062e-08
3.101172898e-09
6.525969747e-08
6.584648116e-08
3.707324638e-09
6.481628065e-08
6.447146639e-08
4.316391713e-09
6.367353381e-08
6.310777042e-08
4.920510979e-09
6.184230785e-08
6.177552923e-08
5.515682046e-09
5.934271332e-08
6.048638403e-08
6.094314804e-09
5.620167862e-08
5.925437191e-08
6.649753412e-09
5.245302851e-08
5.809069133e-08
7.176490764e-09
4.813756783e-08
5.700752016e-08
7.667731742e-09
4.330115502e-08
5.601557246e-08
8.119530353e-09
3.799565252e-08
5.512505101e-08
8.526928588e-09
3.227627559e-08
5.434445343e-08
8.886530127e-09
2.620016974e-08
5.368149002e-08
9.196100653e-09
1.982545574e-08
5.314268798e-08
9.454744675e-09
1.324249153e-08
5.273416524e-08
9.638326099e-09
6.606370112e-09
5.245399838e-08
9.671934076e-09
5.181911741e-08
9.607715512e-09
2.70417193e-08
7.241843483e-08
-2.12162456e-10
3.285178222e-08
7.174295429e-08
5.705799605e-12
3.831587533e-08
7.09671973e-08
2.801870404e-10
4.337564428e-08
7.009472711e-08
6.077834297e-10
4.796759228e-08
6.914307503e-08
9.838030796e-10
5.204547006e-08
6.811064645e-08
1.405403027e-09
5.556275066e-08
6.701024076e-08
1.868343989e-09
5.848307061e-08
6.585072655e-08
2.363817764e-09
6.076789044e-08
6.464927951e-08
2.890503628e-09
6.239644557e-08
6.341088986e-08
3.435804952e-09
6.335054982e-08
6.215104435e-08
3.9992671e-09
6.361396246e-08
6.088049995e-08
4.572952447e-09
6.319128772e-08
5.961389794e-08
5.151063428e-09
6.208766611e-08
5.835756108e-08
5.724993406e-09
6.030810116e-08
5.713794804e-08
6.288565784e-09
5.787617797e-08
5.595347882e-08
6.836429795e-09
5.481665234e-08
5.482136053e-08
7.36425457e-09
5.116384185e-08
5.375203559e-08
7.863245565e-09
4.695699203e-08
5.275672586e-08
8.329441011e-09
4.224106232e-08
5.184524209e-08
8.75804085e-09
3.706637313e-08
5.102684514e-08
9.144636558e-09
3.148676471e-08
5.030962785e-08
9.486122187e-09
2.555858998e-08
4.970068061e-08
9.780613575e-09
1.933986066e-08
4.92059841e-08
1.002700589e-08
1.291452425e-08
4.883045545e-08
1.020056978e-08
6.442060559e-09
4.857301094e-08
1.022492202e-08
4.798210025e-08
1.015051106e-08
2.623905619e-08
6.547234454e-08
8.389093458e-10
3.193027543e-08
6.487047184e-08
1.040106808e-09
3.728364246e-08
6.417568473e-08
1.298436041e-09
4.22360602e-08
6.339639525e-08
1.607541872e-09
4.673773641e-08
6.25396515e-08
1.964597426e-09
5.073705509e-08
6.161054884e-08
2.364733465e-09