/*--------------------------------*- C++ -*----------------------------------*\
  =========                 |
  \\      /  F ield         | OpenFOAM: The Open Source CFD Toolbox
   \\    /   O peration     | Website:  https://openfoam.org
    \\  /    A nd           | Version:  8
     \\/     M anipulation  |
\*---------------------------------------------------------------------------*/
FoamFile
{
    version     2.0;
    format      ascii;
    class       volVectorField;
    location    "0.1";
    object      U;
}
// * * * * * * * * * * * * * * * * * * * * * * * * * * * * * * * * * * * * * //

dimensions      [0 1 -1 0 0 0 0];

internalField   nonuniform List<vector> 
67451
(
(0.0006419442771 -0.000360558751 -7.64644221e-05)
(0.0006817720259 -0.0003620620285 -7.210741631e-05)
(0.0007149399255 -0.0003632454206 -6.747158626e-05)
(0.0007410627072 -0.0003641240201 -6.260395134e-05)
(0.0007598259956 -0.0003647174085 -5.755560111e-05)
(0.0007709952859 -0.0003650464294 -5.237807158e-05)
(0.0007744189882 -0.000365136593 -4.712620545e-05)
(0.0007700263711 -0.000365015552 -4.185599585e-05)
(0.0007578329791 -0.0003647130929 -3.662418108e-05)
(0.0007379393731 -0.0003642611776 -3.148832515e-05)
(0.0007105322571 -0.000363693018 -2.65050761e-05)
(0.0004223453891 -0.0002497495718 -9.128300411e-05)
(0.0004839650643 -0.0002534045605 -8.846386494e-05)
(0.0005411117605 -0.0002568256534 -8.520938403e-05)
(0.0005931530186 -0.0002599974212 -8.154906107e-05)
(0.000639505003 -0.0002629223705 -7.751730483e-05)
(0.0006796466386 -0.0002655998103 -7.315761935e-05)
(0.0007131201046 -0.0002680293177 -6.851524377e-05)
(0.000739536126 -0.0002702143589 -6.363751006e-05)
(0.000758577459 -0.0002721605632 -5.857561786e-05)
(0.0007700070353 -0.0002738772014 -5.338149573e-05)
(0.0007736701486 -0.0002753747538 -4.811078236e-05)
(0.0007694935741 -0.0002766664726 -4.282000073e-05)
(0.0007574903853 -0.0002777672885 -3.756627793e-05)
(0.0007377595407 -0.0002786941528 -3.240659947e-05)
(0.0007104871821 -0.0002794655311 -2.739832002e-05)
(0.0006759385028 -0.0002801003364 -2.259797083e-05)
(0.0006344537569 -0.0002806075059 -1.805058011e-05)
(0.0005864454798 -0.0002810093536 -1.381206098e-05)
(0.0005323998883 -0.0002813198573 -9.914331086e-06)
(0.0004728677517 -0.0002815562906 -6.403644485e-06)
(0.0004084443184 -0.0002817275652 -3.320584005e-06)
(0.0003397551233 -0.0002818416592 -6.982187093e-07)
(0.0002674932429 -0.0002819188967 1.448049434e-06)
(0.000192482451 -0.0002819660578 3.006155394e-06)
(0.0001158491375 -0.0002819296286 3.872777969e-06)
(3.826763645e-05 -0.0002759911377 4.451647513e-06)
(0.0002835901863 -0.0001381356842 -9.582832151e-05)
(0.0003522441188 -0.000142768607 -9.397757865e-05)
(0.0004178376433 -0.0001473084307 -9.164116706e-05)
(0.0004796470225 -0.0001517323802 -8.884207916e-05)
(0.0005370011644 -0.0001560500457 -8.560540339e-05)
(0.0005892608079 -0.0001601956417 -8.196048293e-05)
(0.0006358326475 -0.0001641994454 -7.794215354e-05)
(0.0006762008923 -0.0001680455088 -7.359308224e-05)
(0.0007099059762 -0.0001717178172 -6.895829496e-05)
(0.0007365559773 -0.0001752086408 -6.408515528e-05)
(0.0007558302507 -0.0001785084976 -5.902573347e-05)
(0.000767489019 -0.0001816155688 -5.383146829e-05)
(0.0007713762454 -0.0001845249963 -4.855887825e-05)
(0.0007674164013 -0.0001872357931 -4.326451913e-05)
(0.0007556210296 -0.0001897477987 -3.800552712e-05)
(0.00073608681 -0.000192061784 -3.283909721e-05)
(0.000708998299 -0.0001941846529 -2.782187988e-05)
(0.0006746263212 -0.0001961177855 -2.301066754e-05)
(0.0006333083075 -0.0001978584717 -1.845763435e-05)
(0.0005854547772 -0.0001994130631 -1.420976561e-05)
(0.0005315539457 -0.0002007818216 -1.03068058e-05)
(0.0004721567515 -0.0002019719271 -6.78657855e-06)
(0.0004078635299 -0.0002029848857 -3.694779667e-06)
(0.0003392961682 -0.0002038150486 -1.065377484e-06)
(0.0002671453772 -0.0002044747297 1.084341273e-06)
(0.0001922410494 -0.0002049668086 2.645080937e-06)
(0.0001157103904 -0.0002052409158 3.516115017e-06)
(3.822024049e-05 -0.0002003811473 4.105357974e-06)
(0.0002782561106 -3.442655877e-05 -9.546125293e-05)
(0.0003469198949 -3.955829819e-05 -9.364005261e-05)
(0.0004125668348 -4.47514346e-05 -9.133267908e-05)
(0.0004744288656 -4.997165896e-05 -8.855883529e-05)
(0.0005318792063 -5.514818739e-05 -8.534364569e-05)
(0.0005842628513 -6.032621266e-05 -8.172624812e-05)
(0.000630941599 -6.542308108e-05 -7.773241739e-05)
(0.0006714448796 -7.044341435e-05 -7.340657987e-05)
(0.0007053058826 -7.53472771e-05 -6.87934626e-05)
(0.0007321281998 -8.013602135e-05 -6.393936466e-05)
(0.0007515881632 -8.478563753e-05 -5.889865775e-05)
(0.0007634436612 -8.927790693e-05 -5.372040262e-05)
(0.0007675390675 -9.359241963e-05 -4.846244139e-05)
(0.0007637960466 -9.771461761e-05 -4.318181407e-05)
(0.0007522257364 -0.0001016297251 -3.79348721e-05)
(0.0007329193938 -0.0001053195134 -3.277914055e-05)
(0.0007060625162 -0.0001087937136 -2.777064302e-05)
(0.0006719307594 -0.0001120225429 -2.296533388e-05)
(0.0006308589783 -0.0001149937438 -1.842021039e-05)
(0.0005832564548 -0.000117695797 -1.417699787e-05)
(0.0005296084767 -0.0001201165209 -1.028082515e-05)
(0.0004704644658 -0.0001222613249 -6.766952183e-06)
(0.0004064337016 -0.0001241202487 -3.677525341e-06)
(0.0003381299276 -0.000125654307 -1.052094797e-06)
(0.0002662361452 -0.0001268955103 1.094371038e-06)
(0.0001915915195 -0.0001278320316 2.652240688e-06)
(0.0001153222394 -0.0001284167537 3.522240728e-06)
(3.809118151e-05 -0.0001246457385 4.114111141e-06)
(0.0003409805348 6.234381972e-05 -9.262714375e-05)
(0.0004064774573 5.65935113e-05 -9.035693085e-05)
(0.0004683049327 5.069625363e-05 -8.761666947e-05)
(0.0005257050751 4.47015209e-05 -8.443297681e-05)
(0.0005780516039 3.859098138e-05 -8.084119059e-05)
(0.0006247954966 3.244523084e-05 -7.688594019e-05)
(0.0006653743435 2.631409706e-05 -7.259759024e-05)
(0.0006993321106 2.019738744e-05 -6.802285634e-05)
(0.0007262594886 1.413738068e-05 -6.320078199e-05)
(0.0007458571986 8.202628546e-06 -5.819484545e-05)
(0.0007578815487 2.377417808e-06 -5.30472219e-05)
(0.0007621725242 -3.302278825e-06 -4.782026185e-05)
(0.000758648431 -8.814599292e-06 -4.257275923e-05)
(0.0007473247981 -1.413142382e-05 -3.735409149e-05)
(0.0007282715832 -1.920675952e-05 -3.22267751e-05)
(0.00070168595 -2.401281695e-05 -2.724423218e-05)
(0.0006678627059 -2.85158378e-05 -2.246152434e-05)
(0.0006271193472 -3.270282288e-05 -1.793640774e-05)
(0.0005798663405 -3.655465117e-05 -1.371892283e-05)
(0.0005265734084 -4.005021398e-05 -9.845081037e-06)
(0.0004677890813 -4.314282717e-05 -6.350054228e-06)
(0.000404162138 -4.582612431e-05 -3.27319576e-06)
(0.0003362686772 -4.811933671e-05 -6.601529736e-07)
(0.0002647692449 -4.996388938e-05 1.477963932e-06)
(0.0001905361897 -5.136630824e-05 3.028040807e-06)
(0.0001146855263 -5.226669392e-05 3.892082242e-06)
(3.788001143e-05 -4.957329266e-05 4.478798108e-06)
(0.0003345527698 0.000161570487 -9.094023038e-05)
(0.0003998611076 0.0001552657633 -8.870462711e-05)
(0.0004614564741 0.0001487318804 -8.600586785e-05)
(0.0005186740977 0.000141944054 -8.287257397e-05)
(0.0005708929138 0.0001350105327 -7.932358873e-05)
(0.0006175490945 0.0001279119147 -7.540706635e-05)
(0.0006580839315 0.0001207386388 -7.116445805e-05)
(0.0006920223967 0.0001134922341 -6.663290074e-05)
(0.0007190431013 0.0001062402259 -6.185670891e-05)
(0.0007387591428 9.902513791e-05 -5.69085019e-05)
(0.0007508928637 9.188780901e-05 -5.182176512e-05)
(0.0007553295772 8.48663591e-05 -4.664533135e-05)
(0.0007519823683 7.802250823e-05 -4.144045114e-05)
(0.0007408887482 7.139344365e-05 -3.627687686e-05)
(0.0007221396281 6.500236632e-05 -3.118843952e-05)
(0.0006959070888 5.894871395e-05 -2.624947775e-05)
(0.0006624506645 5.322111454e-05 -2.151673905e-05)
(0.0006220892159 4.785933756e-05 -1.702472064e-05)
(0.0005752409699 4.291808229e-05 -1.283566814e-05)
(0.0005224212805 3.841526705e-05 -8.981471871e-06)
(0.0004641633787 3.440628438e-05 -5.525312109e-06)
(0.0004010046984 3.091421486e-05 -2.477434396e-06)
(0.000333615961 2.791108927e-05 1.171545742e-07)
(0.0002626936498 2.550170587e-05 2.234728194e-06)
(0.0001890438114 2.370654928e-05 3.772476466e-06)
(0.0001138042101 2.252128204e-05 4.630097709e-06)
(3.759753143e-05 2.414381298e-05 5.207525087e-06)
(0.000327514522 0.0002573812518 -8.85803863e-05)
(0.0003924714696 0.0002505463308 -8.640413884e-05)
(0.0004537719877 0.0002433276436 -8.375041981e-05)
(0.0005107362836 0.0002357947275 -8.067136014e-05)
(0.0005627438668 0.0002279758998 -7.717378695e-05)
(0.0006092262949 0.000219968578 -7.33133195e-05)
(0.0006496439728 0.0002117496785 -6.913806369e-05)
(0.0006835159352 0.0002034172152 -6.467160883e-05)
(0.0007104775277 0.0001950202716 -5.997735081e-05)
(0.0007302003435 0.000186535138 -5.507853246e-05)
(0.000742435904 0.0001781010668 -5.004427334e-05)
(0.0007470470633 0.000169790239 -4.494177256e-05)
(0.000743951083 0.0001616347681 -3.980111314e-05)
(0.000733121385 0.0001537148094 -3.468974283e-05)
(0.0007146958707 0.0001460655743 -2.967675936e-05)
(0.0006888340327 0.0001387651223 -2.480118313e-05)
(0.0006557655328 0.0001318295288 -2.011472439e-05)
(0.0006158799603 0.000125351573 -1.568894116e-05)
(0.0005695639431 0.0001193670458 -1.155300197e-05)
(0.0005172879667 0.0001139154691 -7.760838098e-06)
(0.0004596062372 0.000109050005 -4.332260743e-06)
(0.0003970765757 0.0001048064988 -1.323447266e-06)
(0.0003303642226 0.0001012152673 1.225450706e-06)
(0.0002601824318 9.829102258e-05 3.326417796e-06)
(0.0001872590801 9.60779118e-05 4.849659081e-06)
(0.0001127030483 9.461898432e-05 5.686667533e-06)
(3.722863189e-05 9.51881351e-05 6.238889269e-06)
(0.0003200597258 0.0003486920435 -8.556586732e-05)
(0.0003845299556 0.0003413791087 -8.344085968e-05)
(0.0004453638627 0.0003335803158 -8.08559379e-05)
(0.0005019267452 0.0003253603355 -7.782263746e-05)
(0.0005536279957 0.0003167643418 -7.439698708e-05)
(0.0005998476667 0.0003078312608 -7.062691224e-05)
(0.0006400277809 0.0002986249535 -6.651634418e-05)
(0.000673771972 0.0002892211623 -6.212879785e-05)
(0.000700626152 0.0002796770248 -5.750435938e-05)
(0.0007203017149 0.0002700828799 -5.268955558e-05)
(0.0007326255446 0.000260489775 -4.77441898e-05)
(0.0007373661739 0.0002509501153 -4.271016486e-05)
(0.0007344453376 0.000241564633 -3.765913842e-05)
(0.0007239039849 0.0002323892897 -3.264140316e-05)
(0.0007058306648 0.0002235211081 -2.770772387e-05)
(0.0006803766643 0.0002149983043 -2.290515885e-05)
(0.0006478175914 0.0002069320265 -1.829159172e-05)
(0.000608493745 0.000199352238 -1.394038431e-05)
(0.0005627652304 0.0001923418327 -9.868827979e-06)
(0.0005111663484 0.0001859692343 -6.129424821e-06)
(0.0004542263511 0.000180240268 -2.775276448e-06)
(0.0003924577423 0.00017524824 1.902257385e-07)
(0.0003265082449 0.000171036721 2.724164245e-06)
(0.0002570894153 0.0001676254124 4.792966056e-06)
(0.0001850217398 0.0001650281091 6.285246168e-06)
(0.0001113638775 0.0001632746908 7.089362857e-06)
(3.678250379e-05 0.0001628730598 7.634645892e-06)
(0.000312155533 0.0004342627357 -8.19650523e-05)
(0.0003759859251 0.0004265229373 -7.988482079e-05)
(0.00043629691 0.0004182126505 -7.736192784e-05)
(0.0004923915005 0.0004093667762 -7.441082919e-05)
(0.0005436211281 0.0004000557829 -7.10710929e-05)
(0.000589437752 0.0003903064013 -6.736072769e-05)
(0.0006293419515 0.0003802210989 -6.333557775e-05)
(0.0006628453102 0.0003698612314 -5.90356615e-05)
(0.0006895992972 0.0003593027432 -5.450221346e-05)
(0.0007092687835 0.00034863251 -4.979201084e-05)
(0.0007215637594 0.0003379359986 -4.494226619e-05)
(0.0007264014161 0.0003272684123 -4.002265692e-05)
(0.0007237028636 0.0003167400181 -3.506542095e-05)
(0.0007134374991 0.0003064271362 -3.013602276e-05)
(0.0006957238236 0.000296447424 -2.530215113e-05)
(0.0006707367456 0.0002868265478 -2.059724975e-05)
(0.0006386969895 0.0002776918095 -1.6088488e-05)
(0.0005999632678 0.0002691009139 -1.180792547e-05)
(0.0005549641758 0.0002611490761 -7.816037793e-06)
(0.0005040861533 0.0002539038008 -4.157038746e-06)
(0.0004479104771 0.0002474005348 -8.279637952e-07)
(0.0003870362674 0.0002416901996 2.051849957e-06)
(0.0003220483668 0.000236869147 4.523162316e-06)
(0.000253627788 0.0002329799295 6.547431882e-06)
(0.0001825057118 0.0002300449346 8.014623393e-06)
(0.0001098360708 0.0002280443542 8.822748192e-06)
(3.630440754e-05 0.0002266956662 9.303666149e-06)
(0.0003039049459 0.0005131536232 -7.775972716e-05)
(0.0003670207726 0.0005050912916 -7.575420503e-05)
(0.0004266480014 0.0004963320524 -7.330403194e-05)
(0.0004821191815 0.0004869428928 -7.042897458e-05)
(0.0005328347916 0.0004769794756 -6.716815349e-05)
(0.0005782097602 0.0004665116338 -6.355608129e-05)
(0.0006177238461 0.0004556202546 -5.9633742e-05)
(0.0006509517931 0.000444389839 -5.544098622e-05)
(0.0006774673546 0.0004329109735 -5.102152912e-05)
(0.0006969923363 0.0004212436334 -4.641074569e-05)
(0.0007093190407 0.0004095103119 -4.167474756e-05)
(0.0007142430657 0.0003978259369 -3.685300191e-05)
(0.0007117091852 0.0003862458091 -3.201935105e-05)
(0.0007017663988 0.0003749156292 -2.720353119e-05)
(0.0006844480121 0.0003638805699 -2.247405492e-05)
(0.0006599157879 0.0003532659594 -1.788717243e-05)
(0.0006284803314 0.000343158785 -1.347870451e-05)
(0.0005904469525 0.0003336628774 -9.31168615e-06)
(0.0005461863759 0.000324841327 -5.412881222e-06)
(0.00049616779 0.0003167784071 -1.832427253e-06)
(0.0004409023637 0.0003095830091 1.374504237e-06)
(0.0003809689236 0.0003032533104 4.216257857e-06)
(0.0003170061035 0.0002978879223 6.634870138e-06)
(0.0002496452047 0.0002935461875 8.617842415e-06)
(0.000179639041 0.0002902452793 1.005380473e-05)
(0.0001081011067 0.0002880268139 1.082273093e-05)
(3.572785795e-05 0.0002857680473 1.127679821e-05)
(0.0002953621652 0.0005845752254 -7.303452652e-05)
(0.0003576350702 0.0005762124929 -7.109813543e-05)
(0.0004164985705 0.0005670600293 -6.873460505e-05)
(0.0004712794689 0.0005571775234 -6.594554958e-05)
(0.0005213323641 0.000546647871 -6.278264935e-05)
(0.0005661366735 0.0005355257074 -5.926654815e-05)
(0.0006052089118 0.0005239176301 -5.545131851e-05)
(0.0006380713359 0.0005119022577 -5.137241298e-05)
(0.0006643486997 0.000499574923 -4.707014308e-05)
(0.0006837405842 0.000487065232 -4.258834332e-05)
(0.0006960169321 0.0004744569472 -3.798098211e-05)
(0.000701021748 0.0004618494298 -3.329663207e-05)
(0.0006987095967 0.000449368219 -2.85955738e-05)
(0.0006890388426 0.000437095993 -2.391751877e-05)
(0.0006721058127 0.0004251331758 -1.930849381e-05)
(0.0006481309678 0.0004136288504 -1.48382093e-05)
(0.0006173115961 0.0004026725306 -1.055049544e-05)
(0.000579980386 0.0003923491203 -6.484464212e-06)
(0.0005365445415 0.0003827546389 -2.690073786e-06)
(0.0004874404995 0.0003739780585 7.915290314e-07)
(0.0004331557312 0.0003661285662 3.927675212e-06)
(0.0003742778875 0.0003592645129 6.679706639e-06)
(0.0003114586747 0.0003534502604 9.036092209e-06)
(0.0002452908577 0.000348717643 1.095569157e-05)
(0.0001764942208 0.000345120198 1.235855621e-05)
(0.0001061935022 0.000342681605 1.309517432e-05)
(3.510284194e-05 0.0003396172969 1.350351316e-05)
(0.0002865684514 0.0006475573835 -6.783991048e-05)
(0.0003479132297 0.0006389676097 -6.59785459e-05)
(0.0004058824906 0.000629501144 -6.367918117e-05)
(0.0004598512371 0.0006192195448 -6.099229546e-05)
(0.0005092144812 0.0006082068435 -5.793175927e-05)
(0.0005534130046 0.0005965701905 -5.453480968e-05)
(0.0005919526205 0.0005843728918 -5.084090165e-05)
(0.000624395911 0.0005717176975 -4.688764212e-05)
(0.0006503722341 0.0005587054423 -4.272422015e-05)
(0.0006695906891 0.0005454510311 -3.837192195e-05)
(0.0006818106455 0.0005320557717 -3.391137008e-05)
(0.0006868733015 0.0005186466177 -2.936850453e-05)
(0.0006847051692 0.0005053421721 -2.479791665e-05)
(0.0006753279281 0.0004922352625 -2.026240775e-05)
(0.0006588472716 0.000479495112 -1.580072408e-05)
(0.0006354130249 0.0004672015462 -1.146516992e-05)
(0.0006052658682 0.0004554949207 -7.306269352e-06)
(0.000568718153 0.0004444735556 -3.367507037e-06)
(0.0005261450233 0.000434230646 3.108915313e-07)
(0.0004780301047 0.0004248664589 3.683829082e-06)
(0.0004248510889 0.0004164466547 6.71337916e-06)
(0.0003671379274 0.0004091003069 9.381979128e-06)
(0.0003055003358 0.0004028726479 1.166131866e-05)
(0.0002405585058 0.0003978029306 1.354479962e-05)
(0.0001730714619 0.0003939481858 1.490324482e-05)
(0.000104127052 0.0003913279639 1.560424197e-05)
(3.443152773e-05 0.0003875284182 1.596248407e-05)
(0.0002776287076 0.0007013864346 -6.223798375e-05)
(0.0003379373005 0.0006926360638 -6.045011584e-05)
(0.0003949551654 0.0006829351382 -5.824637197e-05)
(0.0004480492381 0.000672372099 -5.565655165e-05)
(0.0004966238716 0.0006610111709 -5.270576929e-05)
(0.0005401358665 0.0006489439284 -4.943003713e-05)
(0.0005780969531 0.0006362637472 -4.58656108e-05)
(0.000610070296 0.0006230773748 -4.204866794e-05)
(0.0006356939353 0.000609491698 -3.801241735e-05)
(0.0006546679838 0.0005956293367 -3.382551815e-05)
(0.0006667755225 0.0005815954161 -2.950600406e-05)
(0.0006718793998 0.0005675306546 -2.511794239e-05)
(0.000669896953 0.0005535576209 -2.070687367e-05)
(0.0006608417941 0.0005398226943 -1.632111307e-05)
(0.0006447960688 0.0005264312495 -1.201379215e-05)
(0.0006219486993 0.000513517999 -7.817289195e-06)
(0.000592517197 0.0005011737459 -3.811252524e-06)
(0.0005567827741 0.0004895475347 -3.12557739e-09)
(0.0005151547943 0.0004787408439 3.542615351e-06)
(0.0004680396177 0.0004688634755 6.79589722e-06)
(0.0004159561412 0.0004599857664 9.730441679e-06)
(0.0003594697486 0.0004522178387 1.231211707e-05)
(0.0002991341567 0.0004456145029 1.452003033e-05)
(0.0002355558488 0.0004402797206 1.633215685e-05)
(0.0001694546239 0.0004362266457 1.765081191e-05)
(0.0001019338829 0.0004334623923 1.831404755e-05)
(3.371559523e-05 0.0004290118128 1.861525532e-05)
(0.0002685870647 0.0007455216544 -5.62960764e-05)
(0.0003277845395 0.0007366955473 -5.458661221e-05)
(0.0003837763328 0.0007268638069 -5.247428183e-05)
(0.0004359341312 0.00071608601 -5.000022362e-05)
(0.0004836563907 0.0007044521163 -4.716149089e-05)
(0.0005264156993 0.0006920637249 -4.401363323e-05)
(0.0005637344351 0.0006790146196 -4.058389106e-05)
(0.0005951898901 0.0006654134747 -3.690981468e-05)
(0.0006204287323 0.0006513750006 -3.303029978e-05)
(0.0006391581956 0.0006370498644 -2.89933776e-05)
(0.00065115733 0.0006225454541 -2.483809383e-05)
(0.0006562863889 0.0006079897254 -2.061363318e-05)
(0.000654478093 0.0005935157884 -1.636722963e-05)
(0.000645735288 0.000579263897 -1.214693965e-05)
(0.0006301510003 0.0005653617431 -7.994148385e-06)
(0.0006078591579 0.0005519489544 -3.97223502e-06)
(0.0005791160155 0.0005391241371 -9.558718879e-08)
(0.0005442456905 0.0005270361397 3.564146908e-06)
(0.0005035804195 0.0005157970811 6.978431187e-06)
(0.0004575698688 0.0005055167191 1.01150368e-05)
(0.0004066920684 0.0004963034818 1.293170688e-05)
(0.0003514600396 0.0004882338821 1.541673621e-05)
(0.0002924768016 0.0004813923556 1.754728255e-05)
(0.0002303180826 0.000475817022 1.928680934e-05)
(0.0001656643722 0.0004715832633 2.056195265e-05)
(9.963525284e-05 0.0004686956034 2.118457977e-05)
(3.296566251e-05 0.0004636872478 2.142523726e-05)
(0.0002595415432 0.0007794279141 -5.010034532e-05)
(0.0003175833128 0.0007705917351 -4.847446821e-05)
(0.0003724720272 0.0007607009668 -4.646305794e-05)
(0.0004236000845 0.0007498162181 -4.407365899e-05)
(0.0004704176875 0.0007380249459 -4.136697475e-05)
(0.0005123857988 0.0007254547376 -3.835317767e-05)
(0.000549023859 0.0007121852052 -3.506552722e-05)
(0.0005799178701 0.0006983354231 -3.154012454e-05)
(0.0006047516878 0.0006840339011 -2.781214446e-05)
(0.0006232174284 0.0006693752893 -2.394879389e-05)
(0.0006350733862 0.00065452501 -1.996060173e-05)
(0.0006402104928 0.0006396121724 -1.590663453e-05)
(0.000638559504 0.0006247722931 -1.183137461e-05)
(0.0006301280878 0.0006101500895 -7.78126827e-06)
(0.0006149977244 0.0005958870306 -3.798587292e-06)
(0.0005933256736 0.0005821069579 6.870173468e-08)
(0.0005653394118 0.00056896852 3.775157256e-06)
(0.0005313349235 0.0005565681385 7.283899351e-06)
(0.0004916789221 0.0005450367417 1.055906802e-05)
(0.0004467737269 0.0005344905425 1.356033106e-05)
(0.0003971019915 0.000525018849 1.627545595e-05)
(0.0003432028974 0.0005167238935 1.865651801e-05)
(0.0002855883577 0.0005096909123 2.069276562e-05)
(0.0002248559579 0.0005039607804 2.238402755e-05)
(0.0001617210143 0.0004996082864 2.360698831e-05)
(9.725017017e-05 0.0004966365995 2.418688683e-05)
(3.218979698e-05 0.0004911684571 2.436468507e-05)
(0.000250531606 0.0008027481284 -4.372216053e-05)
(0.0003073551704 0.0007939751593 -4.217883927e-05)
(0.000361112145 0.0007841058894 -4.026295494e-05)
(0.0004111966559 0.0007732321533 -3.79956779e-05)
(0.0004570802142 0.0007614382031 -3.540249009e-05)
(0.0004982268457 0.0007487882765 -3.253444422e-05)
(0.0005341496581 0.0007354217907 -2.939044335e-05)
(0.0005644792875 0.0007214534079 -2.60225621e-05)
(0.0005888357333 0.0007070118944 -2.247209458e-05)
(0.0006069665491 0.0006921959688 -1.875463937e-05)
(0.0006186883576 0.0006771798432 -1.49388687e-05)
(0.0006238287324 0.0006620898077 -1.106052708e-05)
(0.0006223374618 0.0006470695135 -7.161169238e-06)
(0.0006142239213 0.0006322584727 -3.296745336e-06)
(0.0005995583374 0.0006177950578 5.16422112e-07)
(0.0005784933659 0.0006038223414 4.210231009e-06)
(0.0005512553694 0.0005904732248 7.756965988e-06)
(0.0005181381888 0.000577882799 1.111349045e-05)
(0.0004794956452 0.0005661762803 1.424655824e-05)
(0.0004357320309 0.000555456243 1.712019643e-05)
(0.0003873101241 0.0005458438281 1.971210544e-05)
(0.0003347385037 0.0005374171057 2.199302052e-05)
(0.0002785532972 0.0005302581924 2.394558946e-05)
(0.0002193198874 0.0005244579391 2.555779376e-05)
(0.00015771391 0.0005200480039 2.673369718e-05)
(9.481957791e-05 0.0005170309695 2.726967229e-05)
(3.139706871e-05 0.000511205621 2.738226763e-05)
(0.0002416648674 0.0008152785495 -3.725674335e-05)
(0.0002972463594 0.0008066516367 -3.579725695e-05)
(0.0003498433089 0.0007969102863 -3.39809437e-05)
(0.0003988716809 0.000786136341 -3.18302948e-05)
(0.0004437516047 0.0007744214431 -2.937335788e-05)
(0.0004840042289 0.0007618341197 -2.661555403e-05)
(0.0005192039437 0.0007485123844 -2.362191105e-05)
(0.0005489251778 0.0007345713017 -2.041021764e-05)
(0.0005728343813 0.0007201299085 -1.701802818e-05)
(0.000590673276 0.0007053463157 -1.348805809e-05)
(0.0006022301865 0.0006903227253 -9.844224736e-06)
(0.0006073627125 0.0006752153853 -6.14322612e-06)
(0.0006060160779 0.000660170481 -2.423644866e-06)
(0.000598192192 0.0006453413927 1.277653127e-06)
(0.0005839763602 0.0006308493861 4.897898552e-06)
(0.0005635199317 0.0006168447303 8.421826235e-06)
(0.0005370416269 0.0006034660461 1.180308548e-05)
(0.0005048290649 0.0005908415407 1.499647506e-05)
(0.0004672134749 0.0005790921349 1.798580789e-05)
(0.0004245927422 0.0005683376419 2.072867665e-05)
(0.0003774228073 0.0005586836107 2.320122172e-05)
(0.0003262002607 0.0005502178968 2.537881406e-05)
(0.0002714509773 0.0005430466533 2.724233398e-05)
(0.0002137186553 0.0005372189631 2.878316509e-05)
(0.000153661831 0.0005327890434 2.990955063e-05)
(9.236309776e-05 0.0005297569518 3.04024008e-05)
(3.059667802e-05 0.0005236781732 3.04481424e-05)
(0.0002329962726 0.0008169540667 -3.078439606e-05)
(0.0002873171079 0.0008085368032 -2.940456698e-05)
(0.0003387318359 0.0007989941629 -2.768343661e-05)
(0.0003866633571 0.0007884228303 -2.564304577e-05)
(0.0004305686858 0.0007768871662 -2.330421077e-05)
(0.0004699624168 0.0007645131955 -2.06936246e-05)
(0.0005044083557 0.000751387558 -1.784534824e-05)
(0.0005335165237 0.000737634263 -1.479070418e-05)
(0.0005569538641 0.0007233789767 -1.156290568e-05)
(0.0005744495417 0.0007087557983 -8.190721409e-06)
(0.0005858181548 0.0006938928528 -4.732334995e-06)
(0.0005909352384 0.0006789461359 -1.209757267e-06)
(0.0005897475573 0.0006640589489 2.328348295e-06)
(0.0005822371777 0.0006493497615 5.829753901e-06)
(0.0005684709801 0.0006349891092 9.278175852e-06)
(0.0005486205499 0.0006211075804 1.263304002e-05)
(0.0005228881561 0.0006078479557 1.584984454e-05)
(0.0004915483597 0.0005953361475 1.890349183e-05)
(0.0004549458243 0.000583688115 2.1740155e-05)
(0.0004134680863 0.0005730284803 2.434626606e-05)
(0.0003675430258 0.000563460863 2.670044834e-05)
(0.0003176798757 0.0005550834368 2.877558111e-05)
(0.0002643725366 0.0005479528132 3.05437669e-05)
(0.0002081308732 0.000542163287 3.201515453e-05)
(0.000149619115 0.0005377652008 3.309143592e-05)
(8.991254489e-05 0.0005347537779 3.354063236e-05)
(2.979828151e-05 0.0005285265715 3.351945043e-05)
(0.0002245964625 0.0008078369919 -2.438018632e-05)
(0.0002776537665 0.0007997183451 -2.307860191e-05)
(0.0003279008291 0.0007904955575 -2.144783877e-05)
(0.000374754982 0.0007802186567 -1.952887508e-05)
(0.0004176683703 0.0007689966118 -1.730763532e-05)
(0.0004561864487 0.0007569285152 -1.483208215e-05)
(0.0004898814362 0.0007441128713 -1.212839538e-05)
(0.000518370311 0.0007306887814 -9.229739886e-06)
(0.0005413305486 0.0007167572854 -6.165348505e-06)
(0.0005585065221 0.0007024607192 -2.970803434e-06)
(0.0005697104883 0.000687937155 3.150202105e-07)
(0.0005748165722 0.0006733200543 3.648993381e-06)
(0.0005737290337 0.0006587471455 6.996531777e-06)
(0.0005664795855 0.0006443452441 1.033939207e-05)
(0.0005531666482 0.0006302815803 1.362010845e-05)
(0.0005339113261 0.0006166850227 1.680255577e-05)
(0.0005089272396 0.0006036873102 1.984913986e-05)
(0.0004784727813 0.0005914196082 2.274446369e-05)
(0.0004428777335 0.0005800077182 2.544356663e-05)
(0.0004025265293 0.0005695583997 2.791992206e-05)
(0.0003578462785 0.0005601863009 3.015285725e-05)
(0.0003092822798 0.0005519771189 3.211714192e-05)
(0.0002573561643 0.0005449880351 3.381287624e-05)
(0.0002026060505 0.0005393129147 3.521492851e-05)
(0.0001456260969 0.0005350028875 3.624452602e-05)
(8.749377047e-05 0.0005320486906 3.664981538e-05)
(2.901123835e-05 0.0005257780578 3.656313257e-05)
(0.0002165625788 0.0007881136169 -1.813591854e-05)
(0.0002683992072 0.000780352403 -1.69138546e-05)
(0.0003174594672 0.000771522218 -1.53847498e-05)
(0.0003632099828 0.0007616575672 -1.354163519e-05)
(0.0004051612729 0.000750868285 -1.144713575e-05)
(0.0004428164877 0.0007392525035 -9.103626416e-06)
(0.0004757831572 0.0007269139246 -6.538034982e-06)
(0.0005036740458 0.0007139481223 -3.800869423e-06)
(0.0005261595774 0.0007004964364 -8.955651011e-07)
(0.0005430093737 0.0006866776562 2.125147256e-06)
(0.000554028287 0.0006726407763 5.236089422e-06)
(0.0005590915606 0.0006584927617 8.397592123e-06)
(0.000558138658 0.0006443822717 1.15797904e-05)
(0.0005511838006 0.00063046971 1.474231201e-05)
(0.0005382961504 0.0006168661214 1.784789559e-05)
(0.0005196085561 0.000603714899 2.086518268e-05)
(0.0004953258155 0.0005911406279 2.376732754e-05)
(0.000465715988 0.0005792702531 2.650401078e-05)
(0.0004310971345 0.0005682248273 2.906189022e-05)
(0.0003918446026 0.0005581092119 3.140921847e-05)
(0.0003483633383 0.00054901653 3.352882118e-05)
(0.0003010998482 0.0005410436945 3.539557371e-05)
(0.0002505569341 0.0005342873079 3.700140857e-05)
(0.0001972391314 0.0005287936842 3.833672556e-05)
(0.0001417426338 0.0005246275465 3.931820002e-05)
(8.513886271e-05 0.0005217703154 3.968194089e-05)
(2.824465179e-05 0.0005155589689 3.952992867e-05)
(0.0002089167937 0.0007581373432 -1.211221789e-05)
(0.0002595541054 0.0007508133697 -1.095886881e-05)
(0.0003075064743 0.0007424212432 -9.523697521e-06)
(0.0003522234387 0.000733069818 -7.792014033e-06)
(0.0003932265109 0.0007228219183 -5.808107992e-06)
(0.0004300544156 0.0007117792198 -3.594232048e-06)
(0.0004622766254 0.0007000413775 -1.173588295e-06)
(0.0004895512624 0.0006876923005 1.430329517e-06)
(0.0005115809516 0.0006748743145 4.173365319e-06)
(0.0005281184877 0.0006617055633 7.035678637e-06)
(0.0005389633598 0.0006482893427 9.974460026e-06)
(0.0005439891377 0.0006347757509 1.297499341e-05)
(0.0005431584408 0.000621316715 1.598542029e-05)
(0.0005364619618 0.0006080200168 1.898019854e-05)
(0.0005239795618 0.0005950215471 2.192477585e-05)
(0.0005058471199 0.0005824525976 2.478237842e-05)
(0.0004822603153 0.0005704408812 2.752529625e-05)
(0.0004534736825 0.0005591054984 3.011913374e-05)
(0.0004197928898 0.00054855418 3.254614484e-05)
(0.000381571934 0.0005388931733 3.477860222e-05)
(0.000339229274 0.000530209081 3.678356358e-05)
(0.000293213944 0.0005226014215 3.855455379e-05)
(0.0002439924244 0.0005161478352 4.008001406e-05)
(0.0001920692519 0.0005109064996 4.135075556e-05)
(0.0001380122063 0.0005069114529 4.228139791e-05)
(8.287594609e-05 0.0005041751321 4.260563047e-05)
(2.750660006e-05 0.000498121793 4.239099735e-05)
(0.0002017889513 0.000718371622 -6.399239177e-06)
(0.0002512544137 0.0007115394617 -5.325494921e-06)
(0.0002981028967 0.0007036992818 -3.946496116e-06)
(0.0003418289288 0.0006949356926 -2.317101407e-06)
(0.0003819351955 0.0006853363821 -4.418052456e-07)
(0.0004179650339 0.0006749659661 1.639461279e-06)
(0.0004495065613 0.0006639246954 3.929846031e-06)
(0.0004762190762 0.0006523288481 6.384805853e-06)
(0.00049781043 0.000640284551 8.980261005e-06)
(0.0005140076214 0.0006278985657 1.168030703e-05)
(0.0005246503519 0.0006152803276 1.448069135e-05)
(0.000529666908 0.0006025831275 1.732312863e-05)
(0.0005289506129 0.0005898960844 2.017054508e-05)
(0.0005224981835 0.0005773635805 2.301016528e-05)
(0.0005104044181 0.0005651283193 2.579741871e-05)
(0.0004927932617 0.0005532912483 2.850159436e-05)
(0.000469856212 0.0005419777091 3.109808277e-05)
(0.0004418395541 0.0005312924715 3.355961532e-05)
(0.0004090472855 0.0005213452423 3.585935345e-05)
(0.0003718317055 0.0005122366919 3.796950666e-05)
(0.000330590434 0.0005040650808 3.987121495e-05)
(0.0002857602303 0.000496903046 4.155024603e-05)
(0.000237798785 0.0004908261145 4.299570052e-05)
(0.0001871641874 0.0004858905721 4.420673918e-05)
(0.0001344463546 0.0004821278748 4.510939498e-05)
(8.071922573e-05 0.0004795493592 4.539080058e-05)
(2.680557502e-05 0.0004737523999 4.511868282e-05)
(0.0001951500344 0.0006693651912 -1.047145398e-06)