/*--------------------------------*- C++ -*----------------------------------*\
  =========                 |
  \\      /  F ield         | OpenFOAM: The Open Source CFD Toolbox
   \\    /   O peration     | Website:  https://openfoam.org
    \\  /    A nd           | Version:  8
     \\/     M anipulation  |
\*---------------------------------------------------------------------------*/
FoamFile
{
    version     2.0;
    format      ascii;
    class       volScalarField;
    location    "0.9";
    object      alphat;
}
// * * * * * * * * * * * * * * * * * * * * * * * * * * * * * * * * * * * * * //

dimensions      [1 -1 -1 0 0 0 0];

internalField   nonuniform List<scalar> 
67451
(
0.0001472104801
0.0001546007325
0.0001625113697
0.0001709674453
0.0001820727955
0.0001932967707
0.0002009730883
0.0002034041906
0.0002030726207
0.0002018659916
0.0001993849141
0.000128003675
0.0001315482488
0.0001365422705
0.0001393253706
0.0001418370343
0.0001465433049
0.000155662544
0.0001670327835
0.00017200586
0.000185385289
0.0001944411004
0.0001984661537
0.0002012557356
0.0002131844852
0.0002166655366
0.0002149414719
0.0002110342347
0.0002055486767
0.000199766394
0.0001944299161
0.0001918601983
0.0001921586737
0.0001933408904
0.0001960232675
0.0001994046921
0.0001864477899
0.0001203895201
0.0001322258124
0.0001404986887
0.0001448094801
0.000151321909
0.0001528293725
0.0001524162214
0.0001550654775
0.0001675798428
0.000185309175
0.0001732046302
0.0001726776095
0.0001809350976
0.00019250488
0.0002222136566
0.0002651249658
0.0002670856994
0.0002576096976
0.0002455008298
0.0002329634154
0.000221153688
0.0002126800033
0.000211480062
0.0002120924553
0.0002093381945
0.0002046968811
0.0002013933969
0.0001862041289
0.0001312713047
0.0001499693609
0.0001623976246
0.0001710578607
0.0001806554932
0.0001820324089
0.0001816599185
0.0001853850497
0.0002022968755
0.0002226566434
0.0002077260023
0.0001984706868
0.0002123423657
0.0002426808637
0.0002839603955
0.0003312719377
0.0003261885461
0.0003067092575
0.0002838465898
0.000261706319
0.0002426812533
0.0002335952165
0.0002384462924
0.0002399197738
0.0002318399009
0.0002181230003
0.0002052783566
0.0001852805514
0.0001759401558
0.000192785653
0.0002077275893
0.0002193446397
0.0002193946661
0.0002154498754
0.000218715689
0.0002381544486
0.0002564635058
0.0002460977555
0.0002390198641
0.0002651823732
0.0003059536572
0.0003499335246
0.0003906750604
0.0003825360763
0.0003564905629
0.0003243400315
0.000292017389
0.0002651679964
0.0002602619491
0.0002783471523
0.0002786443968
0.0002637655382
0.000239936602
0.0002147549756
0.0001846754395
0.0002102461468
0.000229674797
0.0002493896109
0.000261400932
0.0002661760542
0.0002492308335
0.0002497286221
0.0002718326308
0.0002856029165
0.0002781000517
0.0002699110379
0.0003118017615
0.0003708694486
0.000420457041
0.0004523587692
0.0004412164095
0.0004093337222
0.0003690261344
0.0003269654768
0.000292001427
0.0002987457426
0.0003417165711
0.0003292269215
0.0003047646157
0.0002714649266
0.0002337856197
0.0001875443496
0.0002534802516
0.0002717812153
0.0002934769766
0.0003052050448
0.000296063862
0.0002833590642
0.0002820595769
0.0003075822476
0.0003191450448
0.0003078870678
0.0002972467447
0.0003591334997
0.0004335461906
0.000485215115
0.0005106392374
0.0004979719996
0.0004616641109
0.0004144003434
0.0003643994616
0.0003235461546
0.0003640115923
0.0004642044917
0.0004053460389
0.0003556670631
0.0003104251875
0.0002623602648
0.0001977848092
0.0003076699099
0.0003198835
0.000339687411
0.0003508808183
0.0003372460368
0.000315341912
0.0003128171216
0.0003423483089
0.0003558289545
0.0003417127019
0.0003216201316
0.0003934942918
0.000476364778
0.0005252464131
0.0005481370955
0.0005366508973
0.0005008746317
0.0004503471373
0.0003922122598
0.0003568782437
0.0004994756808
0.0006955611075
0.000562395001
0.0004299144135
0.0003559254279
0.0002965894394
0.0002162207538
0.0003737171239
0.0003755248278
0.0003866334658
0.0003953885227
0.0003771322014
0.000342352065
0.0003308248085
0.0003577559353
0.0003738182418
0.0003661194654
0.0003383343098
0.0003124719434
0.0004057609089
0.0004900994557
0.0005234083351
0.0005050544632
0.0004581424894
0.0003900540264
0.0003183012969
0.0003485471757
0.0004558186292
0.0005211170816
0.0004677888991
0.0004262010358
0.0003773660686
0.0003217073903
0.0002352010627
0.0004494969008
0.000437259192
0.0004315222807
0.0004342369572
0.0004148994452
0.0003712185072
0.0003299493863
0.0003302271766
0.0003483546761
0.000345725987
0.0003205877253
0.000291374634
0.0003275625649
0.000415939113
0.0004632798403
0.000442477009
0.0003930930166
0.0003271241728
0.0002859176779
0.0003085808614
0.0004047568464
0.0004466840465
0.0004328406402
0.0003990223774
0.0003477290412
0.0002871450052
0.0002097672313
0.0005221471745
0.0004972091686
0.0004695643806
0.0004620769543
0.0004455713112
0.0004078220926
0.0003532990457
0.0003122321662
0.0003111134135
0.0003106226133
0.0002959908723
0.0002725361224
0.0002729571762
0.0003450178139
0.00039991092
0.0003763141921
0.0003272196714
0.0002907419866
0.0003068467193
0.0003289662383
0.0003553778995
0.0003865458605
0.0003785586027
0.0003485689271
0.000305738276
0.000254782111
0.0001941797628
0.0005668498892
0.0005328089237
0.0004917085903
0.0004714636654
0.0004557271069
0.0004274209385
0.0003830175899
0.0003337364079
0.0003020129456
0.000286958371
0.0002737952084
0.0002530217367
0.0002375909183
0.0002882931819
0.0003388354481
0.0003161207481
0.0002947508013
0.0003134353873
0.0003509863105
0.0003624778822
0.0003614188745
0.0003557210963
0.0003375631932
0.0003092892998
0.0002734007235
0.0002323355491
0.0001849410009
0.0005219582587
0.0004825717932
0.0004543737034
0.0004502526082
0.0004382220488
0.0004123972296
0.0003750424023
0.0003333115167
0.0002970983168
0.0002720910141
0.0002538490132
0.0002315184246
0.0002131202292
0.0002495469416
0.0002895285775
0.0002905187523
0.0003110431675
0.0003468913206
0.0003737829528
0.0003796184863
0.0003751580885
0.0003595777948
0.0003348571566
0.0003064890392
0.0002772443531
0.0002435609478
0.0001917569598
0.0004494420296
0.0004189035808
0.000413067689
0.0004188460537
0.0004084143037
0.0003846186646
0.0003523244286
0.0003171085669
0.0002829963154
0.000254192299
0.0002317639579
0.0002068830205
0.0001985093038
0.0002345062112
0.0002709321526
0.0002966455488
0.0003333013262
0.0003637645289
0.0003829870852
0.0003868583081
0.0003818620302
0.000367210897
0.0003441516635
0.0003166123506
0.0002890009763
0.0002564156904
0.0002003924703
0.0003783323264
0.0003601948521
0.0003693648653
0.0003797179704
0.0003713272451
0.0003506418074
0.0003231761262
0.0002926024951
0.0002600932
0.0002305397476
0.0002065862907
0.0001828776797
0.000195868085
0.0002331821568
0.0002700943088
0.0003040424691
0.0003409866397
0.0003674528971
0.0003839457046
0.0003875647399
0.0003826666879
0.0003693825587
0.0003482489042
0.000321254994
0.0002924464432
0.0002589870893
0.0002027872933
0.0003239387107
0.0003162827331
0.0003247859854
0.000337000671
0.0003320581985
0.0003153060231
0.0002916756753
0.0002633807711
0.0002324409765
0.0002046778145
0.0001825467132
0.0001718016502
0.0002018495322
0.0002330365039
0.0002672836872
0.000301597743
0.0003370189572
0.0003626745161
0.0003789455695
0.0003832715998
0.000379003936
0.0003671965081
0.0003480972978
0.0003226954536
0.0002938749186
0.0002610145474
0.0002063310569
0.0003149214975
0.0003014786099
0.0002929891745
0.0002969773838
0.0002931528436
0.0002797755006
0.0002592055018
0.0002335413477
0.000206398883
0.0001828898382
0.0001658137015
0.0001757272577
0.0002143405774
0.0002343158727
0.0002589193152
0.0002905566807
0.0003254990448
0.0003520428796
0.0003692325005
0.0003749523702
0.0003718599602
0.0003619396912
0.0003453282685
0.0003225401156
0.0002950399401
0.0002639131538
0.0002113745902
0.0003277105214
0.0003116243407
0.0002904493212
0.0002761354619
0.0002654332192
0.0002516608344
0.0002333341036
0.0002116636598
0.0001896309932
0.000170504465
0.0001603932503
0.0001885823617
0.0002271024252
0.000242023459
0.0002528949473
0.0002746187711
0.0003078852683
0.0003365440913
0.0003553777179
0.0003629221606
0.0003613704614
0.000353542746
0.0003395530982
0.0003197745239
0.000294937953
0.0002668086001
0.0002168963244
0.000332723067
0.0003202512126
0.000299789226
0.0002768720214
0.0002578361957
0.0002407741407
0.0002230798879
0.0002043158549
0.0001855162992
0.0001682526062
0.000165297019
0.0002026673183
0.0002358675064
0.0002525213035
0.0002575144778
0.0002614273039
0.0002859119497
0.0003163868046
0.0003376950755
0.0003471567343
0.0003473062171
0.0003415140696
0.0003299672964
0.000313018365
0.0002912019353
0.0002660699679
0.0002191156751
0.0003321393967
0.0003176079582
0.0003006976534
0.0002792689171
0.0002597227896
0.0002419139473
0.000224593717
0.0002069168161
0.0001890212269
0.0001715115273
0.0001736446968
0.0002111722926
0.0002390202497
0.0002562117163
0.0002626429317
0.0002587153313
0.0002654569097
0.0002921488122
0.0003165919365
0.0003278798653
0.0003298360369
0.0003259491713
0.0003166242698
0.0003022596656
0.000283350946
0.0002611105395
0.0002176614126
0.0003727272953
0.000313939313
0.0002932101005
0.0002755984496
0.000258993052
0.0002429194
0.0002271219125
0.0002103796633
0.0001931648303
0.000175134905
0.0001789917872
0.0002124447006
0.0002360417864
0.0002527178238
0.0002604097332
0.000257582693
0.0002536356395
0.0002678998897
0.0002917828122
0.0003056772315
0.0003097214406
0.0003076687538
0.0003003733819
0.0002883208688
0.0002720214429
0.0002521649358
0.0002128068327
0.0003207549073
0.0002907472435
0.0002880501693
0.0003402882694
0.0002788441353
0.0002480463007
0.0002297650906
0.0002137819376
0.0001957093104
0.0001757212079
0.0001790709544
0.0002078324323
0.0002282547961
0.0002442555915
0.0002521117497
0.000252149926
0.0002460408883
0.0002486878561
0.0002660884148
0.0002817011171
0.0002880251551
0.0002877940439
0.0002824014738
0.0002725063729
0.0002587770811
0.0002414022174
0.0002061490029
0.0002840162249
0.0003020454323
0.0004367962369
0.0005324186403
0.0003951388675
0.0002925608139
0.0002409779997
0.0002154749715
0.0001948653377
0.0001729566233
0.000174004202
0.0001986622079
0.0002174307968
0.0002329378948
0.0002420295865
0.000243330772
0.0002378812834
0.0002343826402
0.0002431451787
0.0002576070842
0.0002656809553
0.0002671271013
0.000263482642
0.0002556457949
0.0002445087612
0.0002300102169
0.0001987876921
0.0003493124262
0.0004682505795
0.0006173627906
0.0007089165075
0.0005868012227
0.0004520135969
0.000340498791
0.0002553818389
0.0002029157811
0.0001705930057
0.0001657102532
0.0001855652838
0.0002048988353
0.0002205865447
0.0002313424262
0.0002334401831
0.0002282477459
0.0002226099266
0.0002247646288
0.0002351286174
0.0002434146588
0.0002459998166
0.0002438041519
0.0002379431806
0.0002291159342
0.0002176078463
0.0001906937338
0.0003895944345
0.0004999610671
0.0006206093212
0.0007391598991
0.0005971333958
0.0004712986903
0.0003691833637
0.0002777687999
0.0002102907064
0.0001700287022
0.0001586397015
0.0001711181476
0.000189494142
0.0002060720858
0.0002161893368
0.0002207003738
0.000216969466
0.0002114069126
0.0002097549578
0.0002157677082
0.0002223847622
0.0002251032759
0.0002239217119
0.0002196064391
0.0002128890782
0.0002043020571
0.0001819931918
0.0003510474495
0.0004441816915
0.0005319461903
0.0006381844618
0.000520645011
0.0004223847468
0.0003351695619
0.0002573025608
0.0001991581742
0.0001662367997
0.000155318275
0.0001598858836
0.0001736167867
0.0001902671201
0.0002011847188
0.000205955353
0.000204460884
0.0002001028541
0.0001970506383
0.0001997230213
0.0002039653662
0.0002059079982
0.0002050650217
0.0002019023855
0.0001971097562
0.0001911796997
0.0001730982915
0.000284938505
0.0003630018878
0.0004317949196
0.0005204165343
0.0004346863297
0.0003580155217
0.0002853502701
0.0002237857628
0.0001816592139
0.0001619559039
0.0001549235736
0.0001543231939
0.0001609399368
0.0001741723838
0.0001854011115
0.0001910698618
0.0001913371077
0.0001886386719
0.000186062356
0.0001870335467
0.0001892042793
0.0001900413136
0.0001891093412
0.0001866951523
0.0001833518532
0.0001793615587
0.0001642246281
0.0002437265972
0.0002843227093
0.0003432665644
0.0004180144016
0.0003551128058
0.0002923478569
0.0002356356186
0.0001918119413
0.0001675710264
0.0001589335594
0.0001550459136
0.0001525327426
0.0001535492075
0.0001606224131
0.0001694930531
0.0001754188952
0.0001774605637
0.0001770953376
0.0001763236038
0.0001771031449
0.00017814207
0.0001781633847
0.0001770127713
0.0001748956066
0.0001722547801
0.0001690871051
0.0001551645311
0.0002499340984
0.0002516205536
0.0002729058574
0.0003223917309
0.0002824320397
0.0002389937897
0.000200223903
0.0001723431945
0.0001598834888
0.0001565510319
0.0001544806277
0.0001519713126
0.0001503656296
0.0001518606227
0.0001559355209
0.0001600810282
0.0001631929823
0.0001654589147
0.0001671425253
0.000168713579
0.0001695424156
0.0001692249779
0.0001678414047
0.0001655241995
0.0001625481587
0.0001588909582
0.0001452025227
0.0002623604475
0.0002544871942
0.0002509118163
0.0002601183593
0.0002408552281
0.0002173151842
0.0001926495609
0.0001702866403
0.000157403161
0.000153469415
0.0001520940181
0.000150307912
0.0001480924763
0.0001464052457
0.0001458076015
0.0001464414494
0.0001488810868
0.0001529104074
0.0001568204381
0.0001595535952
0.0001607021878
0.000160323872
0.0001584907069
0.000155365684
0.0001533386139
0.0001479176066
0.0001337961935
0.0002513092446
0.0002482377384
0.0002440626007
0.0002397901158
0.0002312899812
0.0002193268104
0.0002026271672
0.0001808300977
0.0001593788557
0.0001471406218
0.0001434139308
0.0001419432868
0.0001399115256
0.000136882422
0.0001331651171
0.0001301266521
0.0001303140381
0.0001343943227
0.000139441772
0.0001429620785
0.0001444387738
0.0001441240713
0.0001419870124
0.000138654408
0.0001380002551
0.0001315986645
0.0001166297898
0.0003993101214
0.00041930068
0.0004424222088
0.0004616725764
0.0004550414056
0.0004544087073
0.0004590616628
0.0004584276218
0.0004468340265
0.0004238997232
0.0003917497841
0.0002913515432
0.0003243378328
0.0003515991192
0.0003622100629
0.0003565919243
0.0003504466367
0.0003514227481
0.0003554717872
0.0003681531056
0.0003897472528
0.0004132208634
0.0004319192673
0.0004364401714
0.0004247327014
0.0004002299829
0.0003686491346
0.0003398671462
0.0003198283037
0.0003004511459
0.000278392686
0.0002678855668
0.0002624836908
0.000260340619
0.0002651250853
0.0002810769263
0.0001720835752
0.0002309856862
0.000242668885
0.0002683704472
0.000298885759
0.0003314798543
0.0003478319233
0.0003244290593
0.0002900446448
0.0002657215756
0.0002537671193
0.0002469103053
0.0002672132161
0.0003127289839
0.000363418706
0.0004070419752
0.0004286230232
0.0004441586298
0.0004361076337
0.0004141982997
0.0003877007682
0.0003607338915
0.0003454496836
0.0003440470544
0.0003332690221
0.0003165235276
0.0003032971866
0.0003033596217
0.0001743861099
0.0002247310193
0.0002343919306
0.0002605533925
0.0002950167589
0.0003407731426
0.0003810061231
0.0003360750002
0.0002816953941
0.0002407044505
0.0002281900563
0.0002175415063
0.0002268491898
0.0002900603176
0.0004057592305
0.0005426615599
0.0006211600886
0.0006573109985
0.0006375710108
0.0005882966146
0.0005308495625
0.0004820462007
0.0004627000186
0.0004636525377
0.0004400947657
0.0003970895718
0.0003509217403
0.0003223848865
0.0001756655384
0.0002562041768
0.0002992145432
0.0003551671083
0.0004327641148
0.0005187758661
0.0004457300739
0.0003639248005
0.0002979360277
0.0002750304211
0.0002599593145
0.0002889630273
0.0004555154178
0.0007201464602
0.0009010216355
0.0009616922529
0.0009618709546
0.0009034632124
0.0008220805166
0.0007330391064
0.0006555437633
0.0006340591122
0.0006277391101
0.0005917265932
0.0005142254721
0.000415409264
0.0003407498115
0.0001762148827
0.000332229851
0.0004153064482
0.0005184741775
0.0006761171346
0.0009423046462
0.0006600530188
0.0005559327231
0.0004733376954
0.0004234297888
0.000370936103
0.0004023448251
0.000791429898
0.001119163047
0.001285755875
0.00133347243
0.001292950842
0.001173238638
0.001036726268
0.0009501908902
0.0008883098237
0.0009327763121
0.0009741587076
0.000860857062
0.0007015578875
0.0005167023856
0.0003678929352
0.0001772184779
0.0004992223507
0.0006393010003
0.0007756736617
0.0009120072911
0.0009870962043
0.000913873828
0.0008262479249
0.0007625969155
0.0007137676082
0.0006202550771
0.000590449145
0.001088452364
0.001392924641
0.001567913273
0.001619849021
0.001568706382
0.001415493209
0.001237903506
0.001169264949
0.001243990286
0.001526515456
0.00191271704
0.001390871709
0.0009864938373
0.0006835455334
0.0004233957221
0.0001805740327
0.000804031039
0.0009857608134
0.00110886079
0.001193584352
0.001236722784
0.001203371767
0.001113070823
0.001050371427
0.001012127517
0.0009335076529
0.0008419202937
0.001116727819
0.001447583089
0.001647661257
0.001713264115
0.001665882326
0.001516232574
0.001352438576
0.001348909857
0.001625606185
0.002596978667
0.002773732017
0.00247915393
0.001456011464
0.0009167629112
0.0005293114161
0.0001874337937
0.001180729516
0.00136472926
0.001438608639
0.001464167194
0.001475962146
0.001442422072
0.00133027678
0.001215734456
0.001143645472
0.001049413442
0.0009311074137
0.001014186561
0.001362509714
0.001564037791
0.001636520479
0.001609924925
0.001508024678
0.001436116543
0.001444386489
0.001641399203
0.001944194467
0.002346280632
0.001778792031
0.001339162157
0.0009376886335
0.0005764809459
0.0001903248087
0.001592093287
0.001741869151
0.001744975029
0.001686142045
0.001640627974
0.001587239488
0.001464045578
0.00128383494
0.001120337478
0.0009537940555
0.0007419459066
0.0006314303867
0.0008598237459
0.001212507646
0.001339539399
0.001373670956
0.001375009756
0.001365139763
0.00145993129
0.00162239638
0.001700765632
0.001689687845
0.001483760701
0.001194347352
0.0008371636225
0.0005017858415
0.000178230257
0.001880387725
0.001989667753
0.001954737501
0.001827960461
0.001713193657
0.00159688706
0.001443700439
0.001234930624
0.001003141798
0.000786202895
0.0005881328503
0.0004349791983
0.0005054874262
0.0008109903649
0.001025183213
0.001170880005
0.001259623688
0.001358258169
0.001500470807
0.001591903283
0.001611881695
0.001513596136
0.001292277924
0.0009386019263
0.0005622588762
0.0003568127756
0.0001709651043
0.001952884476
0.002028850957
0.001985352679
0.001842873499
0.001689241993
0.001517155579
0.001309393861
0.001076119732
0.0008399426075
0.000637962218
0.0004792164388
0.0003346470227
0.0003548206291
0.0005456561192
0.0008087801196
0.001032940964
0.001231735045
0.001389739308
0.001473453636
0.001530845332
0.001526364068
0.001412351648
0.001165651546
0.0007830056859
0.0004707742235
0.0003213129183
0.000168451081
0.001870367095
0.00195928093
0.001894474087
0.001738019561
0.001580660448
0.001391957239
0.001158683531
0.0009146663929
0.0006897496907
0.0005034255793
0.0003720565716
0.0002688775352
0.000289800585
0.0004344410598
0.0006706952636
0.000972359461
0.001250251571
0.001389996293
0.001468713052
0.001510962439
0.001489703097
0.001377139163
0.001154562145
0.0008194757415
0.0005130907613
0.0003388359395
0.0001734989553
0.001676575177
0.001766682443
0.001697716387
0.001553795161
0.001402096172
0.001211371378
0.0009827947163
0.0007570446053
0.0005467618267
0.0003914746499
0.0002935686068
0.000231763285
0.0002643666863
0.0003884470291
0.0006161618306
0.0009710373907
0.001246061709
0.001394794015
0.001479716604
0.001517128393
0.001490703691
0.001385200003
0.001191214615
0.000915786444
0.0006002954544
0.0003824157558
0.0001801125093
0.00156990774
0.001611188106
0.001513805149
0.001358436756
0.001197010334
0.001011931224
0.0008117811355
0.0006196546681
0.0004372126636
0.0003206592026
0.0002499028531
0.0002258094026
0.000277858714
0.0003867245251
0.0005944599491
0.0009646463051
0.001235771422
0.001393718864
0.001483037163
0.001520444989
0.001496531078
0.001402161495
0.001232811456
0.0009941571705
0.0006863905754
0.0004319598688
0.0001846718763
0.001529797003
0.001514717892
0.001391542822
0.001207726456
0.001024717402
0.0008471864494
0.0006771831803
0.0005088682073
0.0003728322155
0.0002840141558
0.0002313104868
0.000248387598
0.0003438896914
0.0004474764608
0.000613357244
0.0009351175593
0.001215504808
0.001372858401
0.001462350007
0.001500975205
0.001482839864
0.001401297777
0.001253778406
0.001044925336
0.0007708672246
0.000491794044
0.000187743842
0.001490496055
0.001443072638
0.001306222295
0.001104200506
0.000898023639
0.000717135664
0.0005609072807
0.0004354077071
0.0003383408966
0.0002664914225
0.0002288640913
0.0002822587424
0.0004520547723
0.0005799686879
0.0007015130084
0.000928410527
0.001187870849
0.001327220028
0.001411018166
0.00144963139
0.001437927779
0.001369657092
0.001242702883
0.001061009478
0.0008269243703
0.0005605280039
0.0001940809118
0.001447384426
0.001373112981
0.00122627969
0.001022399679
0.0007932490223
0.00061434632
0.0004887039091
0.0003932411548
0.0003158067741
0.0002556079412
0.0002368129269
0.0003306206756
0.0005518107211
0.0007312041365
0.000845704533
0.0009783189102
0.001153599435
0.001260367942
0.001330532529
0.00136562912
0.001359093276
0.00130357996
0.001196511398
0.001040805947
0.0008403723848
0.0005703961271
0.0001999383015
0.001401292875
0.001297629632
0.001143649032
0.0009457286984
0.0007352186793
0.0005679288977
0.0004537534805
0.0003670055086
0.0002966124131
0.0002455813911
0.0002494989595
0.0003835516829
0.0006266428462
0.0008063617943
0.0009278457423
0.001023018076
0.00111643217
0.001180969873
0.001228274222
0.001254378816
0.001249956884
0.001205530137
0.001117184462
0.0009863302665
0.0008148019726
0.0005582954453
0.000202378228
0.001285402584
0.001189811425
0.001045826848
0.0008656550379
0.0006858038898
0.0005382767198
0.0004315431612
0.0003546178758
0.0002840841159
0.0002363011974
0.0002605575996
0.0004234151365
0.0006509848409
0.0008120684849
0.0009220027381
0.001001437333
0.001059998536
0.00109261443
0.001113757552
0.00112599649
0.001119675559
0.001083560699
0.001011940336
0.0009045536184
0.0007623694115
0.0005318407755
0.0002011077217
0.001128520908
0.001062580206
0.0009369211897
0.000778368578
0.0006282599677
0.0005021519361
0.000420001358
0.0003362586121
0.0002706003128
0.000225583346
0.0002638590245
0.000434211337
0.0006337875398
0.000773197395
0.0008683567253
0.0009356051028
0.0009786510415
0.0009949351081
0.0009963892463
0.0009936739102
0.0009822651293
0.0009512261809
0.0008934136261
0.0008069232322
0.0006941150663
0.000506513656
0.0001956360654
0.0008941928646
0.0008876223387
0.0008738497923
0.0007145271826
0.0005491640229
0.0004510916439
0.000376357632
0.0003004227129
0.0002516434744
0.0002209878012
0.0002587758961
0.0004109055023
0.0005828087231
0.0007038867852
0.0007873345018
0.0008476969936
0.0008820874533
0.0008917418009
0.0008834260211
0.0008699559677
0.0008531012441
0.0008246539994
0.0007773260528
0.0007072718693
0.0006092664527
0.0004749378895
0.0001893827887
0.0007147340595
0.0008683060677
0.00121494141
0.001227980471
0.0007119732822
0.00039569116
0.0003262427145
0.0002656284133
0.0002290458223
0.0002156084073
0.0002505355531
0.0003678879204
0.0005143706471
0.0006224686562
0.0007137146434
0.0007541716453
0.000781151331
0.0007895258803
0.0007772740198
0.0007619421638
0.0007431391956
0.000716304809
0.0006756477051
0.0006169760132
0.0005226075375
0.0004182618909
0.0001832760966
0.0005716568406
0.0009235001038
0.001491813157
0.001638765649
0.001063281078
0.0004340960369
0.0002961724251
0.0002497073522
0.0002269117282
0.0002206323838
0.0002484133006
0.0003277625602
0.0004428606613
0.0005418127922
0.0006260955831
0.0006950015929
0.0006983801519
0.000694851152
0.0006753109596
0.0006687517503
0.0006546725904
0.0006300444021
0.0005925053267
0.0005293723947
0.0004472363487
0.0003607348577
0.0001769286297
0.0004759792002
0.0008105236372
0.001395729742
0.001628568359
0.001018852261
0.0003973137395
0.000289401953
0.0002480026024
0.000238369408
0.0002407854159
0.0002599532005
0.000305370686
0.0003793496834
0.0004588329753
0.0005265450795
0.0005979181336
0.0006153584512
0.0006052743243
0.0005895444558
0.0005853000072
0.0005784593998
0.00055657831
0.0005155831564
0.0004557328018
0.000388988444
0.000317949693
0.0001701384282
0.0003988961508
0.0005596983363
0.0009336808473
0.001117498418
0.0006766135277
0.0003321176076
0.0002660164189
0.0002431356943
0.0002503716723
0.0002647142265
0.0002787282177
0.0002980353903
0.0003316960796
0.0003819575178
0.0004345381625
0.0004862517822
0.0005112733371
0.0005174757014
0.0005162683843
0.0005184934783
0.0005146115708
0.0004943275604
0.0004554583322
0.000402648365
0.0003472755497
0.000288020895
0.0001629192467
0.000394790157
0.0003950234277
0.0005221684208
0.0005739207219
0.0004001889808
0.0002667925228
0.0002343198683
0.0002302775938
0.000251703139
0.0002768421202
0.0002893354656
0.0002927850385
0.0002993077377
0.0003191211997
0.0003489377751
0.0003854210147
0.000411667044
0.0004327577112
0.0004495001076
0.0004620955187
0.0004629119459
0.0004462005371
0.0004122342208
0.0003659004907
0.0003170585542
0.0002653614359
0.0001552371445
0.0004413549986
0.0003758946462
0.0003603272943
0.0003458391675
0.000280599913
0.0002284667474
0.0002100162011
0.0002143918362
0.000242260594
0.0002713797851
0.0002832069449
0.0002804070564
0.0002738381137
0.0002742825807
0.0002851675881
0.0003052327866
0.000328531745
0.0003570014616
0.0003860391542
0.0004079464122
0.0004147044193
0.0004032779515
0.0003754539618
0.0003356035301
0.000291256515
0.0002455735677
0.0001468696667
0.0004921968289
0.0004171960038
0.0003483048746
0.0003026562824
0.0002554757139
0.0002187218053
0.0002001820192
0.0002031300858
0.0002269101198
0.0002530168288
0.000264902897
0.0002621818678
0.0002527300215
0.0002450827413
0.0002444405833
0.000252348056
0.0002689709589
0.0002956803888
0.0003267778132
0.0003518231732
0.0003623492621
0.0003559292476
0.0003347361903
0.0003032857567
0.0002659067499
0.0002228234652
0.0001372096164
0.0004982636032
0.0004435474685
0.0003739086625
0.0003135273329
0.0002673521279
0.0002319702878
0.0002071998181
0.0001975551348
0.0002054085942
0.0002209441619
0.00023143357
0.0002320211044
0.0002256071825
0.0002175673594
0.0002127637882
0.0002141107204
0.000223770135
0.0002427562819
0.0002661638157
0.0002854640199
0.0002940094934
0.0002898668172
0.0002738023007
0.0002557878263
0.0002662891591
0.0002083875937
0.0001260732353
0.0002491402146
0.0002460096124
0.0002384333389
0.0002294015411
0.0002188887101
0.0002060237021
0.0001896488312
0.000170500497
0.0001535862621
0.0001446543277
0.0001420068504
0.0001406346662
0.000138300045
0.0001348873462
0.0001312279552
0.0001291506984
0.0001305485013
0.0001352328573
0.0001407595964
0.0001448802415
0.0001466871566
0.0001462179326
0.0001437820596
0.0001402739893
0.0001441283386
0.0001333767738
0.0001116559646
0.0006595303703
0.0006848961593
0.0006903496198
0.0006663108459
0.0006135727069
0.0005441746446
0.0005186902132
0.0005143804582
0.0005077242746
0.0004898614381
0.000459958715
0.000420171634
0.0003735932981
0.0003236804118
0.0002834921229
0.0004622795879
0.0005240759911
0.0005722646924
0.0005977195998
0.000599005599
0.0005838856992
0.0005576064682
0.000521986261
0.000487072836
0.000478195684
0.0004957424676
0.0005122029719
0.0005117986036
0.0004931863127
0.0004625553599
0.0004217242506
0.0003785231462
0.0003454703908
0.000317341269
0.000298614844
0.0002906192049
0.0002904305305
0.0002925789912
0.0002968925037
0.0002950127874
0.0001674756905
0.0003202187683
0.0003585777349
0.000411434235
0.0004679510618
0.0005147537524
0.0005370973579
0.0005223277028
0.0004840453064
0.0004436610927
0.0004058806834
0.0003775010556
0.0003799692002
0.0004365242857
0.0005070417361
0.0005549915792
0.0005717422062
0.000566274773
0.000538664335
0.0004985654697
0.0004582929153
0.0004236227666
0.0004009762491
0.0003912602348
0.0003824153001
0.0003666112737
0.0003488801925
0.00032766828
0.0001719767554
0.000297004099
0.000324428488
0.0003713992819
0.0004283293705
0.0004817011093
0.0005136114988
0.0004667194166
0.0004029375729
0.0003500039763
0.0003175925609
0.000299942125
0.0003373873241
0.0004865656993
0.0006430393038
0.0007602027029
0.0008193089928
0.000826592224
0.0007891912607
0.0007267347137
0.0006604910225
0.0006050390504
0.0005702258084
0.0005460409348
0.0005157888345
0.0004656317909
0.0004085273749
0.0003581780367
0.0001737705974
0.0003343099034
0.0003984413462
0.0004798373749
0.0005714225791
0.0006799896015
0.0005200449501
0.0004190046587
0.0003622433908
0.0003424223504
0.000352744449
0.0004812471504
0.0008021401828
0.001051957524
0.001186988995
0.001236987608
0.001210897596
0.001125460477
0.001021713198
0.0009341763185
0.0008612637481
0.0008131403646
0.0007706492179
0.0007089365978
0.0006033725898
0.0004842984643
0.0003888655497
0.0001737025265
0.0004262987284
0.0005470024143
0.000696536197
0.0009624624543
0.001071380324
0.0008242564607
0.0006108712528
0.0005609679957
0.0005425758173
0.000570174431
0.0008191799745
0.001246397876
0.001489435912
0.001627209596
0.001668104722
0.001614570117
0.001483408138
0.001340704941
0.001251499397
0.001216483544
0.001240057983
0.001231531621
0.00105381597
0.0008230965774
0.0006036460707
0.000431818418
0.0001741064771
0.0006351968294
0.0008299989388
0.001001513722
0.001139106551
0.001245072444
0.001076393429
0.000977600944
0.0009503221179
0.0009469457062
0.0009851560553
0.001225393115
0.001548155606
0.00177450964
0.0019119229
0.001953620285
0.00190127982
0.001767819907
0.001634169381
0.00160937618
0.001745344062
0.002092369839
0.002323644342
0.001765299135
0.001195027609
0.000808281683
0.0005157880339
0.0001776144749
0.001003264841
0.001248160098
0.001404705015
0.001494165825
0.001514573834
0.00145447828
0.001341499307
0.001286044236
0.001268570413
0.001272005542
0.001398561556
0.001640177229
0.001860048261
0.002011687326
0.002067464393
0.002026821566
0.001916790186
0.00183618169
0.001915613385
0.002302182727
0.002807351016
0.003129509504
0.002643896859
0.001709381314
0.001095347791
0.0006589935648
0.0001848832649
0.001474021064
0.001707619722
0.001809247242
0.001835603292
0.001823941613
0.001755368745
0.001605468591
0.001474586013
0.001395214704
0.001327272622
0.001338259819
0.001545520749
0.001777866286
0.001940323229
0.00201276345