/*--------------------------------*- C++ -*----------------------------------*\
  =========                 |
  \\      /  F ield         | OpenFOAM: The Open Source CFD Toolbox
   \\    /   O peration     | Website:  https://openfoam.org
    \\  /    A nd           | Version:  8
     \\/     M anipulation  |
\*---------------------------------------------------------------------------*/
FoamFile
{
    version     2.0;
    format      ascii;
    class       volScalarField;
    location    "0.9";
    object      epsilon;
}
// * * * * * * * * * * * * * * * * * * * * * * * * * * * * * * * * * * * * * //

dimensions      [0 2 -3 0 0 0 0];

internalField   nonuniform List<scalar> 
67451
(
0.09109531801
0.1055546459
0.1226282956
0.1428072568
0.1725259323
0.206438381
0.2320338697
0.2405553129
0.2393647302
0.2350101455
0.2263322223
0.05971477092
0.06479723575
0.07248266139
0.07705900594
0.08135614657
0.08974187076
0.1075709599
0.1329511028
0.1454381715
0.182198907
0.2102026303
0.2235091858
0.2329108653
0.2761711174
0.2896304457
0.2827602422
0.2676883035
0.2474075662
0.2271495193
0.2094106152
0.2011567399
0.2020814971
0.2059631146
0.2149806614
0.2266079354
0.2537809643
0.04969034103
0.06575362148
0.07883122961
0.08620263312
0.09838616851
0.1014089687
0.1006429488
0.1058913629
0.1336972714
0.1811048603
0.1479686351
0.146991614
0.1691924712
0.2035338879
0.3125624539
0.5303927738
0.54185245
0.4861649392
0.4209615324
0.3598876534
0.3079943521
0.2738997069
0.2691175129
0.2713981351
0.2610949751
0.2445042664
0.2333466982
0.2528212349
0.06432949897
0.09582430863
0.1215809824
0.1418516232
0.1672166621
0.1711293036
0.170366308
0.1809376107
0.2353708374
0.3146150554
0.2552133872
0.2225866836
0.2724889062
0.4067545551
0.6520907718
1.03687832
0.9885554984
0.8208862046
0.6504080492
0.5098635821
0.4067021419
0.3626523031
0.385175601
0.3923564185
0.3540988199
0.2952733181
0.2467805135
0.2490646417
0.1546120014
0.2033008343
0.2541061852
0.2995157536
0.2992897353
0.2845207
0.2975967052
0.384736537
0.4815083416
0.4251034879
0.3890424654
0.530852961
0.8155752895
1.221491092
1.703533905
1.597253242
1.29047707
0.9705537902
0.7078470886
0.5299738679
0.5011089474
0.6107385871
0.6140176089
0.5209156871
0.3922621577
0.2818854982
0.2464234733
0.2637209869
0.343857513
0.4404391822
0.5076585711
0.5304072829
0.4407561837
0.4436715569
0.5728896784
0.6654795885
0.6142392979
0.5604715429
0.8631447728
1.45428385
2.123030808
2.648553808
2.455028289
1.956742065
1.431150014
0.9938581045
0.7071773114
0.7567296845
1.118179853
1.009170209
0.8030312364
0.567590937
0.3627891572
0.2575260226
0.4621498483
0.5701724484
0.71897233
0.8096874784
0.7391601011
0.6483170637
0.6396496765
0.8305827874
0.9288225713
0.8340383256
0.7491182851
1.320658712
2.328942986
3.271114982
3.817014053
3.53664725
2.812832998
2.030484428
1.37793962
0.9620656638
1.360075936
2.760940074
1.857840911
1.271594401
0.8484555285
0.5122280548
0.3012000762
0.8271061907
0.9303369088
1.116271897
1.231958431
1.093468668
0.8939213876
0.8730651123
1.146540995
1.288449699
1.140700783
0.9503063147
1.742352582
3.097892552
4.157558321
4.728703619
4.434809626
3.600269702
2.612726029
1.723193494
1.286600204
3.46223819
9.37858193
4.788586144
2.204088198
1.273552132
0.7396424075
0.3928041654
1.48505854
1.506608493
1.647730807
1.764792156
1.530518639
1.143669872
1.032871281
1.309239884
1.494836361
1.404250261
1.107342122
0.8709974969
1.907046471
3.371951225
4.112763763
3.690188228
2.747753382
1.690198632
0.9167600523
1.209088781
2.69779838
3.952549587
2.900675304
2.208128524
1.532771939
0.9483195919
0.5065933625
2.59125833
2.382188889
2.292781913
2.340130677
2.04026219
1.458068994
1.022771412
1.027611233
1.208874387
1.182097582
0.9420777327
0.7066572301
1.001076921
2.055003941
2.846039787
2.475319382
1.730736596
0.9948846021
0.6652104877
0.8372563169
1.894349369
2.536876602
2.316790338
1.813200639
1.197083859
0.6725567179
0.359263832
4.075560342
3.511081306
2.956758399
2.821597335
2.530041222
1.936850127
1.255988105
0.8665888025
0.8596484642
0.8565563587
0.7411421743
0.5780918657
0.5788907165
1.169819909
1.827112536
1.518503116
0.9959649102
0.6995993316
0.8263217909
1.017325136
1.280163026
1.646743286
1.547275512
1.206381236
0.8125545294
0.4695548463
0.2853452967
5.230719826
4.331940668
3.398865908
2.997562379
2.708646245
2.233592175
1.605154262
1.06046641
0.7859162524
0.6746559909
0.5861446818
0.4622399346
0.3818445467
0.6812130043
1.108472884
0.8984304688
0.7295985391
0.8811573122
1.237835334
1.36251665
1.349210559
1.284539376
1.096429142
0.8424036408
0.5810909738
0.3564874026
0.2469331723
4.075555416
3.20931031
2.678730295
2.610807094
2.407947855
2.005744342
1.5070782
1.056807579
0.7478967526
0.5744635922
0.4665454441
0.3536626333
0.2756225866
0.4418959867
0.6908192459
0.6990668473
0.8609560422
1.195305065
1.494935502
1.565399127
1.51020311
1.328747361
1.072236684
0.8218481983
0.6081920317
0.412245734
0.2755865219
2.593524008
2.094192301
2.011319486
2.100712745
1.947886979
1.625861545
1.248656456
0.9095124123
0.6456734018
0.467636117
0.3544631835
0.2519457293
0.2228992787
0.3675170557
0.5672445158
0.7461895471
1.059807833
1.377785072
1.607718965
1.65652521
1.592646573
1.415639997
1.164860946
0.9068440899
0.689489543
0.4812158163
0.3144148075
1.542271697
1.329613509
1.436860597
1.563821283
1.462549671
1.230764183
0.9627893949
0.71368348
0.5004400674
0.3482491437
0.2506285484
0.173917437
0.2143065371
0.3617234347
0.5626547115
0.8035372315
1.134056498
1.419368415
1.619268021
1.66519296
1.602380498
1.440645615
1.2067244
0.9469266875
0.7139846995
0.4954611553
0.3256222187
0.9675264897
0.9005866718
0.9758635418
1.091939589
1.044762276
0.8939443538
0.7068906983
0.5196279333
0.3566197913
0.2434191911
0.1728102098
0.1444969691
0.2347898589
0.3610725487
0.5450578682
0.7837216227
1.094082504
1.363985915
1.556230239
1.609980283
1.556410673
1.414937918
1.204964535
0.9595895661
0.7244630079
0.5072884832
0.343125649
0.8917399646
0.7816927577
0.7166619398
0.7466223277
0.7180852189
0.6237402805
0.4954212578
0.3618376371
0.2495642793
0.1737139814
0.1296469369
0.1550928817
0.2816136054
0.3674252792
0.4952716618
0.7001616401
0.9849493282
1.246870694
1.439054434
1.506980554
1.469749877
1.354892451
1.17644469
0.9583360203
0.733350716
0.5246844924
0.3691719455
1.005995945
0.8647368106
0.6995637132
0.6006412406
0.5330714201
0.4538911181
0.3614093359
0.2695734674
0.1938137479
0.1409924084
0.1176285708
0.1920866178
0.3352444771
0.4055595229
0.4619186545
0.5908087395
0.8328904888
1.088732099
1.282547823
1.366158195
1.348590613
1.262631294
1.11837697
0.9339491824
0.7327238006
0.5423478154
0.398997386
1.052873114
0.9389532476
0.7699973671
0.6062299901
0.4892169279
0.3980752715
0.3164126435
0.2430106714
0.1818264764
0.1357062525
0.1290535338
0.2385421876
0.3756046579
0.460877628
0.4884533577
0.509977256
0.6665092035
0.9039713654
1.099946346
1.195349037
1.196878319
1.137866992
1.02614543
0.8758694426
0.7051447821
0.5378071242
0.4113042594
1.045697569
0.9158045122
0.777181484
0.6224563609
0.5004893316
0.4042427167
0.3233800094
0.2529105443
0.1926414335
0.1438681618
0.1497736452
0.2697003632
0.3907349781
0.4811475971
0.518214725
0.4948157535
0.5334758796
0.7111632537
0.9058186014
1.006650554
1.0248466
0.9889766023
0.9063747771
0.7884036265
0.6494415126
0.508121427
0.4030303906
1.46815737
0.8817719651
0.7202342024
0.5980383335
0.4962306595
0.4093659795
0.334537825
0.2658874438
0.2056486362
0.1531676987
0.1640342814
0.2743768792
0.3761087436
0.4615115503
0.5049321129
0.488405416
0.4657092073
0.548159347
0.7086035447
0.8152644736
0.8482067892
0.8314370397
0.7735878187
0.6840412615
0.5743844892
0.4574333622
0.3765048395
0.9340129591
0.7015661218
0.6823276775
1.120725942
0.6154530281
0.4346966971
0.3460506378
0.2787980548
0.2137887783
0.1546477138
0.1641475556
0.2566835559
0.3399126593
0.4165281902
0.458128332
0.4580218951
0.42527602
0.4385636084
0.5370905269
0.6377228798
0.6818467981
0.6802269175
0.6426362677
0.5773340512
0.4943186167
0.4011776684
0.3421610098
0.6524873338
0.7863199082
2.374631982
4.313522279
1.742094375
0.7062766232
0.3970361248
0.2849310176
0.2108512238
0.1473624028
0.1504648082
0.2240174795
0.2936253276
0.3610824234
0.4048556622
0.411396891
0.3843315131
0.3672442095
0.4097042381
0.4874384327
0.5348985896
0.5437137112
0.5217175176
0.4764710237
0.416805069
0.3469167325
0.3067361434
1.215733729
2.935363788
6.752688562
10.25023425
5.77068751
2.622761128
1.113883244
0.4697876224
0.2367284225
0.1411293582
0.1298133817
0.182445954
0.2455704422
0.3064691124
0.3533093713
0.362979815
0.3393814287
0.3146572691
0.3236321191
0.3705197981
0.4111687587
0.4244213195
0.4131207441
0.3839852965
0.3427626064
0.2936531529
0.270717219
1.679282515
3.56418476
6.840689872
11.63834818
6.071126169
2.96964124
1.417187298
0.6013657506
0.2620455031
0.1394438239
0.1138084892
0.1429846979
0.1941744145
0.2497948376
0.2884055266
0.3067217592
0.2914135712
0.2694825348
0.263049755
0.2862756507
0.3134288125
0.3250418974
0.3199091845
0.3017256995
0.274852783
0.2429359326
0.23530399
1.222950909
2.487175382
4.285011347
7.429492515
4.001057372
2.125441509
1.055733293
0.4773657058
0.2225929741
0.13045786
0.1068569276
0.1166270875
0.1493039047
0.1965442863
0.2323967828
0.2492496481
0.2438165365
0.2285017659
0.218128379
0.2270774983
0.2418145412
0.2487439441
0.245661282
0.2344452058
0.2181450575
0.1990743998
0.2024752675
0.6532640369
1.351884716
2.284236622
4.005544154
2.31661392
1.287701896
0.6503554654
0.3144869461
0.169472388
0.1209568227
0.1061398356
0.1049123358
0.1189384335
0.1507310989
0.1818109484
0.1989615824
0.1997700372
0.1914249845
0.1836877067
0.186567758
0.1931013986
0.1956326955
0.1927376
0.1854369849
0.1756579712
0.1644545778
0.1729318457
0.4119359747
0.6494822941
1.143525573
2.062922927
1.25667803
0.6993800453
0.3666194721
0.1988338981
0.1336374267
0.1145388609
0.1064444066
0.10133874
0.1033331017
0.1182285021
0.1388783196
0.1539204378
0.1593523075
0.1583998377
0.1563828677
0.1584830355
0.1612721754
0.1613050629
0.1581812901
0.1525633598
0.1457517163
0.1378468469
0.1458798664
0.4469494862
0.453983303
0.5760793507
0.9418196231
0.6320068163
0.3835443866
0.2263084648
0.1450876084
0.1164416314
0.1095499703
0.1052985023
0.1002404513
0.09707169383
0.09995221664
0.1081594289
0.1169694521
0.1239237631
0.1292052313
0.1332464481
0.137065597
0.1390948501
0.1383051691
0.1349309763
0.1294101827
0.1225375935
0.114418134
0.1195590794
0.5173242461
0.4717176921
0.4509805289
0.4983434059
0.395863558
0.2913531367
0.2032121852
0.1404678988
0.111158878
0.1031904557
0.1004850333
0.09698582478
0.09274655922
0.08958540935
0.08845141547
0.08957070602
0.09411698161
0.1020040792
0.1100749642
0.1159541083
0.1184817479
0.1176454846
0.1136533587
0.1070591661
0.1029257839
0.09234199662
0.09356009478
0.5181321445
0.4992567063
0.4742539682
0.4490012761
0.402815764
0.3433366139
0.2703900184
0.1918448037
0.1313035726
0.1035195535
0.09599615937
0.09310696664
0.08915825414
0.08347024362
0.07682633426
0.0716684688
0.07198128545
0.07897826587
0.08823889361
0.09510530004
0.09808772649
0.09744990397
0.09318491253
0.08677584752
0.08550551049
0.07413636038
0.06845807522
0.07895592838
0.08646086875
0.09367588825
0.1026802922
0.121240525
0.1407299775
0.1515255152
0.1578549222
0.1603020726
0.1584811264
0.1516598168
0.05649904091
0.06382444515
0.06922505125
0.07015292272
0.07074047616
0.07566475094
0.08289141007
0.09507745493
0.1073377231
0.1251234521
0.1413710896
0.1568649473
0.1710223547
0.182291602
0.1859843508
0.1823999513
0.1764913204
0.1608326899
0.1526757431
0.1447830618
0.138356043
0.141535025
0.1530246919
0.1670629836
0.1782092763
0.2668802146
0.04004494031
0.0506480663
0.06167884593
0.07126595197
0.07819445355
0.07547805501
0.06935954893
0.07312543593
0.0814358846
0.1016374475
0.1048885097
0.1093931847
0.124619361
0.1570801504
0.2077867647
0.2583158374
0.2760798846
0.2662665261
0.2444177253
0.2235646417
0.20373967
0.1850273893
0.1722801376
0.1745567492
0.18208031
0.1872614081
0.1895863077
0.2777992416
0.04402083157
0.06065288987
0.07841940462
0.09603041638
0.1097010959
0.1072531618
0.08964021634
0.09964716133
0.1097026435
0.1381497935
0.1483718058
0.1502098475
0.1797868032
0.2534582933
0.3442358955
0.3942638586
0.4040894311
0.3702563776
0.322787794
0.2814936841
0.2570158082
0.2435029077
0.2344686473
0.2297575041
0.2240333266
0.2139566234
0.2033784585
0.283990468
0.08368849895
0.1152045864
0.1497913804
0.1786689638
0.1911436429
0.1452544864
0.1616959827
0.1704197324
0.1951226621
0.2278861458
0.2463865805
0.3398284756
0.4850983782
0.6066188791
0.6643726095
0.6372807707
0.5358575802
0.42655781
0.3566428512
0.3383684161
0.3492899831
0.3650014651
0.3324913399
0.2910587825
0.2524362859
0.2209085973
0.2866368486
0.1289827231
0.1827998814
0.2457995326
0.3213919769
0.5490419093
0.2600734125
0.2676763643
0.2928903046
0.311537107
0.3254581318
0.3558949159
0.5820129022
0.8574651549
1.070215219
1.151253126
1.067364111
0.8441293068
0.6152750709
0.4809339767
0.4950334882
0.6073127614
0.757255937
0.5731824566
0.4157188704
0.3129257067
0.2474886567
0.2913998109
0.2121140436
0.2937291457
0.3813148096
0.4510078716
0.4641820721
0.4002581576
0.4466528838
0.5237133548
0.5430020532
0.49421285
0.4989366817
0.8862188008
1.313267681
1.631130198
1.753002744
1.639442994
1.285121378
0.8875341194
0.6790649814
0.8308858609
1.542179411
2.781152009
1.441746064
0.7411541512
0.4321573844
0.2948600107
0.30789753
0.3701255921
0.481988785
0.5854692813
0.6487659756
0.6291976025
0.5785943587
0.6424128018
0.7575944428
0.7994937675
0.7640406285
0.6743442167
1.032216616
1.611229551
1.941472509
2.073130186
1.980591736
1.595463764
1.097323173
0.8750892404
1.444849794
5.477420568
5.475131556
4.86321829
1.686923267
0.718206772
0.3778401161
0.343682153
0.6905279146
0.8054076894
0.8762701253
0.9102022547
0.8611034119
0.7632553701
0.7624264466
0.8251670541
0.8622389211
0.8347741308
0.7190972934
0.7645424599
1.406482664
1.774237519
1.913928084
1.754161643
1.315594906
0.9259588156
0.9021027905
1.201897874
1.885676806
3.450359793
1.851916284
1.174661693
0.7237868946
0.3982078159
0.3599817471
1.268358425
1.299310848
1.238812909
1.186580144
1.094935341
0.9438813122
0.8353318707
0.7981010797
0.7903402356
0.752791041
0.5914441998
0.4361879734
0.7442435778
1.073769413
1.211190228
1.070136902
0.8241627075
0.7475462077
0.8451857076
1.069748212
1.263080762
1.448594913
1.2321573
0.9425807193
0.5880900568
0.3404075841
0.2958641706
1.916910905
1.811205214
1.569721102
1.397698071
1.272815952
1.068865108
0.8377614367
0.6804797507
0.5970668759
0.5403436009
0.4578904619
0.3216452589
0.391608586
0.5463963035
0.6625203784
0.6556742811
0.669648053
0.719580709
0.7896900238
0.9214468417
1.022642275
1.010526315
0.8655115458
0.6202133735
0.4136582378
0.283857345
0.2613882524
2.075924027
1.918660743
1.659723286
1.44705753
1.284915351
1.050801271
0.7711690899
0.5564030731
0.4327390715
0.3642761294
0.334417715
0.2624558249
0.2541462814
0.3474568612
0.4484342442
0.5430195543
0.6589003375
0.7242141852
0.7750100245
0.8450154355
0.8847932936
0.8367902731
0.695542658
0.5161315947
0.3670504928
0.2562999769
0.2501523175
1.68313131
1.567157897
1.389880478
1.257188477
1.131606288
0.9177232801
0.6584473233
0.4504870182
0.3262653347
0.2672554931
0.2504162065
0.2074523256
0.1946167784
0.2719063655
0.391546657
0.5205043763
0.6633528492
0.7407743995
0.7945213267
0.8373369339
0.8429350287
0.7864172412
0.6645462884
0.5196619732
0.3991283531
0.2941445625
0.2733090809
1.049215137
1.073600779
1.03779434
0.9837447935
0.8857523736
0.7055372851
0.5001134731
0.3404036622
0.25100986
0.2074456959
0.1897187248
0.1591561936
0.1687587564
0.2488532278
0.368893434
0.5103262095
0.6631469962
0.7540060596
0.8115906655
0.8454075149
0.8392438777
0.7808552294
0.6707597772
0.5376309167
0.4314164975
0.3312263788
0.3056186582
0.7502937317
0.7718615591
0.755873997
0.7169305474
0.6335346598
0.497050937
0.3557522874
0.2514978752
0.1954263837
0.1609775114
0.1439093062
0.1311725036
0.1695247015
0.2481691242
0.3592341825
0.4898653091
0.644587182
0.7447145854
0.8065189333
0.8400717614
0.8337503284
0.7795297867
0.6798573241
0.5572263878
0.4526178316
0.3513236003
0.329283663
0.6616477151
0.6430104055
0.5964426448
0.5352827455
0.4550055218
0.3562217277
0.2648565787
0.2009809491
0.1559890246
0.1259417448
0.1123860156
0.1302779566
0.1991167414
0.2671605122
0.359445638
0.4689464775
0.609610092
0.7108952257
0.7761813026
0.8120725375
0.8099180169
0.7633542716
0.675384009
0.5647372804
0.468764402
0.3585110234
0.3459343653
0.6363961443
0.6034591223
0.5338972341
0.4477014111
0.3640604784
0.2884624431
0.2261038703
0.1723336418
0.1303488275
0.1040694854
0.09616409859
0.1409916451
0.2365668336
0.2992242954
0.3731032283
0.4579977095
0.5682593616
0.6588957463
0.7239068475
0.7611878569
0.7641672329
0.7271196227
0.65254782
0.5548451874
0.4630383951
0.3739174414
0.3823198781
0.6309694166
0.5896541106
0.5108780997
0.4112654099
0.3263273232
0.261100969
0.2046052741
0.1549978693
0.1172282094
0.09453158405
0.09516650177
0.1586903929
0.2486112407
0.3136543106
0.3798231844
0.4503342074
0.523123666
0.5949020913
0.6538163594
0.69018026
0.6978798625
0.6709804364
0.6108915023
0.5282639245
0.4437714526
0.3742605772
0.4180284133
0.660127043
0.5850150964
0.5004941346
0.393567342
0.3032369466
0.2411441667
0.1903467098
0.1474902455
0.1141385504
0.09411146134
0.1048243567
0.1726657258
0.247002568
0.308347781
0.3653807306
0.4232285652
0.4757620743
0.525092394
0.5718079536
0.6043080899
0.6153106632
0.597940505
0.5520838295
0.4853783464
0.4139812501
0.3621703036
0.4334242368
0.7242622995
0.5675950341
0.486422257
0.3837375715
0.2915478293
0.2292167822
0.1824853693
0.1513382386
0.1204273412
0.0979207543
0.1160426067
0.1754036656
0.2363798914
0.2903980093
0.3374652814
0.3818555141
0.4215179665
0.453927519
0.4858331167
0.5116430579
0.5236848462
0.5139851852
0.4808385274
0.4294982334
0.3729736546
0.3383832196
0.4251757366
0.6908944154
0.554286766
0.5032735699
0.4045913347
0.2930676197
0.2219868976
0.1925552548
0.1519419358
0.114742376
0.101342485
0.121210354
0.1664904647
0.2151580652
0.2620076129
0.3010588974
0.3342082206
0.3622390979
0.384147386
0.403522773
0.4214171166
0.4322451313
0.4277010283
0.4049206155
0.3674570475
0.3288459342
0.3040389852
0.3911981569
0.5422175927
0.5760752912
0.9004977736
0.8453862104
0.4258954331
0.2556162745
0.1911631836
0.1538429858
0.1314566116
0.102406626
0.1176814036
0.1490164686
0.1864907342
0.2272059129
0.2609959585
0.2877904915
0.3055823513
0.3194817961
0.3306653984
0.3413598834
0.3494230426
0.3475654087
0.3325381478
0.3065539662
0.2855060494
0.2742285159
0.3548615743
0.4822102796
1.088143141
2.790888169
3.876047216
1.619013029
0.4375494293
0.208320077
0.150194334
0.1226174609
0.09846855029
0.1080710438
0.1293643935
0.1561311371
0.1928882159
0.2408807989
0.2466657975
0.2551236577
0.263046852
0.2700284977
0.2754739356
0.2800982397
0.2788301358
0.2689614128
0.2514452512
0.2440625919
0.2426533404
0.321692351
0.5883509474
1.81589691
4.509692066
5.744483129
3.444005291
0.8362956363
0.280518808
0.1740120544
0.1235759528
0.09460423381
0.09726293052
0.1118928927
0.1305458677
0.1639616758
0.1893148557
0.2283001895
0.2195685019
0.2180627496
0.2223595788
0.2240118031
0.225140251
0.223172324
0.2158768067
0.2076774155
0.206760398
0.2102307042
0.2894540002
0.5795971792
1.660642101
4.269302945
6.565309691
3.488353922
0.7189792706
0.2692588893
0.1879077118
0.1260270644
0.09467645835
0.09042720056
0.09810919624
0.1107755596
0.1296795213
0.1545945592
0.1806276044
0.1850345716
0.180962192
0.1833510737
0.184142832
0.1831266691
0.1803588742
0.176176274
0.172686472
0.1744983649
0.1807735097
0.2574103561
0.4839500748
0.9897535275
2.476110775
4.106610039
1.998015345
0.4978177463
0.2549401781
0.1756153263
0.1204907056
0.09413514242
0.08696446853
0.08839009672
0.09516879114
0.107559333
0.1243628208
0.1424361228
0.1489410645
0.1515090463
0.1526441329
0.1525874829
0.1511233145
0.1486737658
0.1461769419
0.145012839
0.1484617244
0.1563360315
0.2260226594
0.406761647
0.5741837748
1.087499876
1.600990521
0.8863482156
0.3317382471
0.2145966731
0.1472318618
0.1088921665
0.09122339564
0.0840756262
0.08141298693
0.08319372119
0.09147557295
0.104255739
0.1195302133
0.1258117861
0.1293102788
0.1298140503
0.1293990681
0.1281230983
0.1264674321
0.1253577059
0.1258639179
0.1297604119
0.1375093016
0.1955333574
0.3770443823
0.3992698293
0.5240078433
0.6070500804
0.4005673325
0.2405268715
0.1634458352
0.1194043447
0.09900542719
0.0888038647
0.08205977159
0.07713189306
0.07560019396
0.08004739164
0.0895679957
0.1013586572
0.1086968747
0.1130836575
0.1147321052
0.1151493497
0.114750675
0.1142990365
0.1145392189
0.116473289
0.1188595105
0.1244603826
0.1655813295
0.3869135528
0.3662856244
0.3599074048
0.3534682104
0.2716297457
0.1912336551
0.1363506583
0.1073850067
0.0974071012
0.09242328744
0.08642034639
0.08031896866
0.07669546824
0.07735561619
0.08208890629
0.0893623168
0.09648241823
0.1029497502
0.1078218024
0.110806235
0.1121731402
0.1129981436
0.1137407117
0.1151938997
0.1113357279
0.107926866
0.1350121581
0.4312271848
0.3933780327
0.3490842617
0.3108377696
0.2586708043
0.2032054916
0.1518457516
0.1165472212
0.1016237067
0.09720327401
0.09388991944
0.08926921883
0.08476219228
0.08167724194
0.08057098108
0.08209009448
0.0869207962
0.09479343911
0.1029918071
0.1090397734
0.1121069497
0.1130593428
0.1113581859
0.1127817944
0.1298783189
0.09460143508
0.1047549779
0.5725580017
0.5511665744
0.5015556934
0.4463585067
0.3874829154
0.3228084134
0.2514845505
0.1825281149
0.1334469037
0.1116787405
0.1057792091
0.1027678859
0.09772454701
0.09064919805
0.08345542155
0.07955393095
0.08217631411
0.09135739896
0.1030339129
0.1123570469
0.1166154138
0.1155047487
0.109829688
0.1020056827
0.1104536711
0.08762098529
0.0727763986
0.07705374167
0.08340600571
0.09133375617
0.09937769202
0.1111026661
0.1309448864
0.1456578375
0.1520657025
0.1548281562
0.1546169824
0.1502244258
0.1401178695
0.1250037871
0.1073200463
0.09240685668
0.05771324636
0.06560127938
0.07067225095
0.07283961128
0.07473475798
0.07949257701
0.08619641256
0.09772625966
0.1181441649
0.1393248396
0.1555825052
0.1667528886
0.1710672193
0.1681261296
0.1582899848
0.1438704116
0.1287352888
0.1123328206
0.1057646913
0.1017246649
0.1011530965
0.1098978995
0.1266817737
0.1476712791
0.1670973722
0.2459081312
0.03922938559
0.04753336127
0.05763022397
0.06697526797
0.07189617988
0.07106903956
0.06682823394
0.06849122975
0.07302551814
0.08300408653
0.09695340884
0.1161931637
0.1473990923
0.1815301397
0.2041596275
0.2138027956
0.2096831245
0.193406808
0.1721501538
0.1539613749
0.139965939
0.1273083864
0.1261086123
0.137864908
0.152739681
0.1696757437
0.1851837958
0.2664196808
0.04052127759
0.05068127073
0.06454720284
0.07953525923
0.0899923156
0.0963305457
0.07433199671
0.07591460795
0.08116351963
0.09313414302
0.1103465574
0.1343601726
0.2035098365
0.2771711427
0.3234625266
0.3375496212
0.323348134
0.2860292727
0.2413609142
0.2035761577
0.184344228
0.1773097124
0.1800245223
0.1875624995
0.1888280669
0.1929360826
0.2006542402
0.2749236015
0.06364683503
0.08780265091
0.1180922756
0.1570520338
0.2365233506
0.1295771946
0.1265966944
0.1380107875
0.1479885428
0.1777487018
0.2365540551
0.4099423274
0.5413468637
0.6048808528
0.6096875726
0.5570691303
0.4606112016
0.3602067793
0.289544793
0.2720361654
0.3027696035
0.3150162543
0.2900901253
0.2473895016
0.2192833721
0.2122997238
0.2745562327
0.09621211935
0.1425647328
0.2123265048
0.4176357993
0.5604224975
0.3173825203
0.2508919344
0.2900301921
0.2902059917
0.3185183659
0.442087861
0.7330491194
0.9252831639
1.04550854
1.061635251
0.9615449123
0.7652615818
0.5638191958
0.4464610921
0.4859529
0.7138913377
0.7929823311
0.5767703442
0.3734321253
0.2642444388
0.2235739557
0.2762820302
0.1660838919
0.2422839453
0.3216770281
0.3977886808
0.4907850219
0.3971555758
0.4661577138
0.5612102074
0.5728138214
0.5770424114
0.7216855758
1.035252541
1.30703866
1.477302224
1.523221261
1.420682406
1.147607611
0.8364331462
0.7058413475
1.082346333
2.280611206
2.96154014
1.625904245
0.7243061591
0.3796362004
0.2548280405
0.2930509809
0.326743285
0.4333104111
0.5170737852
0.567095108
0.5580839217
0.5592291862
0.6430930679
0.7584172519
0.7948244393
0.7803749857
0.8582106273
1.203046176
1.518710766
1.67796428
1.718549139
1.639273708
1.375806834
1.040843685
0.9940264246
2.178050389
4.814393488
5.764479514
4.109910245
1.607662428
0.6502062103
0.3326573006
0.3301793111
0.6854350802
0.7648586757
0.789161997
0.7934761975
0.7456812223
0.6913931339
0.7026781583
0.7626293185
0.793889225
0.7791764439
0.7458680528
1.008756518
1.423379617
1.63624399
1.680369449
1.55719611
1.262819751
0.9873627032
0.939167001
1.297242403
2.370132374
3.023857818
1.875838405
1.08724643
0.6340223772
0.3728498283
0.3544923741
1.31095928
1.243631697
1.105277809
1.017945421
0.9317573668
0.8177380672
0.7291091711
0.7179019229
0.7345967188
0.7153461242
0.5458636214
0.5420758114
0.8596071986
1.085217031
1.140123835
1.051369062
0.891552686
0.7985712714
0.8256878536
0.980366707
1.248157658
1.409447241
1.157764798
0.8838150102
0.5914020357
0.3745003095
0.3537414649
1.747744578
1.592459808
1.325285945
1.154390813
1.049402252
0.8990324342
0.7163082711
0.5954738179
0.5484941822
0.4937423136
0.3200596894
0.2623249104
0.3974927176
0.5748739248
0.645195701
0.6623243915
0.6589788024
0.6767362237
0.7340775368
0.8334354929
0.9355046541
0.9688359889
0.8776531536
0.6808626013
0.4468085972
0.2949441394
0.2912311423
1.758792603
1.612239893
1.346581299
1.155546059
1.03667404
0.8632348551
0.6371530785
0.4564284966
0.3598465278
0.2948985566
0.2090342408
0.1695164897
0.2092428123
0.3119546961
0.4168106571
0.5091677543
0.5786122517
0.6349315517
0.6922892436
0.7565500695
0.8046091532
0.8023384733
0.7184985202
0.5484434853
0.3643555574
0.2504392596
0.2723446472
1.446037744
1.331559115
1.136286412
1.01191564
0.9120821098
0.7367485533
0.5125978281
0.3317315387
0.2313987724
0.1819697538
0.1495593985
0.1312676481
0.152616203
0.2280358088
0.3487837791
0.4792321648
0.566640157
0.6302413081
0.6818227212
0.7260454111
0.748436021
0.7286486138
0.6457840008
0.5036624586
0.3581402574
0.2564498902
0.2803452268
0.919157889
0.9101379662
0.8490821525
0.7942409812
0.7080430854
0.5494528161
0.3664889
0.226874603
0.1534489049
0.124686676
0.1151747844
0.1114941981
0.1403321929
0.2119831451
0.3364047464
0.4790816274
0.5654395856
0.6287197197
0.6773160096
0.7133367958
0.7259176494
0.7002452469
0.6221411573
0.4985336592
0.3734042004
0.2760960695
0.3023301109
0.6495054366
0.6560317041
0.6333621318
0.5885415072
0.5039928412
0.3761636659
0.2476425411
0.1554827372
0.1112667745
0.09580150748
0.09546085435
0.1117797312
0.157519
0.2252280579
0.339006263
0.4699486853
0.5509461575
0.6139587291
0.6626793952
0.6969926905
0.7078296255
0.6833280233
0.6135717233
0.5050905181
0.3916451766
0.2961466944
0.3270770771
0.5730662229
0.5608014785
0.5238322101
0.4570813153
0.365253153
0.262398953
0.1743480795
0.116406963
0.0901086175
0.08124548461
0.08634648139
0.127522731
0.1986359631
0.2613256507
0.3536644451
0.4526853789
0.5237589531
0.5841307702
0.6327891482
0.6672073779
0.6793536985
0.6594566839
0.6004171422
0.5077730981
0.4063449736
0.3199330531
0.3412684648
0.561652106
0.5378931167
0.483436333
0.3932745358
0.290207057
0.2001549785
0.1353699044
0.09818521749
0.08060222962
0.07556908216
0.08800954906
0.1496467014
0.231210568
0.2918247581
0.3607605163
0.4315096606
0.4897528363
0.5428182504
0.5882755206
0.6216420152
0.6354426018
0.6213342281
0.5739255958
0.4972914968
0.4077931158
0.3339253031
0.374085725
0.5744517082
0.534847295
0.4692693929
0.3621387946
0.2479875798
0.1647816493
0.1159338689
0.08977636607
0.07746716717
0.07630811532
0.09918635896
0.1706208483
0.2425606275
0.2945592979
0.3477351099
0.403249567
0.4505231809
0.4930844506
0.5314346895
0.5613659511
0.5759199839
0.5675460922
0.5316726238
0.4709044816
0.3973406377
0.3385878761
0.4097978645
0.6271681454
0.5342071595
0.460576142
0.3410408248
0.2189543861
0.1416679688
0.1033261567
0.08572925778
0.07802605577
0.08104755388
0.1132920251
0.1816381163
0.2374949287
0.2796805584
0.3224318524
0.366970898
0.4053450986
0.4371054293
0.4657365397
0.4897195294
0.5033608931
0.4996511919
0.4741765093
0.4283059962
0.3719318121
0.3310306366
0.4277912937
0.7139629514
0.5280626957
0.4591577968
0.3266075341
0.1977835549
0.1247721644
0.09408164257
0.08442209234
0.08606471234
0.08757791793
0.1217838988
0.1780555393
0.2195869432
0.2546593841
0.2899057811
0.3251454688
0.3551326284
0.3775876988
0.3962475353
0.4126376606
0.4233973841
0.422482975
0.4055105569
0.3729554814
0.3329792262
0.3096920159
0.4204140544
0.620351158
0.5274559282
0.5893341902
0.4143333305
0.1923689258
0.1108016935
0.08945558329
0.09113299816
0.09773754314
0.09876339176
0.1222071083
0.1618928017
0.1923758343
0.2224208765
0.2523205805
0.2801551479
0.3028576685
0.3181088246
0.3287176116
0.3376775175
0.3442208165
0.344042339
0.3332579302
0.3120595294
0.2871031231
0.2833826419
0.3880904687
0.4744667213
0.780566989
1.617885533
1.751337327
0.4860029289
0.1346775683
0.09270274735
0.1009579324
0.09927446433
0.1405346064
0.1245693102
0.1413826473
0.1613711343
0.1863627333
0.2127228593
0.2352596562
0.252459407
0.2625306282
0.2679393371
0.2713493397
0.2737001869
0.2727802975
0.2658335597
0.2528657986
0.2406707918
0.2500473467
0.3512830569
0.4952788338
1.761382359
3.723778713
4.886085786
2.683721231
0.4582457416
0.1175956075
0.09866292539
0.1104873942
0.1185181612
0.1186816533
0.1221804109
0.1329810457
0.1536729396
0.1752954167
0.1947721962
0.2080359879
0.2142549892
0.2167604904
0.216992666
0.2163429902
0.2142454198
0.2092233821
0.2027272645
0.2002726532
0.215359017
0.3196429954
0.5823917492
2.46071315
4.907125006
6.048970771
4.299496551
0.7158285221
0.1419051138
0.1075981927
0.1069190899
0.108523651
0.1100960054
0.1092013952
0.1129544051
0.1239770547
0.1605364303
0.1803512896
0.1790415031
0.1763707614
0.1759934758
0.1747869572
0.1727027894
0.1695785817
0.1661901778
0.1641408889
0.1678056468
0.1850735006
0.2904096409
0.4800569365
1.958236562
4.413450198
5.586339303
3.563547296
0.5109225151
0.1399556155
0.1118596532