/*--------------------------------*- C++ -*----------------------------------*\
  =========                 |
  \\      /  F ield         | OpenFOAM: The Open Source CFD Toolbox
   \\    /   O peration     | Website:  https://openfoam.org
    \\  /    A nd           | Version:  8
     \\/     M anipulation  |
\*---------------------------------------------------------------------------*/
FoamFile
{
    version     2.0;
    format      ascii;
    class       volScalarField;
    location    "0.9";
    object      htcConv;
}
// * * * * * * * * * * * * * * * * * * * * * * * * * * * * * * * * * * * * * //

dimensions      [1 0 -1 1 0 0 0];

internalField   uniform 0;

boundaryField
{
    walls
    {
        type            calculated;
        value           uniform 0;
    }
    region0_to_wallFilmRegion_wallFilmFace
    {
        type            convectiveHeatTransfer;
        L               1;
        value           nonuniform List<scalar> 
822
(
2.238641475
2.292904662
2.384174802
2.487585627
2.593204483
2.711061642
2.845048206
2.999196248
3.059359559
3.031102086
3.048232751
3.308744727
3.1309781
2.990290712
2.735058492
2.306385746
1.774571581
1.521903355
1.618534172
1.5631851
2.585681819
2.700929219
2.56687488
2.638779627
3.329299712
3.309728696
2.940270521
2.467667868
2.214862768
2.018710281
1.829449313
2.337363063
2.474746103
2.617346669
2.767383223
2.893027008
2.972623048
3.015470951
2.950726603
2.765822128
2.57040855
2.697436695
2.532405852
2.573024388
2.489000943
2.247892639
1.956558834
1.793730374
1.890926992
1.868477577
2.250180274
2.211318605
1.747406215
2.755967724
3.766009682
3.757989606
3.349156954
2.959408247
2.618691587
2.329471989
2.223197798
2.348772532
2.534583075
2.730843882
2.930117679
3.032980908
3.056209604
3.034663043
2.887474129
2.622372136
2.30272823
2.191975684
2.31013166
2.534893967
2.594385464
2.516508738
2.356496335
2.219200303
2.201999034
2.159075987
2.16846837
1.89629022
1.683952241
3.550878085
4.345585495
4.240358081
3.805570467
3.246686481
2.736278047
2.446534069
2.474825628
2.285028124
2.512652601
2.740627061
2.973341234
3.136583833
3.009068616
2.933660275
2.744088666
2.492833661
2.289869716
2.245019967
2.451874671
2.648006846
2.748934284
2.760350536
2.694695108
2.586185459
2.492705028
2.417358286
2.393473563
2.291099591
3.058758715
4.498690162
5.304216454
5.235784057
4.988387032
4.48138892
3.747340177
3.07681818
2.859488617
2.144355114
2.403118405
2.661597674
3.083841154
2.818863175
2.452294635
2.63184239
2.4498364
2.2856452
2.284390338
2.447399188
2.614241662
2.7881912
2.899605494
2.942692004
2.917439756
2.829388476
2.729569623
2.687864323
2.708887426
2.811777546
2.973890897
4.13080028
4.914165443
4.877151333
4.633025171
4.234060883
3.720967532
3.251176155
3.144513096
1.890111249
2.013292933
2.259249896
2.512285031
2.710992465
2.774153624
2.659009627
2.461343703
2.137172681
1.962912516
2.205995727
2.593882455
2.778976817
2.932777125
3.020783911
3.051932966
3.030575754
2.950899998
2.853138414
2.80124838
2.799046373
3.010231829
2.91317684
3.777497172
4.600507786
4.550559492
4.271750457
3.892055251
3.513326646
3.176268355
3.218881772
1.812222559
1.96754711
2.310615255
2.636128869
2.86339314
2.856543619
2.660445431
2.361676524
1.892045557
1.679161313
2.1510682
2.656432515
2.898210415
3.033451228
3.090324064
3.09620298
3.052119636
2.971500982
2.862328755
2.824217
2.832074436
3.057197271
2.954333786
3.380603747
4.056444693
4.063155356
3.855398631
3.553520344
3.222525569
2.967439223
3.140762741
1.670968515
1.860255076
2.251077575
2.545822336
2.704220401
2.746180803
2.615868135
2.304532834
1.920683067
1.676089807
2.156997427
2.68563634
2.961894872
3.082298919
3.110555897
3.075766059
3.005907846
2.919582664
2.867396528
2.360180457
2.560652056
3.031932818
2.946336009
3.105878975
3.518131984
3.57924826
3.432083618
3.151683921
2.851750241
2.666235781
2.922692691
1.501088327
1.716821248
2.218743118
2.527152658
2.662357968
2.67622527
2.556147039
2.316104931
2.156611763
2.083277647
2.328434901
2.718186318
2.966220755
3.059595094
3.049900548
2.988996995
2.912261908
2.848608534
2.853078289
2.814189526
2.871010233
2.89537697
2.826595421
2.850743472
3.051936603
3.082792664
2.943774031
2.708708808
2.503666468
2.37391249
2.603635991
1.35184676
1.23457906
1.872419894
2.381882786
2.583856899
2.640105135
2.528265736
2.200120434
2.182368832
2.281183516
2.487380912
2.734594486
2.901467729
2.95701808
2.929957265
2.858458797
2.773453003
2.695344463
2.651728619
2.621083895
2.696766677
2.659069225
2.620163473
2.59406823
2.642513799
2.623938036
2.528786799
2.400603844
2.308894569
2.198585292
2.305654021
1.351926677
1.049809609
1.170039179
2.055413375
2.446345337
2.54057947
2.367466283
1.786115438
1.953720899
2.276575721
2.50852034
2.678955141
2.773760167
2.794027977
2.753638814
2.690736779
2.61816046
2.524037192
2.432684662
2.379268247
2.39843753
2.430401945
2.432655474
2.405647106
2.384514245
2.35408828
2.321221266
2.27496755
2.246936169
2.137660547
2.146347856
1.47980949
1.178052662
0.9337217211
1.832686975
2.349102465
2.505128398
2.358281674
2.023482739
1.402077608
2.152600012
2.401643471
2.525591711
2.573361359
2.558883929
2.486125877
2.369227056
2.263656114
2.175614047
2.154261179
2.207734796
2.281268317
2.338951597
2.366580021
2.369314902
2.344810811
2.296583749
2.271334889
2.246330948
2.236038537
2.120884939
2.094875807
1.615906549
1.21799176
0.8412717896
1.848381071
2.323312123
2.436011729
2.355212325
2.310342994
1.926550762
2.274723086
2.438453843
2.496621294
2.484134448
2.424820144
2.345168029
2.194242677
1.980124628
1.912505967
2.009082473
2.135421503
2.240417908
2.317857944
2.396342661
2.498885839
2.478502609
2.375414901
2.316477493
2.2626647
2.23277561
2.101761466
2.073603994
1.771907356
1.294777145
1.388454716
2.152694031
2.487656988
2.589272721
2.568007583
2.661295547
2.50807997
2.544488002
2.649259855
2.67539673
2.655425633
2.591100154
2.499535542
2.363734426
2.126530309
1.928594431
1.975913034
2.129548929
2.262173359
2.34431362
2.387613788
2.590520488
2.682765245
2.566022848
2.454957566
2.33446652
2.242850624
2.071548283
2.036797193
1.963213335
1.777994628
2.230284009
2.767024727
2.94178567
2.94853376
2.892867917
2.940951261
2.892518527
2.95652732
2.985598215
2.938593663
2.819242287
2.723058774
2.648984503
2.54697705
2.349640382
2.09630764
1.998493354
2.109306028
2.212733308
2.239679719
2.321396516
2.600015713
2.812540503
2.642722423
2.593619078
2.443374153
2.283944787
2.047634848
1.966940587
2.165645334
2.174686688
2.560174487
2.950811418
3.081618036
3.075056336
3.013599011
3.018591638
2.933507327
2.928888467
2.905932898
2.80832995
2.690479819
2.643759311
2.648672585
2.61978061
2.50792592
2.333670691
2.212532356
2.266427627
2.442203955
2.636428979
2.794218953
2.782138885
2.746892455
2.803890413
2.716807349
2.552605322
2.351602753
2.05091289
1.880254159
2.409782722
2.727487025
3.022620106
3.137260272
3.144889597
3.092348855
3.059033092
2.84813684
2.715674844
2.611252684
2.468610889
2.370855447
2.424441519
2.517497566
2.570448892
2.567255172
2.521571643
2.478822309
2.495483727
2.584047647
2.698661985
2.803302326
2.893650569
2.931409621
2.879051324
2.782347066
2.621188658
2.406970013
2.066566792
1.815207725
2.541323278
2.831291594
3.058383426
3.156942424
3.156866953
3.091054041
2.945615747
2.523287348
2.341565443
2.217825606
1.999505097
2.065643201
2.251676975
2.40724817
2.518143652
2.589250555
2.630831838
2.662346677
2.707011762
2.77422414
2.858672297
2.933720583
2.972534942
2.960116408
2.904478278
2.800104101
2.632854149
2.415953685
2.05643376
1.77138452
2.628576435
2.886729206
3.083119051
3.168922643
3.148355223
3.022464866
2.369743258
1.896935123
1.903414732
1.576466899
1.649928205
1.970270023
2.199806405
2.372567082
2.510658815
2.622401505
2.713618366
2.789581542
2.85593787
2.910808867
2.959365806
2.993600846
2.995660154
2.958125237
2.878781566
2.759250734
2.589045034
2.380377762
2.017542532
1.733038279
2.752051136
2.943277096
3.114286165
3.198053925
3.192223957
3.203301261
2.321468334
1.308748012
1.613394984
1.475452835
1.734502548
2.065236547
2.273354484
2.429986897
2.557527411
2.669564342
2.773407146
2.869131937
2.951697819
3.013892166
3.051286797
3.06088837
3.036077132
2.967902559
2.861484903
2.723544032
2.546782644
2.344356937
1.9811004
1.708505299
2.82758354
2.97754949
3.100745359
3.157536226
3.059647746
2.92282018
3.395688926
2.106365125
1.660897801
1.604575753
1.936275318
2.262345515
2.445457959
2.56626363
2.65854921
2.746570886
2.841641831
2.939748665
3.02900028
3.09741042
3.136378809
3.139183271
3.100177579
3.012897366
2.882852769
2.723475632
2.532517781
2.323785145
1.950123673
1.699277747
2.887000942
3.045585504
3.162913115
3.356515876
3.435558738
4.357359015
5.535216396
3.705937135
2.715742783
2.641027542
2.449808277
2.532837716
2.652698522
2.735514981
2.791252624
2.85028735
2.928083583
3.01693814
3.101450517
3.167535017
3.205484528
3.206951561
3.164274091
3.068769657
2.924408201
2.747133402
2.537941561
2.308204276
1.908007239
1.67859795
2.977867583
3.124386578
3.227011714
3.374377502
3.455191817
4.029074176
6.092459238
3.473204292
3.092032939
3.018878571
2.824729918
2.774227785
2.824137547
2.869289866
2.894449933
2.932125909
2.999695938
3.081613897
3.160184834
3.221580064
3.258250827
3.261672145
3.22087118
3.120695515
2.968548889
2.777842901
2.549505496
2.287243674
1.82681141
1.719174607
3.029423801
3.128916923
3.208683543
3.313483224
3.40149646
3.641840434
4.06214296
3.251915044
3.179212194
3.127885287
2.954878311
2.881578647
2.909113374
2.926567113
2.925545496
2.947035514
3.021878688
3.108375994
3.185713687
3.242167869
3.2787452
3.289691994
3.250635804
3.151650786
2.997909692
2.799274869
2.554173378
2.248591232
1.656949535
1.60709971
3.032030089
3.072564329
3.109949612
3.166221528
3.235730872
3.3553521
3.553901445
3.089735739
3.068601166
2.97944053
2.835772307
2.78785726
2.834158407
2.850866707
2.838583575
2.876266432
2.992145219
3.097280614
3.177481443
3.227032552
3.266710375
3.290140614
3.2639963
3.17326855
3.025693298
2.827801753
2.593996793
2.242334039
1.687905197
2.083424013
2.926900374
2.900515776
2.8788487
2.891306289
2.930858119
2.970320613
2.973989512
2.712463586
2.613602072
2.559620637
2.492341665
2.471124176
2.553081628
2.586232778
2.587079086
2.659479551
2.846847671
2.982948834
3.067199119
3.115699393
3.200729779
3.268523156
3.263305815
3.182586722
3.042818471
2.853734033
2.630995832
2.285300945
1.880183113
1.869146008
2.832206842
2.733561606
2.616365176
2.518566134
2.493572909
2.514944541
2.365460358
2.04395195
2.093420946
2.25126346
2.263751028
2.235602102
2.338966951
2.428949114
2.502616093
2.578073673
2.718322263
2.873213534
3.006750365
3.113434143
3.202951621
3.251939532
3.247492488
3.189904975
3.082594218
2.92614578
2.718796546
2.438504456
2.062445001
1.832924653
)
;
    }
    region0_to_wallFilmRegion_mirrorFace
    {
        type            convectiveHeatTransfer;
        L               1;
        value           nonuniform List<scalar> 
558
(
2.963161851
3.507660533
3.573661473
3.477126572
3.64705704
3.955857807
3.834075219
3.861010671
3.909826845
3.990673345
3.666325163
3.788625671
3.893391638
3.992626949
4.115306496
4.243505342
4.323694631
4.359606907
4.380864737
4.330433745
3.989331177
4.122923931
4.188862006
4.345856833
4.557606759
4.582788569
4.563160863
3.964552245
4.299681152
4.297276771
4.450760269
4.221822204
4.302820077
3.999359394
3.97359988
4.071063158
3.705054661
3.721900725
3.798583001
4.016025708
1.955879136
3.534262301
3.527858104
3.604146888
3.655798246
3.661348339
3.789244993
1.230682875
1.230543336
1.470419877
2.024904677
2.061235939
2.248236829
0.8866050945
0.940333928
0.8230851286
1.575400808
1.022597535
1.767599506
2.478940468
2.35890777
2.530127047
2.554877673
2.675608138
2.885884021
3.010263873
3.390561967
3.399751407
1.260022882
1.143431248
1.270278094
1.252495049
1.015223028
1.205346017
1.15674966
1.815843275
1.064245646
1.924097629
2.483572476
2.396063105
2.45807147
3.021487413
2.712967055
3.089504937
3.816380104
3.4691681
4.392792443
1.366367693
1.428897245
1.446019262
1.364283655
1.466668627
1.473011393
1.156077334
1.440422048
1.341754668
2.044134169
1.215770799
1.953859678
2.556434607
2.511777374
2.647676781
2.912987569
2.880258302
2.855276524
3.126724303
2.715982559
2.753849836
3.281940139
2.847928296
2.921368908
1.483368691
1.5307616
1.52059631
1.508006442
1.52982135
1.556170411
1.556959824
1.590936444
1.621914601
1.540165616
1.637940062
1.624739473
1.498486166
1.5317197
1.190446781
2.831018192
2.146038789
2.669032122
2.752511079
2.762497503
2.498109505
2.369554948
2.199976987
2.076106954
2.481213113
2.160382687
2.078535745
1.544941695
1.55433311
1.556890048
1.598138497
1.586945153
1.638143503
1.680939275
1.696565981
1.745994209
1.702708094
1.782402671
1.783924445
1.400243498
1.764949029
1.592792589
1.78584364
1.262913182
1.017129041
2.052717451
1.2344348
1.411533882
1.856519679
1.518187945
1.664420602
1.586187939
1.530707108
1.559438718
1.701721789
1.625545009
1.713995169
1.83440278
1.808951036
1.883627099
1.899914494
1.949985704
1.984527517
1.818481406
2.003703231
1.956613423
1.433177849
1.855207338
1.694424411
1.333783862
1.584699462
1.489964278
1.71014394
1.583208719
1.848120006
1.652228522
1.434754194
1.461597969
1.819746747
1.531341293
1.621483837
1.987897098
1.716061588
1.810507348
2.115880861
1.904006486
2.003025751
2.052502204
1.997798105
1.942546761
1.630862034
1.768697883
1.749070761
3.506802925
3.803641284
4.014896398
1.04092147
1.775319599
1.788472392
2.676173224
0.9596820889
1.032503731
2.267561957
2.576637854
2.760856671
2.904278359
3.64962325
1.170898346
1.0817472
0.9584612898
2.355895165
2.747570986
3.462183357
3.230319318
1.349728499
1.379186919
1.297450857
1.201097742
2.484110861
2.679734191
2.844399073
3.352393703
1.496484204
1.487783699
1.535333925
1.556969868
1.380381543
2.391349049
2.925917627
2.477484173
2.457657141
1.550079797
1.562223611
1.641961618
1.70666335
1.688233143
0.7666591636
2.106447365
1.834719339
1.960114879
1.5705268
1.633174903
1.775661698
1.884330894
1.902600439
1.660809861
1.340945357
1.523444208
1.43889078
1.615852121
1.726443292
1.917807185
2.059291333
2.124657921
1.89782812
1.6197882
1.791444649
1.804987318
1.876982661
2.073140145
2.114622094
2.334039722
1.777733857
3.816882885
2.585500883
3.650975403
4.216177493
4.250671766
4.210849042
4.292063319
4.218716932
4.508943278
4.078203297
4.060687456
4.246259868
4.627294423
4.642892885
4.548233556
4.620610344
4.078755742
4.191462941
4.201523719
4.164080485
4.427361514
4.230587861
4.370589878
4.243117704
1.871101002
2.45875321
3.256540829
3.776335757
2.20433902
2.635028977
3.20620152
3.686817794
2.978555415
3.119369321
3.411426726
3.770537392
1.74517334
2.327559093
2.239850713
2.353821409
3.335861617
2.24929623
3.30268235
3.049179739
2.316072031
3.929014843
3.252926501
3.327767648
3.347125059
3.386789829
1.678064814
1.696573089
3.740168255
3.458068502
2.443190014
3.666818511
3.92396442
3.674366952
3.753022346
2.48976849
3.895795503
1.498464859
1.823571572
3.738831874
1.475748977
3.79087543
2.747760454
2.987882478
3.841953458
3.971138397
4.088950566
1.826725057
1.755151745
1.774958571
1.934022581
1.816702808
1.90023116
3.817727395
4.057177191
2.060693019
1.846761438
2.187628932
3.837497267
4.072751163
4.088670053
2.307915773
1.961246012
2.036454634
3.882811218
4.110000509
4.133630641
2.156971897
2.243598903
2.712757275
3.962618646
4.154210296
4.183057937
3.558212107
1.597020614
3.225135321
3.802792077
4.175457772
3.956263359
4.025431448
3.712489498
3.836326541
3.838461946
3.881875694
3.839489208
3.933137965
3.985856099
3.992113231
4.045771701
4.114440455
4.096524853
3.983917454
4.143789912
4.184748769
4.078966866
4.089082687
4.161950458
4.185766125
4.206436638
4.266667616
4.221408485
4.341304723
4.49459868
4.511529572
4.376098471
4.525890594
4.533809883
4.37101759
4.522770893
4.473298895
4.149066372
4.271660433
4.359788619
4.375969885
4.378255874
3.928281308
3.905504457
3.94471038
4.005653681
3.96732081
3.884486668
4.060922873
4.073490037
4.078698409
4.149596553
4.025631832
4.136626481
4.130230961
4.12158902
4.18195567
4.271612303
4.184495797
4.278729659
4.25038482
4.323972206
4.404154737
4.390062957
4.388791459
4.368704969
4.56489702
4.572809489
4.551901156
4.572281504
4.582835469
4.572654592
4.392134947
4.566122389
4.60743933
4.477663866
4.537665704
4.489235406
4.504714472
4.053455407
4.062644741
4.034529708
4.02678131
4.119905424
4.106338332
4.152427256
4.156829505
4.182964181
4.177885821
4.214087911
4.194031254
4.210535806
4.201379806
4.236130176
4.243437689
4.250696111
4.534979689
4.544253958
4.43623845
4.434110819
4.527458535
4.423618658
4.393366215
4.417336883
4.396366886
4.519204409
4.416560135
4.297332899
4.466179199
4.638621786
4.63743801
4.544253087
4.572928023
4.498922918
4.056002344
4.065654899
4.04581604
4.055896648
4.095767139
4.118924021
4.066601097
4.07568419
4.131062288
4.042744297
4.103753784
4.171529554
4.145598453
4.084139367
3.71289767
4.224967244
3.976557929
4.229862121
3.986986602
3.997171246
4.013505263
4.233771807
4.035204918
4.07669182
4.12983721
4.209991219
4.308575319
4.074286379
4.185681344
4.20844508
4.434210803
4.231620712
4.402714663
4.246351936
2.122180624
1.900423193
2.193929972
2.861879116
2.512102101
2.865045105
3.561920147
3.210103273
3.498915067
3.877087787
3.714965806
3.852034441
3.982076988
2.403565065
2.586302061
2.698623687
2.912171678
2.840678339
3.034800432
3.471852452
3.26982268
3.499569995
3.836307866
3.705424825
3.836987041
3.984765978
3.91995469
3.039601407
3.348280957
3.385255633
3.242283036
3.432435096
3.507242472
3.745967624
3.606619058
3.614361969
3.737270758
3.867976483
3.916455372
)
;
    }
    procBoundary1to0
    {
        type            processor;
        value           uniform 0;
    }
    procBoundary1to2
    {
        type            processor;
        value           uniform 0;
    }
    procBoundary1to3
    {
        type            processor;
        value           uniform 0;
    }
}


// ************************************************************************* //
