/*--------------------------------*- C++ -*----------------------------------*\
  =========                 |
  \\      /  F ield         | OpenFOAM: The Open Source CFD Toolbox
   \\    /   O peration     | Website:  https://openfoam.org
    \\  /    A nd           | Version:  8
     \\/     M anipulation  |
\*---------------------------------------------------------------------------*/
FoamFile
{
    version     2.0;
    format      ascii;
    class       volScalarField;
    location    "0.9";
    object      k;
}
// * * * * * * * * * * * * * * * * * * * * * * * * * * * * * * * * * * * * * //

dimensions      [0 2 -2 0 0 0 0];

internalField   nonuniform List<scalar> 
67451
(
0.01136658075
0.01253882711
0.0138563779
0.01533713989
0.01739651591
0.01960740297
0.02119615959
0.02171200548
0.02164054949
0.02137900082
0.02085123943
0.008581527996
0.009062192184
0.009764794572
0.01017042908
0.01054392896
0.01125623089
0.01270141307
0.01462713628
0.01552470454
0.01803944142
0.01984383782
0.0206729974
0.02125110495
0.02381657979
0.02458835612
0.02419812699
0.02332940263
0.02213483382
0.02090882006
0.01980583952
0.01928288764
0.01934218725
0.01958704239
0.02014956928
0.02086496334
0.02135111664
0.00759176777
0.009152305847
0.01032994074
0.01096658145
0.0119765143
0.01221951812
0.01215681419
0.01257767209
0.01469212433
0.01798150137
0.01571364686
0.01563784034
0.0171737225
0.01942905732
0.02586820129
0.03680751669
0.0373403367
0.03473644025
0.03155441067
0.02842102314
0.02561715009
0.02369034786
0.02341628493
0.02354931822
0.02294752096
0.02195892495
0.0212782423
0.02129677352
0.00901991758
0.01176661886
0.01379225289
0.01528977768
0.01705995494
0.01732403164
0.01726767929
0.01797687659
0.02141822115
0.02597885909
0.02260005699
0.02063051831
0.02361049836
0.03083872358
0.04223722016
0.05752658818
0.05573746896
0.04925125256
0.04217422886
0.03585472909
0.03083675401
0.02856863596
0.02974657307
0.03011519453
0.02812344888
0.02491007457
0.02209221214
0.0210854668
0.01618887391
0.01943208833
0.0225510713
0.02515856721
0.02515193748
0.02430203559
0.02504185256
0.02971143287
0.03449270561
0.0317477963
0.02993145615
0.03682746421
0.04903116641
0.06417269496
0.08007474081
0.07672472421
0.06657503947
0.05507092533
0.04462583692
0.03679595007
0.03544734506
0.04047000646
0.04060015885
0.03638353254
0.03011262014
0.0241501611
0.02093908441
0.02311260567
0.02758407489
0.0325307775
0.03575623752
0.03688074331
0.03253213114
0.03267210491
0.03873457593
0.04279186781
0.04056783167
0.03817679227
0.05092058856
0.07208541262
0.09273659026
0.1074380146
0.1021565178
0.08784511632
0.07133181773
0.05595325126
0.04460347472
0.04666953559
0.06067371871
0.05657721058
0.04855793744
0.03852888681
0.02858564009
0.02157120335
0.03359510522
0.03863895109
0.04508743349
0.04879406247
0.04591706067
0.04207021087
0.04169210006
0.04961174667
0.0534407933
0.04973946995
0.04631759819
0.0675982487
0.0986300403
0.1236593633
0.1370347735
0.130259703
0.1118528063
0.09003717498
0.06955302694
0.05476240061
0.06906395774
0.111120919
0.08517845086
0.06600972998
0.05037380079
0.03598258863
0.02395717077
0.04951487122
0.05354617987
0.06044175738
0.06453423178
0.05960581715
0.05211380288
0.05129567342
0.06149518944
0.06646097135
0.06128140814
0.05426447873
0.08127357048
0.1192381072
0.1450482997
0.1580255872
0.1514241277
0.1318086093
0.1064712663
0.08069367583
0.06651089183
0.1290764674
0.2506933919
0.1610739865
0.09554604313
0.06608424671
0.04597267835
0.02860538699
0.07312328259
0.07382982438
0.07834388038
0.08199190783
0.07457241076
0.06141845988
0.05737652448
0.06717616661
0.07337351594
0.07037946401
0.06007949086
0.05120662539
0.08634311663
0.1261812131
0.1440120994
0.1340000817
0.1101288089
0.07969720274
0.05302233553
0.06371936612
0.1088460047
0.1408694894
0.114336423
0.0952205028
0.07465032276
0.05421500473
0.03388135278
0.1059329048
0.100177369
0.09763263247
0.09894536845
0.09030803824
0.07221307914
0.05701971038
0.0571785248
0.06369621367
0.06274873044
0.05394226036
0.0445392126
0.05620732789
0.09074721453
0.1127078558
0.1027242262
0.08096084532
0.05599567413
0.04280670669
0.04989134145
0.08594860573
0.1044866721
0.09829201915
0.08348965561
0.06332777158
0.04313468654
0.02694554121
0.1431864952
0.1296886014
0.1156557766
0.1120770237
0.1042159926
0.08723593464
0.06538469283
0.05105725981
0.05076122035
0.05062987176
0.04597294184
0.03896034314
0.03901734439
0.06235803701
0.08390279776
0.07419850912
0.0560342625
0.04426805358
0.04942505657
0.05678286367
0.06620481729
0.07831138978
0.07512109917
0.06364997776
0.04892297306
0.0339499592
0.02310461454
0.1690155103
0.1491209362
0.1268915173
0.1166863532
0.1090537315
0.09590514626
0.07696263499
0.0583932303
0.04782040194
0.04318799073
0.03932128632
0.03356796074
0.02956448982
0.04349815465
0.0601546419
0.05230952822
0.04551781985
0.0515837207
0.06469763886
0.06898004784
0.06854204779
0.06634988631
0.05971446422
0.05010191365
0.03912313291
0.02824825201
0.02097576279
0.1431604604
0.122151429
0.1082886366
0.1064210233
0.1008283471
0.08927045927
0.07379387577
0.05825530104
0.04626827275
0.0388061653
0.03377902236
0.02808663041
0.02378931237
0.03259480034
0.04389753137
0.04423423617
0.05079405159
0.06320451304
0.0733724335
0.07566553374
0.07388166754
0.06784681462
0.05881484817
0.04926235303
0.04030542915
0.03110238111
0.02256399784
0.1059726973
0.09193423557
0.08946704999
0.09207094543
0.08754764253
0.07761920126
0.0651036273
0.05271335982
0.04195746478
0.03384134307
0.02813331087
0.02240929175
0.02064699547
0.02881562723
0.03847933774
0.0461801818
0.05833701087
0.06948850039
0.07702098985
0.07857545043
0.07654640717
0.07076949094
0.06214753462
0.05259472478
0.04381526083
0.03447895076
0.02463790329
0.07497721117
0.06792717649
0.07150677974
0.07563735185
0.07233457711
0.06448097315
0.05475170815
0.0448543178
0.03541220236
0.02781187667
0.02233460688
0.01750507786
0.02010997766
0.02850677644
0.03826404336
0.04851570002
0.06103769927
0.07088599762
0.07739381443
0.07885265366
0.07686082292
0.07160258007
0.06362984628
0.05413711355
0.04485176764
0.03516055406
0.02522255029
0.05495092336
0.0523856884
0.05525929694
0.05954248203
0.05781335126
0.05211151964
0.04456959015
0.03631204263
0.02825995383
0.02190913025
0.01743347545
0.01546518535
0.02136808361
0.02847221918
0.03746447781
0.04772073697
0.05960248325
0.06903598688
0.07537673871
0.07710375456
0.0753868956
0.07075056047
0.06356959239
0.05461993581
0.04528989899
0.03571673657
0.02611683705
0.05201545834
0.04764951347
0.04497748204
0.04621941293
0.04503470811
0.04100332535
0.03517400192
0.02853324138
0.02227702736
0.01749542557
0.01439141839
0.01620420133
0.0241152147
0.02880033255
0.03514925307
0.04427175718
0.05557685522
0.06503102478
0.07154851341
0.07378258252
0.07256436014
0.06873571883
0.06256246127
0.05457111382
0.0456570969
0.03652511617
0.02741905598
0.05635799261
0.05095301282
0.04424467813
0.03997430489
0.03692177938
0.03317385635
0.02850368966
0.02344628177
0.01881738556
0.01521871829
0.01348222962
0.01868148034
0.02708344695
0.03075163826
0.03354787328
0.0395367273
0.04970505651
0.05941466324
0.0662664915
0.06911451769
0.06852174279
0.06557997689
0.06048671643
0.05364084904
0.0456296945
0.03733798633
0.02887506256
0.05809539261
0.05382445157
0.04715903375
0.040213376
0.03486061018
0.03038783829
0.02607770269
0.02187135275
0.01802735187
0.0148317765
0.01433605744
0.02158175324
0.02921540177
0.0334852956
0.03481165032
0.035839591
0.04284808213
0.05249267278
0.05982190889
0.06322986891
0.06328391872
0.06118741951
0.05711524138
0.05139451056
0.04447832299
0.03712985802
0.02946661052
0.05784628756
0.05293700515
0.0474502559
0.04092400102
0.03538871392
0.03069473212
0.02645254171
0.02245397913
0.01873021855
0.01541847434
0.01582926514
0.02342456624
0.02999651958
0.03446283692
0.03621179325
0.03511923724
0.03693742171
0.04474030091
0.05256331447
0.05639088764
0.05706773653
0.05572885358
0.05258213019
0.04791556254
0.04210605216
0.03575263732
0.02907177324
0.07260959702
0.0516432118
0.04510644995
0.03984879434
0.03518829656
0.03095276106
0.02705605802
0.02321471561
0.01956318336
0.01607616198
0.0168188447
0.02369785682
0.02924580403
0.0335213606
0.03559241376
0.03481455816
0.0337345371
0.03761420465
0.04463173235
0.04899965819
0.05030935387
0.04964421023
0.04731488171
0.04359045646
0.0387985164
0.03333637862
0.0277836959
0.05372485984
0.04433067742
0.04351538481
0.06061574387
0.04066217424
0.03223087009
0.0276773411
0.02396309799
0.02007755005
0.01618065966
0.01682837082
0.02267086348
0.02734047444
0.0313081134
0.03335818914
0.03335684161
0.031750556
0.03241573137
0.03710641332
0.04160280025
0.04349816061
0.04342902531
0.04181463999
0.03893266881
0.03510577785
0.03054577645
0.02606860976
0.04225419914
0.04783524937
0.0999654079
0.1487491883
0.08143724917
0.04461779341
0.03036101423
0.02432096491
0.01989609349
0.01567019026
0.01588216119
0.02070670252
0.02480102924
0.02846660551
0.03072533445
0.03105571018
0.02967873622
0.02879734729
0.03097992189
0.03478172151
0.03700225904
0.03740730468
0.03639200643
0.03425704041
0.03133472756
0.027726711
0.02423757869
0.06396442294
0.1150753138
0.2004104467
0.2645912237
0.1806220891
0.1068728803
0.06044914036
0.03399838422
0.02151272949
0.0152300587
0.01439615991
0.01806041851
0.02201761114
0.02552085958
0.02806193382
0.02857205729
0.02731867293
0.02597786532
0.02647293295
0.0289714835
0.03105243873
0.0317159907
0.03115095239
0.02966922365
0.02750657821
0.02481228535
0.0223017096
0.079392662
0.1310267711
0.2022414581
0.2878884888
0.1868877721
0.1161213749
0.07099815632
0.04011654086
0.02304149869
0.01511377728
0.01318880693
0.01535341947
0.0188280913
0.02226966868
0.0245093329
0.0255379617
0.02468121673
0.02342810818
0.02305617931
0.02439482455
0.02591398769
0.02655050908
0.02627082503
0.02526625725
0.02374318284
0.02186726049
0.02031207076
0.06431310076
0.1031681164
0.1481908803
0.2137287142
0.1416672287
0.0930016904
0.05838774443
0.034400121
0.02066650629
0.0144547629
0.01264517646
0.01340346465
0.01580315435
0.01898123502
0.02122388825
0.02223904892
0.02191538189
0.02098861217
0.02034966561
0.02090322885
0.0217987546
0.02221391562
0.02203060277
0.02135519791
0.02035349026
0.01914876141
0.01837571862
0.0423478787
0.06876005057
0.09748132321
0.1417156238
0.09849783882
0.06664549908
0.04228407023
0.0260393275
0.01722227111
0.0137380743
0.0125866534
0.01248938913
0.01358017412
0.01590389179
0.01802098518
0.0191378452
0.01919009266
0.01865206593
0.01814602717
0.0183353964
0.01876162439
0.01892591853
0.01873923774
0.01826319973
0.01761524528
0.01685775431
0.01654125819
0.03110125038
0.04217948404
0.06149654761
0.091148396
0.06557031353
0.04438321156
0.0288496383
0.01916881122
0.01468844194
0.01324330969
0.01260967591
0.01220342192
0.01236391006
0.01352622043
0.01505932328
0.0161286709
0.01650601859
0.01643967189
0.01629904044
0.01644435188
0.0166370071
0.01663969806
0.01642449548
0.01603343988
0.01555265542
0.01498530772
0.0147674587
0.03280603137
0.03317453284
0.03891880459
0.05408634404
0.04146959793
0.0297175584
0.02089394133
0.01552116401
0.01339269927
0.01285423897
0.01251873445
0.01211475495
0.01185858544
0.01209291657
0.01274726251
0.01343130848
0.01395854562
0.01435149932
0.01464817317
0.01492627485
0.01507324967
0.01501632305
0.01477125893
0.01436570836
0.01385280496
0.01323454368
0.01293272862
0.03616116856
0.0340083783
0.03301804537
0.03533960025
0.03030837807
0.02469828601
0.01942096605
0.01518066579
0.01298347339
0.01235215929
0.01213441995
0.01185106371
0.01150343814
0.01124110942
0.01114691357
0.01124157355
0.0116189216
0.01225855721
0.01289607953
0.01335083671
0.01354405593
0.01348027721
0.013173619
0.01265906075
0.01233104321
0.01147153283
0.01098193732
0.03541899194
0.03455473217
0.03339395004
0.03220705323
0.02996010253
0.0269350415
0.02297502228
0.01828193638
0.01419925322
0.01211405298
0.01151687517
0.01128393593
0.01096275252
0.01049184178
0.009928012092
0.009478926291
0.009506426968
0.01011244475
0.0108877562
0.01144523484
0.01168318201
0.0116324404
0.01129039038
0.01076658544
0.01066224698
0.009695117698
0.008770587407
0.01742851234
0.0186889704
0.01998228697
0.02137093038
0.02305484536
0.02482158323
0.02588756702
0.02640445902
0.02626972455
0.02544094173
0.02392503026
0.01259337172
0.01412229048
0.01531328423
0.0156464546
0.01558951276
0.01598345023
0.01675261048
0.01804488628
0.0195120655
0.02167573016
0.02372380091
0.02554918688
0.02681647118
0.02731203105
0.02677970693
0.02545257702
0.02403969998
0.02226170154
0.02102251579
0.019706091
0.01889671877
0.01891889502
0.01959134816
0.0206575164
0.02196799475
0.02103490899
0.009440157894
0.01088181548
0.01262839982
0.01432539137
0.015802631
0.01590405703
0.01472400139
0.01429484469
0.01443889933
0.01576366912
0.01579596965
0.01678173523
0.01937713722
0.02345184832
0.02854574045
0.03266074163
0.03437155652
0.03344782492
0.03123080939
0.02889765499
0.02660994417
0.02481550347
0.02389677144
0.02367437284
0.02356389806
0.0233921925
0.0235393796
0.02160400033
0.009762781103
0.01170334405
0.01403049578
0.0165211624
0.01897802696
0.01984192807
0.0170365821
0.01644504842
0.01595010044
0.01742754698
0.01763434921
0.01811884365
0.02241484709
0.03147749784
0.04242338952
0.0485744651
0.05058677026
0.04769010793
0.04277297602
0.03794309776
0.03454911741
0.03294689928
0.03236320059
0.03121193543
0.02927610187
0.02689556137
0.02513346715
0.02192339431
0.01437271761
0.01822380825
0.02263980468
0.02729375
0.0309088708
0.02497547584
0.02381049043
0.02211741306
0.02273825061
0.02389045254
0.02619041116
0.03861838676
0.05801469994
0.07256685157
0.07845789176
0.07684869725
0.06829558445
0.05812444731
0.05018721042
0.04622835816
0.04619241985
0.04698397675
0.04353750921
0.03797343835
0.03178532168
0.02693001858
0.02205971066
0.02031879748
0.02704488746
0.03504022281
0.04575529957
0.07060092292
0.04066776443
0.03786420547
0.03654693137
0.0356499074
0.03410435814
0.03714264078
0.06661702261
0.0961540497
0.1151403263
0.1216158184
0.1153081254
0.09768104132
0.07839337241
0.06635304268
0.0650896925
0.07387675251
0.08430420737
0.06894853123
0.05300838169
0.03946876493
0.02961766861
0.02230547671
0.03194071503
0.04253428169
0.05338192038
0.06295120761
0.06644104607
0.0593643971
0.05962837638
0.0620307676
0.0611071369
0.05434441736
0.05327538956
0.09640239075
0.1327556573
0.1569704565
0.1654021494
0.157409713
0.132384912
0.1028841489
0.08746307623
0.09979110444
0.1506020173
0.2263867942
0.1389958039
0.08392953531
0.05334793077
0.03468116729
0.02314424483
0.0535456101
0.06765767782
0.07908667972
0.08637406175
0.08658491799
0.08190298178
0.08300057611
0.08755935335
0.08829535932
0.08289529308
0.07395864441
0.1053832674
0.1499039479
0.1755546059
0.1849856669
0.1782921404
0.152664789
0.1195744868
0.1066424837
0.1504289977
0.3701989503
0.3825111558
0.3408257628
0.1538310828
0.07964639362
0.04389571212
0.02491234171
0.08862957899
0.1029067597
0.1102054399
0.1133122745
0.1106567287
0.102989677
0.0988513351
0.09831118895
0.097470283
0.09186932399
0.08031679966
0.08643154863
0.1358781097
0.1635091443
0.1737144941
0.1649491359
0.1382539918
0.1131886817
0.112042298
0.1378647198
0.1879385748
0.2792764003
0.178150015
0.1231078187
0.08086250864
0.04702835646
0.02569213011
0.1394819726
0.1476647982
0.1443145356
0.1388379581
0.1315563517
0.1201413271
0.1085473725
0.09935645974
0.09236217006
0.08317201455
0.06502130914
0.05151245372
0.07851901268
0.1119980148
0.125024885
0.119007263
0.1044892811
0.09915619667
0.1090321352
0.129309804
0.143863404
0.153564023
0.1327173944
0.1041446911
0.06887148788
0.04056683307
0.0225397445
0.1863534823
0.1863316944
0.1719364719
0.1568926719
0.1449434485
0.1282363322
0.107947169
0.08997906221
0.07596356257
0.06397570189
0.05093675279
0.03671432059
0.04367107194
0.06533927558
0.08089337292
0.08600283069
0.09014799741
0.09703829723
0.1068450312
0.118879144
0.1260203506
0.1213922917
0.1038070391
0.07488997537
0.04733706385
0.03123794534
0.02074955392
0.197631851
0.1936586147
0.1781759953
0.1602888145
0.1446091497
0.1239332829
0.09863307834
0.07595174152
0.05917668068
0.04731791633
0.03929372867
0.02908936563
0.02947534156
0.04273882089
0.05911221221
0.07351195424
0.08842618494
0.09847194134
0.1048900291
0.1116375361
0.1140675818
0.1067067734
0.08838092826
0.06239861886
0.04080199829
0.02816763845
0.02014888831
0.174154688
0.1719955679
0.1592742393
0.145090869
0.1312742553
0.1109382874
0.08573450142
0.06300648488
0.04656332828
0.03600341959
0.0299604576
0.02318189908
0.02331053454
0.03373553753
0.05029987687
0.06982936447
0.0893888657
0.09960065495
0.1060311881
0.1104051378
0.1099915227
0.1021474956
0.08597725828
0.06405320036
0.04441867579
0.03098754925
0.02137407734
0.1301836549
0.1351802291
0.1302868949
0.1213530485
0.1093849795
0.09074262061
0.06881425704
0.04982767725
0.03636279862
0.02797156832
0.02316448213
0.01885152941
0.02073236782
0.03051757361
0.04679617519
0.06909623811
0.08922512157
0.1006595294
0.1075648074
0.1111620591
0.1097872967
0.1020830966
0.08773863178
0.06887340738
0.04995088351
0.03493353123
0.02302893258
0.1065283812
0.1094599783
0.1049958741
0.09686588756
0.08547651325
0.06961272971
0.05274801282
0.03874849493
0.02869133602
0.02230063366
0.01861412703
0.01689292327
0.02130300294
0.03040795033
0.04535890968
0.06747375796
0.08760369019
0.09999884541
0.1073484389
0.1109317685
0.1096410639
0.1026189896
0.08986065751
0.07305597473
0.05470963361
0.03823733075
0.02420457462
0.09875131041
0.09686957881
0.08942216577
0.07892026491
0.06702287796
0.05392155948
0.04156916026
0.03139011549
0.023670995
0.0185638286
0.01582582548
0.0176568318
0.02568477688
0.03393779598
0.04608778364
0.06499908632
0.08449225835
0.09696793652
0.1045730339
0.1083668838
0.1075672453
0.1015174441
0.09032296403
0.07540120235
0.05900372998
0.04121498766
0.02501449564
0.09559644564
0.09159685794
0.08196905839
0.06901298804
0.05612331862
0.04464348016
0.03495524174
0.02688721759
0.02061311154
0.0163461694
0.01456155857
0.01958090634
0.03209851051
0.04088962761
0.05021631547
0.064005042
0.08064369498
0.09178935342
0.09920193027
0.1031067663
0.102890475
0.09795379988
0.08838982373
0.07531092843
0.06073706696
0.04493646393
0.02673726507
0.09380126761
0.0883210861
0.07769015991
0.06364790254
0.04993950026
0.03931186126
0.03103802394
0.02423288318
0.01888597913
0.01525767289
0.014735243
0.02248292435
0.03635532044
0.04700645459
0.05563045241
0.06515086784
0.07625041492
0.08499315145
0.09154890352
0.09529281202
0.09559329781
0.09179864006
0.08391758058
0.07278181204
0.05994155975
0.0453510918
0.02837677794
0.09440410033
0.0855207629
0.07426061449
0.05988326993
0.04634597823
0.03632437222
0.02884665292
0.0228365625
0.01806024314
0.01492215886
0.01587369505
0.02525966412
0.03861654283
0.04894383662
0.05715093004
0.06458649007
0.07153582727
0.07729471566
0.082259356
0.08545866376
0.08608099316
0.08333559813
0.0770863527
0.06791472179
0.05700709204
0.04413680808
0.02907038049
0.09470659083
0.08066238722
0.07000826596
0.05657210437
0.0438902088
0.03447774134
0.02754475878
0.02273881072
0.01815510853
0.01493079827
0.0170676288
0.02674946773
0.03850378084
0.04766568411
0.05475115808
0.06069794951
0.0656104826
0.06912565796
0.07220237164
0.07450143611
0.07516119647
0.07325115997
0.06846831925
0.06118013497
0.05234007675
0.04163971223
0.02870191516
0.08667093395
0.07532877397
0.06740099877
0.05508250797
0.04211786979
0.03277133234
0.02791359454
0.02218648514
0.01729573179
0.01484096142
0.01755369035
0.02639112696
0.03624627501
0.04417889805
0.05018657126
0.05488674988
0.05844188235
0.06068186328
0.06223879078
0.06351709834
0.06395758287
0.06260725574
0.05903694106
0.05344806735
0.04689478296
0.03851879873
0.02715408462
0.06834633983
0.07018859348
0.08707077648
0.07628686117
0.04746957617
0.0333303256
0.0263278471
0.02110173797
0.01785240842
0.01476593142
0.01712885874
0.0242885061
0.03235969338
0.0392531026
0.04449480403
0.04848096566
0.05096037493
0.0523908266
0.05305082021
0.05348937514
0.05359061129
0.05254928463
0.04990395725
0.04570453352
0.0409377386
0.03542315546
0.02544556363
0.0576239911
0.09540962747
0.1807430416
0.2141426095
0.1053828222
0.04084178629
0.02558873904
0.01960545387
0.01644940077
0.01430191648
0.01615109392
0.02141301556
0.02781605972
0.03401139186
0.04069829587
0.04233526798
0.04381831274
0.04473139129
0.04496809939
0.044969072
0.04478194406
0.04386634527
0.04184251559
0.03866059021
0.0350550829
0.03127013838
0.02383337857
0.05692445106
0.1271092026
0.2545913202
0.3011599478
0.1878317334
0.05914064378
0.02829218219
0.02046059835
0.01643645658
0.01418085866
0.01525715949
0.01879721864
0.02360086322
0.02925557006
0.033792913
0.03909838524
0.03843648795
0.03820756203
0.03803579452
0.03799098834
0.03768350835
0.03680598249
0.03510441721
0.03254527106
0.02984796765
0.02703053315
0.02221268908
0.05155490836
0.1138764349
0.2396029331
0.3209547395
0.1850456278
0.05246119722
0.02739990342
0.02118915098
0.01701257089
0.01482001826
0.01504907273
0.01698952338
0.02012123309
0.02394284618
0.02800449555
0.03225712398
0.03312098689
0.03248499047
0.03227101937
0.0322239926
0.03194662
0.03109886668
0.02958255685
0.0275357491
0.02557269759
0.02353201075
0.02054123157
0.0431263728
0.07305560324
0.1492441327
0.2102704834
0.1141255158
0.03991115817
0.0255615166
0.02028236593
0.0170483409
0.01549448716
0.01528178361
0.01593119658
0.01743934467
0.0198950171
0.02281770743
0.0258317265
0.02708610254
0.02748381056
0.02755437042
0.02760856111
0.02737273404
0.02660953212
0.02532657029
0.02371803819
0.02228726785
0.02082830497
0.01883538069
0.0393337415
0.04674656412
0.07396611806
0.09408783358
0.05845851377
0.02920100482
0.02201046039
0.01807338884
0.01625007313
0.01559846558
0.01530906172
0.01515423338
0.01548877027
0.01677038721
0.01872132929
0.02106780192
0.02233810747
0.02321943124
0.02371037347
0.02400181608
0.02390427416
0.02331669693
0.02231311129
0.02106418452
0.01990917595
0.01874982764
0.017100957
0.04004071204
0.03802583619
0.042651095
0.04497409123
0.03290747273
0.02300945433
0.01818553592
0.01570459764
0.01520139677
0.01523762692
0.01496338275
0.01443524467
0.01412280853
0.01454404977
0.01568697252
0.01726468312
0.01854854199
0.0197218431
0.02065716663
0.02127379217
0.02141211495
0.02107347295
0.02035485441
0.01940612864
0.01826279232
0.01716005406
0.01530678023
0.04283396966
0.03837004845
0.03475262792
0.03210427272
0.02585688648
0.02007431974
0.01621636883
0.01449677419
0.01459266903
0.01500990637
0.01485128309
0.01424370663
0.01366551119
0.01351496317
0.01390405333
0.01473973525
0.01581208913
0.01712522892
0.01842434582
0.01938013694
0.01978885442
0.01968475409
0.0191523365
0.0183464954
0.01688862471
0.01522150024
0.01335951721
0.04549825924
0.04100033758
0.03546176064
0.03064199981
0.02581237796
0.02131063031
0.01741038232
0.01489386508
0.01418140267
0.01438448019
0.01446888902
0.01412625888
0.01357344501
0.01308458343
0.01285140557
0.01301298645
0.01368911184
0.01488972735
0.01625130489
0.01731731552
0.01782006811
0.01776907684
0.01713925636
0.01667138529
0.01825396985
0.01378151515
0.01128004402
0.03707180181
0.03614345097
0.0339433942
0.03140886982
0.02858578961
0.02531297565
0.02143595636
0.01731569021
0.0140521434
0.01247565032
0.012030041
0.01180014227
0.01141104265
0.01085375194
0.01027194577
0.009949274621
0.01016649985
0.01091001003
0.01182064798
0.01252324628
0.01283766994
0.01275593648
0.01233457952
0.01174119979
0.01238445431
0.01061099482
0.008848060763
0.02212724599
0.02345979026
0.02464695598
0.02525782706
0.02562762367
0.02620151983
0.02697950557
0.02745180315
0.02752022003
0.02701333593
0.02580136708
0.02381623792
0.02121163598
0.01829412608
0.01588677034
0.01603257262
0.01819979084
0.01973949581
0.02048074155
0.02076777017
0.02114658789
0.02151897513
0.02216910945
0.02354594594
0.02533553767
0.02725972338
0.02868604757
0.02904329757
0.02826416071
0.02655960225
0.02417759135
0.02166746134
0.0193362277
0.01798235729
0.01710731321
0.01682924776
0.01753592798
0.01889694155
0.02055230295
0.02179305577
0.01991935521
0.01100125636
0.01281457066
0.01511431626
0.01737683154
0.01888277541
0.01917696629
0.01833853609
0.01787201796
0.01766753964
0.0180161495
0.01877818596
0.02062421674
0.02489800604
0.02977893497
0.03304007721
0.03431782368
0.03382270076
0.03168166105
0.02875595351
0.02607296583
0.0239008753
0.02217689897
0.02180309858
0.02253758905
0.02322692759
0.02388146252
0.02417862513
0.02101023794
0.01076802243
0.01258625134
0.01519750895
0.01811681904
0.02043641612
0.02183295966
0.01828222362
0.01716701105
0.01654359984
0.01688117437
0.01785710649
0.02089837741
0.03088704455
0.04143865525
0.04867316279
0.05161851863
0.05074505368
0.04663470988
0.04110875786
0.03599232235
0.03278079236
0.03121064075
0.03077453068
0.03052965903
0.02910499501
0.02755688965
0.02631397952
0.02145393961
0.01431779713
0.01835900787
0.02336528105
0.0294044961
0.0393642205
0.02547991405
0.02260652501
0.02194673246
0.02209571863
0.02457798402
0.03311785201
0.05628586897
0.07407126028
0.08317083563
0.08524111558
0.08061596233
0.07067164334
0.05954609695
0.05104876057
0.0475110181
0.04870256681
0.0483623992
0.04451262006
0.03792244965
0.03198690888
0.02820247911
0.02143539701
0.01987856769
0.02741030509
0.03774741248
0.06223060144
0.07605778533
0.05020371686
0.03842654991
0.03959166237
0.03894900736
0.04182963022
0.05906861484
0.09382264672
0.1152287876
0.1280260263
0.1306207036
0.1222998515
0.1045798449
0.08533934071
0.07337023832
0.07546803833
0.09235278084
0.09699909108
0.07652385512
0.05441820366
0.03920188636
0.03049818354
0.02152764378
0.03188093637
0.04401637047
0.05571236435
0.06607261394
0.07672836246
0.06417692836
0.0662613459
0.07168217684
0.07229066233
0.07400639167
0.09230483786
0.1242633834
0.1494844789
0.1649614844
0.1693223306
0.1613184886
0.1398068097
0.1147563596
0.1046152395
0.1349075468
0.2144161164
0.2574875652
0.1662912879
0.09131937957
0.05437233228
0.0355854113
0.02239357362
0.05619843642
0.07218513509
0.08365306304
0.09035253941
0.09024184802
0.08852409358
0.09116854724
0.096938203
0.09856115042
0.09779327306
0.107535144
0.1378793349
0.1649727876
0.1803367712
0.1850174407
0.1789147344
0.159396424
0.1356947707
0.1354457677
0.2197942658
0.3608542402
0.4169006228
0.3235577322
0.1627158794
0.08283507483
0.04595701388
0.02425137086
0.09866157443
0.1121757955
0.1172856755
0.1184593304
0.1144708551
0.1081333245
0.1042538152
0.1040889576
0.1033030966
0.09981844705
0.09806498654
0.1225584415
0.1561430052
0.1748935106
0.1805141863
0.173504048
0.1544463467
0.1363392014
0.134976513
0.1660103229
0.2410950647
0.2806797624
0.2001804714
0.1320620569
0.08451816355
0.05148035011
0.02542728848
0.1555227892
0.1587230581
0.1510644044
0.1432832074
0.1348322698
0.1234123013
0.1111618517
0.1030320979
0.09745424028
0.08934957031
0.07239858255
0.07614922203
0.108042373
0.1308638119
0.1397551376
0.1371620659
0.1284064771
0.1234521322
0.1271038365
0.1408165164
0.162234983
0.1725387805
0.1460317631
0.1148854166
0.08026922994
0.05127362494
0.02538983582
0.1920781633
0.1891270331
0.1730684066
0.1580626455
0.1462791045
0.1307871348
0.1106929172
0.09242942424
0.07880711652
0.06473898398
0.04337721947
0.0393128777
0.05791912113
0.08240250884
0.09583696498
0.1032786005
0.1072806184
0.1116994554
0.1186157207
0.1279872301
0.135828736
0.1354305558
0.1211971697
0.09449447445
0.06201254176
0.03958940783
0.02229940031
0.1979243113
0.1937849887
0.1768394569
0.1592735018
0.1450869165
0.1263120973
0.1013501757
0.07684331233
0.05785718603
0.04292652307
0.02939801625
0.0248026564
0.03321395665
0.05165505269
0.07111784339
0.08669487057
0.09787062492
0.1064157651
0.1138896614
0.1205608257
0.1237908386
0.1199472469
0.1056530497
0.07964622452
0.05151700636
0.03370174103
0.02132307328
0.1785216337
0.1752874985
0.1606207912
0.14620941
0.1326938693
0.1126623974
0.08633869621
0.06090138618
0.04192365003
0.02986538488
0.02212146878
0.01902034796
0.02455620434
0.03935663075
0.06056530392
0.08173423192
0.0954447735
0.1052163347
0.1124866548
0.1174683158
0.1183815206
0.1129128055
0.09873652929
0.07578167568
0.05121487755
0.03380635823
0.02173888625
0.1392826604
0.1410786571
0.1342021814
0.1245629293
0.1117427542
0.09195454099
0.06787105109
0.04604257883
0.030955602
0.02246778526
0.01800018507
0.01696052251
0.02273009784
0.03608573526
0.05753852361
0.08094373228
0.09498679714
0.1050073925
0.1121206745
0.1163540172
0.1163806662
0.1105348035
0.09727491218
0.07714443319
0.05482594595
0.03656569742
0.02286226635
0.1146022889
0.1160052495
0.1113823353
0.1022655735
0.08887051423
0.07067597607
0.05108973726
0.0346489628
0.02411383006
0.01842706812
0.01597751067
0.01802525765
0.02575545945
0.03804335004
0.05781814249
0.08019384712
0.09372573452
0.1036978463
0.110772394
0.1148123602
0.1147468646
0.1092894573
0.09740184273
0.07966312681
0.05916267643
0.0401554565
0.02409462063
0.1055649982
0.1039977831
0.09737468807
0.08575285455
0.07086568373
0.05438924879
0.03909647647
0.02736818188
0.0202693826
0.01644468156
0.01556185151
0.02120346984
0.03259176555
0.04427037523
0.0607727335
0.07884376743
0.0910355711
0.1004862397
0.1073768492
0.1113708851
0.1115397707
0.1068451688
0.0965619747
0.08119752853
0.06284163651
0.04456132514
0.0247881754
0.1029099397
0.09903403106
0.08986226892
0.0754201565
0.05883229966
0.04353280241
0.03143674451
0.02319507376
0.01830961202
0.01580240888
0.01665403019
0.02548020089
0.0391585666
0.05099525717
0.06395717553
0.07699101614
0.0871112802
0.09535837816
0.101648302
0.1054510722
0.1058994483
0.102101875
0.09350809176
0.0804981439
0.06436122066
0.04728487426
0.02635159912
0.1025968618
0.09606282952
0.08493615975
0.06837590451
0.05037395616
0.03611829472
0.02663273408
0.02079615474
0.01737291795
0.01601973627
0.01892244032
0.02983084654
0.04310592005
0.0540623392
0.06431863689
0.07402880238
0.08203383192
0.08857862465
0.09376404828
0.09707749871
0.09769463466
0.09478890532
0.08788142047
0.07721121954
0.06369437193
0.04824787206
0.02800305096
0.1046009529
0.09271769355
0.08029538724
0.06237999809
0.04370887372
0.03071892152
0.02336763455
0.01929422265
0.01695565087
0.0166646244
0.02140191047
0.03283476568
0.04427321894
0.05347906613