/*--------------------------------*- C++ -*----------------------------------*\
  =========                 |
  \\      /  F ield         | OpenFOAM: The Open Source CFD Toolbox
   \\    /   O peration     | Website:  https://openfoam.org
    \\  /    A nd           | Version:  8
     \\/     M anipulation  |
\*---------------------------------------------------------------------------*/
FoamFile
{
    version     2.0;
    format      ascii;
    class       volScalarField;
    location    "0.9";
    object      N2;
}
// * * * * * * * * * * * * * * * * * * * * * * * * * * * * * * * * * * * * * //

dimensions      [0 0 0 0 0 0 0];

internalField   nonuniform List<scalar> 
67451
(
0.7899951349
0.7899952011
0.7899952929
0.7899954132
0.7899956034
0.7899958739
0.7899960877
0.7899960844
0.7899959528
0.7899957671
0.7899956028
0.7899951939
0.7899952695
0.7899953278
0.7899953053
0.7899952861
0.7899952814
0.7899953251
0.7899954198
0.7899954857
0.7899957182
0.7899959074
0.7899959194
0.789995845
0.7899958573
0.7899958533
0.7899958485
0.789995851
0.7899958815
0.7899958786
0.7899958145
0.7899957282
0.7899956484
0.7899956951
0.7899958294
0.7899956396
0.7899956508
0.7899949012
0.7899951303
0.7899952853
0.7899953815
0.789995508
0.7899955106
0.7899955601
0.7899955432
0.7899956205
0.7899957347
0.7899955599
0.7899955217
0.7899956096
0.7899957015
0.789996028
0.7899964188
0.7899964882
0.7899964862
0.7899964584
0.7899964023
0.7899962999
0.7899961424
0.7899959502
0.7899957673
0.7899957289
0.789995833
0.7899956678
0.7899956788
0.7899950325
0.7899952664
0.7899954051
0.7899955034
0.7899956869
0.7899956485
0.7899958618
0.7899958291
0.7899959965
0.7899961678
0.7899960325
0.7899959131
0.789995996
0.7899962685
0.7899966611
0.7899970636
0.7899970738
0.7899969981
0.789996899
0.789996777
0.7899965945
0.7899963715
0.7899961039
0.7899958525
0.7899957184
0.7899957944
0.7899957532
0.7899958036
0.7899954734
0.7899955848
0.789995666
0.7899958847
0.7899957117
0.7899961296
0.7899960282
0.7899962546
0.7899964099
0.7899964584
0.789996399
0.7899965472
0.7899968056
0.7899970469
0.789997478
0.7899974974
0.7899973536
0.7899971871
0.789997006
0.7899967357
0.7899965328
0.7899961064
0.7899958294
0.7899956387
0.7899956938
0.789995829
0.7899960315
0.7899957658
0.7899958357
0.7899958308
0.7899959676
0.7899943768
0.7899963125
0.7899961336
0.7899964664
0.7899964915
0.7899966783
0.7899966402
0.7899968136
0.7899971405
0.7899974933
0.7899980125
0.7899980491
0.7899978166
0.7899975333
0.7899972533
0.7899968169
0.7899967267
0.7899960629
0.7899956634
0.7899954884
0.7899955549
0.7899958163
0.7899963173
0.78999615
0.7899962271
0.7899963315
0.7899964684
0.7899962284
0.7899966547
0.7899965728
0.7899967548
0.7899967014
0.7899967859
0.7899968239
0.7899971139
0.7899975944
0.789998073
0.7899986465
0.7899987011
0.789998401
0.7899979957
0.7899976072
0.7899969774
0.7899969918
0.7899961606
0.7899960351
0.7899956052
0.7899954855
0.789995714
0.7899965191
0.789996611
0.7899966792
0.7899968342
0.7899969485
0.7899967021
0.7899969641
0.7899969452
0.7899971529
0.7899971215
0.7899970059
0.7899970355
0.7899975201
0.7899980356
0.7899984934
0.7899991884
0.7899993365
0.7899990559
0.789998539
0.7899980688
0.7899968272
0.7899970021
0.7899991076
0.7899883145
0.7899916714
0.7899942143
0.7899952652
0.7899962901
0.7899971685
0.7899972124
0.7899974139
0.7899975405
0.7899972905
0.7899971928
0.7899971839
0.7899974241
0.7899974599
0.789997326
0.7899970672
0.7899970576
0.7899975226
0.7899981416
0.7899989674
0.7899989859
0.7899985664
0.7899979576
0.7899973772
0.7899970852
0.7899975746
0.7899967186
0.7899958855
0.7899964381
0.7899963151
0.7899961245
0.7899964929
0.7899978178
0.7899977989
0.7899979879
0.7899981239
0.789997843
0.7899973842
0.7899970903
0.7899971689
0.7899972971
0.7899972077
0.789996988
0.7899969432
0.7899970792
0.789997609
0.789998419
0.7899983961
0.7899980017
0.7899975098
0.7899971613
0.7899968518
0.7899974667
0.7899971347
0.7899967691
0.7899964324
0.7899961666
0.7899960423
0.7899965795
0.7899985165
0.7899983962
0.7899984525
0.7899985706
0.7899983455
0.789997779
0.7899971789
0.7899969011
0.7899969398
0.7899969454
0.7899968907
0.789996853
0.7899968147
0.789997283
0.7899979638
0.7899978768
0.7899975584
0.7899973306
0.7899974468
0.7899974319
0.7899973634
0.7899971204
0.7899969656
0.7899966419
0.7899963549
0.789996241
0.789996746
0.7899994442
0.7899991226
0.7899988639
0.7899988087
0.7899986563
0.7899982213
0.7899976112
0.7899970854
0.789996837
0.7899967737
0.7899967581
0.7899967039
0.7899966316
0.7899970651
0.7899975688
0.7899974829
0.7899974351
0.7899976384
0.7899980154
0.7899980286
0.7899978128
0.7899974219
0.7899971111
0.7899968058
0.78999661
0.7899965305
0.7899968693
0.7899990784
0.7899984478
0.7899984596
0.7899985748
0.7899984455
0.7899980267
0.789997485
0.7899969906
0.7899966806
0.7899965531
0.7899965183
0.7899964777
0.7899965344
0.7899969569
0.7899973068
0.7899974079
0.7899976734
0.7899980625
0.789998439
0.789998467
0.7899982894
0.7899979481
0.7899976059
0.789997343
0.7899971939
0.7899970665
0.7899970536
0.7899981947
0.7899977714
0.7899979872
0.7899981372
0.7899979765
0.7899975735
0.7899971068
0.7899966935
0.7899964022
0.7899962541
0.789996213
0.7899962454
0.7899966036
0.7899969884
0.7899972914
0.7899975622
0.7899979496
0.7899983407
0.7899986776
0.7899987244
0.7899985857
0.7899983203
0.7899980346
0.7899978178
0.7899976487
0.7899974426
0.7899972168
0.7899973822
0.7899971998
0.7899974048
0.789997542
0.789997382
0.7899970369
0.7899966619
0.7899963292
0.7899960687
0.7899959313
0.7899959116
0.7899961391
0.7899968387
0.789997132
0.7899974085
0.7899977203
0.7899980937
0.7899984567
0.7899987682
0.7899988307
0.7899987172
0.7899984944
0.7899982409
0.7899980298
0.7899978372
0.7899976059
0.7899973337
0.7899968144
0.7899967555
0.7899968099
0.7899969246
0.7899967999
0.7899965332
0.7899962379
0.7899959561
0.7899957389
0.7899956364
0.7899956664
0.78999622
0.7899970802
0.7899973216
0.7899975452
0.7899978128
0.7899981289
0.7899984567
0.789998745
0.7899988206
0.7899987291
0.7899985376
0.7899983085
0.7899981033
0.7899979284
0.7899977514
0.7899974944
0.7899966816
0.7899965115
0.7899963737
0.789996396
0.7899962965
0.7899960904
0.7899958426
0.789995607
0.7899954594
0.7899954103
0.7899955236
0.789996336
0.7899972113
0.7899974516
0.7899976527
0.7899978664
0.7899981095
0.7899983863
0.7899986442
0.7899987342
0.789998672
0.7899985199
0.7899983285
0.7899981491
0.7899980216
0.7899978787
0.7899976371
0.7899967689
0.7899965016
0.7899962116
0.7899960601
0.7899959121
0.7899957244
0.7899955119
0.7899953118
0.7899952692
0.7899952865
0.7899955503
0.7899965564
0.7899973035
0.7899975293
0.7899977015
0.7899978766
0.7899980634
0.7899982783
0.7899984963
0.7899986026
0.789998577
0.7899984702
0.7899983219
0.7899981715
0.7899980566
0.789997926
0.7899977557
0.7899967337
0.7899964752
0.7899961559
0.7899958988
0.7899956946
0.7899954984
0.7899952778
0.7899949231
0.7899951784
0.7899952767
0.7899957591
0.7899968301
0.7899973614
0.7899975727
0.7899977275
0.7899978454
0.7899979868
0.7899981542
0.7899983257
0.7899984425
0.7899984526
0.7899983881
0.7899982797
0.7899981577
0.7899980578
0.7899979414
0.7899978018
0.7899965031
0.7899963378
0.7899960676
0.7899958187
0.7899955884
0.7899953779
0.7899950318
0.7899948849
0.7899954639
0.7899953875
0.7899960565
0.7899970291
0.7899973642
0.7899975631
0.789997724
0.7899978089
0.7899978748
0.7899980198
0.7899981529
0.7899982664
0.7899983028
0.7899982713
0.7899981957
0.7899980997
0.7899980168
0.7899979098
0.789997784
0.7899961567
0.7899960081
0.7899958152
0.7899956146
0.7899954367
0.7899953502
0.7899952788
0.789995461
0.7899954091
0.7899954641
0.7899962877
0.7899971102
0.7899973181
0.7899975025
0.7899976716
0.78999776
0.7899977599
0.7899978756
0.7899979831
0.7899980885
0.7899981383
0.7899981288
0.7899980792
0.7899980095
0.7899979526
0.7899978793
0.7899977462
0.789995727
0.789995741
0.7899956455
0.7899955238
0.7899952911
0.7899952676
0.7899952504
0.789995263
0.7899953136
0.7899955561
0.7899964181
0.7899971073
0.7899972427
0.7899974038
0.7899975725
0.7899976643
0.7899976462
0.7899977368
0.78999782
0.7899979177
0.7899979706
0.7899979737
0.7899979435
0.7899978976
0.7899978566
0.7899978102
0.7899976764
0.7899955199
0.7899954886
0.7899954461
0.7899961252
0.7899951503
0.7899950949
0.7899951687
0.789995218
0.7899952984
0.7899956177
0.7899964426
0.7899970388
0.789997153
0.7899972725
0.7899973956
0.7899975252
0.7899975291
0.789997612
0.7899976611
0.7899977499
0.7899978019
0.7899978132
0.7899977982
0.78999777
0.7899977273
0.7899976869
0.7899976064
0.7899956964
0.7899961722
0.7899962648
0.7899981839
0.7899963723
0.7899952447
0.7899949526
0.7899950365
0.7899952386
0.7899956085
0.7899963313
0.7899968928
0.7899970629
0.7899971682
0.7899973756
0.7899973854
0.7899974372
0.7899974908
0.7899975
0.7899975682
0.7899976195
0.7899976404
0.7899976402
0.7899976218
0.7899975882
0.7899975581
0.7899975399
0.7899955923
0.7899961447
0.7899967094
0.7900004283
0.7899970271
0.7899950907
0.7899946026
0.7899947454
0.7899950659
0.7899954849
0.789996093
0.7899966342
0.7899969197
0.7899970295
0.7899970889
0.7899973064
0.7899973484
0.78999737
0.7899973333
0.7899973585
0.7899974019
0.7899974327
0.7899974469
0.7899974481
0.789997444
0.7899974413
0.7899974591
0.7899952923
0.7899956577
0.7899957943
0.7899983045
0.7899953916
0.7899944226
0.7899943621
0.7899945957
0.7899949642
0.789995377
0.7899958511
0.7899963151
0.7899966802
0.7899969109
0.7899971172
0.7899972176
0.7899972683
0.7899972355
0.7899971548
0.7899971336
0.7899971581
0.7899971927
0.7899972235
0.7899972514
0.7899972831
0.7899973116
0.7899973372
0.7899952051
0.789995339
0.7899953219
0.7899958053
0.7899943728
0.7899942227
0.7899943441
0.7899946185
0.7899949749
0.7899953245
0.7899956667
0.789996016
0.7899963691
0.7899966887
0.7899969434
0.7899970956
0.7899971458
0.7899970811
0.7899969738
0.7899969234
0.7899969294
0.7899969612
0.7899970028
0.7899970507
0.7899971054
0.7899971471
0.7899971535
0.7899954218
0.7899953965
0.7899952398
0.7899947322
0.7899942609
0.7899943394
0.7899945311
0.7899947909
0.789995048
0.7899953037
0.7899955407
0.7899957914
0.7899960781
0.7899963949
0.7899966796
0.7899968815
0.7899969624
0.7899969073
0.7899968082
0.7899967555
0.7899967521
0.7899967775
0.7899968194
0.78999687
0.7899969276
0.789996946
0.7899969026
0.789995858
0.7899957983
0.78999559
0.7899948488
0.7899946655
0.7899947867
0.7899949485
0.7899950478
0.7899951523
0.7899953084
0.7899954725
0.7899956553
0.7899958693
0.789996115
0.7899963595
0.7899965715
0.7899967035
0.7899967104
0.7899966633
0.7899966343
0.789996633
0.7899966504
0.7899966809
0.7899967055
0.78999672
0.7899966882
0.7899965941
0.7899962114
0.7899962103
0.7899961296
0.7899955829
0.7899954657
0.7899954933
0.7899954652
0.7899953478
0.789995278
0.7899953283
0.7899954424
0.7899955834
0.7899957362
0.7899958889
0.7899960323
0.7899961848
0.7899963458
0.7899964517
0.7899964982
0.7899965186
0.7899965323
0.789996544
0.7899965584
0.7899965513
0.789996552
0.7899964224
0.7899962475
0.7899970577
0.78999697
0.7899968642
0.7899965028
0.7899963187
0.7899961648
0.7899959552
0.7899956867
0.7899954531
0.7899953855
0.789995461
0.7899955695
0.7899956521
0.7899956908
0.7899957019
0.7899957583
0.7899959222
0.7899961293
0.7899962854
0.7899963666
0.7899963936
0.7899963649
0.7899963342
0.7899961475
0.7899962607
0.7899959321
0.7899957641
0.7899950858
0.7899951525
0.7899952388
0.7899953663
0.789995644
0.7899960094
0.789996223
0.7899962193
0.7899960425
0.7899957571
0.789995476
0.7899950458
0.7899951059
0.7899951397
0.7899951358
0.7899951421
0.7899951598
0.7899951964
0.7899952563
0.7899953843
0.7899956298
0.7899958274
0.7899958817
0.7899957903
0.7899956381
0.7899955295
0.789995492
0.7899954967
0.789995515
0.7899954902
0.7899955147
0.789995464
0.7899954456
0.7899954903
0.7899955128
0.7899952307
0.7899949946
0.7899948453
0.7899950171
0.7899951543
0.7899952474
0.7899953204
0.7899953127
0.7899953139
0.7899953237
0.7899953531
0.7899953707
0.7899953433
0.7899953593
0.789995426
0.7899955101
0.7899956421
0.7899957769
0.7899958938
0.7899959658
0.7899959921
0.7899959751
0.7899959095
0.7899958056
0.7899956301
0.7899955469
0.7899955337
0.7899955305
0.7899952468
0.789995022
0.7899949139
0.7899951126
0.7899952802
0.7899954103
0.7899955446
0.7899955234
0.789995565
0.7899955781
0.7899956285
0.789995622
0.7899956426
0.789995633
0.7899956857
0.7899958453
0.7899960901
0.7899962544
0.7899964077
0.7899964626
0.789996441
0.7899963587
0.7899962228
0.7899960667
0.7899958306
0.7899956757
0.7899955847
0.7899955601
0.7899953348
0.7899951136
0.7899952445
0.7899954401
0.7899956148
0.7899958334
0.7899959721
0.7899958765
0.7899958473
0.789995858
0.7899957845
0.7899959454
0.7899960252
0.7899961805
0.7899964178
0.7899966959
0.7899968722
0.7899969843
0.7899969588
0.7899968507
0.7899967018
0.7899965209
0.7899963586
0.7899961712
0.7899959222
0.7899957052
0.7899956101
0.7899954784
0.7899953087
0.7899954485
0.7899956468
0.7899957969
0.7899959542
0.7899962775
0.7899961153
0.7899960723
0.7899961327
0.7899959873
0.7899961033
0.7899962224
0.7899965564
0.7899970361
0.7899974313
0.7899976333
0.7899976819
0.7899975426
0.7899973214
0.7899970921
0.7899968793
0.7899967857
0.7899967466
0.7899964134
0.7899960107
0.789995717
0.7899956311
0.7899956263
0.7899957932
0.7899960296
0.789996236
0.7899964323
0.7899962958
0.7899966422
0.7899966199
0.7899966895
0.7899965333
0.78999635
0.7899963708
0.7899969657
0.7899976301
0.7899981291
0.7899983743
0.7899983865
0.7899981384
0.7899977767
0.7899974752
0.7899972647
0.7899972035
0.7899970655
0.7899973573
0.7899966237
0.7899959811
0.7899957449
0.7899959352
0.7899963368
0.7899966207
0.7899968519
0.789997051
0.7899970729
0.7899972073
0.7899972375
0.7899973628
0.7899972734
0.7899969635
0.7899966176
0.7899970569
0.789997787
0.7899983207
0.7899986306
0.789998703
0.7899984698
0.7899980639
0.7899978388
0.7899978963
0.7899984927
0.7900030787
0.7900040957
0.7899981129
0.7899963044
0.7899957231
0.7899959683
0.7899970805
0.7899973901
0.7899976061
0.7899977558
0.7899977391
0.7899976852
0.7899976506
0.7899977074
0.7899976288
0.7899973251
0.7899968498
0.7899967925
0.7899974587
0.7899980733
0.7899984526
0.7899985294
0.7899982815
0.7899979652
0.7899977881
0.7899977865
0.7899979237
0.7899982176
0.7899974874
0.7899969124
0.7899962499
0.7899957869
0.7899959925
0.7899978201
0.7899981461
0.7899983046
0.7899983864
0.789998267
0.7899980005
0.7899977521
0.7899976219
0.7899974384
0.7899970641
0.7899964854
0.78999635
0.7899968121
0.789997422
0.7899978179
0.7899979852
0.7899979036
0.7899978353
0.7899978557
0.7899979771
0.7899982067
0.7899982352
0.7899978536
0.7899969452
0.7899961858
0.7899958039
0.789995963
0.7899984158
0.7899987703
0.7899988268
0.7899988199
0.7899986275
0.7899981963
0.7899976765
0.7899972711
0.7899969381
0.7899965736
0.789996184
0.789996253
0.7899965893
0.7899970603
0.7899974365
0.7899977017
0.7899978214
0.7899979183
0.7899980289
0.7899980595
0.7899979906
0.7899976693
0.7899972225
0.7899966681
0.7899963554
0.7899961573
0.7899962064
0.7899985219
0.7899989473
0.7899989675
0.7899988995
0.7899986536
0.7899981494
0.7899975025
0.7899969459
0.7899965371
0.7899962264
0.7899960116
0.7899962405
0.7899965252
0.7899969326
0.7899972682
0.7899975911
0.7899978644
0.7899981125
0.7899982694
0.7899982746
0.7899981092
0.7899977256
0.7899972675
0.7899968954
0.7899966938
0.7899964458
0.7899963458
0.7899984886
0.7899987195
0.7899987018
0.7899986321
0.7899983608
0.7899978294
0.7899971742
0.7899966133
0.7899962409
0.7899960232
0.7899959363
0.7899962394
0.7899965485
0.7899968955
0.7899972215
0.7899975651
0.7899979708
0.7899982975
0.7899984921
0.7899985031
0.789998315
0.7899979428
0.7899975088
0.7899971774
0.7899970068
0.7899967981
0.7899965823
0.7899979545
0.7899981276
0.7899981543
0.7899980805
0.7899977797
0.7899972629
0.7899966932
0.7899962464
0.7899959922
0.7899958626
0.7899958561
0.7899962334
0.7899966574
0.7899969396
0.789997223
0.78999759
0.7899980611
0.7899984297
0.7899986489
0.7899986807
0.7899985135
0.7899981765
0.7899977672
0.789997423
0.7899972359
0.7899970537
0.7899968044
0.7899975542
0.7899976023
0.7899975436
0.7899973887
0.7899970705
0.7899966311
0.789996212
0.7899959193
0.7899957748
0.7899957011
0.7899957538
0.789996281
0.7899968373
0.7899970749
0.7899973072
0.7899976437
0.7899981107
0.7899984871
0.7899987166
0.7899987684
0.7899986317
0.7899983351
0.7899979553
0.7899976056
0.7899973889
0.7899972119
0.7899969885
0.7899973273
0.7899972374
0.7899970152
0.7899967503
0.7899964283
0.7899960943
0.7899958256
0.789995662
0.789995575
0.7899955402
0.7899956496
0.7899963252
0.7899969731
0.7899972248
0.7899974396
0.7899977156
0.7899981199
0.7899984699
0.7899986933
0.7899987578
0.7899986509
0.7899983963
0.7899980538
0.7899977134
0.7899974842
0.7899972918
0.7899971599
0.7899972445
0.7899970307
0.7899966643
0.7899962982
0.7899959726
0.7899957215
0.789995555
0.7899954538
0.7899954021
0.7899954138
0.7899955982
0.7899963189
0.7899969868
0.7899972879
0.7899975324
0.7899977796
0.7899980988
0.7899983915
0.7899985933
0.7899986632
0.7899985854
0.7899983766
0.7899980814
0.7899977678
0.7899975283
0.7899973137
0.7899973007
0.7899971693
0.789996881
0.7899964394
0.7899960071
0.7899956802
0.7899954748
0.7899953532
0.7899952915
0.789995284
0.7899953603
0.7899956616
0.7899963829
0.7899969561
0.7899973089
0.7899975751
0.7899978119
0.7899980437
0.7899982685
0.7899984363
0.7899985053
0.7899984559
0.7899982963
0.7899980574
0.7899977904
0.7899975623
0.7899974206
0.7899974222
0.7899969468
0.7899966561
0.7899962239
0.7899957847
0.7899954681
0.789995295
0.789995214
0.7899952268
0.7899952641
0.789995402
0.7899958352
0.7899964849
0.789996962
0.7899973195
0.7899975853
0.7899977862
0.7899979564
0.7899981164
0.7899982421
0.789998303
0.7899982783
0.7899981668
0.7899979868
0.7899977739
0.7899975794
0.7899974693
0.7899974834
0.7899966288
0.7899963476
0.7899959675
0.7899955758
0.7899953009
0.7899951754
0.7899951643
0.7899954783
0.7899953873
0.7899955024
0.789996037
0.789996574
0.7899969695
0.7899972955
0.7899975465
0.7899977141
0.7899978346
0.7899979447
0.7899980293
0.7899980758
0.7899980687
0.7899979993
0.7899978754
0.7899977174
0.7899975664
0.789997475
0.7899974999
0.7899962006
0.7899959252
0.7899956291
0.789995323
0.7899951255
0.7899950789
0.7899950515
0.7899953336
0.7899954812
0.7899956396
0.7899962129
0.7899966239
0.7899969322
0.7899972131
0.7899974461
0.7899975928
0.7899976805
0.7899977578
0.7899978131
0.7899978442
0.7899978466
0.7899978105
0.7899977366
0.7899976313
0.7899975395
0.7899974443
0.7899975013
0.7899958352
0.7899955659
0.7899953913
0.7899951805
0.7899950281
0.7899950324
0.7899950578
0.7899952826
0.7899954898
0.7899957659
0.7899962899
0.7899966099
0.7899968392
0.7899970717
0.789997278
0.7899974236
0.7899975054
0.7899975653
0.7899976032
0.789997622
0.7899976277
0.7899976149
0.7899975816
0.7899975219
0.7899974802
0.7899973921
0.7899974939
0.7899955477
0.7899953494
0.7899955383
0.7899955683
0.7899950773
0.7899949659
0.7899951136
0.7899953188
0.789995488
0.7899958275
0.7899962989
0.7899965464
0.7899967108
0.7899969088
0.7899972019
0.7899972339
0.7899973197
0.7899973743
0.7899974017
0.7899974107
0.7899974155
0.7899974182
0.789997416
0.7899973984
0.7899974003
0.7899973801
0.7899974838
0.7899954751
0.7899953087
0.7899955515
0.7899955312
0.7899952663
0.7899949558
0.7899952408
0.7899954109
0.7899955416
0.7899958199
0.789996201
0.7899964173
0.789996551
0.7899967554
0.7899968862
0.7899969848
0.7899971332
0.7899971909
0.7899972101
0.7899972056
0.7899972044
0.7899972165
0.7899972362
0.7899972643
0.7899973035
0.7899973466
0.7899974421
0.7899955123
0.7899952423
0.7899952651
0.7899948606
0.7899947108
0.7899947586
0.7899952772
0.7899954412
0.7899955136
0.7899957229
0.7899960042
0.7899962135
0.7899963646
0.7899965015
0.7899966272
0.7899968955
0.7899969595
0.7899970231
0.7899970173
0.7899969975
0.7899969881
0.7899970046
0.7899970457
0.7899971062
0.7899971774
0.7899972582
0.7899973541
0.7899955961
0.7899954286
0.7899952726
0.7899947664
0.7899946903
0.7899950158
0.7899953357
0.789995392
0.7899954102
0.7899955668
0.7899957673
0.7899959631
0.7899961541
0.7899963236
0.7899965504
0.7899967024
0.7899968336
0.7899968586
0.7899968266
0.7899967868
0.7899967697
0.7899967885
0.7899968415
0.789996921
0.7899970171
0.789997118
0.7899972129
0.7899955113
0.7899955652
0.7899954727
0.789995015
0.7899950369
0.7899952144
0.789995303
0.7899952668
0.7899952648
0.7899953823
0.789995531
0.789995704
0.7899959141
0.7899961394
0.7899963884
0.7899965968
0.7899967093
0.7899967074
0.7899966485
0.7899965909
0.7899965658
0.7899965829
0.7899966399
0.7899967277
0.7899968356
0.7899969396
0.7899970128
0.7899949725
0.7899955432
0.7899956135
0.7899955193
0.7899954296
0.7899953815
0.7899952694
0.7899951641
0.7899951328
0.7899952044
0.7899953159
0.7899954699
0.7899956827
0.789995938
0.7899962083
0.7899964396
0.789996563
0.7899965575
0.7899964907
0.7899964281
0.7899963992
0.7899964129
0.7899964668
0.7899965481
0.7899966495
0.7899967277
0.7899967535
0.7899952453
0.789995568
0.789995665
0.7899956964
0.7899956145
0.7899954841
0.7899953066
0.7899951512
0.7899950828
0.7899950966
0.789995165
0.7899952975
0.7899954984
0.7899957427
0.7899959938
0.7899962199
0.7899963654
0.7899963928
0.7899963558
0.7899963116
0.7899962904
0.7899963002
0.7899963414
0.7899963825
0.7899964546
0.7899964818
0.7899964536
0.7899955031
0.789995618
0.7899957215
0.7899957954
0.7899957805
0.7899956687
0.7899954775
0.78999528
0.7899951523
0.7899951099
0.7899951373
0.7899952371
0.7899953978
0.7899955811
0.7899957554
0.7899959283
0.7899960878
0.7899961844
0.7899962211
0.7899962281
0.7899962332
0.7899962401
0.7899962594
0.7899962502
0.7899962076
0.7899962282
0.7899961032
0.7899960133
0.789996046
0.789996118
0.7899961663
0.7899961542
0.7899960551
0.7899958577
0.7899955995
0.7899953637
0.789995252
0.7899952646
0.7899953392
0.7899954218
0.7899954782
0.7899955162
0.7899956016
0.7899957692
0.7899959535
0.7899960891
0.7899961596
0.789996191
0.7899961389
0.7899961266
0.7899957143
0.7899958955
0.7899958587
0.789995642
0.7899951502
0.7899952651
0.7899953835
0.7899955334
0.7899957305
0.7899960608
0.7899964176
0.7899966075
0.7899965378
0.7899962977
0.7899959137
0.7899955337
0.7899952454
0.7899950625
0.7899949728
0.7899949616
0.7899950367
0.7899951052
0.7899951713
0.7899952361
0.7899953079
0.789995396
0.7899955061
0.78999569
0.7899959411
0.7899961298
0.7899961644
0.7899960242
0.7899957761
0.7899955457
0.7899953952
0.7899953101
0.789995241
0.7899952418
0.7899952297
0.7899952137
0.7899952298
0.7899952907
0.7899953015
0.7899951232
0.7899949706
0.7899948105
0.7899949509
0.7899950736
0.7899951681
0.7899952438
0.7899953008
0.7899953222
0.7899953574
0.7899953902
0.7899954018
0.7899954008
0.7899954689
0.7899956109
0.7899957281
0.7899957701
0.7899957557
0.7899957478
0.7899957389
0.7899957105
0.7899956571
0.7899955779
0.7899954639
0.7899953638
0.7899953273
0.7899953383
0.7899953096
0.789995106
0.7899949649
0.7899948923
0.7899950648
0.7899952306
0.7899953723
0.7899954856
0.7899956148
0.7899955483
0.7899955736
0.7899955752
0.7899955372
0.7899955104
0.7899955632
0.789995752
0.7899959528
0.7899961257
0.7899962294
0.7899962904
0.7899962838
0.7899962095
0.7899960851
0.789995926
0.7899957448
0.7899955774
0.7899954669
0.7899954069
0.7899953397
0.7899951405
0.7899950158
0.7899952182
0.7899954321
0.7899956419
0.7899957808
0.789995996
0.789995873
0.7899959051
0.7899958564
0.7899957723
0.7899957883
0.7899959392
0.7899963271
0.7899967035
0.7899969578
0.7899970799
0.7899970993
0.789997004
0.7899968214
0.7899965949
0.789996357
0.7899961288
0.7899959141
0.7899957132
0.7899955505
0.7899954091
0.789995236
0.7899951423
0.7899954436
0.7899957069
0.7899960251
0.7899962039
0.789998285
0.7899963315
0.7899964444
0.7899963103
0.7899961799
0.7899961636
0.7899964257
0.7899970888
0.7899976008
0.7899979296
0.7899980579
0.7899980074
0.7899977995
0.7899975034
0.7899971944
0.789996907
0.7899966992
0.7899965034
0.7899961848
0.7899958425
0.7899955339
0.7899953557
0.7899953225
0.7899958343
0.7899961451
0.7899964349
0.7899966404
0.7899967787
0.7899969317
0.7899970314
0.7899971015
0.7899969971
0.7899968826
0.7899970934
0.7899977309
0.7899983194
0.7899987029
0.7899988564
0.789998789
0.789998508
0.7899981172
0.7899977513
0.7899974846
0.7899973591
0.7899968971
0.789996711
0.7899962094
0.7899957151
0.7899954496
0.7899954661
0.7899965185
0.7899968953
0.7899972132
0.7899974677
0.7899977029
0.7899977115
0.7899978219
0.7899979179
0.7899978576
0.7899976283
0.789997546
0.7899979736
0.789998507
0.7899989043
0.7899991123
0.7899991174
0.7899988977
0.7899985454
0.7899982979
0.7899981859
0.7899985166
0.7899971567
0.7899992531
0.7899972112
0.7899961596
0.7899955805
0.7899954734
0.7899973907
0.7899977857
0.7899980647
0.7899982618
0.7899983343
0.7899983109
0.7899982871
0.7899982748
0.7899981442
0.7899978277
0.7899974781
0.789997633
0.7899981398
0.7899986097
0.7899989139
0.7899989844
0.7899988322
0.7899986131
0.7899984674
0.7899983878
0.7899985626
0.7899985534
0.7899977064
0.7899970438
0.7899963297
0.7899956807
0.7899954618
0.7899981774
0.7899985902
0.7899988067
0.7899989216
0.7899988819
0.7899986744
0.7899984199
0.7899981849
0.7899978705
0.7899973691
0.7899967649
0.7899967584
0.7899972927
0.7899978485
0.7899982709
0.7899984911
0.7899985466
0.7899985695
0.7899986213
0.7899986425
0.7899986483
0.7899984285
0.7899980427
0.7899972596
0.7899964224
0.7899957812
0.7899954984
0.7899986718
0.789999158
0.7899993114
0.7899993251
0.789999167
0.7899987891
0.7899982702
0.7899977471
0.7899972161
0.7899966352
0.7899961904
0.7899963373
0.78999675
0.7899972978
0.7899977854
0.7899981495
0.7899983926
0.7899985659
0.7899986859
0.7899986939
0.789998542
0.7899979684
0.7899976074
0.7899969798
0.7899964184
0.7899959788
0.7899957146
0.7899988394
0.7899993324
0.7899994417
0.7899993789
0.7899991269
0.789998626
0.7899979471
0.7899972621
0.7899966563
0.7899961986
0.7899959996
0.7899962797
0.7899965921
0.7899970192
0.7899975218
0.7899979837
0.7899983514
0.7899986285
0.7899987952
0.7899988044
0.789998618
0.7899981803
0.7899976248
0.7899970344
0.7899966187
0.7899962221
0.7899958976
0.7899988733
0.7899991877
0.7899992243
0.7899991144
0.7899987936
0.7899982195
0.7899974932
0.7899967989
0.7899962666
0.7899959605
0.7899959057
0.7899962845
0.7899966034
0.7899969447
0.789997386
0.7899979204
0.7899983629
0.7899987026
0.7899989012
0.789998915
0.7899987129
0.7899982882
0.7899977243
0.7899971786
0.7899968202
0.7899964907
0.7899961522
0.7899985427
0.7899987406
0.7899987425
0.7899985786
0.7899981964
0.7899976101
0.7899969461
0.7899963635
0.789995984
0.7899958025
0.7899958341
0.7899963034
0.7899966927
0.7899969813
0.7899973677
0.7899979133
0.7899983836
0.7899987525
0.7899989719
0.7899990006
0.7899988133
0.7899984161
0.7899978793
0.7899973517
0.7899969945
0.7899967122
0.7899964043
0.7899982467
0.7899983026
0.7899981878
0.78999791
0.7899974796
0.7899969482
0.7899964208
0.7899960004
0.7899957647
0.7899956749
0.789995774
0.7899963547
0.7899968119
0.7899970888
0.7899974345
0.7899979392
0.7899983921
0.7899987577
0.7899989824
0.7899990257
0.7899988654
0.7899985093
0.7899980154
0.7899975091
0.7899971406
0.7899968799
0.7899966285
0.7899980519
0.7899979604
0.7899976794
0.7899972678
0.7899968048
0.7899963609
0.789995986
0.78999572
0.7899955955
0.7899955767
0.7899957339
0.7899963523
0.7899968673
0.7899971868
0.7899975363
0.7899979735
0.789998376
0.7899987096
0.7899989215
0.789998972
0.7899988402
0.789998532
0.789998093
0.7899976221
0.7899972529
0.7899969746
0.7899968031
0.7899979121
0.7899977004
0.7899972704
0.7899967429
0.7899962576
0.7899958973
0.7899956547
0.7899955182
0.7899954815
0.7899955309
0.7899957531
0.789996343
0.7899968443
0.7899972342
0.7899976069
0.7899979878
0.789998328
0.7899986096
0.7899987922
0.7899988409
0.7899987358
0.7899984798
0.7899981059
0.789997689
0.7899973386
0.7899970939
0.7899969926
0.7899977188
0.7899974333
0.7899969158
0.7899963185
0.7899958318
0.789995549
0.7899954167
0.7899953892
0.7899954291
0.7899955536
0.7899958565
0.7899963975
0.7899968657
0.7899972728
0.7899976401
0.789997968
0.7899982429
0.7899984619
0.7899986037
0.7899986426
0.7899985615
0.7899983596
0.789998058
0.7899977093
0.7899973965
0.7899971896
0.7899971421
0.7899973923
0.7899970704
0.7899965436
0.7899959433
0.7899954982
0.7899953002
0.7899952685
0.7899953338
0.7899954492
0.7899956393
0.7899960072
0.7899964789
0.7899968979
0.7899972872
0.7899976253
0.7899979002
0.7899981121
0.7899982689
0.7899983657
0.7899983896
0.7899983293
0.7899981811
0.7899979551
0.7899976839
0.7899974264
0.7899972527
0.789997237
0.7899969183
0.7899965886
0.7899961217
0.7899955819
0.7899952377
0.7899951378
0.7899951918
0.7899953274
0.7899955178
0.7899957404
0.789996134
0.7899965312
0.7899968924
0.7899972424
0.7899975405
0.7899977692
0.7899979279
0.7899980336
0.7899980907
0.7899980994
0.7899980568
0.7899979591
0.7899978076
0.7899976174
0.7899974262
0.7899972908
0.7899972986
0.7899963371
0.7899960429
0.7899956993
0.7899952673
0.7899950532
0.7899950728
0.7899951917
0.7899954304
0.7899956343
0.7899958719
0.7899962178
0.7899965273
0.7899968196
0.7899971154
0.7899973712
0.7899975679
0.7899976917
0.7899977655
0.7899977967
0.7899977953
0.7899977684
0.7899977153
0.789997632
0.7899975185
0.7899973953
0.789997283
0.7899972965
0.7899958028
0.7899955918
0.7899956152
0.7899952512
0.7899949479
0.7899950238
0.7899952251
0.7899955224
0.7899957592
0.7899960104
0.7899962283
0.7899964527
0.7899966708
0.7899969094
0.7899971252
0.7899973133
0.7899974203
0.7899974833
0.7899975039
0.7899974994
0.7899974861
0.7899974692
0.7899974425
0.7899973934
0.7899973353
0.7899972736
0.7899973089
0.7899954871
0.789995507
0.7899958891
0.7899957926
0.7899953488
0.7899950315
0.7899952588
0.7899954866
0.7899956763
0.7899959626
0.7899961693
0.789996321
0.7899964757
0.7899966604
0.7899968535
0.7899970329
0.7899971341
0.7899972068
0.7899972266
0.7899972227
0.7899972195
0.7899972287
0.7899972429
0.7899972463
0.7899972457
0.7899972464
0.7899973184
0.7899953924
0.7899953802
0.789995848
0.7899957558
0.7899954336
0.7899948923
0.7899952534
0.789995468
0.7899956716
0.7899958651
0.7899960443
0.7899961588
0.7899962676
0.7899964141
0.7899964836
0.7899968157
0.7899968649