/*--------------------------------*- C++ -*----------------------------------*\
  =========                 |
  \\      /  F ield         | OpenFOAM: The Open Source CFD Toolbox
   \\    /   O peration     | Website:  https://openfoam.org
    \\  /    A nd           | Version:  8
     \\/     M anipulation  |
\*---------------------------------------------------------------------------*/
FoamFile
{
    version     2.0;
    format      ascii;
    class       volScalarField;
    location    "0.9";
    object      nut;
}
// * * * * * * * * * * * * * * * * * * * * * * * * * * * * * * * * * * * * * //

dimensions      [0 2 -1 0 0 0 0];

internalField   nonuniform List<scalar> 
67451
(
0.0001276456844
0.0001340537554
0.0001409130631
0.0001482453195
0.0001578747529
0.0001676070236
0.0001742631211
0.0001763711052
0.0001760836041
0.0001750373405
0.0001728860183
0.0001109915678
0.0001140650424
0.0001183953377
0.0001208085462
0.0001229863979
0.0001270671756
0.0001349744435
0.0001448335516
0.0001491457185
0.0001607470137
0.0001685992743
0.0001720893654
0.0001745081814
0.0001848515262
0.0001878699354
0.0001863750047
0.0001829870481
0.0001782305159
0.0001732166908
0.0001685894246
0.0001663612069
0.0001666199983
0.0001676450695
0.0001699709293
0.0001729030472
0.0001616682183
0.0001043893904
0.0001146525931
0.0001218259674
0.0001255638185
0.0001312107252
0.000132517826
0.0001321595995
0.0001344567185
0.0001453078762
0.0001606809182
0.00015018509
0.0001497281645
0.000156888228
0.000166920332
0.0001926806777
0.0002298888703
0.000231589
0.0002233723918
0.0002128728353
0.0002020016786
0.0001917614842
0.0001844139701
0.0001833734841
0.0001839044877
0.0001815162648
0.0001774917685
0.0001746273844
0.0001614568911
0.0001138249528
0.0001300379717
0.00014081447
0.0001483236966
0.0001566457869
0.0001578396331
0.000157516751
0.0001607467246
0.0001754109312
0.0001930648255
0.000180118419
0.0001720931599
0.0001841212827
0.0002104276828
0.0002462210108
0.0002872446513
0.0002828368165
0.0002659463977
0.0002461222649
0.0002269245105
0.0002104279201
0.0002025494552
0.000206755762
0.0002080334127
0.0002010273683
0.0001891334568
0.0001779959232
0.0001606559713
0.0001525571576
0.0001671638251
0.0001801198719
0.0001901930522
0.0001902363816
0.000186815947
0.0001896475774
0.0002065029552
0.0002223787157
0.0002133904657
0.0002072531748
0.0002299386078
0.0002652912342
0.0003034259787
0.0003387527356
0.0003316953653
0.000309111443
0.0002812338855
0.0002532070581
0.000229926006
0.000225672052
0.0002413535531
0.0002416112482
0.0002287098134
0.0002080478289
0.0001862129328
0.0001601311454
0.0001823037644
0.0001991502418
0.0002162446882
0.0002266597542
0.0002307981704
0.000216107144
0.0002165385137
0.0002357051778
0.000247645395
0.0002411395811
0.0002340387729
0.0002703620272
0.0003215793148
0.0003645763229
0.0003922379922
0.0003825763946
0.000354931196
0.0003199808094
0.0002835102598
0.0002531929309
0.000259041113
0.0002963002882
0.0002854704445
0.0002642594538
0.0002353856484
0.0002027141448
0.000162618569
0.0002197919115
0.000235660578
0.0002544727963
0.0002646421658
0.0002567155358
0.0002456995917
0.0002445726379
0.0002667034402
0.000276729553
0.0002669677538
0.0002577413941
0.0003114030043
0.0003759257491
0.0004207273179
0.0004427721775
0.0004317883611
0.0004003062132
0.0003593242818
0.0003159689392
0.0002805451406
0.0003156329083
0.0004025104666
0.0003514742087
0.0003083967659
0.0002691676521
0.0002274908618
0.0001714977748
0.0002667795562
0.0002773698449
0.0002945416293
0.0003042473082
0.0002924242996
0.0002734316059
0.0002712422552
0.0002968487396
0.0003085378221
0.0002962976739
0.0002788753738
0.0003411969537
0.0004130534991
0.0004554381892
0.0004752862388
0.0004653263962
0.0004343052002
0.0003904932009
0.000340084988
0.0003094456884
0.0004330915488
0.0006031024677
0.0004876250633
0.0003727682826
0.0003086182968
0.0002571700081
0.0001874830802
0.0003240487079
0.0003256160239
0.0003352481613
0.0003428395596
0.0003270094119
0.0002968517904
0.0002868565582
0.0003102085167
0.0003241361852
0.0003174606537
0.0002933682948
0.0002709429871
0.000351833084
0.0004249625133
0.0004538441149
0.0004379294148
0.0003972525031
0.0003382134858
0.000275997111
0.0003022227909
0.0003952373739
0.0004518549694
0.0004056136805
0.0003695550167
0.0003272113411
0.0002789502702
0.0002039409783
0.000389756674
0.0003791451958
0.0003741706867
0.0003765245859
0.0003597570758
0.0003218816077
0.0002860974212
0.0002863383771
0.0003020567656
0.0002997775232
0.0002779803213
0.0002526496917
0.0002840278583
0.0003606587365
0.0004017074787
0.0003836692771
0.0003408486676
0.000283647366
0.0002479174268
0.0002675681642
0.000350962006
0.000387315574
0.0003753118606
0.0003459887559
0.0003015132114
0.00024898139
0.0001818874916
0.0004527508764
0.000431127014
0.0004071564589
0.0004006643037
0.0003863524323
0.0003536204153
0.0003063438448
0.0002707350239
0.0002697650771
0.0002693396062
0.0002566525437
0.0002363149501
0.0002366798789
0.000299163339
0.0003467608809
0.0003263000798
0.0002837303491
0.000252100657
0.0002660649422
0.0002852445244
0.0003081459133
0.0003351710275
0.0003282454577
0.0003022417453
0.0002651036313
0.0002209198276
0.0001683717578
0.0004915120541
0.000461994976
0.0004263572566
0.0004088033198
0.0003951584577
0.0003706145402
0.0003321127814
0.0002893813872
0.0002618741821
0.000248820482
0.0002374067778
0.0002193941097
0.0002060139812
0.0002499776871
0.0002938026627
0.0002741066954
0.0002555768182
0.0002717780564
0.0003043382204
0.000314302383
0.000313384079
0.0003084433802
0.0002926988522
0.0002681827888
0.000237064012
0.0002014565906
0.0001603609424
0.0004525867962
0.000418434902
0.0003939846411
0.0003904114859
0.0003799799902
0.0003575876177
0.0003251976236
0.0002890130759
0.0002576127989
0.0002359290715
0.0002201114874
0.0002007486402
0.000184795539
0.0002163809895
0.0002510488734
0.0002519073665
0.00026970391
0.0003007876003
0.0003241051265
0.0003291649782
0.0003252973515
0.0003117877295
0.0002903526596
0.0002657548545
0.000240396911
0.0002111901295
0.0001662710482
0.0003897088014
0.0003632289786
0.0003581687435
0.0003631792644
0.0003541340342
0.0003335011139
0.0003054990859
0.0002749636442
0.0002453850447
0.0002204091629
0.0002009615936
0.0001793873317
0.000172126434
0.0002033392257
0.000234923997
0.0002572199355
0.0002890039174
0.0003154183192
0.0003320859992
0.000335442602
0.0003311103226
0.000318406429
0.0002984119664
0.0002745328106
0.0002505910918
0.0002223364662
0.0001737588808
0.0003280501085
0.0003123231787
0.0003202744652
0.0003292516959
0.000321976206
0.000304040072
0.0002802247932
0.0002537145519
0.0002255258405
0.0001999001141
0.0001791301115
0.0001585723551
0.0001698362011
0.0002021911224
0.000234197508
0.0002636338119
0.0002956678671
0.000318616516
0.0003329172313
0.0003360551614
0.0003318080503
0.0003202894923
0.0003019646908
0.0002785584556
0.0002535786769
0.0002245661629
0.0001758354639
0.0002808857028
0.0002742472648
0.0002816204101
0.0002922118113
0.0002879262866
0.0002734006229
0.0002529108862
0.0002283764825
0.0002015486827
0.0001774753205
0.000158285474
0.0001489683579
0.0001750226774
0.0002020648043
0.000231760417
0.0002615140126
0.0002922275419
0.0003144732426
0.00032858168
0.0003323326458
0.0003286321351
0.0003183940135
0.0003018332625
0.0002798075077
0.0002548173524
0.0002263242282
0.0001789082983
0.0002730669491
0.0002614107014
0.0002540495596
0.0002575077984
0.0002541916187
0.0002425922244
0.0002247560742
0.0002025027809
0.000178967661
0.0001585830468
0.0001437763478
0.0001523722586
0.0001858536704
0.000203174164
0.0002245076951
0.0002519403426
0.0002822386973
0.0003052546495
0.0003201595912
0.000325119161
0.000322437702
0.0003138359162
0.0002994323009
0.0002796728664
0.0002558275879
0.0002288376571
0.0001832815781
0.000284156314
0.0002702080605
0.0002518473092
0.0002394358644
0.0002301560292
0.0002182140674
0.0002023230224
0.0001835326454
0.0001644282733
0.0001478437385
0.0001390762999
0.0001635189064
0.0001969195121
0.0002098574641
0.0002192840258
0.0002381206354
0.0002669658746
0.0002918157728
0.0003081462566
0.0003146879268
0.0003133424088
0.000306555053
0.0002944247481
0.0002772748953
0.000255739218
0.0002313483461
0.0001880694813
0.0002885026827
0.000277688419
0.0002599459561
0.0002400745711
0.0002235687004
0.0002087742454
0.0001934315624
0.0001771611352
0.0001608604422
0.0001458911665
0.0001433283407
0.0001757319616
0.0002045197562
0.0002189601877
0.0002232896715
0.0002266823944
0.000247912905
0.00027433752
0.000292813801
0.0003010179102
0.0003011474829
0.0002961251447
0.0002861130239
0.0002714167236
0.0002524997901
0.000230707937
0.0001899939046
0.000287996623
0.0002753965316
0.0002607337087
0.0002421529554
0.0002252045936
0.0002097625726
0.0001947440313
0.0001794164266
0.000163899828
0.0001487170012
0.0001505665908
0.00018310664
0.0002072535384
0.0002221601899
0.0002277365957
0.000224330922
0.0002301764442
0.0002533208885
0.0002745154297
0.0002843031254
0.0002859992801
0.0002826289927
0.0002745434269
0.000262087965
0.000245692281
0.0002264076866
0.0001887329634
0.0003231900286
0.0002722154125
0.0002542412785
0.0002389702615
0.0002245718945
0.0002106345224
0.0001969365491
0.0001824195652
0.0001674926395
0.0001518588368
0.0001552030351
0.0001842099734
0.0002046709525
0.0002191306922
0.0002258002406
0.0002233488979
0.0002199263142
0.0002322947806
0.0002530035861
0.000265051394
0.000268558093
0.0002667782095
0.0002604524243
0.0002500017472
0.0002358685537
0.0002186510229
0.0001845236261
0.0002781251034
0.0002521056832
0.0002497670694
0.0002950624626
0.0002417846862
0.0002150800994
0.0001992285562
0.0001853696788
0.0001696989044
0.0001523671878
0.0001552716743
0.000180210705
0.0001979188977
0.0002117931484
0.0002186051013
0.0002186382364
0.0002133409792
0.000215636149
0.0002307241063
0.0002442618477
0.0002497453949
0.0002495449933
0.0002448691095
0.0002362890995
0.000224384443
0.0002093187331
0.0001787506921
0.0002462692419
0.0002619023062
0.0003787439304
0.0004616572635
0.0003426234012
0.0002536786127
0.0002089512805
0.0001868376441
0.0001689670451
0.0001499699872
0.0001508782967
0.0001722592261
0.0001885334452
0.0002019796089
0.0002098628323
0.0002109912447
0.0002062658456
0.000203232201
0.0002108301365
0.0002233700224
0.0002303708554
0.0002316248005
0.0002284646919
0.0002216693741
0.0002120124494
0.0001994407844
0.0001723677532
0.0003028872668
0.0004060176498
0.0005353114112
0.0006146948699
0.0005088112136
0.0003919392883
0.0002952453707
0.0002214407248
0.0001759475151
0.0001479204766
0.0001436866337
0.0001609029077
0.0001776670175
0.000191269796
0.0002005961275
0.0002024151706
0.0001979126861
0.000193024156
0.0001948924486
0.0002038790301
0.0002110638363
0.0002133054156
0.0002114015488
0.0002063195013
0.0001986653875
0.0001886867374
0.0001653495214
0.0003378154212
0.0004335132525
0.0005381247697
0.0006409140082
0.0005177677839
0.0004086606889
0.0003201174881
0.0002408522874
0.0001823422229
0.000147431153
0.0001375557892
0.0001483758358
0.0001643096597
0.0001786843687
0.0001874571079
0.0001913684704
0.0001881333841
0.0001833100715
0.0001818776314
0.0001870912587
0.0001928288843
0.0001951860927
0.0001941615474
0.0001904197689
0.0001845951323
0.0001771493285
0.0001578053125
0.0003043914036
0.0003851475165
0.0004612469304
0.0005533617115
0.0004514467462
0.0003662478098
0.0002906241425
0.0002231059917
0.0001726892035
0.0001441432148
0.0001346758158
0.000138636385
0.0001505424249
0.0001649798937
0.0001744465153
0.0001785831076
0.0001772872232
0.0001735083557
0.0001708617665
0.0001731789727
0.0001768574917
0.0001785419316
0.0001778109717
0.0001750686387
0.0001709129299
0.0001657709669
0.0001500925694
0.0002470683301
0.000314756876
0.0003744072507
0.0004512492066
0.0003769139844
0.0003104336729
0.0002474259726
0.0001940436404
0.0001575159016
0.000140431282
0.0001343335974
0.0001338130122
0.0001395503635
0.0001510241737
0.0001607605696
0.0001656759073
0.0001659076082
0.000163567785
0.0001613338624
0.0001621759774
0.0001640582083
0.0001647839858
0.0001639758552
0.000161882495
0.0001589834937
0.000155523486
0.0001423982375
0.0002113335691
0.0002465345093
0.0002976446624
0.0003624578982
0.0003079165325
0.000253493438
0.0002043185166
0.0001663192214
0.0001453000844
0.0001378106305
0.0001344396933
0.0001322605311
0.0001331418902
0.0001392750244
0.0001469667091
0.0001521049614
0.0001538752645
0.0001535585732
0.0001528894122
0.0001535653562
0.0001544662024
0.0001544846713
0.0001534869556
0.0001516511403
0.0001493612473
0.0001466145271
0.0001345422488
0.0002167162408
0.0002181786553
0.0002366351118
0.0002795439048
0.0002448952697
0.0002072302391
0.0001736130844
0.0001494379026
0.000138634226
0.000135744732
0.0001339495224
0.0001317737072
0.0001303814106
0.0001316776881
0.0001352109871
0.0001388055085
0.0001415038504
0.0001434686332
0.0001449285008
0.0001462907667
0.0001470094471
0.0001467341847
0.00014553447
0.0001435251966
0.0001409446521
0.0001377734685
0.0001259042167
0.0002274911932
0.0002206643577
0.0002175642018
0.0002255470019
0.0002088441804
0.0001884327743
0.0001670453618
0.0001476546273
0.0001364834963
0.0001330726318
0.0001318800705
0.0001303313553
0.0001284103487
0.0001269473318
0.0001264290834
0.0001269786557
0.0001290940308
0.0001325878371
0.0001359782232
0.0001383481441
0.0001393440836
0.0001390160335
0.0001374264831
0.0001347167576
0.0001329590689
0.0001282584992
0.0001160138335
0.0002179085978
0.0002152452938
0.0002116250737
0.0002079203111
0.0002005499887
0.0001901768666
0.0001756967534
0.0001567966774
0.000138196478
0.0001275848351
0.0001243534878
0.0001230783186
0.0001213165842
0.0001186900448
0.0001154667635
0.0001128321012
0.0001129945622
0.0001165325473
0.0001209091674
0.0001239616092
0.0001252420379
0.0001249691357
0.0001231160929
0.0001202263405
0.0001196591412
0.0001141083485
0.0001011288776
0.0003462409267
0.0003635747104
0.0003836233849
0.000400315377
0.0003945655176
0.0003940168998
0.000398051452
0.0003975016438
0.00038744888
0.0003675626098
0.0003396854728
0.0002526303242
0.0002812326519
0.0003048708563
0.0003140715723
0.0003092000921
0.0003038714995
0.0003047178975
0.000308228832
0.0003192247981
0.0003379490759
0.0003583030009
0.0003745163374
0.0003784363832
0.0003682848408
0.0003470385708
0.0003196548602
0.0002946980376
0.0002773223654
0.0002605204633
0.0002413935829
0.0002322828662
0.0002275988786
0.0002257405822
0.0002298891575
0.0002437210469
0.0001492132556
0.0002002872831
0.0002104177418
0.0002327035008
0.0002591632455
0.000287425542
0.0003016043894
0.0002813117995
0.0002514970666
0.0002304065749
0.0002200408837
0.000214095321
0.0002316999677
0.0002711666144
0.0003151195548
0.0003529451789
0.0003716580637
0.0003851289308
0.000378147906
0.0003591503474
0.0003361743664
0.0003127914245
0.0002995385135
0.0002983223278
0.0002889767017
0.0002744566737
0.0002629880914
0.0002630422834
0.0001512097531
0.0001948638913
0.0002032408283
0.0002259253708
0.0002558084571
0.0002954837906
0.000330369653
0.0002914100696
0.0002442574907
0.0002087143266
0.000197863093
0.0001886296682
0.0001967003168
0.0002515105808
0.0003518328682
0.0004705405803
0.0005386065062
0.0005699528409
0.0005528363261
0.0005101105928
0.0004602983562
0.0004179810455
0.0004012060326
0.0004020320364
0.0003816051297
0.0003443153473
0.0003042832182
0.0002795389728
0.0001523190899
0.0002221541941
0.0002594484107
0.0003079647703
0.0003752492296
0.0004498305314
0.0003864919892
0.0003155585566
0.0002583397814
0.0002384783149
0.0002254100829
0.0002505590491
0.0003949762639
0.0006244372286
0.0007812735994
0.0008338809611
0.0008340358422
0.000783390648
0.0007128239517
0.0006356164082
0.0005684203658
0.0005497912276
0.0005443114218
0.0005130850139
0.0004458837513
0.0003602002001
0.0002954630641
0.0001527953413
0.0002880759292
0.0003601114721
0.0004495677765
0.0005862600284
0.0008170671872
0.0005723308444
0.000482047884
0.0004104302375
0.0003671550778
0.0003216378445
0.0003488721338
0.0006862468025
0.000970423241
0.001114875313
0.001156250198
0.001121113898
0.001017311824
0.0008989424431
0.0008239080286
0.0007702511757
0.0008088084787
0.0008446918842
0.0007464481707
0.0006083196738
0.0004480312851
0.0003189987271
0.0001536654608
0.0004328748503
0.0005543367523
0.0006725850707
0.000790799742
0.0008559079683
0.0007924181978
0.000716437542
0.0006612461729
0.0006189063084
0.0005378217359
0.0005119768725
0.0009437938848
0.001207800841
0.001359532907
0.001404566194
0.001360220273
0.001227369547
0.001073382203
0.00101386626
0.001078660559
0.001323637879
0.001658517132
0.001206027233
0.000855388882
0.0005927010941
0.0003671250726
0.000156574969
0.0006971739269
0.0008547512637
0.0009614906874
0.001034954196
0.001072358381
0.001043440623
0.0009651404913
0.0009107744109
0.0008776132742
0.000809442119
0.0007300267212
0.0009683112629
0.001255195092
0.001428682485
0.001485566487
0.001444481368
0.001314720177
0.001172694829
0.001169635841
0.001409557942
0.002251836152
0.002405116746
0.002149728313
0.001262511595
0.0007949233337
0.0004589640205
0.0001625229264
0.001023808292
0.001183353622
0.00124741387
0.001269575452
0.001279802204
0.001250719822
0.00115347885
0.001054159984
0.0009916521109
0.0009099437969
0.0008073607744
0.0008793980311
0.001181427617
0.001356172215
0.001419021599
0.001395960046
0.001307602329
0.001245250836
0.001252421455
0.001423250114
0.001685804111
0.002034448035
0.001542385328
0.00116118382
0.0008130667765
0.0004998645431
0.0001650297549
0.001380500833
0.001510370161
0.001513062751
0.0014620488
0.001422583209
0.001376290054
0.001269468966
0.001113209305
0.0009714415471
0.0008270323721
0.000643339402
0.000547511565
0.0007455505136
0.001051361648
0.001161510335
0.001191105153
0.001192265653
0.001183706922
0.001265899999
0.001406772425
0.001474728432
0.001465124449
0.001286565935
0.001035614756
0.0007259013494
0.0004350964021
0.0001545425635
0.001630480491
0.001725235223
0.001694946656
0.001585018961
0.001485504869
0.00138465566
0.001251827992
0.0010708046
0.0008698215836
0.0006817146317
0.0005099685843
0.0003771693098
0.0004383065983
0.000703207327
0.000888933261
0.001015266023
0.001092214823
0.001177739746
0.001301051592
0.00138033202
0.001397655488
0.001312432881
0.001120529387
0.0008138582278
0.0004875323801
0.000309390728
0.0001482429243
0.001693342975
0.001759211119
0.001721492794
0.001597949851
0.00146473661
0.001315521129
0.001135371716
0.0009331005861
0.0007283122302
0.0005531756057
0.0004155274494
0.0002901715265
0.0003076638302
0.0004731367583
0.0007012908381
0.0008956595828
0.001068032715
0.001205037279
0.001277625588
0.001327389424
0.00132350369
0.001224644007
0.001010731628
0.0006789409733
0.0004082061699
0.0002786087923
0.0001460629802
0.001621790864
0.001698886111
0.001642691968
0.001507031331
0.001370585977
0.001206962217
0.001004691496
0.0007931050793
0.0005980804514
0.0004365192222
0.0003226093587
0.0002331429157
0.0002512850755
0.0003767024143
0.0005815577304
0.000843129535
0.001084088564
0.001205260525
0.001273515414
0.001310149423
0.001291715397
0.001194111635
0.001001116124
0.0007105640626
0.0004448987072
0.0002938029451
0.000150439957
0.001453753865
0.001531884591
0.001472084294
0.001347291108
0.0012157536
0.00105037693
0.0008521789561
0.0006564317386
0.0004740960418
0.0003394467972
0.0002545525801
0.0002009611676
0.0002292313455
0.0003368210557
0.0005342718599
0.0008419832313
0.001080455785
0.001209420887
0.001283056774
0.001315496119
0.001292583211
0.001201101357
0.001032897468
0.0007940747987
0.0005205136336
0.0003315908737
0.0001561745494
0.001361262392
0.001397055991
0.001312615629
0.001177896546
0.001037924411
0.0008774430544
0.0007038935965
0.0005373012684
0.000379106174
0.0002780428344
0.0002166900533
0.0001957984821
0.0002409301637
0.0003353274109
0.0005154541824
0.0008364415966
0.001071533235
0.001208488776
0.001285936161
0.001318372079
0.001297636263
0.001215808746
0.001068966051
0.0008620298688
0.0005951664783
0.0003745504474
0.0001601279834
0.001326482201
0.001313407014
0.001206602415
0.001047216156
0.0008885297782
0.0007345933491
0.0005871840463
0.000441238545
0.0003232819778
0.0002462679547
0.0002005686168
0.0002153759129
0.0002981853674
0.0003880051688
0.0005318399275
0.0008108373305
0.001053960168
0.001190400826
0.001267998525
0.001301490061
0.001285764832
0.001215059987
0.001087146564
0.0009060508951
0.0006684159724
0.0004264325465
0.000162791717
0.001292404495
0.001251283752
0.001132621316
0.0009574491302
0.0007786739765
0.0006218266301
0.0004863614369
0.0003775410397
0.000293374584
0.0002310740057
0.0001984473332
0.0002447454978
0.0003919750395
0.0005028888044
0.0006082795145
0.0008050216813
0.001029998867
0.001150828018
0.001223489003
0.001256970228
0.00124682196
0.001187624698
0.001077543228
0.0009199975892
0.0007170230823
0.0004860316771
0.0001682866223
0.001255022798
0.001190622214
0.001063303527
0.0008865199602
0.0006878242054
0.0005326982116
0.0004237540019
0.0003409784708
0.0002738352728
0.0002216369545
0.0002053397403
0.0002866800506
0.0004784732936
0.0006340247937
0.0007333076616
0.0008482971
0.001000282254
0.001092860877
0.00115370034
0.001184132392
0.001178465116
0.00113032972
0.00103749099
0.0009024793719
0.0007286839898
0.000494588393
0.0001733655776
0.001215057136
0.001125171101
0.0009916549734
0.0008200389291
0.0006375063296
0.0004924498204
0.0003934485902
0.0003182296745
0.000257191933
0.0002129429717
0.0002163397728
0.0003325764658
0.0005433601977
0.0006991940145
0.0008045322803
0.0008870557278
0.0009680547008
0.001024015168
0.001065032665
0.001087667864
0.001083833589
0.00104531131
0.0009687070894
0.0008552438573
0.0007065121158
0.0004840960253
0.0001754812618
0.001114569199
0.001031682501
0.0009068338279
0.0007506074221
0.0005946589928
0.0004667385925
0.0003741901968
0.0003074888184
0.0002463287541
0.0002048961578
0.0002259287042
0.0003671420545
0.00056446723
0.0007041424639
0.0007994660575
0.0008683433511
0.0009191214117
0.0009474025587
0.0009657357766
0.0009763481606
0.0009708672965
0.0009395522151
0.0008774504175
0.000784335711
0.0006610481037
0.0004611573451
0.000174379645
0.0009785381906
0.0009213609422
0.000812402124
0.0006749216262
0.0005447628304
0.0004354149777
0.000364182159
0.0002915693472
0.000234637031
0.0001956027841
0.0002287913792
0.0003765034983
0.000549555605
0.0006704375917
0.0007529499248
0.0008112606495
0.0008485854423
0.0008627052528
0.0008639662004
0.0008616117998
0.0008517192905
0.0008248055044
0.0007746763807
0.0006996807738
0.0006018650061
0.0004391963316
0.0001696352268
0.0007753529224
0.0007696554353
0.0007577129345
0.000619564952
0.0004761789955
0.0003911408013
0.000326338978
0.0002604961211
0.0002181994761
0.0001916179308
0.0002243838139
0.0003562950999
0.000505352067
0.0006103386304
0.0006826959459
0.0007350359691
0.0007648556345
0.0007732267911
0.000766016216
0.0007543364212
0.0007397217533
0.0007150552161
0.0006740172426
0.0006132734047
0.0005282930434
0.0004118171097
0.0001642130565
0.0006197445474
0.0007529062131
0.001053472608
0.001064779379
0.0006173505157
0.0003431032601
0.0002828845005
0.000230325892
0.0001986050807
0.0001869534312
0.0002172386267
0.0003189946637
0.0004460096
0.0005397412661
0.0006188605173
0.0006539404487
0.0006773343148
0.0006845957731
0.0006739721851
0.0006606780018
0.0006443740111
0.0006211059711
0.0005858522542
0.0005349781336
0.0004531513596
0.0003626735149
0.0001589179659
0.0004956826922
0.0008007654166
0.001293548771
0.001420973496
0.0009219696656
0.0003764044717
0.0002568108787
0.0002165209057
0.0001967546184
0.0001913097013
0.0002153984288
0.0002842020417
0.0003840034765
0.0004698046282
0.0005428865411
0.0006026343468
0.0006055637462
0.0006025036461
0.0005855603366
0.0005798728718
0.0005676648736
0.0005463098159
0.0005137597289
0.0004590172692
0.0003877972106
0.0003127919648
0.0001534140832
0.0004127207316
0.0007028039444
0.001210235246
0.001412130649
0.0008834452185
0.0003445105574
0.000250940364
0.0002150428545
0.0002066895811
0.00020878437
0.0002254046679
0.0002647860997
0.0003289332235
0.0003978530225
0.0004565662577
0.0005184533371
0.000533575854
0.0005248318088
0.0005111924372
0.0005075120868
0.0005015806168
0.0004826075576
0.0004470607108
0.0003951645564
0.0003372905964
0.0002756930358
0.0001475263003
0.0003458818823
0.0004853136579
0.0008095934248
0.0009689819141
0.0005866906904
0.0002879789848
0.0002306627469
0.0002108226764
0.0002170966911
0.0002295330027
0.000241684475
0.0002584256953
0.0002876128454
0.0003311944439
0.0003767870431
0.0004216277954
0.0004433238462
0.000448701827
0.0004476549365
0.0004495843099
0.0004462183181
0.0004286300788
0.0003949266136
0.0003491351563
0.0003011214367
0.0002497418256
0.0001412665483
0.000342320597
0.0003425239824
0.000452771358
0.0004976461935
0.0003470033555
0.0002313356452
0.0002031785132
0.0001996732516
0.0002182511349
0.0002400490731
0.0002508820251
0.000253873145
0.0002595289657
0.0002767091698
0.000302563059
0.0003341975546
0.0003569553812
0.0003752430146
0.0003897602978
0.0004006817556
0.0004013896771
0.0003868992294
0.000357447066
0.0003172711364
0.0002749203343
0.0002300938402
0.0001346053998
0.000382695732
0.0003259369231
0.0003124388949
0.0002998767405
0.0002433078052
0.0001981032251
0.0001821045759
0.0001858985524
0.0002100634513
0.0002353126719
0.0002455680012
0.0002431402268
0.0002374442966
0.0002378296675
0.0002472680051
0.0002646664452
0.0002848688793
0.0003095548847
0.0003347334027
0.0003537291451
0.0003595889958
0.0003496811069
0.0003255549427
0.0002910006653
0.0002525474182
0.0002129357987
0.0001273499672
0.0004267811373
0.0003617489926
0.0003020139675
0.0002624326225
0.0002215223958
0.0001896530616
0.0001735771278
0.0001761333554
0.0001967529966
0.000219390119
0.0002296965434
0.0002273371579
0.0002191414701
0.0002125104997
0.0002119536451
0.0002188101458
0.0002332237838
0.0002563834477
0.0002833479502
0.0003050647257
0.0003141918669
0.0003086250607
0.0002902485743
0.000262977905
0.0002305666698
0.000193209226
0.000118973752
0.0004320419725
0.0003845982204
0.0003242147943
0.0002718585126
0.0002318201205
0.000201140562
0.0001796621033
0.0001712992324
0.0001781089957
0.0001915799083
0.0002006752969
0.0002011847683
0.0001956232656
0.0001886519273
0.000184486723
0.0001856545976
0.0001940302114
0.0002104930304
0.0002307896388
0.0002475247946
0.0002549345473
0.0002513424149
0.0002374128993
0.0002217925155
0.0002308981794
0.0001806919141
0.0001093174339
0.0002160281817
0.0002133137599
0.0002067444598
0.0001989130665
0.0001897974341
0.0001786422034
0.0001644435818
0.0001478401369
0.0001331739109
0.0001254291239
0.0001231335524
0.0001219437577
0.0001199194149
0.0001169602603
0.0001137871947
0.0001119859922
0.000113198004
0.0001172597821
0.0001220519956
0.0001256249888
0.000127191756
0.0001267848514
0.0001246727266
0.00012163067
0.000124972974
0.0001156502516
9.681622434e-05
0.0005718781516
0.000593872802
0.0005986014568
0.0005777574759
0.0005320282637
0.0004718532309
0.0004497556466
0.0004460186192
0.0004402469655
0.000424758184
0.0003988296081
0.0003643303111
0.0003239423063
0.0002806628907
0.00024581566
0.0004008421999
0.0004544258143
0.0004962102108
0.0005182821412
0.0005193972128
0.0005062867207
0.0004835000079
0.0004526137333
0.0004223402937
0.0004146428763
0.0004298576283
0.0004441304729
0.0004437798332
0.0004276411433
0.0004010811079
0.0003656765313
0.0003282169144
0.0002995569145
0.0002751661756
0.0002589284998
0.0002519954714
0.0002518318316
0.0002536947111
0.0002574349212
0.0002558050712
0.0001452179068
0.0002776614412
0.000310922466
0.0003567542972
0.0004057599993
0.000446342611
0.0004657167658
0.0004529099418
0.0004197152313
0.0003846980732
0.0003519386705
0.0003273306685
0.0003294707472
0.0003785095454
0.0004396550745
0.0004812322808
0.0004957567169
0.0004910159463
0.0004670750174
0.0004323053797
0.0003973851189
0.0003673226929
0.0003476859425
0.0003392612045
0.0003315917261
0.0003178880206
0.0003025133796
0.0002841206056
0.0001491207734
0.0002575320486
0.0002813117122
0.0003220400596
0.0003714041064
0.0004176827664
0.0004453523146
0.0004046921163
0.0003493868292
0.000303488103
0.0002753841234
0.0002600793659
0.0002925479723
0.0004219002795
0.0005575782237
0.000659170359
0.0007104212738
0.0007167366012
0.0006843063756
0.0006301504868
0.0005727107509
0.0005246284757
0.0004944419989
0.0004734713659
0.0004472397599
0.0004037485917
0.000354233351
0.0003105755281
0.0001506761769
0.0002898799021
0.0003454882624
0.0004160667748
0.0004954803406
0.0005896194465
0.0004509307521
0.0003633187093
0.0003141009241
0.0002969140011
0.0003058641572
0.0004172885175
0.0006955342132
0.0009121501888
0.001029235606
0.001072589192
0.001049966643
0.0009758844421
0.0008859255513
0.0008100226346
0.0007468003946
0.0007050727642
0.0006682288493
0.0006147179289
0.0005231834659
0.0004199343055
0.0003371845391
0.0001506170945
0.0003696433571
0.0004743054816
0.0006039662523
0.0008345508182
0.000928996973
0.0007147122865
0.0005296861244
0.0004864147923
0.0004704667361
0.0004943972894
0.000710309287
0.001080748878
0.001291486392
0.001410949457
0.001446409336
0.001399989553
0.001286259469
0.001162522102
0.001085172431
0.001054810524
0.001075252228
0.001067860023
0.0009137623692
0.0007137058169
0.0005234203266
0.0003744288
0.000150967293
0.0005507786955
0.0007196914264
0.0008684116501
0.0009877182212
0.001079600478
0.0009333396146
0.000847676494
0.0008240229718
0.0008210950396
0.0008542268835
0.001062535409
0.001342401884
0.001538672811
0.001657823417
0.001693978882
0.001648594308
0.001532871467
0.001416983522
0.001395485477
0.001513382645
0.001814287493
0.002014825354
0.001530687509
0.001036206317
0.0007008592604
0.0004472385948
0.0001540090138
0.0008699299909
0.001082278255
0.001218017939
0.001295589247
0.001313284927
0.001261175883
0.001163211668
0.001115126754
0.001099975026
0.001102953322
0.00121268907
0.001422193116
0.001612842889
0.001744328904
0.001792692878
0.00175745111
0.001662042769
0.001592147213
0.001661022281
0.001996214944
0.002434246488
0.002713610414
0.00229252319
0.001482202436
0.0009497732508
0.0005714116024
0.0001603117069
0.001278121867
0.001480674607
0.00156879535
0.001591648459
0.001581536272
0.001522076771
0.001392098512
0.001278610688
0.001209788027
0.001150875415
0.00116040195