/*--------------------------------*- C++ -*----------------------------------*\
  =========                 |
  \\      /  F ield         | OpenFOAM: The Open Source CFD Toolbox
   \\    /   O peration     | Website:  https://openfoam.org
    \\  /    A nd           | Version:  8
     \\/     M anipulation  |
\*---------------------------------------------------------------------------*/
FoamFile
{
    version     2.0;
    format      ascii;
    class       volScalarField;
    location    "0.9";
    object      T;
}
// * * * * * * * * * * * * * * * * * * * * * * * * * * * * * * * * * * * * * //

dimensions      [0 0 0 1 0 0 0];

internalField   nonuniform List<scalar> 
67451
(
300.0030551
300.0030999
300.0031545
300.0032054
300.0032444
300.0032615
300.0032804
300.0033043
300.0033268
300.0033462
300.0033579
300.0030959
300.0030673
300.0030657
300.0030777
300.0030681
300.0030764
300.003104
300.0031486
300.0032115
300.003279
300.0033007
300.0033249
300.0033377
300.0033176
300.0032975
300.0032728
300.0032441
300.0031942
300.0031494
300.0031152
300.0031011
300.0031044
300.0030973
300.0031039
300.0032872
300.0033887
300.0032053
300.0031608
300.0031262
300.003083
300.0030831
300.0031294
300.0031022
300.0030725
300.0030592
300.0030884
300.0030718
300.0032026
300.0032862
300.0032995
300.0032549
300.0031909
300.0031577
300.0031321
300.0031078
300.0030821
300.0030535
300.0030398
300.0030621
300.0031011
300.0031275
300.00313
300.003248
300.0033767
300.0032149
300.0031799
300.0031394
300.0030871
300.0030867
300.0032017
300.0031459
300.0031148
300.0031047
300.003157
300.0030374
300.0030612
300.0031567
300.0031768
300.0031561
300.0031041
300.0030702
300.0030553
300.0030465
300.0030338
300.0030174
300.0030112
300.0030622
300.0031184
300.0031675
300.0031666
300.0032053
300.003343
300.0031874
300.0031391
300.0030941
300.0030809
300.0032403
300.0031587
300.0031528
300.0031558
300.0032641
300.0031102
300.0030356
300.0030752
300.0030984
300.0031033
300.0030798
300.0030366
300.0030241
300.0030204
300.0030152
300.0030152
300.0029922
300.0030996
300.0031823
300.0032421
300.0032329
300.0031965
300.0032808
300.0031719
300.0031334
300.0031531
300.0031552
300.0040737
300.0031792
300.0032382
300.0031809
300.0033313
300.003218
300.0030695
300.0030479
300.0030543
300.0030638
300.0030708
300.0030201
300.0030047
300.0030029
300.0029988
300.0030315
300.0029711
300.0031725
300.0033708
300.0033989
300.0033418
300.003249
300.003207
300.0031264
300.0030913
300.0030835
300.0030949
300.0033007
300.0031266
300.0031588
300.0031788
300.0033143
300.0032888
300.0031192
300.0030209
300.0030245
300.003067
300.0031018
300.0030385
300.0030074
300.0030032
300.0029819
300.0029976
300.0029049
300.0025978
300.0030148
300.0034111
300.0034571
300.0033596
300.0031809
300.0030626
300.0030447
300.0030443
300.0030693
300.0031604
300.0030794
300.0031103
300.0031679
300.0032809
300.0032843
300.0031807
300.0030236
300.0030675
300.0031798
300.0032343
300.0031339
300.0030656
300.0030695
300.0030234
300.0032154
300.0027375
299.9995275
300.0037287
300.0054304
300.0042456
300.0036931
300.0033423
300.0030085
300.0029993
300.0030175
300.0030601
300.0030646
300.0030432
300.0030759
300.0031594
300.0032708
300.0032856
300.0032858
300.0032025
300.0029682
300.0030064
300.0030339
300.0029585
300.0029453
300.002968
300.0029584
300.003046
300.003139
300.0031239
300.0039254
300.0035911
300.0034527
300.0033982
300.0032266
300.003002
300.0029711
300.0030097
300.003076
300.00305
300.0030167
300.0030275
300.0030609
300.0031427
300.0031801
300.0032236
300.0031982
300.0029899
300.0029767
300.0029852
300.00293
300.0029432
300.0029656
300.0029504
300.0030434
300.0029322
300.00329
300.0034175
300.0033958
300.0033339
300.0032807
300.0030927
300.0030716
300.0029614
300.0030066
300.0030973
300.0030738
300.0030389
300.0030322
300.0030433
300.003103
300.0031491
300.003194
300.0031698
300.0030024
300.0029712
300.0029663
300.0029189
300.0029303
300.0029398
300.0029382
300.0029472
300.0029312
300.003121
300.0031044
300.0031164
300.0031188
300.0031029
300.0029358
300.0031925
300.0028945
300.0029032
300.003042
300.0030798
300.003076
300.0030759
300.0030721
300.0030868
300.0031206
300.0031607
300.0031333
300.0029978
300.0029652
300.0029408
300.0029126
300.0029097
300.0029229
300.0029471
300.002955
300.0029601
300.0030163
300.0030081
300.0030089
300.0029994
300.0029723
300.0028299
300.0029298
300.0028658
300.0029379
300.0030561
300.0030605
300.0030563
300.0030679
300.0030777
300.0030818
300.0031022
300.0031316
300.0030917
300.0029705
300.0029474
300.0029188
300.0029021
300.0028982
300.0029153
300.0029465
300.0029474
300.0029556
300.0029696
300.002972
300.0029752
300.002965
300.0029272
300.0027914
300.0028928
300.0029173
300.0029644
300.003051
300.0030506
300.0030585
300.0030775
300.0030885
300.0030871
300.0030987
300.0031136
300.0030444
300.0029156
300.0029142
300.0028963
300.0028888
300.0028842
300.0028979
300.0029207
300.0029138
300.0029133
300.0029177
300.0029243
300.0029329
300.0029323
300.0029088
300.0027949
300.0029452
300.0029879
300.0029993
300.0030579
300.0030625
300.0030767
300.0030934
300.0030977
300.0030961
300.0031052
300.0031045
300.0029855
300.0028403
300.0028626
300.0028657
300.0028675
300.0028627
300.0028709
300.002884
300.0028717
300.0028649
300.0028633
300.002868
300.0028767
300.0028855
300.0028847
300.0028
300.0030258
300.0030462
300.0030375
300.0030695
300.0030775
300.0030894
300.0030991
300.003103
300.0031074
300.0031186
300.0031023
300.0029356
300.0028026
300.0028093
300.002823
300.0028376
300.0028388
300.0028436
300.0028508
300.0028376
300.0028305
300.00283
300.0028379
300.0028537
300.0028743
300.0028804
300.0028091
300.0031008
300.0030872
300.0030719
300.0030769
300.0030803
300.003088
300.0031001
300.0031143
300.0031203
300.0031305
300.0030997
300.0029441
300.0028691
300.0028206
300.0027886
300.0027994
300.0028149
300.002822
300.0028284
300.00282
300.0028171
300.0028218
300.0028354
300.0028591
300.0028804
300.0029006
300.0028413
300.00316
300.0031357
300.0031189
300.0031057
300.0031002
300.0031061
300.0031267
300.0031585
300.0031324
300.0031293
300.0030805
300.0029698
300.0029587
300.0029039
300.002815
300.0027722
300.002789
300.0028061
300.0028176
300.0028186
300.0028202
300.0028294
300.0028464
300.0028726
300.0028982
300.0029175
300.0028549
300.0032015
300.0031925
300.0031847
300.0031739
300.003165
300.0031718
300.0032139
300.0033325
300.0031403
300.0031104
300.0030436
300.0029911
300.00301
300.0029764
300.0028932
300.0027885
300.0027667
300.0027896
300.0028139
300.0028271
300.002832
300.0028431
300.0028604
300.0028853
300.0029097
300.0029263
300.0028609
300.0032495
300.0032458
300.0032406
300.0032334
300.0032359
300.0032577
300.0033713
300.00347
300.0030052
300.003065
300.0029997
300.0030043
300.003033
300.0030155
300.0029634
300.0028456
300.0027736
300.0027699
300.0028097
300.0028374
300.0028463
300.0028583
300.0028745
300.002897
300.0029186
300.0029335
300.0028656
300.0030779
300.0032671
300.003316
300.0033072
300.0033085
300.0032891
300.0032619
300.0031361
300.0030435
300.0030397
300.0029682
300.0030128
300.0030474
300.003038
300.0030071
300.0028987
300.0028234
300.0027654
300.0027984
300.002842
300.0028586
300.0028724
300.0028875
300.0029068
300.0029218
300.0029259
300.0028617
300.0032807
300.0033574
300.0033157
300.0031832
300.0032709
300.003268
300.0032467
300.0031984
300.0031194
300.0030264
300.0029472
300.0030144
300.0030573
300.0030585
300.0030407
300.0029394
300.002884
300.0027856
300.0027883
300.0028382
300.0028657
300.0028838
300.0028986
300.0029143
300.0029214
300.0029174
300.0028614
300.0034285
300.0033983
300.0032547
300.0028988
300.0031194
300.0032354
300.003257
300.0032241
300.0031459
300.0030116
300.002929
300.0030077
300.0030616
300.003087
300.0030842
300.00298
300.0029325
300.0028184
300.0027916
300.0028314
300.0028677
300.0028915
300.0029072
300.0029198
300.0029244
300.0029161
300.0028596
300.0033221
300.003106
300.0030207
300.0028793
300.0026805
300.002862
300.0030639
300.0031632
300.003133
300.0030078
300.0029275
300.0029888
300.0030485
300.0030684
300.0029838
300.0030244
300.002951
300.0028553
300.0028125
300.0028334
300.0028708
300.0028981
300.0029147
300.0029267
300.0029311
300.0029222
300.0028576
300.0031353
300.0027836
300.0025674
300.0019846
300.0020526
300.0024494
300.0028701
300.0031059
300.0031302
300.0030464
300.0029741
300.0029888
300.0030332
300.0030807
300.0031109
300.0030225
300.0029653
300.0028894
300.0028476
300.0028585
300.002891
300.0029171
300.0029332
300.0029434
300.002945
300.0029325
300.0028583
300.0032277
300.0028996
300.0027004
300.001738
300.0022053
300.0026248
300.0029747
300.003133
300.0031501
300.0031166
300.0030655
300.0030337
300.0030349
300.0030672
300.0030518
300.0030147
300.0029687
300.0029193
300.0028965
300.0029116
300.0029409
300.0029631
300.0029752
300.0029801
300.0029737
300.002951
300.0028646
300.0034201
300.0031426
300.0030034
300.0021142
300.0026321
300.0029193
300.0031017
300.0031641
300.0031892
300.0032018
300.0031714
300.0031185
300.0030749
300.0030633
300.0030376
300.0030041
300.0029689
300.0029497
300.0029572
300.0029865
300.0030168
300.0030353
300.003042
300.0030389
300.0030205
300.0029811
300.0028789
300.0036192
300.0033349
300.0032248
300.0026993
300.0029935
300.0031231
300.0031628
300.0031817
300.0032394
300.003279
300.0032628
300.0032111
300.0031474
300.0030945
300.0030468
300.0030022
300.0029742
300.0029837
300.0030222
300.0030671
300.0031004
300.003117
300.0031188
300.0031071
300.0030703
300.0030142
300.0029013
300.0036395
300.0034935
300.0033981
300.0031895
300.0032338
300.0032069
300.003164
300.0031753
300.0032571
300.003315
300.0033155
300.0032769
300.0032155
300.0031453
300.0030762
300.0030152
300.0029851
300.003012
300.0030717
300.0031271
300.0031628
300.003179
300.0031775
300.0031637
300.0031224
300.0030525
300.0029276
300.0036445
300.0035845
300.0035145
300.0034304
300.0033466
300.0032488
300.0031608
300.0031401
300.0032082
300.0032834
300.0033107
300.0032931
300.003245
300.0031783
300.0031058
300.0030402
300.0030051
300.0030306
300.0030929
300.0031498
300.003184
300.0031963
300.0031828
300.0031525
300.0031081
300.0030088
300.0029312
300.0034967
300.0034655
300.0034173
300.0033869
300.0032886
300.0031826
300.0030883
300.003032
300.0030466
300.0031142
300.0031649
300.0031703
300.0031412
300.0030934
300.0030429
300.0030006
300.0029747
300.0029852
300.0030272
300.0030701
300.0030952
300.0031115
300.0030738
300.0031039
300.0030114
300.0030034
300.0028877
300.0031162
300.0031502
300.0031846
300.0032142
300.0032251
300.0032253
300.0032316
300.0032563
300.003283
300.0033151
300.0033375
300.0031239
300.003114
300.0031133
300.0031195
300.0031209
300.0031367
300.0031596
300.0031877
300.0032077
300.0032254
300.0032387
300.0032572
300.003279
300.0032948
300.0032943
300.0032757
300.0032502
300.0032179
300.0031965
300.003151
300.0031419
300.0031303
300.0031124
300.0031192
300.0032253
300.0033661
300.0032207
300.0031819
300.0031549
300.0031349
300.0031301
300.0031431
300.0031311
300.003122
300.0031116
300.0031225
300.0031118
300.0031613
300.003207
300.0032331
300.0032283
300.0032111
300.0031911
300.003171
300.0031504
300.0031275
300.0031082
300.0030987
300.0031335
300.0031457
300.0031474
300.0031505
300.0032362
300.0033596
300.0032492
300.0032027
300.0031645
300.0031356
300.0031278
300.0031765
300.003158
300.00315
300.0031196
300.0031144
300.0030437
300.0030568
300.0031278
300.0031577
300.0031502
300.0031403
300.0031217
300.0031107
300.0030975
300.0030841
300.0030747
300.0030693
300.0031079
300.0031373
300.0031627
300.0031693
300.0032225
300.0033187
300.0032095
300.0031568
300.0031126
300.0030809
300.002998
300.0031474
300.003165
300.0031507
300.0031456
300.0030562
300.003033
300.0030654
300.0030815
300.0030704
300.0030667
300.0030548
300.0030543
300.0030514
300.0030427
300.0030325
300.0030118
300.0030047
300.0030627
300.003136
300.0031745
300.0031963
300.0032504
300.0031999
300.0031496
300.0031347
300.0030925
300.0024631
300.0031649
300.0032099
300.0031715
300.0031892
300.0031077
300.0030688
300.0030312
300.0030059
300.0029926
300.002998
300.0029881
300.002989
300.0029894
300.0029746
300.0029538
300.0028866
300.0027481
300.0028672
300.0030293
300.0031527
300.0031748
300.0031688
300.003161
300.0031101
300.0030924
300.0030942
300.0032576
300.0031209
300.0031496
300.0031389
300.0031746
300.0031377
300.0031009
300.0029887
300.0029635
300.0029825
300.0030075
300.0029824
300.0029518
300.0029353
300.0029059
300.002851
300.0026995
300.0022672
300.0022977
300.0027653
300.0030549
300.003163
300.0031115
300.0030888
300.0030403
300.0030245
300.0030244
300.0030775
300.003046
300.0030742
300.0030969
300.0031396
300.0031291
300.0031021
300.002993
300.0029808
300.0030502
300.0030956
300.0030511
300.0029714
300.0029139
300.0028185
300.0025932
300.0019062
299.998652
299.9983631
300.0019201
300.002955
300.0032169
300.0031542
300.0030027
300.0029632
300.0029634
300.0029754
300.0029882
300.0029848
300.0030192
300.0030719
300.0031341
300.0031495
300.0031266
300.0030382
300.0029287
300.0029293
300.0029399
300.0028939
300.0028702
300.0028797
300.0028783
300.002883
300.0027255
300.0019651
300.0026756
300.0030334
300.003172
300.0032318
300.0031448
300.0029688
300.0029213
300.0029381
300.0029686
300.0029589
300.0029411
300.0029682
300.0030171
300.0030784
300.0031161
300.0031448
300.0031087
300.0030048
300.0029338
300.0029092
300.0028758
300.0028864
300.0028842
300.0028553
300.002825
300.0027291
300.0025918
300.0026888
300.0029455
300.0031239
300.0032071
300.003137
300.0030618
300.0029396
300.0029395
300.0029922
300.0029818
300.0029513
300.0029658
300.0030184
300.0030889
300.0031419
300.0031651
300.0030996
300.0030139
300.0029637
300.002932
300.0028913
300.002886
300.0028834
300.0028712
300.0028565
300.0028416
300.0028767
300.0029106
300.0030015
300.0030442
300.0030517
300.0029961
300.003159
300.0029615
300.0029251
300.0029922
300.0030037
300.0029879
300.0030079
300.0030615
300.0031272
300.0031753
300.0031724
300.0030708
300.0029905
300.0029691
300.00294
300.0028966
300.002885
300.002884
300.0028794
300.0028709
300.0028666
300.0028982
300.0029355
300.0029709
300.0029588
300.0029523
300.0029184
300.0029408
300.0028534
300.0028975
300.002978
300.0029958
300.0030004
300.0030383
300.0030997
300.0031566
300.0031854
300.0031632
300.0030205
300.0029418
300.0029433
300.0029182
300.0028906
300.002878
300.0028787
300.0028808
300.0028793
300.002885
300.00291
300.0029439
300.0029695
300.002953
300.002916
300.0028494
300.0028931
300.0028715
300.0029182
300.0029763
300.0029991
300.0030269
300.0030799
300.0031393
300.0031771
300.0031852
300.0031411
300.0029571
300.0028784
300.0029005
300.0028924
300.0028724
300.0028598
300.0028624
300.0028681
300.0028698
300.0028768
300.0028963
300.002926
300.0029528
300.0029464
300.0029059
300.0028143
300.0029287
300.0029294
300.0029549
300.0029955
300.0030273
300.0030701
300.0031244
300.0031717
300.0031901
300.0031835
300.0031174
300.0028975
300.0028186
300.002847
300.0028544
300.0028417
300.0028326
300.0028377
300.0028456
300.0028494
300.0028567
300.0028735
300.0029015
300.0029323
300.0029368
300.0029059
300.0027987
300.002996
300.0029941
300.0030042
300.0030354
300.0030711
300.0031148
300.0031595
300.0031913
300.0032003
300.0031855
300.0031048
300.0028875
300.0028195
300.0028237
300.0028215
300.0028115
300.0028063
300.0028132
300.0028237
300.0028313
300.002842
300.002861
300.0028911
300.0029276
300.0029395
300.00293
300.0027941
300.0030563
300.0030503
300.0030559
300.0030802
300.0031124
300.0031477
300.0031797
300.0032018
300.0032067
300.003184
300.0030964
300.00293
300.0028958
300.0028737
300.0028314
300.0027996
300.0027905
300.0027971
300.0028108
300.0028242
300.0028405
300.0028639
300.0028973
300.0029382
300.0029575
300.0029663
300.002811
300.0031028
300.0031046
300.0031112
300.003131
300.0031554
300.0031785
300.0031997
300.00321
300.0032027
300.0031658
300.0030742
300.0029687
300.0029637
300.0029448
300.0028841
300.0028186
300.0027927
300.0027939
300.0028094
300.0028287
300.0028505
300.0028773
300.0029113
300.0029503
300.0029729
300.0029635
300.0028241
300.0031517
300.0031696
300.0031741
300.0031899
300.0032065
300.0032163
300.0032224
300.0031993
300.0031781
300.0031243
300.0030373
300.0029894
300.0029999
300.0029881
300.0029363
300.0028638
300.0028162
300.0028049
300.0028183
300.0028416
300.0028669
300.0028948
300.0029267
300.0029606
300.0029798
300.0029628
300.0028335
300.0031671
300.0032268
300.0032334
300.0032455
300.0032532
300.0032434
300.0032268
300.0030341
300.0030829
300.003062
300.0029972
300.002994
300.0030156
300.0030124
300.0029747
300.0029117
300.0028554
300.0028285
300.0028357
300.0028597
300.0028861
300.0029133
300.0029411
300.0029687
300.0029801
300.0029634
300.0028395
300.0032214
300.0033036
300.0032936
300.0033002
300.0032978
300.0032646
300.0032505
300.0031768
300.0031251
300.0030321
300.0029636
300.0029917
300.0030236
300.0030295
300.0030025
300.0029543
300.0029021
300.0028628
300.0028598
300.0028809
300.0029066
300.0029314
300.0029537
300.0029738
300.0029713
300.0029664
300.0028405
300.0032888
300.0033341
300.0032732
300.0032585
300.0032778
300.0032434
300.0032181
300.003168
300.0030761
300.00298
300.0029453
300.0029897
300.0030316
300.0030481
300.0030369
300.0029977
300.0029493
300.0029033
300.0028898
300.0029054
300.0029288
300.0029505
300.0029667
300.0029793
300.0029669
300.0029692
300.0028394
300.0033299
300.0032759
300.0031492
300.0031413
300.0030974
300.0031818
300.0031717
300.0031247
300.0030463
300.0029513
300.0029348
300.0029906
300.003037
300.0030661
300.0029947
300.0030266
300.0029884
300.0029446
300.0029256
300.002936
300.0029566
300.0029747
300.0029847
300.0029885
300.0029693
300.0029561
300.0028328
300.0032856
300.0031989
300.0031511
300.0035195
300.0030051
300.0030838
300.0030508
300.0030479
300.0030184
300.0029521
300.0029488
300.0030034
300.003053
300.0030526
300.0031421
300.0031175
300.0030375
300.0029901
300.0029672
300.0029762
300.0029955
300.0030102
300.0030143
300.0030072
300.0029799
300.0029439
300.0028265
300.0032627
300.0032144
300.0032207
300.0036809
300.0030699
300.003147
300.0030181
300.0030205
300.0030344
300.00301
300.0030123
300.0030451
300.0030816
300.0030984
300.0031746
300.0030829
300.0030701
300.0030276
300.0030144
300.0030276
300.0030489
300.0030614
300.0030585
300.00304
300.0030013
300.002945
300.0028252
300.0033122
300.003218
300.0032573
300.0034128
300.0031078
300.0030725
300.0030008
300.0030326
300.0030935
300.0031101
300.0031146
300.0031178
300.0031214
300.0031274
300.0031255
300.0031081
300.0030796
300.003061
300.0030652
300.003089
300.0031142
300.0031253
300.0031163
300.0030872
300.0030345
300.0029597
300.0028295
300.0034849
300.0032702
300.0032528
300.0032759
300.0031189
300.0030356
300.0030147
300.0030738
300.0031666
300.003212
300.0032204
300.0032045
300.0031775
300.0031542
300.0031261
300.0030967
300.0030794
300.0030845
300.0031118
300.0031501
300.0031809
300.0031918
300.0031781
300.0031398
300.0030734
300.0029814
300.0028398
300.0038545
300.0034056
300.0032547
300.0031399
300.0030679
300.0030149
300.0030329
300.0031098
300.0032174
300.0032808
300.0032983
300.0032774
300.003233
300.0031827
300.0031317
300.0030887
300.0030732
300.0030966
300.0031445
300.0031949
300.0032302
300.0032414
300.0032247
300.0031815
300.0031034
300.0029999
300.0028574
300.0037309
300.0035015
300.0033426
300.0031837
300.0031097
300.0030575
300.0030516
300.0031145
300.0032128
300.0032847
300.0033149
300.0033022
300.0032576
300.0031972
300.0031332
300.0030788
300.0030593
300.0030902
300.0031477
300.0032028
300.0032385
300.0032497
300.0032326
300.0031979
300.0031185
300.0030158
300.0028761
300.0036607
300.0035519
300.0034263
300.0032881
300.0031902
300.0031142
300.0030648
300.0030763
300.003144
300.0032157
300.0032591
300.003262
300.0032294
300.0031751
300.0031146
300.0030616
300.0030378
300.0030621
300.0031143
300.0031641
300.0031933
300.0032006
300.0031786
300.0031361
300.0030827
300.0030258
300.0028973
300.0035094
300.0034555
300.003365
300.0032605
300.0031633
300.0030749
300.0029993
300.0029538
300.0029678
300.0030279
300.0030821
300.0030992
300.0030808
300.0030428
300.0030036
300.0029741
300.0029576
300.002967
300.0029995
300.0030357
300.0030523
300.003077
300.0030406
300.0031998
300.0029874
300.0029626
300.0028292
300.0030985
300.0031179
300.0031411
300.003151
300.0031516
300.0031303
300.0031087
300.0031017
300.0031337
300.0031591
300.0032028
300.00324
300.0032585
300.0032479
300.0032255
300.0030894
300.0030918
300.0030979
300.0031058
300.0031185
300.0031339
300.0031473
300.0031562
300.0031442
300.0031203
300.0031079
300.003116
300.003141
300.0031771
300.0032054
300.0032154
300.0032079
300.0031996
300.0031692
300.0031412
300.0031217
300.0030968
300.0030701
300.0030746
300.0031571
300.0032624
300.0031564
300.0031328
300.0031173
300.0031091
300.003107
300.0031048
300.0031165
300.0031206
300.0031252
300.0031311
300.0031154
300.0031023
300.0031021
300.0031061
300.0031153
300.0031328
300.0031431
300.003145
300.0031402
300.0031293
300.0031199
300.0031221
300.0031281
300.0031187
300.0031049
300.0031108
300.0031889
300.0032836
300.0031893
300.0031536
300.0031256
300.003105
300.0030971
300.0030587
300.0031183
300.0031153
300.0031138
300.0031059
300.0030558
300.0030296
300.0030447
300.0030514
300.0030491
300.0030549
300.0030625
300.0030738
300.0030821
300.0030832
300.0030845
300.0030921
300.0031054
300.003114
300.0031177
300.0031275
300.0031892
300.0032584
300.003156
300.0031135
300.0030733
300.0030676
300.0029423
300.0030971
300.0030921
300.0031039
300.0030887
300.0030242
300.0029868
300.0029704
300.0029445
300.0029339
300.0029397
300.0029534
300.0029773
300.0029997
300.0030128
300.0030189
300.0030194
300.003036
300.0030641
300.0030967
300.0031263
300.0031652
300.0032014
300.0031398
300.0030808
300.0029909
300.0028961
300.0013086
300.0029761
300.0029876
300.0030581
300.0030476
300.0030012
300.0029488
300.0028762
300.002839
300.0028263
300.0028303
300.0028431
300.0028688
300.0028963
300.0029069
300.0028954
300.002841
300.0028091
300.0029048
300.0030251
300.003111
300.0031419
300.0031403
300.0030954
300.0030367
300.0029954
300.0029827
300.0028987
300.0029811
300.0029758
300.0029775
300.0029701
300.0029269
300.0028681
300.0028119
300.0027943
300.0028084
300.0028208
300.0028104
300.0028015
300.0028102
300.0028099
300.0027517
300.0025869
300.0024619
300.0026226
300.0029308
300.0030951
300.0031456
300.0031243
300.0029971
300.0029352
300.0028996
300.0028849
300.0028311
300.0028871
300.0028937
300.0029256
300.0029315
300.0028923
300.0028296
300.0027763
300.0027846
300.0028313
300.0028563
300.0028294
300.0027783
300.002746
300.0026818
300.0025496
300.0024231
300.0032822
300.0015697
300.0025151
300.0029805
300.0031492
300.0031763
300.0028896
300.0028401
300.0028275
300.00283
300.0028236
300.0028284
300.0028508
300.0028969
300.0029322
300.0029239
300.0028749
300.0027957
300.0027533
300.0027528
300.0027487
300.0027206
300.0027056
300.0027159
300.0027168
300.0026594
300.0023996
300.0021139
300.0025448
300.0028903
300.00306
300.0031826
300.0032276
300.0028536
300.0027975
300.0027941
300.0028098
300.0027992
300.0027896
300.0028104
300.0028593
300.0029114
300.0029396
300.002941
300.0029045
300.002822
300.0027688
300.0027304
300.0027064
300.0027078
300.0027106
300.0026981
300.0026798
300.0026055
300.0025657
300.0026377
300.0028227
300.0029993
300.00315
300.003229
300.0029423
300.002832
300.0027993
300.0028204
300.0028139
300.0027934
300.0028121
300.0028725
300.0029492
300.003011
300.0030154
300.0029669
300.0029105
300.0028378
300.0027818
300.0027479
300.0027378
300.0027319
300.0027217
300.0027201
300.0027266
300.0028606
300.0028172
300.0028831
300.0029745
300.0030534
300.0031043
300.0029535
300.0028179
300.0027781
300.0028131
300.0028219
300.0028153
300.0028502
300.0029302
300.0030241
300.0030816
300.003046
300.0029464
300.0029146
300.0028823
300.0028219
300.0027778
300.0027569
300.0027439
300.0027333
300.0027282
300.0027308
300.0027705
300.0028108
300.0028831
300.0029258
300.0029644
300.0030102
300.0027876
300.0027266
300.0027455
300.002798
300.0028195
300.002838
300.0028994
300.0029974
300.0030933
300.003126
300.0030567
300.0028993
300.0028734
300.0028721
300.0028333
300.0027825
300.0027584
300.0027458
300.0027398
300.0027393
300.0027479
300.0027782
300.0028274
300.0028889
300.0029137
300.0029162
300.0029173
300.0027538
300.002736
300.0027631
300.0028057
300.0028367
300.0028825
300.0029647
300.0030656
300.0031434
300.003145
300.0030505
300.0028517
300.0028234
300.0028401
300.002817
300.0027697
300.0027466
300.002737
300.0027362
300.0027409
300.0027536
300.0027824
300.0028304
300.0028871
300.002912
300.0028978
300.002851
300.0028027
300.0027939
300.0028081
300.0028421
300.0028852
300.0029495
300.0030353
300.0031225
300.00317
300.0031481
300.0030384
300.0028243
300.0027957
300.002812
300.0027952
300.0027516
300.0027295
300.0027226
300.0027259
300.0027351
300.0027516
300.002781
300.0028277
300.002884
300.0029134
300.0028959
300.0028116
300.0028652
300.0028594
300.0028683
300.0029023
300.002955
300.0030234
300.0030977
300.0031616
300.0031799
300.0031439
300.0030341
300.0028524
300.0028295
300.0028235
300.002791
300.0027441
300.0027189
300.0027117
300.0027175
300.0027312
300.0027522
300.0027841
300.002831
300.0028875
300.002921
300.0029153
300.0028056
300.0029148
300.0029166
300.0029292
300.0029679
300.0030257
300.0030886
300.0031439
300.0031784
300.0031752
300.0031301
300.0030303
300.0029073
300.0028998
300.0028713
300.0028157
300.0027569
300.0027232
300.0027124
300.0027189
300.0027362
300.0027617
300.0027966
300.0028432
300.0028975
300.0029307
300.0029212
300.0027964
300.0029528
300.0029707
300.0029898
300.0030333
300.0030912
300.0031426
300.0031762
300.0031793
300.0031566
300.0031011
300.0030132
300.0029412
300.0029348
300.0029054
300.0028489
300.002786
300.0027441
300.0027279
300.002733
300.0027524
300.0027809
300.0028172
300.0028619
300.002911
300.0029401
300.0029225
300.0027894
300.002983
300.0030299
300.0030537
300.003099
300.0031506
300.0031854
300.0031937
300.0031689
300.0031252
300.0030584
300.0029876
300.002954
300.0029507
300.0029273
300.0028815
300.0028243
300.0027794
300.002758
300.0027603
300.0027796
300.0028085
300.0028438
300.0028841
300.0029257
300.0029469
300.002923
300.0027872
300.0030133
300.0030927
300.0031162
300.0031637
300.003202
300.0032142
300.0032005
300.0031446
300.0030652
300.003008
300.0029632
300.0029572
300.0029609
300.0029467
300.0029144
300.0028676
300.0028254
300.0028007
300.0027994
300.0028165
300.0028435
300.0028751
300.002909
300.0029413
300.0029515
300.0029215
300.0027852
300.003088
300.0031572
300.0031528
300.0032007
300.0032334
300.003217
300.0031822
300.0031119
300.0030791
300.0029883
300.00295
300.0029618
300.0029745
300.0029713
300.0029519
300.0029153
300.002879
300.0028529
300.0028478
300.0028613
300.0028846
300.0029109
300.0029367
300.0029584
300.0029553
300.0029245
300.0027995
300.0031948
300.0031729
300.0030718
300.0030905
300.0032002
300.0032154
300.0031633
300.0030619
300.0030463
300.0029453
300.0029445
300.0029706
300.0029957
300.0030049
300.0029989
300.0029664
300.002937
300.0029102
300.002902
300.002912
300.0029312
300.0029516
300.0029685
300.0029773
300.0029597
300.0029209
300.0028029
300.0032403
300.0030862
300.0030087
300.0030893
300.002938
300.0031445
300.0031318
300.0030591
300.0030418
300.0029448
300.0029578
300.0029942
300.0030246
300.003042
300.003034
300.0030147
300.0029963
300.0029685
300.0029592
300.0029671
300.0029831
300.0029981
300.003006
300.0030006
300.0029679
300.0029129
300.0027905
300.0032353
300.0030442
300.0030017
300.0032352
300.0028053
300.0031148
300.0031076
300.0030645
300.0030231
300.0029807
300.0029945
300.0030295
300.0030622
300.0030697
300.0031456
300.0030513
300.003057
300.0030232
300.0030166
300.0030255
300.0030407
300.0030513
300.0030497
300.00303
300.0029818
300.0029084
300.002775
300.0032519
300.0030679
300.0030041
300.0031455
300.0027665
300.0031021
300.0030982
300.0030813
300.0030667
300.0030523
300.0030621
300.0030835
300.0031016
300.0031112
300.0031017
300.0031399
300.0031378
300.0030781
300.0030722
300.0030842
300.0031006
300.0031082
300.0030984
300.0030657
300.003002
300.0029103
300.0027639
300.0033742
300.0031911
300.003136
300.0030275
300.0029808
300.003106
300.0030882
300.0030978
300.0031209
300.0031341
300.0031441
300.0031517
300.0031542
300.0031555
300.003147
300.0031995
300.0031306
300.0031122
300.003117
300.0031375
300.0031577
300.0031642
300.003148
300.0031043
300.0030264
300.0029186
300.0027596
300.0032578
300.0032865
300.0032442
300.0031347
300.0031087
300.0030877
300.0030703
300.0031027
300.0031587
300.0031969
300.0032149
300.0032167
300.0032052
300.0031861
300.0031587
300.0031452
300.0031238
300.0031249
300.0031461
300.0031773
300.0032021
300.0032084
300.0031876
300.0031359
300.003047
300.002927
300.0027613
300.004327
300.0034766
300.0033633
300.003207
300.0031281
300.0030665
300.0030469
300.003092
300.0031649
300.0032207
300.0032505
300.0032548
300.0032357
300.003201
300.0031588
300.0031229
300.003106
300.0031198
300.003155
300.0031939
300.003221
300.0032266
300.0032031
300.0031483
300.0030573
300.0029438
300.0027745
300.0039019
300.0034587
300.0033577
300.0032176
300.0031234
300.0030507
300.0030214
300.0030582
300.0031274
300.0031884
300.0032266
300.0032367
300.0032183
300.0031788
300.0031304
300.0030868
300.0030694
300.003089
300.0031304
300.0031719
300.0031964
300.0032001
300.0031758
300.0031232
300.0030296
300.0029469
300.0027853
300.0036871
300.0034649
300.003358
300.0032305
300.0031241
300.0030392
300.002988
300.002992
300.0030396
300.0030961
300.0031386
300.0031548
300.0031421
300.0031079
300.0030658
300.0030278
300.0030111
300.003028
300.0030659
300.0031039
300.0031183
300.0031147
300.003091
300.0029981
300.0029852
300.0029782
300.0028134
300.0034774
300.0033728
300.0032911
300.0031849
300.0030764
300.0029767
300.0028951
300.0028489
300.0028557
300.0029036
300.0029523
300.0029741
300.0029661
300.002941
300.0029165
300.0029002
300.0028917
300.0028996
300.0029255
300.002963
300.0029561