/*--------------------------------*- C++ -*----------------------------------*\
  =========                 |
  \\      /  F ield         | OpenFOAM: The Open Source CFD Toolbox
   \\    /   O peration     | Website:  https://openfoam.org
    \\  /    A nd           | Version:  8
     \\/     M anipulation  |
\*---------------------------------------------------------------------------*/
FoamFile
{
    version     2.0;
    format      ascii;
    class       labelField;
    location    "1.8/lagrangian/reactingCloud1";
    object      origId;
}
// * * * * * * * * * * * * * * * * * * * * * * * * * * * * * * * * * * * * * //


244
(
738
745
746
749
756
758
759
835
762
763
836
764
838
765
766
844
767
768
769
841
771
843
772
851
853
773
854
856
858
774
861
862
775
863
776
777
1193
778
780
781
782
783
784
785
786
787
788
789
790
792
793
794
796
797
869
799
800
516
801
874
802
804
805
889
806
807
808
891
809
810
811
812
894
875
813
815
816
817
883
818
819
820
821
822
885
823
824
825
826
827
1220
1204
520
829
830
831
832
833
834
835
836
1225
837
838
839
840
841
842
843
512
844
1255
845
901
846
847
1231
848
849
850
851
852
1235
853
907
854
855
926
856
857
858
859
1251
860
861
862
923
863
914
864
865
866
867
868
1268
869
1219
945
947
1223
946
870
871
872
927
873
921
1253
948
949
915
874
950
875
939
942
954
876
877
943
1228
944
878
879
1234
1233
880
564
881
554
555
1216
1259
1321
1232
882
1170
558
562
883
1236
884
965
1301
931
885
1308
886
956
887
1296
1298
1297
1316
888
889
1294
890
891
892
1237
1262
1290
1305
940
893
1300
1310
1302
1312
1304
894
1313
1314
895
1306
924
1315
1230
1311
1258
896
1318
1286
953
1229
979
1257
977
1288
897
980
983
1169
)


// ************************************************************************* //
