/*--------------------------------*- C++ -*----------------------------------*\
  =========                 |
  \\      /  F ield         | OpenFOAM: The Open Source CFD Toolbox
   \\    /   O peration     | Website:  https://openfoam.org
    \\  /    A nd           | Version:  8
     \\/     M anipulation  |
\*---------------------------------------------------------------------------*/
FoamFile
{
    version     2.0;
    format      ascii;
    class       vectorField;
    location    "1.8/lagrangian/reactingCloud1";
    object      U;
}
// * * * * * * * * * * * * * * * * * * * * * * * * * * * * * * * * * * * * * //


244
(
(-0.0938342374 -0.09607815922 -2.146292964)
(-0.1485419824 0.02312042138 -2.202570111)
(-0.006644573433 0.0652488544 -2.237584819)
(-0.002900970308 0.08260744616 -2.26298409)
(-0.1654020466 0.07366361147 -2.081450669)
(-0.1407295292 -0.07795680602 -2.106441107)
(-0.004791983517 -0.008342750877 -1.942294734)
(-0.6312415243 -0.2981290212 -2.216979284)
(-0.2076163274 0.05492636473 -2.071334287)
(-0.1061550505 -0.05761148275 -1.931367314)
(-0.5078651616 -0.2460272829 -2.049130649)
(-0.03408297946 -0.2007728148 -1.927568863)
(-0.5651258699 -0.2765962205 -2.161590614)
(0.08656038169 -0.1414958572 -1.977300177)
(0.0103981017 -0.5555371926 -2.006345867)
(-0.5020849484 -0.2402613765 -2.086118167)
(0.07063934552 -0.1360766439 -1.888464868)
(-0.012004352 -0.6075888189 -1.900577322)
(0.08318066751 -0.09534089676 -2.005802023)
(-0.5519008829 -0.3163886282 -2.232498562)
(0.06035314347 -0.08403744139 -1.784741698)
(-0.4929708465 -0.3025238088 -2.130545397)
(0.05057410021 -0.1280961867 -1.839484763)
(-0.5635831831 -0.2876754241 -2.194916597)
(-0.5422722194 -0.2902885754 -2.121634095)
(0.09155136924 -0.1544695151 -1.876362087)
(-0.5272670727 -0.2940809943 -2.088863613)
(-0.5526221726 -0.3233728159 -2.086665571)
(-0.5182284597 -0.2970065451 -2.032717009)
(-0.1568274183 0.00838650591 -1.644847072)
(-0.6199276448 -0.3644163094 -2.058432942)
(-0.5438206636 -0.294936303 -1.983260794)
(0.005733043703 -0.1240424783 -1.762841471)
(-0.5642236565 -0.3124606514 -2.004924326)
(0.0467662087 -0.1050406975 -1.803217842)
(0.08520785285 -0.1048396197 -1.814437099)
(-0.3721779193 -0.2643372761 -1.931256821)
(-0.3024134471 0.08341382718 -1.732845644)
(-0.05257538121 -0.02065815138 -1.715765374)
(0.02648815327 -0.1371811405 -1.651471083)
(-0.1296431005 -0.05079803688 -1.767434915)
(0.08051385515 -0.1162836875 -1.73065194)
(-0.04387441747 -0.09462036192 -1.71901213)
(0.06866975335 -0.1290244419 -1.70997132)
(-0.1048484695 -0.1136990287 -1.807925106)
(-0.2265297689 0.006023278848 -1.621362929)
(-0.04176110847 -0.4316634668 -1.812028674)
(-0.08496719247 -0.1309612268 -1.72848105)
(0.008159343629 0.03089941092 -1.759893317)
(0.07403361152 -0.1318231267 -1.649296915)
(-0.06748503953 -0.1544542923 -1.682531686)
(0.0389248074 -0.1516489544 -1.585724418)
(0.08973013621 -0.1376473848 -1.662155722)
(0.1038028695 -0.1312627715 -1.663372461)
(-0.481982315 -0.8202388544 -3.099672656)
(-0.08526149917 -0.01965831227 -1.577820833)
(-0.0419906129 -0.2250862193 -1.638040949)
(-0.1154849093 -0.08859832039 -1.885919257)
(-0.03548185829 -0.1630768019 -1.687746878)
(-0.4053811211 -0.1118147528 -1.914778863)
(0.004584025168 -0.5088262727 -1.698123112)
(0.09565568487 -0.1640823991 -1.558650326)
(-0.3095752407 0.07822113412 -1.551177486)
(-0.9969537835 -0.4591692048 -2.84238622)
(-0.06480773795 -0.05186229328 -1.436012462)
(-0.3266164557 0.09217173214 -1.469439415)
(-0.1489691533 0.1244187809 -1.533102203)
(-0.8878486381 -0.3360915943 -3.089936685)
(0.009978330477 -0.5399657714 -1.584788525)
(-0.2702577756 0.1349179728 -1.440497169)
(-0.2863434707 0.1431838311 -1.439610648)
(0.0881645561 -0.1766520985 -1.450630327)
(-1.190008954 -0.001435608611 -2.870091938)
(-0.3033352647 -0.1423354204 -1.86681592)
(0.04737184442 -0.1419838405 -1.390518474)
(-0.2954251982 -0.13045602 -1.44094726)
(-0.3297291481 0.1752035142 -1.455892311)
(-0.2921451795 0.164266774 -1.37828731)
(-0.4501852897 -0.8291726085 -3.180456582)
(0.04631793397 -0.1550062321 -1.331929881)
(-0.2012416931 0.04356725355 -1.340501097)
(-0.4003730688 0.09850225543 -1.397741556)
(-0.1481903208 0.05941291151 -1.409292002)
(-0.04137761874 -0.0820703566 -1.40749383)
(-0.4637515052 -0.6763256576 -3.325260693)
(-0.06308762884 -0.1885332269 -1.379217679)
(-0.3288265561 0.1861427843 -1.389739005)
(0.01237619049 -0.08729593803 -1.289972264)
(-0.2982016138 0.1751601904 -1.324461141)
(-0.3252298735 0.1891082537 -1.325834282)
(-0.2526875734 -0.087979176 -1.678019838)
(-0.3227620448 -0.04601329151 -1.878363627)
(-0.08443010783 -0.2233422761 -1.752047041)
(-0.309897641 0.1778991115 -1.280572211)
(-0.3926783441 0.06958329212 -1.273908573)
(0.04419416899 -0.1180821509 -1.218913306)
(-0.312522428 0.1729947751 -1.263108167)
(-0.2747966515 -0.04889560715 -1.226059154)
(-0.1948277914 -0.01453436001 -1.282252914)
(0.07437801501 -0.1607718194 -1.27140208)
(-0.2003644368 -0.01275389449 -1.271690764)
(-0.2477758823 0.01734030737 -1.502883923)
(-0.318474925 0.1614075137 -1.223645962)
(-0.2224977783 0.1326220711 -1.255340179)
(-0.1058742434 -0.269346695 -1.208896465)
(-0.2960803387 0.1473865235 -1.177761382)
(-0.284224379 0.1393521176 -1.148199127)
(-0.1446363436 0.01468180364 -1.184806113)
(0.04415714801 -0.1310359387 -1.169493622)
(-0.09348335607 -0.2679016523 -1.989506556)
(-0.2835602965 0.1379802935 -1.133530014)
(-0.1961680516 0.053111454 -1.30386227)
(-0.2827680163 0.1318309734 -1.114324955)
(-0.4954813463 -0.6714227562 -3.027550941)
(-0.2450483472 -0.04466365083 -1.073111792)
(-0.2994570147 0.12358497 -1.087531638)
(-0.2550033912 0.01512279829 -1.502967747)
(0.002908363478 -0.08357721744 -1.031352257)
(-1.471211912 0.01482420097 -1.005348492)
(0.07288874918 -0.1994014193 -1.036907319)
(0.07593844237 -0.1680166197 -1.006359077)
(-1.564931942 0.01212339715 -0.9910217186)
(-0.2102683761 -0.1507954241 -1.526160751)
(-0.2292070322 0.0851670358 -0.9902146515)
(-0.4720123579 -0.6102850505 -3.095494297)
(-1.323010252 -0.05147100977 -0.9653589474)
(0.02178947937 -0.0917182228 -0.9583460591)
(-1.095764806 -0.351107025 -2.397955376)
(0.07074305806 -0.2016029041 -0.9018461773)
(-0.2884138947 -0.05635956303 -0.9005522663)
(-0.879776103 0.0586940337 -0.9103062676)
(-0.07463112425 -0.06678243979 -0.8597497969)
(-0.4843354639 -0.4654854248 -1.485226651)
(-0.1993383364 -0.03311329503 -0.8010551523)
(-0.2681629165 -0.005599183448 -0.7833921378)
(0.03724545848 -0.1684103868 -0.8159643665)
(-0.4739014131 -0.2428546893 -1.148202519)
(-1.695767663 0.02096260069 -0.7975386062)
(-0.3878249397 -0.5266244027 -3.044540172)
(0.06454354264 -0.2451825539 -0.7616099337)
(-0.2699801361 -0.01574055525 -0.7467201218)
(0.03694935501 -0.1440489495 -0.757678976)
(-0.3898800261 -0.05146598351 -0.738426302)
(-0.4373344147 -0.03614560806 -0.7186155085)
(-0.2067333693 -0.1947189042 -1.152903602)
(4.458836183 -0.03484603277 -0.6928444586)
(-0.2688602161 0.08125392351 -1.54649352)
(-1.082929865 0.01332008628 -2.261332933)
(-1.592008967 -0.69523605 -0.836284565)
(-0.2628964289 0.07817136888 -1.503900233)
(-1.405361672 -0.6162043057 -0.8527849794)
(-0.0002765397554 -0.2929136333 -0.7356383728)
(3.985700766e-05 -0.1946018156 -0.7070868168)
(-4.50124738e-05 -0.1781713187 -0.7089705797)
(-0.3900086619 -0.2071597716 -1.062836187)
(-0.291168048 -0.03578770492 -0.6264688884)
(-0.3161707418 -0.2378004441 -1.132541897)
(-0.2157435917 -0.0987101293 -1.391704845)
(-1.433210966 -0.6520576689 -0.8127582007)
(-0.8365750622 -0.5450931826 -2.365239716)
(0.1006061207 -0.5192782786 -3.050582901)
(-0.245244852 -0.07073256603 -0.5896571958)
(-1.133979052 -0.5411222619 -0.8147340592)
(-0.007907301594 -0.1828537051 -0.5783702766)
(-0.4554853108 -0.2274704838 -0.8447488091)
(-0.5213986196 -0.2538600454 -0.8096251485)
(-0.9060131848 0.05611156284 -2.369847425)
(0.06808574458 -0.24245253 -0.5341854431)
(-0.2284188428 -0.08870573952 -0.512908313)
(-0.6298981456 -0.631418872 -2.363969713)
(-0.2670368418 0.05952588729 -1.596549785)
(-0.606277325 -0.2939074415 -0.7733791577)
(-0.2017833579 -0.1116935414 -0.4780115104)
(-0.2844186369 0.1307410212 -0.4783540257)
(-0.6268397596 -0.6013370268 -1.630789192)
(-0.6473830775 -0.624916685 -1.631483762)
(-0.1818467152 -0.1280693476 -0.4137277978)
(-0.01778186122 -0.273314246 -0.4822109327)
(-0.1609424423 -0.1435654835 -0.3854463409)
(0.007397883969 -0.2754624003 -0.8223875575)
(0.06279849744 -0.2769637025 -0.7868065135)
(-0.272449946 0.08691992678 -1.574818285)
(-0.213586851 -0.1979546003 -1.256185202)
(-0.3047051272 -0.3051099334 -0.6087364514)
(-0.6661580666 -0.6820994126 -1.625794538)
(-0.03270161294 -0.276929441 -0.3721352644)
(-0.3359749384 -0.3529097003 -2.036031844)
(-0.01231285419 -0.2674656316 -0.6406350735)
(0.03029796688 -0.2863169058 -0.607898906)
(0.1384868056 -0.2827397153 -0.3551056249)
(-0.6491742702 -0.7242275262 -1.590766893)
(-0.2220944438 0.2319743642 -0.3537312479)
(-1.030111379 -0.2898458426 -2.00608039)
(-0.4423983761 -0.2874393183 -0.917566778)
(0.04730470248 -0.7545850733 -2.703373034)
(-0.0005156178166 0.3078016702 -0.3314002846)
(-0.3519323251 -0.2927013064 -0.8275629181)
(0.06026882259 0.2586334201 -0.3211032082)
(-0.5802238534 -0.6332715342 -2.322594916)
(0.0804343322 0.2336851581 -0.2923616219)
(-0.3545003782 -0.2620619697 -0.9097048292)
(-0.4810348621 -0.3884359083 -0.9383715529)
(-0.4883735437 -0.4244785698 -0.9390018383)
(-0.3677203413 -0.2831426856 -0.733296803)
(0.0666934302 0.2435074201 -0.2485530432)
(-0.01836725304 -0.2155626318 -0.243201444)
(-0.4603948897 -0.4273414899 -0.961758316)
(0.0004182949308 0.3380654086 -0.235285527)
(0.05946922339 -0.2803043947 -0.2328615597)
(0.1289643176 0.2383924319 -0.2232004559)
(-0.5779860418 -0.7074651562 -1.578212579)
(-0.2817352066 -0.2952619177 -1.186552757)
(-0.3703724025 -0.1836014648 -0.963664996)
(-0.4444868931 -0.3278417641 -0.8682555551)
(0.2065012748 -0.6108944853 -2.642377706)
(0.1264238943 0.2323835605 -0.1986204539)
(-0.4840176796 -0.4133086728 -0.8900917197)
(-0.4345445174 -0.3492600608 -0.8620387673)
(-0.46701111 -0.3932624458 -0.8864791359)
(-0.4274967766 -0.367561988 -0.8533890756)
(-0.4714972828 -0.4205819987 -0.8717254284)
(0.03762838297 0.2270217522 -0.160107534)
(-0.4188601139 -0.3749979796 -0.8515156537)
(-0.4218039478 -0.3929630199 -0.8399347577)
(0.0327328684 -0.1131425083 -0.1410275867)
(-0.4533400162 -0.4228205445 -0.8721612548)
(-0.2587267116 -1.058748248 -2.410165299)
(-0.4297767849 -0.4154866851 -0.8162593821)
(-0.214487577 0.04825372601 -1.484742673)
(-0.4479792959 -0.4332234805 -0.8714404158)
(-0.2818176945 -0.424722463 -1.356398478)
(0.157349201 -0.2373432661 -0.1016291629)
(-0.4323502596 -0.4336512201 -0.7761342275)
(-0.2946002261 -0.1425233028 -1.003341646)
(-0.2751992904 -0.3008801038 -2.57990515)
(-0.5557660007 -0.5999570363 -1.642356563)
(-0.9350653993 -0.4909214753 -1.835492727)
(-0.4832197715 -0.5056462023 -1.431123675)
(-0.6096765538 -0.7880430252 -1.902432178)
(-0.1130403832 -0.1175389394 -0.9728809845)
(0.009322865596 -0.1166081775 -0.01801584606)
(-0.7272607865 -0.3976882531 -1.946009058)
(-1.320462196 -0.423930228 -1.502390718)
(-0.3413248465 -0.3750180376 -2.282891172)
)


// ************************************************************************* //
