/*--------------------------------*- C++ -*----------------------------------*\
  =========                 |
  \\      /  F ield         | OpenFOAM: The Open Source CFD Toolbox
   \\    /   O peration     | Website:  https://openfoam.org
    \\  /    A nd           | Version:  8
     \\/     M anipulation  |
\*---------------------------------------------------------------------------*/
FoamFile
{
    version     2.0;
    format      ascii;
    class       scalarField;
    location    "1.3/lagrangian/reactingCloud1";
    object      age;
}
// * * * * * * * * * * * * * * * * * * * * * * * * * * * * * * * * * * * * * //


148
(
0.2566128063
0.2532998365
0.2506676393
0.2500093512
0.2471463215
0.242700536
0.2445272891
0.2405057414
0.2313744995
0.2284527662
0.2218892571
0.2178201003
0.2127687333
0.2377387005
0.2003111349
0.1950233281
0.1892931743
0.1868394379
0.1854463678
0.1831556036
0.1805221505
0.1805221505
0.1778795317
0.1751356534
0.1725557887
0.1725557887
0.1712466388
0.1645361211
0.1629062884
0.1598913372
0.1922239502
0.1552958906
0.1536800078
0.15267951
0.1523062118
0.1505523564
0.1580815661
0.1469456573
0.1469456573
0.1541281158
0.1450022296
0.1447352537
0.142687398
0.1420306528
0.1481881661
0.1461076247
0.1372870022
0.1372870022
0.1367338896
0.1359825416
0.1358335097
0.1339237763
0.1330973233
0.2182410476
0.2281741602
0.1312487185
0.1289701503
0.1289018648
0.1268562892
0.1266820773
0.1321181365
0.1233739445
0.1198194282
0.1181354054
0.1153304864
0.1110925138
0.1408796336
0.1395750618
0.1044916923
0.1042274751
0.1023779548
0.1101723621
0.1
0.135259164
0.09894039735
0.1002642172
0.09153320816
0.1373783919
0.08520559351
0.08494056833
0.08401298022
0.08335041729
0.07897750191
0.07632725017
0.07566468724
0.07261689773
0.07129177186
0.1267170015
0.1280542278
0.06731639425
0.06599126838
0.06453362992
0.06360604181
0.09417147432
0.06066782487
0.05971989011
0.1294538413
0.05890737459
0.05807528133
0.05735115064
0.05524360528
0.05305995615
0.05208652268
0.05188424034
0.05188424034
0.05136403995
0.049291543
0.04852136264
0.04737328098
0.04660387735
0.04638404774
0.04605430332
0.04539481449
0.04473532566
0.04451549605
0.05218727031
0.04407583683
0.04344003889
0.04334063377
0.04269162149
0.04014317678
0.03999942335
0.03900544482
0.03879447818
0.03657581305
0.03623347188
0.03541568001
0.03041114956
0.07023167116
0.06625629355
0.02824857893
0.09214010248
0.02551064757
0.02455099631
0.1087191675
0.1412712239
0.02269018134
0.01196475649
0.01122160391
0.01813292287
0.1319000958
0.009140776695
0.006539742676
0.004384600203
0.003418501853
0.001857881442
0.001486305154
0.001263359381
)


// ************************************************************************* //
