/*--------------------------------*- C++ -*----------------------------------*\
  =========                 |
  \\      /  F ield         | OpenFOAM: The Open Source CFD Toolbox
   \\    /   O peration     | Website:  https://openfoam.org
    \\  /    A nd           | Version:  8
     \\/     M anipulation  |
\*---------------------------------------------------------------------------*/
FoamFile
{
    version     2.0;
    format      ascii;
    class       scalarField;
    location    "1.3/lagrangian/reactingCloud1";
    object      nParticle;
}
// * * * * * * * * * * * * * * * * * * * * * * * * * * * * * * * * * * * * * //


148
(
100.6852452
101.7825216
100.0452274
490.5167572
100.3406044
100.3863249
102.1312763
101.5522591
100.2293251
102.0770484
100.5425489
100.5691257
101.7033243
100.0863183
100.0211553
100.3128511
100.4621496
100.0558424
100.1539603
105.6653966
100.2798533
100.4885159
105.344927
127.1989329
101.4513569
100.3861635
100.1508368
100.573771
100.1094828
100.0833637
1983.717898
100.8344106
100.0183696
100.5696227
143.4742533
100.5816684
1649.22312
100.2297974
100.1510644
1390.513932
122.6945006
101.7043658
100.0499707
100.1291719
1934.649911
3487.116465
100.4237235
265.9642709
100.1817159
100.1379225
100.1852237
100.054127
100.2574943
168.5762923
107.2068661
100.0678503
121.6968256
197.5688121
100.0203034
100.3913248
636.9596865
100.2153086
100.1088881
100.0414353
100.3151073
100.1094247
125.3159288
103.5968346
100.4281304
190.3320445
100.1631021
5242.573504
100.2803837
100.1307188
101.0189327
3434.334103
100.6343053
101.2779922
101.4398756
139.8984402
101.4306301
101.2424939
100.030818
147.2338217
100.0921835
100.218384
100.4823766
100.8214649
101.7677532
100.270878
101.5539123
101.4900867
101.3508098
2920.650459
781.6039689
105.9175188
100.0673322
253.7132824
100.1792452
100.0485096
158.9079301
858.6691097
111.1041125
100.1347548
100.0172549
100.330342
2566.386297
100.3019646
100.7456556
100.2583881
247.2090031
102.0646169
112.7137305
100.1948073
104.1982069
1767.653149
104.179637
102.276743
101.5848686
109.521757
100.3483697
164.9539149
100.2822286
100.7812823
100.9271628
268.3622147
103.0713508
100.0612453
1326.691141
5271.627304
100.150728
3683.890268
162.3984598
101.3111275
100.1083322
100.2340755
100.2861343
100.0111284
100.1273304
4229.052394
101.7171059
101.5105454
100.2472126
100.2367123
108.3083113
100.1247742
180.0732068
288.9308966
)


// ************************************************************************* //
