/*--------------------------------*- C++ -*----------------------------------*\
  =========                 |
  \\      /  F ield         | OpenFOAM: The Open Source CFD Toolbox
   \\    /   O peration     | Website:  https://openfoam.org
    \\  /    A nd           | Version:  8
     \\/     M anipulation  |
\*---------------------------------------------------------------------------*/
FoamFile
{
    version     2.0;
    format      ascii;
    class       labelField;
    location    "1.3/lagrangian/reactingCloud1";
    object      origId;
}
// * * * * * * * * * * * * * * * * * * * * * * * * * * * * * * * * * * * * * //


148
(
409
411
413
414
417
421
567
570
428
430
432
433
435
573
437
438
440
441
442
443
445
446
447
448
449
450
451
453
454
455
598
457
458
460
461
462
618
463
464
620
465
466
467
468
623
624
469
470
471
472
473
474
475
335
329
476
477
478
479
480
631
481
482
483
484
486
902
904
487
488
489
642
490
907
491
647
492
905
493
494
495
496
497
498
499
501
503
355
354
504
505
506
507
650
508
509
353
510
511
512
514
515
516
517
518
519
520
521
522
523
524
525
526
527
528
671
529
530
531
532
533
534
535
536
537
538
539
540
662
664
541
651
542
543
916
899
544
545
546
688
911
547
548
549
550
551
552
553
)


// ************************************************************************* //
