/*--------------------------------*- C++ -*----------------------------------*\
  =========                 |
  \\      /  F ield         | OpenFOAM: The Open Source CFD Toolbox
   \\    /   O peration     | Website:  https://openfoam.org
    \\  /    A nd           | Version:  8
     \\/     M anipulation  |
\*---------------------------------------------------------------------------*/
FoamFile
{
    version     2.0;
    format      ascii;
    class       scalarField;
    location    "1.3/lagrangian/reactingCloud1";
    object      T;
}
// * * * * * * * * * * * * * * * * * * * * * * * * * * * * * * * * * * * * * //


148
(
299.9999941
299.9999941
299.9999941
299.9999936
299.9999941
299.9999941
299.9999994
299.9999993
299.9999942
299.9999943
299.9999944
299.9999937
299.9999996
299.9999989
299.9999946
299.9999939
299.9999939
299.9999996
299.9999946
299.9999946
299.9999946
299.9999936
299.9999946
299.9999996
299.9999936
299.9999996
299.9999924
299.9999924
299.9999941
299.9999995
300
299.9999986
299.9999942
299.9999925
299.9999811
299.9999974
300
299.9999942
299.9999938
300
299.9999894
299.9999828
299.9999983
299.9999969
300
300
299.9999942
299.9999882
299.9999995
299.9999974
299.9999923
299.9999992
299.9999986
299.9999925
299.9999936
299.999995
299.9999987
299.9999904
299.9999978
299.9999896
300
299.9999989
299.9999982
299.99999
299.9999988
299.9999984
299.9999966
299.9999964
299.9999916
299.9999937
299.9999924
300
299.9999985
299.9999965
299.9999923
300
299.999993
299.9999958
299.9999926
299.999995
299.999999
299.9999993
299.9999974
299.9999816
299.9999922
299.9999991
299.9999901
299.9999897
299.9999897
299.999999
299.9999999
299.9999931
299.9999999
300
299.9999861
299.9999822
299.9999897
299.9999924
299.9999853
299.9999921
299.9999905
299.9999885
299.9999869
299.9999967
299.9999971
299.9999903
299.9999945
299.9999889
299.9999944
299.9999878
299.9999916
299.9999852
299.9999847
299.9999987
299.9999945
300
299.9999844
299.9999844
299.9999894
299.9999844
299.999997
299.9999981
299.9999864
299.9999948
299.9999862
299.9999853
299.9999854
299.9999982
300
300
299.9999879
300
299.9999972
299.9999887
299.9999956
299.9999966
299.9999904
299.9999904
299.9999983
300
299.9999943
299.9999905
299.9999915
299.9999894
299.9999893
299.9999982
299.9999887
299.9999906
)


// ************************************************************************* //
