/*--------------------------------*- C++ -*----------------------------------*\
  =========                 |
  \\      /  F ield         | OpenFOAM: The Open Source CFD Toolbox
   \\    /   O peration     | Website:  https://openfoam.org
    \\  /    A nd           | Version:  8
     \\/     M anipulation  |
\*---------------------------------------------------------------------------*/
FoamFile
{
    version     2.0;
    format      ascii;
    class       vectorField;
    location    "1.3/lagrangian/reactingCloud1";
    object      U;
}
// * * * * * * * * * * * * * * * * * * * * * * * * * * * * * * * * * * * * * //


148
(
(0.1002872237 -0.01442645219 -1.956986032)
(0.1062889486 -0.04983037331 -1.835174408)
(0.01748714618 -0.1428592202 -2.218794389)
(0.04663362985 -0.0652275546 -2.175523426)
(-0.003931887036 -0.1529178334 -1.916892342)
(0.08823590626 -0.05698431241 -1.986098594)
(-0.3379322451 -0.0551044131 -2.018565979)
(-0.363064461 -0.07345831816 -2.113335497)
(0.001982414463 -0.2320604821 -2.047172775)
(0.007499856955 -0.1721785065 -1.833636459)
(0.0006629615695 -0.2048107054 -1.903348518)
(0.1159889735 -0.023132285 -1.973764189)
(-0.2447552161 0.1185434386 -1.709024902)
(-0.431282091 -0.1903860319 -2.215480661)
(0.08829143526 -0.1525599077 -1.788060982)
(0.1028380414 -0.03473106668 -1.805467849)
(0.09779026055 -0.0289642691 -1.676708431)
(-0.2183306632 0.1633780118 -1.690071186)
(0.001459375261 -0.1027897728 -1.754336919)
(-0.03309085315 -0.213182532 -1.61320471)
(-0.04839084582 -0.2400072084 -1.620796171)
(0.09632521996 0.05416248803 -1.578300634)
(-0.05444141557 -0.2427855631 -1.604826124)
(-0.1719692865 0.1293980405 -1.5830362)
(0.08288565227 0.0386579672 -1.475838711)
(-0.108179487 0.1388480602 -1.484918232)
(0.04198472127 -0.05441267836 -1.56400143)
(0.0542972686 -0.03972283689 -1.345190976)
(0.09521649848 -0.05354935766 -1.530522143)
(-0.1966333009 0.1230077242 -1.449293654)
(-0.4224334508 -0.8540624686 -3.082572667)
(-0.1866427101 0.1119642524 -1.363049751)
(0.09834662304 -0.09933738532 -1.413133133)
(0.03473709827 -0.05490448289 -1.323819844)
(0.140649222 -0.05386602253 -1.478353873)
(-0.2333546935 0.1182742033 -1.331328684)
(-0.9859749851 0.02187221356 -3.037299151)
(0.1074960803 -0.1209081197 -1.345687318)
(0.08623602698 0.02273376165 -1.329118047)
(-0.953257686 -0.7287489549 -2.718615153)
(-0.02408384668 0.1129878965 -1.400325261)
(0.02201183139 0.03745632433 -1.346025045)
(-0.2027053344 0.1344422173 -1.270158308)
(-0.3128780938 0.1188287627 -1.28402789)
(-1.174355556 0.003852425509 -2.634068975)
(-0.9932752797 -0.7526914115 -2.719190341)
(0.117100692 -0.1495088711 -1.279985465)
(0.0715865584 0.01579508438 -1.309066654)
(-0.2268983628 0.05773296308 -1.254045594)
(0.1570847651 0.07144124348 -1.150899023)
(0.1389075629 0.05529080967 -1.265961755)
(-0.2293442078 0.1378462009 -1.241231915)
(-0.2508959906 0.1629668654 -1.24565926)
(0.02508247377 -0.259749519 -1.946209513)
(0.02066326877 -0.2380497783 -2.049996227)
(0.06877890493 0.06850382069 -1.169850469)
(-0.2405208264 0.1639955636 -1.212785842)
(0.06828610656 0.0126635921 -1.243779504)
(-0.4219326506 0.1238707953 -1.194162956)
(-0.4664916146 0.143499555 -1.119847831)
(-1.109142393 -0.650528144 -2.582098541)
(-0.2493749879 0.1460513238 -1.128197545)
(-0.4617870078 0.1253778524 -1.134467708)
(0.01108733577 0.07866022928 -1.100341307)
(-0.2579959905 0.1484596392 -1.055493464)
(-0.472323084 0.1196951701 -1.054275677)
(-0.8914423278 -0.7245864545 -1.351489569)
(-1.054833533 -0.5014747578 -1.336589761)
(0.09896358701 0.06246886039 -1.003018278)
(0.09665701564 -0.2151085694 -0.992115238)
(0.1380544556 -0.2784873383 -0.9780647203)
(-0.8824244461 -0.3976764291 -2.635919647)
(-0.2693753638 0.1130015826 -0.9185996569)
(-0.6636486763 -0.3469291896 -1.273318866)
(0.1384591155 -0.2813709725 -0.9290219483)
(-1.048929945 -0.3612163845 -2.4537945)
(0.0719319577 -0.2620133804 -0.8643507187)
(-0.8890305006 -0.1805412104 -1.264625729)
(0.08471784474 -0.2563555979 -0.8015379692)
(-0.2234721528 0.05490449333 -0.8207201825)
(-0.1176080292 0.03418949038 -0.8176033454)
(-0.08491353529 0.01607647909 -0.8101668027)
(-0.08549667507 0.0253083525 -0.7705629879)
(0.1428230217 0.2553026196 -0.7018494165)
(0.1085120302 -0.2730154899 -0.7207308541)
(-0.2469514506 0.01301752703 -0.6889374352)
(0.1157920398 0.07404486899 -0.678603515)
(0.0134604711 -0.4009253819 -1.153650827)
(0.01372769364 -0.3888048564 -1.161656249)
(-0.2839943011 0.04952936084 -0.6293046978)
(0.001668536853 -0.1666502806 -3.236376935)
(0.06036987185 0.03672071886 -0.6240616152)
(0.009707095788 -0.01141978288 -3.415387067)
(-0.5554749194 -0.8403323082 -2.431514326)
(0.001211514903 -0.1203311726 -0.5921292704)
(-0.01172527748 0.144119183 -0.5690677535)
(0.00574557981 -0.3637244639 -1.228632207)
(0.3977904533 0.0006152922867 -0.5781005292)
(0.1707338455 0.1363862691 -0.5538458636)
(0.1467519768 -0.1159148694 -0.5570310682)
(0.1382634367 -0.2051408894 -0.5353130375)
(0.002255819296 -0.2527494948 -0.5168695739)
(0.04278030121 -0.1067874267 -0.4950636816)
(-0.3457276763 0.1062173686 -0.4910140474)
(-0.2025052306 0.1146510473 -0.4969954548)
(0.08653243006 -0.2425249717 -0.4893724975)
(-0.1731856589 -0.2610282551 -0.4858513858)
(0.1765579837 -0.04277836162 -0.4686363964)
(0.3354122931 0.1482950276 -0.4566039264)
(0.1344042063 -0.1176249932 -0.4442241599)
(0.1452462018 -0.2086423281 -0.4490540759)
(0.03710427372 0.06550747342 -0.4488917854)
(0.02545259804 0.1503815671 -0.4376246206)
(-0.3103999638 0.06791142172 -0.4305861867)
(0.3206249124 0.2127866498 -0.4218926443)
(-1.071126527 0.06631942885 -2.083020997)
(0.01952038123 0.2103414604 -0.4289895118)
(0.0155118092 0.2278526491 -0.4220710387)
(0.1745579649 -0.1064035713 -0.4168931265)
(0.01293883666 0.2408870284 -0.4154036508)
(0.0287453442 -0.110045798 -0.3943820781)
(0.157029226 -0.2082612954 -0.3978991783)
(0.1906351538 0.138343571 -0.3760033331)
(0.2958678054 0.2321429095 -0.3736101594)
(0.2011327325 0.2485446979 -0.3506774091)
(0.0003624154657 0.2622164418 -0.3550247408)
(-0.01164766706 0.2633979741 -0.3464278329)
(-0.7783135443 0.03164224919 -0.3149642799)
(-0.4427332821 -0.9155681964 -2.278539477)
(-0.4762988153 -0.4259535526 -2.428259303)
(0.2144281863 0.3162136039 -0.275301875)
(0.04419744686 -0.8562279906 -2.521376999)
(0.3299026367 -0.1542258426 -0.2498228648)
(0.2145737466 0.3347534892 -0.2387347387)
(-0.3125116175 -0.1002416879 -0.8906656524)
(-0.7443016429 -1.138521064 -1.352514751)
(0.1099780304 -0.003491928737 -0.2213506108)
(0.1533495059 -0.03202219881 -0.1171740361)
(-0.3209387697 0.02860196133 -0.1095725581)
(-1.134645137 -0.4220401573 -1.716553609)
(-0.3853453375 0.06349581551 -0.9866352645)
(0.1440136677 0.01216743671 -0.08936281956)
(0.1192462814 -0.09444659005 -0.06384017894)
(0.1951698835 -0.1706116426 -0.04281005211)
(0.2535182503 -0.0514847665 -0.0334838681)
(-0.3181677276 0.0167459584 -0.0182392298)
(0.2336870821 0.0226014049 -0.01462204555)
(0.1323155615 -0.03953143227 -0.01232261006)
)


// ************************************************************************* //
