/*--------------------------------*- C++ -*----------------------------------*\
  =========                 |
  \\      /  F ield         | OpenFOAM: The Open Source CFD Toolbox
   \\    /   O peration     | Website:  https://openfoam.org
    \\  /    A nd           | Version:  8
     \\/     M anipulation  |
\*---------------------------------------------------------------------------*/
FoamFile
{
    version     2.0;
    format      ascii;
    class       scalarField;
    location    "0.9/lagrangian/reactingCloud1";
    object      age;
}
// * * * * * * * * * * * * * * * * * * * * * * * * * * * * * * * * * * * * * //


175
(
0.2768029859
0.275434736
0.2738440933
0.2519227209
0.2383165112
0.2369973199
0.2246197737
0.2231863999
0.2223848291
0.222148951
0.2217004787
0.2216060261
0.2212754421
0.2210156975
0.217142567
0.2169294688
0.2164586399
0.2161112596
0.2156743125
0.2156050931
0.2142668288
0.2105030458
0.2082244879
0.2062822397
0.2037990701
0.2013840169
0.2068700569
0.1942193501
0.2180404415
0.1940513679
0.173266604
0.1731545755
0.1840497564
0.1557621592
0.1504968222
0.1420852862
0.1419999616
0.140535334
0.1396713296
0.1820548601
0.1391880143
0.1382966843
0.137963412
0.1372742305
0.1365312258
0.1480321964
0.1351010616
0.1334598754
0.1320077084
0.1310545242
0.1303796206
0.1560422303
0.1263471566
0.1420856758
0.1232783242
0.1232173461
0.1228179576
0.1216468452
0.1210636191
0.1196631787
0.1185169091
0.1183575811
0.1178670112
0.1341067535
0.1156579297
0.1142652854
0.1130598668
0.1125424159
0.1120885415
0.1109119055
0.110091646
0.1081818639
0.1073550642
0.1520372134
0.106596616
0.1064996069
0.1064996069
0.1580307353
0.105267599
0.1051530859
0.1047988827
0.1200742537
0.104169555
0.1037907475
0.1034391862
0.1025457884
0.1018816697
0.1011068645
0.1008854916
0.09966329881
0.09955068492
0.09884507943
0.09506197538
0.1141274632
0.09332403778
0.09332403778
0.08782985476
0.08759993367
0.07910464138
0.1320861587
0.112089032
0.07484222494
0.06964634158
0.06641234893
0.06514185182
0.1180876
0.06118853182
0.06062192233
0.1100923468
0.07216595771
0.1960355907
0.05021889338
0.04378968562
0.04320076461
0.04234643636
0.04184362329
0.04118836112
0.04108838937
0.0407996613
0.04070672357
0.04026202142
0.04026202142
0.03984240108
0.03928392933
0.03920613937
0.03905178449
0.03859563319
0.03837036742
0.03802892328
0.03802892328
0.03768042731
0.03564612016
0.03519954382
0.03515526766
0.03471610698
0.03432512012
0.03329633759
0.03274461492
0.0325330864
0.03160539508
0.03021910053
0.02988333274
0.02904426045
0.02862448416
0.028204154
0.02816205825
0.02790948373
0.02757233503
0.02719251006
0.02655834993
0.02634656086
0.02600749205
0.02566807943
0.02532838396
0.02371194298
0.04221619604
0.02251996021
0.02132579639
0.0206860225
0.222031012
0.0195344295
0.01748715304
0.01057759501
0.0100231243
0.008615621742
0.01637821163
0.006013874583
0.1680292741
0.0147574511
0.004091886459
0.003703943853
0.01381911606
0.001575824152
0.01130267209
0.000760742694
)


// ************************************************************************* //
