/*--------------------------------*- C++ -*----------------------------------*\
  =========                 |
  \\      /  F ield         | OpenFOAM: The Open Source CFD Toolbox
   \\    /   O peration     | Website:  https://openfoam.org
    \\  /    A nd           | Version:  8
     \\/     M anipulation  |
\*---------------------------------------------------------------------------*/
FoamFile
{
    version     2.0;
    format      ascii;
    class       scalarField;
    location    "0.9/lagrangian/reactingCloud1";
    object      d;
}
// * * * * * * * * * * * * * * * * * * * * * * * * * * * * * * * * * * * * * //


175
(
0.00059870943
0.0005242042618
0.0009014753975
0.001158983206
0.0009078294201
0.0007373265984
0.0007520018771
0.0006248934187
0.0005232357339
0.0006189195734
0.0005911114442
0.0005210367794
0.0005923430939
0.0005059930105
0.001190989006
0.0005247982488
0.0005148438807
0.0009987472802
0.0005181090645
0.0009208682284
0.0006119931943
0.001175833062
0.0006390650976
0.0005735753434
0.0006554420689
0.0007533332477
0.0005305295019
0.001188624556
0.0008593926016
0.0007532151152
0.000622127734
0.0005263981898
0.0007528048631
0.0005013681573
0.0008976240187
0.001039585879
0.0005394079337
0.0007528048631
0.0007188627275
0.0007677139732
0.0005779687569
0.0006876851942
0.0005008167691
0.0006138346203
0.000610056469
0.0007107868896
0.0006997284733
0.0006880455897
0.0006128468204
0.0007541588107
0.0006326076717
0.0006436159204
0.001049940853
0.0006438850473
0.000982396941
0.0006767958989
0.0007212526426
0.0005637724558
0.000571946352
0.0005527969513
0.0007016856016
0.0005733767496
0.0006948104407
0.0008982024474
0.0005739436017
0.0005505025934
0.0005611885153
0.0009225859207
0.0009457267311
0.0006867806527
0.0006095619536
0.0008576336533
0.0008648964426
0.0007468425502
0.0006427676579
0.0008587496361
0.001128812676
0.000622127734
0.001149005111
0.0008695499603
0.001093323996
0.0007555906739
0.0006144773608
0.000768546501
0.0005112041648
0.0007462818669
0.0005525220775
0.001116057799
0.0008569428601
0.0007548143858
0.000746372763
0.0006715598573
0.001089998394
0.0007798457812
0.0005152928487
0.0006932718168
0.0006438850473
0.0007076834411
0.0009235295513
0.0007862448327
0.0006816207331
0.0006526722666
0.0005725601378
0.0005765683444
0.0006326176124
0.0006544988701
0.0005096979194
0.0005943471814
0.0006119931943
0.0005013681573
0.0005528940031
0.0007110831754
0.001186826396
0.0006378328629
0.0007464011349
0.0006572455116
0.001096508479
0.0007471933006
0.0005020896695
0.0005668426117
0.0006085464193
0.0006464194476
0.0005871171932
0.0007783849126
0.0005102139482
0.0007616132827
0.0006262078095
0.000723783244
0.0006005436228
0.0005313458964
0.000584509997
0.0005321232545
0.001175754344
0.0009780334435
0.0006859152697
0.0006479067889
0.0009053201006
0.0007358225514
0.0005311737792
0.0005129477127
0.001179226945
0.0006002214242
0.0008230550389
0.0006533475907
0.0008946237925
0.0006644206041
0.0005241291418
0.0005950136855
0.0006608564037
0.0006406262183
0.0009252746334
0.0005983215956
0.0005830896061
0.0005866335842
0.0009976214452
0.0005611885153
0.0009715060132
0.0006106551005
0.0008926299027
0.000548452688
0.0005871580081
0.0006858418814
0.0006197620099
0.0006843667997
0.0005599638421
0.0005723076285
0.000574389795
0.0005148438807
0.0006264512031
0.000504801141
0.0009096577382
0.0005254453234
0.0007329407797
0.0006681723103
0.0005327327593
)


// ************************************************************************* //
