/*--------------------------------*- C++ -*----------------------------------*\
  =========                 |
  \\      /  F ield         | OpenFOAM: The Open Source CFD Toolbox
   \\    /   O peration     | Website:  https://openfoam.org
    \\  /    A nd           | Version:  8
     \\/     M anipulation  |
\*---------------------------------------------------------------------------*/
FoamFile
{
    version     2.0;
    format      ascii;
    class       scalarField;
    location    "0.9/lagrangian/reactingCloud1";
    object      mass0;
}
// * * * * * * * * * * * * * * * * * * * * * * * * * * * * * * * * * * * * * //


175
(
1.117523629e-07
7.50084276e-08
3.814784904e-07
8.106620589e-07
3.896019993e-07
2.087315611e-07
2.214446499e-07
1.270650964e-07
7.459343494e-08
1.234556787e-07
1.075515123e-07
7.365692096e-08
1.082252024e-07
6.745932199e-08
8.796940932e-07
7.52636974e-08
7.10616167e-08
5.187704707e-07
7.24222461e-08
4.066313758e-07
1.193570829e-07
8.465359791e-07
1.359075915e-07
9.826069683e-08
1.466261248e-07
2.226228937e-07
7.775655968e-08
8.744651641e-07
3.323329893e-07
2.237462176e-07
1.253854391e-07
7.595416252e-08
2.233808145e-07
6.562641215e-08
3.766099703e-07
5.850453516e-07
8.172603098e-08
2.221547818e-07
1.93440015e-07
2.369174002e-07
1.005359776e-07
1.693469738e-07
6.54101288e-08
1.204377282e-07
1.18227506e-07
1.880255416e-07
1.784009068e-07
1.696133626e-07
1.198572281e-07
2.233556002e-07
1.318292501e-07
1.395979231e-07
6.027024002e-07
1.397731142e-07
4.937071566e-07
1.614290064e-07
1.953757555e-07
9.330823614e-08
9.7425872e-08
8.796407421e-08
1.799020505e-07
9.815866729e-08
1.746656183e-07
3.794209652e-07
9.845008024e-08
8.687334146e-08
9.203112732e-08
4.089110876e-07
4.40458923e-07
1.68679605e-07
1.179402314e-07
3.284837283e-07
3.368997983e-07
2.181151248e-07
1.382835331e-07
3.297677008e-07
7.489866067e-07
1.260774189e-07
7.899039762e-07
3.423671103e-07
6.805421965e-07
2.258699153e-07
1.208164522e-07
2.3638443e-07
6.95651248e-08
2.16429814e-07
8.783292113e-08
7.238831689e-07
3.276906217e-07
2.239385823e-07
2.165089062e-07
1.577112242e-07
6.743509792e-07
2.483274926e-07
7.124768609e-08
1.735078207e-07
1.390059658e-07
1.845548744e-07
4.10167088e-07
2.544907696e-07
1.658162154e-07
1.447751077e-07
9.77398675e-08
9.980695436e-08
1.318354652e-07
1.467997533e-07
6.89520213e-08
1.093274055e-07
1.200157933e-07
6.598859257e-08
8.849612625e-08
1.872274959e-07
8.705024761e-07
1.351229427e-07
2.165335985e-07
1.478397797e-07
6.865061029e-07
2.172237605e-07
6.591014657e-08
9.484094899e-08
1.173517456e-07
1.406538619e-07
1.053859743e-07
2.455792383e-07
6.916165882e-08
2.300445499e-07
1.278685847e-07
1.974394778e-07
1.12782599e-07
7.811607479e-08
1.039882453e-07
7.845942758e-08
8.463659745e-07
4.871576607e-07
1.680427705e-07
1.416269855e-07
3.863802407e-07
2.074568128e-07
7.804018762e-08
7.027934616e-08
8.538873938e-07
1.126011688e-07
2.90332099e-07
1.45224972e-07
3.728462263e-07
1.527346925e-07
7.497618555e-08
1.096956192e-07
1.502898766e-07
1.369060197e-07
4.124966139e-07
1.115353296e-07
1.032319948e-07
1.051257692e-07
5.170181016e-07
9.25390307e-08
4.774686908e-07
1.185758878e-07
3.703588376e-07
8.638058288e-08
1.05407954e-07
1.679888373e-07
1.23960487e-07
1.669072562e-07
9.142992718e-08
9.761060901e-08
9.867986906e-08
7.145379308e-08
1.280177415e-07
6.698374163e-08
3.919606538e-07
7.554244052e-08
2.050288977e-07
1.553366162e-07
7.872934356e-08
)


// ************************************************************************* //
