/*--------------------------------*- C++ -*----------------------------------*\
  =========                 |
  \\      /  F ield         | OpenFOAM: The Open Source CFD Toolbox
   \\    /   O peration     | Website:  https://openfoam.org
    \\  /    A nd           | Version:  8
     \\/     M anipulation  |
\*---------------------------------------------------------------------------*/
FoamFile
{
    version     2.0;
    format      ascii;
    class       Cloud<basicReactingMultiphaseParcel>;
    location    "0.9/lagrangian/reactingCloud1";
    object      positions;
}
// * * * * * * * * * * * * * * * * * * * * * * * * * * * * * * * * * * * * * //

175
(
(0.4649312534 0.001533941594 0.2977321765 0.2358026285) 2466 7224 1
(0.1099242806 0.4979895252 0.3647298877 0.02735630644) 4148 12157 1
(0.3896142393 0.2814540409 0.1769254868 0.152006233) 505 1496 1
(0.4154838756 0.05722392867 0.5111503083 0.01614188743) 946 2773 2
(0.1277902209 0.3058499888 0.1408546917 0.4255050986) 2755 7997 2
(0.07464091264 0.4948733225 0.03181669471 0.3986690702) 4492 13169 1
(0.2235567125 0.5377551172 0.05915658789 0.1795315824) 5120 15000 2
(0.03575843296 0.6027097948 0.06618249053 0.2953492817) 5952 17437 1
(0.1476384544 0.3478342452 0.4007840326 0.1037432679) 5982 17526 1
(0.08105223864 0.4512116285 0.4359300405 0.03180609239) 8620 25246 2
(0.1657439852 0.1905892808 0.2439314424 0.3997352916) 8646 22719 2
(0.2359809899 0.5734021002 0.06035047233 0.1302664376) 6851 17526 1
(0.3170283538 0.07998328142 0.3427052123 0.2602831525) 8675 25324 2
(0.02398141553 0.7058066224 0.1820539779 0.08815798422) 9609 203931 2
(0.1499165253 0.4179082082 0.1158415284 0.316333738) 6869 20122 2
(0.36388507 0.04109516861 0.04100217202 0.5540175894) 15006 43945 2
(0.4020304256 0.4759482437 0.09534593368 0.02667539707) 7876 23072 2
(0.1651512005 0.4846789458 0.1771231009 0.1730467527) 6934 20315 1
(0.5233632944 0.09791987562 0.07028753121 0.3084292987) 8680 25429 1
(0.5467059125 0.371448569 0.05200873463 0.0298367839) 6820 19887 1
(0.1175816857 0.5154534353 0.1522122602 0.2147526188) 6792 19897 1
(0.3665431727 0.161600464 0.2867219637 0.1851343996) 7789 22730 2
(0.1996875854 0.1103251376 0.5256104029 0.1643768741) 7647 22400 1
(0.01272527023 0.5863830673 0.007953944981 0.3929377175) 8537 25005 1
(0.2812838879 0.02716343642 0.04198440544 0.6495682702) 9525 25260 2
(0.2038115444 0.1572300117 0.3735607373 0.2653977066) 8568 25093 2
(0.08260363608 0.07009666426 0.837324843 0.00997485661) 9785 28585 2
(0.3756172462 0.2683270151 0.3162500449 0.03980569378) 9672 28337 1
(0.1599346845 0.2447517291 0.06423414908 0.5310794373) 196 577 2
(0.380810512 0.2714824441 0.2380705389 0.109636505) 6352 18620 1
(0.1084634649 0.1183412227 0.4087760257 0.3644192867) 13253 38822 2
(0.3722216031 0.2624772508 0.06054348422 0.3047576619) 14171 38824 1
(0.1536621636 0.06101835714 0.3049106815 0.4804087977) 7891 23122 2
(0.1008984555 0.4541654632 0.2097950651 0.2351410162) 16038 44295 2
(0.1447323763 0.591722586 0.2283359532 0.03520908446) 16821 49161 2
(0.1192500855 0.3584789243 0.1959138675 0.3263571226) 16822 49257 2
(0.01077241618 0.1892136499 0.5671612496 0.2328526843) 16860 49369 1
(0.1667676941 0.08186236282 0.4835413335 0.2678286096) 16799 49189 2
(0.1082194223 0.2981682858 0.4055711734 0.1880411184) 17673 51746 1
(0.06156773222 0.3297032602 0.06634221682 0.5423867908) 6916 20174 1
(0.2912899367 0.25404413 0.2182721139 0.2363938194) 17673 51746 1
(0.2919561028 0.2266110528 0.2406800337 0.2407528107) 17673 51746 1
(0.2720940797 0.2095315736 0.1217491546 0.396625192) 17673 51746 1
(0.2311772657 0.1876843148 0.1799914997 0.4011469198) 17673 51746 1
(0.164305115 0.1594197419 0.1655285861 0.510746557) 17673 51746 1
(0.1255192601 0.4762920835 0.178948154 0.2192405024) 20871 62036 2
(0.02316568401 0.09098036716 0.7124958447 0.1733581041) 17674 51746 1
(0.1408882818 0.7775574751 0.04477561386 0.0367786293) 17705 51843 1
(0.2394438981 0.5064701173 0.02160947958 0.232476505) 18612 51843 2
(0.1133555581 0.3277736861 0.1835936984 0.3752770574) 18728 54836 1
(0.08322789022 0.2302606614 0.5706139019 0.1158975465) 18634 54470 1
(0.03076972839 0.6089519963 0.05449664173 0.3057816336) 11518 33744 2
(0.7015965813 0.1333437836 0.1505761852 0.01448344992) 18788 55016 2
(0.1786268389 0.3451086224 0.1127079701 0.3635565686) 17892 52307 2
(0.04008217966 0.03887302798 0.2501219327 0.6709228597) 19615 54758 2
(0.06367321085 0.05315272833 0.4688897312 0.4142843296) 19643 54841 1
(0.09222938566 0.2510730001 0.3615491562 0.2951484581) 19673 54930 1
(0.01086467055 0.4224099881 0.05271164794 0.5140136934) 19518 57319 2
(0.6284775916 0.02791065254 0.2060166279 0.1375951279) 18682 54701 2
(0.175935068 0.4480663719 0.2292989434 0.1466996167) 19625 54788 1
(0.02425232286 0.3601781608 0.6137146266 0.001854889712) 19616 57759 2
(0.02022542292 0.2632459112 0.02678596062 0.6897427053) 19497 57105 3
(0.3543585331 0.2711787523 0.08570723179 0.2887554828) 19558 57509 3
(0.3711595409 0.3432910978 0.2513731771 0.03417618413) 18796 54953 2
(0.2408640348 0.09968173558 0.4319750915 0.2274791381) 52970 162513 2
(0.4526183942 0.02375371573 0.2339965066 0.2896313835) 53046 60735 1
(0.08852286761 0.3680969113 0.2399167512 0.30346347) 53243 57817 1
(0.0439209092 0.5707160826 0.1256792689 0.2596837393) 53094 60769 1
(0.1222341727 0.0273891613 0.6509377126 0.1994389534) 19776 58456 2
(0.1019891529 0.1557060958 0.5207443809 0.2215603704) 19806 58549 2
(0.01755164203 0.3071042365 0.01049080339 0.6648533181) 19807 58552 2
(0.1932532667 0.2500575015 0.2687756652 0.2879135665) 53049 162451 1
(0.3445913399 0.04635495965 0.3435672074 0.2654864931) 52952 162461 2
(0.03004717792 0.8068637304 0.1116732697 0.05141582204) 14086 41166 1
(0.3276688631 0.1967991652 0.23933424 0.2361977316) 20546 60956 1
(0.03113066174 0.2847844826 0.6004176596 0.08366719604) 20546 60956 2
(0.1004940275 0.308992026 0.5902221652 0.0002917812855) 20574 61065 2
(0.4049375508 0.04660417395 0.2180208353 0.33043744) 16778 49034 2
(0.5082473769 0.05851039371 0.3321991832 0.1010430461) 53002 162594 1
(0.1097532783 0.5758983857 0.05473857032 0.2596097656) 52930 162408 2
(0.2894087844 0.03828858728 0.6587770605 0.01352556781) 20414 60429 1
(0.2549611827 0.4390432952 0.1709425969 0.1350529252) 25310 78251 1
(0.3117598162 0.01393220465 0.2574497173 0.4168582618) 20546 60957 2
(0.217693424 0.01215141482 0.2723981054 0.4977570558) 20415 60436 1
(0.257547914 0.03039138388 0.5278540563 0.1842066458) 20415 60436 2
(0.0395600361 0.813448394 0.00166871564 0.1453228542) 21357 60564 1
(0.004463172038 0.6749042311 0.09133790191 0.229294695) 20446 60561 1
(0.2121454649 0.2370412341 0.5027756712 0.04803762972) 21376 63817 2
(0.4094428518 0.2733578884 0.2220584798 0.09514078004) 21357 60564 2
(0.2104529459 0.5905963827 0.06923261524 0.1297180562) 21357 63746 1
(0.3847756805 0.01233555377 0.416927928 0.1859608377) 54455 166235 1
(0.2572935018 0.5237894832 0.03303480652 0.1858822086) 21388 63746 1
(0.3247152441 0.4786148884 0.1892271957 0.007442671857) 54260 165744 2
(0.1860745846 0.1319246617 0.600580317 0.08142043672) 26174 81201 1
(0.4964336779 0.3426566643 0.1462236969 0.01468596095) 54314 165882 1
(0.4753489922 0.04918809685 0.4334017999 0.04206111106) 55460 165535 1
(0.2119721386 0.6657117611 0.1134704308 0.008845669404) 55218 168121 2
(0.01008147616 0.1237453335 0.2667683319 0.5994048584) 55646 169208 2
(0.1667210242 0.1743345345 0.5314144186 0.1275300228) 23138 70146 2
(0.1965527959 0.6790008967 0.08841045481 0.03603585256) 23209 70474 1
(0.1227094697 0.3680148911 0.1681052012 0.341170438) 25251 78025 3
(0.1477962432 0.0951333195 0.568274439 0.1887959983) 23067 69800 1
(0.07300112835 0.5473403723 0.2504011619 0.1292573375) 56315 170872 1
(0.0111887835 0.2104355992 0.5037320952 0.274643522) 56288 73066 1
(0.2741266412 0.08906162063 0.6154779259 0.02133381224) 23973 73070 1
(0.2152069446 0.03343502376 0.7200554736 0.03130255803) 26703 79965 1
(0.6529058631 0.1473600398 0.1955365209 0.004197576212) 23977 73090 2
(0.2336685121 0.1576516637 0.02163500714 0.587044817) 23974 207278 2
(0.07563735116 0.1406506126 0.7246202591 0.05909177711) 26679 82715 1
(0.02954747483 0.2800746546 0.3252132915 0.3651645791) 66861 196704 1
(0.09026155651 0.02418869035 0.3143041373 0.5712456158) 9209 26994 1
(0.4513677969 0.2067235459 0.1272847142 0.2146239431) 58153 175344 2
(0.191178408 0.005686598145 0.7371682296 0.06596676432) 58870 177059 2
(0.302144252 0.1818913983 0.3973879065 0.1185764432) 58862 76412 1
(0.1079659115 0.107289818 0.557285885 0.2274583854) 58862 177054 2
(0.4977111357 0.1173387153 0.3020868106 0.08286333848) 58864 177056 1
(0.2841494679 0.4223810836 0.1340312114 0.1594382371) 51520 158752 2
(0.3750727194 0.1835938252 0.1401394242 0.3011940312) 58864 177060 1
(0.5393117483 0.07453023628 0.03656356118 0.3495944543) 51557 76459 1
(0.2019083566 0.3183464126 0.4549702265 0.02477500427) 58904 177060 1
(0.6372723948 0.1041272402 0.04244462979 0.2161557352) 58904 177060 2
(0.176364187 0.02060642056 0.5939633904 0.209066002) 51614 158995 1
(0.7766923002 0.09428258596 0.1254423904 0.003582723457) 58904 177160 2
(0.2392624477 0.2205146302 0.0867544921 0.4534684299) 24954 76709 1
(0.6745391247 0.03889421687 0.1902910681 0.0962755903) 24989 76876 2
(0.7348642175 0.133043636 0.001017907398 0.1310742391) 58904 177159 2
(0.5329642198 0.2816101284 0.01827733736 0.1671483144) 51619 76575 2
(0.6189164377 0.1553641493 0.184016433 0.04170298003) 58904 177160 1
(0.5111100645 0.1616581258 0.1598905158 0.1673412939) 58904 177160 1
(0.5589718738 0.08231243332 0.1215157417 0.2371999511) 51493 76399 2
(0.4502918162 0.1579869692 0.1092971815 0.2824240331) 58904 177160 1
(0.7016356894 0.1771226356 0.1044673234 0.01677435164) 51570 158880 2
(0.3424554795 0.02927778481 0.02508442263 0.6031823131) 58904 177160 1
(0.08806372681 0.09904278341 0.7600732318 0.05282025798) 59114 77153 1
(0.01961568012 0.7321264389 0.01855965699 0.229698224) 58864 177056 1
(0.0112995126 0.5949440549 0.3314649434 0.06229148903) 58867 177057 2
(0.03145466122 0.518905505 0.3168211117 0.1328187221) 58867 177057 2
(0.1595138037 0.3570355279 0.3429834152 0.1404672531) 58867 177057 2
(0.2648819926 0.267251372 0.3402931352 0.1275735002) 58867 177057 2
(0.3523445369 0.01771801963 0.3313994309 0.2985380125) 58908 177166 2
(0.2624679497 0.3689754813 0.1349897967 0.2335667723) 58867 177057 2
(0.5213077219 0.1139790306 0.2012155517 0.1634976958) 58867 177057 2
(0.518545495 0.09341059397 0.1535887905 0.2344551206) 58867 177057 2
(0.626950825 0.001389553816 0.1428342315 0.2288253897) 58867 177057 2
(0.06257169981 0.6011581245 0.2075704551 0.1286997205) 51581 158898 1
(0.6111910586 0.2837804245 0.0734717884 0.0315567286) 58867 177062 2
(0.6140034466 0.3103607925 0.06998788917 0.005647871713) 58867 177062 1
(0.5938101377 0.3166814988 0.05048075637 0.03902760714) 58867 177062 1
(0.1969443309 0.5145686196 0.1257392238 0.1627478257) 51580 76478 2
(0.6792138258 0.05771949426 0.1528320438 0.1102346362) 51939 159809 2
(0.5800121533 0.03897365307 0.3421650922 0.0388491014) 58867 158800 1
(0.4837099749 0.06383338708 0.2997475321 0.152709106) 58867 158800 1
(0.4346332446 0.08534310681 0.3064575305 0.1735661181) 58867 158800 1
(0.3962367317 0.1066101832 0.3131275839 0.1840255011) 58867 158800 1
(0.3187655518 0.2116546208 0.3922118787 0.0773679487) 58867 158800 1
(0.04031814579 0.326221234 0.4426788204 0.1907817998) 38196 118293 2
(0.1936238199 0.188571269 0.3010794256 0.3167254855) 51581 158909 2
(0.6129371324 0.2537372588 0.07761189862 0.05571371023) 51932 159791 2
(0.4165520683 0.1535255683 0.3185258613 0.1113965021) 58867 177062 1
(0.462167981 0.4056040838 0.100125478 0.03210245724) 4048 9375 2
(0.3133794371 0.07702709385 0.1335035222 0.4760899469) 58867 177062 1
(0.01994719862 0.1410619801 0.8290350374 0.00995578389) 58865 177062 1
(0.2285904931 0.5433124443 0.08856162604 0.1395354365) 51583 158911 2
(0.289251762 0.2888900239 0.3167851222 0.105073092) 51583 158913 1
(0.2073269706 0.2968968698 0.4034681015 0.09230805804) 51583 158913 1
(0.2125662445 0.03065454903 0.7508726176 0.005906588877) 51537 158466 2
(0.2618724851 0.4437990611 0.2867565151 0.007571938699) 51912 159755 1
(0.0903051751 0.2396388549 0.04254287912 0.6275130908) 13625 39843 1
(0.2595634537 0.1736589218 0.3666369178 0.2001407067) 51537 158466 2
(0.2677138761 0.008681346625 0.5566386171 0.1669661602) 51582 203061 1
(0.3920798229 0.1996294223 0.01444220119 0.3938485536) 51587 203200 2
(0.2479327013 0.2844013971 0.1208831416 0.3467827599) 51537 158466 2
(0.300430859 0.4966725387 0.1394055168 0.06349108544) 51587 203200 2
(0.2216134136 0.1768627949 0.5587038493 0.0428199422) 51537 208364 1
(0.2161520469 0.4549681611 0.03301439316 0.2958653988) 51587 203200 1
)


// ************************************************************************* //
