/*--------------------------------*- C++ -*----------------------------------*\
  =========                 |
  \\      /  F ield         | OpenFOAM: The Open Source CFD Toolbox
   \\    /   O peration     | Website:  https://openfoam.org
    \\  /    A nd           | Version:  8
     \\/     M anipulation  |
\*---------------------------------------------------------------------------*/
FoamFile
{
    version     2.0;
    format      ascii;
    class       scalarField;
    location    "0.9/lagrangian/reactingCloud1";
    object      rho;
}
// * * * * * * * * * * * * * * * * * * * * * * * * * * * * * * * * * * * * * //


175
(
994.5114708
994.5114711
994.5114714
994.51147
994.5114691
994.5114691
994.5114687
994.5114687
994.5114687
994.51147
994.51147
994.5114687
994.51147
994.51147
994.5114699
994.5114687
994.5114688
994.5114693
994.5114697
994.5114687
994.5114687
994.5114696
994.5114689
994.511469
994.5114697
994.5114694
994.5114709
994.5114702
1000
1000
994.5114687
994.5114686
1000
994.5114693
994.5114694
994.5114694
994.5114695
994.5114685
994.5114685
1000
994.5114685
994.5114685
994.5114685
994.5114685
994.5114685
1000
994.5114685
994.5114685
994.5114686
994.5114695
994.51147
1000
994.5114695
1000
994.511469
994.5114698
994.5114693
994.5114698
994.5114699
994.5114699
994.5114693
994.5114692
994.5114689
1000
994.511469
994.5114697
994.5114686
994.5114698
994.5114702
994.5114703
994.5114704
994.5114696
994.5114695
1000
994.5114686
994.5114688
994.511469
1000
994.5114692
994.5114696
994.5114695
1000
994.5114687
994.5114695
994.5114695
994.5114694
994.5114694
994.5114695
994.5114694
994.5114694
994.5114695
994.5114694
994.5114695
1000
994.5114695
994.51147
994.5114732
994.51147
994.5114718
1000
1000
994.5114721
994.5114725
994.5114725
994.5114725
1000
994.5114722
994.5114723
1000
1000
1000
994.5114718
994.5114735
994.5114733
994.5114731
994.5114729
994.5114727
994.5114727
994.5114725
994.5114726
994.5114725
994.5114724
994.5114725
994.5114724
994.5114722
994.5114723
994.5114726
994.5114723
994.5114722
994.5114731
994.5114722
994.5114722
994.5114722
994.5114721
994.5114722
994.5114722
994.5114722
994.5114723
994.5114723
994.5114724
994.5114723
994.5114723
994.5114723
994.5114723
994.5114723
994.5114723
994.5114723
994.5114724
994.5114724
994.5114693
994.5114724
994.5114724
994.5114724
994.5114724
994.5114724
1000
994.5114724
994.5114693
994.5114686
1000
994.5114686
994.5114686
994.5114721
994.5114723
994.5114723
994.5114686
994.5114697
1000
994.5114687
994.5114716
994.5114697
994.5114687
994.5114714
994.5114687
994.5114715
)


// ************************************************************************* //
