/*--------------------------------*- C++ -*----------------------------------*\
  =========                 |
  \\      /  F ield         | OpenFOAM: The Open Source CFD Toolbox
   \\    /   O peration     | Website:  https://openfoam.org
    \\  /    A nd           | Version:  8
     \\/     M anipulation  |
\*---------------------------------------------------------------------------*/
FoamFile
{
    version     2.0;
    format      ascii;
    class       volScalarField;
    location    "1.6/wallFilmRegion";
    object      mu;
}
// * * * * * * * * * * * * * * * * * * * * * * * * * * * * * * * * * * * * * //

dimensions      [1 -1 -1 0 0 0 0];

internalField   nonuniform List<scalar> 
1342
(
0.0008861475092
0.0008861475222
0.0008861475055
0.000886147479
0.0008861474673
0.0008861475169
0.0008861474651
0.0008861474617
0.0008861474579
0.0008861475799
0.0008861475539
0.0008861475065
0.000886147442
0.0008861473423
0.0008861471468
0.0008861469154
0.0008861471195
0.0008861472607
0.0008861473068
0.00088614734
0.0008861473635
0.0008861473773
0.0008861473841
0.0008861473876
0.0008861473909
0.000886147378
0.0008861474874
0.0008861474762
0.0008861475045
0.0008861475147
0.0008861474952
0.0008861474596
0.0008861474233
0.0008861474082
0.000886147639
0.0008861476278
0.0008861475581
0.0008861474981
0.0008861474609
0.0008861474169
0.0008861473451
0.0008861472066
0.0008861470224
0.0008861470047
0.0008861471498
0.0008861472618
0.0008861473294
0.0008861473596
0.0008861473741
0.0008861473808
0.0008861473842
0.0008861473867
0.000886147376
0.0008861474762
0.0008861474621
0.0008861474572
0.0008861474843
0.000886147491
0.0008861474824
0.0008861474627
0.0008861474561
0.0008861474316
0.0008861474347
0.0008861459943
0.0008861474388
0.0008861474406
0.0008861474236
0.0008861473952
0.0008861473439
0.000886147236
0.0008861470966
0.0008861469914
0.0008861470617
0.0008861472199
0.0008861473201
0.0008861473593
0.0008861473742
0.0008861473804
0.0008861473832
0.0008861473844
0.0008861473742
0.0008861474438
0.0008861474467
0.000886147453
0.0008861474589
0.0008861475216
0.0008861475091
0.0008861474833
0.0008861474595
0.0008861474107
0.0008861457351
0.0008861282928
0.0008861473662
0.0008861474012
0.0008861473975
0.0008861473805
0.0008861473458
0.0008861472657
0.0008861471653
0.0008861470635
0.0008861470637
0.000886147212
0.0008861473263
0.0008861473633
0.0008861473767
0.0008861473818
0.0008861473835
0.0008861473825
0.0008861473715
0.0008861474323
0.0008861474289
0.0008861474355
0.0008861474393
0.0008861474984
0.0008861474655
0.0008861474543
0.0008861474057
0.0008861469045
0.0008861379673
0.0008861007899
0.0008861473378
0.0008861473794
0.0008861473824
0.000886147374
0.0008861473517
0.0008861472964
0.0008861472292
0.000886147148
0.0008861470869
0.0008861471989
0.0008861473475
0.0008861473733
0.0008861473814
0.0008861473839
0.0008861473833
0.0008861473798
0.0008861473756
0.0008861474397
0.0008861474159
0.0008861474104
0.000886147408
0.0008861474122
0.0008861474544
0.0008861472797
0.0008861465914
0.0008861461893
0.0008861473258
0.0008861207196
0.0008860954142
0.0008861473334
0.0008861473693
0.0008861473733
0.0008861475247
0.0008861475551
0.0008861475203
0.0008861471292
0.0008861470499
0.0008861472089
0.0008861473191
0.0008861473711
0.0008861473822
0.0008861473854
0.0008861473853
0.0008861473824
0.0008861473774
0.000886147377
0.0008861474038
0.0008861474175
0.0008861474157
0.0008861473906
0.0008861473046
0.0008861467228
0.0008861459968
0.0008861454989
0.0008861455242
0.0008861474769
0.0008861069697
0.000886093316
0.0008861473091
0.0008861473451
0.0008861473596
0.0008861475138
0.0008861475485
0.0008861474911
0.0008861469547
0.0008861470365
0.0008861472508
0.0008861473338
0.0008861473757
0.0008861473851
0.000886147387
0.0008861473862
0.0008861473824
0.0008861473773
0.000886147377
0.0008861474148
0.0008861474309
0.0008861474216
0.0008861473866
0.0008861472728
0.0008861466503
0.0008861458486
0.0008861448374
0.0008861444665
0.0008861475369
0.0008861455906
0.0008861468937
0.0008861471852
0.0008861472128
0.000886147343
0.0008861474906
0.0008861475066
0.0008861474145
0.0008861471298
0.0008861470222
0.0008861472404
0.0008861473282
0.0008861473721
0.0008861473843
0.0008861473868
0.000886147386
0.0008861473812
0.0008861473752
0.000886147376
0.0008861474249
0.0008861474382
0.0008861474196
0.0008861474082
0.0008861472717
0.0008861468248
0.0008861461415
0.0008861444484
0.0008861433833
0.0008861475653
0.0008861438201
0.0008861460636
0.0008861467001
0.0008861453467
0.0008861473083
0.0008861475832
0.0008861475863
0.0008861475508
0.0008861475252
0.0008861474602
0.0008861473523
0.0008861473367
0.0008861473661
0.000886147381
0.0008861473848
0.0008861473843
0.0008861473786
0.0008861473625
0.0008861473745
0.0008861474944
0.0008861474374
0.0008861474013
0.0008861475169
0.0008861473198
0.0008861474986
0.0008861468056
0.0008861443092
0.0008861417613
0.0008861385604
0.0008861398181
0.0008861435388
0.0008861449702
0.0008861359138
0.0008861472235
0.0008861475698
0.0008861475883
0.0008861475637
0.0008861475306
0.0008861474649
0.0008861473659
0.0008861473332
0.0008861473578
0.0008861473758
0.0008861473813
0.0008861473812
0.000886147375
0.0008861473538
0.0008861473732
0.0008861474907
0.0008861473368
0.0008861473482
0.0008861474042
0.0008861474849
0.0008861476512
0.0008861475759
0.0008861447247
0.0008861389157
0.0008861280622
0.000886130681
0.0008861371441
0.000886140025
0.0008861185141
0.0008861470138
0.000886147524
0.0008861475666
0.0008861475478
0.000886147508
0.0008861474378
0.0008861473454
0.0008861473173
0.0008861473468
0.0008861473696
0.0008861473768
0.0008861473772
0.0008861473707
0.0008861473533
0.0008861473724
0.000886147467
0.0008861473415
0.0008861473666
0.0008861474174
0.0008861473616
0.000886147404
0.0008861473379
0.0008861467191
0.0008861446021
0.0008861376863
0.0008861215884
0.0008861207639
0.0008861265562
0.0008861078734
0.0008861462226
0.0008861474196
0.0008861475145
0.0008861475063
0.0008861474588
0.0008861473841
0.0008861473014
0.0008861472912
0.0008861473333
0.0008861473623
0.0008861473714
0.0008861473711
0.0008861473642
0.0008861473534
0.0008861473709
0.0008861473828
0.0008861472236
0.0008861473717
0.0008861474138
0.0008861472844
0.0008861473855
0.0008861473669
0.000886147108
0.0008861465024
0.0008861458878
0.0008861463128
0.0008861472063
0.000886147362
0.0008861473642
0.0008861473205
0.0008861473261
0.0008861474136
0.0008861474219
0.0008861472971
0.0008861472153
0.0008861471872
0.0008861472371
0.0008861473085
0.0008861473506
0.0008861473618
0.0008861473578
0.0008861473532
0.000886147351
0.0008861473643
0.0008861473791
0.0008861473428
0.0008861473055
0.0008861472286
0.000886147214
0.0008861470712
0.0008861475842
0.0008861473434
0.000886147246
0.0008861463862
0.0008861457541
0.0008861443037
0.00088614166
0.0008861368213
0.0008861471444
0.0008861472349
0.0008861472972
0.0008861472878
0.0008861470212
0.0008861471052
0.000886147181
0.0008861472304
0.0008861472828
0.00088614733
0.0008861473476
0.0008861473471
0.0008861473494
0.0008861473548
0.0008861473655
0.0008861473593
0.0008861473027
0.000886147229
0.0008861474084
0.0008861473405
0.0008861471844
0.0008861476765
0.0008861475096
0.0008861472911
0.0008861469616
0.000886146555
0.000886145834
0.0008861445147
0.0008861423579
0.0008861467801
0.0008861470629
0.0008861471227
0.0008861470822
0.0008861466709
0.0008861466557
0.000886147196
0.0008861472572
0.0008861472899
0.0008861473187
0.0008861473314
0.0008861473323
0.0008861473434
0.0008861473617
0.0008861473681
0.0008861474528
0.0008861472892
0.0008861473969
0.0008861476105
0.0008861476639
0.0008861476443
0.0008861477452
0.0008861477365
0.0008861477227
0.0008861477091
0.0008861476744
0.0008861475941
0.0008861473688
0.0008861467124
0.0008861464915
0.0008861467873
0.00088614686
0.0008861467851
0.0008861464455
0.000886146154
0.000886146553
0.0008861472512
0.0008861472918
0.0008861473113
0.0008861473185
0.0008861473194
0.0008861473486
0.0008861473695
0.00088614737
0.0008861476626
0.000886147133
0.0008861472121
0.0008861475489
0.0008861476477
0.0008861476475
0.0008861477452
0.0008861477412
0.0008861477322
0.0008861477186
0.0008861476931
0.0008861476469
0.0008861475511
0.0008861473247
0.0008861468336
0.0008861466213
0.0008861465555
0.0008861464518
0.0008861460851
0.0008861467207
0.0008861470608
0.0008861472578
0.0008861472967
0.0008861473101
0.0008861473152
0.0008861473202
0.0008861473625
0.0008861473741
0.0008861473716
0.0008861469382
0.0008861470005
0.0008861470384
0.0008861474619
0.000886147625
0.0008861476103
0.0008861477404
0.0008861477383
0.0008861477294
0.0008861477134
0.0008861476862
0.0008861476398
0.0008861475524
0.0008861473684
0.0008861469426
0.0008861466287
0.0008861467709
0.0008861460935
0.0008861466331
0.00088614709
0.0008861472403
0.0008861473007
0.0008861473185
0.0008861473245
0.0008861473297
0.0008861473484
0.0008861473753
0.0008861473768
0.0008861473736
0.0008861466773
0.0008861468568
0.0008861468751
0.0008861473443
0.0008861475746
0.0008861475517
0.0008861477262
0.0008861477246
0.0008861477082
0.000886147679
0.0008861476351
0.0008861475664
0.0008861474512
0.0008861472538
0.000886146901
0.0008861466355
0.0008861469676
0.0008861469449
0.0008861470482
0.0008861472286
0.0008861473086
0.0008861473475
0.0008861473589
0.0008861473635
0.0008861473725
0.0008861473782
0.0008861473769
0.000886147377
0.0008861473757
0.0008861448972
0.0008861467886
0.0008861465988
0.0008861468552
0.0008861473374
0.0008861473947
0.000886147627
0.0008861475345
0.0008861474455
0.0008861474179
0.000886147406
0.0008861473951
0.000886147375
0.0008861473311
0.0008861472325
0.0008861469838
0.0008861470675
0.0008861472829
0.0008861472384
0.0008861473036
0.0008861473735
0.0008861473835
0.0008861473831
0.0008861473822
0.0008861473797
0.0008861473777
0.0008861473759
0.000886147375
0.000886147376
0.0008861473825
0.0008861472075
0.0008861473108
0.000886147506
0.0008861475126
0.0008861475082
0.0008861475046
0.0008861474794
0.0008861474533
0.0008861474252
0.0008861474028
0.0008861473905
0.0008861473752
0.0008861473487
0.000886147301
0.0008861471882
0.0008861471423
0.0008861473173
0.0008861473366
0.0008861473774
0.0008861473818
0.000886147379
0.0008861473799
0.0008861473797
0.0008861473792
0.0008861473785
0.0008861473773
0.0008861473766
0.0008861473765
0.0008861473947
0.0008861474196
0.000886147436
0.0008861474537
0.0008861474694
0.0008861474828
0.0008861474859
0.0008861474749
0.0008861474585
0.000886147411
0.0008861473563
0.0008861473649
0.0008861473618
0.0008861473475
0.0008861473219
0.0008861472713
0.0008861472202
0.0008861473631
0.0008861473813
0.0008861473806
0.0008861473795
0.0008861473803
0.0008861473802
0.0008861473796
0.0008861473792
0.0008861473782
0.0008861473768
0.0008861473761
0.000886147377
0.000886147391
0.0008861474224
0.0008861474319
0.0008861474343
0.0008861474557
0.0008861474744
0.0008861474741
0.0008861474615
0.000886147437
0.0008861473736
0.0008861473187
0.0008861473372
0.0008861473444
0.0008861473397
0.0008861473265
0.0008861473067
0.0008861473695
0.0008861473826
0.0008861473807
0.0008861473797
0.000886147381
0.0008861473819
0.0008861473822
0.0008861473819
0.000886147381
0.0008861473793
0.0008861473751
0.0008861473744
0.0008861473777
0.0008861473953
0.0008861474242
0.0008861474268
0.0008861474309
0.0008861474314
0.0008861474639
0.000886147456
0.0008861474382
0.000886147406
0.0008861473345
0.0008861472777
0.0008861473005
0.0008861473207
0.0008861473271
0.0008861473273
0.0008861473694
0.0008861473854
0.0008861473847
0.0008861473789
0.0008861473797
0.0008861473817
0.0008861473833
0.000886147384
0.000886147384
0.0008861473833
0.0008861473818
0.0008861473786
0.0008861473798
0.0008861473784
0.0008861473998
0.0008861474136
0.0008861474189
0.000886147423
0.0008861474236
0.000886147426
0.0008861474244
0.0008861474068
0.0008861473689
0.0008861472945
0.0008861472388
0.0008861472626
0.0008861472974
0.0008861473198
0.0008861473418
0.0008861473839
0.0008861473862
0.0008861473831
0.0008861473788
0.0008861473802
0.0008861473821
0.0008861473845
0.0008861473854
0.0008861473857
0.0008861473856
0.000886147385
0.000886147384
0.0008861473826
0.0008861473786
0.0008861474064
0.0008861474086
0.0008861474126
0.000886147417
0.0008861474243
0.0008861474229
0.0008861474144
0.0008861473887
0.0008861473412
0.0008861472677
0.0008861472175
0.0008861472438
0.0008861472961
0.0008861473362
0.0008861473672
0.0008861473862
0.0008861473854
0.0008861473816
0.0008861473798
0.0008861473813
0.0008861473829
0.0008861473852
0.0008861473863
0.0008861473869
0.0008861473871
0.0008861473867
0.0008861473856
0.0008861473831
0.0008861473788
0.0008861474066
0.0008861474066
0.0008861474081
0.0008861474105
0.0008861474243
0.0008861474223
0.0008861474121
0.0008861473826
0.0008861473334
0.0008861472685
0.0008861472291
0.0008861472612
0.0008861473238
0.0008861473635
0.0008861473838
0.0008861473908
0.0008861473857
0.0008861473806
0.0008861473801
0.0008861473818
0.0008861473834
0.0008861473851
0.0008861473865
0.0008861473875
0.000886147388
0.0008861473878
0.000886147387
0.0008861473854
0.0008861473829
0.0008861474089
0.000886147408
0.0008861474071
0.0008861474063
0.0008861474181
0.0008861474195
0.0008861474119
0.0008861473875
0.000886147346
0.0008861472971
0.0008861472732
0.0008861473066
0.0008861473559
0.000886147381
0.0008861473924
0.000886147399
0.0008861473868
0.0008861473789
0.0008861473782
0.0008861473793
0.0008861473811
0.0008861473836
0.0008861473858
0.0008861473875
0.0008861473888
0.0008861473896
0.00088614739
0.0008861473902
0.0008861473905
0.0008861474093
0.0008861474082
0.0008861474066
0.0008861474046
0.0008861474099
0.0008861474136
0.0008861474096
0.0008861473924
0.0008861473637
0.0008861473337
0.0008861473231
0.0008861473446
0.0008861473718
0.0008861473866
0.0008861473947
0.0008861474024
0.0008861473894
0.0008861473781
0.0008861473756
0.0008861473668
0.0008861473785
0.0008861473823
0.0008861473834
0.0008861473834
0.0008861473872
0.0008861473891
0.0008861473894
0.0008861473895
0.0008861473901
0.0008861474094
0.0008861474086
0.0008861474068
0.0008861474104
0.0008861474252
0.0008861474365
0.000886147427
0.0008861474142
0.0008861474071
0.0008861474028
0.0008861473998
0.0008861473976
0.0008861473961
0.0008861473956
0.0008861473964
0.0008861474007
0.000886147401
0.0008861473934
0.0008861473921
0.0008861473911
0.0008861473902
0.0008861473895
0.0008861473889
0.0008861473883
0.0008861473879
0.0008861473877
0.0008861473876
0.0008861473878
0.000886147389
0.000886147467
0.0008861474463
0.0008861474458
0.0008861476017
0.0008861474885
0.0008861477653
0.0008861478283
0.0008861479016
0.000886147428
0.0008861474355
0.0008861474568
0.0008861475279
0.0008861474317
0.0008861474663
0.0008861475743
0.0008861479597
0.0008861474497
0.0008861478892
0.0008861498144
0.0008861554169
0.0008861484201
0.0008861612708
0.0008861612016
0.0008861599231
0.0008861474718
0.0008861474421
0.0008861474345
0.0008861474556
0.000886147434
0.0008861474341
0.000886147442
0.0008861474348
0.0008861474355
0.0008861474433
0.0008861474367
0.0008861474382
0.0008861474464
0.0008861474398
0.0008861474423
0.0008861474388
0.0008861474468
0.0008861474365
0.0008861474304
0.0008861474319
0.0008861474282
0.0008861474237
0.0008861474249
0.0008861474215
0.0008861474178
0.0008861474182
0.0008861474156
0.0008861474183
0.0008861474147
0.0008861474149
0.0008861474315
0.0008861474308
0.0008861474298
0.000886147415
0.000886147415
0.0008861474151
0.0008861474288
0.0008861474274
0.0008861474203
0.0008861474155
0.0008861474266
0.0008861474263
0.0008861474266
0.0008861474264
0.0008861474157
0.0008861474164
0.0008861474171
0.0008861474274
0.0008861474272
0.0008861474293
0.0008861474291
0.0008861474175
0.0008861474193
0.0008861474203
0.0008861474364
0.0008861474493
0.0008861474273
0.0008861474255
0.0008861474602
0.0008861474541
0.0008861474543
0.0008861475065
0.0008861474571
0.0008861474588
0.0008861475412
0.0008861474602
0.0008861475019
0.0008861474523
0.0008861474575
0.000886147452
0.0008861474585
0.0008861474553
0.0008861474586
0.000886147453
0.0008861474662
0.0008861474551
0.0008861474585
0.0008861474532
0.0008861474573
0.0008861474597
0.0008861474771
0.0008861474663
0.0008861474542
0.0008861474556
0.0008861474519
0.0008861474734
0.0008861474903
0.0008861474786
0.0008861474532
0.0008861474643
0.0008861474545
0.0008861474776
0.0008861474774
0.0008861474726
0.0008861474557
0.0008861474522
0.0008861474601
0.0008861474832
0.0008861475045
0.0008861474759
0.000886147472
0.0008861474776
0.0008861475238
0.0008861474943
0.0008861474967
0.000886147429
0.0008861474295
0.0008861474289
0.0008861474286
0.0008861474285
0.0008861474293
0.000886147432
0.0008861474312
0.0008861474349
0.000886147441
0.0008861474312
0.000886147429
0.0008861474291
0.0008861474329
0.0008861474298
0.0008861474307
0.0008861474357
0.000886147432
0.0008861474337
0.0008861474398
0.0008861474354
0.000886147438
0.0008861474346
0.0008861474428
0.0008861474329
0.0008861474263
0.0008861474282
0.0008861474243
0.0008861474197
0.0008861474211
0.0008861474181
0.0008861474149
0.0008861474157
0.0008861474146
0.0008861474292
0.0008861474308
0.0008861474401
0.0008861474278
0.0008861474482
0.0008861474646
0.0008861474277
0.0008861474268
0.0008861474267
0.0008861474291
0.0008861474271
0.0008861474279
0.0008861474322
0.0008861474292
0.0008861474312
0.0008861474367
0.0008861474331
0.0008861474359
0.0008861474314
0.0008861474414
0.00088614743
0.0008861474224
0.0008861474247
0.0008861474206
0.0008861474167
0.0008861474177
0.0008861474158
0.0008861474146
0.000886147415
0.000886147415
0.000886147433
0.0008861474288
0.0008861474363
0.000886147443
0.0008861474411
0.0008861474532
0.0008861474819
0.0008861474272
0.0008861474264
0.0008861474269
0.0008861474306
0.000886147428
0.0008861474304
0.0008861474357
0.0008861474327
0.0008861474361
0.0008861474286
0.0008861474426
0.0008861474271
0.0008861474189
0.0008861474213
0.0008861474179
0.0008861474156
0.0008861474165
0.0008861474161
0.0008861474379
0.0008861474889
0.0008861475033
0.0008861475492
0.000886147687
0.0008861477085
0.0008861479657
0.0008861474304
0.0008861474294
0.0008861474312
0.0008861474371
0.0008861474344
0.0008861474397
0.0008861474253
0.0008861474501
0.0008861474243
0.0008861474181
0.0008861474203
0.00088614742
0.00088614774
0.0008861475112
0.0008861474999
0.0008861474955
0.000886147456
0.0008861474285
0.0008861474335
0.0008861474285
0.0008861474324
0.0008861474301
0.0008861474672
0.0008861474695
0.0008861474731
0.0008861475299
0.00088614745
0.0008861474538
0.000886147456
0.0008861474422
0.0008861474618
0.0008861474544
0.0008861474444
0.0008861474713
0.000886147453
0.0008861474504
0.0008861474837
0.0008861474598
0.000886147434
0.0008861474787
0.0008861474677
0.0008861474273
0.000886147511
0.0008861474646
0.0008861474204
0.0008861475083
0.0008861474155
0.0008861475226
0.0008861474427
0.0008861474341
0.0008861474317
0.0008861474283
0.0008861474297
0.000886147431
0.0008861474319
0.0008861474341
0.0008861474374
0.0008861474445
0.00088614743
0.000886147423
0.0008861474168
0.0008861474148
0.0008861474283
0.0008861474281
0.0008861474291
0.0008861474305
0.0008861474341
0.0008861474387
0.0008861474504
0.0008861474277
0.0008861474282
0.0008861474304
0.000886147434
0.0008861474418
0.0008861474264
0.0008861474193
0.0008861474151
0.0008861474153
0.0008861474264
0.0008861474265
0.0008861474285
0.0008861474327
0.0008861474416
0.000886147423
0.0008861474167
0.0008861474154
0.0008861474158
0.0008861475435
0.0008861475545
0.000886147682
0.0008861477082
0.0008861476454
0.0008861477428
0.000886147427
0.000886147428
0.000886147433
0.0008861474448
0.0008861474201
0.0008861474172
0.0008861474182
0.0008861475743
0.0008861475332
0.0008861474159
0.0008861474353
0.0008861474562
0.000886147494
0.0008861507883
0.0008861591059
0.000886157614
0.000886165103
0.000886147441
0.0008861475751
0.0008861548271
0.0008861614115
0.000886162633
0.0008861474666
0.0008861478303
0.0008861614375
0.0008861624776
0.0008861614136
0.0008861474238
0.0008861504746
0.0008861643054
0.0008861626103
0.0008861609331
0.0008861474656
0.0008861474295
0.0008861474915
0.000886147476
0.0008861474377
0.0008861474292
0.0008861474387
0.0008861474283
0.0008861474979
0.0008861475233
0.0008861474285
0.0008861474284
0.000886147433
0.0008861474292
0.0008861475312
0.0008861475276
0.0008861474291
0.0008861474305
0.0008861475226
0.0008861474329
0.0008861474566
0.0008861475183
0.0008861474204
0.0008861474378
0.0008861474325
0.0008861474826
0.00088614742
0.0008861475197
0.0008861475275
0.0008861474587
0.0008861476108
0.0008861477157
0.0008861478136
0.0008861478669
0.000886147908
0.0008861479517
0.00088614743
0.0008861474334
0.0008861475007
0.0008861477287
0.0008861477018
0.0008861477574
0.0008861478001
0.0008861477433
0.0008861477817
0.0008861478637
0.0008861478132
0.0008861478427
0.0008861474752
0.0008861475152
0.0008861475882
0.0008861474499
0.0008861475944
0.0008861476348
0.0008861475441
0.0008861476254
0.0008861476324
0.0008861475369
0.0008861475407
0.0008861476681
0.000886147543
0.0008861476921
0.0008861476905
0.0008861477277
0.0008861476588
0.000886148496
0.0008861494557
0.0008861476269
0.0008861485257
0.0008861481481
0.0008861490993
0.0008861520554
0.0008861509011
0.0008861537695
0.0008861607697
0.0008861483977
0.0008861598496
0.0008861614086
0.0008861474257
0.0008861608744
0.0008861474186
0.0008861614534
0.0008861615871
0.0008861613775
0.0008861474137
0.0008861609354
0.0008861474458
0.0008861475334
0.0008861474146
0.0008861487571
0.0008861475184
0.0008861494943
0.0008861545688
0.0008861524114
0.0008861568301
0.0008861628016
0.0008861607783
0.0008861631202
0.000886164302
0.000886150824
0.0008861476498
0.0008861530449
0.0008861590265
0.0008861578473
0.0008861607778
0.0008861623123
0.0008861616506
0.0008861616419
0.0008861614455
0.0008861568755
0.0008861552362
0.0008861653556
0.0008861626494
0.0008861646275
0.000886163772
0.0008861619432
0.0008861629108
0.0008861620892
0.0008861613584
0.0008861649931
0.0008861491437
0.0008861642314
0.0008861634714
0.0008861637725
0.0008861631409
0.0008861617442
0.0008861624347
0.0008861616593
0.0008861606857
0.0008861608682
)
;

boundaryField
{
    walls
    {
        type            zeroGradient;
    }
    wallFilmFace_top
    {
        type            zeroGradient;
    }
    region0_to_wallFilmRegion_wallFilmFace
    {
        type            zeroGradient;
    }
    mirrorFace_top
    {
        type            zeroGradient;
    }
    region0_to_wallFilmRegion_mirrorFace
    {
        type            zeroGradient;
    }
    procBoundary2to0
    {
        type            processor;
        value           nonuniform List<scalar> 
26
(
0.0008861475505
0.0008861475433
0.0008861475008
0.0008861474703
0.0008861474534
0.0008861474946
0.0008861474565
0.0008861474145
0.0008861475838
0.0008861475504
0.0008861472415
0.0008861350019
0.0008861302318
0.0008861460935
0.0008861461727
0.0008861466711
0.0008861469532
0.0008861471615
0.000886147254
0.0008861473133
0.0008861473504
0.0008861473701
0.0008861473793
0.0008861473841
0.0008861473867
0.0008861473768
)
;
    }
    procBoundary2to1
    {
        type            processor;
        value           nonuniform List<scalar> 
33
(
0.0008861475142
0.0008861475142
0.0008861474986
0.0008861474986
0.0008861474886
0.0008861474445
0.0008861474391
0.0008861474391
0.0008861474545
0.0008861474381
0.0008861473793
0.0008861473513
0.0008861474209
0.0008861474693
0.0008861475942
0.0008861474135
0.0008861474281
0.0008861474785
0.0008861474204
0.0008861474458
0.0008861472822
0.0008861472922
0.0008861473769
0.0008861474185
0.0008861474118
0.000886147403
0.0008861473989
0.0008861474019
0.0008861474091
0.0008861474089
0.0008861474099
0.0008861474103
0.0008861474094
)
;
    }
    procBoundary2to3
    {
        type            processor;
        value           nonuniform List<scalar> 
64
(
0.0008861474606
0.0008861477363
0.0008861478629
0.000886147994
0.000886147932
0.0008861476122
0.000886148422
0.0008861595995
0.0008861590906
0.0008861475482
0.0008861474599
0.0008861475529
0.0008861474798
0.0008861474599
0.0008861474605
0.0008861474606
0.0008861474588
0.0008861474577
0.0008861474516
0.0008861474507
0.0008861474497
0.0008861474512
0.0008861474643
0.000886147471
0.000886147471
0.0008861474772
0.000886147481
0.000886147481
0.0008861474997
0.000886147481
0.0008861474356
0.0008861474504
0.0008861474356
0.0008861474671
0.0008861474921
0.0008861474302
0.0008861474308
0.0008861475482
0.0008861474429
0.0008861474356
0.000886147749
0.0008861617451
0.0008861664286
0.0008861630179
0.0008861611572
0.0008861603417
0.0008861474365
0.0008861474356
0.0008861474201
0.0008861476087
0.0008861477363
0.0008861479394
0.0008861479933
0.0008861478622
0.0008861477213
0.0008861476704
0.0008861475421
0.0008861510877
0.000886147413
0.0008861604492
0.0008861650529
0.0008861615386
0.0008861608794
0.000886160237
)
;
    }
}


// ************************************************************************* //
